 Entering Gaussian System, Link 0=/opt/cluster/programs/g09/g09_d.01/g09//g09
 Input=/home/boittier/MDCM/nms_sampling/butane_geom.xyz.dir/energies/butane_opt_1768_energy.com
 Output=/scratch/boittier/butane_opt_1768_energy/butane_opt_1768_energy.out
 Initial command:
 /opt/cluster/programs/g09/g09_d.01/g09/l1.exe "/scratch/boittier/butane_opt_1768_energy/Gau-62137.inp" -scrdir="/scratch/boittier/butane_opt_1768_energy/"
 Entering Link 1 = /opt/cluster/programs/g09/g09_d.01/g09/l1.exe PID=     62138.
  
 Copyright (c) 1988,1990,1992,1993,1995,1998,2003,2009,2013,
            Gaussian, Inc.  All Rights Reserved.
  
 This is part of the Gaussian(R) 09 program.  It is based on
 the Gaussian(R) 03 system (copyright 2003, Gaussian, Inc.),
 the Gaussian(R) 98 system (copyright 1998, Gaussian, Inc.),
 the Gaussian(R) 94 system (copyright 1995, Gaussian, Inc.),
 the Gaussian 92(TM) system (copyright 1992, Gaussian, Inc.),
 the Gaussian 90(TM) system (copyright 1990, Gaussian, Inc.),
 the Gaussian 88(TM) system (copyright 1988, Gaussian, Inc.),
 the Gaussian 86(TM) system (copyright 1986, Carnegie Mellon
 University), and the Gaussian 82(TM) system (copyright 1983,
 Carnegie Mellon University). Gaussian is a federally registered
 trademark of Gaussian, Inc.
  
 This software contains proprietary and confidential information,
 including trade secrets, belonging to Gaussian, Inc.
  
 This software is provided under written license and may be
 used, copied, transmitted, or stored only in accord with that
 written license.
  
 The following legend is applicable only to US Government
 contracts under FAR:
  
                    RESTRICTED RIGHTS LEGEND
  
 Use, reproduction and disclosure by the US Government is
 subject to restrictions as set forth in subparagraphs (a)
 and (c) of the Commercial Computer Software - Restricted
 Rights clause in FAR 52.227-19.
  
 Gaussian, Inc.
 340 Quinnipiac St., Bldg. 40, Wallingford CT 06492
  
  
 ---------------------------------------------------------------
 Warning -- This program may not be used in any manner that
 competes with the business of Gaussian, Inc. or will provide
 assistance to any competitor of Gaussian, Inc.  The licensee
 of this program is prohibited from giving any competitor of
 Gaussian, Inc. access to this program.  By using this program,
 the user acknowledges that Gaussian, Inc. is engaged in the
 business of creating and licensing software in the field of
 computational chemistry and represents and warrants to the
 licensee that it is not a competitor of Gaussian, Inc. and that
 it will not use this program in any manner prohibited above.
 ---------------------------------------------------------------
  

 Cite this work as:
 Gaussian 09, Revision D.01,
 M. J. Frisch, G. W. Trucks, H. B. Schlegel, G. E. Scuseria, 
 M. A. Robb, J. R. Cheeseman, G. Scalmani, V. Barone, B. Mennucci, 
 G. A. Petersson, H. Nakatsuji, M. Caricato, X. Li, H. P. Hratchian, 
 A. F. Izmaylov, J. Bloino, G. Zheng, J. L. Sonnenberg, M. Hada, 
 M. Ehara, K. Toyota, R. Fukuda, J. Hasegawa, M. Ishida, T. Nakajima, 
 Y. Honda, O. Kitao, H. Nakai, T. Vreven, J. A. Montgomery, Jr., 
 J. E. Peralta, F. Ogliaro, M. Bearpark, J. J. Heyd, E. Brothers, 
 K. N. Kudin, V. N. Staroverov, T. Keith, R. Kobayashi, J. Normand, 
 K. Raghavachari, A. Rendell, J. C. Burant, S. S. Iyengar, J. Tomasi, 
 M. Cossi, N. Rega, J. M. Millam, M. Klene, J. E. Knox, J. B. Cross, 
 V. Bakken, C. Adamo, J. Jaramillo, R. Gomperts, R. E. Stratmann, 
 O. Yazyev, A. J. Austin, R. Cammi, C. Pomelli, J. W. Ochterski, 
 R. L. Martin, K. Morokuma, V. G. Zakrzewski, G. A. Voth, 
 P. Salvador, J. J. Dannenberg, S. Dapprich, A. D. Daniels, 
 O. Farkas, J. B. Foresman, J. V. Ortiz, J. Cioslowski, 
 and D. J. Fox, Gaussian, Inc., Wallingford CT, 2013.
 
 ******************************************
 Gaussian 09:  ES64L-G09RevD.01 24-Apr-2013
                26-Aug-2020 
 ******************************************
 %chk=/home/boittier/MDCM/nms_sampling/butane_geom.xyz.dir/butane_opt_1768.chk
 %nproc=8
 Will use up to    8 processors via shared memory.
 %mem=16000MB
 --------------------
 #p B2PLYPD3/Def2QZVP
 --------------------
 1/38=1/1;
 2/12=2,17=6,18=5,40=1/2;
 3/5=45,7=101,11=9,16=1,25=1,30=1,74=-60/1,2,3;
 4//1;
 5/5=2,38=5/2;
 8/10=1/1;
 9/16=-3/6;
 6/7=2,8=2,9=2,10=2/1;
 99/5=1,9=1/99;
 Leave Link    1 at Wed Aug 26 13:07:51 2020, MaxMem=  2097152000 cpu:         0.3
 (Enter /opt/cluster/programs/g09/g09_d.01/g09/l101.exe)
 ----------
 butane_opt
 ----------
 Symbolic Z-matrix:
 Charge =  0 Multiplicity = 1
 C                    -3.92564   0.21112  -0.06482 
 C                    -2.76189  -0.51185   0.11154 
 H                    -4.97847  -0.35408   0.34644 
 H                    -3.85158   0.87994  -0.97115 
 H                    -3.84113   0.49757   0.60544 
 C                    -1.43075   0.22009   0.06422 
 H                    -2.95716  -1.18242  -0.71197 
 H                    -2.88228  -1.18363   1.22769 
 C                    -0.05162  -0.7404    0.0083 
 H                    -1.57063   0.85938   0.86929 
 H                    -1.4032    1.06821  -1.00255 
 H                    -0.08031  -0.89669   0.54303 
 H                     0.69894  -0.28625   0.37252 
 H                    -0.10336  -2.08081  -1.35641 
 
 NAtoms=     14 NQM=       14 NQMF=       0 NMMI=      0 NMMIF=      0
                NMic=       0 NMicF=      0.
                    Isotopes and Nuclear Properties:
 (Nuclear quadrupole moments (NQMom) in fm**2, nuclear magnetic moments (NMagM)
  in nuclear magnetons)

  Atom         1           2           3           4           5           6           7           8           9          10
 IAtWgt=          12          12           1           1           1          12           1           1          12           1
 AtmWgt=  12.0000000  12.0000000   1.0078250   1.0078250   1.0078250  12.0000000   1.0078250   1.0078250  12.0000000   1.0078250
 NucSpn=           0           0           1           1           1           0           1           1           0           1
 AtZEff=   0.0000000   0.0000000   0.0000000   0.0000000   0.0000000   0.0000000   0.0000000   0.0000000   0.0000000   0.0000000
 NQMom=    0.0000000   0.0000000   0.0000000   0.0000000   0.0000000   0.0000000   0.0000000   0.0000000   0.0000000   0.0000000
 NMagM=    0.0000000   0.0000000   2.7928460   2.7928460   2.7928460   0.0000000   2.7928460   2.7928460   0.0000000   2.7928460
 AtZNuc=   6.0000000   6.0000000   1.0000000   1.0000000   1.0000000   6.0000000   1.0000000   1.0000000   6.0000000   1.0000000

  Atom        11          12          13          14
 IAtWgt=           1           1           1           1
 AtmWgt=   1.0078250   1.0078250   1.0078250   1.0078250
 NucSpn=           1           1           1           1
 AtZEff=   0.0000000   0.0000000   0.0000000   0.0000000
 NQMom=    0.0000000   0.0000000   0.0000000   0.0000000
 NMagM=    2.7928460   2.7928460   2.7928460   2.7928460
 AtZNuc=   1.0000000   1.0000000   1.0000000   1.0000000
 Leave Link  101 at Wed Aug 26 13:07:51 2020, MaxMem=  2097152000 cpu:         0.7
 (Enter /opt/cluster/programs/g09/g09_d.01/g09/l202.exe)
                          Input orientation:                          
 ---------------------------------------------------------------------
 Center     Atomic      Atomic             Coordinates (Angstroms)
 Number     Number       Type             X           Y           Z
 ---------------------------------------------------------------------
      1          6           0       -3.925640    0.211120   -0.064820
      2          6           0       -2.761894   -0.511848    0.111537
      3          1           0       -4.978467   -0.354083    0.346436
      4          1           0       -3.851576    0.879942   -0.971146
      5          1           0       -3.841128    0.497568    0.605441
      6          6           0       -1.430745    0.220091    0.064218
      7          1           0       -2.957158   -1.182424   -0.711973
      8          1           0       -2.882281   -1.183634    1.227694
      9          6           0       -0.051621   -0.740398    0.008295
     10          1           0       -1.570627    0.859376    0.869292
     11          1           0       -1.403201    1.068215   -1.002546
     12          1           0       -0.080306   -0.896686    0.543029
     13          1           0        0.698942   -0.286249    0.372522
     14          1           0       -0.103355   -2.080810   -1.356410
 ---------------------------------------------------------------------
                    Distance matrix (angstroms):
                    1          2          3          4          5
     1  C    0.000000
     2  C    1.381336   0.000000
     3  H    1.263737   2.234561   0.000000
     4  H    1.128820   2.072846   2.128080   0.000000
     5  H    0.733788   1.558078   1.444276   1.622327   0.000000
     6  C    2.498246   1.519846   3.604949   2.714370   2.485933
     7  H    1.816240   1.079800   2.427358   2.262854   2.310705
     8  H    2.168993   1.308280   2.420489   3.167456   2.032985
     9  C    3.989832   2.721851   4.953523   4.245523   4.031068
    10  H    2.615127   1.968137   3.655029   2.930932   2.314238
    11  H    2.824295   2.363012   4.077402   2.455804   2.975693
    12  H    4.047630   2.743210   4.932043   4.435269   4.011436
    13  H    4.671767   3.477987   5.677874   4.885966   4.613118
    14  H    4.640152   3.418236   5.444997   4.792039   4.946498
                    6          7          8          9         10
     6  C    0.000000
     7  H    2.213472   0.000000
     8  H    2.330467   1.941112   0.000000
     9  C    1.681562   3.025941   3.113845   0.000000
    10  H    1.037495   2.931180   2.454135   2.368116   0.000000
    11  H    1.363106   2.750380   3.497495   2.473792   1.890879
    12  H    1.816628   3.151659   2.898650   0.557843   2.326211
    13  H    2.210656   3.917439   3.789694   0.949872   2.590402
    14  H    3.012357   3.060488   3.899352   1.913583   3.968795
                   11         12         13         14
    11  H    0.000000
    12  H    2.828372   0.000000
    13  H    2.853838   1.004457   0.000000
    14  H    3.425081   2.238426   2.617888   0.000000
 Stoichiometry    C4H10
 Framework group  C1[X(C4H10)]
 Deg. of freedom    36
 Full point group                 C1      NOp   1
 Largest Abelian subgroup         C1      NOp   1
 Largest concise Abelian subgroup C1      NOp   1
                         Standard orientation:                         
 ---------------------------------------------------------------------
 Center     Atomic      Atomic             Coordinates (Angstroms)
 Number     Number       Type             X           Y           Z
 ---------------------------------------------------------------------
      1          6           0       -1.914089   -0.079092    0.110914
      2          6           0       -0.639502    0.408449   -0.103145
      3          1           0       -2.850015    0.651590   -0.321724
      4          1           0       -1.953080   -0.709110    1.046751
      5          1           0       -1.892007   -0.405741   -0.545788
      6          6           0        0.534805   -0.553429   -0.027490
      7          1           0       -0.697892    1.139489    0.689409
      8          1           0       -0.648093    1.040579   -1.248542
      9          6           0        2.067639    0.137967   -0.021301
     10          1           0        0.269776   -1.191160   -0.801735
     11          1           0        0.419100   -1.343786    1.077049
     12          1           0        2.061569    0.272916   -0.562541
     13          1           0        2.717304   -0.462473   -0.367227
     14          1           0        2.280216    1.524321    1.280480
 ---------------------------------------------------------------------
 Rotational constants (GHZ):     21.8634752      3.4819887      3.3085285
 Leave Link  202 at Wed Aug 26 13:07:51 2020, MaxMem=  2097152000 cpu:         0.1
 (Enter /opt/cluster/programs/g09/g09_d.01/g09/l301.exe)
 Standard basis: def2QZVP (5D, 7F)
 Ernie: Thresh=  0.10000D-02 Tol=  0.10000D-05 Strict=F.
 There are   638 symmetry adapted cartesian basis functions of A   symmetry.
 There are   528 symmetry adapted basis functions of A   symmetry.
   528 basis functions,   748 primitive gaussians,   638 cartesian basis functions
    17 alpha electrons       17 beta electrons
       nuclear repulsion energy       132.6520268867 Hartrees.
 IExCor=  419 DFT=T Ex+Corr=B2PLYPD3 ExCW=0 ScaHFX=  0.530000
 ScaDFX=  0.470000  0.470000  0.730000  0.730000 ScalE2=  0.270000  0.270000
 IRadAn=      0 IRanWt=     -1 IRanGd=            0 ICorTp=0 IEmpDi=141
 NAtoms=   14 NActive=   14 NUniq=   14 SFac= 1.00D+00 NAtFMM=   60 NAOKFM=F Big=F
 Integral buffers will be    131072 words long.
 Regular integral format.
 Two-electron integral symmetry is turned on.
 R6Disp:  Grimme-D3(BJ) Dispersion energy=       -0.0068635997 Hartrees.
 Nuclear repulsion after empirical dispersion term =      132.6451632870 Hartrees.
 Leave Link  301 at Wed Aug 26 13:07:51 2020, MaxMem=  2097152000 cpu:         0.6
 (Enter /opt/cluster/programs/g09/g09_d.01/g09/l302.exe)
 NPDir=0 NMtPBC=     1 NCelOv=     1 NCel=       1 NClECP=     1 NCelD=      1
         NCelK=      1 NCelE2=     1 NClLst=     1 CellRange=     0.0.
 One-electron integrals computed using PRISM.
   1 Symmetry operations used in ECPInt.
 ECPInt:  NShTT=   14196 NPrTT=   30597 LenC2=   13843 LenP2D=   25831.
 LDataN:  DoStor=T MaxTD1= 8 Len=  415
 NBasis=   528 RedAO= T EigKep=  1.77D-05  NBF=   528
 NBsUse=   528 1.00D-06 EigRej= -1.00D+00 NBFU=   528
 Precomputing XC quadrature grid using
 IXCGrd= 4 IRadAn=           0 IRanWt=          -1 IRanGd=           0 AccXCQ= 0.00D+00.
 Generated NRdTot=       0 NPtTot=           0 NUsed=           0 NTot=          32
 NSgBfM=   638   638   638   638   638 MxSgAt=    14 MxSgA2=    14.
 Leave Link  302 at Wed Aug 26 13:07:52 2020, MaxMem=  2097152000 cpu:         7.1
 (Enter /opt/cluster/programs/g09/g09_d.01/g09/l303.exe)
 DipDrv:  MaxL=1.
 Leave Link  303 at Wed Aug 26 13:07:53 2020, MaxMem=  2097152000 cpu:         0.7
 (Enter /opt/cluster/programs/g09/g09_d.01/g09/l401.exe)
 ExpMin= 7.60D-02 ExpMax= 6.70D+04 ExpMxC= 6.47D+02 IAcc=2 IRadAn=         4 AccDes= 0.00D+00
 Harris functional with IExCor=  419 and IRadAn=       4 diagonalized for initial guess.
 HarFok:  IExCor=  419 AccDes= 0.00D+00 IRadAn=         4 IDoV= 1 UseB2=F ITyADJ=14
 ICtDFT=  3500011 ScaDFX=  1.000000  1.000000  1.000000  1.000000
 FoFCou: FMM=F IPFlag=           0 FMFlag=      100000 FMFlg1=           0
         NFxFlg=           0 DoJE=T BraDBF=F KetDBF=T FulRan=T
         wScrn=  0.000000 ICntrl=     500 IOpCl=  0 I1Cent=   200000004 NGrid=           0
         NMat0=    1 NMatS0=      1 NMatT0=    0 NMatD0=    1 NMtDS0=    0 NMtDT0=    0
 Petite list used in FoFCou.
 Harris En= -157.761663989660    
 JPrj=0 DoOrth=F DoCkMO=F.
 Leave Link  401 at Wed Aug 26 13:07:55 2020, MaxMem=  2097152000 cpu:        19.9
 (Enter /opt/cluster/programs/g09/g09_d.01/g09/l502.exe)
 Closed shell SCF:
 Using DIIS extrapolation, IDIIS=  1040.
 Integral symmetry usage will be decided dynamically.
 IVT=     1249338 IEndB=     1249338 NGot=  2097152000 MDV=  2096326985
 LenX=  2096326985 LenY=  2095919303
 Requested convergence on RMS density matrix=1.00D-08 within 128 cycles.
 Requested convergence on MAX density matrix=1.00D-06.
 Requested convergence on             energy=1.00D-06.
 No special actions if energy rises.
 Fock matrices will be formed incrementally for  20 cycles.
 Integral accuracy reduced to 1.0D-05 until final iterations.

 Cycle   1  Pass 0  IDiag  1:
 FoFJK:  IHMeth= 1 ICntrl=       0 DoSepK=F KAlg= 0 I1Cent=   0 FoldK=F
 IRaf= 930000000 NMat=   1 IRICut=       1 DoRegI=T DoRafI=F ISym2E= 0.
 FoFCou: FMM=F IPFlag=           0 FMFlag=      100000 FMFlg1=           0
         NFxFlg=           0 DoJE=F BraDBF=F KetDBF=F FulRan=T
         wScrn=  0.000000 ICntrl=       0 IOpCl=  0 I1Cent=           0 NGrid=           0
         NMat0=    1 NMatS0=      1 NMatT0=    0 NMatD0=    1 NMtDS0=    0 NMtDT0=    0
 Symmetry not used in FoFCou.
 E= -156.277813888415    
 DIIS: error= 5.43D-02 at cycle   1 NSaved=   1.
 NSaved= 1 IEnMin= 1 EnMin= -156.277813888415     IErMin= 1 ErrMin= 5.43D-02
 ErrMax= 5.43D-02  0.00D+00 EMaxC= 1.00D-01 BMatC= 7.98D-01 BMatP= 7.98D-01
 IDIUse=3 WtCom= 4.57D-01 WtEn= 5.43D-01
 Coeff-Com:  0.100D+01
 Coeff-En:   0.100D+01
 Coeff:      0.100D+01
 Gap=     0.188 Goal=   None    Shift=    0.000
 GapD=    0.188 DampG=1.000 DampE=0.500 DampFc=0.5000 IDamp=-1.
 Damping current iteration by 5.00D-01
 RMSDP=3.56D-03 MaxDP=3.57D-01              OVMax= 5.93D-01

 Cycle   2  Pass 0  IDiag  1:
 RMSU=  1.77D-03    CP:  9.57D-01
 E= -156.623391813283     Delta-E=       -0.345577924868 Rises=F Damp=T
 DIIS: error= 7.67D-03 at cycle   2 NSaved=   2.
 NSaved= 2 IEnMin= 2 EnMin= -156.623391813283     IErMin= 2 ErrMin= 7.67D-03
 ErrMax= 7.67D-03  0.00D+00 EMaxC= 1.00D-01 BMatC= 4.66D-02 BMatP= 7.98D-01
 IDIUse=3 WtCom= 9.23D-01 WtEn= 7.67D-02
 Coeff-Com: -0.628D-01 0.106D+01
 Coeff-En:   0.305D-01 0.969D+00
 Coeff:     -0.557D-01 0.106D+01
 Gap=     0.430 Goal=   None    Shift=    0.000
 RMSDP=1.62D-03 MaxDP=2.03D-01 DE=-3.46D-01 OVMax= 4.24D-01

 Cycle   3  Pass 0  IDiag  1:
 RMSU=  7.06D-04    CP:  8.93D-01  1.90D-01
 E= -156.982201628177     Delta-E=       -0.358809814894 Rises=F Damp=F
 DIIS: error= 6.92D-03 at cycle   3 NSaved=   3.
 NSaved= 3 IEnMin= 3 EnMin= -156.982201628177     IErMin= 3 ErrMin= 6.92D-03
 ErrMax= 6.92D-03  0.00D+00 EMaxC= 1.00D-01 BMatC= 1.06D-02 BMatP= 4.66D-02
 IDIUse=3 WtCom= 9.31D-01 WtEn= 6.92D-02
 Coeff-Com: -0.849D-01 0.261D+00 0.824D+00
 Coeff-En:   0.000D+00 0.000D+00 0.100D+01
 Coeff:     -0.790D-01 0.243D+00 0.836D+00
 Gap=     0.317 Goal=   None    Shift=    0.000
 RMSDP=1.67D-04 MaxDP=1.55D-02 DE=-3.59D-01 OVMax= 6.81D-02

 Cycle   4  Pass 0  IDiag  1:
 RMSU=  1.53D-04    CP:  8.82D-01  1.85D-01  1.08D+00
 E= -156.994672144820     Delta-E=       -0.012470516643 Rises=F Damp=F
 DIIS: error= 2.06D-03 at cycle   4 NSaved=   4.
 NSaved= 4 IEnMin= 4 EnMin= -156.994672144820     IErMin= 4 ErrMin= 2.06D-03
 ErrMax= 2.06D-03  0.00D+00 EMaxC= 1.00D-01 BMatC= 2.13D-03 BMatP= 1.06D-02
 IDIUse=3 WtCom= 9.79D-01 WtEn= 2.06D-02
 Coeff-Com: -0.245D-01 0.235D-01 0.368D+00 0.633D+00
 Coeff-En:   0.000D+00 0.000D+00 0.253D-02 0.997D+00
 Coeff:     -0.240D-01 0.230D-01 0.361D+00 0.640D+00
 Gap=     0.315 Goal=   None    Shift=    0.000
 RMSDP=6.96D-05 MaxDP=3.57D-03 DE=-1.25D-02 OVMax= 1.27D-02

 Cycle   5  Pass 0  IDiag  1:
 RMSU=  5.67D-05    CP:  8.82D-01  1.66D-01  1.09D+00  8.77D-01
 E= -156.996842957725     Delta-E=       -0.002170812905 Rises=F Damp=F
 DIIS: error= 3.21D-04 at cycle   5 NSaved=   5.
 NSaved= 5 IEnMin= 5 EnMin= -156.996842957725     IErMin= 5 ErrMin= 3.21D-04
 ErrMax= 3.21D-04  0.00D+00 EMaxC= 1.00D-01 BMatC= 6.74D-05 BMatP= 2.13D-03
 IDIUse=3 WtCom= 9.97D-01 WtEn= 3.21D-03
 Coeff-Com:  0.384D-02-0.209D-01 0.242D-01 0.138D+00 0.855D+00
 Coeff-En:   0.000D+00 0.000D+00 0.000D+00 0.000D+00 0.100D+01
 Coeff:      0.383D-02-0.208D-01 0.242D-01 0.138D+00 0.855D+00
 Gap=     0.317 Goal=   None    Shift=    0.000
 RMSDP=2.43D-05 MaxDP=1.39D-03 DE=-2.17D-03 OVMax= 3.35D-03

 Cycle   6  Pass 0  IDiag  1:
 RMSU=  1.56D-05    CP:  8.82D-01  1.59D-01  1.10D+00  9.35D-01  1.20D+00
 E= -156.996915962435     Delta-E=       -0.000073004710 Rises=F Damp=F
 DIIS: error= 1.24D-04 at cycle   6 NSaved=   6.
 NSaved= 6 IEnMin= 6 EnMin= -156.996915962435     IErMin= 6 ErrMin= 1.24D-04
 ErrMax= 1.24D-04  0.00D+00 EMaxC= 1.00D-01 BMatC= 7.49D-06 BMatP= 6.74D-05
 IDIUse=3 WtCom= 9.99D-01 WtEn= 1.24D-03
 Coeff-Com:  0.298D-02-0.757D-02-0.142D-01-0.852D-02 0.239D+00 0.789D+00
 Coeff-En:   0.000D+00 0.000D+00 0.000D+00 0.000D+00 0.000D+00 0.100D+01
 Coeff:      0.297D-02-0.756D-02-0.142D-01-0.850D-02 0.238D+00 0.789D+00
 Gap=     0.316 Goal=   None    Shift=    0.000
 RMSDP=6.08D-06 MaxDP=3.25D-04 DE=-7.30D-05 OVMax= 7.98D-04

 Initial convergence to 1.0D-05 achieved.  Increase integral accuracy.
 Cycle   7  Pass 1  IDiag  1:
 E= -156.996918025373     Delta-E=       -0.000002062938 Rises=F Damp=F
 DIIS: error= 6.38D-05 at cycle   1 NSaved=   1.
 NSaved= 1 IEnMin= 1 EnMin= -156.996918025373     IErMin= 1 ErrMin= 6.38D-05
 ErrMax= 6.38D-05  0.00D+00 EMaxC= 1.00D-01 BMatC= 1.97D-06 BMatP= 1.97D-06
 IDIUse=1 WtCom= 1.00D+00 WtEn= 0.00D+00
 Coeff-Com:  0.100D+01
 Coeff:      0.100D+01
 Gap=     0.316 Goal=   None    Shift=    0.000
 RMSDP=6.08D-06 MaxDP=3.25D-04 DE=-2.06D-06 OVMax= 5.88D-04

 Cycle   8  Pass 1  IDiag  1:
 RMSU=  5.05D-05    CP:  1.00D+00
 E= -156.996918475198     Delta-E=       -0.000000449825 Rises=F Damp=F
 DIIS: error= 4.93D-05 at cycle   2 NSaved=   2.
 NSaved= 2 IEnMin= 2 EnMin= -156.996918475198     IErMin= 2 ErrMin= 4.93D-05
 ErrMax= 4.93D-05  0.00D+00 EMaxC= 1.00D-01 BMatC= 1.02D-06 BMatP= 1.97D-06
 IDIUse=1 WtCom= 1.00D+00 WtEn= 0.00D+00
 Coeff-Com:  0.403D+00 0.597D+00
 Coeff:      0.403D+00 0.597D+00
 Gap=     0.316 Goal=   None    Shift=    0.000
 RMSDP=1.67D-06 MaxDP=1.00D-04 DE=-4.50D-07 OVMax= 2.53D-04

 Cycle   9  Pass 1  IDiag  1:
 RMSU=  1.25D-06    CP:  1.00D+00  1.02D+00
 E= -156.996919405570     Delta-E=       -0.000000930372 Rises=F Damp=F
 DIIS: error= 1.24D-05 at cycle   3 NSaved=   3.
 NSaved= 3 IEnMin= 3 EnMin= -156.996919405570     IErMin= 3 ErrMin= 1.24D-05
 ErrMax= 1.24D-05  0.00D+00 EMaxC= 1.00D-01 BMatC= 5.64D-08 BMatP= 1.02D-06
 IDIUse=1 WtCom= 1.00D+00 WtEn= 0.00D+00
 Coeff-Com:  0.280D-02 0.184D+00 0.813D+00
 Coeff:      0.280D-02 0.184D+00 0.813D+00
 Gap=     0.316 Goal=   None    Shift=    0.000
 RMSDP=7.91D-07 MaxDP=5.89D-05 DE=-9.30D-07 OVMax= 1.13D-04

 Cycle  10  Pass 1  IDiag  1:
 RMSU=  3.59D-07    CP:  1.00D+00  1.04D+00  9.52D-01
 E= -156.996919462695     Delta-E=       -0.000000057125 Rises=F Damp=F
 DIIS: error= 3.02D-06 at cycle   4 NSaved=   4.
 NSaved= 4 IEnMin= 4 EnMin= -156.996919462695     IErMin= 4 ErrMin= 3.02D-06
 ErrMax= 3.02D-06  0.00D+00 EMaxC= 1.00D-01 BMatC= 3.63D-09 BMatP= 5.64D-08
 IDIUse=1 WtCom= 1.00D+00 WtEn= 0.00D+00
 Coeff-Com: -0.899D-02 0.657D-01 0.359D+00 0.584D+00
 Coeff:     -0.899D-02 0.657D-01 0.359D+00 0.584D+00
 Gap=     0.316 Goal=   None    Shift=    0.000
 RMSDP=8.65D-08 MaxDP=4.93D-06 DE=-5.71D-08 OVMax= 1.67D-05

 Cycle  11  Pass 1  IDiag  1:
 RMSU=  6.83D-08    CP:  1.00D+00  1.04D+00  9.74D-01  1.03D+00
 E= -156.996919466393     Delta-E=       -0.000000003698 Rises=F Damp=F
 DIIS: error= 5.31D-07 at cycle   5 NSaved=   5.
 NSaved= 5 IEnMin= 5 EnMin= -156.996919466393     IErMin= 5 ErrMin= 5.31D-07
 ErrMax= 5.31D-07  0.00D+00 EMaxC= 1.00D-01 BMatC= 1.10D-10 BMatP= 3.63D-09
 IDIUse=1 WtCom= 1.00D+00 WtEn= 0.00D+00
 Coeff-Com: -0.631D-03-0.162D-01-0.645D-01 0.221D-01 0.106D+01
 Coeff:     -0.631D-03-0.162D-01-0.645D-01 0.221D-01 0.106D+01
 Gap=     0.316 Goal=   None    Shift=    0.000
 RMSDP=4.68D-08 MaxDP=2.50D-06 DE=-3.70D-09 OVMax= 1.50D-05

 Cycle  12  Pass 1  IDiag  1:
 RMSU=  3.11D-08    CP:  1.00D+00  1.04D+00  9.84D-01  1.11D+00  1.17D+00
 E= -156.996919466662     Delta-E=       -0.000000000269 Rises=F Damp=F
 DIIS: error= 3.88D-07 at cycle   6 NSaved=   6.
 NSaved= 6 IEnMin= 6 EnMin= -156.996919466662     IErMin= 6 ErrMin= 3.88D-07
 ErrMax= 3.88D-07  0.00D+00 EMaxC= 1.00D-01 BMatC= 4.32D-11 BMatP= 1.10D-10
 IDIUse=1 WtCom= 1.00D+00 WtEn= 0.00D+00
 Coeff-Com:  0.636D-03-0.152D-01-0.707D-01-0.603D-01 0.500D+00 0.646D+00
 Coeff:      0.636D-03-0.152D-01-0.707D-01-0.603D-01 0.500D+00 0.646D+00
 Gap=     0.316 Goal=   None    Shift=    0.000
 RMSDP=1.26D-08 MaxDP=7.66D-07 DE=-2.69D-10 OVMax= 2.84D-06

 Cycle  13  Pass 1  IDiag  1:
 RMSU=  8.77D-09    CP:  1.00D+00  1.04D+00  9.84D-01  1.12D+00  1.27D+00
                    CP:  1.09D+00
 E= -156.996919466715     Delta-E=       -0.000000000052 Rises=F Damp=F
 DIIS: error= 5.61D-08 at cycle   7 NSaved=   7.
 NSaved= 7 IEnMin= 7 EnMin= -156.996919466715     IErMin= 7 ErrMin= 5.61D-08
 ErrMax= 5.61D-08  0.00D+00 EMaxC= 1.00D-01 BMatC= 8.09D-13 BMatP= 4.32D-11
 IDIUse=1 WtCom= 1.00D+00 WtEn= 0.00D+00
 Coeff-Com:  0.142D-03-0.109D-02-0.580D-02-0.111D-01 0.117D-02 0.101D+00
 Coeff-Com:  0.915D+00
 Coeff:      0.142D-03-0.109D-02-0.580D-02-0.111D-01 0.117D-02 0.101D+00
 Coeff:      0.915D+00
 Gap=     0.316 Goal=   None    Shift=    0.000
 RMSDP=3.81D-09 MaxDP=2.17D-07 DE=-5.23D-11 OVMax= 6.19D-07

 SCF Done:  E(RB2PLYPD3) =  -156.996919467     A.U. after   13 cycles
            NFock= 13  Conv=0.38D-08     -V/T= 1.9852
 KE= 1.593537749696D+02 PE=-6.302641609667D+02 EE= 1.812683032434D+02
 Leave Link  502 at Wed Aug 26 13:16:31 2020, MaxMem=  2097152000 cpu:      4120.7
 (Enter /opt/cluster/programs/g09/g09_d.01/g09/l801.exe)
 DoSCS=T DFT=T ScalE2(SS,OS)=  0.270000  0.270000
 ExpMin= 7.60D-02 ExpMax= 6.70D+04 ExpMxC= 6.47D+02 IAcc=3 IRadAn=         5 AccDes= 0.00D+00
 HarFok:  IExCor=  205 AccDes= 0.00D+00 IRadAn=         5 IDoV=-2 UseB2=F ITyADJ=14
 ICtDFT= 12500011 ScaDFX=  1.000000  1.000000  1.000000  1.000000
 Largest valence mixing into a core orbital is  1.20D-04
 Largest core mixing into a valence orbital is  1.40D-05
 Range of M.O.s used for correlation:     5   528
 NBasis=   528 NAE=    17 NBE=    17 NFC=     4 NFV=     0
 NROrb=    524 NOA=    13 NOB=    13 NVA=   511 NVB=   511

 **** Warning!!: The largest alpha MO coefficient is  0.35770403D+02

 Leave Link  801 at Wed Aug 26 13:16:32 2020, MaxMem=  2097152000 cpu:         1.4
 (Enter /opt/cluster/programs/g09/g09_d.01/g09/l906.exe)
 DoSCS=T DFT=T ScalE2(SS,OS)=  0.270000  0.270000
 FulOut=F Deriv=F AODrv=F NAtomX=    14
   MMem=         463  MDisk=          13 MDiskD=          13
  W3Min=     4238234 MinDsk=     6904766 NBas6D=         638
 NBas2D=      205689    NTT=      203841    LW2=     4508827
    MDV=  2095906782 MDiskM=        7293 NBas2p=      188212
 Fully direct method using O(OVN) memory.
 IMap=   1   2   3   4   5   6   7   8   9  10  11  12  13
 JobTyp=1 Pass  1:  I=   1 to  13 NPSUse=  8 ParTrn=T ParDer=T DoDerP=F.
 Spin components of T(2) and E(2):
     alpha-alpha T2 =       0.4320464863D-01 E2=     -0.2722920732D-01
     alpha-beta  T2 =       0.3193072307D+00 E2=     -0.2038239456D+00
     beta-beta   T2 =       0.4320464863D-01 E2=     -0.2722920732D-01
 The integrals were generated   1 times.
 E2(B2PLYPD3) =    -0.2582823603D+00 E(B2PLYPD3) =    -0.15725520182698D+03
 Leave Link  906 at Wed Aug 26 13:21:41 2020, MaxMem=  2097152000 cpu:      2467.3
 (Enter /opt/cluster/programs/g09/g09_d.01/g09/l601.exe)
 Copying SCF densities to generalized density rwf, IOpCl= 0 IROHF=0.

 **********************************************************************

            Population analysis using the SCF density.

 **********************************************************************

 Orbital symmetries:
       Occupied  (A) (A) (A) (A) (A) (A) (A) (A) (A) (A) (A) (A)
                 (A) (A) (A) (A) (A)
       Virtual   (A) (A) (A) (A) (A) (A) (A) (A) (A) (A) (A) (A)
                 (A) (A) (A) (A) (A) (A) (A) (A) (A) (A) (A) (A)
                 (A) (A) (A) (A) (A) (A) (A) (A) (A) (A) (A) (A)
                 (A) (A) (A) (A) (A) (A) (A) (A) (A) (A) (A) (A)
                 (A) (A) (A) (A) (A) (A) (A) (A) (A) (A) (A) (A)
                 (A) (A) (A) (A) (A) (A) (A) (A) (A) (A) (A) (A)
                 (A) (A) (A) (A) (A) (A) (A) (A) (A) (A) (A) (A)
                 (A) (A) (A) (A) (A) (A) (A) (A) (A) (A) (A) (A)
                 (A) (A) (A) (A) (A) (A) (A) (A) (A) (A) (A) (A)
                 (A) (A) (A) (A) (A) (A) (A) (A) (A) (A) (A) (A)
                 (A) (A) (A) (A) (A) (A) (A) (A) (A) (A) (A) (A)
                 (A) (A) (A) (A) (A) (A) (A) (A) (A) (A) (A) (A)
                 (A) (A) (A) (A) (A) (A) (A) (A) (A) (A) (A) (A)
                 (A) (A) (A) (A) (A) (A) (A) (A) (A) (A) (A) (A)
                 (A) (A) (A) (A) (A) (A) (A) (A) (A) (A) (A) (A)
                 (A) (A) (A) (A) (A) (A) (A) (A) (A) (A) (A) (A)
                 (A) (A) (A) (A) (A) (A) (A) (A) (A) (A) (A) (A)
                 (A) (A) (A) (A) (A) (A) (A) (A) (A) (A) (A) (A)
                 (A) (A) (A) (A) (A) (A) (A) (A) (A) (A) (A) (A)
                 (A) (A) (A) (A) (A) (A) (A) (A) (A) (A) (A) (A)
                 (A) (A) (A) (A) (A) (A) (A) (A) (A) (A) (A) (A)
                 (A) (A) (A) (A) (A) (A) (A) (A) (A) (A) (A) (A)
                 (A) (A) (A) (A) (A) (A) (A) (A) (A) (A) (A) (A)
                 (A) (A) (A) (A) (A) (A) (A) (A) (A) (A) (A) (A)
                 (A) (A) (A) (A) (A) (A) (A) (A) (A) (A) (A) (A)
                 (A) (A) (A) (A) (A) (A) (A) (A) (A) (A) (A) (A)
                 (A) (A) (A) (A) (A) (A) (A) (A) (A) (A) (A) (A)
                 (A) (A) (A) (A) (A) (A) (A) (A) (A) (A) (A) (A)
                 (A) (A) (A) (A) (A) (A) (A) (A) (A) (A) (A) (A)
                 (A) (A) (A) (A) (A) (A) (A) (A) (A) (A) (A) (A)
                 (A) (A) (A) (A) (A) (A) (A) (A) (A) (A) (A) (A)
                 (A) (A) (A) (A) (A) (A) (A) (A) (A) (A) (A) (A)
                 (A) (A) (A) (A) (A) (A) (A) (A) (A) (A) (A) (A)
                 (A) (A) (A) (A) (A) (A) (A) (A) (A) (A) (A) (A)
                 (A) (A) (A) (A) (A) (A) (A) (A) (A) (A) (A) (A)
                 (A) (A) (A) (A) (A) (A) (A) (A) (A) (A) (A) (A)
                 (A) (A) (A) (A) (A) (A) (A) (A) (A) (A) (A) (A)
                 (A) (A) (A) (A) (A) (A) (A) (A) (A) (A) (A) (A)
                 (A) (A) (A) (A) (A) (A) (A) (A) (A) (A) (A) (A)
                 (A) (A) (A) (A) (A) (A) (A) (A) (A) (A) (A) (A)
                 (A) (A) (A) (A) (A) (A) (A) (A) (A) (A) (A) (A)
                 (A) (A) (A) (A) (A) (A) (A) (A) (A) (A) (A) (A)
                 (A) (A) (A) (A) (A) (A) (A)
 The electronic state is 1-A.
 Alpha  occ. eigenvalues --  -10.65133 -10.63517 -10.61778 -10.57049  -0.97159
 Alpha  occ. eigenvalues --   -0.94689  -0.78871  -0.66600  -0.56336  -0.50437
 Alpha  occ. eigenvalues --   -0.49613  -0.47340  -0.43249  -0.39577  -0.35822
 Alpha  occ. eigenvalues --   -0.35607  -0.34058
 Alpha virt. eigenvalues --   -0.02481   0.05190   0.06283   0.06785   0.09705
 Alpha virt. eigenvalues --    0.10053   0.11930   0.12712   0.14201   0.15535
 Alpha virt. eigenvalues --    0.15677   0.16822   0.18432   0.18666   0.20582
 Alpha virt. eigenvalues --    0.22103   0.23343   0.24717   0.24999   0.25874
 Alpha virt. eigenvalues --    0.28105   0.29009   0.30261   0.31583   0.32123
 Alpha virt. eigenvalues --    0.34234   0.35158   0.37466   0.39038   0.39115
 Alpha virt. eigenvalues --    0.41031   0.43212   0.44795   0.46518   0.47768
 Alpha virt. eigenvalues --    0.49537   0.51348   0.53539   0.54253   0.57083
 Alpha virt. eigenvalues --    0.58802   0.60707   0.62383   0.63340   0.64761
 Alpha virt. eigenvalues --    0.65869   0.67117   0.68756   0.69807   0.70603
 Alpha virt. eigenvalues --    0.72373   0.73534   0.75259   0.77023   0.77323
 Alpha virt. eigenvalues --    0.79873   0.80506   0.81827   0.82635   0.84439
 Alpha virt. eigenvalues --    0.84689   0.87864   0.88117   0.89862   0.91288
 Alpha virt. eigenvalues --    0.92423   0.93598   0.95080   0.95679   0.97325
 Alpha virt. eigenvalues --    0.98697   1.00562   1.01085   1.02529   1.03505
 Alpha virt. eigenvalues --    1.04522   1.05733   1.06159   1.09173   1.09851
 Alpha virt. eigenvalues --    1.12330   1.13496   1.15094   1.15863   1.18046
 Alpha virt. eigenvalues --    1.19883   1.21719   1.23140   1.24126   1.27699
 Alpha virt. eigenvalues --    1.29280   1.32030   1.32528   1.34466   1.35184
 Alpha virt. eigenvalues --    1.36982   1.38874   1.39647   1.41456   1.45909
 Alpha virt. eigenvalues --    1.46687   1.49667   1.52176   1.56670   1.57781
 Alpha virt. eigenvalues --    1.58160   1.65845   1.70815   1.73363   1.76395
 Alpha virt. eigenvalues --    1.81617   1.83515   1.83841   1.85535   1.87730
 Alpha virt. eigenvalues --    1.88968   1.91471   1.92219   1.94019   1.97421
 Alpha virt. eigenvalues --    1.97769   1.99410   1.99711   2.01502   2.03216
 Alpha virt. eigenvalues --    2.03236   2.04164   2.05489   2.06704   2.08146
 Alpha virt. eigenvalues --    2.08446   2.11163   2.12990   2.13343   2.15374
 Alpha virt. eigenvalues --    2.16080   2.17652   2.18878   2.20401   2.21403
 Alpha virt. eigenvalues --    2.22236   2.23512   2.24862   2.26037   2.28683
 Alpha virt. eigenvalues --    2.31601   2.32329   2.33919   2.34418   2.36220
 Alpha virt. eigenvalues --    2.37705   2.38920   2.40136   2.40897   2.43474
 Alpha virt. eigenvalues --    2.45219   2.46703   2.47117   2.48031   2.50739
 Alpha virt. eigenvalues --    2.51719   2.55000   2.55220   2.56106   2.57431
 Alpha virt. eigenvalues --    2.58120   2.59919   2.62226   2.63206   2.63406
 Alpha virt. eigenvalues --    2.64796   2.66742   2.69751   2.70865   2.71585
 Alpha virt. eigenvalues --    2.72790   2.74589   2.75805   2.79437   2.81836
 Alpha virt. eigenvalues --    2.82760   2.82834   2.84972   2.87271   2.89569
 Alpha virt. eigenvalues --    2.91524   2.93110   2.93901   2.96221   2.97313
 Alpha virt. eigenvalues --    3.00112   3.00950   3.05286   3.06146   3.07608
 Alpha virt. eigenvalues --    3.09543   3.11408   3.12802   3.15523   3.17994
 Alpha virt. eigenvalues --    3.20584   3.22475   3.24797   3.26827   3.27786
 Alpha virt. eigenvalues --    3.29656   3.33215   3.34097   3.35055   3.36642
 Alpha virt. eigenvalues --    3.38968   3.39536   3.41791   3.44722   3.47175
 Alpha virt. eigenvalues --    3.50560   3.54617   3.54745   3.57658   3.63382
 Alpha virt. eigenvalues --    3.63971   3.67824   3.70022   3.71176   3.74528
 Alpha virt. eigenvalues --    3.77000   3.79647   3.83448   3.85246   3.85790
 Alpha virt. eigenvalues --    3.87662   3.89563   3.92782   3.95859   3.97320
 Alpha virt. eigenvalues --    3.99014   4.01212   4.05962   4.07588   4.11445
 Alpha virt. eigenvalues --    4.15072   4.18617   4.27790   4.30779   4.36003
 Alpha virt. eigenvalues --    4.39208   4.41679   4.49892   4.54639   4.68225
 Alpha virt. eigenvalues --    4.78435   4.86501   4.94719   5.05438   5.09342
 Alpha virt. eigenvalues --    5.10718   5.17767   5.25163   5.26122   5.29912
 Alpha virt. eigenvalues --    5.35925   5.40281   5.41451   5.44141   5.47188
 Alpha virt. eigenvalues --    5.51358   5.53638   5.57794   5.61431   5.62217
 Alpha virt. eigenvalues --    5.64219   5.66434   5.67519   5.71340   5.72885
 Alpha virt. eigenvalues --    5.76148   5.78370   5.79371   5.80885   5.82798
 Alpha virt. eigenvalues --    5.85502   5.88263   5.89177   5.90407   5.91370
 Alpha virt. eigenvalues --    5.92330   5.93674   5.93869   5.96720   5.96926
 Alpha virt. eigenvalues --    5.98150   6.00262   6.02138   6.03390   6.03781
 Alpha virt. eigenvalues --    6.04671   6.06013   6.06173   6.08584   6.10912
 Alpha virt. eigenvalues --    6.13361   6.13601   6.16713   6.17786   6.17959
 Alpha virt. eigenvalues --    6.19312   6.23651   6.24319   6.25205   6.26082
 Alpha virt. eigenvalues --    6.27554   6.28908   6.31535   6.32417   6.36845
 Alpha virt. eigenvalues --    6.38410   6.39388   6.40971   6.43341   6.46008
 Alpha virt. eigenvalues --    6.49110   6.49322   6.51013   6.51788   6.56846
 Alpha virt. eigenvalues --    6.57941   6.61361   6.62592   6.65967   6.68690
 Alpha virt. eigenvalues --    6.70818   6.72142   6.72832   6.76530   6.81000
 Alpha virt. eigenvalues --    6.81774   6.83685   6.84930   6.88220   6.89953
 Alpha virt. eigenvalues --    6.91270   6.92611   6.95116   6.96224   6.97569
 Alpha virt. eigenvalues --    6.99071   7.01136   7.06329   7.09446   7.11938
 Alpha virt. eigenvalues --    7.14988   7.15066   7.19764   7.19994   7.22796
 Alpha virt. eigenvalues --    7.24487   7.29344   7.36634   7.37887   7.40132
 Alpha virt. eigenvalues --    7.42877   7.44648   7.48346   7.50240   7.52392
 Alpha virt. eigenvalues --    7.54488   7.55329   7.56737   7.59883   7.62122
 Alpha virt. eigenvalues --    7.63882   7.65324   7.65750   7.67641   7.69747
 Alpha virt. eigenvalues --    7.72107   7.74072   7.74923   7.76531   7.76878
 Alpha virt. eigenvalues --    7.81674   7.82148   7.85325   7.87885   7.89789
 Alpha virt. eigenvalues --    7.91925   7.93934   7.94854   7.97795   7.99374
 Alpha virt. eigenvalues --    7.99731   8.01458   8.04741   8.04841   8.07246
 Alpha virt. eigenvalues --    8.07837   8.10753   8.13039   8.14075   8.15052
 Alpha virt. eigenvalues --    8.17023   8.18397   8.19812   8.22008   8.25153
 Alpha virt. eigenvalues --    8.26850   8.29232   8.30785   8.32697   8.34611
 Alpha virt. eigenvalues --    8.35857   8.37441   8.38967   8.40300   8.41587
 Alpha virt. eigenvalues --    8.46649   8.47431   8.47707   8.48578   8.50583
 Alpha virt. eigenvalues --    8.52778   8.53981   8.54703   8.58950   8.62331
 Alpha virt. eigenvalues --    8.64292   8.68900   8.69948   8.72449   8.74038
 Alpha virt. eigenvalues --    8.75685   8.80834   8.82428   8.88030   8.89410
 Alpha virt. eigenvalues --    8.90959   8.93154   8.94645   8.98262   8.98821
 Alpha virt. eigenvalues --    9.02508   9.05528   9.07284   9.08852   9.12279
 Alpha virt. eigenvalues --    9.14899   9.18124   9.21662   9.24412   9.29105
 Alpha virt. eigenvalues --    9.30531   9.34056   9.35902   9.37905   9.38847
 Alpha virt. eigenvalues --    9.43526   9.45128   9.47937   9.52986   9.54104
 Alpha virt. eigenvalues --    9.59817   9.69451   9.72850   9.74083   9.77313
 Alpha virt. eigenvalues --    9.80728   9.94716  10.01229  10.10262  10.21519
 Alpha virt. eigenvalues --   10.26902  10.38876  10.44185  10.47865  10.56527
 Alpha virt. eigenvalues --   10.61191  10.62686  10.68433  10.74263  10.78092
 Alpha virt. eigenvalues --   10.82798  10.86942  10.93868  10.96323  11.01131
 Alpha virt. eigenvalues --   11.07631  11.18153  11.22165  11.59023  11.60143
 Alpha virt. eigenvalues --   11.74712  11.97659  12.13718  12.17504  12.27860
 Alpha virt. eigenvalues --   12.60449  12.66467  12.71895  12.96334  14.01454
 Alpha virt. eigenvalues --   14.40695  14.89760  17.99210  29.11257  29.25419
 Alpha virt. eigenvalues --   29.84895  29.99206 148.74493 148.92250 149.64789
 Alpha virt. eigenvalues --  149.70687
          Condensed to atoms (all electrons):
               1          2          3          4          5          6
     1  C    5.320517   0.262532   0.398446   0.398377   0.402730  -0.059443
     2  C    0.262532   4.898739  -0.027542  -0.051368  -0.089496   0.364795
     3  H    0.398446  -0.027542   0.662568  -0.022301  -0.039969   0.011096
     4  H    0.398377  -0.051368  -0.022301   0.592295  -0.007003  -0.005957
     5  H    0.402730  -0.089496  -0.039969  -0.007003   0.308987  -0.011817
     6  C   -0.059443   0.364795   0.011096  -0.005957  -0.011817   4.798661
     7  H   -0.102307   0.389117  -0.020271  -0.006576   0.033483  -0.056844
     8  H   -0.043958   0.393141  -0.009285   0.012494  -0.018578  -0.047698
     9  C    0.004954  -0.052575  -0.000467   0.000139  -0.000372   0.400566
    10  H    0.002986  -0.066066  -0.001410  -0.001136   0.012517   0.350498
    11  H   -0.010288  -0.029023  -0.000220   0.009226  -0.001910   0.366767
    12  H    0.000611  -0.003770   0.000048   0.000045  -0.000136  -0.019487
    13  H   -0.000277   0.005528   0.000024   0.000019  -0.000035  -0.025330
    14  H    0.000455  -0.000325   0.000035  -0.000067   0.000101  -0.013028
               7          8          9         10         11         12
     1  C   -0.102307  -0.043958   0.004954   0.002986  -0.010288   0.000611
     2  C    0.389117   0.393141  -0.052575  -0.066066  -0.029023  -0.003770
     3  H   -0.020271  -0.009285  -0.000467  -0.001410  -0.000220   0.000048
     4  H   -0.006576   0.012494   0.000139  -0.001136   0.009226   0.000045
     5  H    0.033483  -0.018578  -0.000372   0.012517  -0.001910  -0.000136
     6  C   -0.056844  -0.047698   0.400566   0.350498   0.366767  -0.019487
     7  H    0.736704  -0.025194  -0.006313   0.014565  -0.002030  -0.000635
     8  H   -0.025194   0.751353  -0.002046  -0.010856   0.008756   0.004597
     9  C   -0.006313  -0.002046   5.700230  -0.037139  -0.034807   0.119889
    10  H    0.014565  -0.010856  -0.037139   0.705482  -0.039386  -0.002167
    11  H   -0.002030   0.008756  -0.034807  -0.039386   0.730780   0.010011
    12  H   -0.000635   0.004597   0.119889  -0.002167   0.010011   0.205502
    13  H   -0.000096  -0.000046   0.469657  -0.000215  -0.004426  -0.056826
    14  H    0.004099   0.000045   0.241734   0.002812  -0.000465   0.039341
              13         14
     1  C   -0.000277   0.000455
     2  C    0.005528  -0.000325
     3  H    0.000024   0.000035
     4  H    0.000019  -0.000067
     5  H   -0.000035   0.000101
     6  C   -0.025330  -0.013028
     7  H   -0.000096   0.004099
     8  H   -0.000046   0.000045
     9  C    0.469657   0.241734
    10  H   -0.000215   0.002812
    11  H   -0.004426  -0.000465
    12  H   -0.056826   0.039341
    13  H    0.571192  -0.004268
    14  H   -0.004268   0.691017
 Mulliken charges:
               1
     1  C   -0.575334
     2  C    0.006313
     3  H    0.049248
     4  H    0.081814
     5  H    0.411496
     6  C   -0.052778
     7  H    0.042297
     8  H   -0.012725
     9  C   -0.803450
    10  H    0.069514
    11  H   -0.002986
    12  H    0.702977
    13  H    0.045100
    14  H    0.038513
 Sum of Mulliken charges =   0.00000
 Mulliken charges with hydrogens summed into heavy atoms:
               1
     1  C   -0.032775
     2  C    0.035886
     6  C    0.013750
     9  C   -0.016860
 Electronic spatial extent (au):  <R**2>=            440.6757
 Charge=              0.0000 electrons
 Dipole moment (field-independent basis, Debye):
    X=             -0.0233    Y=             -0.3731    Z=             -0.9200  Tot=              0.9931
 Quadrupole moment (field-independent basis, Debye-Ang):
   XX=            -29.9739   YY=            -29.9319   ZZ=            -27.6233
   XY=             -0.3088   XZ=             -1.2225   YZ=              0.9052
 Traceless Quadrupole moment (field-independent basis, Debye-Ang):
   XX=             -0.7976   YY=             -0.7555   ZZ=              1.5531
   XY=             -0.3088   XZ=             -1.2225   YZ=              0.9052
 Octapole moment (field-independent basis, Debye-Ang**2):
  XXX=              0.8433  YYY=             -1.6302  ZZZ=             -2.9237  XYY=              0.1779
  XXY=             -0.7601  XXZ=             -8.0342  XZZ=             -0.2084  YZZ=              0.0064
  YYZ=              0.5321  XYZ=              3.2509
 Hexadecapole moment (field-independent basis, Debye-Ang**3):
 XXXX=           -487.3732 YYYY=           -106.2097 ZZZZ=            -70.3946 XXXY=            -10.6230
 XXXZ=            -14.1124 YYYX=             -0.7720 YYYZ=              3.3222 ZZZX=             -6.3147
 ZZZY=              1.0674 XXYY=            -96.6282 XXZZ=            -85.8510 YYZZ=            -24.6733
 XXYZ=              2.7354 YYXZ=              1.5971 ZZXY=              2.6635
 N-N= 1.326451632870D+02 E-N=-6.302641538535D+02  KE= 1.593537749696D+02
 Leave Link  601 at Wed Aug 26 13:21:41 2020, MaxMem=  2097152000 cpu:         1.2
 (Enter /opt/cluster/programs/g09/g09_d.01/g09/l9999.exe)
 1\1\GINC-NODE10\SP\RB2PLYPD3-FC\def2QZVP\C4H10\BOITTIER\26-Aug-2020\0\
 \#p B2PLYPD3/Def2QZVP\\butane_opt\\0,1\C,0,-3.92564,0.21112,-0.06482\C
 ,0,-2.761894,-0.511848,0.111537\H,0,-4.978467,-0.354083,0.346436\H,0,-
 3.851576,0.879942,-0.971146\H,0,-3.841128,0.497568,0.605441\C,0,-1.430
 745,0.220091,0.064218\H,0,-2.957158,-1.182424,-0.711973\H,0,-2.882281,
 -1.183634,1.227694\C,0,-0.051621,-0.740398,0.008295\H,0,-1.570627,0.85
 9376,0.869292\H,0,-1.403201,1.068215,-1.002546\H,0,-0.080306,-0.896686
 ,0.543029\H,0,0.698942,-0.286249,0.372522\H,0,-0.103355,-2.08081,-1.35
 641\\Version=ES64L-G09RevD.01\State=1-A\HF=-156.9969195\MP2=-157.25520
 18\RMSD=3.812e-09\PG=C01 [X(C4H10)]\\@


 IT TAKES GREATER CHARACTER TO CARRY OFF GOOD FORTUNE THAN BAD.
                     FRENCH PROVERB.
 Job cpu time:       0 days  1 hours 50 minutes 20.6 seconds.
 File lengths (MBytes):  RWF=    152 Int=      0 D2E=      0 Chk=     14 Scr=      1
 Normal termination of Gaussian 09 at Wed Aug 26 13:21:42 2020.
