 Entering Gaussian System, Link 0=/opt/cluster/programs/g09/g09_d.01/g09//g09
 Input=/home/boittier/MDCM/nms_sampling/butane_geom.xyz.dir/energies/butane_opt_1377_energy.com
 Output=/scratch/boittier/butane_opt_1377_energy/butane_opt_1377_energy.out
 Initial command:
 /opt/cluster/programs/g09/g09_d.01/g09/l1.exe "/scratch/boittier/butane_opt_1377_energy/Gau-90790.inp" -scrdir="/scratch/boittier/butane_opt_1377_energy/"
 Entering Link 1 = /opt/cluster/programs/g09/g09_d.01/g09/l1.exe PID=     90791.
  
 Copyright (c) 1988,1990,1992,1993,1995,1998,2003,2009,2013,
            Gaussian, Inc.  All Rights Reserved.
  
 This is part of the Gaussian(R) 09 program.  It is based on
 the Gaussian(R) 03 system (copyright 2003, Gaussian, Inc.),
 the Gaussian(R) 98 system (copyright 1998, Gaussian, Inc.),
 the Gaussian(R) 94 system (copyright 1995, Gaussian, Inc.),
 the Gaussian 92(TM) system (copyright 1992, Gaussian, Inc.),
 the Gaussian 90(TM) system (copyright 1990, Gaussian, Inc.),
 the Gaussian 88(TM) system (copyright 1988, Gaussian, Inc.),
 the Gaussian 86(TM) system (copyright 1986, Carnegie Mellon
 University), and the Gaussian 82(TM) system (copyright 1983,
 Carnegie Mellon University). Gaussian is a federally registered
 trademark of Gaussian, Inc.
  
 This software contains proprietary and confidential information,
 including trade secrets, belonging to Gaussian, Inc.
  
 This software is provided under written license and may be
 used, copied, transmitted, or stored only in accord with that
 written license.
  
 The following legend is applicable only to US Government
 contracts under FAR:
  
                    RESTRICTED RIGHTS LEGEND
  
 Use, reproduction and disclosure by the US Government is
 subject to restrictions as set forth in subparagraphs (a)
 and (c) of the Commercial Computer Software - Restricted
 Rights clause in FAR 52.227-19.
  
 Gaussian, Inc.
 340 Quinnipiac St., Bldg. 40, Wallingford CT 06492
  
  
 ---------------------------------------------------------------
 Warning -- This program may not be used in any manner that
 competes with the business of Gaussian, Inc. or will provide
 assistance to any competitor of Gaussian, Inc.  The licensee
 of this program is prohibited from giving any competitor of
 Gaussian, Inc. access to this program.  By using this program,
 the user acknowledges that Gaussian, Inc. is engaged in the
 business of creating and licensing software in the field of
 computational chemistry and represents and warrants to the
 licensee that it is not a competitor of Gaussian, Inc. and that
 it will not use this program in any manner prohibited above.
 ---------------------------------------------------------------
  

 Cite this work as:
 Gaussian 09, Revision D.01,
 M. J. Frisch, G. W. Trucks, H. B. Schlegel, G. E. Scuseria, 
 M. A. Robb, J. R. Cheeseman, G. Scalmani, V. Barone, B. Mennucci, 
 G. A. Petersson, H. Nakatsuji, M. Caricato, X. Li, H. P. Hratchian, 
 A. F. Izmaylov, J. Bloino, G. Zheng, J. L. Sonnenberg, M. Hada, 
 M. Ehara, K. Toyota, R. Fukuda, J. Hasegawa, M. Ishida, T. Nakajima, 
 Y. Honda, O. Kitao, H. Nakai, T. Vreven, J. A. Montgomery, Jr., 
 J. E. Peralta, F. Ogliaro, M. Bearpark, J. J. Heyd, E. Brothers, 
 K. N. Kudin, V. N. Staroverov, T. Keith, R. Kobayashi, J. Normand, 
 K. Raghavachari, A. Rendell, J. C. Burant, S. S. Iyengar, J. Tomasi, 
 M. Cossi, N. Rega, J. M. Millam, M. Klene, J. E. Knox, J. B. Cross, 
 V. Bakken, C. Adamo, J. Jaramillo, R. Gomperts, R. E. Stratmann, 
 O. Yazyev, A. J. Austin, R. Cammi, C. Pomelli, J. W. Ochterski, 
 R. L. Martin, K. Morokuma, V. G. Zakrzewski, G. A. Voth, 
 P. Salvador, J. J. Dannenberg, S. Dapprich, A. D. Daniels, 
 O. Farkas, J. B. Foresman, J. V. Ortiz, J. Cioslowski, 
 and D. J. Fox, Gaussian, Inc., Wallingford CT, 2013.
 
 ******************************************
 Gaussian 09:  ES64L-G09RevD.01 24-Apr-2013
                26-Aug-2020 
 ******************************************
 %chk=/home/boittier/MDCM/nms_sampling/butane_geom.xyz.dir/butane_opt_1377.chk
 %nproc=8
 Will use up to    8 processors via shared memory.
 %mem=16000MB
 --------------------
 #p B2PLYPD3/Def2QZVP
 --------------------
 1/38=1/1;
 2/12=2,17=6,18=5,40=1/2;
 3/5=45,7=101,11=9,16=1,25=1,30=1,74=-60/1,2,3;
 4//1;
 5/5=2,38=5/2;
 8/10=1/1;
 9/16=-3/6;
 6/7=2,8=2,9=2,10=2/1;
 99/5=1,9=1/99;
 Leave Link    1 at Wed Aug 26 11:08:34 2020, MaxMem=  2097152000 cpu:         0.3
 (Enter /opt/cluster/programs/g09/g09_d.01/g09/l101.exe)
 ----------
 butane_opt
 ----------
 Symbolic Z-matrix:
 Charge =  0 Multiplicity = 1
 C                    -3.94941   0.24003   0.01073 
 C                    -2.76289  -0.61716   0.00623 
 H                    -4.73026  -0.35389  -0.08695 
 H                    -3.85239   0.68368  -0.79255 
 H                    -3.97754   1.04914   1.04632 
 C                    -1.44752   0.30684   0.09239 
 H                    -2.68362  -1.48539  -0.84201 
 H                    -3.05525  -1.20221   0.81921 
 C                    -0.08053  -0.74551   0.03153 
 H                    -1.17942   0.8795    0.76942 
 H                    -1.35263   1.04715  -0.98152 
 H                     0.05292  -1.88687   1.16257 
 H                     0.77018  -0.14653  -0.54368 
 H                    -0.14277  -1.24031  -0.72525 
 
 NAtoms=     14 NQM=       14 NQMF=       0 NMMI=      0 NMMIF=      0
                NMic=       0 NMicF=      0.
                    Isotopes and Nuclear Properties:
 (Nuclear quadrupole moments (NQMom) in fm**2, nuclear magnetic moments (NMagM)
  in nuclear magnetons)

  Atom         1           2           3           4           5           6           7           8           9          10
 IAtWgt=          12          12           1           1           1          12           1           1          12           1
 AtmWgt=  12.0000000  12.0000000   1.0078250   1.0078250   1.0078250  12.0000000   1.0078250   1.0078250  12.0000000   1.0078250
 NucSpn=           0           0           1           1           1           0           1           1           0           1
 AtZEff=   0.0000000   0.0000000   0.0000000   0.0000000   0.0000000   0.0000000   0.0000000   0.0000000   0.0000000   0.0000000
 NQMom=    0.0000000   0.0000000   0.0000000   0.0000000   0.0000000   0.0000000   0.0000000   0.0000000   0.0000000   0.0000000
 NMagM=    0.0000000   0.0000000   2.7928460   2.7928460   2.7928460   0.0000000   2.7928460   2.7928460   0.0000000   2.7928460
 AtZNuc=   6.0000000   6.0000000   1.0000000   1.0000000   1.0000000   6.0000000   1.0000000   1.0000000   6.0000000   1.0000000

  Atom        11          12          13          14
 IAtWgt=           1           1           1           1
 AtmWgt=   1.0078250   1.0078250   1.0078250   1.0078250
 NucSpn=           1           1           1           1
 AtZEff=   0.0000000   0.0000000   0.0000000   0.0000000
 NQMom=    0.0000000   0.0000000   0.0000000   0.0000000
 NMagM=    2.7928460   2.7928460   2.7928460   2.7928460
 AtZNuc=   1.0000000   1.0000000   1.0000000   1.0000000
 Leave Link  101 at Wed Aug 26 11:08:34 2020, MaxMem=  2097152000 cpu:         0.6
 (Enter /opt/cluster/programs/g09/g09_d.01/g09/l202.exe)
                          Input orientation:                          
 ---------------------------------------------------------------------
 Center     Atomic      Atomic             Coordinates (Angstroms)
 Number     Number       Type             X           Y           Z
 ---------------------------------------------------------------------
      1          6           0       -3.949407    0.240026    0.010726
      2          6           0       -2.762892   -0.617158    0.006233
      3          1           0       -4.730259   -0.353893   -0.086950
      4          1           0       -3.852390    0.683683   -0.792548
      5          1           0       -3.977539    1.049140    1.046325
      6          6           0       -1.447518    0.306840    0.092388
      7          1           0       -2.683620   -1.485391   -0.842005
      8          1           0       -3.055250   -1.202210    0.819206
      9          6           0       -0.080532   -0.745506    0.031530
     10          1           0       -1.179424    0.879500    0.769416
     11          1           0       -1.352629    1.047146   -0.981524
     12          1           0        0.052915   -1.886868    1.162566
     13          1           0        0.770181   -0.146525   -0.543680
     14          1           0       -0.142771   -1.240306   -0.725249
 ---------------------------------------------------------------------
                    Distance matrix (angstroms):
                    1          2          3          4          5
     1  C    0.000000
     2  C    1.463763   0.000000
     3  H    0.985906   1.987089   0.000000
     4  H    0.922764   1.875432   1.531368   0.000000
     5  H    1.314505   2.309482   1.954329   1.879009   0.000000
     6  C    2.504113   1.609784   3.353374   2.590083   2.803928
     7  H    2.303569   1.216396   2.457464   2.464417   3.415240
     8  H    1.879681   1.043400   2.084806   2.605720   2.443517
     9  C    3.992480   2.685548   4.667693   4.116868   4.408767
    10  H    2.942336   2.308637   3.855263   3.102068   2.816896
    11  H    2.894695   2.394664   3.764513   2.533105   3.316976
    12  H    4.676430   3.298187   5.175911   5.067703   4.987807
    13  H    4.767735   3.606453   5.523264   4.703121   5.147677
    14  H    4.150123   2.790773   4.715740   4.179418   4.804735
                    6          7          8          9         10
     6  C    0.000000
     7  H    2.369205   0.000000
     8  H    2.321702   1.725666   0.000000
     9  C    1.726206   2.843688   3.110942   0.000000
    10  H    0.926380   3.232954   2.802627   2.095873   0.000000
    11  H    1.307801   2.864393   3.346812   2.420353   1.767455
    12  H    2.865124   3.415862   3.201147   1.612376   3.053853
    13  H    2.351236   3.716221   4.195933   1.188847   2.564743
    14  H    2.182786   2.555311   3.296866   0.906320   2.793251
                   11         12         13         14
    11  H    0.000000
    12  H    3.896295   0.000000
    13  H    2.474445   2.540579   0.000000
    14  H    2.600360   2.005039   1.436247   0.000000
 Stoichiometry    C4H10
 Framework group  C1[X(C4H10)]
 Deg. of freedom    36
 Full point group                 C1      NOp   1
 Largest Abelian subgroup         C1      NOp   1
 Largest concise Abelian subgroup C1      NOp   1
                         Standard orientation:                         
 ---------------------------------------------------------------------
 Center     Atomic      Atomic             Coordinates (Angstroms)
 Number     Number       Type             X           Y           Z
 ---------------------------------------------------------------------
      1          6           0        1.955553   -0.094820   -0.012802
      2          6           0        0.628180    0.520368   -0.059979
      3          1           0        2.609220    0.625462   -0.173810
      4          1           0        1.939577   -0.613024   -0.776151
      5          1           0        2.142491   -0.796665    1.082821
      6          6           0       -0.487891   -0.624535    0.127064
      7          1           0        0.380936    1.285778   -0.972470
      8          1           0        0.809241    1.214525    0.697680
      9          6           0       -2.029756    0.143071    0.012084
     10          1           0       -0.638702   -1.180071    0.852886
     11          1           0       -0.447197   -1.454817   -0.882550
     12          1           0       -2.370261    1.327556    1.051705
     13          1           0       -2.755022   -0.650378   -0.495640
     14          1           0       -2.066798    0.577125   -0.782674
 ---------------------------------------------------------------------
 Rotational constants (GHZ):     19.5075577      3.5045775      3.2355858
 Leave Link  202 at Wed Aug 26 11:08:34 2020, MaxMem=  2097152000 cpu:         0.1
 (Enter /opt/cluster/programs/g09/g09_d.01/g09/l301.exe)
 Standard basis: def2QZVP (5D, 7F)
 Ernie: Thresh=  0.10000D-02 Tol=  0.10000D-05 Strict=F.
 There are   638 symmetry adapted cartesian basis functions of A   symmetry.
 There are   528 symmetry adapted basis functions of A   symmetry.
   528 basis functions,   748 primitive gaussians,   638 cartesian basis functions
    17 alpha electrons       17 beta electrons
       nuclear repulsion energy       127.2027975065 Hartrees.
 IExCor=  419 DFT=T Ex+Corr=B2PLYPD3 ExCW=0 ScaHFX=  0.530000
 ScaDFX=  0.470000  0.470000  0.730000  0.730000 ScalE2=  0.270000  0.270000
 IRadAn=      0 IRanWt=     -1 IRanGd=            0 ICorTp=0 IEmpDi=141
 NAtoms=   14 NActive=   14 NUniq=   14 SFac= 1.00D+00 NAtFMM=   60 NAOKFM=F Big=F
 Integral buffers will be    131072 words long.
 Regular integral format.
 Two-electron integral symmetry is turned on.
 R6Disp:  Grimme-D3(BJ) Dispersion energy=       -0.0067806428 Hartrees.
 Nuclear repulsion after empirical dispersion term =      127.1960168638 Hartrees.
 Leave Link  301 at Wed Aug 26 11:08:34 2020, MaxMem=  2097152000 cpu:         0.5
 (Enter /opt/cluster/programs/g09/g09_d.01/g09/l302.exe)
 NPDir=0 NMtPBC=     1 NCelOv=     1 NCel=       1 NClECP=     1 NCelD=      1
         NCelK=      1 NCelE2=     1 NClLst=     1 CellRange=     0.0.
 One-electron integrals computed using PRISM.
   1 Symmetry operations used in ECPInt.
 ECPInt:  NShTT=   14196 NPrTT=   30597 LenC2=   13837 LenP2D=   25757.
 LDataN:  DoStor=T MaxTD1= 8 Len=  415
 NBasis=   528 RedAO= T EigKep=  3.56D-05  NBF=   528
 NBsUse=   528 1.00D-06 EigRej= -1.00D+00 NBFU=   528
 Precomputing XC quadrature grid using
 IXCGrd= 4 IRadAn=           0 IRanWt=          -1 IRanGd=           0 AccXCQ= 0.00D+00.
 Generated NRdTot=       0 NPtTot=           0 NUsed=           0 NTot=          32
 NSgBfM=   638   638   638   638   638 MxSgAt=    14 MxSgA2=    14.
 Leave Link  302 at Wed Aug 26 11:08:35 2020, MaxMem=  2097152000 cpu:         6.0
 (Enter /opt/cluster/programs/g09/g09_d.01/g09/l303.exe)
 DipDrv:  MaxL=1.
 Leave Link  303 at Wed Aug 26 11:08:35 2020, MaxMem=  2097152000 cpu:         0.7
 (Enter /opt/cluster/programs/g09/g09_d.01/g09/l401.exe)
 ExpMin= 7.60D-02 ExpMax= 6.70D+04 ExpMxC= 6.47D+02 IAcc=2 IRadAn=         4 AccDes= 0.00D+00
 Harris functional with IExCor=  419 and IRadAn=       4 diagonalized for initial guess.
 HarFok:  IExCor=  419 AccDes= 0.00D+00 IRadAn=         4 IDoV= 1 UseB2=F ITyADJ=14
 ICtDFT=  3500011 ScaDFX=  1.000000  1.000000  1.000000  1.000000
 FoFCou: FMM=F IPFlag=           0 FMFlag=      100000 FMFlg1=           0
         NFxFlg=           0 DoJE=T BraDBF=F KetDBF=T FulRan=T
         wScrn=  0.000000 ICntrl=     500 IOpCl=  0 I1Cent=   200000004 NGrid=           0
         NMat0=    1 NMatS0=      1 NMatT0=    0 NMatD0=    1 NMtDS0=    0 NMtDT0=    0
 Petite list used in FoFCou.
 Harris En= -158.367193176355    
 JPrj=0 DoOrth=F DoCkMO=F.
 Leave Link  401 at Wed Aug 26 11:08:38 2020, MaxMem=  2097152000 cpu:        19.1
 (Enter /opt/cluster/programs/g09/g09_d.01/g09/l502.exe)
 Closed shell SCF:
 Using DIIS extrapolation, IDIIS=  1040.
 Integral symmetry usage will be decided dynamically.
 IVT=     1249338 IEndB=     1249338 NGot=  2097152000 MDV=  2096326985
 LenX=  2096326985 LenY=  2095919303
 Requested convergence on RMS density matrix=1.00D-08 within 128 cycles.
 Requested convergence on MAX density matrix=1.00D-06.
 Requested convergence on             energy=1.00D-06.
 No special actions if energy rises.
 Fock matrices will be formed incrementally for  20 cycles.
 Integral accuracy reduced to 1.0D-05 until final iterations.

 Cycle   1  Pass 0  IDiag  1:
 FoFJK:  IHMeth= 1 ICntrl=       0 DoSepK=F KAlg= 0 I1Cent=   0 FoldK=F
 IRaf= 930000000 NMat=   1 IRICut=       1 DoRegI=T DoRafI=F ISym2E= 0.
 FoFCou: FMM=F IPFlag=           0 FMFlag=      100000 FMFlg1=           0
         NFxFlg=           0 DoJE=F BraDBF=F KetDBF=F FulRan=T
         wScrn=  0.000000 ICntrl=       0 IOpCl=  0 I1Cent=           0 NGrid=           0
         NMat0=    1 NMatS0=      1 NMatT0=    0 NMatD0=    1 NMtDS0=    0 NMtDT0=    0
 Symmetry not used in FoFCou.
 E= -157.529720136487    
 DIIS: error= 2.83D-02 at cycle   1 NSaved=   1.
 NSaved= 1 IEnMin= 1 EnMin= -157.529720136487     IErMin= 1 ErrMin= 2.83D-02
 ErrMax= 2.83D-02  0.00D+00 EMaxC= 1.00D-01 BMatC= 3.66D-01 BMatP= 3.66D-01
 IDIUse=3 WtCom= 7.17D-01 WtEn= 2.83D-01
 Coeff-Com:  0.100D+01
 Coeff-En:   0.100D+01
 Coeff:      0.100D+01
 Gap=     0.331 Goal=   None    Shift=    0.000
 GapD=    0.331 DampG=1.000 DampE=0.500 DampFc=0.5000 IDamp=-1.
 Damping current iteration by 5.00D-01
 RMSDP=1.11D-03 MaxDP=6.99D-02              OVMax= 2.24D-01

 Cycle   2  Pass 0  IDiag  1:
 RMSU=  5.32D-04    CP:  9.47D-01
 E= -157.683819836222     Delta-E=       -0.154099699735 Rises=F Damp=T
 DIIS: error= 5.04D-03 at cycle   2 NSaved=   2.
 NSaved= 2 IEnMin= 2 EnMin= -157.683819836222     IErMin= 2 ErrMin= 5.04D-03
 ErrMax= 5.04D-03  0.00D+00 EMaxC= 1.00D-01 BMatC= 3.32D-02 BMatP= 3.66D-01
 IDIUse=3 WtCom= 9.50D-01 WtEn= 5.04D-02
 Coeff-Com: -0.150D+00 0.115D+01
 Coeff-En:   0.000D+00 0.100D+01
 Coeff:     -0.142D+00 0.114D+01
 Gap=     0.397 Goal=   None    Shift=    0.000
 RMSDP=2.84D-04 MaxDP=1.94D-02 DE=-1.54D-01 OVMax= 1.39D-01

 Cycle   3  Pass 0  IDiag  1:
 RMSU=  2.59D-04    CP:  9.37D-01  7.90D-01
 E= -157.829660738152     Delta-E=       -0.145840901930 Rises=F Damp=F
 DIIS: error= 3.19D-03 at cycle   3 NSaved=   3.
 NSaved= 3 IEnMin= 3 EnMin= -157.829660738152     IErMin= 3 ErrMin= 3.19D-03
 ErrMax= 3.19D-03  0.00D+00 EMaxC= 1.00D-01 BMatC= 3.72D-03 BMatP= 3.32D-02
 IDIUse=3 WtCom= 9.68D-01 WtEn= 3.19D-02
 Coeff-Com: -0.101D+00 0.230D+00 0.871D+00
 Coeff-En:   0.000D+00 0.000D+00 0.100D+01
 Coeff:     -0.977D-01 0.222D+00 0.875D+00
 Gap=     0.369 Goal=   None    Shift=    0.000
 RMSDP=7.59D-05 MaxDP=6.71D-03 DE=-1.46D-01 OVMax= 1.91D-02

 Cycle   4  Pass 0  IDiag  1:
 RMSU=  6.08D-05    CP:  9.32D-01  8.70D-01  1.01D+00
 E= -157.833447134304     Delta-E=       -0.003786396151 Rises=F Damp=F
 DIIS: error= 8.21D-04 at cycle   4 NSaved=   4.
 NSaved= 4 IEnMin= 4 EnMin= -157.833447134304     IErMin= 4 ErrMin= 8.21D-04
 ErrMax= 8.21D-04  0.00D+00 EMaxC= 1.00D-01 BMatC= 3.60D-04 BMatP= 3.72D-03
 IDIUse=3 WtCom= 9.92D-01 WtEn= 8.21D-03
 Coeff-Com: -0.306D-01 0.467D-01 0.329D+00 0.655D+00
 Coeff-En:   0.000D+00 0.000D+00 0.000D+00 0.100D+01
 Coeff:     -0.304D-01 0.464D-01 0.326D+00 0.658D+00
 Gap=     0.369 Goal=   None    Shift=    0.000
 RMSDP=2.29D-05 MaxDP=1.45D-03 DE=-3.79D-03 OVMax= 4.81D-03

 Cycle   5  Pass 0  IDiag  1:
 RMSU=  1.64D-05    CP:  9.32D-01  8.54D-01  1.05D+00  8.61D-01
 E= -157.833788273292     Delta-E=       -0.000341138988 Rises=F Damp=F
 DIIS: error= 1.77D-04 at cycle   5 NSaved=   5.
 NSaved= 5 IEnMin= 5 EnMin= -157.833788273292     IErMin= 5 ErrMin= 1.77D-04
 ErrMax= 1.77D-04  0.00D+00 EMaxC= 1.00D-01 BMatC= 1.68D-05 BMatP= 3.60D-04
 IDIUse=3 WtCom= 9.98D-01 WtEn= 1.77D-03
 Coeff-Com: -0.218D-02-0.174D-02 0.446D-01 0.205D+00 0.754D+00
 Coeff-En:   0.000D+00 0.000D+00 0.000D+00 0.000D+00 0.100D+01
 Coeff:     -0.217D-02-0.174D-02 0.445D-01 0.205D+00 0.755D+00
 Gap=     0.370 Goal=   None    Shift=    0.000
 RMSDP=6.02D-06 MaxDP=3.89D-04 DE=-3.41D-04 OVMax= 1.14D-03

 Initial convergence to 1.0D-05 achieved.  Increase integral accuracy.
 Cycle   6  Pass 1  IDiag  1:
 E= -157.833769830547     Delta-E=        0.000018442745 Rises=F Damp=F
 DIIS: error= 7.44D-05 at cycle   1 NSaved=   1.
 NSaved= 1 IEnMin= 1 EnMin= -157.833769830547     IErMin= 1 ErrMin= 7.44D-05
 ErrMax= 7.44D-05  0.00D+00 EMaxC= 1.00D-01 BMatC= 1.63D-06 BMatP= 1.63D-06
 IDIUse=1 WtCom= 1.00D+00 WtEn= 0.00D+00
 Coeff-Com:  0.100D+01
 Coeff:      0.100D+01
 Gap=     0.370 Goal=   None    Shift=    0.000
 RMSDP=6.02D-06 MaxDP=3.89D-04 DE= 1.84D-05 OVMax= 5.33D-04

 Cycle   7  Pass 1  IDiag  1:
 RMSU=  2.53D-05    CP:  1.00D+00
 E= -157.833770520675     Delta-E=       -0.000000690128 Rises=F Damp=F
 DIIS: error= 3.69D-05 at cycle   2 NSaved=   2.
 NSaved= 2 IEnMin= 2 EnMin= -157.833770520675     IErMin= 2 ErrMin= 3.69D-05
 ErrMax= 3.69D-05  0.00D+00 EMaxC= 1.00D-01 BMatC= 7.45D-07 BMatP= 1.63D-06
 IDIUse=1 WtCom= 1.00D+00 WtEn= 0.00D+00
 Coeff-Com:  0.379D+00 0.621D+00
 Coeff:      0.379D+00 0.621D+00
 Gap=     0.370 Goal=   None    Shift=    0.000
 RMSDP=1.13D-06 MaxDP=1.20D-04 DE=-6.90D-07 OVMax= 3.21D-04

 Cycle   8  Pass 1  IDiag  1:
 RMSU=  1.06D-06    CP:  1.00D+00  1.01D+00
 E= -157.833771249786     Delta-E=       -0.000000729111 Rises=F Damp=F
 DIIS: error= 9.45D-06 at cycle   3 NSaved=   3.
 NSaved= 3 IEnMin= 3 EnMin= -157.833771249786     IErMin= 3 ErrMin= 9.45D-06
 ErrMax= 9.45D-06  0.00D+00 EMaxC= 1.00D-01 BMatC= 6.99D-08 BMatP= 7.45D-07
 IDIUse=1 WtCom= 1.00D+00 WtEn= 0.00D+00
 Coeff-Com: -0.244D-01 0.215D+00 0.810D+00
 Coeff:     -0.244D-01 0.215D+00 0.810D+00
 Gap=     0.370 Goal=   None    Shift=    0.000
 RMSDP=4.92D-07 MaxDP=3.45D-05 DE=-7.29D-07 OVMax= 8.47D-05

 Cycle   9  Pass 1  IDiag  1:
 RMSU=  3.26D-07    CP:  1.00D+00  1.03D+00  8.79D-01
 E= -157.833771327737     Delta-E=       -0.000000077950 Rises=F Damp=F
 DIIS: error= 1.71D-06 at cycle   4 NSaved=   4.
 NSaved= 4 IEnMin= 4 EnMin= -157.833771327737     IErMin= 4 ErrMin= 1.71D-06
 ErrMax= 1.71D-06  0.00D+00 EMaxC= 1.00D-01 BMatC= 1.21D-09 BMatP= 6.99D-08
 IDIUse=1 WtCom= 1.00D+00 WtEn= 0.00D+00
 Coeff-Com: -0.148D-01 0.276D-01 0.155D+00 0.832D+00
 Coeff:     -0.148D-01 0.276D-01 0.155D+00 0.832D+00
 Gap=     0.370 Goal=   None    Shift=    0.000
 RMSDP=7.48D-08 MaxDP=5.02D-06 DE=-7.80D-08 OVMax= 1.29D-05

 Cycle  10  Pass 1  IDiag  1:
 RMSU=  5.69D-08    CP:  1.00D+00  1.03D+00  8.96D-01  1.13D+00
 E= -157.833771329283     Delta-E=       -0.000000001547 Rises=F Damp=F
 DIIS: error= 6.52D-07 at cycle   5 NSaved=   5.
 NSaved= 5 IEnMin= 5 EnMin= -157.833771329283     IErMin= 5 ErrMin= 6.52D-07
 ErrMax= 6.52D-07  0.00D+00 EMaxC= 1.00D-01 BMatC= 2.24D-10 BMatP= 1.21D-09
 IDIUse=1 WtCom= 1.00D+00 WtEn= 0.00D+00
 Coeff-Com: -0.110D-02-0.213D-01-0.663D-01 0.247D+00 0.842D+00
 Coeff:     -0.110D-02-0.213D-01-0.663D-01 0.247D+00 0.842D+00
 Gap=     0.370 Goal=   None    Shift=    0.000
 RMSDP=3.30D-08 MaxDP=1.91D-06 DE=-1.55D-09 OVMax= 5.69D-06

 Cycle  11  Pass 1  IDiag  1:
 RMSU=  2.24D-08    CP:  1.00D+00  1.03D+00  9.01D-01  1.20D+00  1.11D+00
 E= -157.833771329557     Delta-E=       -0.000000000274 Rises=F Damp=F
 DIIS: error= 2.38D-07 at cycle   6 NSaved=   6.
 NSaved= 6 IEnMin= 6 EnMin= -157.833771329557     IErMin= 6 ErrMin= 2.38D-07
 ErrMax= 2.38D-07  0.00D+00 EMaxC= 1.00D-01 BMatC= 1.63D-11 BMatP= 2.24D-10
 IDIUse=1 WtCom= 1.00D+00 WtEn= 0.00D+00
 Coeff-Com:  0.530D-03-0.912D-02-0.323D-01 0.317D-01 0.300D+00 0.709D+00
 Coeff:      0.530D-03-0.912D-02-0.323D-01 0.317D-01 0.300D+00 0.709D+00
 Gap=     0.370 Goal=   None    Shift=    0.000
 RMSDP=6.45D-09 MaxDP=3.55D-07 DE=-2.74D-10 OVMax= 1.16D-06

 SCF Done:  E(RB2PLYPD3) =  -157.833771330     A.U. after   11 cycles
            NFock= 11  Conv=0.64D-08     -V/T= 2.0028
 KE= 1.573931586066D+02 PE=-6.196427664656D+02 EE= 1.772198196657D+02
 Leave Link  502 at Wed Aug 26 11:15:03 2020, MaxMem=  2097152000 cpu:      3076.1
 (Enter /opt/cluster/programs/g09/g09_d.01/g09/l801.exe)
 DoSCS=T DFT=T ScalE2(SS,OS)=  0.270000  0.270000
 ExpMin= 7.60D-02 ExpMax= 6.70D+04 ExpMxC= 6.47D+02 IAcc=3 IRadAn=         5 AccDes= 0.00D+00
 HarFok:  IExCor=  205 AccDes= 0.00D+00 IRadAn=         5 IDoV=-2 UseB2=F ITyADJ=14
 ICtDFT= 12500011 ScaDFX=  1.000000  1.000000  1.000000  1.000000
 Largest valence mixing into a core orbital is  1.17D-04
 Largest core mixing into a valence orbital is  1.68D-05
 Range of M.O.s used for correlation:     5   528
 NBasis=   528 NAE=    17 NBE=    17 NFC=     4 NFV=     0
 NROrb=    524 NOA=    13 NOB=    13 NVA=   511 NVB=   511

 **** Warning!!: The largest alpha MO coefficient is  0.24274972D+02

 Leave Link  801 at Wed Aug 26 11:15:03 2020, MaxMem=  2097152000 cpu:         1.2
 (Enter /opt/cluster/programs/g09/g09_d.01/g09/l906.exe)
 DoSCS=T DFT=T ScalE2(SS,OS)=  0.270000  0.270000
 FulOut=F Deriv=F AODrv=F NAtomX=    14
   MMem=         463  MDisk=          13 MDiskD=          13
  W3Min=     4238234 MinDsk=     6904766 NBas6D=         638
 NBas2D=      205689    NTT=      203841    LW2=     4508827
    MDV=  2095909588 MDiskM=        7293 NBas2p=      188071
 Fully direct method using O(OVN) memory.
 IMap=   1   2   3   4   5   6   7   8   9  10  11  12  13
 JobTyp=1 Pass  1:  I=   1 to  13 NPSUse=  8 ParTrn=T ParDer=T DoDerP=F.
 Spin components of T(2) and E(2):
     alpha-alpha T2 =       0.4325939896D-01 E2=     -0.2657187109D-01
     alpha-beta  T2 =       0.3026160372D+00 E2=     -0.2002762174D+00
     beta-beta   T2 =       0.4325939896D-01 E2=     -0.2657187109D-01
 The integrals were generated   1 times.
 E2(B2PLYPD3) =    -0.2534199596D+00 E(B2PLYPD3) =    -0.15808719128913D+03
 Leave Link  906 at Wed Aug 26 11:22:27 2020, MaxMem=  2097152000 cpu:      3546.8
 (Enter /opt/cluster/programs/g09/g09_d.01/g09/l601.exe)
 Copying SCF densities to generalized density rwf, IOpCl= 0 IROHF=0.

 **********************************************************************

            Population analysis using the SCF density.

 **********************************************************************

 Orbital symmetries:
       Occupied  (A) (A) (A) (A) (A) (A) (A) (A) (A) (A) (A) (A)
                 (A) (A) (A) (A) (A)
       Virtual   (A) (A) (A) (A) (A) (A) (A) (A) (A) (A) (A) (A)
                 (A) (A) (A) (A) (A) (A) (A) (A) (A) (A) (A) (A)
                 (A) (A) (A) (A) (A) (A) (A) (A) (A) (A) (A) (A)
                 (A) (A) (A) (A) (A) (A) (A) (A) (A) (A) (A) (A)
                 (A) (A) (A) (A) (A) (A) (A) (A) (A) (A) (A) (A)
                 (A) (A) (A) (A) (A) (A) (A) (A) (A) (A) (A) (A)
                 (A) (A) (A) (A) (A) (A) (A) (A) (A) (A) (A) (A)
                 (A) (A) (A) (A) (A) (A) (A) (A) (A) (A) (A) (A)
                 (A) (A) (A) (A) (A) (A) (A) (A) (A) (A) (A) (A)
                 (A) (A) (A) (A) (A) (A) (A) (A) (A) (A) (A) (A)
                 (A) (A) (A) (A) (A) (A) (A) (A) (A) (A) (A) (A)
                 (A) (A) (A) (A) (A) (A) (A) (A) (A) (A) (A) (A)
                 (A) (A) (A) (A) (A) (A) (A) (A) (A) (A) (A) (A)
                 (A) (A) (A) (A) (A) (A) (A) (A) (A) (A) (A) (A)
                 (A) (A) (A) (A) (A) (A) (A) (A) (A) (A) (A) (A)
                 (A) (A) (A) (A) (A) (A) (A) (A) (A) (A) (A) (A)
                 (A) (A) (A) (A) (A) (A) (A) (A) (A) (A) (A) (A)
                 (A) (A) (A) (A) (A) (A) (A) (A) (A) (A) (A) (A)
                 (A) (A) (A) (A) (A) (A) (A) (A) (A) (A) (A) (A)
                 (A) (A) (A) (A) (A) (A) (A) (A) (A) (A) (A) (A)
                 (A) (A) (A) (A) (A) (A) (A) (A) (A) (A) (A) (A)
                 (A) (A) (A) (A) (A) (A) (A) (A) (A) (A) (A) (A)
                 (A) (A) (A) (A) (A) (A) (A) (A) (A) (A) (A) (A)
                 (A) (A) (A) (A) (A) (A) (A) (A) (A) (A) (A) (A)
                 (A) (A) (A) (A) (A) (A) (A) (A) (A) (A) (A) (A)
                 (A) (A) (A) (A) (A) (A) (A) (A) (A) (A) (A) (A)
                 (A) (A) (A) (A) (A) (A) (A) (A) (A) (A) (A) (A)
                 (A) (A) (A) (A) (A) (A) (A) (A) (A) (A) (A) (A)
                 (A) (A) (A) (A) (A) (A) (A) (A) (A) (A) (A) (A)
                 (A) (A) (A) (A) (A) (A) (A) (A) (A) (A) (A) (A)
                 (A) (A) (A) (A) (A) (A) (A) (A) (A) (A) (A) (A)
                 (A) (A) (A) (A) (A) (A) (A) (A) (A) (A) (A) (A)
                 (A) (A) (A) (A) (A) (A) (A) (A) (A) (A) (A) (A)
                 (A) (A) (A) (A) (A) (A) (A) (A) (A) (A) (A) (A)
                 (A) (A) (A) (A) (A) (A) (A) (A) (A) (A) (A) (A)
                 (A) (A) (A) (A) (A) (A) (A) (A) (A) (A) (A) (A)
                 (A) (A) (A) (A) (A) (A) (A) (A) (A) (A) (A) (A)
                 (A) (A) (A) (A) (A) (A) (A) (A) (A) (A) (A) (A)
                 (A) (A) (A) (A) (A) (A) (A) (A) (A) (A) (A) (A)
                 (A) (A) (A) (A) (A) (A) (A) (A) (A) (A) (A) (A)
                 (A) (A) (A) (A) (A) (A) (A) (A) (A) (A) (A) (A)
                 (A) (A) (A) (A) (A) (A) (A) (A) (A) (A) (A) (A)
                 (A) (A) (A) (A) (A) (A) (A)
 The electronic state is 1-A.
 Alpha  occ. eigenvalues --  -10.63848 -10.63525 -10.62086 -10.58619  -0.91563
 Alpha  occ. eigenvalues --   -0.83427  -0.73816  -0.68696  -0.55548  -0.50141
 Alpha  occ. eigenvalues --   -0.46306  -0.45275  -0.41613  -0.40673  -0.37322
 Alpha  occ. eigenvalues --   -0.37050  -0.34412
 Alpha virt. eigenvalues --    0.02578   0.05410   0.06728   0.07537   0.10372
 Alpha virt. eigenvalues --    0.10883   0.11961   0.12335   0.13306   0.15618
 Alpha virt. eigenvalues --    0.15927   0.16253   0.18482   0.19002   0.20655
 Alpha virt. eigenvalues --    0.21343   0.22395   0.24444   0.25714   0.26875
 Alpha virt. eigenvalues --    0.28720   0.29429   0.30588   0.31817   0.32285
 Alpha virt. eigenvalues --    0.34890   0.35520   0.35944   0.39761   0.40011
 Alpha virt. eigenvalues --    0.40967   0.42612   0.43027   0.45278   0.46705
 Alpha virt. eigenvalues --    0.47731   0.48544   0.51856   0.52874   0.54338
 Alpha virt. eigenvalues --    0.58372   0.59289   0.60051   0.63615   0.64788
 Alpha virt. eigenvalues --    0.67518   0.68199   0.68699   0.69886   0.71725
 Alpha virt. eigenvalues --    0.72424   0.75057   0.75725   0.76063   0.78548
 Alpha virt. eigenvalues --    0.79892   0.81294   0.82598   0.83929   0.86408
 Alpha virt. eigenvalues --    0.88191   0.88862   0.89421   0.90248   0.90712
 Alpha virt. eigenvalues --    0.92457   0.92552   0.93066   0.95071   0.95266
 Alpha virt. eigenvalues --    0.96799   0.98241   0.99896   1.00854   1.01545
 Alpha virt. eigenvalues --    1.02220   1.04327   1.06339   1.06937   1.08422
 Alpha virt. eigenvalues --    1.08963   1.11553   1.12849   1.15537   1.16812
 Alpha virt. eigenvalues --    1.19513   1.20294   1.21803   1.24959   1.26106
 Alpha virt. eigenvalues --    1.28394   1.28724   1.29709   1.32520   1.34441
 Alpha virt. eigenvalues --    1.34889   1.39658   1.42068   1.43527   1.45474
 Alpha virt. eigenvalues --    1.45694   1.47305   1.52407   1.54534   1.56996
 Alpha virt. eigenvalues --    1.62200   1.65499   1.67588   1.71499   1.74118
 Alpha virt. eigenvalues --    1.77948   1.79324   1.84031   1.86164   1.87040
 Alpha virt. eigenvalues --    1.89291   1.90191   1.91369   1.93771   1.95167
 Alpha virt. eigenvalues --    1.95821   1.96411   1.98500   1.99831   2.00683
 Alpha virt. eigenvalues --    2.02973   2.04927   2.05671   2.06800   2.07967
 Alpha virt. eigenvalues --    2.09167   2.11295   2.12444   2.15254   2.15563
 Alpha virt. eigenvalues --    2.16863   2.17646   2.18598   2.19689   2.19763
 Alpha virt. eigenvalues --    2.21382   2.23297   2.25496   2.26808   2.27752
 Alpha virt. eigenvalues --    2.29334   2.30007   2.31867   2.32865   2.34537
 Alpha virt. eigenvalues --    2.35396   2.36933   2.39978   2.41156   2.41459
 Alpha virt. eigenvalues --    2.43882   2.44833   2.46870   2.47997   2.49850
 Alpha virt. eigenvalues --    2.50133   2.51551   2.54863   2.56765   2.57350
 Alpha virt. eigenvalues --    2.58635   2.59278   2.62268   2.62539   2.62995
 Alpha virt. eigenvalues --    2.65464   2.68991   2.69847   2.72021   2.72586
 Alpha virt. eigenvalues --    2.74579   2.75524   2.77632   2.78434   2.80239
 Alpha virt. eigenvalues --    2.81378   2.82136   2.83557   2.85054   2.86049
 Alpha virt. eigenvalues --    2.87183   2.90654   2.91722   2.92403   2.95433
 Alpha virt. eigenvalues --    2.96503   2.99643   3.03216   3.03613   3.05765
 Alpha virt. eigenvalues --    3.07202   3.08495   3.11032   3.13644   3.15235
 Alpha virt. eigenvalues --    3.16564   3.18695   3.21176   3.22838   3.24140
 Alpha virt. eigenvalues --    3.25405   3.27296   3.28902   3.32318   3.35217
 Alpha virt. eigenvalues --    3.39420   3.40003   3.41760   3.44263   3.46516
 Alpha virt. eigenvalues --    3.46873   3.48087   3.51705   3.55339   3.57803
 Alpha virt. eigenvalues --    3.60949   3.61942   3.64382   3.68008   3.69932
 Alpha virt. eigenvalues --    3.71188   3.73951   3.75514   3.79279   3.79937
 Alpha virt. eigenvalues --    3.83077   3.86747   3.91138   3.93354   3.97792
 Alpha virt. eigenvalues --    4.00534   4.05457   4.06027   4.07395   4.11190
 Alpha virt. eigenvalues --    4.11510   4.16281   4.21485   4.25971   4.28301
 Alpha virt. eigenvalues --    4.32039   4.35528   4.37929   4.41213   4.41933
 Alpha virt. eigenvalues --    4.44125   4.49955   4.55078   4.71079   4.93543
 Alpha virt. eigenvalues --    4.97861   4.99575   5.06683   5.10931   5.21832
 Alpha virt. eigenvalues --    5.24171   5.31185   5.31944   5.38721   5.44654
 Alpha virt. eigenvalues --    5.46265   5.51158   5.52845   5.58867   5.59921
 Alpha virt. eigenvalues --    5.62928   5.63822   5.64687   5.66980   5.70417
 Alpha virt. eigenvalues --    5.71583   5.73077   5.75829   5.76957   5.78829
 Alpha virt. eigenvalues --    5.80702   5.82057   5.85493   5.85834   5.88814
 Alpha virt. eigenvalues --    5.89782   5.91439   5.93580   5.93925   5.95279
 Alpha virt. eigenvalues --    5.96401   5.98589   5.99325   6.01704   6.03194
 Alpha virt. eigenvalues --    6.05562   6.06204   6.08057   6.09198   6.11203
 Alpha virt. eigenvalues --    6.13089   6.13796   6.15877   6.16749   6.20473
 Alpha virt. eigenvalues --    6.21226   6.21830   6.25041   6.26487   6.27114
 Alpha virt. eigenvalues --    6.29222   6.30844   6.33333   6.35213   6.36301
 Alpha virt. eigenvalues --    6.38565   6.40503   6.42672   6.43996   6.45334
 Alpha virt. eigenvalues --    6.46742   6.47887   6.51247   6.51956   6.53025
 Alpha virt. eigenvalues --    6.55814   6.59536   6.61704   6.63464   6.67192
 Alpha virt. eigenvalues --    6.70964   6.71639   6.73677   6.75962   6.77821
 Alpha virt. eigenvalues --    6.80529   6.82795   6.83976   6.86092   6.86350
 Alpha virt. eigenvalues --    6.88829   6.92497   6.94820   6.96060   6.98118
 Alpha virt. eigenvalues --    6.98712   7.01548   7.02198   7.03874   7.05688
 Alpha virt. eigenvalues --    7.06930   7.08401   7.09482   7.12153   7.12848
 Alpha virt. eigenvalues --    7.16748   7.18356   7.19953   7.22724   7.25490
 Alpha virt. eigenvalues --    7.27115   7.31397   7.32421   7.35261   7.37885
 Alpha virt. eigenvalues --    7.42544   7.45003   7.45825   7.47470   7.49618
 Alpha virt. eigenvalues --    7.52685   7.54093   7.59354   7.60610   7.63128
 Alpha virt. eigenvalues --    7.64365   7.67294   7.69380   7.71668   7.74166
 Alpha virt. eigenvalues --    7.75611   7.77145   7.77879   7.80525   7.82822
 Alpha virt. eigenvalues --    7.84049   7.85561   7.88665   7.89678   7.90979
 Alpha virt. eigenvalues --    7.93860   7.97525   7.98546   8.00510   8.02080
 Alpha virt. eigenvalues --    8.03868   8.04926   8.06429   8.08040   8.09488
 Alpha virt. eigenvalues --    8.10518   8.11968   8.15372   8.16449   8.17638
 Alpha virt. eigenvalues --    8.19247   8.21978   8.24133   8.26258   8.27336
 Alpha virt. eigenvalues --    8.30647   8.33093   8.34600   8.34923   8.36936
 Alpha virt. eigenvalues --    8.39368   8.39959   8.41785   8.45130   8.45618
 Alpha virt. eigenvalues --    8.46305   8.50382   8.51675   8.54557   8.55712
 Alpha virt. eigenvalues --    8.57238   8.59633   8.61434   8.61678   8.66823
 Alpha virt. eigenvalues --    8.67579   8.68739   8.72570   8.72574   8.74029
 Alpha virt. eigenvalues --    8.77027   8.80163   8.82642   8.84862   8.86558
 Alpha virt. eigenvalues --    8.90189   8.92505   8.95135   8.98323   8.99515
 Alpha virt. eigenvalues --    9.02016   9.03684   9.05628   9.07080   9.08458
 Alpha virt. eigenvalues --    9.11442   9.14539   9.15701   9.16118   9.22571
 Alpha virt. eigenvalues --    9.29235   9.30635   9.33611   9.35717   9.38929
 Alpha virt. eigenvalues --    9.41424   9.44689   9.49754   9.51892   9.57386
 Alpha virt. eigenvalues --    9.60430   9.60778   9.65306   9.66143   9.70302
 Alpha virt. eigenvalues --    9.73207   9.74693   9.79848   9.80983   9.89029
 Alpha virt. eigenvalues --    9.95646   9.99164  10.10885  10.15425  10.38535
 Alpha virt. eigenvalues --   10.45620  10.48895  10.60959  10.64974  10.77412
 Alpha virt. eigenvalues --   10.96717  11.01405  11.06632  11.14329  11.22667
 Alpha virt. eigenvalues --   11.25807  11.32407  11.38189  11.40981  11.41843
 Alpha virt. eigenvalues --   11.48639  11.53234  11.65215  11.75461  11.98405
 Alpha virt. eigenvalues --   12.16826  12.54689  13.00241  29.09300  29.23597
 Alpha virt. eigenvalues --   29.33808  29.53516 148.74524 148.90610 149.02125
 Alpha virt. eigenvalues --  149.27689
          Condensed to atoms (all electrons):
               1          2          3          4          5          6
     1  C    4.753582   0.329693   0.419939   0.422233   0.402881  -0.060935
     2  C    0.329693   4.790130  -0.052875  -0.072359  -0.033198   0.376134
     3  H    0.419939  -0.052875   0.665942  -0.049594  -0.026482   0.012498
     4  H    0.422233  -0.072359  -0.049594   0.639731  -0.026735  -0.009253
     5  H    0.402881  -0.033198  -0.026482  -0.026735   0.657139  -0.007305
     6  C   -0.060935   0.376134   0.012498  -0.009253  -0.007305   4.776588
     7  H   -0.030179   0.407543  -0.005230  -0.009623   0.007809  -0.038889
     8  H   -0.072053   0.387707  -0.011539   0.021087  -0.009292  -0.028410
     9  C    0.007546  -0.060219  -0.001204  -0.000148   0.000567   0.349676
    10  H   -0.002134  -0.024707  -0.000152  -0.000030   0.001340   0.417271
    11  H   -0.003469  -0.038082   0.000224   0.005362  -0.000177   0.377795
    12  H   -0.000063   0.003474   0.000087  -0.000010   0.000025  -0.021205
    13  H   -0.000670   0.009107   0.000070  -0.000024  -0.000015  -0.034101
    14  H    0.000128  -0.011394  -0.000068   0.000060  -0.000050  -0.032284
               7          8          9         10         11         12
     1  C   -0.030179  -0.072053   0.007546  -0.002134  -0.003469  -0.000063
     2  C    0.407543   0.387707  -0.060219  -0.024707  -0.038082   0.003474
     3  H   -0.005230  -0.011539  -0.001204  -0.000152   0.000224   0.000087
     4  H   -0.009623   0.021087  -0.000148  -0.000030   0.005362  -0.000010
     5  H    0.007809  -0.009292   0.000567   0.001340  -0.000177   0.000025
     6  C   -0.038889  -0.028410   0.349676   0.417271   0.377795  -0.021205
     7  H    0.702046  -0.055444  -0.003996   0.004493  -0.003744   0.000702
     8  H   -0.055444   0.729966  -0.003670  -0.003961   0.007414   0.001880
     9  C   -0.003996  -0.003670   4.900920  -0.029420  -0.028900   0.327733
    10  H    0.004493  -0.003961  -0.029420   0.580002  -0.048546  -0.001859
    11  H   -0.003744   0.007414  -0.028900  -0.048546   0.743608   0.003844
    12  H    0.000702   0.001880   0.327733  -0.001859   0.003844   0.689642
    13  H    0.000189   0.000035   0.370251  -0.004249  -0.002616  -0.007041
    14  H    0.001645  -0.000001   0.414118   0.007218  -0.003214  -0.019257
              13         14
     1  C   -0.000670   0.000128
     2  C    0.009107  -0.011394
     3  H    0.000070  -0.000068
     4  H   -0.000024   0.000060
     5  H   -0.000015  -0.000050
     6  C   -0.034101  -0.032284
     7  H    0.000189   0.001645
     8  H    0.000035  -0.000001
     9  C    0.370251   0.414118
    10  H   -0.004249   0.007218
    11  H   -0.002616  -0.003214
    12  H   -0.007041  -0.019257
    13  H    0.698493  -0.059154
    14  H   -0.059154   0.571111
 Mulliken charges:
               1
     1  C   -0.166500
     2  C   -0.010952
     3  H    0.048384
     4  H    0.079303
     5  H    0.033493
     6  C   -0.077582
     7  H    0.022678
     8  H    0.036281
     9  C   -0.243254
    10  H    0.104735
    11  H   -0.009499
    12  H    0.022047
    13  H    0.029724
    14  H    0.131142
 Sum of Mulliken charges =   0.00000
 Mulliken charges with hydrogens summed into heavy atoms:
               1
     1  C   -0.005320
     2  C    0.048006
     6  C    0.017654
     9  C   -0.060341
 Electronic spatial extent (au):  <R**2>=            448.4124
 Charge=              0.0000 electrons
 Dipole moment (field-independent basis, Debye):
    X=              0.6267    Y=              0.1311    Z=             -0.5593  Tot=              0.8501
 Quadrupole moment (field-independent basis, Debye-Ang):
   XX=            -31.9314   YY=            -28.4628   ZZ=            -28.6184
   XY=              1.0377   XZ=              1.4561   YZ=             -0.0850
 Traceless Quadrupole moment (field-independent basis, Debye-Ang):
   XX=             -2.2606   YY=              1.2081   ZZ=              1.0525
   XY=              1.0377   XZ=              1.4561   YZ=             -0.0850
 Octapole moment (field-independent basis, Debye-Ang**2):
  XXX=              9.6207  YYY=              0.7315  ZZZ=             -1.7315  XYY=              1.0131
  XXY=              1.8110  XXZ=             -5.4009  XZZ=              1.4071  YZZ=             -0.4686
  YYZ=              0.2296  XYZ=             -1.4357
 Hexadecapole moment (field-independent basis, Debye-Ang**3):
 XXXX=           -523.3159 YYYY=           -109.0273 ZZZZ=            -66.7935 XXXY=             10.0145
 XXXZ=             13.7666 YYYX=              4.7075 YYYZ=             -1.0146 ZZZX=              3.9260
 ZZZY=             -2.0690 XXYY=            -96.2980 XXZZ=            -90.1063 YYZZ=            -25.7755
 XXYZ=              1.6718 YYXZ=             -0.5680 ZZXY=             -0.5578
 N-N= 1.271960168638D+02 E-N=-6.196427499595D+02  KE= 1.573931586066D+02
 Leave Link  601 at Wed Aug 26 11:22:27 2020, MaxMem=  2097152000 cpu:         1.4
 (Enter /opt/cluster/programs/g09/g09_d.01/g09/l9999.exe)
 1\1\GINC-NODE18\SP\RB2PLYPD3-FC\def2QZVP\C4H10\BOITTIER\26-Aug-2020\0\
 \#p B2PLYPD3/Def2QZVP\\butane_opt\\0,1\C,0,-3.949407,0.240026,0.010726
 \C,0,-2.762892,-0.617158,0.006233\H,0,-4.730259,-0.353893,-0.08695\H,0
 ,-3.85239,0.683683,-0.792548\H,0,-3.977539,1.04914,1.046325\C,0,-1.447
 518,0.30684,0.092388\H,0,-2.68362,-1.485391,-0.842005\H,0,-3.05525,-1.
 20221,0.819206\C,0,-0.080532,-0.745506,0.03153\H,0,-1.179424,0.8795,0.
 769416\H,0,-1.352629,1.047146,-0.981524\H,0,0.052915,-1.886868,1.16256
 6\H,0,0.770181,-0.146525,-0.54368\H,0,-0.142771,-1.240306,-0.725249\\V
 ersion=ES64L-G09RevD.01\State=1-A\HF=-157.8337713\MP2=-158.0871913\RMS
 D=6.449e-09\PG=C01 [X(C4H10)]\\@


 THERE IS MORE TO LIFE THAN INCREASING ITS SPEED.

                                       -- GANDHI
 Job cpu time:       0 days  1 hours 50 minutes 53.4 seconds.
 File lengths (MBytes):  RWF=    152 Int=      0 D2E=      0 Chk=     14 Scr=      1
 Normal termination of Gaussian 09 at Wed Aug 26 11:22:28 2020.
