 Entering Gaussian System, Link 0=/opt/cluster/programs/g09/g09_d.01/g09//g09
 Input=/home/boittier/MDCM/nms_sampling/butane_geom.xyz.dir/energies/butane_opt_1877_energy.com
 Output=/scratch/boittier/butane_opt_1877_energy/butane_opt_1877_energy.out
 Initial command:
 /opt/cluster/programs/g09/g09_d.01/g09/l1.exe "/scratch/boittier/butane_opt_1877_energy/Gau-45162.inp" -scrdir="/scratch/boittier/butane_opt_1877_energy/"
 Entering Link 1 = /opt/cluster/programs/g09/g09_d.01/g09/l1.exe PID=     45163.
  
 Copyright (c) 1988,1990,1992,1993,1995,1998,2003,2009,2013,
            Gaussian, Inc.  All Rights Reserved.
  
 This is part of the Gaussian(R) 09 program.  It is based on
 the Gaussian(R) 03 system (copyright 2003, Gaussian, Inc.),
 the Gaussian(R) 98 system (copyright 1998, Gaussian, Inc.),
 the Gaussian(R) 94 system (copyright 1995, Gaussian, Inc.),
 the Gaussian 92(TM) system (copyright 1992, Gaussian, Inc.),
 the Gaussian 90(TM) system (copyright 1990, Gaussian, Inc.),
 the Gaussian 88(TM) system (copyright 1988, Gaussian, Inc.),
 the Gaussian 86(TM) system (copyright 1986, Carnegie Mellon
 University), and the Gaussian 82(TM) system (copyright 1983,
 Carnegie Mellon University). Gaussian is a federally registered
 trademark of Gaussian, Inc.
  
 This software contains proprietary and confidential information,
 including trade secrets, belonging to Gaussian, Inc.
  
 This software is provided under written license and may be
 used, copied, transmitted, or stored only in accord with that
 written license.
  
 The following legend is applicable only to US Government
 contracts under FAR:
  
                    RESTRICTED RIGHTS LEGEND
  
 Use, reproduction and disclosure by the US Government is
 subject to restrictions as set forth in subparagraphs (a)
 and (c) of the Commercial Computer Software - Restricted
 Rights clause in FAR 52.227-19.
  
 Gaussian, Inc.
 340 Quinnipiac St., Bldg. 40, Wallingford CT 06492
  
  
 ---------------------------------------------------------------
 Warning -- This program may not be used in any manner that
 competes with the business of Gaussian, Inc. or will provide
 assistance to any competitor of Gaussian, Inc.  The licensee
 of this program is prohibited from giving any competitor of
 Gaussian, Inc. access to this program.  By using this program,
 the user acknowledges that Gaussian, Inc. is engaged in the
 business of creating and licensing software in the field of
 computational chemistry and represents and warrants to the
 licensee that it is not a competitor of Gaussian, Inc. and that
 it will not use this program in any manner prohibited above.
 ---------------------------------------------------------------
  

 Cite this work as:
 Gaussian 09, Revision D.01,
 M. J. Frisch, G. W. Trucks, H. B. Schlegel, G. E. Scuseria, 
 M. A. Robb, J. R. Cheeseman, G. Scalmani, V. Barone, B. Mennucci, 
 G. A. Petersson, H. Nakatsuji, M. Caricato, X. Li, H. P. Hratchian, 
 A. F. Izmaylov, J. Bloino, G. Zheng, J. L. Sonnenberg, M. Hada, 
 M. Ehara, K. Toyota, R. Fukuda, J. Hasegawa, M. Ishida, T. Nakajima, 
 Y. Honda, O. Kitao, H. Nakai, T. Vreven, J. A. Montgomery, Jr., 
 J. E. Peralta, F. Ogliaro, M. Bearpark, J. J. Heyd, E. Brothers, 
 K. N. Kudin, V. N. Staroverov, T. Keith, R. Kobayashi, J. Normand, 
 K. Raghavachari, A. Rendell, J. C. Burant, S. S. Iyengar, J. Tomasi, 
 M. Cossi, N. Rega, J. M. Millam, M. Klene, J. E. Knox, J. B. Cross, 
 V. Bakken, C. Adamo, J. Jaramillo, R. Gomperts, R. E. Stratmann, 
 O. Yazyev, A. J. Austin, R. Cammi, C. Pomelli, J. W. Ochterski, 
 R. L. Martin, K. Morokuma, V. G. Zakrzewski, G. A. Voth, 
 P. Salvador, J. J. Dannenberg, S. Dapprich, A. D. Daniels, 
 O. Farkas, J. B. Foresman, J. V. Ortiz, J. Cioslowski, 
 and D. J. Fox, Gaussian, Inc., Wallingford CT, 2013.
 
 ******************************************
 Gaussian 09:  ES64L-G09RevD.01 24-Apr-2013
                26-Aug-2020 
 ******************************************
 %chk=/home/boittier/MDCM/nms_sampling/butane_geom.xyz.dir/butane_opt_1877.chk
 %nproc=8
 Will use up to    8 processors via shared memory.
 %mem=16000MB
 --------------------
 #p B2PLYPD3/Def2QZVP
 --------------------
 1/38=1/1;
 2/12=2,17=6,18=5,40=1/2;
 3/5=45,7=101,11=9,16=1,25=1,30=1,74=-60/1,2,3;
 4//1;
 5/5=2,38=5/2;
 8/10=1/1;
 9/16=-3/6;
 6/7=2,8=2,9=2,10=2/1;
 99/5=1,9=1/99;
 Leave Link    1 at Wed Aug 26 13:42:16 2020, MaxMem=  2097152000 cpu:         0.2
 (Enter /opt/cluster/programs/g09/g09_d.01/g09/l101.exe)
 ----------
 butane_opt
 ----------
 Symbolic Z-matrix:
 Charge =  0 Multiplicity = 1
 C                    -3.84312   0.22147  -0.04178 
 C                    -2.77618  -0.54726   0.11071 
 H                    -4.78295  -0.4631    0.01341 
 H                    -3.61866   0.76697  -0.92714 
 H                    -3.98569   0.79737   0.91549 
 C                    -1.45074   0.29435   0.01503 
 H                    -2.77572  -1.30923  -0.7383 
 H                    -2.68715  -1.37943   1.05986 
 C                    -0.193    -0.76907  -0.02469 
 H                    -1.51683   1.31413   1.08973 
 H                    -1.33616   0.61443  -0.72073 
 H                    -0.00753  -1.56911   1.00713 
 H                     0.75954  -0.14419  -0.12018 
 H                     0.06782  -1.4717   -0.86094 
 
 NAtoms=     14 NQM=       14 NQMF=       0 NMMI=      0 NMMIF=      0
                NMic=       0 NMicF=      0.
                    Isotopes and Nuclear Properties:
 (Nuclear quadrupole moments (NQMom) in fm**2, nuclear magnetic moments (NMagM)
  in nuclear magnetons)

  Atom         1           2           3           4           5           6           7           8           9          10
 IAtWgt=          12          12           1           1           1          12           1           1          12           1
 AtmWgt=  12.0000000  12.0000000   1.0078250   1.0078250   1.0078250  12.0000000   1.0078250   1.0078250  12.0000000   1.0078250
 NucSpn=           0           0           1           1           1           0           1           1           0           1
 AtZEff=   0.0000000   0.0000000   0.0000000   0.0000000   0.0000000   0.0000000   0.0000000   0.0000000   0.0000000   0.0000000
 NQMom=    0.0000000   0.0000000   0.0000000   0.0000000   0.0000000   0.0000000   0.0000000   0.0000000   0.0000000   0.0000000
 NMagM=    0.0000000   0.0000000   2.7928460   2.7928460   2.7928460   0.0000000   2.7928460   2.7928460   0.0000000   2.7928460
 AtZNuc=   6.0000000   6.0000000   1.0000000   1.0000000   1.0000000   6.0000000   1.0000000   1.0000000   6.0000000   1.0000000

  Atom        11          12          13          14
 IAtWgt=           1           1           1           1
 AtmWgt=   1.0078250   1.0078250   1.0078250   1.0078250
 NucSpn=           1           1           1           1
 AtZEff=   0.0000000   0.0000000   0.0000000   0.0000000
 NQMom=    0.0000000   0.0000000   0.0000000   0.0000000
 NMagM=    2.7928460   2.7928460   2.7928460   2.7928460
 AtZNuc=   1.0000000   1.0000000   1.0000000   1.0000000
 Leave Link  101 at Wed Aug 26 13:42:17 2020, MaxMem=  2097152000 cpu:         0.5
 (Enter /opt/cluster/programs/g09/g09_d.01/g09/l202.exe)
                          Input orientation:                          
 ---------------------------------------------------------------------
 Center     Atomic      Atomic             Coordinates (Angstroms)
 Number     Number       Type             X           Y           Z
 ---------------------------------------------------------------------
      1          6           0       -3.843118    0.221467   -0.041782
      2          6           0       -2.776177   -0.547259    0.110706
      3          1           0       -4.782946   -0.463096    0.013407
      4          1           0       -3.618660    0.766970   -0.927139
      5          1           0       -3.985693    0.797367    0.915487
      6          6           0       -1.450738    0.294351    0.015026
      7          1           0       -2.775718   -1.309227   -0.738302
      8          1           0       -2.687147   -1.379432    1.059857
      9          6           0       -0.193004   -0.769070   -0.024689
     10          1           0       -1.516825    1.314134    1.089730
     11          1           0       -1.336162    0.614427   -0.720734
     12          1           0       -0.007527   -1.569111    1.007134
     13          1           0        0.759542   -0.144191   -0.120176
     14          1           0        0.067821   -1.471697   -0.860935
 ---------------------------------------------------------------------
                    Distance matrix (angstroms):
                    1          2          3          4          5
     1  C    0.000000
     2  C    1.323841   0.000000
     3  H    1.164023   2.010888   0.000000
     4  H    1.063867   1.874593   1.937331   0.000000
     5  H    1.126212   1.979551   1.743023   1.879071   0.000000
     6  C    2.394164   1.572975   3.417212   2.410587   2.736759
     7  H    1.991860   1.140794   2.304337   2.248734   2.938843
     8  H    2.261140   1.265435   2.515373   3.069676   2.538803
     9  C    3.782167   2.596212   4.600287   3.861211   4.209768
    10  H    2.808181   2.451375   3.870990   2.963926   2.528382
    11  H    2.626827   2.028411   3.685151   2.296883   3.119407
    12  H    4.360981   3.084346   5.001539   4.715821   4.629732
    13  H    4.617827   3.566101   5.553262   4.544233   4.947361
    14  H    4.339730   3.144359   5.031072   4.313485   4.973460
                    6          7          8          9         10
     6  C    0.000000
     7  H    2.212360   0.000000
     8  H    2.328504   1.801707   0.000000
     9  C    1.647524   2.733391   2.787388   0.000000
    10  H    1.483008   3.436355   2.936979   2.708167   0.000000
    11  H    0.810505   2.402722   2.995186   1.924929   1.949361
    12  H    2.557269   3.282829   2.686842   1.318759   3.255442
    13  H    2.257418   3.773255   3.846812   1.143213   2.961829
    14  H    2.488424   2.850816   3.359733   1.122952   3.751940
                   11         12         13         14
    11  H    0.000000
    12  H    3.085229   0.000000
    13  H    2.308278   1.972212   0.000000
    14  H    2.518479   1.872124   1.670172   0.000000
 Stoichiometry    C4H10
 Framework group  C1[X(C4H10)]
 Deg. of freedom    36
 Full point group                 C1      NOp   1
 Largest Abelian subgroup         C1      NOp   1
 Largest concise Abelian subgroup C1      NOp   1
                         Standard orientation:                         
 ---------------------------------------------------------------------
 Center     Atomic      Atomic             Coordinates (Angstroms)
 Number     Number       Type             X           Y           Z
 ---------------------------------------------------------------------
      1          6           0       -1.851768    0.084839   -0.094165
      2          6           0       -0.656667   -0.459591    0.072819
      3          1           0       -2.639828   -0.770485   -0.045879
      4          1           0       -1.728689    0.661819   -0.979466
      5          1           0       -2.115047    0.623723    0.859062
      6          6           0        0.479192    0.625204   -0.012589
      7          1           0       -0.497493   -1.208546   -0.772841
      8          1           0       -0.416901   -1.256119    1.026434
      9          6           0        1.921249   -0.171242   -0.034523
     10          1           0        0.202647    1.614608    1.056951
     11          1           0        0.537023    0.959923   -0.748482
     12          1           0        2.248372   -0.917182    1.002631
     13          1           0        2.733920    0.627959   -0.122713
     14          1           0        2.323959   -0.810962   -0.864948
 ---------------------------------------------------------------------
 Rotational constants (GHZ):     20.5061824      3.7780474      3.5007944
 Leave Link  202 at Wed Aug 26 13:42:17 2020, MaxMem=  2097152000 cpu:         0.0
 (Enter /opt/cluster/programs/g09/g09_d.01/g09/l301.exe)
 Standard basis: def2QZVP (5D, 7F)
 Ernie: Thresh=  0.10000D-02 Tol=  0.10000D-05 Strict=F.
 There are   638 symmetry adapted cartesian basis functions of A   symmetry.
 There are   528 symmetry adapted basis functions of A   symmetry.
   528 basis functions,   748 primitive gaussians,   638 cartesian basis functions
    17 alpha electrons       17 beta electrons
       nuclear repulsion energy       130.3444820696 Hartrees.
 IExCor=  419 DFT=T Ex+Corr=B2PLYPD3 ExCW=0 ScaHFX=  0.530000
 ScaDFX=  0.470000  0.470000  0.730000  0.730000 ScalE2=  0.270000  0.270000
 IRadAn=      0 IRanWt=     -1 IRanGd=            0 ICorTp=0 IEmpDi=141
 NAtoms=   14 NActive=   14 NUniq=   14 SFac= 1.00D+00 NAtFMM=   60 NAOKFM=F Big=F
 Integral buffers will be    131072 words long.
 Regular integral format.
 Two-electron integral symmetry is turned on.
 R6Disp:  Grimme-D3(BJ) Dispersion energy=       -0.0068850079 Hartrees.
 Nuclear repulsion after empirical dispersion term =      130.3375970617 Hartrees.
 Leave Link  301 at Wed Aug 26 13:42:17 2020, MaxMem=  2097152000 cpu:         0.4
 (Enter /opt/cluster/programs/g09/g09_d.01/g09/l302.exe)
 NPDir=0 NMtPBC=     1 NCelOv=     1 NCel=       1 NClECP=     1 NCelD=      1
         NCelK=      1 NCelE2=     1 NClLst=     1 CellRange=     0.0.
 One-electron integrals computed using PRISM.
   1 Symmetry operations used in ECPInt.
 ECPInt:  NShTT=   14196 NPrTT=   30597 LenC2=   13876 LenP2D=   25949.
 LDataN:  DoStor=T MaxTD1= 8 Len=  415
 NBasis=   528 RedAO= T EigKep=  2.57D-05  NBF=   528
 NBsUse=   528 1.00D-06 EigRej= -1.00D+00 NBFU=   528
 Precomputing XC quadrature grid using
 IXCGrd= 4 IRadAn=           0 IRanWt=          -1 IRanGd=           0 AccXCQ= 0.00D+00.
 Generated NRdTot=       0 NPtTot=           0 NUsed=           0 NTot=          32
 NSgBfM=   638   638   638   638   638 MxSgAt=    14 MxSgA2=    14.
 Leave Link  302 at Wed Aug 26 13:42:17 2020, MaxMem=  2097152000 cpu:         5.3
 (Enter /opt/cluster/programs/g09/g09_d.01/g09/l303.exe)
 DipDrv:  MaxL=1.
 Leave Link  303 at Wed Aug 26 13:42:17 2020, MaxMem=  2097152000 cpu:         0.5
 (Enter /opt/cluster/programs/g09/g09_d.01/g09/l401.exe)
 ExpMin= 7.60D-02 ExpMax= 6.70D+04 ExpMxC= 6.47D+02 IAcc=2 IRadAn=         4 AccDes= 0.00D+00
 Harris functional with IExCor=  419 and IRadAn=       4 diagonalized for initial guess.
 HarFok:  IExCor=  419 AccDes= 0.00D+00 IRadAn=         4 IDoV= 1 UseB2=F ITyADJ=14
 ICtDFT=  3500011 ScaDFX=  1.000000  1.000000  1.000000  1.000000
 FoFCou: FMM=F IPFlag=           0 FMFlag=      100000 FMFlg1=           0
         NFxFlg=           0 DoJE=T BraDBF=F KetDBF=T FulRan=T
         wScrn=  0.000000 ICntrl=     500 IOpCl=  0 I1Cent=   200000004 NGrid=           0
         NMat0=    1 NMatS0=      1 NMatT0=    0 NMatD0=    1 NMtDS0=    0 NMtDT0=    0
 Petite list used in FoFCou.
 Harris En= -158.387706591445    
 JPrj=0 DoOrth=F DoCkMO=F.
 Leave Link  401 at Wed Aug 26 13:42:20 2020, MaxMem=  2097152000 cpu:        16.5
 (Enter /opt/cluster/programs/g09/g09_d.01/g09/l502.exe)
 Closed shell SCF:
 Using DIIS extrapolation, IDIIS=  1040.
 Integral symmetry usage will be decided dynamically.
 IVT=     1249338 IEndB=     1249338 NGot=  2097152000 MDV=  2096326985
 LenX=  2096326985 LenY=  2095919303
 Requested convergence on RMS density matrix=1.00D-08 within 128 cycles.
 Requested convergence on MAX density matrix=1.00D-06.
 Requested convergence on             energy=1.00D-06.
 No special actions if energy rises.
 Fock matrices will be formed incrementally for  20 cycles.
 Integral accuracy reduced to 1.0D-05 until final iterations.

 Cycle   1  Pass 0  IDiag  1:
 FoFJK:  IHMeth= 1 ICntrl=       0 DoSepK=F KAlg= 0 I1Cent=   0 FoldK=F
 IRaf= 940000000 NMat=   1 IRICut=       1 DoRegI=T DoRafI=F ISym2E= 0.
 FoFCou: FMM=F IPFlag=           0 FMFlag=      100000 FMFlg1=           0
         NFxFlg=           0 DoJE=F BraDBF=F KetDBF=F FulRan=T
         wScrn=  0.000000 ICntrl=       0 IOpCl=  0 I1Cent=           0 NGrid=           0
         NMat0=    1 NMatS0=      1 NMatT0=    0 NMatD0=    1 NMtDS0=    0 NMtDT0=    0
 Symmetry not used in FoFCou.
 E= -157.578068059655    
 DIIS: error= 2.61D-02 at cycle   1 NSaved=   1.
 NSaved= 1 IEnMin= 1 EnMin= -157.578068059655     IErMin= 1 ErrMin= 2.61D-02
 ErrMax= 2.61D-02  0.00D+00 EMaxC= 1.00D-01 BMatC= 3.67D-01 BMatP= 3.67D-01
 IDIUse=3 WtCom= 7.39D-01 WtEn= 2.61D-01
 Coeff-Com:  0.100D+01
 Coeff-En:   0.100D+01
 Coeff:      0.100D+01
 Gap=     0.352 Goal=   None    Shift=    0.000
 GapD=    0.352 DampG=1.000 DampE=0.500 DampFc=0.5000 IDamp=-1.
 Damping current iteration by 5.00D-01
 RMSDP=1.17D-03 MaxDP=7.83D-02              OVMax= 2.26D-01

 Cycle   2  Pass 0  IDiag  1:
 RMSU=  5.61D-04    CP:  9.45D-01
 E= -157.724918422273     Delta-E=       -0.146850362618 Rises=F Damp=T
 DIIS: error= 6.53D-03 at cycle   2 NSaved=   2.
 NSaved= 2 IEnMin= 2 EnMin= -157.724918422273     IErMin= 2 ErrMin= 6.53D-03
 ErrMax= 6.53D-03  0.00D+00 EMaxC= 1.00D-01 BMatC= 3.25D-02 BMatP= 3.67D-01
 IDIUse=3 WtCom= 9.35D-01 WtEn= 6.53D-02
 Coeff-Com: -0.110D+00 0.111D+01
 Coeff-En:   0.000D+00 0.100D+01
 Coeff:     -0.102D+00 0.110D+01
 Gap=     0.441 Goal=   None    Shift=    0.000
 RMSDP=3.41D-04 MaxDP=1.73D-02 DE=-1.47D-01 OVMax= 1.32D-01

 Cycle   3  Pass 0  IDiag  1:
 RMSU=  3.07D-04    CP:  9.33D-01  7.41D-01
 E= -157.873110289592     Delta-E=       -0.148191867320 Rises=F Damp=F
 DIIS: error= 3.24D-03 at cycle   3 NSaved=   3.
 NSaved= 3 IEnMin= 3 EnMin= -157.873110289592     IErMin= 3 ErrMin= 3.24D-03
 ErrMax= 3.24D-03  0.00D+00 EMaxC= 1.00D-01 BMatC= 4.44D-03 BMatP= 3.25D-02
 IDIUse=3 WtCom= 9.68D-01 WtEn= 3.24D-02
 Coeff-Com: -0.103D+00 0.230D+00 0.873D+00
 Coeff-En:   0.000D+00 0.000D+00 0.100D+01
 Coeff:     -0.999D-01 0.223D+00 0.877D+00
 Gap=     0.388 Goal=   None    Shift=    0.000
 RMSDP=8.10D-05 MaxDP=7.31D-03 DE=-1.48D-01 OVMax= 1.92D-02

 Cycle   4  Pass 0  IDiag  1:
 RMSU=  6.49D-05    CP:  9.28D-01  8.22D-01  1.00D+00
 E= -157.877642178746     Delta-E=       -0.004531889153 Rises=F Damp=F
 DIIS: error= 9.04D-04 at cycle   4 NSaved=   4.
 NSaved= 4 IEnMin= 4 EnMin= -157.877642178746     IErMin= 4 ErrMin= 9.04D-04
 ErrMax= 9.04D-04  0.00D+00 EMaxC= 1.00D-01 BMatC= 3.38D-04 BMatP= 4.44D-03
 IDIUse=3 WtCom= 9.91D-01 WtEn= 9.04D-03
 Coeff-Com: -0.308D-01 0.448D-01 0.313D+00 0.673D+00
 Coeff-En:   0.000D+00 0.000D+00 0.000D+00 0.100D+01
 Coeff:     -0.305D-01 0.444D-01 0.311D+00 0.675D+00
 Gap=     0.387 Goal=   None    Shift=    0.000
 RMSDP=2.24D-05 MaxDP=1.62D-03 DE=-4.53D-03 OVMax= 4.11D-03

 Cycle   5  Pass 0  IDiag  1:
 RMSU=  1.61D-05    CP:  9.28D-01  8.07D-01  1.04D+00  8.93D-01
 E= -157.877949628882     Delta-E=       -0.000307450137 Rises=F Damp=F
 DIIS: error= 1.49D-04 at cycle   5 NSaved=   5.
 NSaved= 5 IEnMin= 5 EnMin= -157.877949628882     IErMin= 5 ErrMin= 1.49D-04
 ErrMax= 1.49D-04  0.00D+00 EMaxC= 1.00D-01 BMatC= 1.35D-05 BMatP= 3.38D-04
 IDIUse=3 WtCom= 9.99D-01 WtEn= 1.49D-03
 Coeff-Com: -0.231D-02-0.118D-02 0.406D-01 0.194D+00 0.769D+00
 Coeff-En:   0.000D+00 0.000D+00 0.000D+00 0.000D+00 0.100D+01
 Coeff:     -0.230D-02-0.118D-02 0.405D-01 0.193D+00 0.770D+00
 Gap=     0.387 Goal=   None    Shift=    0.000
 RMSDP=5.89D-06 MaxDP=3.21D-04 DE=-3.07D-04 OVMax= 1.20D-03

 Initial convergence to 1.0D-05 achieved.  Increase integral accuracy.
 Cycle   6  Pass 1  IDiag  1:
 E= -157.878007536706     Delta-E=       -0.000057907824 Rises=F Damp=F
 DIIS: error= 3.63D-05 at cycle   1 NSaved=   1.
 NSaved= 1 IEnMin= 1 EnMin= -157.878007536706     IErMin= 1 ErrMin= 3.63D-05
 ErrMax= 3.63D-05  0.00D+00 EMaxC= 1.00D-01 BMatC= 1.21D-06 BMatP= 1.21D-06
 IDIUse=1 WtCom= 1.00D+00 WtEn= 0.00D+00
 Coeff-Com:  0.100D+01
 Coeff:      0.100D+01
 Gap=     0.387 Goal=   None    Shift=    0.000
 RMSDP=5.89D-06 MaxDP=3.21D-04 DE=-5.79D-05 OVMax= 3.24D-04

 Cycle   7  Pass 1  IDiag  1:
 RMSU=  1.59D-05    CP:  1.00D+00
 E= -157.878008078922     Delta-E=       -0.000000542216 Rises=F Damp=F
 DIIS: error= 3.02D-05 at cycle   2 NSaved=   2.
 NSaved= 2 IEnMin= 2 EnMin= -157.878008078922     IErMin= 2 ErrMin= 3.02D-05
 ErrMax= 3.02D-05  0.00D+00 EMaxC= 1.00D-01 BMatC= 5.65D-07 BMatP= 1.21D-06
 IDIUse=1 WtCom= 1.00D+00 WtEn= 0.00D+00
 Coeff-Com:  0.390D+00 0.610D+00
 Coeff:      0.390D+00 0.610D+00
 Gap=     0.387 Goal=   None    Shift=    0.000
 RMSDP=8.50D-07 MaxDP=7.20D-05 DE=-5.42D-07 OVMax= 2.47D-04

 Cycle   8  Pass 1  IDiag  1:
 RMSU=  8.04D-07    CP:  1.00D+00  1.02D+00
 E= -157.878008605537     Delta-E=       -0.000000526614 Rises=F Damp=F
 DIIS: error= 7.65D-06 at cycle   3 NSaved=   3.
 NSaved= 3 IEnMin= 3 EnMin= -157.878008605537     IErMin= 3 ErrMin= 7.65D-06
 ErrMax= 7.65D-06  0.00D+00 EMaxC= 1.00D-01 BMatC= 2.88D-08 BMatP= 5.65D-07
 IDIUse=1 WtCom= 1.00D+00 WtEn= 0.00D+00
 Coeff-Com: -0.244D-01 0.156D+00 0.869D+00
 Coeff:     -0.244D-01 0.156D+00 0.869D+00
 Gap=     0.387 Goal=   None    Shift=    0.000
 RMSDP=3.74D-07 MaxDP=2.25D-05 DE=-5.27D-07 OVMax= 3.99D-05

 Cycle   9  Pass 1  IDiag  1:
 RMSU=  2.51D-07    CP:  1.00D+00  1.03D+00  8.98D-01
 E= -157.878008636163     Delta-E=       -0.000000030627 Rises=F Damp=F
 DIIS: error= 1.59D-06 at cycle   4 NSaved=   4.
 NSaved= 4 IEnMin= 4 EnMin= -157.878008636163     IErMin= 4 ErrMin= 1.59D-06
 ErrMax= 1.59D-06  0.00D+00 EMaxC= 1.00D-01 BMatC= 7.54D-10 BMatP= 2.88D-08
 IDIUse=1 WtCom= 1.00D+00 WtEn= 0.00D+00
 Coeff-Com: -0.179D-01 0.178D-01 0.189D+00 0.811D+00
 Coeff:     -0.179D-01 0.178D-01 0.189D+00 0.811D+00
 Gap=     0.387 Goal=   None    Shift=    0.000
 RMSDP=5.58D-08 MaxDP=3.55D-06 DE=-3.06D-08 OVMax= 9.77D-06

 Cycle  10  Pass 1  IDiag  1:
 RMSU=  4.28D-08    CP:  1.00D+00  1.03D+00  9.15D-01  1.12D+00
 E= -157.878008637079     Delta-E=       -0.000000000916 Rises=F Damp=F
 DIIS: error= 5.27D-07 at cycle   5 NSaved=   5.
 NSaved= 5 IEnMin= 5 EnMin= -157.878008637079     IErMin= 5 ErrMin= 5.27D-07
 ErrMax= 5.27D-07  0.00D+00 EMaxC= 1.00D-01 BMatC= 1.14D-10 BMatP= 7.54D-10
 IDIUse=1 WtCom= 1.00D+00 WtEn= 0.00D+00
 Coeff-Com: -0.232D-02-0.110D-01-0.429D-01 0.226D+00 0.830D+00
 Coeff:     -0.232D-02-0.110D-01-0.429D-01 0.226D+00 0.830D+00
 Gap=     0.387 Goal=   None    Shift=    0.000
 RMSDP=2.43D-08 MaxDP=1.81D-06 DE=-9.16D-10 OVMax= 3.32D-06

 Cycle  11  Pass 1  IDiag  1:
 RMSU=  1.47D-08    CP:  1.00D+00  1.03D+00  9.16D-01  1.20D+00  1.02D+00
 E= -157.878008637209     Delta-E=       -0.000000000129 Rises=F Damp=F
 DIIS: error= 1.96D-07 at cycle   6 NSaved=   6.
 NSaved= 6 IEnMin= 6 EnMin= -157.878008637209     IErMin= 6 ErrMin= 1.96D-07
 ErrMax= 1.96D-07  0.00D+00 EMaxC= 1.00D-01 BMatC= 1.19D-11 BMatP= 1.14D-10
 IDIUse=1 WtCom= 1.00D+00 WtEn= 0.00D+00
 Coeff-Com:  0.688D-03-0.530D-02-0.317D-01 0.170D-01 0.311D+00 0.708D+00
 Coeff:      0.688D-03-0.530D-02-0.317D-01 0.170D-01 0.311D+00 0.708D+00
 Gap=     0.387 Goal=   None    Shift=    0.000
 RMSDP=5.41D-09 MaxDP=2.32D-07 DE=-1.29D-10 OVMax= 1.10D-06

 SCF Done:  E(RB2PLYPD3) =  -157.878008637     A.U. after   11 cycles
            NFock= 11  Conv=0.54D-08     -V/T= 2.0031
 KE= 1.573839875075D+02 PE=-6.259462999987D+02 EE= 1.803467067923D+02
 Leave Link  502 at Wed Aug 26 13:48:51 2020, MaxMem=  2097152000 cpu:      3111.4
 (Enter /opt/cluster/programs/g09/g09_d.01/g09/l801.exe)
 DoSCS=T DFT=T ScalE2(SS,OS)=  0.270000  0.270000
 ExpMin= 7.60D-02 ExpMax= 6.70D+04 ExpMxC= 6.47D+02 IAcc=3 IRadAn=         5 AccDes= 0.00D+00
 HarFok:  IExCor=  205 AccDes= 0.00D+00 IRadAn=         5 IDoV=-2 UseB2=F ITyADJ=14
 ICtDFT= 12500011 ScaDFX=  1.000000  1.000000  1.000000  1.000000
 Largest valence mixing into a core orbital is  1.22D-04
 Largest core mixing into a valence orbital is  1.67D-05
 Range of M.O.s used for correlation:     5   528
 NBasis=   528 NAE=    17 NBE=    17 NFC=     4 NFV=     0
 NROrb=    524 NOA=    13 NOB=    13 NVA=   511 NVB=   511

 **** Warning!!: The largest alpha MO coefficient is  0.32570098D+02

 Leave Link  801 at Wed Aug 26 13:48:51 2020, MaxMem=  2097152000 cpu:         1.2
 (Enter /opt/cluster/programs/g09/g09_d.01/g09/l906.exe)
 DoSCS=T DFT=T ScalE2(SS,OS)=  0.270000  0.270000
 FulOut=F Deriv=F AODrv=F NAtomX=    14
   MMem=         463  MDisk=          13 MDiskD=          13
  W3Min=     4238234 MinDsk=     6904766 NBas6D=         638
 NBas2D=      205689    NTT=      203841    LW2=     4508827
    MDV=  2095900904 MDiskM=        7293 NBas2p=      189888
 Fully direct method using O(OVN) memory.
 IMap=   1   2   3   4   5   6   7   8   9  10  11  12  13
 JobTyp=1 Pass  1:  I=   1 to  13 NPSUse=  8 ParTrn=T ParDer=T DoDerP=F.
 Spin components of T(2) and E(2):
     alpha-alpha T2 =       0.4301867385D-01 E2=     -0.2678157223D-01
     alpha-beta  T2 =       0.2934307814D+00 E2=     -0.1992344842D+00
     beta-beta   T2 =       0.4301867385D-01 E2=     -0.2678157223D-01
 The integrals were generated   1 times.
 E2(B2PLYPD3) =    -0.2527976287D+00 E(B2PLYPD3) =    -0.15813080626589D+03
 Leave Link  906 at Wed Aug 26 13:53:38 2020, MaxMem=  2097152000 cpu:      2277.9
 (Enter /opt/cluster/programs/g09/g09_d.01/g09/l601.exe)
 Copying SCF densities to generalized density rwf, IOpCl= 0 IROHF=0.

 **********************************************************************

            Population analysis using the SCF density.

 **********************************************************************

 Orbital symmetries:
       Occupied  (A) (A) (A) (A) (A) (A) (A) (A) (A) (A) (A) (A)
                 (A) (A) (A) (A) (A)
       Virtual   (A) (A) (A) (A) (A) (A) (A) (A) (A) (A) (A) (A)
                 (A) (A) (A) (A) (A) (A) (A) (A) (A) (A) (A) (A)
                 (A) (A) (A) (A) (A) (A) (A) (A) (A) (A) (A) (A)
                 (A) (A) (A) (A) (A) (A) (A) (A) (A) (A) (A) (A)
                 (A) (A) (A) (A) (A) (A) (A) (A) (A) (A) (A) (A)
                 (A) (A) (A) (A) (A) (A) (A) (A) (A) (A) (A) (A)
                 (A) (A) (A) (A) (A) (A) (A) (A) (A) (A) (A) (A)
                 (A) (A) (A) (A) (A) (A) (A) (A) (A) (A) (A) (A)
                 (A) (A) (A) (A) (A) (A) (A) (A) (A) (A) (A) (A)
                 (A) (A) (A) (A) (A) (A) (A) (A) (A) (A) (A) (A)
                 (A) (A) (A) (A) (A) (A) (A) (A) (A) (A) (A) (A)
                 (A) (A) (A) (A) (A) (A) (A) (A) (A) (A) (A) (A)
                 (A) (A) (A) (A) (A) (A) (A) (A) (A) (A) (A) (A)
                 (A) (A) (A) (A) (A) (A) (A) (A) (A) (A) (A) (A)
                 (A) (A) (A) (A) (A) (A) (A) (A) (A) (A) (A) (A)
                 (A) (A) (A) (A) (A) (A) (A) (A) (A) (A) (A) (A)
                 (A) (A) (A) (A) (A) (A) (A) (A) (A) (A) (A) (A)
                 (A) (A) (A) (A) (A) (A) (A) (A) (A) (A) (A) (A)
                 (A) (A) (A) (A) (A) (A) (A) (A) (A) (A) (A) (A)
                 (A) (A) (A) (A) (A) (A) (A) (A) (A) (A) (A) (A)
                 (A) (A) (A) (A) (A) (A) (A) (A) (A) (A) (A) (A)
                 (A) (A) (A) (A) (A) (A) (A) (A) (A) (A) (A) (A)
                 (A) (A) (A) (A) (A) (A) (A) (A) (A) (A) (A) (A)
                 (A) (A) (A) (A) (A) (A) (A) (A) (A) (A) (A) (A)
                 (A) (A) (A) (A) (A) (A) (A) (A) (A) (A) (A) (A)
                 (A) (A) (A) (A) (A) (A) (A) (A) (A) (A) (A) (A)
                 (A) (A) (A) (A) (A) (A) (A) (A) (A) (A) (A) (A)
                 (A) (A) (A) (A) (A) (A) (A) (A) (A) (A) (A) (A)
                 (A) (A) (A) (A) (A) (A) (A) (A) (A) (A) (A) (A)
                 (A) (A) (A) (A) (A) (A) (A) (A) (A) (A) (A) (A)
                 (A) (A) (A) (A) (A) (A) (A) (A) (A) (A) (A) (A)
                 (A) (A) (A) (A) (A) (A) (A) (A) (A) (A) (A) (A)
                 (A) (A) (A) (A) (A) (A) (A) (A) (A) (A) (A) (A)
                 (A) (A) (A) (A) (A) (A) (A) (A) (A) (A) (A) (A)
                 (A) (A) (A) (A) (A) (A) (A) (A) (A) (A) (A) (A)
                 (A) (A) (A) (A) (A) (A) (A) (A) (A) (A) (A) (A)
                 (A) (A) (A) (A) (A) (A) (A) (A) (A) (A) (A) (A)
                 (A) (A) (A) (A) (A) (A) (A) (A) (A) (A) (A) (A)
                 (A) (A) (A) (A) (A) (A) (A) (A) (A) (A) (A) (A)
                 (A) (A) (A) (A) (A) (A) (A) (A) (A) (A) (A) (A)
                 (A) (A) (A) (A) (A) (A) (A) (A) (A) (A) (A) (A)
                 (A) (A) (A) (A) (A) (A) (A) (A) (A) (A) (A) (A)
                 (A) (A) (A) (A) (A) (A) (A)
 The electronic state is 1-A.
 Alpha  occ. eigenvalues --  -10.63767 -10.63140 -10.61715 -10.59666  -0.94342
 Alpha  occ. eigenvalues --   -0.84449  -0.71975  -0.66068  -0.54841  -0.53086
 Alpha  occ. eigenvalues --   -0.48533  -0.45472  -0.41227  -0.39671  -0.38575
 Alpha  occ. eigenvalues --   -0.36162  -0.34218
 Alpha virt. eigenvalues --    0.04509   0.05914   0.06606   0.08084   0.10181
 Alpha virt. eigenvalues --    0.11027   0.12006   0.12637   0.14311   0.15047
 Alpha virt. eigenvalues --    0.15236   0.16213   0.18520   0.19989   0.20113
 Alpha virt. eigenvalues --    0.21780   0.23622   0.24862   0.25606   0.28124
 Alpha virt. eigenvalues --    0.28219   0.29725   0.30391   0.31962   0.33249
 Alpha virt. eigenvalues --    0.34211   0.35524   0.36706   0.37677   0.38146
 Alpha virt. eigenvalues --    0.38378   0.40070   0.40675   0.46142   0.47530
 Alpha virt. eigenvalues --    0.48254   0.50342   0.52961   0.55030   0.57861
 Alpha virt. eigenvalues --    0.59283   0.61181   0.62770   0.65046   0.66703
 Alpha virt. eigenvalues --    0.67445   0.67629   0.70136   0.70341   0.71975
 Alpha virt. eigenvalues --    0.72710   0.75400   0.76184   0.76886   0.77940
 Alpha virt. eigenvalues --    0.81734   0.82318   0.84128   0.84692   0.85798
 Alpha virt. eigenvalues --    0.87035   0.87713   0.89048   0.90092   0.90953
 Alpha virt. eigenvalues --    0.92053   0.93910   0.95549   0.96233   0.96645
 Alpha virt. eigenvalues --    0.97734   0.98465   1.00481   1.00805   1.01909
 Alpha virt. eigenvalues --    1.04178   1.06028   1.07603   1.08082   1.08129
 Alpha virt. eigenvalues --    1.10345   1.11751   1.14613   1.16653   1.18727
 Alpha virt. eigenvalues --    1.19172   1.20088   1.22474   1.23974   1.26753
 Alpha virt. eigenvalues --    1.29174   1.29841   1.30970   1.33810   1.36433
 Alpha virt. eigenvalues --    1.38580   1.39548   1.40949   1.42105   1.43432
 Alpha virt. eigenvalues --    1.45605   1.48368   1.51268   1.52829   1.54805
 Alpha virt. eigenvalues --    1.56358   1.59289   1.65355   1.69889   1.73135
 Alpha virt. eigenvalues --    1.73502   1.81345   1.83304   1.85815   1.89102
 Alpha virt. eigenvalues --    1.92040   1.92897   1.94276   1.96035   1.96679
 Alpha virt. eigenvalues --    1.97833   1.99516   2.00437   2.01615   2.02780
 Alpha virt. eigenvalues --    2.04106   2.05482   2.07300   2.08322   2.11550
 Alpha virt. eigenvalues --    2.12272   2.13297   2.15285   2.15782   2.17565
 Alpha virt. eigenvalues --    2.18510   2.19295   2.20544   2.21952   2.22423
 Alpha virt. eigenvalues --    2.23679   2.25640   2.26625   2.29043   2.31810
 Alpha virt. eigenvalues --    2.33027   2.34155   2.34923   2.35792   2.37952
 Alpha virt. eigenvalues --    2.38538   2.39547   2.39790   2.41322   2.43227
 Alpha virt. eigenvalues --    2.45387   2.47338   2.49569   2.50213   2.51963
 Alpha virt. eigenvalues --    2.53355   2.54999   2.56119   2.57361   2.59740
 Alpha virt. eigenvalues --    2.60958   2.62767   2.63764   2.65272   2.68236
 Alpha virt. eigenvalues --    2.68804   2.70382   2.71840   2.72901   2.75309
 Alpha virt. eigenvalues --    2.77313   2.78510   2.80190   2.83354   2.83641
 Alpha virt. eigenvalues --    2.84641   2.87076   2.89124   2.90383   2.91727
 Alpha virt. eigenvalues --    2.92987   2.95035   2.95918   2.97182   2.99027
 Alpha virt. eigenvalues --    3.01810   3.03029   3.05708   3.06496   3.07410
 Alpha virt. eigenvalues --    3.09081   3.11813   3.12838   3.13700   3.15889
 Alpha virt. eigenvalues --    3.18096   3.20500   3.21548   3.23667   3.24658
 Alpha virt. eigenvalues --    3.27098   3.30466   3.31618   3.33092   3.34985
 Alpha virt. eigenvalues --    3.36693   3.39012   3.40954   3.42570   3.43851
 Alpha virt. eigenvalues --    3.45872   3.50302   3.51101   3.54860   3.59741
 Alpha virt. eigenvalues --    3.60100   3.60323   3.62383   3.65091   3.66877
 Alpha virt. eigenvalues --    3.69925   3.71295   3.73911   3.76951   3.79233
 Alpha virt. eigenvalues --    3.82176   3.84971   3.86917   3.93316   3.96572
 Alpha virt. eigenvalues --    3.99381   4.00913   4.02309   4.04405   4.07388
 Alpha virt. eigenvalues --    4.10250   4.15085   4.16312   4.18914   4.20669
 Alpha virt. eigenvalues --    4.23135   4.30014   4.33321   4.36402   4.39052
 Alpha virt. eigenvalues --    4.51105   4.54714   4.63229   4.83791   5.01046
 Alpha virt. eigenvalues --    5.07756   5.11737   5.16158   5.19451   5.22937
 Alpha virt. eigenvalues --    5.30751   5.37353   5.38356   5.40921   5.48014
 Alpha virt. eigenvalues --    5.50060   5.54152   5.56598   5.60367   5.61534
 Alpha virt. eigenvalues --    5.65619   5.68461   5.72924   5.75033   5.75945
 Alpha virt. eigenvalues --    5.76948   5.78403   5.81508   5.83124   5.85517
 Alpha virt. eigenvalues --    5.86853   5.87572   5.88494   5.89994   5.91943
 Alpha virt. eigenvalues --    5.93074   5.93750   5.96938   5.97878   5.98544
 Alpha virt. eigenvalues --    6.01811   6.02471   6.03776   6.04115   6.04813
 Alpha virt. eigenvalues --    6.06634   6.08079   6.08773   6.11756   6.12254
 Alpha virt. eigenvalues --    6.13579   6.15187   6.16027   6.17288   6.19854
 Alpha virt. eigenvalues --    6.20604   6.23772   6.25329   6.26145   6.26996
 Alpha virt. eigenvalues --    6.28404   6.30412   6.33931   6.34565   6.37961
 Alpha virt. eigenvalues --    6.38530   6.40146   6.40695   6.42166   6.45673
 Alpha virt. eigenvalues --    6.47226   6.49376   6.50375   6.52351   6.56370
 Alpha virt. eigenvalues --    6.58988   6.60452   6.62814   6.63794   6.66121
 Alpha virt. eigenvalues --    6.66670   6.69593   6.72357   6.74539   6.76607
 Alpha virt. eigenvalues --    6.78909   6.79998   6.84182   6.85082   6.88479
 Alpha virt. eigenvalues --    6.89007   6.93513   6.96506   6.98993   7.00636
 Alpha virt. eigenvalues --    7.02215   7.06469   7.07960   7.08180   7.10155
 Alpha virt. eigenvalues --    7.13664   7.17291   7.19892   7.21533   7.23099
 Alpha virt. eigenvalues --    7.24086   7.27154   7.30326   7.31972   7.34106
 Alpha virt. eigenvalues --    7.36457   7.37195   7.39011   7.40438   7.42474
 Alpha virt. eigenvalues --    7.45439   7.49823   7.51352   7.54747   7.56114
 Alpha virt. eigenvalues --    7.56171   7.60433   7.60983   7.62113   7.62302
 Alpha virt. eigenvalues --    7.64943   7.69381   7.69575   7.71887   7.73099
 Alpha virt. eigenvalues --    7.75064   7.76957   7.78551   7.80725   7.83177
 Alpha virt. eigenvalues --    7.83736   7.87580   7.89184   7.91359   7.92124
 Alpha virt. eigenvalues --    7.93349   7.95238   7.97450   7.98958   8.01639
 Alpha virt. eigenvalues --    8.02692   8.04633   8.06345   8.09274   8.11181
 Alpha virt. eigenvalues --    8.13673   8.17451   8.19502   8.21136   8.22093
 Alpha virt. eigenvalues --    8.23644   8.25619   8.28968   8.29872   8.33144
 Alpha virt. eigenvalues --    8.34803   8.35150   8.36067   8.39468   8.39792
 Alpha virt. eigenvalues --    8.41524   8.42327   8.44207   8.47189   8.49540
 Alpha virt. eigenvalues --    8.50619   8.51836   8.52297   8.53785   8.57148
 Alpha virt. eigenvalues --    8.60050   8.61725   8.62093   8.63551   8.66138
 Alpha virt. eigenvalues --    8.69464   8.70741   8.71978   8.75779   8.76899
 Alpha virt. eigenvalues --    8.79032   8.80033   8.82515   8.84105   8.86903
 Alpha virt. eigenvalues --    8.88094   8.89234   8.92645   8.94942   8.98283
 Alpha virt. eigenvalues --    9.01185   9.01958   9.03975   9.09711   9.10396
 Alpha virt. eigenvalues --    9.13915   9.16460   9.20583   9.21922   9.23448
 Alpha virt. eigenvalues --    9.27436   9.29505   9.30169   9.34229   9.34665
 Alpha virt. eigenvalues --    9.37024   9.42662   9.48775   9.56075   9.56769
 Alpha virt. eigenvalues --    9.61163   9.62406   9.68393   9.69596   9.69821
 Alpha virt. eigenvalues --    9.71983   9.75322   9.77742   9.79896   9.87008
 Alpha virt. eigenvalues --    9.91312   9.99828  10.00219  10.05093  10.07449
 Alpha virt. eigenvalues --   10.13003  10.16407  10.18686  10.23425  10.30225
 Alpha virt. eigenvalues --   10.32709  10.42913  10.51303  10.62419  10.73505
 Alpha virt. eigenvalues --   10.88229  10.97665  11.05509  11.63777  11.77204
 Alpha virt. eigenvalues --   11.79335  12.11897  12.25341  12.28930  12.62595
 Alpha virt. eigenvalues --   12.69164  12.89282  13.32674  29.02082  29.14261
 Alpha virt. eigenvalues --   29.35347  29.72351 148.61176 148.77605 149.04445
 Alpha virt. eigenvalues --  149.37902
          Condensed to atoms (all electrons):
               1          2          3          4          5          6
     1  C    4.760994   0.300583   0.419650   0.426479   0.413336  -0.071912
     2  C    0.300583   4.844449  -0.052541  -0.076748  -0.062449   0.374523
     3  H    0.419650  -0.052541   0.679147  -0.028401  -0.044536   0.016189
     4  H    0.426479  -0.076748  -0.028401   0.654455  -0.035684  -0.014393
     5  H    0.413336  -0.062449  -0.044536  -0.035684   0.691807  -0.016110
     6  C   -0.071912   0.374523   0.016189  -0.014393  -0.016110   5.038072
     7  H   -0.065226   0.394956  -0.018132  -0.016319   0.019768  -0.054574
     8  H   -0.038142   0.401847  -0.006768   0.014183  -0.012432  -0.038525
     9  C    0.008963  -0.065202  -0.001512   0.000761   0.000316   0.359445
    10  H   -0.000021  -0.042822  -0.000664  -0.000776   0.007375   0.353886
    11  H   -0.007155  -0.012808   0.000294   0.003873  -0.000541   0.435169
    12  H    0.000265  -0.002412   0.000001  -0.000088   0.000078  -0.026106
    13  H   -0.000832   0.009759   0.000074  -0.000049  -0.000003  -0.047466
    14  H    0.000006  -0.005872  -0.000020   0.000126  -0.000047  -0.025387
               7          8          9         10         11         12
     1  C   -0.065226  -0.038142   0.008963  -0.000021  -0.007155   0.000265
     2  C    0.394956   0.401847  -0.065202  -0.042822  -0.012808  -0.002412
     3  H   -0.018132  -0.006768  -0.001512  -0.000664   0.000294   0.000001
     4  H   -0.016319   0.014183   0.000761  -0.000776   0.003873  -0.000088
     5  H    0.019768  -0.012432   0.000316   0.007375  -0.000541   0.000078
     6  C   -0.054574  -0.038525   0.359445   0.353886   0.435169  -0.026106
     7  H    0.755871  -0.047110  -0.002620   0.008759  -0.008657   0.000606
     8  H   -0.047110   0.711372  -0.007048  -0.003831   0.006723   0.001527
     9  C   -0.002620  -0.007048   4.777885  -0.011690  -0.041289   0.374515
    10  H    0.008759  -0.003831  -0.011690   0.698234  -0.019275  -0.001445
    11  H   -0.008657   0.006723  -0.041289  -0.019275   0.368655   0.004670
    12  H    0.000606   0.001527   0.374515  -0.001445   0.004670   0.677026
    13  H   -0.000085   0.000069   0.370975  -0.004338   0.000700  -0.015172
    14  H    0.000850   0.000400   0.393589   0.003645  -0.003022  -0.036793
              13         14
     1  C   -0.000832   0.000006
     2  C    0.009759  -0.005872
     3  H    0.000074  -0.000020
     4  H   -0.000049   0.000126
     5  H   -0.000003  -0.000047
     6  C   -0.047466  -0.025387
     7  H   -0.000085   0.000850
     8  H    0.000069   0.000400
     9  C    0.370975   0.393589
    10  H   -0.004338   0.003645
    11  H    0.000700  -0.003022
    12  H   -0.015172  -0.036793
    13  H    0.700743  -0.050395
    14  H   -0.050395   0.674319
 Mulliken charges:
               1
     1  C   -0.146989
     2  C   -0.005262
     3  H    0.037219
     4  H    0.072583
     5  H    0.039123
     6  C   -0.282811
     7  H    0.031914
     8  H    0.017736
     9  C   -0.157089
    10  H    0.012966
    11  H    0.272663
    12  H    0.023327
    13  H    0.036021
    14  H    0.048601
 Sum of Mulliken charges =   0.00000
 Mulliken charges with hydrogens summed into heavy atoms:
               1
     1  C    0.001935
     2  C    0.044388
     6  C    0.002817
     9  C   -0.049140
 Electronic spatial extent (au):  <R**2>=            424.5549
 Charge=              0.0000 electrons
 Dipole moment (field-independent basis, Debye):
    X=             -0.1181    Y=             -0.0610    Z=             -0.6644  Tot=              0.6775
 Quadrupole moment (field-independent basis, Debye-Ang):
   XX=            -30.4240   YY=            -29.5762   ZZ=            -28.8003
   XY=              0.1233   XZ=             -1.3524   YZ=             -0.3875
 Traceless Quadrupole moment (field-independent basis, Debye-Ang):
   XX=             -0.8238   YY=              0.0240   ZZ=              0.7998
   XY=              0.1233   XZ=             -1.3524   YZ=             -0.3875
 Octapole moment (field-independent basis, Debye-Ang**2):
  XXX=              1.6208  YYY=             -0.7136  ZZZ=             -2.8072  XYY=             -0.4965
  XXY=             -2.6010  XXZ=             -1.9877  XZZ=             -1.0781  YZZ=              0.6440
  YYZ=             -0.6719  XYZ=             -0.2885
 Hexadecapole moment (field-independent basis, Debye-Ang**3):
 XXXX=           -462.5575 YYYY=           -109.7333 ZZZZ=            -67.2025 XXXY=              3.5152
 XXXZ=            -12.7878 YYYX=              1.7359 YYYZ=             -0.8688 ZZZX=             -2.3638
 ZZZY=             -1.5756 XXYY=            -91.2548 XXZZ=            -86.0888 YYZZ=            -26.4788
 XXYZ=             -1.2636 YYXZ=             -0.8665 ZZXY=             -2.4147
 N-N= 1.303375970617D+02 E-N=-6.259462574345D+02  KE= 1.573839875075D+02
 Leave Link  601 at Wed Aug 26 13:53:38 2020, MaxMem=  2097152000 cpu:         1.2
 (Enter /opt/cluster/programs/g09/g09_d.01/g09/l9999.exe)
 1\1\GINC-NODE03\SP\RB2PLYPD3-FC\def2QZVP\C4H10\BOITTIER\26-Aug-2020\0\
 \#p B2PLYPD3/Def2QZVP\\butane_opt\\0,1\C,0,-3.843118,0.221467,-0.04178
 2\C,0,-2.776177,-0.547259,0.110706\H,0,-4.782946,-0.463096,0.013407\H,
 0,-3.61866,0.76697,-0.927139\H,0,-3.985693,0.797367,0.915487\C,0,-1.45
 0738,0.294351,0.015026\H,0,-2.775718,-1.309227,-0.738302\H,0,-2.687147
 ,-1.379432,1.059857\C,0,-0.193004,-0.76907,-0.024689\H,0,-1.516825,1.3
 14134,1.08973\H,0,-1.336162,0.614427,-0.720734\H,0,-0.007527,-1.569111
 ,1.007134\H,0,0.759542,-0.144191,-0.120176\H,0,0.067821,-1.471697,-0.8
 60935\\Version=ES64L-G09RevD.01\State=1-A\HF=-157.8780086\MP2=-158.130
 8063\RMSD=5.410e-09\PG=C01 [X(C4H10)]\\@


 EVERYTHING'S GOT A MORAL, IF ONLY YOU CAN FIND IT.

                                    -- LEWIS CARROL, ALICE IN WONDERLAND
 Job cpu time:       0 days  1 hours 30 minutes 15.6 seconds.
 File lengths (MBytes):  RWF=    152 Int=      0 D2E=      0 Chk=     14 Scr=      1
 Normal termination of Gaussian 09 at Wed Aug 26 13:53:38 2020.
