 Entering Gaussian System, Link 0=/opt/cluster/programs/g09/g09_d.01/g09//g09
 Input=/home/boittier/MDCM/nms_sampling/butane_geom.xyz.dir/energies/butane_opt_138_energy.com
 Output=/scratch/boittier/butane_opt_138_energy/butane_opt_138_energy.out
 Initial command:
 /opt/cluster/programs/g09/g09_d.01/g09/l1.exe "/scratch/boittier/butane_opt_138_energy/Gau-97676.inp" -scrdir="/scratch/boittier/butane_opt_138_energy/"
 Entering Link 1 = /opt/cluster/programs/g09/g09_d.01/g09/l1.exe PID=     97677.
  
 Copyright (c) 1988,1990,1992,1993,1995,1998,2003,2009,2013,
            Gaussian, Inc.  All Rights Reserved.
  
 This is part of the Gaussian(R) 09 program.  It is based on
 the Gaussian(R) 03 system (copyright 2003, Gaussian, Inc.),
 the Gaussian(R) 98 system (copyright 1998, Gaussian, Inc.),
 the Gaussian(R) 94 system (copyright 1995, Gaussian, Inc.),
 the Gaussian 92(TM) system (copyright 1992, Gaussian, Inc.),
 the Gaussian 90(TM) system (copyright 1990, Gaussian, Inc.),
 the Gaussian 88(TM) system (copyright 1988, Gaussian, Inc.),
 the Gaussian 86(TM) system (copyright 1986, Carnegie Mellon
 University), and the Gaussian 82(TM) system (copyright 1983,
 Carnegie Mellon University). Gaussian is a federally registered
 trademark of Gaussian, Inc.
  
 This software contains proprietary and confidential information,
 including trade secrets, belonging to Gaussian, Inc.
  
 This software is provided under written license and may be
 used, copied, transmitted, or stored only in accord with that
 written license.
  
 The following legend is applicable only to US Government
 contracts under FAR:
  
                    RESTRICTED RIGHTS LEGEND
  
 Use, reproduction and disclosure by the US Government is
 subject to restrictions as set forth in subparagraphs (a)
 and (c) of the Commercial Computer Software - Restricted
 Rights clause in FAR 52.227-19.
  
 Gaussian, Inc.
 340 Quinnipiac St., Bldg. 40, Wallingford CT 06492
  
  
 ---------------------------------------------------------------
 Warning -- This program may not be used in any manner that
 competes with the business of Gaussian, Inc. or will provide
 assistance to any competitor of Gaussian, Inc.  The licensee
 of this program is prohibited from giving any competitor of
 Gaussian, Inc. access to this program.  By using this program,
 the user acknowledges that Gaussian, Inc. is engaged in the
 business of creating and licensing software in the field of
 computational chemistry and represents and warrants to the
 licensee that it is not a competitor of Gaussian, Inc. and that
 it will not use this program in any manner prohibited above.
 ---------------------------------------------------------------
  

 Cite this work as:
 Gaussian 09, Revision D.01,
 M. J. Frisch, G. W. Trucks, H. B. Schlegel, G. E. Scuseria, 
 M. A. Robb, J. R. Cheeseman, G. Scalmani, V. Barone, B. Mennucci, 
 G. A. Petersson, H. Nakatsuji, M. Caricato, X. Li, H. P. Hratchian, 
 A. F. Izmaylov, J. Bloino, G. Zheng, J. L. Sonnenberg, M. Hada, 
 M. Ehara, K. Toyota, R. Fukuda, J. Hasegawa, M. Ishida, T. Nakajima, 
 Y. Honda, O. Kitao, H. Nakai, T. Vreven, J. A. Montgomery, Jr., 
 J. E. Peralta, F. Ogliaro, M. Bearpark, J. J. Heyd, E. Brothers, 
 K. N. Kudin, V. N. Staroverov, T. Keith, R. Kobayashi, J. Normand, 
 K. Raghavachari, A. Rendell, J. C. Burant, S. S. Iyengar, J. Tomasi, 
 M. Cossi, N. Rega, J. M. Millam, M. Klene, J. E. Knox, J. B. Cross, 
 V. Bakken, C. Adamo, J. Jaramillo, R. Gomperts, R. E. Stratmann, 
 O. Yazyev, A. J. Austin, R. Cammi, C. Pomelli, J. W. Ochterski, 
 R. L. Martin, K. Morokuma, V. G. Zakrzewski, G. A. Voth, 
 P. Salvador, J. J. Dannenberg, S. Dapprich, A. D. Daniels, 
 O. Farkas, J. B. Foresman, J. V. Ortiz, J. Cioslowski, 
 and D. J. Fox, Gaussian, Inc., Wallingford CT, 2013.
 
 ******************************************
 Gaussian 09:  ES64L-G09RevD.01 24-Apr-2013
                26-Aug-2020 
 ******************************************
 %chk=/home/boittier/MDCM/nms_sampling/butane_geom.xyz.dir/butane_opt_138.chk
 %nproc=8
 Will use up to    8 processors via shared memory.
 %mem=16000MB
 --------------------
 #p B2PLYPD3/Def2QZVP
 --------------------
 1/38=1/1;
 2/12=2,17=6,18=5,40=1/2;
 3/5=45,7=101,11=9,16=1,25=1,30=1,74=-60/1,2,3;
 4//1;
 5/5=2,38=5/2;
 8/10=1/1;
 9/16=-3/6;
 6/7=2,8=2,9=2,10=2/1;
 99/5=1,9=1/99;
 Leave Link    1 at Wed Aug 26 11:12:10 2020, MaxMem=  2097152000 cpu:         0.2
 (Enter /opt/cluster/programs/g09/g09_d.01/g09/l101.exe)
 ----------
 butane_opt
 ----------
 Symbolic Z-matrix:
 Charge =  0 Multiplicity = 1
 C                    -3.96773   0.25173  -0.0455 
 C                    -2.75836  -0.634     0.09944 
 H                    -4.71066  -0.10637   0.22868 
 H                    -4.10339   1.19926  -1.19419 
 H                    -4.10822   0.61619   0.65826 
 C                    -1.39843   0.1942    0.11062 
 H                    -2.73949  -1.25721  -0.80611 
 H                    -2.6041   -1.49727   1.23179 
 C                    -0.11623  -0.68227  -0.01078 
 H                    -1.45012   0.73969   0.82852 
 H                    -1.31181   0.98184  -0.96464 
 H                     0.01929  -0.63626   0.50184 
 H                     0.70822  -0.0712    0.21158 
 H                     0.14645  -1.98343  -1.22751 
 
 NAtoms=     14 NQM=       14 NQMF=       0 NMMI=      0 NMMIF=      0
                NMic=       0 NMicF=      0.
                    Isotopes and Nuclear Properties:
 (Nuclear quadrupole moments (NQMom) in fm**2, nuclear magnetic moments (NMagM)
  in nuclear magnetons)

  Atom         1           2           3           4           5           6           7           8           9          10
 IAtWgt=          12          12           1           1           1          12           1           1          12           1
 AtmWgt=  12.0000000  12.0000000   1.0078250   1.0078250   1.0078250  12.0000000   1.0078250   1.0078250  12.0000000   1.0078250
 NucSpn=           0           0           1           1           1           0           1           1           0           1
 AtZEff=   0.0000000   0.0000000   0.0000000   0.0000000   0.0000000   0.0000000   0.0000000   0.0000000   0.0000000   0.0000000
 NQMom=    0.0000000   0.0000000   0.0000000   0.0000000   0.0000000   0.0000000   0.0000000   0.0000000   0.0000000   0.0000000
 NMagM=    0.0000000   0.0000000   2.7928460   2.7928460   2.7928460   0.0000000   2.7928460   2.7928460   0.0000000   2.7928460
 AtZNuc=   6.0000000   6.0000000   1.0000000   1.0000000   1.0000000   6.0000000   1.0000000   1.0000000   6.0000000   1.0000000

  Atom        11          12          13          14
 IAtWgt=           1           1           1           1
 AtmWgt=   1.0078250   1.0078250   1.0078250   1.0078250
 NucSpn=           1           1           1           1
 AtZEff=   0.0000000   0.0000000   0.0000000   0.0000000
 NQMom=    0.0000000   0.0000000   0.0000000   0.0000000
 NMagM=    2.7928460   2.7928460   2.7928460   2.7928460
 AtZNuc=   1.0000000   1.0000000   1.0000000   1.0000000
 Leave Link  101 at Wed Aug 26 11:12:11 2020, MaxMem=  2097152000 cpu:         0.6
 (Enter /opt/cluster/programs/g09/g09_d.01/g09/l202.exe)
                          Input orientation:                          
 ---------------------------------------------------------------------
 Center     Atomic      Atomic             Coordinates (Angstroms)
 Number     Number       Type             X           Y           Z
 ---------------------------------------------------------------------
      1          6           0       -3.967727    0.251734   -0.045503
      2          6           0       -2.758359   -0.634003    0.099443
      3          1           0       -4.710662   -0.106370    0.228684
      4          1           0       -4.103387    1.199261   -1.194187
      5          1           0       -4.108216    0.616193    0.658258
      6          6           0       -1.398429    0.194202    0.110624
      7          1           0       -2.739494   -1.257210   -0.806110
      8          1           0       -2.604100   -1.497272    1.231789
      9          6           0       -0.116228   -0.682270   -0.010784
     10          1           0       -1.450118    0.739694    0.828523
     11          1           0       -1.311806    0.981839   -0.964640
     12          1           0        0.019293   -0.636255    0.501840
     13          1           0        0.708223   -0.071198    0.211579
     14          1           0        0.146449   -1.983429   -1.227505
 ---------------------------------------------------------------------
                    Distance matrix (angstroms):
                    1          2          3          4          5
     1  C    0.000000
     2  C    1.506025   0.000000
     3  H    0.869120   2.026472   0.000000
     4  H    1.495221   2.615996   2.024356   0.000000
     5  H    0.804889   1.922857   1.034201   1.942046   0.000000
     6  C    2.574680   1.592312   3.327938   3.166934   2.796592
     7  H    2.089017   1.099440   2.506139   2.836381   2.743613
     8  H    2.559292   1.432214   2.716327   3.924858   2.656697
     9  C    3.963283   2.644870   4.636575   4.564870   4.250834
    10  H    2.709314   2.032264   3.421517   3.367847   2.666407
    11  H    2.903753   2.415726   3.763036   2.809429   3.253829
    12  H    4.121218   2.806649   4.767375   4.821008   4.316182
    13  H    4.694133   3.513761   5.419026   5.171251   4.885705
    14  H    4.829030   3.466937   5.406974   5.309589   5.330695
                    6          7          8          9         10
     6  C    0.000000
     7  H    2.178406   0.000000
     8  H    2.360453   2.056452   0.000000
     9  C    1.557878   2.800826   2.897883   0.000000
    10  H    0.903113   2.884812   2.549179   2.122659   0.000000
    11  H    1.335690   2.660219   3.555322   2.260201   1.814717
    12  H    1.688977   3.115642   2.855935   0.532228   2.039394
    13  H    2.125703   3.785376   3.747799   1.050035   2.386755
    14  H    2.986522   3.005601   3.721558   1.800673   3.767184
                   11         12         13         14
    11  H    0.000000
    12  H    2.557463   0.000000
    13  H    2.563766   0.937105   0.000000
    14  H    3.314879   2.195833   2.458288   0.000000
 Stoichiometry    C4H10
 Framework group  C1[X(C4H10)]
 Deg. of freedom    36
 Full point group                 C1      NOp   1
 Largest Abelian subgroup         C1      NOp   1
 Largest concise Abelian subgroup C1      NOp   1
                         Standard orientation:                         
 ---------------------------------------------------------------------
 Center     Atomic      Atomic             Coordinates (Angstroms)
 Number     Number       Type             X           Y           Z
 ---------------------------------------------------------------------
      1          6           0       -1.973725   -0.094123    0.061605
      2          6           0       -0.618369    0.553886   -0.044248
      3          1           0       -2.636198    0.417573   -0.172206
      4          1           0       -2.281190   -1.079602    1.143262
      5          1           0       -2.185222   -0.373093   -0.663165
      6          6           0        0.558376   -0.514543   -0.140111
      7          1           0       -0.475712    1.094625    0.902335
      8          1           0       -0.308637    1.452147   -1.115897
      9          6           0        1.984979    0.091188    0.017611
     10          1           0        0.399407   -0.986603   -0.893437
     11          1           0        0.499204   -1.380364    0.875232
     12          1           0        2.106291    0.057669   -0.499522
     13          1           0        2.676340   -0.647562   -0.263177
     14          1           0        2.498151    1.226758    1.317441
 ---------------------------------------------------------------------
 Rotational constants (GHZ):     20.6105107      3.4624097      3.2630889
 Leave Link  202 at Wed Aug 26 11:12:11 2020, MaxMem=  2097152000 cpu:         0.0
 (Enter /opt/cluster/programs/g09/g09_d.01/g09/l301.exe)
 Standard basis: def2QZVP (5D, 7F)
 Ernie: Thresh=  0.10000D-02 Tol=  0.10000D-05 Strict=F.
 There are   638 symmetry adapted cartesian basis functions of A   symmetry.
 There are   528 symmetry adapted basis functions of A   symmetry.
   528 basis functions,   748 primitive gaussians,   638 cartesian basis functions
    17 alpha electrons       17 beta electrons
       nuclear repulsion energy       131.2725614758 Hartrees.
 IExCor=  419 DFT=T Ex+Corr=B2PLYPD3 ExCW=0 ScaHFX=  0.530000
 ScaDFX=  0.470000  0.470000  0.730000  0.730000 ScalE2=  0.270000  0.270000
 IRadAn=      0 IRanWt=     -1 IRanGd=            0 ICorTp=0 IEmpDi=141
 NAtoms=   14 NActive=   14 NUniq=   14 SFac= 1.00D+00 NAtFMM=   60 NAOKFM=F Big=F
 Integral buffers will be    131072 words long.
 Regular integral format.
 Two-electron integral symmetry is turned on.
 R6Disp:  Grimme-D3(BJ) Dispersion energy=       -0.0074393086 Hartrees.
 Nuclear repulsion after empirical dispersion term =      131.2651221672 Hartrees.
 Leave Link  301 at Wed Aug 26 11:12:11 2020, MaxMem=  2097152000 cpu:         0.5
 (Enter /opt/cluster/programs/g09/g09_d.01/g09/l302.exe)
 NPDir=0 NMtPBC=     1 NCelOv=     1 NCel=       1 NClECP=     1 NCelD=      1
         NCelK=      1 NCelE2=     1 NClLst=     1 CellRange=     0.0.
 One-electron integrals computed using PRISM.
   1 Symmetry operations used in ECPInt.
 ECPInt:  NShTT=   14196 NPrTT=   30597 LenC2=   13833 LenP2D=   25714.
 LDataN:  DoStor=T MaxTD1= 8 Len=  415
 NBasis=   528 RedAO= T EigKep=  1.57D-05  NBF=   528
 NBsUse=   528 1.00D-06 EigRej= -1.00D+00 NBFU=   528
 Precomputing XC quadrature grid using
 IXCGrd= 4 IRadAn=           0 IRanWt=          -1 IRanGd=           0 AccXCQ= 0.00D+00.
 Generated NRdTot=       0 NPtTot=           0 NUsed=           0 NTot=          32
 NSgBfM=   638   638   638   638   638 MxSgAt=    14 MxSgA2=    14.
 Leave Link  302 at Wed Aug 26 11:12:11 2020, MaxMem=  2097152000 cpu:         5.4
 (Enter /opt/cluster/programs/g09/g09_d.01/g09/l303.exe)
 DipDrv:  MaxL=1.
 Leave Link  303 at Wed Aug 26 11:12:11 2020, MaxMem=  2097152000 cpu:         0.6
 (Enter /opt/cluster/programs/g09/g09_d.01/g09/l401.exe)
 ExpMin= 7.60D-02 ExpMax= 6.70D+04 ExpMxC= 6.47D+02 IAcc=2 IRadAn=         4 AccDes= 0.00D+00
 Harris functional with IExCor=  419 and IRadAn=       4 diagonalized for initial guess.
 HarFok:  IExCor=  419 AccDes= 0.00D+00 IRadAn=         4 IDoV= 1 UseB2=F ITyADJ=14
 ICtDFT=  3500011 ScaDFX=  1.000000  1.000000  1.000000  1.000000
 FoFCou: FMM=F IPFlag=           0 FMFlag=      100000 FMFlg1=           0
         NFxFlg=           0 DoJE=T BraDBF=F KetDBF=T FulRan=T
         wScrn=  0.000000 ICntrl=     500 IOpCl=  0 I1Cent=   200000004 NGrid=           0
         NMat0=    1 NMatS0=      1 NMatT0=    0 NMatD0=    1 NMtDS0=    0 NMtDT0=    0
 Petite list used in FoFCou.
 Harris En= -157.633164662659    
 JPrj=0 DoOrth=F DoCkMO=F.
 Leave Link  401 at Wed Aug 26 11:12:14 2020, MaxMem=  2097152000 cpu:        16.0
 (Enter /opt/cluster/programs/g09/g09_d.01/g09/l502.exe)
 Closed shell SCF:
 Using DIIS extrapolation, IDIIS=  1040.
 Integral symmetry usage will be decided dynamically.
 IVT=     1249338 IEndB=     1249338 NGot=  2097152000 MDV=  2096326985
 LenX=  2096326985 LenY=  2095919303
 Requested convergence on RMS density matrix=1.00D-08 within 128 cycles.
 Requested convergence on MAX density matrix=1.00D-06.
 Requested convergence on             energy=1.00D-06.
 No special actions if energy rises.
 Fock matrices will be formed incrementally for  20 cycles.
 Integral accuracy reduced to 1.0D-05 until final iterations.

 Cycle   1  Pass 0  IDiag  1:
 FoFJK:  IHMeth= 1 ICntrl=       0 DoSepK=F KAlg= 0 I1Cent=   0 FoldK=F
 IRaf= 930000000 NMat=   1 IRICut=       1 DoRegI=T DoRafI=F ISym2E= 0.
 FoFCou: FMM=F IPFlag=           0 FMFlag=      100000 FMFlg1=           0
         NFxFlg=           0 DoJE=F BraDBF=F KetDBF=F FulRan=T
         wScrn=  0.000000 ICntrl=       0 IOpCl=  0 I1Cent=           0 NGrid=           0
         NMat0=    1 NMatS0=      1 NMatT0=    0 NMatD0=    1 NMtDS0=    0 NMtDT0=    0
 Symmetry not used in FoFCou.
 E= -156.136463946537    
 DIIS: error= 5.04D-02 at cycle   1 NSaved=   1.
 NSaved= 1 IEnMin= 1 EnMin= -156.136463946537     IErMin= 1 ErrMin= 5.04D-02
 ErrMax= 5.04D-02  0.00D+00 EMaxC= 1.00D-01 BMatC= 8.03D-01 BMatP= 8.03D-01
 IDIUse=3 WtCom= 4.96D-01 WtEn= 5.04D-01
 Coeff-Com:  0.100D+01
 Coeff-En:   0.100D+01
 Coeff:      0.100D+01
 Gap=     0.210 Goal=   None    Shift=    0.000
 GapD=    0.210 DampG=1.000 DampE=0.500 DampFc=0.5000 IDamp=-1.
 Damping current iteration by 5.00D-01
 RMSDP=3.75D-03 MaxDP=2.94D-01              OVMax= 4.76D-01

 Cycle   2  Pass 0  IDiag  1:
 RMSU=  1.86D-03    CP:  9.31D-01
 E= -156.472774120538     Delta-E=       -0.336310174001 Rises=F Damp=T
 DIIS: error= 6.37D-03 at cycle   2 NSaved=   2.
 NSaved= 2 IEnMin= 2 EnMin= -156.472774120538     IErMin= 2 ErrMin= 6.37D-03
 ErrMax= 6.37D-03  0.00D+00 EMaxC= 1.00D-01 BMatC= 4.76D-02 BMatP= 8.03D-01
 IDIUse=3 WtCom= 9.36D-01 WtEn= 6.37D-02
 Coeff-Com: -0.585D-01 0.106D+01
 Coeff-En:   0.422D-01 0.958D+00
 Coeff:     -0.521D-01 0.105D+01
 Gap=     0.378 Goal=   None    Shift=    0.000
 RMSDP=1.66D-03 MaxDP=1.51D-01 DE=-3.36D-01 OVMax= 3.16D-01

 Cycle   3  Pass 0  IDiag  1:
 RMSU=  6.91D-04    CP:  8.94D-01  1.90D-01
 E= -156.835899589153     Delta-E=       -0.363125468615 Rises=F Damp=F
 DIIS: error= 6.77D-03 at cycle   3 NSaved=   3.
 NSaved= 3 IEnMin= 3 EnMin= -156.835899589153     IErMin= 2 ErrMin= 6.37D-03
 ErrMax= 6.77D-03  0.00D+00 EMaxC= 1.00D-01 BMatC= 1.23D-02 BMatP= 4.76D-02
 IDIUse=3 WtCom= 9.32D-01 WtEn= 6.77D-02
 Coeff-Com: -0.901D-01 0.281D+00 0.809D+00
 Coeff-En:   0.000D+00 0.000D+00 0.100D+01
 Coeff:     -0.840D-01 0.262D+00 0.822D+00
 Gap=     0.309 Goal=   None    Shift=    0.000
 RMSDP=1.79D-04 MaxDP=1.45D-02 DE=-3.63D-01 OVMax= 5.49D-02

 Cycle   4  Pass 0  IDiag  1:
 RMSU=  1.64D-04    CP:  8.83D-01  1.81D-01  1.09D+00
 E= -156.849589487380     Delta-E=       -0.013689898227 Rises=F Damp=F
 DIIS: error= 2.22D-03 at cycle   4 NSaved=   4.
 NSaved= 4 IEnMin= 4 EnMin= -156.849589487380     IErMin= 4 ErrMin= 2.22D-03
 ErrMax= 2.22D-03  0.00D+00 EMaxC= 1.00D-01 BMatC= 1.94D-03 BMatP= 1.23D-02
 IDIUse=3 WtCom= 9.78D-01 WtEn= 2.22D-02
 Coeff-Com: -0.291D-01 0.372D-01 0.351D+00 0.641D+00
 Coeff-En:   0.000D+00 0.000D+00 0.000D+00 0.100D+01
 Coeff:     -0.285D-01 0.363D-01 0.343D+00 0.649D+00
 Gap=     0.317 Goal=   None    Shift=    0.000
 RMSDP=7.28D-05 MaxDP=3.67D-03 DE=-1.37D-02 OVMax= 1.19D-02

 Cycle   5  Pass 0  IDiag  1:
 RMSU=  6.15D-05    CP:  8.83D-01  1.62D-01  1.10D+00  9.51D-01
 E= -156.851523670359     Delta-E=       -0.001934182979 Rises=F Damp=F
 DIIS: error= 3.78D-04 at cycle   5 NSaved=   5.
 NSaved= 5 IEnMin= 5 EnMin= -156.851523670359     IErMin= 5 ErrMin= 3.78D-04
 ErrMax= 3.78D-04  0.00D+00 EMaxC= 1.00D-01 BMatC= 6.59D-05 BMatP= 1.94D-03
 IDIUse=3 WtCom= 9.96D-01 WtEn= 3.78D-03
 Coeff-Com:  0.316D-02-0.192D-01 0.138D-01 0.141D+00 0.861D+00
 Coeff-En:   0.000D+00 0.000D+00 0.000D+00 0.000D+00 0.100D+01
 Coeff:      0.314D-02-0.192D-01 0.138D-01 0.141D+00 0.862D+00
 Gap=     0.320 Goal=   None    Shift=    0.000
 RMSDP=2.95D-05 MaxDP=1.78D-03 DE=-1.93D-03 OVMax= 2.60D-03

 Cycle   6  Pass 0  IDiag  1:
 RMSU=  1.56D-05    CP:  8.83D-01  1.54D-01  1.11D+00  1.03D+00  1.24D+00
 E= -156.851597767427     Delta-E=       -0.000074097068 Rises=F Damp=F
 DIIS: error= 9.51D-05 at cycle   6 NSaved=   6.
 NSaved= 6 IEnMin= 6 EnMin= -156.851597767427     IErMin= 6 ErrMin= 9.51D-05
 ErrMax= 9.51D-05  0.00D+00 EMaxC= 1.00D-01 BMatC= 5.50D-06 BMatP= 6.59D-05
 IDIUse=1 WtCom= 1.00D+00 WtEn= 0.00D+00
 Coeff-Com:  0.256D-02-0.655D-02-0.123D-01-0.652D-02 0.200D+00 0.823D+00
 Coeff:      0.256D-02-0.655D-02-0.123D-01-0.652D-02 0.200D+00 0.823D+00
 Gap=     0.320 Goal=   None    Shift=    0.000
 RMSDP=7.23D-06 MaxDP=4.14D-04 DE=-7.41D-05 OVMax= 8.99D-04

 Initial convergence to 1.0D-05 achieved.  Increase integral accuracy.
 Cycle   7  Pass 1  IDiag  1:
 E= -156.851612483302     Delta-E=       -0.000014715875 Rises=F Damp=F
 DIIS: error= 9.36D-05 at cycle   1 NSaved=   1.
 NSaved= 1 IEnMin= 1 EnMin= -156.851612483302     IErMin= 1 ErrMin= 9.36D-05
 ErrMax= 9.36D-05  0.00D+00 EMaxC= 1.00D-01 BMatC= 2.17D-06 BMatP= 2.17D-06
 IDIUse=1 WtCom= 1.00D+00 WtEn= 0.00D+00
 Coeff-Com:  0.100D+01
 Coeff:      0.100D+01
 Gap=     0.320 Goal=   None    Shift=    0.000
 RMSDP=7.23D-06 MaxDP=4.14D-04 DE=-1.47D-05 OVMax= 4.55D-04

 Cycle   8  Pass 1  IDiag  1:
 RMSU=  4.50D-05    CP:  1.00D+00
 E= -156.851612980819     Delta-E=       -0.000000497516 Rises=F Damp=F
 DIIS: error= 5.14D-05 at cycle   2 NSaved=   2.
 NSaved= 2 IEnMin= 2 EnMin= -156.851612980819     IErMin= 2 ErrMin= 5.14D-05
 ErrMax= 5.14D-05  0.00D+00 EMaxC= 1.00D-01 BMatC= 1.14D-06 BMatP= 2.17D-06
 IDIUse=1 WtCom= 1.00D+00 WtEn= 0.00D+00
 Coeff-Com:  0.406D+00 0.594D+00
 Coeff:      0.406D+00 0.594D+00
 Gap=     0.320 Goal=   None    Shift=    0.000
 RMSDP=1.49D-06 MaxDP=1.36D-04 DE=-4.98D-07 OVMax= 2.66D-04

 Cycle   9  Pass 1  IDiag  1:
 RMSU=  1.27D-06    CP:  1.00D+00  1.02D+00
 E= -156.851614072968     Delta-E=       -0.000001092149 Rises=F Damp=F
 DIIS: error= 1.02D-05 at cycle   3 NSaved=   3.
 NSaved= 3 IEnMin= 3 EnMin= -156.851614072968     IErMin= 3 ErrMin= 1.02D-05
 ErrMax= 1.02D-05  0.00D+00 EMaxC= 1.00D-01 BMatC= 4.95D-08 BMatP= 1.14D-06
 IDIUse=1 WtCom= 1.00D+00 WtEn= 0.00D+00
 Coeff-Com: -0.916D-02 0.162D+00 0.847D+00
 Coeff:     -0.916D-02 0.162D+00 0.847D+00
 Gap=     0.320 Goal=   None    Shift=    0.000
 RMSDP=6.73D-07 MaxDP=3.83D-05 DE=-1.09D-06 OVMax= 5.77D-05

 Cycle  10  Pass 1  IDiag  1:
 RMSU=  3.34D-07    CP:  1.00D+00  1.03D+00  9.51D-01
 E= -156.851614125624     Delta-E=       -0.000000052656 Rises=F Damp=F
 DIIS: error= 1.94D-06 at cycle   4 NSaved=   4.
 NSaved= 4 IEnMin= 4 EnMin= -156.851614125624     IErMin= 4 ErrMin= 1.94D-06
 ErrMax= 1.94D-06  0.00D+00 EMaxC= 1.00D-01 BMatC= 1.62D-09 BMatP= 4.95D-08
 IDIUse=1 WtCom= 1.00D+00 WtEn= 0.00D+00
 Coeff-Com: -0.843D-02 0.536D-01 0.316D+00 0.639D+00
 Coeff:     -0.843D-02 0.536D-01 0.316D+00 0.639D+00
 Gap=     0.320 Goal=   None    Shift=    0.000
 RMSDP=6.94D-08 MaxDP=3.97D-06 DE=-5.27D-08 OVMax= 1.43D-05

 Cycle  11  Pass 1  IDiag  1:
 RMSU=  5.91D-08    CP:  1.00D+00  1.03D+00  9.67D-01  1.07D+00
 E= -156.851614127523     Delta-E=       -0.000000001899 Rises=F Damp=F
 DIIS: error= 6.68D-07 at cycle   5 NSaved=   5.
 NSaved= 5 IEnMin= 5 EnMin= -156.851614127523     IErMin= 5 ErrMin= 6.68D-07
 ErrMax= 6.68D-07  0.00D+00 EMaxC= 1.00D-01 BMatC= 1.52D-10 BMatP= 1.62D-09
 IDIUse=1 WtCom= 1.00D+00 WtEn= 0.00D+00
 Coeff-Com:  0.801D-03-0.264D-01-0.136D+00 0.975D-01 0.106D+01
 Coeff:      0.801D-03-0.264D-01-0.136D+00 0.975D-01 0.106D+01
 Gap=     0.320 Goal=   None    Shift=    0.000
 RMSDP=5.70D-08 MaxDP=3.86D-06 DE=-1.90D-09 OVMax= 1.67D-05

 Cycle  12  Pass 1  IDiag  1:
 RMSU=  3.65D-08    CP:  1.00D+00  1.03D+00  9.78D-01  1.18D+00  1.31D+00
 E= -156.851614127925     Delta-E=       -0.000000000402 Rises=F Damp=F
 DIIS: error= 2.18D-07 at cycle   6 NSaved=   6.
 NSaved= 6 IEnMin= 6 EnMin= -156.851614127925     IErMin= 6 ErrMin= 2.18D-07
 ErrMax= 2.18D-07  0.00D+00 EMaxC= 1.00D-01 BMatC= 2.02D-11 BMatP= 1.52D-10
 IDIUse=1 WtCom= 1.00D+00 WtEn= 0.00D+00
 Coeff-Com:  0.766D-03-0.138D-01-0.731D-01-0.215D-02 0.426D+00 0.662D+00
 Coeff:      0.766D-03-0.138D-01-0.731D-01-0.215D-02 0.426D+00 0.662D+00
 Gap=     0.320 Goal=   None    Shift=    0.000
 RMSDP=1.00D-08 MaxDP=6.87D-07 DE=-4.02D-10 OVMax= 2.53D-06

 Cycle  13  Pass 1  IDiag  1:
 RMSU=  7.05D-09    CP:  1.00D+00  1.03D+00  9.78D-01  1.19D+00  1.40D+00
                    CP:  1.10D+00
 E= -156.851614127959     Delta-E=       -0.000000000034 Rises=F Damp=F
 DIIS: error= 6.94D-08 at cycle   7 NSaved=   7.
 NSaved= 7 IEnMin= 7 EnMin= -156.851614127959     IErMin= 7 ErrMin= 6.94D-08
 ErrMax= 6.94D-08  0.00D+00 EMaxC= 1.00D-01 BMatC= 1.52D-12 BMatP= 2.02D-11
 IDIUse=1 WtCom= 1.00D+00 WtEn= 0.00D+00
 Coeff-Com:  0.162D-04 0.159D-02 0.746D-02-0.148D-01-0.812D-01 0.127D+00
 Coeff-Com:  0.960D+00
 Coeff:      0.162D-04 0.159D-02 0.746D-02-0.148D-01-0.812D-01 0.127D+00
 Coeff:      0.960D+00
 Gap=     0.320 Goal=   None    Shift=    0.000
 RMSDP=4.90D-09 MaxDP=3.25D-07 DE=-3.42D-11 OVMax= 1.62D-06

 SCF Done:  E(RB2PLYPD3) =  -156.851614128     A.U. after   13 cycles
            NFock= 13  Conv=0.49D-08     -V/T= 1.9846
 KE= 1.593019709936D+02 PE=-6.272575322029D+02 EE= 1.798388249142D+02
 Leave Link  502 at Wed Aug 26 11:18:59 2020, MaxMem=  2097152000 cpu:      3239.2
 (Enter /opt/cluster/programs/g09/g09_d.01/g09/l801.exe)
 DoSCS=T DFT=T ScalE2(SS,OS)=  0.270000  0.270000
 ExpMin= 7.60D-02 ExpMax= 6.70D+04 ExpMxC= 6.47D+02 IAcc=3 IRadAn=         5 AccDes= 0.00D+00
 HarFok:  IExCor=  205 AccDes= 0.00D+00 IRadAn=         5 IDoV=-2 UseB2=F ITyADJ=14
 ICtDFT= 12500011 ScaDFX=  1.000000  1.000000  1.000000  1.000000
 Largest valence mixing into a core orbital is  1.21D-04
 Largest core mixing into a valence orbital is  1.33D-05
 Range of M.O.s used for correlation:     5   528
 NBasis=   528 NAE=    17 NBE=    17 NFC=     4 NFV=     0
 NROrb=    524 NOA=    13 NOB=    13 NVA=   511 NVB=   511

 **** Warning!!: The largest alpha MO coefficient is  0.43221996D+02

 Leave Link  801 at Wed Aug 26 11:19:00 2020, MaxMem=  2097152000 cpu:         1.1
 (Enter /opt/cluster/programs/g09/g09_d.01/g09/l906.exe)
 DoSCS=T DFT=T ScalE2(SS,OS)=  0.270000  0.270000
 FulOut=F Deriv=F AODrv=F NAtomX=    14
   MMem=         463  MDisk=          13 MDiskD=          13
  W3Min=     4238234 MinDsk=     6904766 NBas6D=         638
 NBas2D=      205689    NTT=      203841    LW2=     4508827
    MDV=  2095910236 MDiskM=        7293 NBas2p=      187850
 Fully direct method using O(OVN) memory.
 IMap=   1   2   3   4   5   6   7   8   9  10  11  12  13
 JobTyp=1 Pass  1:  I=   1 to  13 NPSUse=  8 ParTrn=T ParDer=T DoDerP=F.
 Spin components of T(2) and E(2):
     alpha-alpha T2 =       0.4371261793D-01 E2=     -0.2731819590D-01
     alpha-beta  T2 =       0.3196269945D+00 E2=     -0.2042686530D+00
     beta-beta   T2 =       0.4371261793D-01 E2=     -0.2731819590D-01
 The integrals were generated   1 times.
 E2(B2PLYPD3) =    -0.2589050448D+00 E(B2PLYPD3) =    -0.15711051917273D+03
 Leave Link  906 at Wed Aug 26 11:22:44 2020, MaxMem=  2097152000 cpu:      1789.7
 (Enter /opt/cluster/programs/g09/g09_d.01/g09/l601.exe)
 Copying SCF densities to generalized density rwf, IOpCl= 0 IROHF=0.

 **********************************************************************

            Population analysis using the SCF density.

 **********************************************************************

 Orbital symmetries:
       Occupied  (A) (A) (A) (A) (A) (A) (A) (A) (A) (A) (A) (A)
                 (A) (A) (A) (A) (A)
       Virtual   (A) (A) (A) (A) (A) (A) (A) (A) (A) (A) (A) (A)
                 (A) (A) (A) (A) (A) (A) (A) (A) (A) (A) (A) (A)
                 (A) (A) (A) (A) (A) (A) (A) (A) (A) (A) (A) (A)
                 (A) (A) (A) (A) (A) (A) (A) (A) (A) (A) (A) (A)
                 (A) (A) (A) (A) (A) (A) (A) (A) (A) (A) (A) (A)
                 (A) (A) (A) (A) (A) (A) (A) (A) (A) (A) (A) (A)
                 (A) (A) (A) (A) (A) (A) (A) (A) (A) (A) (A) (A)
                 (A) (A) (A) (A) (A) (A) (A) (A) (A) (A) (A) (A)
                 (A) (A) (A) (A) (A) (A) (A) (A) (A) (A) (A) (A)
                 (A) (A) (A) (A) (A) (A) (A) (A) (A) (A) (A) (A)
                 (A) (A) (A) (A) (A) (A) (A) (A) (A) (A) (A) (A)
                 (A) (A) (A) (A) (A) (A) (A) (A) (A) (A) (A) (A)
                 (A) (A) (A) (A) (A) (A) (A) (A) (A) (A) (A) (A)
                 (A) (A) (A) (A) (A) (A) (A) (A) (A) (A) (A) (A)
                 (A) (A) (A) (A) (A) (A) (A) (A) (A) (A) (A) (A)
                 (A) (A) (A) (A) (A) (A) (A) (A) (A) (A) (A) (A)
                 (A) (A) (A) (A) (A) (A) (A) (A) (A) (A) (A) (A)
                 (A) (A) (A) (A) (A) (A) (A) (A) (A) (A) (A) (A)
                 (A) (A) (A) (A) (A) (A) (A) (A) (A) (A) (A) (A)
                 (A) (A) (A) (A) (A) (A) (A) (A) (A) (A) (A) (A)
                 (A) (A) (A) (A) (A) (A) (A) (A) (A) (A) (A) (A)
                 (A) (A) (A) (A) (A) (A) (A) (A) (A) (A) (A) (A)
                 (A) (A) (A) (A) (A) (A) (A) (A) (A) (A) (A) (A)
                 (A) (A) (A) (A) (A) (A) (A) (A) (A) (A) (A) (A)
                 (A) (A) (A) (A) (A) (A) (A) (A) (A) (A) (A) (A)
                 (A) (A) (A) (A) (A) (A) (A) (A) (A) (A) (A) (A)
                 (A) (A) (A) (A) (A) (A) (A) (A) (A) (A) (A) (A)
                 (A) (A) (A) (A) (A) (A) (A) (A) (A) (A) (A) (A)
                 (A) (A) (A) (A) (A) (A) (A) (A) (A) (A) (A) (A)
                 (A) (A) (A) (A) (A) (A) (A) (A) (A) (A) (A) (A)
                 (A) (A) (A) (A) (A) (A) (A) (A) (A) (A) (A) (A)
                 (A) (A) (A) (A) (A) (A) (A) (A) (A) (A) (A) (A)
                 (A) (A) (A) (A) (A) (A) (A) (A) (A) (A) (A) (A)
                 (A) (A) (A) (A) (A) (A) (A) (A) (A) (A) (A) (A)
                 (A) (A) (A) (A) (A) (A) (A) (A) (A) (A) (A) (A)
                 (A) (A) (A) (A) (A) (A) (A) (A) (A) (A) (A) (A)
                 (A) (A) (A) (A) (A) (A) (A) (A) (A) (A) (A) (A)
                 (A) (A) (A) (A) (A) (A) (A) (A) (A) (A) (A) (A)
                 (A) (A) (A) (A) (A) (A) (A) (A) (A) (A) (A) (A)
                 (A) (A) (A) (A) (A) (A) (A) (A) (A) (A) (A) (A)
                 (A) (A) (A) (A) (A) (A) (A) (A) (A) (A) (A) (A)
                 (A) (A) (A) (A) (A) (A) (A) (A) (A) (A) (A) (A)
                 (A) (A) (A) (A) (A) (A) (A)
 The electronic state is 1-A.
 Alpha  occ. eigenvalues --  -10.64596 -10.63531 -10.62208 -10.58071  -0.98198
 Alpha  occ. eigenvalues --   -0.92825  -0.81448  -0.68907  -0.53858  -0.49936
 Alpha  occ. eigenvalues --   -0.47953  -0.43694  -0.41361  -0.38912  -0.37666
 Alpha  occ. eigenvalues --   -0.36585  -0.32777
 Alpha virt. eigenvalues --   -0.00785   0.03877   0.05606   0.06570   0.09269
 Alpha virt. eigenvalues --    0.09969   0.11526   0.12798   0.13960   0.15442
 Alpha virt. eigenvalues --    0.16780   0.16837   0.18420   0.19231   0.20683
 Alpha virt. eigenvalues --    0.22014   0.23705   0.23901   0.25383   0.26143
 Alpha virt. eigenvalues --    0.27126   0.28345   0.30598   0.31600   0.32132
 Alpha virt. eigenvalues --    0.33462   0.36266   0.37321   0.39194   0.41200
 Alpha virt. eigenvalues --    0.42169   0.42816   0.43454   0.44925   0.46339
 Alpha virt. eigenvalues --    0.48010   0.50647   0.53634   0.56655   0.57092
 Alpha virt. eigenvalues --    0.59216   0.61325   0.62235   0.63692   0.65073
 Alpha virt. eigenvalues --    0.66356   0.66966   0.68006   0.69617   0.70904
 Alpha virt. eigenvalues --    0.72369   0.73832   0.75255   0.75509   0.75919
 Alpha virt. eigenvalues --    0.78291   0.81066   0.81453   0.82727   0.84755
 Alpha virt. eigenvalues --    0.86037   0.88065   0.88958   0.90076   0.90322
 Alpha virt. eigenvalues --    0.92506   0.93711   0.94625   0.95245   0.96427
 Alpha virt. eigenvalues --    0.97262   0.98392   1.00844   1.02437   1.02867
 Alpha virt. eigenvalues --    1.03206   1.04025   1.06061   1.07173   1.09707
 Alpha virt. eigenvalues --    1.10090   1.13088   1.15611   1.15845   1.19103
 Alpha virt. eigenvalues --    1.19461   1.20945   1.22415   1.24932   1.26000
 Alpha virt. eigenvalues --    1.26380   1.29971   1.32702   1.33331   1.35700
 Alpha virt. eigenvalues --    1.37144   1.39654   1.40958   1.44577   1.45663
 Alpha virt. eigenvalues --    1.47670   1.49579   1.53720   1.55708   1.60180
 Alpha virt. eigenvalues --    1.61469   1.63595   1.66380   1.71844   1.73323
 Alpha virt. eigenvalues --    1.81146   1.82182   1.82986   1.85014   1.86126
 Alpha virt. eigenvalues --    1.89792   1.90412   1.93066   1.94628   1.96057
 Alpha virt. eigenvalues --    1.97067   1.98183   1.99861   2.01262   2.01796
 Alpha virt. eigenvalues --    2.03297   2.04534   2.05843   2.06180   2.08699
 Alpha virt. eigenvalues --    2.10327   2.10856   2.12206   2.13317   2.15257
 Alpha virt. eigenvalues --    2.15774   2.17035   2.17744   2.18399   2.20062
 Alpha virt. eigenvalues --    2.21457   2.22667   2.23314   2.26258   2.27264
 Alpha virt. eigenvalues --    2.29256   2.31544   2.32738   2.34233   2.34575
 Alpha virt. eigenvalues --    2.36179   2.37132   2.37582   2.39508   2.40629
 Alpha virt. eigenvalues --    2.43258   2.45017   2.47304   2.47364   2.49312
 Alpha virt. eigenvalues --    2.50607   2.51679   2.52231   2.52721   2.54795
 Alpha virt. eigenvalues --    2.58210   2.59532   2.61791   2.62445   2.63275
 Alpha virt. eigenvalues --    2.64912   2.65225   2.67477   2.69432   2.70858
 Alpha virt. eigenvalues --    2.73310   2.74644   2.75237   2.78297   2.78851
 Alpha virt. eigenvalues --    2.80255   2.81787   2.84685   2.85584   2.88841
 Alpha virt. eigenvalues --    2.89491   2.90842   2.92721   2.94453   2.95327
 Alpha virt. eigenvalues --    2.96367   2.99107   3.01306   3.04568   3.06305
 Alpha virt. eigenvalues --    3.08698   3.09615   3.11322   3.12389   3.15768
 Alpha virt. eigenvalues --    3.18560   3.19986   3.21170   3.24179   3.25169
 Alpha virt. eigenvalues --    3.26935   3.28177   3.29506   3.32587   3.34650
 Alpha virt. eigenvalues --    3.36090   3.37931   3.42848   3.43352   3.44852
 Alpha virt. eigenvalues --    3.50448   3.51129   3.52780   3.54704   3.57670
 Alpha virt. eigenvalues --    3.59096   3.62579   3.64933   3.65938   3.71789
 Alpha virt. eigenvalues --    3.72722   3.75436   3.77177   3.81337   3.84359
 Alpha virt. eigenvalues --    3.89528   3.94296   3.94722   3.97456   4.00691
 Alpha virt. eigenvalues --    4.04178   4.07344   4.07953   4.11588   4.13175
 Alpha virt. eigenvalues --    4.18534   4.21954   4.24935   4.29790   4.30901
 Alpha virt. eigenvalues --    4.42355   4.46126   4.55892   4.64311   4.73524
 Alpha virt. eigenvalues --    4.76952   4.84549   4.86825   4.89956   5.05145
 Alpha virt. eigenvalues --    5.09063   5.13307   5.19622   5.20485   5.27268
 Alpha virt. eigenvalues --    5.29871   5.33991   5.35630   5.37783   5.41749
 Alpha virt. eigenvalues --    5.50247   5.50830   5.52053   5.54266   5.57702
 Alpha virt. eigenvalues --    5.60928   5.61938   5.64884   5.68397   5.69692
 Alpha virt. eigenvalues --    5.72428   5.73809   5.74831   5.76049   5.77604
 Alpha virt. eigenvalues --    5.80600   5.82270   5.85982   5.87026   5.88912
 Alpha virt. eigenvalues --    5.89278   5.89900   5.91230   5.91613   5.92939
 Alpha virt. eigenvalues --    5.94693   5.95545   5.96700   5.98525   5.99554
 Alpha virt. eigenvalues --    6.00755   6.01829   6.02848   6.05615   6.07178
 Alpha virt. eigenvalues --    6.08980   6.09768   6.11053   6.13117   6.14511
 Alpha virt. eigenvalues --    6.18061   6.19356   6.21313   6.24031   6.26050
 Alpha virt. eigenvalues --    6.26460   6.30396   6.31026   6.34110   6.34902
 Alpha virt. eigenvalues --    6.36680   6.37848   6.41170   6.43948   6.45807
 Alpha virt. eigenvalues --    6.50859   6.54410   6.56404   6.57447   6.59784
 Alpha virt. eigenvalues --    6.60114   6.62491   6.64466   6.65517   6.67671
 Alpha virt. eigenvalues --    6.68309   6.70461   6.70667   6.73465   6.76532
 Alpha virt. eigenvalues --    6.78717   6.81304   6.82661   6.84897   6.87129
 Alpha virt. eigenvalues --    6.89475   6.92329   6.95438   6.97931   6.98956
 Alpha virt. eigenvalues --    7.02034   7.04731   7.05628   7.07556   7.09584
 Alpha virt. eigenvalues --    7.10387   7.14471   7.15659   7.16394   7.18089
 Alpha virt. eigenvalues --    7.22787   7.23043   7.24310   7.26797   7.29612
 Alpha virt. eigenvalues --    7.34501   7.37123   7.39677   7.41002   7.43351
 Alpha virt. eigenvalues --    7.47947   7.49268   7.49491   7.55692   7.56538
 Alpha virt. eigenvalues --    7.58540   7.61770   7.62378   7.65413   7.66684
 Alpha virt. eigenvalues --    7.70388   7.72377   7.74453   7.76101   7.77612
 Alpha virt. eigenvalues --    7.79064   7.82157   7.83047   7.87726   7.88847
 Alpha virt. eigenvalues --    7.91203   7.93410   7.96255   7.97773   7.98030
 Alpha virt. eigenvalues --    7.99279   8.00432   8.02605   8.03551   8.05141
 Alpha virt. eigenvalues --    8.07125   8.08669   8.10708   8.11140   8.14010
 Alpha virt. eigenvalues --    8.17107   8.19116   8.19181   8.21065   8.23209
 Alpha virt. eigenvalues --    8.25859   8.26371   8.28579   8.30529   8.31804
 Alpha virt. eigenvalues --    8.35271   8.38345   8.38821   8.39739   8.42677
 Alpha virt. eigenvalues --    8.44312   8.44469   8.48814   8.51902   8.52526
 Alpha virt. eigenvalues --    8.54740   8.56885   8.58556   8.61556   8.62425
 Alpha virt. eigenvalues --    8.64099   8.66722   8.67051   8.68993   8.71772
 Alpha virt. eigenvalues --    8.73307   8.73942   8.77949   8.81704   8.81976
 Alpha virt. eigenvalues --    8.84225   8.88035   8.92449   8.94247   8.99261
 Alpha virt. eigenvalues --    9.02862   9.04172   9.06769   9.10474   9.12374
 Alpha virt. eigenvalues --    9.14502   9.16821   9.21557   9.23594   9.24505
 Alpha virt. eigenvalues --    9.29291   9.32028   9.36319   9.39256   9.40094
 Alpha virt. eigenvalues --    9.41025   9.48418   9.51757   9.54505   9.56513
 Alpha virt. eigenvalues --    9.62130   9.68000   9.71156   9.75861   9.82119
 Alpha virt. eigenvalues --    9.82446   9.92537   9.97971  10.01977  10.16736
 Alpha virt. eigenvalues --   10.22170  10.23910  10.26829  10.32758  10.36393
 Alpha virt. eigenvalues --   10.44031  10.61054  10.62591  10.73357  10.77414
 Alpha virt. eigenvalues --   10.91606  11.04359  11.25046  11.39177  11.44053
 Alpha virt. eigenvalues --   11.45705  11.47206  11.51223  11.58988  11.65311
 Alpha virt. eigenvalues --   11.71132  11.80269  11.87140  12.02307  12.13992
 Alpha virt. eigenvalues --   12.40614  12.73196  12.76745  13.14110  13.45805
 Alpha virt. eigenvalues --   13.86175  15.40166  18.55476  28.97955  29.32035
 Alpha virt. eigenvalues --   29.82036  29.90230 148.59657 149.04009 149.57011
 Alpha virt. eigenvalues --  149.68135
          Condensed to atoms (all electrons):
               1          2          3          4          5          6
     1  C    4.960511   0.324437   0.445266   0.339547   0.440532  -0.058252
     2  C    0.324437   4.819801  -0.026013  -0.024754  -0.033198   0.370824
     3  H    0.445266  -0.026013   0.541987  -0.003159  -0.065390   0.009803
     4  H    0.339547  -0.024754  -0.003159   0.636960   0.001232  -0.001504
     5  H    0.440532  -0.033198  -0.065390   0.001232   0.453158  -0.017088
     6  C   -0.058252   0.370824   0.009803  -0.001504  -0.017088   4.755498
     7  H   -0.043975   0.384557  -0.012825  -0.000445   0.013702  -0.055159
     8  H   -0.036008   0.364534  -0.000809   0.003980  -0.002948  -0.043703
     9  C    0.006651  -0.066950  -0.000472   0.000163   0.000546   0.367951
    10  H    0.004476  -0.041088  -0.001031   0.000559   0.004577   0.402673
    11  H   -0.010804  -0.034210   0.000178   0.003220  -0.000454   0.386929
    12  H    0.000567  -0.007593   0.000068  -0.000013   0.000019  -0.016601
    13  H   -0.000691   0.010896   0.000035   0.000060  -0.000069  -0.024235
    14  H    0.000572  -0.003655   0.000043  -0.000013   0.000021  -0.011619
               7          8          9         10         11         12
     1  C   -0.043975  -0.036008   0.006651   0.004476  -0.010804   0.000567
     2  C    0.384557   0.364534  -0.066950  -0.041088  -0.034210  -0.007593
     3  H   -0.012825  -0.000809  -0.000472  -0.001031   0.000178   0.000068
     4  H   -0.000445   0.003980   0.000163   0.000559   0.003220  -0.000013
     5  H    0.013702  -0.002948   0.000546   0.004577  -0.000454   0.000019
     6  C   -0.055159  -0.043703   0.367951   0.402673   0.386929  -0.016601
     7  H    0.667881  -0.019688  -0.004756   0.009800  -0.001602   0.000599
     8  H   -0.019688   0.730472  -0.000716  -0.006532   0.008585   0.004328
     9  C   -0.004756  -0.000716   5.990067  -0.044704  -0.057379   0.040779
    10  H    0.009800  -0.006532  -0.044704   0.591866  -0.038159  -0.001919
    11  H   -0.001602   0.008585  -0.057379  -0.038159   0.747359   0.017996
    12  H    0.000599   0.004328   0.040779  -0.001919   0.017996   0.241862
    13  H   -0.000565  -0.000634   0.449744   0.002138  -0.019470  -0.130296
    14  H    0.003608   0.000437   0.264483   0.002609   0.002308   0.043102
              13         14
     1  C   -0.000691   0.000572
     2  C    0.010896  -0.003655
     3  H    0.000035   0.000043
     4  H    0.000060  -0.000013
     5  H   -0.000069   0.000021
     6  C   -0.024235  -0.011619
     7  H   -0.000565   0.003608
     8  H   -0.000634   0.000437
     9  C    0.449744   0.264483
    10  H    0.002138   0.002609
    11  H   -0.019470   0.002308
    12  H   -0.130296   0.043102
    13  H    0.713059  -0.016252
    14  H   -0.016252   0.646052
 Mulliken charges:
               1
     1  C   -0.372827
     2  C   -0.037587
     3  H    0.112318
     4  H    0.044168
     5  H    0.205360
     6  C   -0.065516
     7  H    0.058869
     8  H   -0.001298
     9  C   -0.945409
    10  H    0.114736
    11  H   -0.004497
    12  H    0.807100
    13  H    0.016280
    14  H    0.068304
 Sum of Mulliken charges =   0.00000
 Mulliken charges with hydrogens summed into heavy atoms:
               1
     1  C   -0.010982
     2  C    0.019984
     6  C    0.044723
     9  C   -0.053725
 Electronic spatial extent (au):  <R**2>=            447.0794
 Charge=              0.0000 electrons
 Dipole moment (field-independent basis, Debye):
    X=             -0.0907    Y=             -0.1475    Z=             -0.9423  Tot=              0.9580
 Quadrupole moment (field-independent basis, Debye-Ang):
   XX=            -27.6554   YY=            -30.2610   ZZ=            -27.5000
   XY=             -0.0037   XZ=              0.0849   YZ=              1.2433
 Traceless Quadrupole moment (field-independent basis, Debye-Ang):
   XX=              0.8167   YY=             -1.7889   ZZ=              0.9721
   XY=             -0.0037   XZ=              0.0849   YZ=              1.2433
 Octapole moment (field-independent basis, Debye-Ang**2):
  XXX=             -3.0330  YYY=             -1.2808  ZZZ=             -2.8292  XYY=              0.3112
  XXY=             -1.1675  XXZ=             -6.8481  XZZ=              1.2221  YZZ=              0.3521
  YYZ=              0.1891  XYZ=              4.8565
 Hexadecapole moment (field-independent basis, Debye-Ang**3):
 XXXX=           -464.6591 YYYY=           -113.7661 ZZZZ=            -70.3565 XXXY=             -4.5320
 XXXZ=              1.4123 YYYX=             -2.8119 YYYZ=              3.0695 ZZZX=             -0.3212
 ZZZY=              4.2027 XXYY=            -97.4925 XXZZ=            -82.8265 YYZZ=            -25.2694
 XXYZ=              6.8880 YYXZ=              0.2561 ZZXY=              4.2893
 N-N= 1.312651221672D+02 E-N=-6.272575180535D+02  KE= 1.593019709936D+02
 Leave Link  601 at Wed Aug 26 11:22:44 2020, MaxMem=  2097152000 cpu:         1.1
 (Enter /opt/cluster/programs/g09/g09_d.01/g09/l9999.exe)
 1\1\GINC-NODE24\SP\RB2PLYPD3-FC\def2QZVP\C4H10\BOITTIER\26-Aug-2020\0\
 \#p B2PLYPD3/Def2QZVP\\butane_opt\\0,1\C,0,-3.967727,0.251734,-0.04550
 3\C,0,-2.758359,-0.634003,0.099443\H,0,-4.710662,-0.10637,0.228684\H,0
 ,-4.103387,1.199261,-1.194187\H,0,-4.108216,0.616193,0.658258\C,0,-1.3
 98429,0.194202,0.110624\H,0,-2.739494,-1.25721,-0.80611\H,0,-2.6041,-1
 .497272,1.231789\C,0,-0.116228,-0.68227,-0.010784\H,0,-1.450118,0.7396
 94,0.828523\H,0,-1.311806,0.981839,-0.96464\H,0,0.019293,-0.636255,0.5
 0184\H,0,0.708223,-0.071198,0.211579\H,0,0.146449,-1.983429,-1.227505\
 \Version=ES64L-G09RevD.01\State=1-A\HF=-156.8516141\MP2=-157.1105192\R
 MSD=4.896e-09\PG=C01 [X(C4H10)]\\@


 LIVE PURE, SPEAK TRUE, RIGHT WRONG, FOLLOW THE KING...
 ELSE, WHEREFORE BORN......
           IDYLLS OF THE KING, TENNYSON
 Job cpu time:       0 days  1 hours 24 minutes 15.1 seconds.
 File lengths (MBytes):  RWF=    152 Int=      0 D2E=      0 Chk=     14 Scr=      1
 Normal termination of Gaussian 09 at Wed Aug 26 11:22:44 2020.
