 Entering Gaussian System, Link 0=/opt/cluster/programs/g09/g09_d.01/g09//g09
 Input=/home/boittier/MDCM/nms_sampling/butane_geom.xyz.dir/energies/butane_opt_794_energy.com
 Output=/scratch/boittier/butane_opt_794_energy/butane_opt_794_energy.out
 Initial command:
 /opt/cluster/programs/g09/g09_d.01/g09/l1.exe "/scratch/boittier/butane_opt_794_energy/Gau-136226.inp" -scrdir="/scratch/boittier/butane_opt_794_energy/"
 Entering Link 1 = /opt/cluster/programs/g09/g09_d.01/g09/l1.exe PID=    136227.
  
 Copyright (c) 1988,1990,1992,1993,1995,1998,2003,2009,2013,
            Gaussian, Inc.  All Rights Reserved.
  
 This is part of the Gaussian(R) 09 program.  It is based on
 the Gaussian(R) 03 system (copyright 2003, Gaussian, Inc.),
 the Gaussian(R) 98 system (copyright 1998, Gaussian, Inc.),
 the Gaussian(R) 94 system (copyright 1995, Gaussian, Inc.),
 the Gaussian 92(TM) system (copyright 1992, Gaussian, Inc.),
 the Gaussian 90(TM) system (copyright 1990, Gaussian, Inc.),
 the Gaussian 88(TM) system (copyright 1988, Gaussian, Inc.),
 the Gaussian 86(TM) system (copyright 1986, Carnegie Mellon
 University), and the Gaussian 82(TM) system (copyright 1983,
 Carnegie Mellon University). Gaussian is a federally registered
 trademark of Gaussian, Inc.
  
 This software contains proprietary and confidential information,
 including trade secrets, belonging to Gaussian, Inc.
  
 This software is provided under written license and may be
 used, copied, transmitted, or stored only in accord with that
 written license.
  
 The following legend is applicable only to US Government
 contracts under FAR:
  
                    RESTRICTED RIGHTS LEGEND
  
 Use, reproduction and disclosure by the US Government is
 subject to restrictions as set forth in subparagraphs (a)
 and (c) of the Commercial Computer Software - Restricted
 Rights clause in FAR 52.227-19.
  
 Gaussian, Inc.
 340 Quinnipiac St., Bldg. 40, Wallingford CT 06492
  
  
 ---------------------------------------------------------------
 Warning -- This program may not be used in any manner that
 competes with the business of Gaussian, Inc. or will provide
 assistance to any competitor of Gaussian, Inc.  The licensee
 of this program is prohibited from giving any competitor of
 Gaussian, Inc. access to this program.  By using this program,
 the user acknowledges that Gaussian, Inc. is engaged in the
 business of creating and licensing software in the field of
 computational chemistry and represents and warrants to the
 licensee that it is not a competitor of Gaussian, Inc. and that
 it will not use this program in any manner prohibited above.
 ---------------------------------------------------------------
  

 Cite this work as:
 Gaussian 09, Revision D.01,
 M. J. Frisch, G. W. Trucks, H. B. Schlegel, G. E. Scuseria, 
 M. A. Robb, J. R. Cheeseman, G. Scalmani, V. Barone, B. Mennucci, 
 G. A. Petersson, H. Nakatsuji, M. Caricato, X. Li, H. P. Hratchian, 
 A. F. Izmaylov, J. Bloino, G. Zheng, J. L. Sonnenberg, M. Hada, 
 M. Ehara, K. Toyota, R. Fukuda, J. Hasegawa, M. Ishida, T. Nakajima, 
 Y. Honda, O. Kitao, H. Nakai, T. Vreven, J. A. Montgomery, Jr., 
 J. E. Peralta, F. Ogliaro, M. Bearpark, J. J. Heyd, E. Brothers, 
 K. N. Kudin, V. N. Staroverov, T. Keith, R. Kobayashi, J. Normand, 
 K. Raghavachari, A. Rendell, J. C. Burant, S. S. Iyengar, J. Tomasi, 
 M. Cossi, N. Rega, J. M. Millam, M. Klene, J. E. Knox, J. B. Cross, 
 V. Bakken, C. Adamo, J. Jaramillo, R. Gomperts, R. E. Stratmann, 
 O. Yazyev, A. J. Austin, R. Cammi, C. Pomelli, J. W. Ochterski, 
 R. L. Martin, K. Morokuma, V. G. Zakrzewski, G. A. Voth, 
 P. Salvador, J. J. Dannenberg, S. Dapprich, A. D. Daniels, 
 O. Farkas, J. B. Foresman, J. V. Ortiz, J. Cioslowski, 
 and D. J. Fox, Gaussian, Inc., Wallingford CT, 2013.
 
 ******************************************
 Gaussian 09:  ES64L-G09RevD.01 24-Apr-2013
                26-Aug-2020 
 ******************************************
 %chk=/home/boittier/MDCM/nms_sampling/butane_geom.xyz.dir/butane_opt_794.chk
 %nproc=8
 Will use up to    8 processors via shared memory.
 %mem=16000MB
 --------------------
 #p B2PLYPD3/Def2QZVP
 --------------------
 1/38=1/1;
 2/12=2,17=6,18=5,40=1/2;
 3/5=45,7=101,11=9,16=1,25=1,30=1,74=-60/1,2,3;
 4//1;
 5/5=2,38=5/2;
 8/10=1/1;
 9/16=-3/6;
 6/7=2,8=2,9=2,10=2/1;
 99/5=1,9=1/99;
 Leave Link    1 at Wed Aug 26 22:57:56 2020, MaxMem=  2097152000 cpu:         0.3
 (Enter /opt/cluster/programs/g09/g09_d.01/g09/l101.exe)
 ----------
 butane_opt
 ----------
 Symbolic Z-matrix:
 Charge =  0 Multiplicity = 1
 C                    -3.98971   0.28498  -0.11654 
 C                    -2.72667  -0.59675   0.13119 
 H                    -4.83002  -0.17931  -0.05822 
 H                    -3.75898   0.95156  -1.09899 
 H                    -4.37957   0.88105   0.57405 
 C                    -1.3583    0.09861   0.21898 
 H                    -2.51417  -1.36595  -0.59276 
 H                    -2.72472  -1.31145   1.0387 
 C                    -0.17173  -0.67268  -0.11628 
 H                    -0.9234    1.11813   1.36125 
 H                    -1.6192    0.63852  -0.5842 
 H                     0.11726  -1.68919   0.85228 
 H                     0.92914   0.08354  -0.6885 
 H                    -0.3942   -0.91775  -0.70295 
 
 NAtoms=     14 NQM=       14 NQMF=       0 NMMI=      0 NMMIF=      0
                NMic=       0 NMicF=      0.
                    Isotopes and Nuclear Properties:
 (Nuclear quadrupole moments (NQMom) in fm**2, nuclear magnetic moments (NMagM)
  in nuclear magnetons)

  Atom         1           2           3           4           5           6           7           8           9          10
 IAtWgt=          12          12           1           1           1          12           1           1          12           1
 AtmWgt=  12.0000000  12.0000000   1.0078250   1.0078250   1.0078250  12.0000000   1.0078250   1.0078250  12.0000000   1.0078250
 NucSpn=           0           0           1           1           1           0           1           1           0           1
 AtZEff=   0.0000000   0.0000000   0.0000000   0.0000000   0.0000000   0.0000000   0.0000000   0.0000000   0.0000000   0.0000000
 NQMom=    0.0000000   0.0000000   0.0000000   0.0000000   0.0000000   0.0000000   0.0000000   0.0000000   0.0000000   0.0000000
 NMagM=    0.0000000   0.0000000   2.7928460   2.7928460   2.7928460   0.0000000   2.7928460   2.7928460   0.0000000   2.7928460
 AtZNuc=   6.0000000   6.0000000   1.0000000   1.0000000   1.0000000   6.0000000   1.0000000   1.0000000   6.0000000   1.0000000

  Atom        11          12          13          14
 IAtWgt=           1           1           1           1
 AtmWgt=   1.0078250   1.0078250   1.0078250   1.0078250
 NucSpn=           1           1           1           1
 AtZEff=   0.0000000   0.0000000   0.0000000   0.0000000
 NQMom=    0.0000000   0.0000000   0.0000000   0.0000000
 NMagM=    2.7928460   2.7928460   2.7928460   2.7928460
 AtZNuc=   1.0000000   1.0000000   1.0000000   1.0000000
 Leave Link  101 at Wed Aug 26 22:57:56 2020, MaxMem=  2097152000 cpu:         0.5
 (Enter /opt/cluster/programs/g09/g09_d.01/g09/l202.exe)
                          Input orientation:                          
 ---------------------------------------------------------------------
 Center     Atomic      Atomic             Coordinates (Angstroms)
 Number     Number       Type             X           Y           Z
 ---------------------------------------------------------------------
      1          6           0       -3.989714    0.284981   -0.116536
      2          6           0       -2.726667   -0.596754    0.131186
      3          1           0       -4.830015   -0.179306   -0.058218
      4          1           0       -3.758978    0.951560   -1.098994
      5          1           0       -4.379575    0.881049    0.574051
      6          6           0       -1.358296    0.098612    0.218982
      7          1           0       -2.514169   -1.365949   -0.592760
      8          1           0       -2.724718   -1.311445    1.038703
      9          6           0       -0.171734   -0.672683   -0.116277
     10          1           0       -0.923402    1.118125    1.361252
     11          1           0       -1.619195    0.638516   -0.584195
     12          1           0        0.117259   -1.689185    0.852283
     13          1           0        0.929140    0.083542   -0.688501
     14          1           0       -0.394195   -0.917749   -0.702954
 ---------------------------------------------------------------------
                    Distance matrix (angstroms):
                    1          2          3          4          5
     1  C    0.000000
     2  C    1.560164   0.000000
     3  H    0.961805   2.152721   0.000000
     4  H    1.209459   2.230759   1.873284   0.000000
     5  H    0.992068   2.261003   1.314159   1.785831   0.000000
     6  C    2.659261   1.537427   3.493839   2.868424   3.141084
     7  H    2.264860   1.077457   2.656501   2.678931   3.144867
     8  H    2.341659   1.155151   2.630067   3.280341   2.785944
     9  C    3.936254   2.568012   4.684696   4.058598   4.538344
    10  H    3.504320   2.775903   4.354291   3.757798   3.552608
    11  H    2.441936   1.806698   3.354825   2.222990   3.003340
    12  H    4.658666   3.130703   5.252073   5.079983   5.187006
    13  H    4.956092   3.807836   5.799501   4.785437   5.514754
    14  H    3.836431   2.497850   4.542850   3.869487   4.555181
                    6          7          8          9         10
     6  C    0.000000
     7  H    2.034676   0.000000
     8  H    2.127748   1.645896   0.000000
     9  C    1.454381   2.488906   2.873973   0.000000
    10  H    1.591641   3.538266   3.041642   2.440305   0.000000
    11  H    1.002326   2.195207   2.767368   2.008316   2.121065
    12  H    2.403030   3.019444   2.873025   1.433493   3.036942
    13  H    2.460918   3.737187   4.275500   1.453011   2.950214
    14  H    1.677035   2.169635   2.935933   0.673599   2.947166
                   11         12         13         14
    11  H    0.000000
    12  H    3.239897   0.000000
    13  H    2.610151   2.485101   0.000000
    14  H    1.984109   1.809823   1.659520   0.000000
 Stoichiometry    C4H10
 Framework group  C1[X(C4H10)]
 Deg. of freedom    36
 Full point group                 C1      NOp   1
 Largest Abelian subgroup         C1      NOp   1
 Largest concise Abelian subgroup C1      NOp   1
                         Standard orientation:                         
 ---------------------------------------------------------------------
 Center     Atomic      Atomic             Coordinates (Angstroms)
 Number     Number       Type             X           Y           Z
 ---------------------------------------------------------------------
      1          6           0        2.001698   -0.149740   -0.105221
      2          6           0        0.598498    0.513440    0.053938
      3          1           0        2.744272    0.461506   -0.110884
      4          1           0        1.903577   -0.956091   -1.001302
      5          1           0        2.486012   -0.582076    0.644928
      6          6           0       -0.623319   -0.401484    0.237675
      7          1           0        0.257832    1.142900   -0.751445
      8          1           0        0.459773    1.316323    0.872783
      9          6           0       -1.926081    0.100062   -0.170353
     10          1           0       -0.878307   -1.343339    1.495136
     11          1           0       -0.262253   -0.975028   -0.500795
     12          1           0       -2.401979    1.153293    0.677661
     13          1           0       -2.867774   -0.902669   -0.638310
     14          1           0       -1.745928    0.311514   -0.784005
 ---------------------------------------------------------------------
 Rotational constants (GHZ):     21.9435419      3.4786718      3.3157983
 Leave Link  202 at Wed Aug 26 22:57:56 2020, MaxMem=  2097152000 cpu:         0.0
 (Enter /opt/cluster/programs/g09/g09_d.01/g09/l301.exe)
 Standard basis: def2QZVP (5D, 7F)
 Ernie: Thresh=  0.10000D-02 Tol=  0.10000D-05 Strict=F.
 There are   638 symmetry adapted cartesian basis functions of A   symmetry.
 There are   528 symmetry adapted basis functions of A   symmetry.
   528 basis functions,   748 primitive gaussians,   638 cartesian basis functions
    17 alpha electrons       17 beta electrons
       nuclear repulsion energy       130.0854342518 Hartrees.
 IExCor=  419 DFT=T Ex+Corr=B2PLYPD3 ExCW=0 ScaHFX=  0.530000
 ScaDFX=  0.470000  0.470000  0.730000  0.730000 ScalE2=  0.270000  0.270000
 IRadAn=      0 IRanWt=     -1 IRanGd=            0 ICorTp=0 IEmpDi=141
 NAtoms=   14 NActive=   14 NUniq=   14 SFac= 1.00D+00 NAtFMM=   60 NAOKFM=F Big=F
 Integral buffers will be    131072 words long.
 Regular integral format.
 Two-electron integral symmetry is turned on.
 R6Disp:  Grimme-D3(BJ) Dispersion energy=       -0.0073883556 Hartrees.
 Nuclear repulsion after empirical dispersion term =      130.0780458963 Hartrees.
 Leave Link  301 at Wed Aug 26 22:57:56 2020, MaxMem=  2097152000 cpu:         0.4
 (Enter /opt/cluster/programs/g09/g09_d.01/g09/l302.exe)
 NPDir=0 NMtPBC=     1 NCelOv=     1 NCel=       1 NClECP=     1 NCelD=      1
         NCelK=      1 NCelE2=     1 NClLst=     1 CellRange=     0.0.
 One-electron integrals computed using PRISM.
   1 Symmetry operations used in ECPInt.
 ECPInt:  NShTT=   14196 NPrTT=   30597 LenC2=   13827 LenP2D=   25771.
 LDataN:  DoStor=T MaxTD1= 8 Len=  415
 NBasis=   528 RedAO= T EigKep=  2.25D-05  NBF=   528
 NBsUse=   528 1.00D-06 EigRej= -1.00D+00 NBFU=   528
 Precomputing XC quadrature grid using
 IXCGrd= 4 IRadAn=           0 IRanWt=          -1 IRanGd=           0 AccXCQ= 0.00D+00.
 Generated NRdTot=       0 NPtTot=           0 NUsed=           0 NTot=          32
 NSgBfM=   638   638   638   638   638 MxSgAt=    14 MxSgA2=    14.
 Leave Link  302 at Wed Aug 26 22:57:57 2020, MaxMem=  2097152000 cpu:         5.5
 (Enter /opt/cluster/programs/g09/g09_d.01/g09/l303.exe)
 DipDrv:  MaxL=1.
 Leave Link  303 at Wed Aug 26 22:57:57 2020, MaxMem=  2097152000 cpu:         0.6
 (Enter /opt/cluster/programs/g09/g09_d.01/g09/l401.exe)
 ExpMin= 7.60D-02 ExpMax= 6.70D+04 ExpMxC= 6.47D+02 IAcc=2 IRadAn=         4 AccDes= 0.00D+00
 Harris functional with IExCor=  419 and IRadAn=       4 diagonalized for initial guess.
 HarFok:  IExCor=  419 AccDes= 0.00D+00 IRadAn=         4 IDoV= 1 UseB2=F ITyADJ=14
 ICtDFT=  3500011 ScaDFX=  1.000000  1.000000  1.000000  1.000000
 FoFCou: FMM=F IPFlag=           0 FMFlag=      100000 FMFlg1=           0
         NFxFlg=           0 DoJE=T BraDBF=F KetDBF=T FulRan=T
         wScrn=  0.000000 ICntrl=     500 IOpCl=  0 I1Cent=   200000004 NGrid=           0
         NMat0=    1 NMatS0=      1 NMatT0=    0 NMatD0=    1 NMtDS0=    0 NMtDT0=    0
 Petite list used in FoFCou.
 Harris En= -158.182239557237    
 JPrj=0 DoOrth=F DoCkMO=F.
 Leave Link  401 at Wed Aug 26 22:57:59 2020, MaxMem=  2097152000 cpu:        16.8
 (Enter /opt/cluster/programs/g09/g09_d.01/g09/l502.exe)
 Closed shell SCF:
 Using DIIS extrapolation, IDIIS=  1040.
 Integral symmetry usage will be decided dynamically.
 IVT=     1249338 IEndB=     1249338 NGot=  2097152000 MDV=  2096326985
 LenX=  2096326985 LenY=  2095919303
 Requested convergence on RMS density matrix=1.00D-08 within 128 cycles.
 Requested convergence on MAX density matrix=1.00D-06.
 Requested convergence on             energy=1.00D-06.
 No special actions if energy rises.
 Fock matrices will be formed incrementally for  20 cycles.
 Integral accuracy reduced to 1.0D-05 until final iterations.

 Cycle   1  Pass 0  IDiag  1:
 FoFJK:  IHMeth= 1 ICntrl=       0 DoSepK=F KAlg= 0 I1Cent=   0 FoldK=F
 IRaf= 930000000 NMat=   1 IRICut=       1 DoRegI=T DoRafI=F ISym2E= 0.
 FoFCou: FMM=F IPFlag=           0 FMFlag=      100000 FMFlg1=           0
         NFxFlg=           0 DoJE=F BraDBF=F KetDBF=F FulRan=T
         wScrn=  0.000000 ICntrl=       0 IOpCl=  0 I1Cent=           0 NGrid=           0
         NMat0=    1 NMatS0=      1 NMatT0=    0 NMatD0=    1 NMtDS0=    0 NMtDT0=    0
 Symmetry not used in FoFCou.
 E= -157.192141022553    
 DIIS: error= 2.53D-02 at cycle   1 NSaved=   1.
 NSaved= 1 IEnMin= 1 EnMin= -157.192141022553     IErMin= 1 ErrMin= 2.53D-02
 ErrMax= 2.53D-02  0.00D+00 EMaxC= 1.00D-01 BMatC= 4.80D-01 BMatP= 4.80D-01
 IDIUse=3 WtCom= 7.47D-01 WtEn= 2.53D-01
 Coeff-Com:  0.100D+01
 Coeff-En:   0.100D+01
 Coeff:      0.100D+01
 Gap=     0.328 Goal=   None    Shift=    0.000
 GapD=    0.328 DampG=1.000 DampE=0.500 DampFc=0.5000 IDamp=-1.
 Damping current iteration by 5.00D-01
 RMSDP=1.39D-03 MaxDP=8.45D-02              OVMax= 2.64D-01

 Cycle   2  Pass 0  IDiag  1:
 RMSU=  6.60D-04    CP:  9.31D-01
 E= -157.391035187338     Delta-E=       -0.198894164785 Rises=F Damp=T
 DIIS: error= 7.90D-03 at cycle   2 NSaved=   2.
 NSaved= 2 IEnMin= 2 EnMin= -157.391035187338     IErMin= 2 ErrMin= 7.90D-03
 ErrMax= 7.90D-03  0.00D+00 EMaxC= 1.00D-01 BMatC= 3.71D-02 BMatP= 4.80D-01
 IDIUse=3 WtCom= 9.21D-01 WtEn= 7.90D-02
 Coeff-Com: -0.874D-01 0.109D+01
 Coeff-En:   0.000D+00 0.100D+01
 Coeff:     -0.805D-01 0.108D+01
 Gap=     0.465 Goal=   None    Shift=    0.000
 RMSDP=4.55D-04 MaxDP=2.73D-02 DE=-1.99D-01 OVMax= 1.85D-01

 Cycle   3  Pass 0  IDiag  1:
 RMSU=  4.04D-04    CP:  9.11D-01  7.01D-01
 E= -157.592447868160     Delta-E=       -0.201412680822 Rises=F Damp=F
 DIIS: error= 3.88D-03 at cycle   3 NSaved=   3.
 NSaved= 3 IEnMin= 3 EnMin= -157.592447868160     IErMin= 3 ErrMin= 3.88D-03
 ErrMax= 3.88D-03  0.00D+00 EMaxC= 1.00D-01 BMatC= 7.35D-03 BMatP= 3.71D-02
 IDIUse=3 WtCom= 9.61D-01 WtEn= 3.88D-02
 Coeff-Com: -0.930D-01 0.279D+00 0.814D+00
 Coeff-En:   0.000D+00 0.000D+00 0.100D+01
 Coeff:     -0.894D-01 0.268D+00 0.821D+00
 Gap=     0.360 Goal=   None    Shift=    0.000
 RMSDP=1.17D-04 MaxDP=1.22D-02 DE=-2.01D-01 OVMax= 4.08D-02

 Cycle   4  Pass 0  IDiag  1:
 RMSU=  1.04D-04    CP:  9.04D-01  7.74D-01  1.00D+00
 E= -157.599577267117     Delta-E=       -0.007129398957 Rises=F Damp=F
 DIIS: error= 1.57D-03 at cycle   4 NSaved=   4.
 NSaved= 4 IEnMin= 4 EnMin= -157.599577267117     IErMin= 4 ErrMin= 1.57D-03
 ErrMax= 1.57D-03  0.00D+00 EMaxC= 1.00D-01 BMatC= 1.33D-03 BMatP= 7.35D-03
 IDIUse=3 WtCom= 9.84D-01 WtEn= 1.57D-02
 Coeff-Com: -0.323D-01 0.467D-01 0.363D+00 0.622D+00
 Coeff-En:   0.000D+00 0.000D+00 0.142D-01 0.986D+00
 Coeff:     -0.318D-01 0.460D-01 0.358D+00 0.628D+00
 Gap=     0.364 Goal=   None    Shift=    0.000
 RMSDP=4.14D-05 MaxDP=3.75D-03 DE=-7.13D-03 OVMax= 9.32D-03

 Cycle   5  Pass 0  IDiag  1:
 RMSU=  2.79D-05    CP:  9.04D-01  7.51D-01  1.05D+00  8.11D-01
 E= -157.600877335923     Delta-E=       -0.001300068806 Rises=F Damp=F
 DIIS: error= 1.83D-04 at cycle   5 NSaved=   5.
 NSaved= 5 IEnMin= 5 EnMin= -157.600877335923     IErMin= 5 ErrMin= 1.83D-04
 ErrMax= 1.83D-04  0.00D+00 EMaxC= 1.00D-01 BMatC= 2.01D-05 BMatP= 1.33D-03
 IDIUse=3 WtCom= 9.98D-01 WtEn= 1.83D-03
 Coeff-Com:  0.355D-03-0.822D-02 0.259D-01 0.121D+00 0.861D+00
 Coeff-En:   0.000D+00 0.000D+00 0.000D+00 0.000D+00 0.100D+01
 Coeff:      0.354D-03-0.821D-02 0.258D-01 0.120D+00 0.862D+00
 Gap=     0.364 Goal=   None    Shift=    0.000
 RMSDP=1.04D-05 MaxDP=6.29D-04 DE=-1.30D-03 OVMax= 1.44D-03

 Cycle   6  Pass 0  IDiag  1:
 RMSU=  7.21D-06    CP:  9.04D-01  7.46D-01  1.06D+00  8.48D-01  1.07D+00
 E= -157.600899860278     Delta-E=       -0.000022524355 Rises=F Damp=F
 DIIS: error= 4.30D-05 at cycle   6 NSaved=   6.
 NSaved= 6 IEnMin= 6 EnMin= -157.600899860278     IErMin= 6 ErrMin= 4.30D-05
 ErrMax= 4.30D-05  0.00D+00 EMaxC= 1.00D-01 BMatC= 9.39D-07 BMatP= 2.01D-05
 IDIUse=1 WtCom= 1.00D+00 WtEn= 0.00D+00
 Coeff-Com:  0.195D-02-0.380D-02-0.143D-01-0.190D-01 0.963D-01 0.939D+00
 Coeff:      0.195D-02-0.380D-02-0.143D-01-0.190D-01 0.963D-01 0.939D+00
 Gap=     0.364 Goal=   None    Shift=    0.000
 RMSDP=3.16D-06 MaxDP=1.78D-04 DE=-2.25D-05 OVMax= 4.31D-04

 Initial convergence to 1.0D-05 achieved.  Increase integral accuracy.
 Cycle   7  Pass 1  IDiag  1:
 E= -157.600910211439     Delta-E=       -0.000010351161 Rises=F Damp=F
 DIIS: error= 6.09D-05 at cycle   1 NSaved=   1.
 NSaved= 1 IEnMin= 1 EnMin= -157.600910211439     IErMin= 1 ErrMin= 6.09D-05
 ErrMax= 6.09D-05  0.00D+00 EMaxC= 1.00D-01 BMatC= 7.69D-07 BMatP= 7.69D-07
 IDIUse=1 WtCom= 1.00D+00 WtEn= 0.00D+00
 Coeff-Com:  0.100D+01
 Coeff:      0.100D+01
 Gap=     0.364 Goal=   None    Shift=    0.000
 RMSDP=3.16D-06 MaxDP=1.78D-04 DE=-1.04D-05 OVMax= 1.48D-04

 Cycle   8  Pass 1  IDiag  1:
 RMSU=  3.20D-05    CP:  1.00D+00
 E= -157.600910530870     Delta-E=       -0.000000319431 Rises=F Damp=F
 DIIS: error= 1.40D-05 at cycle   2 NSaved=   2.
 NSaved= 2 IEnMin= 2 EnMin= -157.600910530870     IErMin= 2 ErrMin= 1.40D-05
 ErrMax= 1.40D-05  0.00D+00 EMaxC= 1.00D-01 BMatC= 1.18D-07 BMatP= 7.69D-07
 IDIUse=1 WtCom= 1.00D+00 WtEn= 0.00D+00
 Coeff-Com:  0.213D+00 0.787D+00
 Coeff:      0.213D+00 0.787D+00
 Gap=     0.364 Goal=   None    Shift=    0.000
 RMSDP=9.31D-07 MaxDP=6.57D-05 DE=-3.19D-07 OVMax= 9.87D-05

 Cycle   9  Pass 1  IDiag  1:
 RMSU=  5.04D-07    CP:  1.00D+00  1.02D+00
 E= -157.600910615967     Delta-E=       -0.000000085097 Rises=F Damp=F
 DIIS: error= 7.31D-06 at cycle   3 NSaved=   3.
 NSaved= 3 IEnMin= 3 EnMin= -157.600910615967     IErMin= 3 ErrMin= 7.31D-06
 ErrMax= 7.31D-06  0.00D+00 EMaxC= 1.00D-01 BMatC= 2.57D-08 BMatP= 1.18D-07
 IDIUse=1 WtCom= 1.00D+00 WtEn= 0.00D+00
 Coeff-Com: -0.113D-01 0.310D+00 0.701D+00
 Coeff:     -0.113D-01 0.310D+00 0.701D+00
 Gap=     0.364 Goal=   None    Shift=    0.000
 RMSDP=3.01D-07 MaxDP=1.94D-05 DE=-8.51D-08 OVMax= 2.74D-05

 Cycle  10  Pass 1  IDiag  1:
 RMSU=  1.59D-07    CP:  1.00D+00  1.03D+00  8.97D-01
 E= -157.600910639125     Delta-E=       -0.000000023158 Rises=F Damp=F
 DIIS: error= 4.61D-07 at cycle   4 NSaved=   4.
 NSaved= 4 IEnMin= 4 EnMin= -157.600910639125     IErMin= 4 ErrMin= 4.61D-07
 ErrMax= 4.61D-07  0.00D+00 EMaxC= 1.00D-01 BMatC= 1.33D-10 BMatP= 2.57D-08
 IDIUse=1 WtCom= 1.00D+00 WtEn= 0.00D+00
 Coeff-Com: -0.367D-02 0.517D-01 0.128D+00 0.824D+00
 Coeff:     -0.367D-02 0.517D-01 0.128D+00 0.824D+00
 Gap=     0.364 Goal=   None    Shift=    0.000
 RMSDP=3.17D-08 MaxDP=1.59D-06 DE=-2.32D-08 OVMax= 4.54D-06

 Cycle  11  Pass 1  IDiag  1:
 RMSU=  2.27D-08    CP:  1.00D+00  1.03D+00  9.16D-01  1.10D+00
 E= -157.600910639315     Delta-E=       -0.000000000190 Rises=F Damp=F
 DIIS: error= 2.64D-07 at cycle   5 NSaved=   5.
 NSaved= 5 IEnMin= 5 EnMin= -157.600910639315     IErMin= 5 ErrMin= 2.64D-07
 ErrMax= 2.64D-07  0.00D+00 EMaxC= 1.00D-01 BMatC= 3.69D-11 BMatP= 1.33D-10
 IDIUse=1 WtCom= 1.00D+00 WtEn= 0.00D+00
 Coeff-Com:  0.101D-02-0.449D-01-0.984D-01 0.296D+00 0.846D+00
 Coeff:      0.101D-02-0.449D-01-0.984D-01 0.296D+00 0.846D+00
 Gap=     0.364 Goal=   None    Shift=    0.000
 RMSDP=1.57D-08 MaxDP=6.76D-07 DE=-1.90D-10 OVMax= 2.92D-06

 Cycle  12  Pass 1  IDiag  1:
 RMSU=  1.05D-08    CP:  1.00D+00  1.03D+00  9.24D-01  1.17D+00  1.20D+00
 E= -157.600910639368     Delta-E=       -0.000000000053 Rises=F Damp=F
 DIIS: error= 7.41D-08 at cycle   6 NSaved=   6.
 NSaved= 6 IEnMin= 6 EnMin= -157.600910639368     IErMin= 6 ErrMin= 7.41D-08
 ErrMax= 7.41D-08  0.00D+00 EMaxC= 1.00D-01 BMatC= 1.49D-12 BMatP= 3.69D-11
 IDIUse=1 WtCom= 1.00D+00 WtEn= 0.00D+00
 Coeff-Com:  0.489D-03-0.169D-01-0.379D-01 0.553D-01 0.271D+00 0.728D+00
 Coeff:      0.489D-03-0.169D-01-0.379D-01 0.553D-01 0.271D+00 0.728D+00
 Gap=     0.364 Goal=   None    Shift=    0.000
 RMSDP=2.78D-09 MaxDP=1.41D-07 DE=-5.31D-11 OVMax= 5.09D-07

 SCF Done:  E(RB2PLYPD3) =  -157.600910639     A.U. after   12 cycles
            NFock= 12  Conv=0.28D-08     -V/T= 1.9975
 KE= 1.580037360485D+02 PE=-6.251430522634D+02 EE= 1.794603596793D+02
 Leave Link  502 at Wed Aug 26 23:05:51 2020, MaxMem=  2097152000 cpu:      3762.8
 (Enter /opt/cluster/programs/g09/g09_d.01/g09/l801.exe)
 DoSCS=T DFT=T ScalE2(SS,OS)=  0.270000  0.270000
 ExpMin= 7.60D-02 ExpMax= 6.70D+04 ExpMxC= 6.47D+02 IAcc=3 IRadAn=         5 AccDes= 0.00D+00
 HarFok:  IExCor=  205 AccDes= 0.00D+00 IRadAn=         5 IDoV=-2 UseB2=F ITyADJ=14
 ICtDFT= 12500011 ScaDFX=  1.000000  1.000000  1.000000  1.000000
 Largest valence mixing into a core orbital is  1.15D-04
 Largest core mixing into a valence orbital is  1.40D-05
 Range of M.O.s used for correlation:     5   528
 NBasis=   528 NAE=    17 NBE=    17 NFC=     4 NFV=     0
 NROrb=    524 NOA=    13 NOB=    13 NVA=   511 NVB=   511

 **** Warning!!: The largest alpha MO coefficient is  0.42625483D+02

 Leave Link  801 at Wed Aug 26 23:05:56 2020, MaxMem=  2097152000 cpu:         1.5
 (Enter /opt/cluster/programs/g09/g09_d.01/g09/l906.exe)
 DoSCS=T DFT=T ScalE2(SS,OS)=  0.270000  0.270000
 FulOut=F Deriv=F AODrv=F NAtomX=    14
   MMem=         463  MDisk=          13 MDiskD=          13
  W3Min=     4238234 MinDsk=     6904766 NBas6D=         638
 NBas2D=      205689    NTT=      203841    LW2=     4508827
    MDV=  2095908008 MDiskM=        7293 NBas2p=      188134
 Fully direct method using O(OVN) memory.
 IMap=   1   2   3   4   5   6   7   8   9  10  11  12  13
 JobTyp=1 Pass  1:  I=   1 to  13 NPSUse=  8 ParTrn=T ParDer=T DoDerP=F.
 Spin components of T(2) and E(2):
     alpha-alpha T2 =       0.4306568946D-01 E2=     -0.2684766209D-01
     alpha-beta  T2 =       0.3023151562D+00 E2=     -0.2006578765D+00
     beta-beta   T2 =       0.4306568946D-01 E2=     -0.2684766209D-01
 The integrals were generated   1 times.
 E2(B2PLYPD3) =    -0.2543532007D+00 E(B2PLYPD3) =    -0.15785526384002D+03
 Leave Link  906 at Wed Aug 26 23:11:57 2020, MaxMem=  2097152000 cpu:      2874.0
 (Enter /opt/cluster/programs/g09/g09_d.01/g09/l601.exe)
 Copying SCF densities to generalized density rwf, IOpCl= 0 IROHF=0.

 **********************************************************************

            Population analysis using the SCF density.

 **********************************************************************

 Orbital symmetries:
       Occupied  (A) (A) (A) (A) (A) (A) (A) (A) (A) (A) (A) (A)
                 (A) (A) (A) (A) (A)
       Virtual   (A) (A) (A) (A) (A) (A) (A) (A) (A) (A) (A) (A)
                 (A) (A) (A) (A) (A) (A) (A) (A) (A) (A) (A) (A)
                 (A) (A) (A) (A) (A) (A) (A) (A) (A) (A) (A) (A)
                 (A) (A) (A) (A) (A) (A) (A) (A) (A) (A) (A) (A)
                 (A) (A) (A) (A) (A) (A) (A) (A) (A) (A) (A) (A)
                 (A) (A) (A) (A) (A) (A) (A) (A) (A) (A) (A) (A)
                 (A) (A) (A) (A) (A) (A) (A) (A) (A) (A) (A) (A)
                 (A) (A) (A) (A) (A) (A) (A) (A) (A) (A) (A) (A)
                 (A) (A) (A) (A) (A) (A) (A) (A) (A) (A) (A) (A)
                 (A) (A) (A) (A) (A) (A) (A) (A) (A) (A) (A) (A)
                 (A) (A) (A) (A) (A) (A) (A) (A) (A) (A) (A) (A)
                 (A) (A) (A) (A) (A) (A) (A) (A) (A) (A) (A) (A)
                 (A) (A) (A) (A) (A) (A) (A) (A) (A) (A) (A) (A)
                 (A) (A) (A) (A) (A) (A) (A) (A) (A) (A) (A) (A)
                 (A) (A) (A) (A) (A) (A) (A) (A) (A) (A) (A) (A)
                 (A) (A) (A) (A) (A) (A) (A) (A) (A) (A) (A) (A)
                 (A) (A) (A) (A) (A) (A) (A) (A) (A) (A) (A) (A)
                 (A) (A) (A) (A) (A) (A) (A) (A) (A) (A) (A) (A)
                 (A) (A) (A) (A) (A) (A) (A) (A) (A) (A) (A) (A)
                 (A) (A) (A) (A) (A) (A) (A) (A) (A) (A) (A) (A)
                 (A) (A) (A) (A) (A) (A) (A) (A) (A) (A) (A) (A)
                 (A) (A) (A) (A) (A) (A) (A) (A) (A) (A) (A) (A)
                 (A) (A) (A) (A) (A) (A) (A) (A) (A) (A) (A) (A)
                 (A) (A) (A) (A) (A) (A) (A) (A) (A) (A) (A) (A)
                 (A) (A) (A) (A) (A) (A) (A) (A) (A) (A) (A) (A)
                 (A) (A) (A) (A) (A) (A) (A) (A) (A) (A) (A) (A)
                 (A) (A) (A) (A) (A) (A) (A) (A) (A) (A) (A) (A)
                 (A) (A) (A) (A) (A) (A) (A) (A) (A) (A) (A) (A)
                 (A) (A) (A) (A) (A) (A) (A) (A) (A) (A) (A) (A)
                 (A) (A) (A) (A) (A) (A) (A) (A) (A) (A) (A) (A)
                 (A) (A) (A) (A) (A) (A) (A) (A) (A) (A) (A) (A)
                 (A) (A) (A) (A) (A) (A) (A) (A) (A) (A) (A) (A)
                 (A) (A) (A) (A) (A) (A) (A) (A) (A) (A) (A) (A)
                 (A) (A) (A) (A) (A) (A) (A) (A) (A) (A) (A) (A)
                 (A) (A) (A) (A) (A) (A) (A) (A) (A) (A) (A) (A)
                 (A) (A) (A) (A) (A) (A) (A) (A) (A) (A) (A) (A)
                 (A) (A) (A) (A) (A) (A) (A) (A) (A) (A) (A) (A)
                 (A) (A) (A) (A) (A) (A) (A) (A) (A) (A) (A) (A)
                 (A) (A) (A) (A) (A) (A) (A) (A) (A) (A) (A) (A)
                 (A) (A) (A) (A) (A) (A) (A) (A) (A) (A) (A) (A)
                 (A) (A) (A) (A) (A) (A) (A) (A) (A) (A) (A) (A)
                 (A) (A) (A) (A) (A) (A) (A) (A) (A) (A) (A) (A)
                 (A) (A) (A) (A) (A) (A) (A)
 The electronic state is 1-A.
 Alpha  occ. eigenvalues --  -10.63841 -10.63417 -10.62698 -10.60488  -0.95433
 Alpha  occ. eigenvalues --   -0.87319  -0.78042  -0.67072  -0.56025  -0.50543
 Alpha  occ. eigenvalues --   -0.49204  -0.47145  -0.42192  -0.41792  -0.39538
 Alpha  occ. eigenvalues --   -0.34523  -0.33435
 Alpha virt. eigenvalues --    0.02941   0.05787   0.06006   0.07591   0.09652
 Alpha virt. eigenvalues --    0.09754   0.11748   0.13469   0.14213   0.14937
 Alpha virt. eigenvalues --    0.15319   0.16249   0.18272   0.18908   0.20300
 Alpha virt. eigenvalues --    0.21169   0.22195   0.24230   0.25058   0.27221
 Alpha virt. eigenvalues --    0.27881   0.29091   0.29864   0.32015   0.33856
 Alpha virt. eigenvalues --    0.34275   0.35016   0.36578   0.37188   0.39249
 Alpha virt. eigenvalues --    0.41327   0.42085   0.43810   0.44341   0.47861
 Alpha virt. eigenvalues --    0.48377   0.49424   0.52057   0.54381   0.56859
 Alpha virt. eigenvalues --    0.58697   0.60697   0.62851   0.64447   0.66732
 Alpha virt. eigenvalues --    0.67500   0.67899   0.70079   0.71132   0.71515
 Alpha virt. eigenvalues --    0.73298   0.74350   0.74943   0.75370   0.75941
 Alpha virt. eigenvalues --    0.80304   0.81777   0.82811   0.84375   0.84994
 Alpha virt. eigenvalues --    0.85682   0.87093   0.88054   0.89144   0.89476
 Alpha virt. eigenvalues --    0.91723   0.93204   0.94456   0.95583   0.96391
 Alpha virt. eigenvalues --    0.97039   0.98924   1.00035   1.00668   1.02244
 Alpha virt. eigenvalues --    1.03828   1.06038   1.06224   1.07761   1.08821
 Alpha virt. eigenvalues --    1.10479   1.11202   1.15128   1.16311   1.19062
 Alpha virt. eigenvalues --    1.20091   1.20381   1.22245   1.23840   1.27300
 Alpha virt. eigenvalues --    1.28860   1.29662   1.29886   1.32939   1.35351
 Alpha virt. eigenvalues --    1.37674   1.40106   1.42332   1.43115   1.43918
 Alpha virt. eigenvalues --    1.47736   1.48490   1.49661   1.51299   1.59123
 Alpha virt. eigenvalues --    1.59339   1.67518   1.70593   1.73233   1.76898
 Alpha virt. eigenvalues --    1.80051   1.82353   1.84219   1.85111   1.87396
 Alpha virt. eigenvalues --    1.88679   1.91387   1.92332   1.93438   1.95766
 Alpha virt. eigenvalues --    1.96733   1.98036   1.99837   2.00626   2.02816
 Alpha virt. eigenvalues --    2.03116   2.04265   2.06294   2.07327   2.09453
 Alpha virt. eigenvalues --    2.10825   2.12743   2.14493   2.14808   2.15054
 Alpha virt. eigenvalues --    2.16795   2.19375   2.20279   2.21090   2.21215
 Alpha virt. eigenvalues --    2.22434   2.24748   2.25419   2.27324   2.28424
 Alpha virt. eigenvalues --    2.28933   2.30763   2.32066   2.33665   2.34387
 Alpha virt. eigenvalues --    2.35483   2.38141   2.40712   2.42564   2.43629
 Alpha virt. eigenvalues --    2.44770   2.46012   2.47226   2.49144   2.51207
 Alpha virt. eigenvalues --    2.51603   2.53520   2.54045   2.54622   2.56471
 Alpha virt. eigenvalues --    2.57766   2.60165   2.60730   2.62933   2.63540
 Alpha virt. eigenvalues --    2.64836   2.65893   2.67302   2.70397   2.72812
 Alpha virt. eigenvalues --    2.72970   2.74345   2.76705   2.79636   2.80818
 Alpha virt. eigenvalues --    2.81864   2.83730   2.85124   2.87237   2.88811
 Alpha virt. eigenvalues --    2.90967   2.93373   2.94461   2.95845   2.97000
 Alpha virt. eigenvalues --    2.98993   3.01115   3.04248   3.06248   3.07298
 Alpha virt. eigenvalues --    3.09582   3.11508   3.12320   3.13173   3.15551
 Alpha virt. eigenvalues --    3.16485   3.18639   3.19244   3.21194   3.24233
 Alpha virt. eigenvalues --    3.27412   3.29390   3.31819   3.32819   3.34830
 Alpha virt. eigenvalues --    3.35270   3.39441   3.43070   3.44685   3.47376
 Alpha virt. eigenvalues --    3.50612   3.52558   3.54796   3.56077   3.56537
 Alpha virt. eigenvalues --    3.58655   3.63661   3.65082   3.68840   3.70656
 Alpha virt. eigenvalues --    3.72954   3.75492   3.79513   3.80837   3.83687
 Alpha virt. eigenvalues --    3.88046   3.88762   3.89460   3.92126   3.94788
 Alpha virt. eigenvalues --    3.99516   4.02203   4.04034   4.07580   4.07714
 Alpha virt. eigenvalues --    4.11234   4.13250   4.16775   4.22920   4.27522
 Alpha virt. eigenvalues --    4.30938   4.41031   4.42427   4.47634   4.48263
 Alpha virt. eigenvalues --    4.53522   4.71203   4.77991   4.92260   5.05259
 Alpha virt. eigenvalues --    5.09212   5.16056   5.16636   5.20442   5.22080
 Alpha virt. eigenvalues --    5.27676   5.31634   5.34307   5.36879   5.40157
 Alpha virt. eigenvalues --    5.45703   5.50126   5.56764   5.57652   5.60606
 Alpha virt. eigenvalues --    5.63084   5.64432   5.65750   5.68713   5.69622
 Alpha virt. eigenvalues --    5.72326   5.73575   5.74238   5.78271   5.79057
 Alpha virt. eigenvalues --    5.82439   5.82990   5.86776   5.88333   5.89488
 Alpha virt. eigenvalues --    5.91235   5.92522   5.94071   5.96133   5.97045
 Alpha virt. eigenvalues --    5.97348   5.99055   6.00447   6.01660   6.04090
 Alpha virt. eigenvalues --    6.04364   6.05471   6.06587   6.08748   6.11217
 Alpha virt. eigenvalues --    6.12198   6.13279   6.14379   6.15711   6.18149
 Alpha virt. eigenvalues --    6.20449   6.22686   6.27484   6.27921   6.29953
 Alpha virt. eigenvalues --    6.32459   6.32887   6.34786   6.38361   6.39059
 Alpha virt. eigenvalues --    6.40963   6.45585   6.46088   6.46721   6.48038
 Alpha virt. eigenvalues --    6.49479   6.50666   6.51537   6.53342   6.57255
 Alpha virt. eigenvalues --    6.59810   6.60655   6.61999   6.64461   6.65760
 Alpha virt. eigenvalues --    6.66672   6.69097   6.69907   6.72477   6.75898
 Alpha virt. eigenvalues --    6.78804   6.82585   6.84926   6.88252   6.89186
 Alpha virt. eigenvalues --    6.91669   6.94131   6.96539   6.98378   7.00040
 Alpha virt. eigenvalues --    7.03048   7.03298   7.06531   7.07176   7.09622
 Alpha virt. eigenvalues --    7.13498   7.14550   7.15561   7.16902   7.20521
 Alpha virt. eigenvalues --    7.22309   7.24240   7.26353   7.27988   7.29595
 Alpha virt. eigenvalues --    7.31832   7.33584   7.35112   7.38023   7.43771
 Alpha virt. eigenvalues --    7.45443   7.46568   7.50179   7.52482   7.54260
 Alpha virt. eigenvalues --    7.58185   7.59954   7.60878   7.62063   7.64803
 Alpha virt. eigenvalues --    7.66002   7.67554   7.67956   7.70844   7.72998
 Alpha virt. eigenvalues --    7.75403   7.79137   7.82316   7.83614   7.87803
 Alpha virt. eigenvalues --    7.89918   7.90814   7.91631   7.93398   7.94630
 Alpha virt. eigenvalues --    7.96812   7.99033   7.99810   8.03514   8.04197
 Alpha virt. eigenvalues --    8.06010   8.08928   8.10209   8.11429   8.13274
 Alpha virt. eigenvalues --    8.15877   8.17528   8.18300   8.21103   8.22173
 Alpha virt. eigenvalues --    8.23612   8.25692   8.26881   8.30110   8.30492
 Alpha virt. eigenvalues --    8.32640   8.34361   8.34836   8.37455   8.38985
 Alpha virt. eigenvalues --    8.39849   8.41297   8.44198   8.45684   8.46148
 Alpha virt. eigenvalues --    8.47786   8.52008   8.53839   8.56043   8.56464
 Alpha virt. eigenvalues --    8.57703   8.59768   8.61142   8.62819   8.64052
 Alpha virt. eigenvalues --    8.66195   8.69558   8.72122   8.73201   8.76404
 Alpha virt. eigenvalues --    8.79909   8.82467   8.85757   8.87195   8.88745
 Alpha virt. eigenvalues --    8.91158   8.92993   8.94922   8.96376   8.98800
 Alpha virt. eigenvalues --    9.01757   9.04337   9.10018   9.13218   9.14347
 Alpha virt. eigenvalues --    9.17417   9.21198   9.23114   9.25464   9.29334
 Alpha virt. eigenvalues --    9.34514   9.37450   9.39812   9.41747   9.43144
 Alpha virt. eigenvalues --    9.46147   9.49264   9.55538   9.59216   9.66540
 Alpha virt. eigenvalues --    9.70916   9.72444   9.82167   9.83949   9.87011
 Alpha virt. eigenvalues --    9.91999   9.97185   9.99697  10.05110  10.10538
 Alpha virt. eigenvalues --   10.23523  10.23920  10.34092  10.38995  10.42999
 Alpha virt. eigenvalues --   10.50039  10.54078  10.61283  10.63776  10.71596
 Alpha virt. eigenvalues --   10.78315  10.79496  10.85136  10.88735  10.97715
 Alpha virt. eigenvalues --   11.02956  11.22376  11.47480  11.55742  11.78743
 Alpha virt. eigenvalues --   11.81416  11.94099  12.24723  12.37494  12.68855
 Alpha virt. eigenvalues --   12.71472  12.99460  15.51959  29.12210  29.30317
 Alpha virt. eigenvalues --   29.56611  29.73736 148.78687 148.94290 149.28735
 Alpha virt. eigenvalues --  149.46527
          Condensed to atoms (all electrons):
               1          2          3          4          5          6
     1  C    4.614925   0.393543   0.412898   0.396569   0.412420  -0.040786
     2  C    0.393543   4.823169  -0.035016  -0.060180  -0.018845   0.346930
     3  H    0.412898  -0.035016   0.674486  -0.018458  -0.080521   0.006120
     4  H    0.396569  -0.060180  -0.018458   0.672920  -0.030088   0.000665
     5  H    0.412420  -0.018845  -0.080521  -0.030088   0.673428  -0.004763
     6  C   -0.040786   0.346930   0.006120   0.000665  -0.004763   4.849679
     7  H   -0.033528   0.392471  -0.006019  -0.004780   0.007396  -0.054863
     8  H   -0.033594   0.369368  -0.002701   0.007962  -0.004309  -0.052098
     9  C    0.003332  -0.059304  -0.000392   0.000300  -0.000013   0.337651
    10  H   -0.000871  -0.021927  -0.000068  -0.000442   0.001995   0.350710
    11  H   -0.011848  -0.098473  -0.000006   0.006986  -0.000176   0.380171
    12  H    0.000221  -0.001522   0.000015   0.000012   0.000023  -0.040242
    13  H   -0.000445   0.009135   0.000023  -0.000030  -0.000020  -0.026632
    14  H    0.000194  -0.005103   0.000137  -0.000145  -0.000027  -0.038137
               7          8          9         10         11         12
     1  C   -0.033528  -0.033594   0.003332  -0.000871  -0.011848   0.000221
     2  C    0.392471   0.369368  -0.059304  -0.021927  -0.098473  -0.001522
     3  H   -0.006019  -0.002701  -0.000392  -0.000068  -0.000006   0.000015
     4  H   -0.004780   0.007962   0.000300  -0.000442   0.006986   0.000012
     5  H    0.007396  -0.004309  -0.000013   0.001995  -0.000176   0.000023
     6  C   -0.054863  -0.052098   0.337651   0.350710   0.380171  -0.040242
     7  H    0.714223  -0.059134  -0.007605   0.008286  -0.012183   0.000043
     8  H   -0.059134   0.739674   0.003556  -0.006145   0.018500   0.005805
     9  C   -0.007605   0.003556   5.496071  -0.047825  -0.045343   0.353867
    10  H    0.008286  -0.006145  -0.047825   0.763261  -0.021393  -0.004472
    11  H   -0.012183   0.018500  -0.045343  -0.021393   0.717959   0.010837
    12  H    0.000043   0.005805   0.353867  -0.004472   0.010837   0.652805
    13  H   -0.000308  -0.000718   0.358774  -0.007926  -0.008536  -0.015362
    14  H    0.009854  -0.002219   0.310978   0.013780  -0.014853  -0.005325
              13         14
     1  C   -0.000445   0.000194
     2  C    0.009135  -0.005103
     3  H    0.000023   0.000137
     4  H   -0.000030  -0.000145
     5  H   -0.000020  -0.000027
     6  C   -0.026632  -0.038137
     7  H   -0.000308   0.009854
     8  H   -0.000718  -0.002219
     9  C    0.358774   0.310978
    10  H   -0.007926   0.013780
    11  H   -0.008536  -0.014853
    12  H   -0.015362  -0.005325
    13  H    0.668667  -0.017564
    14  H   -0.017564   0.202240
 Mulliken charges:
               1
     1  C   -0.113031
     2  C   -0.034247
     3  H    0.049502
     4  H    0.028710
     5  H    0.043500
     6  C   -0.014406
     7  H    0.046145
     8  H    0.016052
     9  C   -0.704048
    10  H   -0.026964
    11  H    0.078358
    12  H    0.043296
    13  H    0.040943
    14  H    0.546190
 Sum of Mulliken charges =   0.00000
 Mulliken charges with hydrogens summed into heavy atoms:
               1
     1  C    0.008680
     2  C    0.027951
     6  C    0.036988
     9  C   -0.073619
 Electronic spatial extent (au):  <R**2>=            444.0354
 Charge=              0.0000 electrons
 Dipole moment (field-independent basis, Debye):
    X=              1.0044    Y=              0.5608    Z=             -0.8568  Tot=              1.4344
 Quadrupole moment (field-independent basis, Debye-Ang):
   XX=            -29.0827   YY=            -29.9794   ZZ=            -29.8002
   XY=             -0.3506   XZ=              1.4607   YZ=              1.2601
 Traceless Quadrupole moment (field-independent basis, Debye-Ang):
   XX=              0.5380   YY=             -0.3586   ZZ=             -0.1794
   XY=             -0.3506   XZ=              1.4607   YZ=              1.2601
 Octapole moment (field-independent basis, Debye-Ang**2):
  XXX=             17.6671  YYY=              3.2815  ZZZ=             -3.9270  XYY=              0.6557
  XXY=              0.0540  XXZ=              1.3848  XZZ=              0.4486  YZZ=              0.8693
  YYZ=             -1.6190  XYZ=             -1.0283
 Hexadecapole moment (field-independent basis, Debye-Ang**3):
 XXXX=           -476.6650 YYYY=           -104.9417 ZZZZ=            -75.5276 XXXY=              3.3160
 XXXZ=             17.1638 YYYX=             -2.0377 YYYZ=              3.1804 ZZZX=              4.5090
 ZZZY=              2.1121 XXYY=            -95.3637 XXZZ=            -92.7903 YYZZ=            -27.4924
 XXYZ=              5.1660 YYXZ=             -0.3194 ZZXY=             -1.6621
 N-N= 1.300780458963D+02 E-N=-6.251430655996D+02  KE= 1.580037360485D+02
 Leave Link  601 at Wed Aug 26 23:12:00 2020, MaxMem=  2097152000 cpu:         1.3
 (Enter /opt/cluster/programs/g09/g09_d.01/g09/l9999.exe)
 1\1\GINC-NODE09\SP\RB2PLYPD3-FC\def2QZVP\C4H10\BOITTIER\26-Aug-2020\0\
 \#p B2PLYPD3/Def2QZVP\\butane_opt\\0,1\C,0,-3.989714,0.284981,-0.11653
 6\C,0,-2.726667,-0.596754,0.131186\H,0,-4.830015,-0.179306,-0.058218\H
 ,0,-3.758978,0.95156,-1.098994\H,0,-4.379575,0.881049,0.574051\C,0,-1.
 358296,0.098612,0.218982\H,0,-2.514169,-1.365949,-0.59276\H,0,-2.72471
 8,-1.311445,1.038703\C,0,-0.171734,-0.672683,-0.116277\H,0,-0.923402,1
 .118125,1.361252\H,0,-1.619195,0.638516,-0.584195\H,0,0.117259,-1.6891
 85,0.852283\H,0,0.92914,0.083542,-0.688501\H,0,-0.394195,-0.917749,-0.
 702954\\Version=ES64L-G09RevD.01\State=1-A\HF=-157.6009106\MP2=-157.85
 52638\RMSD=2.776e-09\PG=C01 [X(C4H10)]\\@


 Boundary, n.  In political geography, an imaginary
 line between two nations, separating the imaginary
 rights of one from the imaginary rights of another.
                               -- Ambrose Bierce
 Job cpu time:       0 days  1 hours 51 minutes  4.4 seconds.
 File lengths (MBytes):  RWF=    152 Int=      0 D2E=      0 Chk=     14 Scr=      1
 Normal termination of Gaussian 09 at Wed Aug 26 23:12:10 2020.
