 Entering Gaussian System, Link 0=/opt/cluster/programs/g09/g09_d.01/g09//g09
 Input=/home/boittier/MDCM/nms_sampling/butane_geom.xyz.dir/energies/butane_opt_2548_energy.com
 Output=/scratch/boittier/butane_opt_2548_energy/butane_opt_2548_energy.out
 Initial command:
 /opt/cluster/programs/g09/g09_d.01/g09/l1.exe "/scratch/boittier/butane_opt_2548_energy/Gau-59337.inp" -scrdir="/scratch/boittier/butane_opt_2548_energy/"
 Entering Link 1 = /opt/cluster/programs/g09/g09_d.01/g09/l1.exe PID=     59338.
  
 Copyright (c) 1988,1990,1992,1993,1995,1998,2003,2009,2013,
            Gaussian, Inc.  All Rights Reserved.
  
 This is part of the Gaussian(R) 09 program.  It is based on
 the Gaussian(R) 03 system (copyright 2003, Gaussian, Inc.),
 the Gaussian(R) 98 system (copyright 1998, Gaussian, Inc.),
 the Gaussian(R) 94 system (copyright 1995, Gaussian, Inc.),
 the Gaussian 92(TM) system (copyright 1992, Gaussian, Inc.),
 the Gaussian 90(TM) system (copyright 1990, Gaussian, Inc.),
 the Gaussian 88(TM) system (copyright 1988, Gaussian, Inc.),
 the Gaussian 86(TM) system (copyright 1986, Carnegie Mellon
 University), and the Gaussian 82(TM) system (copyright 1983,
 Carnegie Mellon University). Gaussian is a federally registered
 trademark of Gaussian, Inc.
  
 This software contains proprietary and confidential information,
 including trade secrets, belonging to Gaussian, Inc.
  
 This software is provided under written license and may be
 used, copied, transmitted, or stored only in accord with that
 written license.
  
 The following legend is applicable only to US Government
 contracts under FAR:
  
                    RESTRICTED RIGHTS LEGEND
  
 Use, reproduction and disclosure by the US Government is
 subject to restrictions as set forth in subparagraphs (a)
 and (c) of the Commercial Computer Software - Restricted
 Rights clause in FAR 52.227-19.
  
 Gaussian, Inc.
 340 Quinnipiac St., Bldg. 40, Wallingford CT 06492
  
  
 ---------------------------------------------------------------
 Warning -- This program may not be used in any manner that
 competes with the business of Gaussian, Inc. or will provide
 assistance to any competitor of Gaussian, Inc.  The licensee
 of this program is prohibited from giving any competitor of
 Gaussian, Inc. access to this program.  By using this program,
 the user acknowledges that Gaussian, Inc. is engaged in the
 business of creating and licensing software in the field of
 computational chemistry and represents and warrants to the
 licensee that it is not a competitor of Gaussian, Inc. and that
 it will not use this program in any manner prohibited above.
 ---------------------------------------------------------------
  

 Cite this work as:
 Gaussian 09, Revision D.01,
 M. J. Frisch, G. W. Trucks, H. B. Schlegel, G. E. Scuseria, 
 M. A. Robb, J. R. Cheeseman, G. Scalmani, V. Barone, B. Mennucci, 
 G. A. Petersson, H. Nakatsuji, M. Caricato, X. Li, H. P. Hratchian, 
 A. F. Izmaylov, J. Bloino, G. Zheng, J. L. Sonnenberg, M. Hada, 
 M. Ehara, K. Toyota, R. Fukuda, J. Hasegawa, M. Ishida, T. Nakajima, 
 Y. Honda, O. Kitao, H. Nakai, T. Vreven, J. A. Montgomery, Jr., 
 J. E. Peralta, F. Ogliaro, M. Bearpark, J. J. Heyd, E. Brothers, 
 K. N. Kudin, V. N. Staroverov, T. Keith, R. Kobayashi, J. Normand, 
 K. Raghavachari, A. Rendell, J. C. Burant, S. S. Iyengar, J. Tomasi, 
 M. Cossi, N. Rega, J. M. Millam, M. Klene, J. E. Knox, J. B. Cross, 
 V. Bakken, C. Adamo, J. Jaramillo, R. Gomperts, R. E. Stratmann, 
 O. Yazyev, A. J. Austin, R. Cammi, C. Pomelli, J. W. Ochterski, 
 R. L. Martin, K. Morokuma, V. G. Zakrzewski, G. A. Voth, 
 P. Salvador, J. J. Dannenberg, S. Dapprich, A. D. Daniels, 
 O. Farkas, J. B. Foresman, J. V. Ortiz, J. Cioslowski, 
 and D. J. Fox, Gaussian, Inc., Wallingford CT, 2013.
 
 ******************************************
 Gaussian 09:  ES64L-G09RevD.01 24-Apr-2013
                26-Aug-2020 
 ******************************************
 %chk=/home/boittier/MDCM/nms_sampling/butane_geom.xyz.dir/butane_opt_2548.chk
 %nproc=8
 Will use up to    8 processors via shared memory.
 %mem=16000MB
 --------------------
 #p B2PLYPD3/Def2QZVP
 --------------------
 1/38=1/1;
 2/12=2,17=6,18=5,40=1/2;
 3/5=45,7=101,11=9,16=1,25=1,30=1,74=-60/1,2,3;
 4//1;
 5/5=2,38=5/2;
 8/10=1/1;
 9/16=-3/6;
 6/7=2,8=2,9=2,10=2/1;
 99/5=1,9=1/99;
 Leave Link    1 at Wed Aug 26 18:50:43 2020, MaxMem=  2097152000 cpu:         0.3
 (Enter /opt/cluster/programs/g09/g09_d.01/g09/l101.exe)
 ----------
 butane_opt
 ----------
 Symbolic Z-matrix:
 Charge =  0 Multiplicity = 1
 C                    -3.89187   0.22605   0.0906 
 C                    -2.65337  -0.52715  -0.12353 
 H                    -5.07894  -0.57246   0.58704 
 H                    -4.20211   0.98491  -0.7219 
 H                    -3.33457   0.81916   0.96536 
 C                    -1.47364   0.1862   -0.0837 
 H                    -2.77564  -1.41515  -1.019 
 H                    -2.7483   -1.13963   0.89672 
 C                    -0.17965  -0.68446   0.14445 
 H                    -1.43816   0.67829   0.72271 
 H                    -1.58785   0.79494  -1.01398 
 H                    -0.09193  -1.4174    1.19905 
 H                     0.66411  -0.22114   0.3352 
 H                    -0.05443  -1.40074  -0.83137 
 
 NAtoms=     14 NQM=       14 NQMF=       0 NMMI=      0 NMMIF=      0
                NMic=       0 NMicF=      0.
                    Isotopes and Nuclear Properties:
 (Nuclear quadrupole moments (NQMom) in fm**2, nuclear magnetic moments (NMagM)
  in nuclear magnetons)

  Atom         1           2           3           4           5           6           7           8           9          10
 IAtWgt=          12          12           1           1           1          12           1           1          12           1
 AtmWgt=  12.0000000  12.0000000   1.0078250   1.0078250   1.0078250  12.0000000   1.0078250   1.0078250  12.0000000   1.0078250
 NucSpn=           0           0           1           1           1           0           1           1           0           1
 AtZEff=   0.0000000   0.0000000   0.0000000   0.0000000   0.0000000   0.0000000   0.0000000   0.0000000   0.0000000   0.0000000
 NQMom=    0.0000000   0.0000000   0.0000000   0.0000000   0.0000000   0.0000000   0.0000000   0.0000000   0.0000000   0.0000000
 NMagM=    0.0000000   0.0000000   2.7928460   2.7928460   2.7928460   0.0000000   2.7928460   2.7928460   0.0000000   2.7928460
 AtZNuc=   6.0000000   6.0000000   1.0000000   1.0000000   1.0000000   6.0000000   1.0000000   1.0000000   6.0000000   1.0000000

  Atom        11          12          13          14
 IAtWgt=           1           1           1           1
 AtmWgt=   1.0078250   1.0078250   1.0078250   1.0078250
 NucSpn=           1           1           1           1
 AtZEff=   0.0000000   0.0000000   0.0000000   0.0000000
 NQMom=    0.0000000   0.0000000   0.0000000   0.0000000
 NMagM=    2.7928460   2.7928460   2.7928460   2.7928460
 AtZNuc=   1.0000000   1.0000000   1.0000000   1.0000000
 Leave Link  101 at Wed Aug 26 18:50:43 2020, MaxMem=  2097152000 cpu:         0.5
 (Enter /opt/cluster/programs/g09/g09_d.01/g09/l202.exe)
                          Input orientation:                          
 ---------------------------------------------------------------------
 Center     Atomic      Atomic             Coordinates (Angstroms)
 Number     Number       Type             X           Y           Z
 ---------------------------------------------------------------------
      1          6           0       -3.891870    0.226051    0.090595
      2          6           0       -2.653370   -0.527153   -0.123526
      3          1           0       -5.078944   -0.572461    0.587043
      4          1           0       -4.202113    0.984905   -0.721900
      5          1           0       -3.334570    0.819162    0.965360
      6          6           0       -1.473642    0.186196   -0.083695
      7          1           0       -2.775640   -1.415152   -1.018995
      8          1           0       -2.748298   -1.139625    0.896721
      9          6           0       -0.179645   -0.684457    0.144453
     10          1           0       -1.438163    0.678292    0.722709
     11          1           0       -1.587847    0.794940   -1.013979
     12          1           0       -0.091926   -1.417401    1.199048
     13          1           0        0.664109   -0.221140    0.335204
     14          1           0       -0.054428   -1.400744   -0.831371
 ---------------------------------------------------------------------
                    Distance matrix (angstroms):
                    1          2          3          4          5
     1  C    0.000000
     2  C    1.465280   0.000000
     3  H    1.514340   2.527918   0.000000
     4  H    1.154235   2.245657   2.215300   0.000000
     5  H    1.194813   1.860718   2.263312   1.904455   0.000000
     6  C    2.424828   1.379207   3.744817   2.913725   2.228052
     7  H    2.273919   1.267027   2.931671   2.807733   3.040103
     8  H    1.955164   1.193749   2.418571   3.040911   2.045794
     9  C    3.822635   2.493165   4.920524   4.440449   3.590029
    10  H    2.573862   1.909434   3.852022   3.133740   1.917051
    11  H    2.617678   1.917336   4.076863   2.637382   2.639964
    12  H    4.285928   3.017075   5.094980   5.133688   3.946082
    13  H    4.584404   3.362996   5.759297   5.123683   4.179564
    14  H    4.268776   2.831732   5.286181   4.786084   4.349202
                    6          7          8          9         10
     6  C    0.000000
     7  H    2.265899   0.000000
     8  H    2.084170   1.935621   0.000000
     9  C    1.576235   2.937127   2.714970   0.000000
    10  H    0.945360   3.033955   2.247567   1.943021   0.000000
    11  H    1.117605   2.509060   2.956343   2.348108   1.747025
    12  H    2.475094   3.481672   2.687912   1.287273   2.535978
    13  H    2.216163   3.884764   3.578189   0.981310   2.319199
    14  H    2.256450   2.727711   3.211140   1.216955   2.941475
                   11         12         13         14
    11  H    0.000000
    12  H    3.468389   0.000000
    13  H    2.814963   1.657967   0.000000
    14  H    2.684352   2.030834   1.807943   0.000000
 Stoichiometry    C4H10
 Framework group  C1[X(C4H10)]
 Deg. of freedom    36
 Full point group                 C1      NOp   1
 Largest Abelian subgroup         C1      NOp   1
 Largest concise Abelian subgroup C1      NOp   1
                         Standard orientation:                         
 ---------------------------------------------------------------------
 Center     Atomic      Atomic             Coordinates (Angstroms)
 Number     Number       Type             X           Y           Z
 ---------------------------------------------------------------------
      1          6           0       -1.888885   -0.089632   -0.093233
      2          6           0       -0.534782    0.386107    0.201936
      3          1           0       -2.897953    0.971849   -0.478287
      4          1           0       -2.347942   -0.870368    0.622293
      5          1           0       -1.439066   -0.665279   -1.038680
      6          6           0        0.491180   -0.525457    0.065319
      7          1           0       -0.502463    1.165072    1.200698
      8          1           0       -0.497907    1.125524   -0.734514
      9          6           0        1.928509    0.108397   -0.064424
     10          1           0        0.446297   -0.913174   -0.795707
     11          1           0        0.250957   -1.211038    0.914619
     12          1           0        2.167842    0.935185   -1.021613
     13          1           0        2.673531   -0.478045   -0.317401
     14          1           0        2.170578    0.663787    0.991002
 ---------------------------------------------------------------------
 Rotational constants (GHZ):     22.9455522      3.7341085      3.5751436
 Leave Link  202 at Wed Aug 26 18:50:43 2020, MaxMem=  2097152000 cpu:         0.0
 (Enter /opt/cluster/programs/g09/g09_d.01/g09/l301.exe)
 Standard basis: def2QZVP (5D, 7F)
 Ernie: Thresh=  0.10000D-02 Tol=  0.10000D-05 Strict=F.
 There are   638 symmetry adapted cartesian basis functions of A   symmetry.
 There are   528 symmetry adapted basis functions of A   symmetry.
   528 basis functions,   748 primitive gaussians,   638 cartesian basis functions
    17 alpha electrons       17 beta electrons
       nuclear repulsion energy       131.3579021032 Hartrees.
 IExCor=  419 DFT=T Ex+Corr=B2PLYPD3 ExCW=0 ScaHFX=  0.530000
 ScaDFX=  0.470000  0.470000  0.730000  0.730000 ScalE2=  0.270000  0.270000
 IRadAn=      0 IRanWt=     -1 IRanGd=            0 ICorTp=0 IEmpDi=141
 NAtoms=   14 NActive=   14 NUniq=   14 SFac= 1.00D+00 NAtFMM=   60 NAOKFM=F Big=F
 Integral buffers will be    131072 words long.
 Regular integral format.
 Two-electron integral symmetry is turned on.
 R6Disp:  Grimme-D3(BJ) Dispersion energy=       -0.0069005438 Hartrees.
 Nuclear repulsion after empirical dispersion term =      131.3510015594 Hartrees.
 Leave Link  301 at Wed Aug 26 18:50:43 2020, MaxMem=  2097152000 cpu:         0.4
 (Enter /opt/cluster/programs/g09/g09_d.01/g09/l302.exe)
 NPDir=0 NMtPBC=     1 NCelOv=     1 NCel=       1 NClECP=     1 NCelD=      1
         NCelK=      1 NCelE2=     1 NClLst=     1 CellRange=     0.0.
 One-electron integrals computed using PRISM.
   1 Symmetry operations used in ECPInt.
 ECPInt:  NShTT=   14196 NPrTT=   30597 LenC2=   13881 LenP2D=   26015.
 LDataN:  DoStor=T MaxTD1= 8 Len=  415
 NBasis=   528 RedAO= T EigKep=  3.77D-05  NBF=   528
 NBsUse=   528 1.00D-06 EigRej= -1.00D+00 NBFU=   528
 Precomputing XC quadrature grid using
 IXCGrd= 4 IRadAn=           0 IRanWt=          -1 IRanGd=           0 AccXCQ= 0.00D+00.
 Generated NRdTot=       0 NPtTot=           0 NUsed=           0 NTot=          32
 NSgBfM=   638   638   638   638   638 MxSgAt=    14 MxSgA2=    14.
 Leave Link  302 at Wed Aug 26 18:50:44 2020, MaxMem=  2097152000 cpu:         4.7
 (Enter /opt/cluster/programs/g09/g09_d.01/g09/l303.exe)
 DipDrv:  MaxL=1.
 Leave Link  303 at Wed Aug 26 18:50:44 2020, MaxMem=  2097152000 cpu:         0.5
 (Enter /opt/cluster/programs/g09/g09_d.01/g09/l401.exe)
 ExpMin= 7.60D-02 ExpMax= 6.70D+04 ExpMxC= 6.47D+02 IAcc=2 IRadAn=         4 AccDes= 0.00D+00
 Harris functional with IExCor=  419 and IRadAn=       4 diagonalized for initial guess.
 HarFok:  IExCor=  419 AccDes= 0.00D+00 IRadAn=         4 IDoV= 1 UseB2=F ITyADJ=14
 ICtDFT=  3500011 ScaDFX=  1.000000  1.000000  1.000000  1.000000
 FoFCou: FMM=F IPFlag=           0 FMFlag=      100000 FMFlg1=           0
         NFxFlg=           0 DoJE=T BraDBF=F KetDBF=T FulRan=T
         wScrn=  0.000000 ICntrl=     500 IOpCl=  0 I1Cent=   200000004 NGrid=           0
         NMat0=    1 NMatS0=      1 NMatT0=    0 NMatD0=    1 NMtDS0=    0 NMtDT0=    0
 Petite list used in FoFCou.
 Harris En= -158.412720759417    
 JPrj=0 DoOrth=F DoCkMO=F.
 Leave Link  401 at Wed Aug 26 18:50:46 2020, MaxMem=  2097152000 cpu:        14.9
 (Enter /opt/cluster/programs/g09/g09_d.01/g09/l502.exe)
 Closed shell SCF:
 Using DIIS extrapolation, IDIIS=  1040.
 Integral symmetry usage will be decided dynamically.
 IVT=     1249338 IEndB=     1249338 NGot=  2097152000 MDV=  2096326985
 LenX=  2096326985 LenY=  2095919303
 Requested convergence on RMS density matrix=1.00D-08 within 128 cycles.
 Requested convergence on MAX density matrix=1.00D-06.
 Requested convergence on             energy=1.00D-06.
 No special actions if energy rises.
 Fock matrices will be formed incrementally for  20 cycles.
 Integral accuracy reduced to 1.0D-05 until final iterations.

 Cycle   1  Pass 0  IDiag  1:
 FoFJK:  IHMeth= 1 ICntrl=       0 DoSepK=F KAlg= 0 I1Cent=   0 FoldK=F
 IRaf= 940000000 NMat=   1 IRICut=       1 DoRegI=T DoRafI=F ISym2E= 0.
 FoFCou: FMM=F IPFlag=           0 FMFlag=      100000 FMFlg1=           0
         NFxFlg=           0 DoJE=F BraDBF=F KetDBF=F FulRan=T
         wScrn=  0.000000 ICntrl=       0 IOpCl=  0 I1Cent=           0 NGrid=           0
         NMat0=    1 NMatS0=      1 NMatT0=    0 NMatD0=    1 NMtDS0=    0 NMtDT0=    0
 Symmetry not used in FoFCou.
 E= -157.662195410831    
 DIIS: error= 2.76D-02 at cycle   1 NSaved=   1.
 NSaved= 1 IEnMin= 1 EnMin= -157.662195410831     IErMin= 1 ErrMin= 2.76D-02
 ErrMax= 2.76D-02  0.00D+00 EMaxC= 1.00D-01 BMatC= 3.32D-01 BMatP= 3.32D-01
 IDIUse=3 WtCom= 7.24D-01 WtEn= 2.76D-01
 Coeff-Com:  0.100D+01
 Coeff-En:   0.100D+01
 Coeff:      0.100D+01
 Gap=     0.351 Goal=   None    Shift=    0.000
 GapD=    0.351 DampG=1.000 DampE=0.500 DampFc=0.5000 IDamp=-1.
 Damping current iteration by 5.00D-01
 RMSDP=1.12D-03 MaxDP=8.03D-02              OVMax= 2.03D-01

 Cycle   2  Pass 0  IDiag  1:
 RMSU=  5.39D-04    CP:  9.48D-01
 E= -157.792496315492     Delta-E=       -0.130300904661 Rises=F Damp=T
 DIIS: error= 5.16D-03 at cycle   2 NSaved=   2.
 NSaved= 2 IEnMin= 2 EnMin= -157.792496315492     IErMin= 2 ErrMin= 5.16D-03
 ErrMax= 5.16D-03  0.00D+00 EMaxC= 1.00D-01 BMatC= 3.12D-02 BMatP= 3.32D-01
 IDIUse=3 WtCom= 9.48D-01 WtEn= 5.16D-02
 Coeff-Com: -0.108D+00 0.111D+01
 Coeff-En:   0.000D+00 0.100D+01
 Coeff:     -0.103D+00 0.110D+01
 Gap=     0.442 Goal=   None    Shift=    0.000
 RMSDP=3.17D-04 MaxDP=1.64D-02 DE=-1.30D-01 OVMax= 1.21D-01

 Cycle   3  Pass 0  IDiag  1:
 RMSU=  2.80D-04    CP:  9.35D-01  7.35D-01
 E= -157.925457403813     Delta-E=       -0.132961088321 Rises=F Damp=F
 DIIS: error= 4.23D-03 at cycle   3 NSaved=   3.
 NSaved= 3 IEnMin= 3 EnMin= -157.925457403813     IErMin= 3 ErrMin= 4.23D-03
 ErrMax= 4.23D-03  0.00D+00 EMaxC= 1.00D-01 BMatC= 4.42D-03 BMatP= 3.12D-02
 IDIUse=3 WtCom= 9.58D-01 WtEn= 4.23D-02
 Coeff-Com: -0.111D+00 0.232D+00 0.879D+00
 Coeff-En:   0.000D+00 0.000D+00 0.100D+01
 Coeff:     -0.106D+00 0.223D+00 0.884D+00
 Gap=     0.381 Goal=   None    Shift=    0.000
 RMSDP=7.92D-05 MaxDP=7.38D-03 DE=-1.33D-01 OVMax= 1.96D-02

 Cycle   4  Pass 0  IDiag  1:
 RMSU=  6.04D-05    CP:  9.29D-01  8.25D-01  1.02D+00
 E= -157.929889061032     Delta-E=       -0.004431657219 Rises=F Damp=F
 DIIS: error= 8.33D-04 at cycle   4 NSaved=   4.
 NSaved= 4 IEnMin= 4 EnMin= -157.929889061032     IErMin= 4 ErrMin= 8.33D-04
 ErrMax= 8.33D-04  0.00D+00 EMaxC= 1.00D-01 BMatC= 4.05D-04 BMatP= 4.42D-03
 IDIUse=3 WtCom= 9.92D-01 WtEn= 8.33D-03
 Coeff-Com: -0.384D-01 0.588D-01 0.357D+00 0.623D+00
 Coeff-En:   0.000D+00 0.000D+00 0.000D+00 0.100D+01
 Coeff:     -0.381D-01 0.583D-01 0.354D+00 0.626D+00
 Gap=     0.383 Goal=   None    Shift=    0.000
 RMSDP=2.26D-05 MaxDP=1.78D-03 DE=-4.43D-03 OVMax= 4.73D-03

 Cycle   5  Pass 0  IDiag  1:
 RMSU=  1.70D-05    CP:  9.30D-01  8.10D-01  1.04D+00  8.32D-01
 E= -157.930273170203     Delta-E=       -0.000384109171 Rises=F Damp=F
 DIIS: error= 2.10D-04 at cycle   5 NSaved=   5.
 NSaved= 5 IEnMin= 5 EnMin= -157.930273170203     IErMin= 5 ErrMin= 2.10D-04
 ErrMax= 2.10D-04  0.00D+00 EMaxC= 1.00D-01 BMatC= 1.63D-05 BMatP= 4.05D-04
 IDIUse=3 WtCom= 9.98D-01 WtEn= 2.10D-03
 Coeff-Com: -0.276D-02-0.330D-03 0.422D-01 0.192D+00 0.769D+00
 Coeff-En:   0.000D+00 0.000D+00 0.000D+00 0.000D+00 0.100D+01
 Coeff:     -0.275D-02-0.329D-03 0.421D-01 0.192D+00 0.769D+00
 Gap=     0.383 Goal=   None    Shift=    0.000
 RMSDP=6.35D-06 MaxDP=3.69D-04 DE=-3.84D-04 OVMax= 1.14D-03

 Initial convergence to 1.0D-05 achieved.  Increase integral accuracy.
 Cycle   6  Pass 1  IDiag  1:
 E= -157.930279366458     Delta-E=       -0.000006196255 Rises=F Damp=F
 DIIS: error= 5.13D-05 at cycle   1 NSaved=   1.
 NSaved= 1 IEnMin= 1 EnMin= -157.930279366458     IErMin= 1 ErrMin= 5.13D-05
 ErrMax= 5.13D-05  0.00D+00 EMaxC= 1.00D-01 BMatC= 9.21D-07 BMatP= 9.21D-07
 IDIUse=1 WtCom= 1.00D+00 WtEn= 0.00D+00
 Coeff-Com:  0.100D+01
 Coeff:      0.100D+01
 Gap=     0.383 Goal=   None    Shift=    0.000
 RMSDP=6.35D-06 MaxDP=3.69D-04 DE=-6.20D-06 OVMax= 3.06D-04

 Cycle   7  Pass 1  IDiag  1:
 RMSU=  1.66D-05    CP:  1.00D+00
 E= -157.930279955210     Delta-E=       -0.000000588753 Rises=F Damp=F
 DIIS: error= 2.37D-05 at cycle   2 NSaved=   2.
 NSaved= 2 IEnMin= 2 EnMin= -157.930279955210     IErMin= 2 ErrMin= 2.37D-05
 ErrMax= 2.37D-05  0.00D+00 EMaxC= 1.00D-01 BMatC= 3.18D-07 BMatP= 9.21D-07
 IDIUse=1 WtCom= 1.00D+00 WtEn= 0.00D+00
 Coeff-Com:  0.336D+00 0.664D+00
 Coeff:      0.336D+00 0.664D+00
 Gap=     0.383 Goal=   None    Shift=    0.000
 RMSDP=7.78D-07 MaxDP=6.78D-05 DE=-5.89D-07 OVMax= 1.57D-04

 Cycle   8  Pass 1  IDiag  1:
 RMSU=  7.06D-07    CP:  1.00D+00  1.02D+00
 E= -157.930280249184     Delta-E=       -0.000000293974 Rises=F Damp=F
 DIIS: error= 8.67D-06 at cycle   3 NSaved=   3.
 NSaved= 3 IEnMin= 3 EnMin= -157.930280249184     IErMin= 3 ErrMin= 8.67D-06
 ErrMax= 8.67D-06  0.00D+00 EMaxC= 1.00D-01 BMatC= 3.63D-08 BMatP= 3.18D-07
 IDIUse=1 WtCom= 1.00D+00 WtEn= 0.00D+00
 Coeff-Com: -0.299D-01 0.223D+00 0.807D+00
 Coeff:     -0.299D-01 0.223D+00 0.807D+00
 Gap=     0.383 Goal=   None    Shift=    0.000
 RMSDP=3.43D-07 MaxDP=2.48D-05 DE=-2.94D-07 OVMax= 5.19D-05

 Cycle   9  Pass 1  IDiag  1:
 RMSU=  2.49D-07    CP:  1.00D+00  1.03D+00  8.93D-01
 E= -157.930280288610     Delta-E=       -0.000000039425 Rises=F Damp=F
 DIIS: error= 1.50D-06 at cycle   4 NSaved=   4.
 NSaved= 4 IEnMin= 4 EnMin= -157.930280288610     IErMin= 4 ErrMin= 1.50D-06
 ErrMax= 1.50D-06  0.00D+00 EMaxC= 1.00D-01 BMatC= 1.42D-09 BMatP= 3.63D-08
 IDIUse=1 WtCom= 1.00D+00 WtEn= 0.00D+00
 Coeff-Com: -0.225D-01 0.419D-01 0.236D+00 0.744D+00
 Coeff:     -0.225D-01 0.419D-01 0.236D+00 0.744D+00
 Gap=     0.383 Goal=   None    Shift=    0.000
 RMSDP=6.42D-08 MaxDP=3.53D-06 DE=-3.94D-08 OVMax= 1.25D-05

 Cycle  10  Pass 1  IDiag  1:
 RMSU=  5.27D-08    CP:  1.00D+00  1.03D+00  9.28D-01  1.11D+00
 E= -157.930280290215     Delta-E=       -0.000000001605 Rises=F Damp=F
 DIIS: error= 5.67D-07 at cycle   5 NSaved=   5.
 NSaved= 5 IEnMin= 5 EnMin= -157.930280290215     IErMin= 5 ErrMin= 5.67D-07
 ErrMax= 5.67D-07  0.00D+00 EMaxC= 1.00D-01 BMatC= 1.64D-10 BMatP= 1.42D-09
 IDIUse=1 WtCom= 1.00D+00 WtEn= 0.00D+00
 Coeff-Com: -0.213D-02-0.190D-01-0.512D-01 0.198D+00 0.874D+00
 Coeff:     -0.213D-02-0.190D-01-0.512D-01 0.198D+00 0.874D+00
 Gap=     0.383 Goal=   None    Shift=    0.000
 RMSDP=3.21D-08 MaxDP=1.95D-06 DE=-1.61D-09 OVMax= 5.07D-06

 Cycle  11  Pass 1  IDiag  1:
 RMSU=  1.70D-08    CP:  1.00D+00  1.03D+00  9.36D-01  1.21D+00  1.06D+00
 E= -157.930280290427     Delta-E=       -0.000000000212 Rises=F Damp=F
 DIIS: error= 1.83D-07 at cycle   6 NSaved=   6.
 NSaved= 6 IEnMin= 6 EnMin= -157.930280290427     IErMin= 6 ErrMin= 1.83D-07
 ErrMax= 1.83D-07  0.00D+00 EMaxC= 1.00D-01 BMatC= 1.00D-11 BMatP= 1.64D-10
 IDIUse=1 WtCom= 1.00D+00 WtEn= 0.00D+00
 Coeff-Com:  0.708D-03-0.813D-02-0.300D-01 0.194D-01 0.278D+00 0.740D+00
 Coeff:      0.708D-03-0.813D-02-0.300D-01 0.194D-01 0.278D+00 0.740D+00
 Gap=     0.383 Goal=   None    Shift=    0.000
 RMSDP=5.89D-09 MaxDP=2.47D-07 DE=-2.12D-10 OVMax= 1.03D-06

 SCF Done:  E(RB2PLYPD3) =  -157.930280290     A.U. after   11 cycles
            NFock= 11  Conv=0.59D-08     -V/T= 2.0052
 KE= 1.571178171637D+02 PE=-6.277759517515D+02 EE= 1.813768527380D+02
 Leave Link  502 at Wed Aug 26 18:56:50 2020, MaxMem=  2097152000 cpu:      2900.5
 (Enter /opt/cluster/programs/g09/g09_d.01/g09/l801.exe)
 DoSCS=T DFT=T ScalE2(SS,OS)=  0.270000  0.270000
 ExpMin= 7.60D-02 ExpMax= 6.70D+04 ExpMxC= 6.47D+02 IAcc=3 IRadAn=         5 AccDes= 0.00D+00
 HarFok:  IExCor=  205 AccDes= 0.00D+00 IRadAn=         5 IDoV=-2 UseB2=F ITyADJ=14
 ICtDFT= 12500011 ScaDFX=  1.000000  1.000000  1.000000  1.000000
 Largest valence mixing into a core orbital is  1.22D-04
 Largest core mixing into a valence orbital is  1.75D-05
 Range of M.O.s used for correlation:     5   528
 NBasis=   528 NAE=    17 NBE=    17 NFC=     4 NFV=     0
 NROrb=    524 NOA=    13 NOB=    13 NVA=   511 NVB=   511

 **** Warning!!: The largest alpha MO coefficient is  0.26885176D+02

 Leave Link  801 at Wed Aug 26 18:56:50 2020, MaxMem=  2097152000 cpu:         1.2
 (Enter /opt/cluster/programs/g09/g09_d.01/g09/l906.exe)
 DoSCS=T DFT=T ScalE2(SS,OS)=  0.270000  0.270000
 FulOut=F Deriv=F AODrv=F NAtomX=    14
   MMem=         463  MDisk=          13 MDiskD=          13
  W3Min=     4238234 MinDsk=     6904766 NBas6D=         638
 NBas2D=      205689    NTT=      203841    LW2=     4508827
    MDV=  2095897592 MDiskM=        7293 NBas2p=      190398
 Fully direct method using O(OVN) memory.
 IMap=   1   2   3   4   5   6   7   8   9  10  11  12  13
 JobTyp=1 Pass  1:  I=   1 to  13 NPSUse=  8 ParTrn=T ParDer=T DoDerP=F.
 Spin components of T(2) and E(2):
     alpha-alpha T2 =       0.4343490115D-01 E2=     -0.2703158174D-01
     alpha-beta  T2 =       0.2962355358D+00 E2=     -0.1999132570D+00
     beta-beta   T2 =       0.4343490115D-01 E2=     -0.2703158174D-01
 The integrals were generated   1 times.
 E2(B2PLYPD3) =    -0.2539764205D+00 E(B2PLYPD3) =    -0.15818425671094D+03
 Leave Link  906 at Wed Aug 26 19:00:50 2020, MaxMem=  2097152000 cpu:      1919.9
 (Enter /opt/cluster/programs/g09/g09_d.01/g09/l601.exe)
 Copying SCF densities to generalized density rwf, IOpCl= 0 IROHF=0.

 **********************************************************************

            Population analysis using the SCF density.

 **********************************************************************

 Orbital symmetries:
       Occupied  (A) (A) (A) (A) (A) (A) (A) (A) (A) (A) (A) (A)
                 (A) (A) (A) (A) (A)
       Virtual   (A) (A) (A) (A) (A) (A) (A) (A) (A) (A) (A) (A)
                 (A) (A) (A) (A) (A) (A) (A) (A) (A) (A) (A) (A)
                 (A) (A) (A) (A) (A) (A) (A) (A) (A) (A) (A) (A)
                 (A) (A) (A) (A) (A) (A) (A) (A) (A) (A) (A) (A)
                 (A) (A) (A) (A) (A) (A) (A) (A) (A) (A) (A) (A)
                 (A) (A) (A) (A) (A) (A) (A) (A) (A) (A) (A) (A)
                 (A) (A) (A) (A) (A) (A) (A) (A) (A) (A) (A) (A)
                 (A) (A) (A) (A) (A) (A) (A) (A) (A) (A) (A) (A)
                 (A) (A) (A) (A) (A) (A) (A) (A) (A) (A) (A) (A)
                 (A) (A) (A) (A) (A) (A) (A) (A) (A) (A) (A) (A)
                 (A) (A) (A) (A) (A) (A) (A) (A) (A) (A) (A) (A)
                 (A) (A) (A) (A) (A) (A) (A) (A) (A) (A) (A) (A)
                 (A) (A) (A) (A) (A) (A) (A) (A) (A) (A) (A) (A)
                 (A) (A) (A) (A) (A) (A) (A) (A) (A) (A) (A) (A)
                 (A) (A) (A) (A) (A) (A) (A) (A) (A) (A) (A) (A)
                 (A) (A) (A) (A) (A) (A) (A) (A) (A) (A) (A) (A)
                 (A) (A) (A) (A) (A) (A) (A) (A) (A) (A) (A) (A)
                 (A) (A) (A) (A) (A) (A) (A) (A) (A) (A) (A) (A)
                 (A) (A) (A) (A) (A) (A) (A) (A) (A) (A) (A) (A)
                 (A) (A) (A) (A) (A) (A) (A) (A) (A) (A) (A) (A)
                 (A) (A) (A) (A) (A) (A) (A) (A) (A) (A) (A) (A)
                 (A) (A) (A) (A) (A) (A) (A) (A) (A) (A) (A) (A)
                 (A) (A) (A) (A) (A) (A) (A) (A) (A) (A) (A) (A)
                 (A) (A) (A) (A) (A) (A) (A) (A) (A) (A) (A) (A)
                 (A) (A) (A) (A) (A) (A) (A) (A) (A) (A) (A) (A)
                 (A) (A) (A) (A) (A) (A) (A) (A) (A) (A) (A) (A)
                 (A) (A) (A) (A) (A) (A) (A) (A) (A) (A) (A) (A)
                 (A) (A) (A) (A) (A) (A) (A) (A) (A) (A) (A) (A)
                 (A) (A) (A) (A) (A) (A) (A) (A) (A) (A) (A) (A)
                 (A) (A) (A) (A) (A) (A) (A) (A) (A) (A) (A) (A)
                 (A) (A) (A) (A) (A) (A) (A) (A) (A) (A) (A) (A)
                 (A) (A) (A) (A) (A) (A) (A) (A) (A) (A) (A) (A)
                 (A) (A) (A) (A) (A) (A) (A) (A) (A) (A) (A) (A)
                 (A) (A) (A) (A) (A) (A) (A) (A) (A) (A) (A) (A)
                 (A) (A) (A) (A) (A) (A) (A) (A) (A) (A) (A) (A)
                 (A) (A) (A) (A) (A) (A) (A) (A) (A) (A) (A) (A)
                 (A) (A) (A) (A) (A) (A) (A) (A) (A) (A) (A) (A)
                 (A) (A) (A) (A) (A) (A) (A) (A) (A) (A) (A) (A)
                 (A) (A) (A) (A) (A) (A) (A) (A) (A) (A) (A) (A)
                 (A) (A) (A) (A) (A) (A) (A) (A) (A) (A) (A) (A)
                 (A) (A) (A) (A) (A) (A) (A) (A) (A) (A) (A) (A)
                 (A) (A) (A) (A) (A) (A) (A) (A) (A) (A) (A) (A)
                 (A) (A) (A) (A) (A) (A) (A)
 The electronic state is 1-A.
 Alpha  occ. eigenvalues --  -10.65378 -10.62812 -10.62382 -10.60028  -0.95463
 Alpha  occ. eigenvalues --   -0.82936  -0.73198  -0.64310  -0.57418  -0.50688
 Alpha  occ. eigenvalues --   -0.48930  -0.46420  -0.41449  -0.39734  -0.37741
 Alpha  occ. eigenvalues --   -0.36191  -0.34503
 Alpha virt. eigenvalues --    0.03780   0.05632   0.07560   0.07635   0.09400
 Alpha virt. eigenvalues --    0.10881   0.12236   0.12700   0.14128   0.14694
 Alpha virt. eigenvalues --    0.15153   0.16276   0.18932   0.20200   0.20876
 Alpha virt. eigenvalues --    0.21789   0.23616   0.23796   0.25280   0.27619
 Alpha virt. eigenvalues --    0.27738   0.29948   0.32237   0.32320   0.33173
 Alpha virt. eigenvalues --    0.34133   0.34943   0.35514   0.37629   0.38000
 Alpha virt. eigenvalues --    0.39172   0.41281   0.42813   0.45130   0.47313
 Alpha virt. eigenvalues --    0.49279   0.50270   0.53054   0.53659   0.55750
 Alpha virt. eigenvalues --    0.59070   0.62263   0.63977   0.64732   0.66720
 Alpha virt. eigenvalues --    0.67236   0.68440   0.70199   0.71195   0.71738
 Alpha virt. eigenvalues --    0.73453   0.73510   0.74240   0.76885   0.78666
 Alpha virt. eigenvalues --    0.79646   0.80092   0.82633   0.84843   0.85643
 Alpha virt. eigenvalues --    0.87991   0.88878   0.89587   0.90136   0.91882
 Alpha virt. eigenvalues --    0.92672   0.94198   0.94644   0.95623   0.97085
 Alpha virt. eigenvalues --    0.97885   0.99474   1.00548   1.01335   1.02835
 Alpha virt. eigenvalues --    1.03227   1.06279   1.08785   1.09875   1.11755
 Alpha virt. eigenvalues --    1.12311   1.13861   1.15165   1.16166   1.17159
 Alpha virt. eigenvalues --    1.19726   1.21484   1.24099   1.25130   1.25991
 Alpha virt. eigenvalues --    1.28135   1.30102   1.32519   1.34919   1.36183
 Alpha virt. eigenvalues --    1.37204   1.39633   1.39861   1.41518   1.42560
 Alpha virt. eigenvalues --    1.44500   1.47165   1.48390   1.51041   1.52439
 Alpha virt. eigenvalues --    1.58776   1.60735   1.64556   1.69637   1.74587
 Alpha virt. eigenvalues --    1.78251   1.82074   1.85029   1.87116   1.87865
 Alpha virt. eigenvalues --    1.90337   1.91891   1.93405   1.94619   1.96861
 Alpha virt. eigenvalues --    1.97934   1.99560   2.00199   2.01405   2.04043
 Alpha virt. eigenvalues --    2.05727   2.06690   2.08663   2.09124   2.11497
 Alpha virt. eigenvalues --    2.12057   2.12770   2.13810   2.15212   2.17422
 Alpha virt. eigenvalues --    2.18162   2.19083   2.19558   2.21952   2.23349
 Alpha virt. eigenvalues --    2.24058   2.25955   2.27923   2.30074   2.31177
 Alpha virt. eigenvalues --    2.31571   2.33607   2.34724   2.37272   2.37730
 Alpha virt. eigenvalues --    2.39664   2.40382   2.42957   2.44309   2.45614
 Alpha virt. eigenvalues --    2.47832   2.48783   2.50254   2.52362   2.53565
 Alpha virt. eigenvalues --    2.56027   2.57110   2.59474   2.60037   2.62089
 Alpha virt. eigenvalues --    2.62996   2.64210   2.64977   2.67542   2.68195
 Alpha virt. eigenvalues --    2.70084   2.72041   2.72785   2.73858   2.76273
 Alpha virt. eigenvalues --    2.77410   2.78462   2.79563   2.81761   2.81902
 Alpha virt. eigenvalues --    2.84130   2.85719   2.87069   2.89084   2.90840
 Alpha virt. eigenvalues --    2.91523   2.94989   2.97463   2.99104   2.99760
 Alpha virt. eigenvalues --    3.01783   3.03827   3.04949   3.07895   3.09458
 Alpha virt. eigenvalues --    3.10687   3.11199   3.13538   3.14410   3.16274
 Alpha virt. eigenvalues --    3.17375   3.20082   3.23005   3.23601   3.25636
 Alpha virt. eigenvalues --    3.27567   3.30316   3.32303   3.34304   3.35374
 Alpha virt. eigenvalues --    3.37922   3.39122   3.39320   3.40942   3.43472
 Alpha virt. eigenvalues --    3.44007   3.48822   3.50495   3.53022   3.55096
 Alpha virt. eigenvalues --    3.57737   3.59740   3.64703   3.67850   3.68636
 Alpha virt. eigenvalues --    3.70804   3.72050   3.73730   3.75257   3.79329
 Alpha virt. eigenvalues --    3.81056   3.86308   3.87729   3.92287   3.92942
 Alpha virt. eigenvalues --    3.98007   4.00441   4.01683   4.09203   4.09799
 Alpha virt. eigenvalues --    4.12542   4.13677   4.16114   4.19893   4.22266
 Alpha virt. eigenvalues --    4.26556   4.32254   4.35280   4.39348   4.45880
 Alpha virt. eigenvalues --    4.52939   4.60130   4.75895   4.90500   5.09399
 Alpha virt. eigenvalues --    5.12106   5.13658   5.16302   5.22959   5.25333
 Alpha virt. eigenvalues --    5.26036   5.33831   5.36926   5.39756   5.47665
 Alpha virt. eigenvalues --    5.50160   5.55201   5.55861   5.59633   5.62363
 Alpha virt. eigenvalues --    5.66056   5.67122   5.70118   5.72338   5.73761
 Alpha virt. eigenvalues --    5.76922   5.77813   5.80397   5.83383   5.84695
 Alpha virt. eigenvalues --    5.85736   5.86767   5.88009   5.92109   5.92896
 Alpha virt. eigenvalues --    5.93748   5.94131   5.95141   5.98596   6.00031
 Alpha virt. eigenvalues --    6.01356   6.02235   6.03329   6.03783   6.04872
 Alpha virt. eigenvalues --    6.05688   6.07757   6.09261   6.10911   6.12070
 Alpha virt. eigenvalues --    6.13521   6.15882   6.17938   6.18642   6.20724
 Alpha virt. eigenvalues --    6.22046   6.22738   6.24838   6.26243   6.28376
 Alpha virt. eigenvalues --    6.31334   6.31869   6.33308   6.37045   6.38090
 Alpha virt. eigenvalues --    6.38688   6.41795   6.43051   6.44314   6.46165
 Alpha virt. eigenvalues --    6.49767   6.50859   6.52508   6.53409   6.58227
 Alpha virt. eigenvalues --    6.60654   6.62489   6.63146   6.63641   6.65995
 Alpha virt. eigenvalues --    6.69982   6.70605   6.72213   6.75300   6.76992
 Alpha virt. eigenvalues --    6.78615   6.81886   6.82326   6.83479   6.85969
 Alpha virt. eigenvalues --    6.87503   6.90627   6.92345   6.94733   6.96408
 Alpha virt. eigenvalues --    6.98950   7.01594   7.03385   7.04307   7.05858
 Alpha virt. eigenvalues --    7.06440   7.11083   7.13422   7.14459   7.19797
 Alpha virt. eigenvalues --    7.24656   7.24860   7.26661   7.27540   7.30548
 Alpha virt. eigenvalues --    7.32775   7.36538   7.37815   7.39442   7.41740
 Alpha virt. eigenvalues --    7.45152   7.47729   7.49294   7.53960   7.54172
 Alpha virt. eigenvalues --    7.57506   7.60010   7.61092   7.62704   7.66585
 Alpha virt. eigenvalues --    7.68898   7.68994   7.71053   7.72122   7.73271
 Alpha virt. eigenvalues --    7.76406   7.78187   7.79806   7.81546   7.83538
 Alpha virt. eigenvalues --    7.83927   7.86728   7.86882   7.89343   7.92052
 Alpha virt. eigenvalues --    7.92319   7.95429   7.96201   7.98962   7.99054
 Alpha virt. eigenvalues --    8.00947   8.01321   8.03626   8.06417   8.08450
 Alpha virt. eigenvalues --    8.11577   8.12915   8.14568   8.16390   8.16802
 Alpha virt. eigenvalues --    8.21180   8.23377   8.24434   8.25112   8.28877
 Alpha virt. eigenvalues --    8.30525   8.31352   8.34115   8.35801   8.38687
 Alpha virt. eigenvalues --    8.39923   8.42115   8.44897   8.45233   8.47459
 Alpha virt. eigenvalues --    8.49448   8.49971   8.52023   8.54784   8.56565
 Alpha virt. eigenvalues --    8.58300   8.60971   8.63328   8.67893   8.68781
 Alpha virt. eigenvalues --    8.70705   8.73599   8.75947   8.76885   8.78098
 Alpha virt. eigenvalues --    8.79759   8.82422   8.82748   8.84817   8.86189
 Alpha virt. eigenvalues --    8.91159   8.92555   8.92901   8.95611   8.98382
 Alpha virt. eigenvalues --    8.99792   9.02370   9.05407   9.08013   9.08595
 Alpha virt. eigenvalues --    9.13262   9.15912   9.17731   9.18857   9.22990
 Alpha virt. eigenvalues --    9.30087   9.32213   9.35639   9.36227   9.38604
 Alpha virt. eigenvalues --    9.39128   9.42037   9.44564   9.47555   9.50398
 Alpha virt. eigenvalues --    9.54429   9.56221   9.61885   9.62921   9.65371
 Alpha virt. eigenvalues --    9.66686   9.69017   9.70326   9.75076   9.78383
 Alpha virt. eigenvalues --    9.79885   9.82061   9.86930   9.87931   9.91397
 Alpha virt. eigenvalues --   10.00322  10.02682  10.11503  10.15471  10.25320
 Alpha virt. eigenvalues --   10.29433  10.38663  10.67699  10.71154  10.95144
 Alpha virt. eigenvalues --   11.03407  11.17589  11.28342  11.30587  11.38648
 Alpha virt. eigenvalues --   11.56505  11.73989  11.77338  11.99525  12.21804
 Alpha virt. eigenvalues --   12.28723  12.51134  13.07031  28.98108  29.21814
 Alpha virt. eigenvalues --   29.26416  29.69089 148.57342 148.87092 148.92099
 Alpha virt. eigenvalues --  149.41970
          Condensed to atoms (all electrons):
               1          2          3          4          5          6
     1  C    4.852952   0.350492   0.377899   0.395326   0.379463  -0.056903
     2  C    0.350492   4.895465  -0.029966  -0.047330  -0.084508   0.345933
     3  H    0.377899  -0.029966   0.680730  -0.031631  -0.016629   0.008057
     4  H    0.395326  -0.047330  -0.031631   0.656467  -0.034340  -0.003611
     5  H    0.379463  -0.084508  -0.016629  -0.034340   0.729433  -0.022892
     6  C   -0.056903   0.345933   0.008057  -0.003611  -0.022892   4.815360
     7  H   -0.053114   0.395241  -0.000898  -0.005962   0.017772  -0.049985
     8  H   -0.069468   0.403709  -0.016378   0.014708  -0.024029  -0.059535
     9  C    0.009835  -0.053439  -0.000533  -0.000609   0.001417   0.392871
    10  H   -0.016573  -0.049190   0.000695  -0.000365   0.008064   0.413782
    11  H   -0.002533  -0.083386  -0.000910   0.008755  -0.003149   0.403775
    12  H    0.000109  -0.005620  -0.000038  -0.000023   0.000240  -0.024274
    13  H   -0.000630   0.008021   0.000017   0.000051   0.000076  -0.037775
    14  H   -0.000448  -0.003436   0.000040   0.000044  -0.000152  -0.052828
               7          8          9         10         11         12
     1  C   -0.053114  -0.069468   0.009835  -0.016573  -0.002533   0.000109
     2  C    0.395241   0.403709  -0.053439  -0.049190  -0.083386  -0.005620
     3  H   -0.000898  -0.016378  -0.000533   0.000695  -0.000910  -0.000038
     4  H   -0.005962   0.014708  -0.000609  -0.000365   0.008755  -0.000023
     5  H    0.017772  -0.024029   0.001417   0.008064  -0.003149   0.000240
     6  C   -0.049985  -0.059535   0.392871   0.413782   0.403775  -0.024274
     7  H    0.713587  -0.027476  -0.007390   0.012345  -0.008231   0.000434
     8  H   -0.027476   0.743403  -0.015650  -0.014088   0.019471   0.002464
     9  C   -0.007390  -0.015650   4.731920  -0.058555  -0.030708   0.386789
    10  H    0.012345  -0.014088  -0.058555   0.661990  -0.046259  -0.001628
    11  H   -0.008231   0.019471  -0.030708  -0.046259   0.702244   0.005258
    12  H    0.000434   0.002464   0.386789  -0.001628   0.005258   0.691052
    13  H    0.000154   0.000630   0.403477  -0.004126  -0.003237  -0.054221
    14  H    0.004183   0.000328   0.385171   0.010356  -0.001378  -0.018232
              13         14
     1  C   -0.000630  -0.000448
     2  C    0.008021  -0.003436
     3  H    0.000017   0.000040
     4  H    0.000051   0.000044
     5  H    0.000076  -0.000152
     6  C   -0.037775  -0.052828
     7  H    0.000154   0.004183
     8  H    0.000630   0.000328
     9  C    0.403477   0.385171
    10  H   -0.004126   0.010356
    11  H   -0.003237  -0.001378
    12  H   -0.054221  -0.018232
    13  H    0.646058  -0.025674
    14  H   -0.025674   0.664311
 Mulliken charges:
               1
     1  C   -0.166409
     2  C   -0.041988
     3  H    0.029544
     4  H    0.048518
     5  H    0.049235
     6  C   -0.071975
     7  H    0.009338
     8  H    0.041910
     9  C   -0.144595
    10  H    0.083552
    11  H    0.040288
    12  H    0.017690
    13  H    0.067178
    14  H    0.037714
 Sum of Mulliken charges =   0.00000
 Mulliken charges with hydrogens summed into heavy atoms:
               1
     1  C   -0.039113
     2  C    0.009260
     6  C    0.051866
     9  C   -0.022013
 Electronic spatial extent (au):  <R**2>=            420.8551
 Charge=              0.0000 electrons
 Dipole moment (field-independent basis, Debye):
    X=              0.5036    Y=             -0.5430    Z=             -0.1547  Tot=              0.7565
 Quadrupole moment (field-independent basis, Debye-Ang):
   XX=            -30.8412   YY=            -30.2747   ZZ=            -28.9932
   XY=             -0.4892   XZ=             -1.3248   YZ=             -0.3614
 Traceless Quadrupole moment (field-independent basis, Debye-Ang):
   XX=             -0.8048   YY=             -0.2383   ZZ=              1.0432
   XY=             -0.4892   XZ=             -1.3248   YZ=             -0.3614
 Octapole moment (field-independent basis, Debye-Ang**2):
  XXX=              8.5138  YYY=             -2.5054  ZZZ=              0.3604  XYY=             -0.2892
  XXY=             -0.2474  XXZ=             -0.7330  XZZ=              2.5989  YZZ=             -0.8518
  YYZ=              0.0864  XYZ=              1.7821
 Hexadecapole moment (field-independent basis, Debye-Ang**3):
 XXXX=           -470.3546 YYYY=            -97.6472 ZZZZ=            -72.4401 XXXY=             -7.8571
 XXXZ=            -11.3860 YYYX=             -1.9088 YYYZ=             -0.6478 ZZZX=             -3.2813
 ZZZY=              0.3807 XXYY=            -90.9789 XXZZ=            -90.3897 YYZZ=            -25.7819
 XXYZ=             -3.5603 YYXZ=             -1.7102 ZZXY=              1.2469
 N-N= 1.313510015594D+02 E-N=-6.277759095500D+02  KE= 1.571178171637D+02
 Leave Link  601 at Wed Aug 26 19:00:52 2020, MaxMem=  2097152000 cpu:         1.1
 (Enter /opt/cluster/programs/g09/g09_d.01/g09/l9999.exe)
 1\1\GINC-NODE32\SP\RB2PLYPD3-FC\def2QZVP\C4H10\BOITTIER\26-Aug-2020\0\
 \#p B2PLYPD3/Def2QZVP\\butane_opt\\0,1\C,0,-3.89187,0.226051,0.090595\
 C,0,-2.65337,-0.527153,-0.123526\H,0,-5.078944,-0.572461,0.587043\H,0,
 -4.202113,0.984905,-0.7219\H,0,-3.33457,0.819162,0.96536\C,0,-1.473642
 ,0.186196,-0.083695\H,0,-2.77564,-1.415152,-1.018995\H,0,-2.748298,-1.
 139625,0.896721\C,0,-0.179645,-0.684457,0.144453\H,0,-1.438163,0.67829
 2,0.722709\H,0,-1.587847,0.79494,-1.013979\H,0,-0.091926,-1.417401,1.1
 99048\H,0,0.664109,-0.22114,0.335204\H,0,-0.054428,-1.400744,-0.831371
 \\Version=ES64L-G09RevD.01\State=1-A\HF=-157.9302803\MP2=-158.1842567\
 RMSD=5.894e-09\PG=C01 [X(C4H10)]\\@


 THE 2ND LAW OF THERMODYNAMICS HAS THE SAME
 DEGREE OF TRUTH AS THE STATEMENT THAT IF YOU THROW
 A TUMBLERFULL OF WATER INTO THE SEA, YOU CANNOT GET
 THE SAME TUMBLERFULL OF WATER OUT AGAIN.
          - J.C. MAXWELL, LETTER TO LORD RAYLEIGH, DECEMBER 6,1870
 Job cpu time:       0 days  1 hours 20 minutes 47.3 seconds.
 File lengths (MBytes):  RWF=    152 Int=      0 D2E=      0 Chk=     14 Scr=      1
 Normal termination of Gaussian 09 at Wed Aug 26 19:00:56 2020.
