 Entering Gaussian System, Link 0=/opt/cluster/programs/g09/g09_d.01/g09//g09
 Input=/home/boittier/MDCM/nms_sampling/butane_geom.xyz.dir/energies/butane_opt_2357_energy.com
 Output=/scratch/boittier/butane_opt_2357_energy/butane_opt_2357_energy.out
 Initial command:
 /opt/cluster/programs/g09/g09_d.01/g09/l1.exe "/scratch/boittier/butane_opt_2357_energy/Gau-78173.inp" -scrdir="/scratch/boittier/butane_opt_2357_energy/"
 Entering Link 1 = /opt/cluster/programs/g09/g09_d.01/g09/l1.exe PID=     78174.
  
 Copyright (c) 1988,1990,1992,1993,1995,1998,2003,2009,2013,
            Gaussian, Inc.  All Rights Reserved.
  
 This is part of the Gaussian(R) 09 program.  It is based on
 the Gaussian(R) 03 system (copyright 2003, Gaussian, Inc.),
 the Gaussian(R) 98 system (copyright 1998, Gaussian, Inc.),
 the Gaussian(R) 94 system (copyright 1995, Gaussian, Inc.),
 the Gaussian 92(TM) system (copyright 1992, Gaussian, Inc.),
 the Gaussian 90(TM) system (copyright 1990, Gaussian, Inc.),
 the Gaussian 88(TM) system (copyright 1988, Gaussian, Inc.),
 the Gaussian 86(TM) system (copyright 1986, Carnegie Mellon
 University), and the Gaussian 82(TM) system (copyright 1983,
 Carnegie Mellon University). Gaussian is a federally registered
 trademark of Gaussian, Inc.
  
 This software contains proprietary and confidential information,
 including trade secrets, belonging to Gaussian, Inc.
  
 This software is provided under written license and may be
 used, copied, transmitted, or stored only in accord with that
 written license.
  
 The following legend is applicable only to US Government
 contracts under FAR:
  
                    RESTRICTED RIGHTS LEGEND
  
 Use, reproduction and disclosure by the US Government is
 subject to restrictions as set forth in subparagraphs (a)
 and (c) of the Commercial Computer Software - Restricted
 Rights clause in FAR 52.227-19.
  
 Gaussian, Inc.
 340 Quinnipiac St., Bldg. 40, Wallingford CT 06492
  
  
 ---------------------------------------------------------------
 Warning -- This program may not be used in any manner that
 competes with the business of Gaussian, Inc. or will provide
 assistance to any competitor of Gaussian, Inc.  The licensee
 of this program is prohibited from giving any competitor of
 Gaussian, Inc. access to this program.  By using this program,
 the user acknowledges that Gaussian, Inc. is engaged in the
 business of creating and licensing software in the field of
 computational chemistry and represents and warrants to the
 licensee that it is not a competitor of Gaussian, Inc. and that
 it will not use this program in any manner prohibited above.
 ---------------------------------------------------------------
  

 Cite this work as:
 Gaussian 09, Revision D.01,
 M. J. Frisch, G. W. Trucks, H. B. Schlegel, G. E. Scuseria, 
 M. A. Robb, J. R. Cheeseman, G. Scalmani, V. Barone, B. Mennucci, 
 G. A. Petersson, H. Nakatsuji, M. Caricato, X. Li, H. P. Hratchian, 
 A. F. Izmaylov, J. Bloino, G. Zheng, J. L. Sonnenberg, M. Hada, 
 M. Ehara, K. Toyota, R. Fukuda, J. Hasegawa, M. Ishida, T. Nakajima, 
 Y. Honda, O. Kitao, H. Nakai, T. Vreven, J. A. Montgomery, Jr., 
 J. E. Peralta, F. Ogliaro, M. Bearpark, J. J. Heyd, E. Brothers, 
 K. N. Kudin, V. N. Staroverov, T. Keith, R. Kobayashi, J. Normand, 
 K. Raghavachari, A. Rendell, J. C. Burant, S. S. Iyengar, J. Tomasi, 
 M. Cossi, N. Rega, J. M. Millam, M. Klene, J. E. Knox, J. B. Cross, 
 V. Bakken, C. Adamo, J. Jaramillo, R. Gomperts, R. E. Stratmann, 
 O. Yazyev, A. J. Austin, R. Cammi, C. Pomelli, J. W. Ochterski, 
 R. L. Martin, K. Morokuma, V. G. Zakrzewski, G. A. Voth, 
 P. Salvador, J. J. Dannenberg, S. Dapprich, A. D. Daniels, 
 O. Farkas, J. B. Foresman, J. V. Ortiz, J. Cioslowski, 
 and D. J. Fox, Gaussian, Inc., Wallingford CT, 2013.
 
 ******************************************
 Gaussian 09:  ES64L-G09RevD.01 24-Apr-2013
                26-Aug-2020 
 ******************************************
 %chk=/home/boittier/MDCM/nms_sampling/butane_geom.xyz.dir/butane_opt_2357.chk
 %nproc=8
 Will use up to    8 processors via shared memory.
 %mem=16000MB
 --------------------
 #p B2PLYPD3/Def2QZVP
 --------------------
 1/38=1/1;
 2/12=2,17=6,18=5,40=1/2;
 3/5=45,7=101,11=9,16=1,25=1,30=1,74=-60/1,2,3;
 4//1;
 5/5=2,38=5/2;
 8/10=1/1;
 9/16=-3/6;
 6/7=2,8=2,9=2,10=2/1;
 99/5=1,9=1/99;
 Leave Link    1 at Wed Aug 26 16:03:49 2020, MaxMem=  2097152000 cpu:         0.2
 (Enter /opt/cluster/programs/g09/g09_d.01/g09/l101.exe)
 ----------
 butane_opt
 ----------
 Symbolic Z-matrix:
 Charge =  0 Multiplicity = 1
 C                    -3.94288   0.22653   0.09803 
 C                    -2.74403  -0.61827  -0.08518 
 H                    -4.83461  -0.31838   0.38718 
 H                    -4.17896   0.93641  -0.85787 
 H                    -3.74303   0.89891   1.0275 
 C                    -1.38515   0.26475  -0.07705 
 H                    -2.9754   -1.30507  -0.96332 
 H                    -2.61897  -1.09033   0.68813 
 C                    -0.11875  -0.74312   0.14084 
 H                    -1.59027   0.80449   0.79134 
 H                    -1.32061   1.00064  -1.04284 
 H                    -0.0297   -1.38562   1.11559 
 H                     0.69622  -0.17253   0.1251 
 H                    -0.12756  -1.40928  -0.76561 
 
 NAtoms=     14 NQM=       14 NQMF=       0 NMMI=      0 NMMIF=      0
                NMic=       0 NMicF=      0.
                    Isotopes and Nuclear Properties:
 (Nuclear quadrupole moments (NQMom) in fm**2, nuclear magnetic moments (NMagM)
  in nuclear magnetons)

  Atom         1           2           3           4           5           6           7           8           9          10
 IAtWgt=          12          12           1           1           1          12           1           1          12           1
 AtmWgt=  12.0000000  12.0000000   1.0078250   1.0078250   1.0078250  12.0000000   1.0078250   1.0078250  12.0000000   1.0078250
 NucSpn=           0           0           1           1           1           0           1           1           0           1
 AtZEff=   0.0000000   0.0000000   0.0000000   0.0000000   0.0000000   0.0000000   0.0000000   0.0000000   0.0000000   0.0000000
 NQMom=    0.0000000   0.0000000   0.0000000   0.0000000   0.0000000   0.0000000   0.0000000   0.0000000   0.0000000   0.0000000
 NMagM=    0.0000000   0.0000000   2.7928460   2.7928460   2.7928460   0.0000000   2.7928460   2.7928460   0.0000000   2.7928460
 AtZNuc=   6.0000000   6.0000000   1.0000000   1.0000000   1.0000000   6.0000000   1.0000000   1.0000000   6.0000000   1.0000000

  Atom        11          12          13          14
 IAtWgt=           1           1           1           1
 AtmWgt=   1.0078250   1.0078250   1.0078250   1.0078250
 NucSpn=           1           1           1           1
 AtZEff=   0.0000000   0.0000000   0.0000000   0.0000000
 NQMom=    0.0000000   0.0000000   0.0000000   0.0000000
 NMagM=    2.7928460   2.7928460   2.7928460   2.7928460
 AtZNuc=   1.0000000   1.0000000   1.0000000   1.0000000
 Leave Link  101 at Wed Aug 26 16:03:49 2020, MaxMem=  2097152000 cpu:         0.5
 (Enter /opt/cluster/programs/g09/g09_d.01/g09/l202.exe)
                          Input orientation:                          
 ---------------------------------------------------------------------
 Center     Atomic      Atomic             Coordinates (Angstroms)
 Number     Number       Type             X           Y           Z
 ---------------------------------------------------------------------
      1          6           0       -3.942876    0.226528    0.098029
      2          6           0       -2.744029   -0.618266   -0.085179
      3          1           0       -4.834612   -0.318379    0.387176
      4          1           0       -4.178960    0.936411   -0.857870
      5          1           0       -3.743032    0.898912    1.027498
      6          6           0       -1.385151    0.264750   -0.077053
      7          1           0       -2.975402   -1.305074   -0.963323
      8          1           0       -2.618967   -1.090332    0.688129
      9          6           0       -0.118745   -0.743124    0.140843
     10          1           0       -1.590271    0.804493    0.791337
     11          1           0       -1.320614    1.000641   -1.042840
     12          1           0       -0.029698   -1.385615    1.115588
     13          1           0        0.696215   -0.172529    0.125104
     14          1           0       -0.127561   -1.409284   -0.765606
 ---------------------------------------------------------------------
                    Distance matrix (angstroms):
                    1          2          3          4          5
     1  C    0.000000
     2  C    1.477997   0.000000
     3  H    1.084307   2.164160   0.000000
     4  H    1.213842   2.252354   1.885343   0.000000
     5  H    1.164453   2.130231   1.755949   1.935472   0.000000
     6  C    2.563995   1.620596   3.529069   2.977612   2.679888
     7  H    2.099590   1.138585   2.500815   2.546356   3.067601
     8  H    1.958334   0.914599   2.365495   2.988541   2.309932
     9  C    3.945382   2.637952   4.741359   4.505953   4.076505
    10  H    2.519815   2.030685   3.456868   3.072230   2.167733
    11  H    2.962616   2.358831   4.016583   2.865045   3.188222
    12  H    4.352860   3.065658   4.975618   5.148079   4.360696
    13  H    4.656302   3.475367   5.538953   5.095421   4.655020
    14  H    4.240091   2.816841   4.967425   4.682375   4.649153
                    6          7          8          9         10
     6  C    0.000000
     7  H    2.403897   0.000000
     8  H    1.985964   1.703072   0.000000
     9  C    1.633118   3.113753   2.582864   0.000000
    10  H    1.042832   3.073710   2.158525   2.232409   0.000000
    11  H    1.215913   2.839184   3.009010   2.426172   1.864241
    12  H    2.446089   3.606318   2.640876   1.170834   2.708708
    13  H    2.136391   3.993508   3.485655   0.994980   2.574190
    14  H    2.204093   2.856598   2.902099   1.124943   3.076427
                   11         12         13         14
    11  H    0.000000
    12  H    3.466914   0.000000
    13  H    2.609218   1.726148   0.000000
    14  H    2.703326   1.883886   1.732494   0.000000
 Stoichiometry    C4H10
 Framework group  C1[X(C4H10)]
 Deg. of freedom    36
 Full point group                 C1      NOp   1
 Largest Abelian subgroup         C1      NOp   1
 Largest concise Abelian subgroup C1      NOp   1
                         Standard orientation:                         
 ---------------------------------------------------------------------
 Center     Atomic      Atomic             Coordinates (Angstroms)
 Number     Number       Type             X           Y           Z
 ---------------------------------------------------------------------
      1          6           0        1.936103    0.071391   -0.096309
      2          6           0        0.601917   -0.519737    0.138191
      3          1           0        2.706037   -0.648205   -0.351467
      4          1           0        2.312455    0.780256    0.814340
      5          1           0        1.855678    0.712233   -1.065229
      6          6           0       -0.566588    0.601444    0.075889
      7          1           0        0.710005   -1.183747    1.056768
      8          1           0        0.381429   -1.005425   -0.604765
      9          6           0       -2.002398   -0.160939   -0.079980
     10          1           0       -0.273559    1.039617   -0.823909
     11          1           0       -0.480464    1.393055    0.994790
     12          1           0       -2.221885   -0.832590   -1.013555
     13          1           0       -2.695232    0.552919   -0.099283
     14          1           0       -2.108670   -0.761062    0.865565
 ---------------------------------------------------------------------
 Rotational constants (GHZ):     21.0963844      3.5419428      3.3282027
 Leave Link  202 at Wed Aug 26 16:03:49 2020, MaxMem=  2097152000 cpu:         0.0
 (Enter /opt/cluster/programs/g09/g09_d.01/g09/l301.exe)
 Standard basis: def2QZVP (5D, 7F)
 Ernie: Thresh=  0.10000D-02 Tol=  0.10000D-05 Strict=F.
 There are   638 symmetry adapted cartesian basis functions of A   symmetry.
 There are   528 symmetry adapted basis functions of A   symmetry.
   528 basis functions,   748 primitive gaussians,   638 cartesian basis functions
    17 alpha electrons       17 beta electrons
       nuclear repulsion energy       128.6046422386 Hartrees.
 IExCor=  419 DFT=T Ex+Corr=B2PLYPD3 ExCW=0 ScaHFX=  0.530000
 ScaDFX=  0.470000  0.470000  0.730000  0.730000 ScalE2=  0.270000  0.270000
 IRadAn=      0 IRanWt=     -1 IRanGd=            0 ICorTp=0 IEmpDi=141
 NAtoms=   14 NActive=   14 NUniq=   14 SFac= 1.00D+00 NAtFMM=   60 NAOKFM=F Big=F
 Integral buffers will be    131072 words long.
 Regular integral format.
 Two-electron integral symmetry is turned on.
 R6Disp:  Grimme-D3(BJ) Dispersion energy=       -0.0063531471 Hartrees.
 Nuclear repulsion after empirical dispersion term =      128.5982890915 Hartrees.
 Leave Link  301 at Wed Aug 26 16:03:49 2020, MaxMem=  2097152000 cpu:         0.5
 (Enter /opt/cluster/programs/g09/g09_d.01/g09/l302.exe)
 NPDir=0 NMtPBC=     1 NCelOv=     1 NCel=       1 NClECP=     1 NCelD=      1
         NCelK=      1 NCelE2=     1 NClLst=     1 CellRange=     0.0.
 One-electron integrals computed using PRISM.
   1 Symmetry operations used in ECPInt.
 ECPInt:  NShTT=   14196 NPrTT=   30597 LenC2=   13849 LenP2D=   25872.
 LDataN:  DoStor=T MaxTD1= 8 Len=  415
 NBasis=   528 RedAO= T EigKep=  3.51D-05  NBF=   528
 NBsUse=   528 1.00D-06 EigRej= -1.00D+00 NBFU=   528
 Precomputing XC quadrature grid using
 IXCGrd= 4 IRadAn=           0 IRanWt=          -1 IRanGd=           0 AccXCQ= 0.00D+00.
 Generated NRdTot=       0 NPtTot=           0 NUsed=           0 NTot=          32
 NSgBfM=   638   638   638   638   638 MxSgAt=    14 MxSgA2=    14.
 Leave Link  302 at Wed Aug 26 16:03:50 2020, MaxMem=  2097152000 cpu:         4.7
 (Enter /opt/cluster/programs/g09/g09_d.01/g09/l303.exe)
 DipDrv:  MaxL=1.
 Leave Link  303 at Wed Aug 26 16:03:50 2020, MaxMem=  2097152000 cpu:         0.5
 (Enter /opt/cluster/programs/g09/g09_d.01/g09/l401.exe)
 ExpMin= 7.60D-02 ExpMax= 6.70D+04 ExpMxC= 6.47D+02 IAcc=2 IRadAn=         4 AccDes= 0.00D+00
 Harris functional with IExCor=  419 and IRadAn=       4 diagonalized for initial guess.
 HarFok:  IExCor=  419 AccDes= 0.00D+00 IRadAn=         4 IDoV= 1 UseB2=F ITyADJ=14
 ICtDFT=  3500011 ScaDFX=  1.000000  1.000000  1.000000  1.000000
 FoFCou: FMM=F IPFlag=           0 FMFlag=      100000 FMFlg1=           0
         NFxFlg=           0 DoJE=T BraDBF=F KetDBF=T FulRan=T
         wScrn=  0.000000 ICntrl=     500 IOpCl=  0 I1Cent=   200000004 NGrid=           0
         NMat0=    1 NMatS0=      1 NMatT0=    0 NMatD0=    1 NMtDS0=    0 NMtDT0=    0
 Petite list used in FoFCou.
 Harris En= -158.543978296741    
 JPrj=0 DoOrth=F DoCkMO=F.
 Leave Link  401 at Wed Aug 26 16:03:52 2020, MaxMem=  2097152000 cpu:        14.5
 (Enter /opt/cluster/programs/g09/g09_d.01/g09/l502.exe)
 Closed shell SCF:
 Using DIIS extrapolation, IDIIS=  1040.
 Integral symmetry usage will be decided dynamically.
 IVT=     1249338 IEndB=     1249338 NGot=  2097152000 MDV=  2096326985
 LenX=  2096326985 LenY=  2095919303
 Requested convergence on RMS density matrix=1.00D-08 within 128 cycles.
 Requested convergence on MAX density matrix=1.00D-06.
 Requested convergence on             energy=1.00D-06.
 No special actions if energy rises.
 Fock matrices will be formed incrementally for  20 cycles.
 Integral accuracy reduced to 1.0D-05 until final iterations.

 Cycle   1  Pass 0  IDiag  1:
 FoFJK:  IHMeth= 1 ICntrl=       0 DoSepK=F KAlg= 0 I1Cent=   0 FoldK=F
 IRaf= 940000000 NMat=   1 IRICut=       1 DoRegI=T DoRafI=F ISym2E= 0.
 FoFCou: FMM=F IPFlag=           0 FMFlag=      100000 FMFlg1=           0
         NFxFlg=           0 DoJE=F BraDBF=F KetDBF=F FulRan=T
         wScrn=  0.000000 ICntrl=       0 IOpCl=  0 I1Cent=           0 NGrid=           0
         NMat0=    1 NMatS0=      1 NMatT0=    0 NMatD0=    1 NMtDS0=    0 NMtDT0=    0
 Symmetry not used in FoFCou.
 E= -157.792160387961    
 DIIS: error= 2.75D-02 at cycle   1 NSaved=   1.
 NSaved= 1 IEnMin= 1 EnMin= -157.792160387961     IErMin= 1 ErrMin= 2.75D-02
 ErrMax= 2.75D-02  0.00D+00 EMaxC= 1.00D-01 BMatC= 3.23D-01 BMatP= 3.23D-01
 IDIUse=3 WtCom= 7.25D-01 WtEn= 2.75D-01
 Coeff-Com:  0.100D+01
 Coeff-En:   0.100D+01
 Coeff:      0.100D+01
 Gap=     0.349 Goal=   None    Shift=    0.000
 GapD=    0.349 DampG=1.000 DampE=0.500 DampFc=0.5000 IDamp=-1.
 Damping current iteration by 5.00D-01
 RMSDP=9.21D-04 MaxDP=5.52D-02              OVMax= 1.84D-01

 Cycle   2  Pass 0  IDiag  1:
 RMSU=  4.38D-04    CP:  9.53D-01
 E= -157.923302510782     Delta-E=       -0.131142122821 Rises=F Damp=T
 DIIS: error= 6.63D-03 at cycle   2 NSaved=   2.
 NSaved= 2 IEnMin= 2 EnMin= -157.923302510782     IErMin= 2 ErrMin= 6.63D-03
 ErrMax= 6.63D-03  0.00D+00 EMaxC= 1.00D-01 BMatC= 3.17D-02 BMatP= 3.23D-01
 IDIUse=3 WtCom= 9.34D-01 WtEn= 6.63D-02
 Coeff-Com: -0.193D+00 0.119D+01
 Coeff-En:   0.000D+00 0.100D+01
 Coeff:     -0.180D+00 0.118D+01
 Gap=     0.444 Goal=   None    Shift=    0.000
 RMSDP=2.35D-04 MaxDP=1.36D-02 DE=-1.31D-01 OVMax= 9.20D-02

 Cycle   3  Pass 0  IDiag  1:
 RMSU=  2.24D-04    CP:  9.39D-01  8.68D-01
 E= -158.043284784453     Delta-E=       -0.119982273671 Rises=F Damp=F
 DIIS: error= 3.23D-03 at cycle   3 NSaved=   3.
 NSaved= 3 IEnMin= 3 EnMin= -158.043284784453     IErMin= 3 ErrMin= 3.23D-03
 ErrMax= 3.23D-03  0.00D+00 EMaxC= 1.00D-01 BMatC= 2.64D-03 BMatP= 3.17D-02
 IDIUse=3 WtCom= 9.68D-01 WtEn= 3.23D-02
 Coeff-Com: -0.103D+00 0.209D+00 0.894D+00
 Coeff-En:   0.000D+00 0.000D+00 0.100D+01
 Coeff:     -0.995D-01 0.202D+00 0.897D+00
 Gap=     0.415 Goal=   None    Shift=    0.000
 RMSDP=5.69D-05 MaxDP=4.47D-03 DE=-1.20D-01 OVMax= 1.16D-02

 Cycle   4  Pass 0  IDiag  1:
 RMSU=  4.33D-05    CP:  9.35D-01  9.48D-01  9.92D-01
 E= -158.045899794195     Delta-E=       -0.002615009742 Rises=F Damp=F
 DIIS: error= 8.17D-04 at cycle   4 NSaved=   4.
 NSaved= 4 IEnMin= 4 EnMin= -158.045899794195     IErMin= 4 ErrMin= 8.17D-04
 ErrMax= 8.17D-04  0.00D+00 EMaxC= 1.00D-01 BMatC= 1.32D-04 BMatP= 2.64D-03
 IDIUse=3 WtCom= 9.92D-01 WtEn= 8.17D-03
 Coeff-Com: -0.257D-01 0.384D-01 0.276D+00 0.711D+00
 Coeff-En:   0.000D+00 0.000D+00 0.000D+00 0.100D+01
 Coeff:     -0.255D-01 0.381D-01 0.274D+00 0.714D+00
 Gap=     0.417 Goal=   None    Shift=    0.000
 RMSDP=1.51D-05 MaxDP=1.01D-03 DE=-2.62D-03 OVMax= 3.05D-03

 Cycle   5  Pass 0  IDiag  1:
 RMSU=  1.16D-05    CP:  9.36D-01  9.36D-01  1.02D+00  8.97D-01
 E= -158.046020145748     Delta-E=       -0.000120351553 Rises=F Damp=F
 DIIS: error= 1.65D-04 at cycle   5 NSaved=   5.
 NSaved= 5 IEnMin= 5 EnMin= -158.046020145748     IErMin= 5 ErrMin= 1.65D-04
 ErrMax= 1.65D-04  0.00D+00 EMaxC= 1.00D-01 BMatC= 1.19D-05 BMatP= 1.32D-04
 IDIUse=3 WtCom= 9.98D-01 WtEn= 1.65D-03
 Coeff-Com: -0.295D-02 0.104D-02 0.480D-01 0.269D+00 0.685D+00
 Coeff-En:   0.000D+00 0.000D+00 0.000D+00 0.000D+00 0.100D+01
 Coeff:     -0.295D-02 0.104D-02 0.479D-01 0.268D+00 0.686D+00
 Gap=     0.416 Goal=   None    Shift=    0.000
 RMSDP=3.76D-06 MaxDP=3.32D-04 DE=-1.20D-04 OVMax= 7.05D-04

 Initial convergence to 1.0D-05 achieved.  Increase integral accuracy.
 Cycle   6  Pass 1  IDiag  1:
 E= -158.046071779924     Delta-E=       -0.000051634175 Rises=F Damp=F
 DIIS: error= 5.75D-05 at cycle   1 NSaved=   1.
 NSaved= 1 IEnMin= 1 EnMin= -158.046071779924     IErMin= 1 ErrMin= 5.75D-05
 ErrMax= 5.75D-05  0.00D+00 EMaxC= 1.00D-01 BMatC= 6.93D-07 BMatP= 6.93D-07
 IDIUse=1 WtCom= 1.00D+00 WtEn= 0.00D+00
 Coeff-Com:  0.100D+01
 Coeff:      0.100D+01
 Gap=     0.417 Goal=   None    Shift=    0.000
 RMSDP=3.76D-06 MaxDP=3.32D-04 DE=-5.16D-05 OVMax= 1.85D-04

 Cycle   7  Pass 1  IDiag  1:
 RMSU=  2.54D-05    CP:  1.00D+00
 E= -158.046072207004     Delta-E=       -0.000000427080 Rises=F Damp=F
 DIIS: error= 1.04D-05 at cycle   2 NSaved=   2.
 NSaved= 2 IEnMin= 2 EnMin= -158.046072207004     IErMin= 2 ErrMin= 1.04D-05
 ErrMax= 1.04D-05  0.00D+00 EMaxC= 1.00D-01 BMatC= 4.87D-08 BMatP= 6.93D-07
 IDIUse=1 WtCom= 1.00D+00 WtEn= 0.00D+00
 Coeff-Com:  0.988D-01 0.901D+00
 Coeff:      0.988D-01 0.901D+00
 Gap=     0.416 Goal=   None    Shift=    0.000
 RMSDP=8.56D-07 MaxDP=5.83D-05 DE=-4.27D-07 OVMax= 7.64D-05

 Cycle   8  Pass 1  IDiag  1:
 RMSU=  4.25D-07    CP:  1.00D+00  1.03D+00
 E= -158.046072238973     Delta-E=       -0.000000031969 Rises=F Damp=F
 DIIS: error= 6.65D-06 at cycle   3 NSaved=   3.
 NSaved= 3 IEnMin= 3 EnMin= -158.046072238973     IErMin= 3 ErrMin= 6.65D-06
 ErrMax= 6.65D-06  0.00D+00 EMaxC= 1.00D-01 BMatC= 2.20D-08 BMatP= 4.87D-08
 IDIUse=1 WtCom= 1.00D+00 WtEn= 0.00D+00
 Coeff-Com: -0.176D-01 0.394D+00 0.624D+00
 Coeff:     -0.176D-01 0.394D+00 0.624D+00
 Gap=     0.417 Goal=   None    Shift=    0.000
 RMSDP=1.88D-07 MaxDP=1.23D-05 DE=-3.20D-08 OVMax= 3.21D-05

 Cycle   9  Pass 1  IDiag  1:
 RMSU=  1.38D-07    CP:  1.00D+00  1.03D+00  8.73D-01
 E= -158.046072260506     Delta-E=       -0.000000021533 Rises=F Damp=F
 DIIS: error= 7.79D-07 at cycle   4 NSaved=   4.
 NSaved= 4 IEnMin= 4 EnMin= -158.046072260506     IErMin= 4 ErrMin= 7.79D-07
 ErrMax= 7.79D-07  0.00D+00 EMaxC= 1.00D-01 BMatC= 2.08D-10 BMatP= 2.20D-08
 IDIUse=1 WtCom= 1.00D+00 WtEn= 0.00D+00
 Coeff-Com: -0.608D-02 0.711D-02 0.645D-01 0.934D+00
 Coeff:     -0.608D-02 0.711D-02 0.645D-01 0.934D+00
 Gap=     0.417 Goal=   None    Shift=    0.000
 RMSDP=3.53D-08 MaxDP=2.68D-06 DE=-2.15D-08 OVMax= 4.97D-06

 Cycle  10  Pass 1  IDiag  1:
 RMSU=  2.52D-08    CP:  1.00D+00  1.03D+00  9.16D-01  1.11D+00
 E= -158.046072260815     Delta-E=       -0.000000000309 Rises=F Damp=F
 DIIS: error= 3.05D-07 at cycle   5 NSaved=   5.
 NSaved= 5 IEnMin= 5 EnMin= -158.046072260815     IErMin= 5 ErrMin= 3.05D-07
 ErrMax= 3.05D-07  0.00D+00 EMaxC= 1.00D-01 BMatC= 1.65D-11 BMatP= 2.08D-10
 IDIUse=1 WtCom= 1.00D+00 WtEn= 0.00D+00
 Coeff-Com:  0.611D-03-0.328D-01-0.445D-01 0.145D+00 0.931D+00
 Coeff:      0.611D-03-0.328D-01-0.445D-01 0.145D+00 0.931D+00
 Gap=     0.417 Goal=   None    Shift=    0.000
 RMSDP=1.19D-08 MaxDP=7.03D-07 DE=-3.09D-10 OVMax= 2.12D-06

 Cycle  11  Pass 1  IDiag  1:
 RMSU=  7.71D-09    CP:  1.00D+00  1.03D+00  9.25D-01  1.16D+00  1.13D+00
 E= -158.046072260840     Delta-E=       -0.000000000025 Rises=F Damp=F
 DIIS: error= 6.78D-08 at cycle   6 NSaved=   6.
 NSaved= 6 IEnMin= 6 EnMin= -158.046072260840     IErMin= 6 ErrMin= 6.78D-08
 ErrMax= 6.78D-08  0.00D+00 EMaxC= 1.00D-01 BMatC= 1.31D-12 BMatP= 1.65D-11
 IDIUse=1 WtCom= 1.00D+00 WtEn= 0.00D+00
 Coeff-Com:  0.357D-03-0.125D-01-0.180D-01 0.365D-01 0.353D+00 0.640D+00
 Coeff:      0.357D-03-0.125D-01-0.180D-01 0.365D-01 0.353D+00 0.640D+00
 Gap=     0.417 Goal=   None    Shift=    0.000
 RMSDP=1.59D-09 MaxDP=8.57D-08 DE=-2.47D-11 OVMax= 2.98D-07

 SCF Done:  E(RB2PLYPD3) =  -158.046072261     A.U. after   11 cycles
            NFock= 11  Conv=0.16D-08     -V/T= 2.0045
 KE= 1.573384087807D+02 PE=-6.228675108414D+02 EE= 1.788847407084D+02
 Leave Link  502 at Wed Aug 26 16:09:45 2020, MaxMem=  2097152000 cpu:      2819.7
 (Enter /opt/cluster/programs/g09/g09_d.01/g09/l801.exe)
 DoSCS=T DFT=T ScalE2(SS,OS)=  0.270000  0.270000
 ExpMin= 7.60D-02 ExpMax= 6.70D+04 ExpMxC= 6.47D+02 IAcc=3 IRadAn=         5 AccDes= 0.00D+00
 HarFok:  IExCor=  205 AccDes= 0.00D+00 IRadAn=         5 IDoV=-2 UseB2=F ITyADJ=14
 ICtDFT= 12500011 ScaDFX=  1.000000  1.000000  1.000000  1.000000
 Largest valence mixing into a core orbital is  1.19D-04
 Largest core mixing into a valence orbital is  1.72D-05
 Range of M.O.s used for correlation:     5   528
 NBasis=   528 NAE=    17 NBE=    17 NFC=     4 NFV=     0
 NROrb=    524 NOA=    13 NOB=    13 NVA=   511 NVB=   511

 **** Warning!!: The largest alpha MO coefficient is  0.38781749D+02

 Leave Link  801 at Wed Aug 26 16:09:45 2020, MaxMem=  2097152000 cpu:         1.2
 (Enter /opt/cluster/programs/g09/g09_d.01/g09/l906.exe)
 DoSCS=T DFT=T ScalE2(SS,OS)=  0.270000  0.270000
 FulOut=F Deriv=F AODrv=F NAtomX=    14
   MMem=         463  MDisk=          13 MDiskD=          13
  W3Min=     4238234 MinDsk=     6904766 NBas6D=         638
 NBas2D=      205689    NTT=      203841    LW2=     4508827
    MDV=  2095903108 MDiskM=        7293 NBas2p=      189392
 Fully direct method using O(OVN) memory.
 IMap=   1   2   3   4   5   6   7   8   9  10  11  12  13
 JobTyp=1 Pass  1:  I=   1 to  13 NPSUse=  8 ParTrn=T ParDer=T DoDerP=F.
 Spin components of T(2) and E(2):
     alpha-alpha T2 =       0.4116635125D-01 E2=     -0.2622174016D-01
     alpha-beta  T2 =       0.2734854704D+00 E2=     -0.1956447595D+00
     beta-beta   T2 =       0.4116635125D-01 E2=     -0.2622174016D-01
 The integrals were generated   1 times.
 E2(B2PLYPD3) =    -0.2480882398D+00 E(B2PLYPD3) =    -0.15829416050065D+03
 Leave Link  906 at Wed Aug 26 16:14:56 2020, MaxMem=  2097152000 cpu:      2480.4
 (Enter /opt/cluster/programs/g09/g09_d.01/g09/l601.exe)
 Copying SCF densities to generalized density rwf, IOpCl= 0 IROHF=0.

 **********************************************************************

            Population analysis using the SCF density.

 **********************************************************************

 Orbital symmetries:
       Occupied  (A) (A) (A) (A) (A) (A) (A) (A) (A) (A) (A) (A)
                 (A) (A) (A) (A) (A)
       Virtual   (A) (A) (A) (A) (A) (A) (A) (A) (A) (A) (A) (A)
                 (A) (A) (A) (A) (A) (A) (A) (A) (A) (A) (A) (A)
                 (A) (A) (A) (A) (A) (A) (A) (A) (A) (A) (A) (A)
                 (A) (A) (A) (A) (A) (A) (A) (A) (A) (A) (A) (A)
                 (A) (A) (A) (A) (A) (A) (A) (A) (A) (A) (A) (A)
                 (A) (A) (A) (A) (A) (A) (A) (A) (A) (A) (A) (A)
                 (A) (A) (A) (A) (A) (A) (A) (A) (A) (A) (A) (A)
                 (A) (A) (A) (A) (A) (A) (A) (A) (A) (A) (A) (A)
                 (A) (A) (A) (A) (A) (A) (A) (A) (A) (A) (A) (A)
                 (A) (A) (A) (A) (A) (A) (A) (A) (A) (A) (A) (A)
                 (A) (A) (A) (A) (A) (A) (A) (A) (A) (A) (A) (A)
                 (A) (A) (A) (A) (A) (A) (A) (A) (A) (A) (A) (A)
                 (A) (A) (A) (A) (A) (A) (A) (A) (A) (A) (A) (A)
                 (A) (A) (A) (A) (A) (A) (A) (A) (A) (A) (A) (A)
                 (A) (A) (A) (A) (A) (A) (A) (A) (A) (A) (A) (A)
                 (A) (A) (A) (A) (A) (A) (A) (A) (A) (A) (A) (A)
                 (A) (A) (A) (A) (A) (A) (A) (A) (A) (A) (A) (A)
                 (A) (A) (A) (A) (A) (A) (A) (A) (A) (A) (A) (A)
                 (A) (A) (A) (A) (A) (A) (A) (A) (A) (A) (A) (A)
                 (A) (A) (A) (A) (A) (A) (A) (A) (A) (A) (A) (A)
                 (A) (A) (A) (A) (A) (A) (A) (A) (A) (A) (A) (A)
                 (A) (A) (A) (A) (A) (A) (A) (A) (A) (A) (A) (A)
                 (A) (A) (A) (A) (A) (A) (A) (A) (A) (A) (A) (A)
                 (A) (A) (A) (A) (A) (A) (A) (A) (A) (A) (A) (A)
                 (A) (A) (A) (A) (A) (A) (A) (A) (A) (A) (A) (A)
                 (A) (A) (A) (A) (A) (A) (A) (A) (A) (A) (A) (A)
                 (A) (A) (A) (A) (A) (A) (A) (A) (A) (A) (A) (A)
                 (A) (A) (A) (A) (A) (A) (A) (A) (A) (A) (A) (A)
                 (A) (A) (A) (A) (A) (A) (A) (A) (A) (A) (A) (A)
                 (A) (A) (A) (A) (A) (A) (A) (A) (A) (A) (A) (A)
                 (A) (A) (A) (A) (A) (A) (A) (A) (A) (A) (A) (A)
                 (A) (A) (A) (A) (A) (A) (A) (A) (A) (A) (A) (A)
                 (A) (A) (A) (A) (A) (A) (A) (A) (A) (A) (A) (A)
                 (A) (A) (A) (A) (A) (A) (A) (A) (A) (A) (A) (A)
                 (A) (A) (A) (A) (A) (A) (A) (A) (A) (A) (A) (A)
                 (A) (A) (A) (A) (A) (A) (A) (A) (A) (A) (A) (A)
                 (A) (A) (A) (A) (A) (A) (A) (A) (A) (A) (A) (A)
                 (A) (A) (A) (A) (A) (A) (A) (A) (A) (A) (A) (A)
                 (A) (A) (A) (A) (A) (A) (A) (A) (A) (A) (A) (A)
                 (A) (A) (A) (A) (A) (A) (A) (A) (A) (A) (A) (A)
                 (A) (A) (A) (A) (A) (A) (A) (A) (A) (A) (A) (A)
                 (A) (A) (A) (A) (A) (A) (A) (A) (A) (A) (A) (A)
                 (A) (A) (A) (A) (A) (A) (A)
 The electronic state is 1-A.
 Alpha  occ. eigenvalues --  -10.62673 -10.61184 -10.60838 -10.58932  -0.90731
 Alpha  occ. eigenvalues --   -0.82336  -0.72223  -0.66872  -0.54126  -0.49366
 Alpha  occ. eigenvalues --   -0.48448  -0.46296  -0.42515  -0.40761  -0.38834
 Alpha  occ. eigenvalues --   -0.38334  -0.35948
 Alpha virt. eigenvalues --    0.05705   0.06634   0.08377   0.08639   0.10869
 Alpha virt. eigenvalues --    0.11888   0.12639   0.13548   0.14609   0.14871
 Alpha virt. eigenvalues --    0.15502   0.16735   0.18970   0.20284   0.21531
 Alpha virt. eigenvalues --    0.21959   0.22988   0.24408   0.25935   0.28575
 Alpha virt. eigenvalues --    0.29824   0.31084   0.32595   0.33510   0.35157
 Alpha virt. eigenvalues --    0.35962   0.37205   0.37285   0.38442   0.38774
 Alpha virt. eigenvalues --    0.40341   0.41561   0.42257   0.43542   0.45747
 Alpha virt. eigenvalues --    0.49794   0.51349   0.51996   0.53923   0.57236
 Alpha virt. eigenvalues --    0.59989   0.62343   0.63531   0.65816   0.66332
 Alpha virt. eigenvalues --    0.67321   0.68059   0.70770   0.71367   0.72426
 Alpha virt. eigenvalues --    0.72793   0.74272   0.75036   0.77276   0.78133
 Alpha virt. eigenvalues --    0.80590   0.81757   0.84473   0.85610   0.85745
 Alpha virt. eigenvalues --    0.88056   0.88603   0.89923   0.90017   0.91760
 Alpha virt. eigenvalues --    0.92261   0.93932   0.96155   0.97063   0.97618
 Alpha virt. eigenvalues --    0.98493   0.99220   1.00345   1.02558   1.02982
 Alpha virt. eigenvalues --    1.04589   1.05588   1.07431   1.08000   1.10468
 Alpha virt. eigenvalues --    1.11586   1.12844   1.14477   1.15920   1.18208
 Alpha virt. eigenvalues --    1.19770   1.21402   1.25586   1.27123   1.29076
 Alpha virt. eigenvalues --    1.30412   1.30616   1.32345   1.33932   1.36143
 Alpha virt. eigenvalues --    1.39642   1.40592   1.42082   1.42938   1.44418
 Alpha virt. eigenvalues --    1.46996   1.49598   1.51549   1.52548   1.55396
 Alpha virt. eigenvalues --    1.57620   1.61661   1.62712   1.65025   1.70641
 Alpha virt. eigenvalues --    1.74302   1.82095   1.85911   1.90553   1.91674
 Alpha virt. eigenvalues --    1.92074   1.94096   1.96072   1.98268   1.98354
 Alpha virt. eigenvalues --    2.00126   2.01503   2.02566   2.03609   2.06180
 Alpha virt. eigenvalues --    2.07757   2.08533   2.09279   2.09594   2.10924
 Alpha virt. eigenvalues --    2.12483   2.12837   2.15451   2.16325   2.16474
 Alpha virt. eigenvalues --    2.18325   2.18440   2.20416   2.21554   2.22974
 Alpha virt. eigenvalues --    2.24163   2.26208   2.27331   2.27914   2.30656
 Alpha virt. eigenvalues --    2.31393   2.33527   2.33835   2.35861   2.37065
 Alpha virt. eigenvalues --    2.39274   2.41397   2.43264   2.45214   2.46685
 Alpha virt. eigenvalues --    2.47228   2.51604   2.51664   2.52600   2.55008
 Alpha virt. eigenvalues --    2.57472   2.58565   2.59592   2.62433   2.63435
 Alpha virt. eigenvalues --    2.64834   2.67773   2.68088   2.69739   2.70454
 Alpha virt. eigenvalues --    2.71191   2.72725   2.75715   2.76150   2.78529
 Alpha virt. eigenvalues --    2.79608   2.81908   2.83435   2.85646   2.86849
 Alpha virt. eigenvalues --    2.88210   2.89426   2.89967   2.91778   2.93543
 Alpha virt. eigenvalues --    2.95900   2.97012   2.98080   2.99687   3.01332
 Alpha virt. eigenvalues --    3.02219   3.03118   3.03922   3.05584   3.07068
 Alpha virt. eigenvalues --    3.10142   3.11752   3.14157   3.16201   3.17520
 Alpha virt. eigenvalues --    3.20896   3.22441   3.22585   3.24140   3.26796
 Alpha virt. eigenvalues --    3.28597   3.30443   3.35556   3.36741   3.37984
 Alpha virt. eigenvalues --    3.39038   3.40003   3.43196   3.46180   3.47381
 Alpha virt. eigenvalues --    3.51462   3.52498   3.54024   3.55701   3.58975
 Alpha virt. eigenvalues --    3.62375   3.63140   3.65900   3.67530   3.71048
 Alpha virt. eigenvalues --    3.73460   3.76155   3.78713   3.83767   3.86250
 Alpha virt. eigenvalues --    3.87026   3.88814   3.90379   3.93023   3.94331
 Alpha virt. eigenvalues --    3.98622   4.02315   4.03466   4.06125   4.08090
 Alpha virt. eigenvalues --    4.13199   4.14576   4.18925   4.22374   4.25325
 Alpha virt. eigenvalues --    4.28068   4.33659   4.35403   4.38744   4.44151
 Alpha virt. eigenvalues --    4.49981   4.52893   4.63942   4.75805   4.97308
 Alpha virt. eigenvalues --    5.10220   5.18511   5.19744   5.24912   5.28641
 Alpha virt. eigenvalues --    5.39673   5.43092   5.46604   5.48068   5.49704
 Alpha virt. eigenvalues --    5.55936   5.58539   5.62808   5.66960   5.68610
 Alpha virt. eigenvalues --    5.71204   5.72020   5.76098   5.76985   5.80527
 Alpha virt. eigenvalues --    5.83087   5.85979   5.88108   5.88685   5.90114
 Alpha virt. eigenvalues --    5.91190   5.91348   5.92524   5.94360   5.97258
 Alpha virt. eigenvalues --    5.97988   5.99127   6.00852   6.02137   6.03618
 Alpha virt. eigenvalues --    6.05097   6.06770   6.08394   6.08695   6.10936
 Alpha virt. eigenvalues --    6.13261   6.14003   6.15038   6.16448   6.18747
 Alpha virt. eigenvalues --    6.19745   6.20786   6.23097   6.24101   6.26359
 Alpha virt. eigenvalues --    6.27560   6.29144   6.30754   6.31505   6.33859
 Alpha virt. eigenvalues --    6.36276   6.38843   6.40166   6.41707   6.43841
 Alpha virt. eigenvalues --    6.45606   6.47138   6.49400   6.50815   6.53471
 Alpha virt. eigenvalues --    6.54332   6.55941   6.58921   6.59523   6.64452
 Alpha virt. eigenvalues --    6.65574   6.67784   6.69445   6.70084   6.73654
 Alpha virt. eigenvalues --    6.76908   6.78197   6.82000   6.82885   6.85958
 Alpha virt. eigenvalues --    6.88620   6.91002   6.92065   6.92992   6.94732
 Alpha virt. eigenvalues --    6.95109   6.98173   6.99414   7.01595   7.02321
 Alpha virt. eigenvalues --    7.05025   7.05541   7.09476   7.12240   7.14730
 Alpha virt. eigenvalues --    7.17134   7.18422   7.18539   7.22629   7.25492
 Alpha virt. eigenvalues --    7.28490   7.30271   7.32656   7.34251   7.39442
 Alpha virt. eigenvalues --    7.40003   7.41501   7.43135   7.47091   7.52434
 Alpha virt. eigenvalues --    7.54631   7.56259   7.58000   7.61156   7.63759
 Alpha virt. eigenvalues --    7.64762   7.66393   7.68925   7.70626   7.72120
 Alpha virt. eigenvalues --    7.73434   7.75243   7.76807   7.79153   7.79792
 Alpha virt. eigenvalues --    7.82630   7.84463   7.85344   7.87628   7.89096
 Alpha virt. eigenvalues --    7.89447   7.89836   7.90709   7.92929   7.94526
 Alpha virt. eigenvalues --    7.98771   7.98886   7.99293   8.01769   8.03433
 Alpha virt. eigenvalues --    8.04467   8.06923   8.08264   8.08837   8.12399
 Alpha virt. eigenvalues --    8.15561   8.16404   8.21234   8.23716   8.26832
 Alpha virt. eigenvalues --    8.29516   8.32315   8.35543   8.37176   8.38172
 Alpha virt. eigenvalues --    8.39773   8.42660   8.43075   8.43618   8.45387
 Alpha virt. eigenvalues --    8.47733   8.49897   8.51113   8.52783   8.53406
 Alpha virt. eigenvalues --    8.55013   8.56469   8.58098   8.59064   8.60433
 Alpha virt. eigenvalues --    8.62063   8.62865   8.63926   8.65829   8.69976
 Alpha virt. eigenvalues --    8.72255   8.73819   8.79011   8.80291   8.83558
 Alpha virt. eigenvalues --    8.86915   8.87386   8.90168   8.91923   8.94803
 Alpha virt. eigenvalues --    8.95877   8.98758   9.00925   9.02497   9.05357
 Alpha virt. eigenvalues --    9.06926   9.09331   9.09433   9.12119   9.16195
 Alpha virt. eigenvalues --    9.16938   9.18831   9.21826   9.26968   9.29478
 Alpha virt. eigenvalues --    9.32823   9.38598   9.41358   9.42545   9.44179
 Alpha virt. eigenvalues --    9.48236   9.51111   9.55546   9.57667   9.63629
 Alpha virt. eigenvalues --    9.63879   9.69318   9.71639   9.76185   9.79083
 Alpha virt. eigenvalues --    9.82634   9.87410   9.89900   9.92842  10.01677
 Alpha virt. eigenvalues --   10.04703  10.06805  10.12400  10.18867  10.19395
 Alpha virt. eigenvalues --   10.28949  10.31997  10.37854  10.41667  10.53333
 Alpha virt. eigenvalues --   10.57653  10.59698  10.70443  10.88442  10.92185
 Alpha virt. eigenvalues --   11.00900  11.37235  11.47280  11.56442  11.58922
 Alpha virt. eigenvalues --   11.90307  11.93839  12.12482  12.20534  12.63231
 Alpha virt. eigenvalues --   12.81115  12.95125  12.99277  29.15291  29.28219
 Alpha virt. eigenvalues --   29.40455  29.51672 148.78999 148.90235 149.05887
 Alpha virt. eigenvalues --  149.23839
          Condensed to atoms (all electrons):
               1          2          3          4          5          6
     1  C    4.738647   0.356316   0.409850   0.404018   0.392599  -0.051625
     2  C    0.356316   4.826999  -0.041326  -0.043424  -0.053354   0.367045
     3  H    0.409850  -0.041326   0.654499  -0.031450  -0.039262   0.010319
     4  H    0.404018  -0.043424  -0.031450   0.657492  -0.026261  -0.005002
     5  H    0.392599  -0.053354  -0.039262  -0.026261   0.709191  -0.012426
     6  C   -0.051625   0.367045   0.010319  -0.005002  -0.012426   4.830299
     7  H   -0.058692   0.400925  -0.005733  -0.004606   0.012299  -0.033417
     8  H   -0.043837   0.426514  -0.006915   0.009985  -0.007527  -0.048520
     9  C    0.007451  -0.051341  -0.000898  -0.000035   0.000804   0.377739
    10  H   -0.012143  -0.045538  -0.000113   0.000826   0.003396   0.382523
    11  H    0.001181  -0.038472  -0.000350   0.002868   0.000333   0.391132
    12  H    0.000187  -0.003253  -0.000004  -0.000024   0.000094  -0.025464
    13  H   -0.000700   0.009078   0.000050  -0.000003  -0.000032  -0.044783
    14  H   -0.000162  -0.007402  -0.000010   0.000071  -0.000072  -0.048891
               7          8          9         10         11         12
     1  C   -0.058692  -0.043837   0.007451  -0.012143   0.001181   0.000187
     2  C    0.400925   0.426514  -0.051341  -0.045538  -0.038472  -0.003253
     3  H   -0.005733  -0.006915  -0.000898  -0.000113  -0.000350  -0.000004
     4  H   -0.004606   0.009985  -0.000035   0.000826   0.002868  -0.000024
     5  H    0.012299  -0.007527   0.000804   0.003396   0.000333   0.000094
     6  C   -0.033417  -0.048520   0.377739   0.382523   0.391132  -0.025464
     7  H    0.699308  -0.043098  -0.001763   0.008390  -0.001986   0.000184
     8  H   -0.043098   0.604436  -0.006311  -0.008364   0.008716   0.001609
     9  C   -0.001763  -0.006311   4.702309  -0.041184  -0.031893   0.401247
    10  H    0.008390  -0.008364  -0.041184   0.674306  -0.033984  -0.002184
    11  H   -0.001986   0.008716  -0.031893  -0.033984   0.671911   0.004446
    12  H    0.000184   0.001609   0.401247  -0.002184   0.004446   0.659512
    13  H   -0.000086   0.000014   0.403825  -0.002464  -0.003621  -0.038423
    14  H    0.002075   0.000648   0.399936   0.007905  -0.000016  -0.029783
              13         14
     1  C   -0.000700  -0.000162
     2  C    0.009078  -0.007402
     3  H    0.000050  -0.000010
     4  H   -0.000003   0.000071
     5  H   -0.000032  -0.000072
     6  C   -0.044783  -0.048891
     7  H   -0.000086   0.002075
     8  H    0.000014   0.000648
     9  C    0.403825   0.399936
    10  H   -0.002464   0.007905
    11  H   -0.003621  -0.000016
    12  H   -0.038423  -0.029783
    13  H    0.641575  -0.029152
    14  H   -0.029152   0.651082
 Mulliken charges:
               1
     1  C   -0.143089
     2  C   -0.102766
     3  H    0.051343
     4  H    0.035546
     5  H    0.020216
     6  C   -0.088927
     7  H    0.026199
     8  H    0.112650
     9  C   -0.159885
    10  H    0.068628
    11  H    0.029735
    12  H    0.031856
    13  H    0.064723
    14  H    0.053771
 Sum of Mulliken charges =   0.00000
 Mulliken charges with hydrogens summed into heavy atoms:
               1
     1  C   -0.035983
     2  C    0.036083
     6  C    0.009436
     9  C   -0.009535
 Electronic spatial extent (au):  <R**2>=            436.0720
 Charge=              0.0000 electrons
 Dipole moment (field-independent basis, Debye):
    X=             -0.1464    Y=             -0.1512    Z=             -0.2371  Tot=              0.3170
 Quadrupole moment (field-independent basis, Debye-Ang):
   XX=            -29.7491   YY=            -29.2193   ZZ=            -28.0689
   XY=             -0.6462   XZ=              0.2845   YZ=              0.4115
 Traceless Quadrupole moment (field-independent basis, Debye-Ang):
   XX=             -0.7367   YY=             -0.2069   ZZ=              0.9435
   XY=             -0.6462   XZ=              0.2845   YZ=              0.4115
 Octapole moment (field-independent basis, Debye-Ang**2):
  XXX=             -2.4832  YYY=             -0.9994  ZZZ=             -0.6164  XYY=             -0.2412
  XXY=             -1.4267  XXZ=             -1.0354  XZZ=             -0.3220  YZZ=             -0.3232
  YYZ=              0.2362  XYZ=              0.1461
 Hexadecapole moment (field-independent basis, Debye-Ang**3):
 XXXX=           -475.4497 YYYY=            -98.6298 ZZZZ=            -64.9363 XXXY=             -9.1537
 XXXZ=              2.4882 YYYX=             -3.2333 YYYZ=              1.2130 ZZZX=              0.5444
 ZZZY=              0.2199 XXYY=            -92.5406 XXZZ=            -87.4774 YYZZ=            -24.2779
 XXYZ=              2.4964 YYXZ=              0.6393 ZZXY=              1.2177
 N-N= 1.285982890915D+02 E-N=-6.228674964440D+02  KE= 1.573384087807D+02
 Leave Link  601 at Wed Aug 26 16:14:57 2020, MaxMem=  2097152000 cpu:         1.1
 (Enter /opt/cluster/programs/g09/g09_d.01/g09/l9999.exe)
 1\1\GINC-NODE26\SP\RB2PLYPD3-FC\def2QZVP\C4H10\BOITTIER\26-Aug-2020\0\
 \#p B2PLYPD3/Def2QZVP\\butane_opt\\0,1\C,0,-3.942876,0.226528,0.098029
 \C,0,-2.744029,-0.618266,-0.085179\H,0,-4.834612,-0.318379,0.387176\H,
 0,-4.17896,0.936411,-0.85787\H,0,-3.743032,0.898912,1.027498\C,0,-1.38
 5151,0.26475,-0.077053\H,0,-2.975402,-1.305074,-0.963323\H,0,-2.618967
 ,-1.090332,0.688129\C,0,-0.118745,-0.743124,0.140843\H,0,-1.590271,0.8
 04493,0.791337\H,0,-1.320614,1.000641,-1.04284\H,0,-0.029698,-1.385615
 ,1.115588\H,0,0.696215,-0.172529,0.125104\H,0,-0.127561,-1.409284,-0.7
 65606\\Version=ES64L-G09RevD.01\State=1-A\HF=-158.0460723\MP2=-158.294
 1605\RMSD=1.587e-09\PG=C01 [X(C4H10)]\\@


 Everywhere is walking distance if you have the time.
                                    -- Steven Wright
 Job cpu time:       0 days  1 hours 28 minutes 43.9 seconds.
 File lengths (MBytes):  RWF=    152 Int=      0 D2E=      0 Chk=     14 Scr=      1
 Normal termination of Gaussian 09 at Wed Aug 26 16:14:57 2020.
