 Entering Gaussian System, Link 0=/opt/cluster/programs/g09/g09_d.01/g09//g09
 Input=/home/boittier/MDCM/nms_sampling/butane_geom.xyz.dir/energies/butane_opt_614_energy.com
 Output=/scratch/boittier/butane_opt_614_energy/butane_opt_614_energy.out
 Initial command:
 /opt/cluster/programs/g09/g09_d.01/g09/l1.exe "/scratch/boittier/butane_opt_614_energy/Gau-56830.inp" -scrdir="/scratch/boittier/butane_opt_614_energy/"
 Entering Link 1 = /opt/cluster/programs/g09/g09_d.01/g09/l1.exe PID=     56831.
  
 Copyright (c) 1988,1990,1992,1993,1995,1998,2003,2009,2013,
            Gaussian, Inc.  All Rights Reserved.
  
 This is part of the Gaussian(R) 09 program.  It is based on
 the Gaussian(R) 03 system (copyright 2003, Gaussian, Inc.),
 the Gaussian(R) 98 system (copyright 1998, Gaussian, Inc.),
 the Gaussian(R) 94 system (copyright 1995, Gaussian, Inc.),
 the Gaussian 92(TM) system (copyright 1992, Gaussian, Inc.),
 the Gaussian 90(TM) system (copyright 1990, Gaussian, Inc.),
 the Gaussian 88(TM) system (copyright 1988, Gaussian, Inc.),
 the Gaussian 86(TM) system (copyright 1986, Carnegie Mellon
 University), and the Gaussian 82(TM) system (copyright 1983,
 Carnegie Mellon University). Gaussian is a federally registered
 trademark of Gaussian, Inc.
  
 This software contains proprietary and confidential information,
 including trade secrets, belonging to Gaussian, Inc.
  
 This software is provided under written license and may be
 used, copied, transmitted, or stored only in accord with that
 written license.
  
 The following legend is applicable only to US Government
 contracts under FAR:
  
                    RESTRICTED RIGHTS LEGEND
  
 Use, reproduction and disclosure by the US Government is
 subject to restrictions as set forth in subparagraphs (a)
 and (c) of the Commercial Computer Software - Restricted
 Rights clause in FAR 52.227-19.
  
 Gaussian, Inc.
 340 Quinnipiac St., Bldg. 40, Wallingford CT 06492
  
  
 ---------------------------------------------------------------
 Warning -- This program may not be used in any manner that
 competes with the business of Gaussian, Inc. or will provide
 assistance to any competitor of Gaussian, Inc.  The licensee
 of this program is prohibited from giving any competitor of
 Gaussian, Inc. access to this program.  By using this program,
 the user acknowledges that Gaussian, Inc. is engaged in the
 business of creating and licensing software in the field of
 computational chemistry and represents and warrants to the
 licensee that it is not a competitor of Gaussian, Inc. and that
 it will not use this program in any manner prohibited above.
 ---------------------------------------------------------------
  

 Cite this work as:
 Gaussian 09, Revision D.01,
 M. J. Frisch, G. W. Trucks, H. B. Schlegel, G. E. Scuseria, 
 M. A. Robb, J. R. Cheeseman, G. Scalmani, V. Barone, B. Mennucci, 
 G. A. Petersson, H. Nakatsuji, M. Caricato, X. Li, H. P. Hratchian, 
 A. F. Izmaylov, J. Bloino, G. Zheng, J. L. Sonnenberg, M. Hada, 
 M. Ehara, K. Toyota, R. Fukuda, J. Hasegawa, M. Ishida, T. Nakajima, 
 Y. Honda, O. Kitao, H. Nakai, T. Vreven, J. A. Montgomery, Jr., 
 J. E. Peralta, F. Ogliaro, M. Bearpark, J. J. Heyd, E. Brothers, 
 K. N. Kudin, V. N. Staroverov, T. Keith, R. Kobayashi, J. Normand, 
 K. Raghavachari, A. Rendell, J. C. Burant, S. S. Iyengar, J. Tomasi, 
 M. Cossi, N. Rega, J. M. Millam, M. Klene, J. E. Knox, J. B. Cross, 
 V. Bakken, C. Adamo, J. Jaramillo, R. Gomperts, R. E. Stratmann, 
 O. Yazyev, A. J. Austin, R. Cammi, C. Pomelli, J. W. Ochterski, 
 R. L. Martin, K. Morokuma, V. G. Zakrzewski, G. A. Voth, 
 P. Salvador, J. J. Dannenberg, S. Dapprich, A. D. Daniels, 
 O. Farkas, J. B. Foresman, J. V. Ortiz, J. Cioslowski, 
 and D. J. Fox, Gaussian, Inc., Wallingford CT, 2013.
 
 ******************************************
 Gaussian 09:  ES64L-G09RevD.01 24-Apr-2013
                26-Aug-2020 
 ******************************************
 %chk=/home/boittier/MDCM/nms_sampling/butane_geom.xyz.dir/butane_opt_614.chk
 %nproc=8
 Will use up to    8 processors via shared memory.
 %mem=16000MB
 --------------------
 #p B2PLYPD3/Def2QZVP
 --------------------
 1/38=1/1;
 2/12=2,17=6,18=5,40=1/2;
 3/5=45,7=101,11=9,16=1,25=1,30=1,74=-60/1,2,3;
 4//1;
 5/5=2,38=5/2;
 8/10=1/1;
 9/16=-3/6;
 6/7=2,8=2,9=2,10=2/1;
 99/5=1,9=1/99;
 Leave Link    1 at Wed Aug 26 22:22:48 2020, MaxMem=  2097152000 cpu:         0.3
 (Enter /opt/cluster/programs/g09/g09_d.01/g09/l101.exe)
 ----------
 butane_opt
 ----------
 Symbolic Z-matrix:
 Charge =  0 Multiplicity = 1
 C                    -3.96151   0.32132   0.00171 
 C                    -2.7043   -0.69073   0.0403 
 H                    -4.84925  -0.30276  -0.06115 
 H                    -4.10135   0.62787  -0.72063 
 H                    -4.12775   1.28912   1.07405 
 C                    -1.38265   0.14386   0.00022 
 H                    -2.72671  -1.23811  -0.78875 
 H                    -2.65598  -1.28531   0.84069 
 C                    -0.16907  -0.64898   0.05289 
 H                    -1.23528   0.7966    0.78184 
 H                    -1.22338   0.84093  -0.90445 
 H                    -0.02842  -1.41694   1.06077 
 H                     0.73972  -0.10671  -0.16662 
 H                    -0.20779  -1.19252  -0.7649 
 
 NAtoms=     14 NQM=       14 NQMF=       0 NMMI=      0 NMMIF=      0
                NMic=       0 NMicF=      0.
                    Isotopes and Nuclear Properties:
 (Nuclear quadrupole moments (NQMom) in fm**2, nuclear magnetic moments (NMagM)
  in nuclear magnetons)

  Atom         1           2           3           4           5           6           7           8           9          10
 IAtWgt=          12          12           1           1           1          12           1           1          12           1
 AtmWgt=  12.0000000  12.0000000   1.0078250   1.0078250   1.0078250  12.0000000   1.0078250   1.0078250  12.0000000   1.0078250
 NucSpn=           0           0           1           1           1           0           1           1           0           1
 AtZEff=   0.0000000   0.0000000   0.0000000   0.0000000   0.0000000   0.0000000   0.0000000   0.0000000   0.0000000   0.0000000
 NQMom=    0.0000000   0.0000000   0.0000000   0.0000000   0.0000000   0.0000000   0.0000000   0.0000000   0.0000000   0.0000000
 NMagM=    0.0000000   0.0000000   2.7928460   2.7928460   2.7928460   0.0000000   2.7928460   2.7928460   0.0000000   2.7928460
 AtZNuc=   6.0000000   6.0000000   1.0000000   1.0000000   1.0000000   6.0000000   1.0000000   1.0000000   6.0000000   1.0000000

  Atom        11          12          13          14
 IAtWgt=           1           1           1           1
 AtmWgt=   1.0078250   1.0078250   1.0078250   1.0078250
 NucSpn=           1           1           1           1
 AtZEff=   0.0000000   0.0000000   0.0000000   0.0000000
 NQMom=    0.0000000   0.0000000   0.0000000   0.0000000
 NMagM=    2.7928460   2.7928460   2.7928460   2.7928460
 AtZNuc=   1.0000000   1.0000000   1.0000000   1.0000000
 Leave Link  101 at Wed Aug 26 22:22:48 2020, MaxMem=  2097152000 cpu:         0.5
 (Enter /opt/cluster/programs/g09/g09_d.01/g09/l202.exe)
                          Input orientation:                          
 ---------------------------------------------------------------------
 Center     Atomic      Atomic             Coordinates (Angstroms)
 Number     Number       Type             X           Y           Z
 ---------------------------------------------------------------------
      1          6           0       -3.961512    0.321321    0.001707
      2          6           0       -2.704295   -0.690730    0.040299
      3          1           0       -4.849249   -0.302762   -0.061147
      4          1           0       -4.101354    0.627867   -0.720628
      5          1           0       -4.127751    1.289115    1.074053
      6          6           0       -1.382646    0.143857    0.000215
      7          1           0       -2.726706   -1.238110   -0.788749
      8          1           0       -2.655984   -1.285310    0.840685
      9          6           0       -0.169071   -0.648975    0.052887
     10          1           0       -1.235279    0.796600    0.781844
     11          1           0       -1.223382    0.840934   -0.904449
     12          1           0       -0.028419   -1.416936    1.060768
     13          1           0        0.739721   -0.106710   -0.166615
     14          1           0       -0.207788   -1.192523   -0.764898
 ---------------------------------------------------------------------
                    Distance matrix (angstroms):
                    1          2          3          4          5
     1  C    0.000000
     2  C    1.614414   0.000000
     3  H    1.086972   2.182118   0.000000
     4  H    0.797053   2.066272   1.363940   0.000000
     5  H    1.454024   2.648520   2.084061   1.912806   0.000000
     6  C    2.584965   1.563617   3.495793   2.853989   3.162332
     7  H    2.140419   0.993704   2.430940   2.318656   3.437997
     8  H    2.233730   0.998237   2.566927   2.861300   2.974596
     9  C    3.914933   2.535599   4.694351   4.206127   4.524392
    10  H    2.875213   2.218118   3.870402   3.240413   2.948619
    11  H    2.930610   2.330589   3.894369   2.891697   3.542696
    12  H    4.428585   2.954496   5.073508   4.893198   4.911966
    13  H    4.723678   3.499305   5.593402   4.927732   5.213432
    14  H    4.119448   2.670709   4.778085   4.298329   4.990629
                    6          7          8          9         10
     6  C    0.000000
     7  H    2.082977   0.000000
     8  H    2.090526   1.631651   0.000000
     9  C    1.450559   2.756253   2.685197   0.000000
    10  H    1.028948   2.971727   2.521153   1.938521   0.000000
    11  H    1.153125   2.568228   3.101412   2.061042   1.686918
    12  H    2.322666   3.276194   2.640049   1.274900   2.536543
    13  H    2.143609   3.699085   3.732903   1.080803   2.369846
    14  H    1.936905   2.519443   2.929193   0.982708   2.721169
                   11         12         13         14
    11  H    0.000000
    12  H    3.223041   0.000000
    13  H    2.301348   1.952742   0.000000
    14  H    2.277247   1.848132   1.560354   0.000000
 Stoichiometry    C4H10
 Framework group  C1[X(C4H10)]
 Deg. of freedom    36
 Full point group                 C1      NOp   1
 Largest Abelian subgroup         C1      NOp   1
 Largest concise Abelian subgroup C1      NOp   1
                         Standard orientation:                         
 ---------------------------------------------------------------------
 Center     Atomic      Atomic             Coordinates (Angstroms)
 Number     Number       Type             X           Y           Z
 ---------------------------------------------------------------------
      1          6           0       -1.976882    0.169637   -0.023742
      2          6           0       -0.553400   -0.591204    0.010189
      3          1           0       -2.733125   -0.608271   -0.090543
      4          1           0       -2.171550    0.448757   -0.744499
      5          1           0       -2.319769    1.083806    1.053714
      6          6           0        0.590011    0.474772   -0.024528
      7          1           0       -0.473952   -1.128694   -0.821821
      8          1           0       -0.395083   -1.170773    0.807379
      9          6           0        1.929857   -0.078867    0.024640
     10          1           0        0.613731    1.139276    0.760714
     11          1           0        0.616553    1.194211   -0.925306
     12          1           0        2.211218   -0.812750    1.028445
     13          1           0        2.721895    0.624100   -0.191339
     14          1           0        1.992575   -0.615685   -0.796097
 ---------------------------------------------------------------------
 Rotational constants (GHZ):     22.8086848      3.5861895      3.3553021
 Leave Link  202 at Wed Aug 26 22:22:48 2020, MaxMem=  2097152000 cpu:         0.0
 (Enter /opt/cluster/programs/g09/g09_d.01/g09/l301.exe)
 Standard basis: def2QZVP (5D, 7F)
 Ernie: Thresh=  0.10000D-02 Tol=  0.10000D-05 Strict=F.
 There are   638 symmetry adapted cartesian basis functions of A   symmetry.
 There are   528 symmetry adapted basis functions of A   symmetry.
   528 basis functions,   748 primitive gaussians,   638 cartesian basis functions
    17 alpha electrons       17 beta electrons
       nuclear repulsion energy       131.0246554857 Hartrees.
 IExCor=  419 DFT=T Ex+Corr=B2PLYPD3 ExCW=0 ScaHFX=  0.530000
 ScaDFX=  0.470000  0.470000  0.730000  0.730000 ScalE2=  0.270000  0.270000
 IRadAn=      0 IRanWt=     -1 IRanGd=            0 ICorTp=0 IEmpDi=141
 NAtoms=   14 NActive=   14 NUniq=   14 SFac= 1.00D+00 NAtFMM=   60 NAOKFM=F Big=F
 Integral buffers will be    131072 words long.
 Regular integral format.
 Two-electron integral symmetry is turned on.
 R6Disp:  Grimme-D3(BJ) Dispersion energy=       -0.0066606620 Hartrees.
 Nuclear repulsion after empirical dispersion term =      131.0179948236 Hartrees.
 Leave Link  301 at Wed Aug 26 22:22:48 2020, MaxMem=  2097152000 cpu:         0.4
 (Enter /opt/cluster/programs/g09/g09_d.01/g09/l302.exe)
 NPDir=0 NMtPBC=     1 NCelOv=     1 NCel=       1 NClECP=     1 NCelD=      1
         NCelK=      1 NCelE2=     1 NClLst=     1 CellRange=     0.0.
 One-electron integrals computed using PRISM.
   1 Symmetry operations used in ECPInt.
 ECPInt:  NShTT=   14196 NPrTT=   30597 LenC2=   13858 LenP2D=   25900.
 LDataN:  DoStor=T MaxTD1= 8 Len=  415
 NBasis=   528 RedAO= T EigKep=  2.96D-05  NBF=   528
 NBsUse=   528 1.00D-06 EigRej= -1.00D+00 NBFU=   528
 Precomputing XC quadrature grid using
 IXCGrd= 4 IRadAn=           0 IRanWt=          -1 IRanGd=           0 AccXCQ= 0.00D+00.
 Generated NRdTot=       0 NPtTot=           0 NUsed=           0 NTot=          32
 NSgBfM=   637   637   637   637   637 MxSgAt=    14 MxSgA2=    14.
 Leave Link  302 at Wed Aug 26 22:22:49 2020, MaxMem=  2097152000 cpu:         5.6
 (Enter /opt/cluster/programs/g09/g09_d.01/g09/l303.exe)
 DipDrv:  MaxL=1.
 Leave Link  303 at Wed Aug 26 22:22:49 2020, MaxMem=  2097152000 cpu:         0.6
 (Enter /opt/cluster/programs/g09/g09_d.01/g09/l401.exe)
 ExpMin= 7.60D-02 ExpMax= 6.70D+04 ExpMxC= 6.47D+02 IAcc=2 IRadAn=         4 AccDes= 0.00D+00
 Harris functional with IExCor=  419 and IRadAn=       4 diagonalized for initial guess.
 HarFok:  IExCor=  419 AccDes= 0.00D+00 IRadAn=         4 IDoV= 1 UseB2=F ITyADJ=14
 ICtDFT=  3500011 ScaDFX=  1.000000  1.000000  1.000000  1.000000
 FoFCou: FMM=F IPFlag=           0 FMFlag=      100000 FMFlg1=           0
         NFxFlg=           0 DoJE=T BraDBF=F KetDBF=T FulRan=T
         wScrn=  0.000000 ICntrl=     500 IOpCl=  0 I1Cent=   200000004 NGrid=           0
         NMat0=    1 NMatS0=      1 NMatT0=    0 NMatD0=    1 NMtDS0=    0 NMtDT0=    0
 Petite list used in FoFCou.
 Harris En= -158.469440182994    
 JPrj=0 DoOrth=F DoCkMO=F.
 Leave Link  401 at Wed Aug 26 22:22:51 2020, MaxMem=  2097152000 cpu:        17.5
 (Enter /opt/cluster/programs/g09/g09_d.01/g09/l502.exe)
 Closed shell SCF:
 Using DIIS extrapolation, IDIIS=  1040.
 Integral symmetry usage will be decided dynamically.
 IVT=     1249338 IEndB=     1249338 NGot=  2097152000 MDV=  2096326985
 LenX=  2096326985 LenY=  2095919303
 Requested convergence on RMS density matrix=1.00D-08 within 128 cycles.
 Requested convergence on MAX density matrix=1.00D-06.
 Requested convergence on             energy=1.00D-06.
 No special actions if energy rises.
 Fock matrices will be formed incrementally for  20 cycles.
 Integral accuracy reduced to 1.0D-05 until final iterations.

 Cycle   1  Pass 0  IDiag  1:
 FoFJK:  IHMeth= 1 ICntrl=       0 DoSepK=F KAlg= 0 I1Cent=   0 FoldK=F
 IRaf= 930000000 NMat=   1 IRICut=       1 DoRegI=T DoRafI=F ISym2E= 0.
 FoFCou: FMM=F IPFlag=           0 FMFlag=      100000 FMFlg1=           0
         NFxFlg=           0 DoJE=F BraDBF=F KetDBF=F FulRan=T
         wScrn=  0.000000 ICntrl=       0 IOpCl=  0 I1Cent=           0 NGrid=           0
         NMat0=    1 NMatS0=      1 NMatT0=    0 NMatD0=    1 NMtDS0=    0 NMtDT0=    0
 Symmetry not used in FoFCou.
 E= -157.586897077709    
 DIIS: error= 2.62D-02 at cycle   1 NSaved=   1.
 NSaved= 1 IEnMin= 1 EnMin= -157.586897077709     IErMin= 1 ErrMin= 2.62D-02
 ErrMax= 2.62D-02  0.00D+00 EMaxC= 1.00D-01 BMatC= 3.99D-01 BMatP= 3.99D-01
 IDIUse=3 WtCom= 7.38D-01 WtEn= 2.62D-01
 Coeff-Com:  0.100D+01
 Coeff-En:   0.100D+01
 Coeff:      0.100D+01
 Gap=     0.386 Goal=   None    Shift=    0.000
 GapD=    0.386 DampG=1.000 DampE=0.500 DampFc=0.5000 IDamp=-1.
 Damping current iteration by 5.00D-01
 RMSDP=1.09D-03 MaxDP=6.69D-02              OVMax= 2.06D-01

 Cycle   2  Pass 0  IDiag  1:
 RMSU=  5.19D-04    CP:  9.45D-01
 E= -157.755352427803     Delta-E=       -0.168455350095 Rises=F Damp=T
 DIIS: error= 5.55D-03 at cycle   2 NSaved=   2.
 NSaved= 2 IEnMin= 2 EnMin= -157.755352427803     IErMin= 2 ErrMin= 5.55D-03
 ErrMax= 5.55D-03  0.00D+00 EMaxC= 1.00D-01 BMatC= 3.46D-02 BMatP= 3.99D-01
 IDIUse=3 WtCom= 9.45D-01 WtEn= 5.55D-02
 Coeff-Com: -0.171D+00 0.117D+01
 Coeff-En:   0.000D+00 0.100D+01
 Coeff:     -0.161D+00 0.116D+01
 Gap=     0.453 Goal=   None    Shift=    0.000
 RMSDP=2.87D-04 MaxDP=1.56D-02 DE=-1.68D-01 OVMax= 1.22D-01

 Cycle   3  Pass 0  IDiag  1:
 RMSU=  2.71D-04    CP:  9.32D-01  8.33D-01
 E= -157.910602521472     Delta-E=       -0.155250093669 Rises=F Damp=F
 DIIS: error= 3.94D-03 at cycle   3 NSaved=   3.
 NSaved= 3 IEnMin= 3 EnMin= -157.910602521472     IErMin= 3 ErrMin= 3.94D-03
 ErrMax= 3.94D-03  0.00D+00 EMaxC= 1.00D-01 BMatC= 3.01D-03 BMatP= 3.46D-02
 IDIUse=3 WtCom= 9.61D-01 WtEn= 3.94D-02
 Coeff-Com: -0.935D-01 0.205D+00 0.889D+00
 Coeff-En:   0.000D+00 0.000D+00 0.100D+01
 Coeff:     -0.898D-01 0.197D+00 0.893D+00
 Gap=     0.423 Goal=   None    Shift=    0.000
 RMSDP=6.43D-05 MaxDP=4.31D-03 DE=-1.55D-01 OVMax= 1.38D-02

 Cycle   4  Pass 0  IDiag  1:
 RMSU=  5.44D-05    CP:  9.28D-01  8.92D-01  1.03D+00
 E= -157.913594067257     Delta-E=       -0.002991545785 Rises=F Damp=F
 DIIS: error= 8.51D-04 at cycle   4 NSaved=   4.
 NSaved= 4 IEnMin= 4 EnMin= -157.913594067257     IErMin= 4 ErrMin= 8.51D-04
 ErrMax= 8.51D-04  0.00D+00 EMaxC= 1.00D-01 BMatC= 1.54D-04 BMatP= 3.01D-03
 IDIUse=3 WtCom= 9.91D-01 WtEn= 8.51D-03
 Coeff-Com: -0.195D-01 0.261D-01 0.254D+00 0.739D+00
 Coeff-En:   0.000D+00 0.000D+00 0.000D+00 0.100D+01
 Coeff:     -0.194D-01 0.259D-01 0.252D+00 0.742D+00
 Gap=     0.424 Goal=   None    Shift=    0.000
 RMSDP=1.68D-05 MaxDP=1.29D-03 DE=-2.99D-03 OVMax= 3.22D-03

 Cycle   5  Pass 0  IDiag  1:
 RMSU=  1.25D-05    CP:  9.28D-01  8.79D-01  1.06D+00  9.41D-01
 E= -157.913729248320     Delta-E=       -0.000135181063 Rises=F Damp=F
 DIIS: error= 1.87D-04 at cycle   5 NSaved=   5.
 NSaved= 5 IEnMin= 5 EnMin= -157.913729248320     IErMin= 5 ErrMin= 1.87D-04
 ErrMax= 1.87D-04  0.00D+00 EMaxC= 1.00D-01 BMatC= 1.31D-05 BMatP= 1.54D-04
 IDIUse=3 WtCom= 9.98D-01 WtEn= 1.87D-03
 Coeff-Com: -0.983D-03-0.340D-02 0.385D-01 0.260D+00 0.706D+00
 Coeff-En:   0.000D+00 0.000D+00 0.000D+00 0.000D+00 0.100D+01
 Coeff:     -0.981D-03-0.339D-02 0.385D-01 0.260D+00 0.706D+00
 Gap=     0.423 Goal=   None    Shift=    0.000
 RMSDP=4.61D-06 MaxDP=2.77D-04 DE=-1.35D-04 OVMax= 6.82D-04

 Initial convergence to 1.0D-05 achieved.  Increase integral accuracy.
 Cycle   6  Pass 1  IDiag  1:
 E= -157.913732023082     Delta-E=       -0.000002774762 Rises=F Damp=F
 DIIS: error= 6.21D-05 at cycle   1 NSaved=   1.
 NSaved= 1 IEnMin= 1 EnMin= -157.913732023082     IErMin= 1 ErrMin= 6.21D-05
 ErrMax= 6.21D-05  0.00D+00 EMaxC= 1.00D-01 BMatC= 8.24D-07 BMatP= 8.24D-07
 IDIUse=1 WtCom= 1.00D+00 WtEn= 0.00D+00
 Coeff-Com:  0.100D+01
 Coeff:      0.100D+01
 Gap=     0.424 Goal=   None    Shift=    0.000
 RMSDP=4.61D-06 MaxDP=2.77D-04 DE=-2.77D-06 OVMax= 2.38D-04

 Cycle   7  Pass 1  IDiag  1:
 RMSU=  2.77D-05    CP:  1.00D+00
 E= -157.913732578903     Delta-E=       -0.000000555821 Rises=F Damp=F
 DIIS: error= 1.63D-05 at cycle   2 NSaved=   2.
 NSaved= 2 IEnMin= 2 EnMin= -157.913732578903     IErMin= 2 ErrMin= 1.63D-05
 ErrMax= 1.63D-05  0.00D+00 EMaxC= 1.00D-01 BMatC= 8.53D-08 BMatP= 8.24D-07
 IDIUse=1 WtCom= 1.00D+00 WtEn= 0.00D+00
 Coeff-Com:  0.141D+00 0.859D+00
 Coeff:      0.141D+00 0.859D+00
 Gap=     0.424 Goal=   None    Shift=    0.000
 RMSDP=9.66D-07 MaxDP=6.41D-05 DE=-5.56D-07 OVMax= 9.03D-05

 Cycle   8  Pass 1  IDiag  1:
 RMSU=  5.37D-07    CP:  1.00D+00  1.03D+00
 E= -157.913732639293     Delta-E=       -0.000000060390 Rises=F Damp=F
 DIIS: error= 1.02D-05 at cycle   3 NSaved=   3.
 NSaved= 3 IEnMin= 3 EnMin= -157.913732639293     IErMin= 3 ErrMin= 1.02D-05
 ErrMax= 1.02D-05  0.00D+00 EMaxC= 1.00D-01 BMatC= 3.03D-08 BMatP= 8.53D-08
 IDIUse=1 WtCom= 1.00D+00 WtEn= 0.00D+00
 Coeff-Com: -0.227D-01 0.361D+00 0.662D+00
 Coeff:     -0.227D-01 0.361D+00 0.662D+00
 Gap=     0.424 Goal=   None    Shift=    0.000
 RMSDP=2.68D-07 MaxDP=2.01D-05 DE=-6.04D-08 OVMax= 4.08D-05

 Cycle   9  Pass 1  IDiag  1:
 RMSU=  2.00D-07    CP:  1.00D+00  1.04D+00  9.45D-01
 E= -157.913732669061     Delta-E=       -0.000000029768 Rises=F Damp=F
 DIIS: error= 1.03D-06 at cycle   4 NSaved=   4.
 NSaved= 4 IEnMin= 4 EnMin= -157.913732669061     IErMin= 4 ErrMin= 1.03D-06
 ErrMax= 1.03D-06  0.00D+00 EMaxC= 1.00D-01 BMatC= 3.47D-10 BMatP= 3.03D-08
 IDIUse=1 WtCom= 1.00D+00 WtEn= 0.00D+00
 Coeff-Com: -0.761D-02 0.721D-02 0.738D-01 0.927D+00
 Coeff:     -0.761D-02 0.721D-02 0.738D-01 0.927D+00
 Gap=     0.424 Goal=   None    Shift=    0.000
 RMSDP=5.60D-08 MaxDP=3.39D-06 DE=-2.98D-08 OVMax= 6.93D-06

 Cycle  10  Pass 1  IDiag  1:
 RMSU=  3.67D-08    CP:  1.00D+00  1.04D+00  1.00D+00  1.14D+00
 E= -157.913732669571     Delta-E=       -0.000000000510 Rises=F Damp=F
 DIIS: error= 3.30D-07 at cycle   5 NSaved=   5.
 NSaved= 5 IEnMin= 5 EnMin= -157.913732669571     IErMin= 5 ErrMin= 3.30D-07
 ErrMax= 3.30D-07  0.00D+00 EMaxC= 1.00D-01 BMatC= 5.00D-11 BMatP= 3.47D-10
 IDIUse=1 WtCom= 1.00D+00 WtEn= 0.00D+00
 Coeff-Com:  0.177D-03-0.335D-01-0.457D-01 0.247D+00 0.832D+00
 Coeff:      0.177D-03-0.335D-01-0.457D-01 0.247D+00 0.832D+00
 Gap=     0.424 Goal=   None    Shift=    0.000
 RMSDP=1.66D-08 MaxDP=8.01D-07 DE=-5.10D-10 OVMax= 3.26D-06

 Cycle  11  Pass 1  IDiag  1:
 RMSU=  1.05D-08    CP:  1.00D+00  1.04D+00  1.01D+00  1.19D+00  1.12D+00
 E= -157.913732669633     Delta-E=       -0.000000000063 Rises=F Damp=F
 DIIS: error= 1.18D-07 at cycle   6 NSaved=   6.
 NSaved= 6 IEnMin= 6 EnMin= -157.913732669633     IErMin= 6 ErrMin= 1.18D-07
 ErrMax= 1.18D-07  0.00D+00 EMaxC= 1.00D-01 BMatC= 4.30D-12 BMatP= 5.00D-11
 IDIUse=1 WtCom= 1.00D+00 WtEn= 0.00D+00
 Coeff-Com:  0.449D-03-0.132D-01-0.212D-01 0.503D-01 0.320D+00 0.664D+00
 Coeff:      0.449D-03-0.132D-01-0.212D-01 0.503D-01 0.320D+00 0.664D+00
 Gap=     0.424 Goal=   None    Shift=    0.000
 RMSDP=2.99D-09 MaxDP=1.72D-07 DE=-6.26D-11 OVMax= 4.95D-07

 SCF Done:  E(RB2PLYPD3) =  -157.913732670     A.U. after   11 cycles
            NFock= 11  Conv=0.30D-08     -V/T= 1.9986
 KE= 1.581410547024D+02 PE=-6.280120741370D+02 EE= 1.809392919414D+02
 Leave Link  502 at Wed Aug 26 22:29:32 2020, MaxMem=  2097152000 cpu:      3204.6
 (Enter /opt/cluster/programs/g09/g09_d.01/g09/l801.exe)
 DoSCS=T DFT=T ScalE2(SS,OS)=  0.270000  0.270000
 ExpMin= 7.60D-02 ExpMax= 6.70D+04 ExpMxC= 6.47D+02 IAcc=3 IRadAn=         5 AccDes= 0.00D+00
 HarFok:  IExCor=  205 AccDes= 0.00D+00 IRadAn=         5 IDoV=-2 UseB2=F ITyADJ=14
 ICtDFT= 12500011 ScaDFX=  1.000000  1.000000  1.000000  1.000000
 Largest valence mixing into a core orbital is  1.09D-04
 Largest core mixing into a valence orbital is  1.64D-05
 Range of M.O.s used for correlation:     5   528
 NBasis=   528 NAE=    17 NBE=    17 NFC=     4 NFV=     0
 NROrb=    524 NOA=    13 NOB=    13 NVA=   511 NVB=   511

 **** Warning!!: The largest alpha MO coefficient is  0.27888815D+02

 Leave Link  801 at Wed Aug 26 22:29:33 2020, MaxMem=  2097152000 cpu:         4.8
 (Enter /opt/cluster/programs/g09/g09_d.01/g09/l906.exe)
 DoSCS=T DFT=T ScalE2(SS,OS)=  0.270000  0.270000
 FulOut=F Deriv=F AODrv=F NAtomX=    14
   MMem=         463  MDisk=          13 MDiskD=          13
  W3Min=     4238234 MinDsk=     6904766 NBas6D=         638
 NBas2D=      205689    NTT=      203841    LW2=     4508827
    MDV=  2095903814 MDiskM=        7293 NBas2p=      188859
 Fully direct method using O(OVN) memory.
 IMap=   1   2   3   4   5   6   7   8   9  10  11  12  13
 JobTyp=1 Pass  1:  I=   1 to  13 NPSUse=  8 ParTrn=T ParDer=T DoDerP=F.
 Spin components of T(2) and E(2):
     alpha-alpha T2 =       0.4005245284D-01 E2=     -0.2619238595D-01
     alpha-beta  T2 =       0.2687974001D+00 E2=     -0.1951316305D+00
     beta-beta   T2 =       0.4005245284D-01 E2=     -0.2619238595D-01
 The integrals were generated   1 times.
 E2(B2PLYPD3) =    -0.2475164025D+00 E(B2PLYPD3) =    -0.15816124907208D+03
 Leave Link  906 at Wed Aug 26 22:36:57 2020, MaxMem=  2097152000 cpu:      3546.3
 (Enter /opt/cluster/programs/g09/g09_d.01/g09/l601.exe)
 Copying SCF densities to generalized density rwf, IOpCl= 0 IROHF=0.

 **********************************************************************

            Population analysis using the SCF density.

 **********************************************************************

 Orbital symmetries:
       Occupied  (A) (A) (A) (A) (A) (A) (A) (A) (A) (A) (A) (A)
                 (A) (A) (A) (A) (A)
       Virtual   (A) (A) (A) (A) (A) (A) (A) (A) (A) (A) (A) (A)
                 (A) (A) (A) (A) (A) (A) (A) (A) (A) (A) (A) (A)
                 (A) (A) (A) (A) (A) (A) (A) (A) (A) (A) (A) (A)
                 (A) (A) (A) (A) (A) (A) (A) (A) (A) (A) (A) (A)
                 (A) (A) (A) (A) (A) (A) (A) (A) (A) (A) (A) (A)
                 (A) (A) (A) (A) (A) (A) (A) (A) (A) (A) (A) (A)
                 (A) (A) (A) (A) (A) (A) (A) (A) (A) (A) (A) (A)
                 (A) (A) (A) (A) (A) (A) (A) (A) (A) (A) (A) (A)
                 (A) (A) (A) (A) (A) (A) (A) (A) (A) (A) (A) (A)
                 (A) (A) (A) (A) (A) (A) (A) (A) (A) (A) (A) (A)
                 (A) (A) (A) (A) (A) (A) (A) (A) (A) (A) (A) (A)
                 (A) (A) (A) (A) (A) (A) (A) (A) (A) (A) (A) (A)
                 (A) (A) (A) (A) (A) (A) (A) (A) (A) (A) (A) (A)
                 (A) (A) (A) (A) (A) (A) (A) (A) (A) (A) (A) (A)
                 (A) (A) (A) (A) (A) (A) (A) (A) (A) (A) (A) (A)
                 (A) (A) (A) (A) (A) (A) (A) (A) (A) (A) (A) (A)
                 (A) (A) (A) (A) (A) (A) (A) (A) (A) (A) (A) (A)
                 (A) (A) (A) (A) (A) (A) (A) (A) (A) (A) (A) (A)
                 (A) (A) (A) (A) (A) (A) (A) (A) (A) (A) (A) (A)
                 (A) (A) (A) (A) (A) (A) (A) (A) (A) (A) (A) (A)
                 (A) (A) (A) (A) (A) (A) (A) (A) (A) (A) (A) (A)
                 (A) (A) (A) (A) (A) (A) (A) (A) (A) (A) (A) (A)
                 (A) (A) (A) (A) (A) (A) (A) (A) (A) (A) (A) (A)
                 (A) (A) (A) (A) (A) (A) (A) (A) (A) (A) (A) (A)
                 (A) (A) (A) (A) (A) (A) (A) (A) (A) (A) (A) (A)
                 (A) (A) (A) (A) (A) (A) (A) (A) (A) (A) (A) (A)
                 (A) (A) (A) (A) (A) (A) (A) (A) (A) (A) (A) (A)
                 (A) (A) (A) (A) (A) (A) (A) (A) (A) (A) (A) (A)
                 (A) (A) (A) (A) (A) (A) (A) (A) (A) (A) (A) (A)
                 (A) (A) (A) (A) (A) (A) (A) (A) (A) (A) (A) (A)
                 (A) (A) (A) (A) (A) (A) (A) (A) (A) (A) (A) (A)
                 (A) (A) (A) (A) (A) (A) (A) (A) (A) (A) (A) (A)
                 (A) (A) (A) (A) (A) (A) (A) (A) (A) (A) (A) (A)
                 (A) (A) (A) (A) (A) (A) (A) (A) (A) (A) (A) (A)
                 (A) (A) (A) (A) (A) (A) (A) (A) (A) (A) (A) (A)
                 (A) (A) (A) (A) (A) (A) (A) (A) (A) (A) (A) (A)
                 (A) (A) (A) (A) (A) (A) (A) (A) (A) (A) (A) (A)
                 (A) (A) (A) (A) (A) (A) (A) (A) (A) (A) (A) (A)
                 (A) (A) (A) (A) (A) (A) (A) (A) (A) (A) (A) (A)
                 (A) (A) (A) (A) (A) (A) (A) (A) (A) (A) (A) (A)
                 (A) (A) (A) (A) (A) (A) (A) (A) (A) (A) (A) (A)
                 (A) (A) (A) (A) (A) (A) (A) (A) (A) (A) (A) (A)
                 (A) (A) (A) (A) (A) (A) (A)
 The electronic state is 1-A.
 Alpha  occ. eigenvalues --  -10.60356 -10.60074 -10.59683 -10.59320  -0.92043
 Alpha  occ. eigenvalues --   -0.85545  -0.76099  -0.68083  -0.54627  -0.50251
 Alpha  occ. eigenvalues --   -0.48559  -0.47475  -0.44390  -0.39661  -0.38383
 Alpha  occ. eigenvalues --   -0.37669  -0.37004
 Alpha virt. eigenvalues --    0.05358   0.06198   0.08183   0.08418   0.10732
 Alpha virt. eigenvalues --    0.11461   0.12349   0.13015   0.14926   0.15359
 Alpha virt. eigenvalues --    0.16053   0.16686   0.18893   0.20406   0.21662
 Alpha virt. eigenvalues --    0.22792   0.23181   0.25482   0.25858   0.28408
 Alpha virt. eigenvalues --    0.29340   0.31209   0.32191   0.32602   0.34015
 Alpha virt. eigenvalues --    0.35671   0.36789   0.38257   0.39568   0.40493
 Alpha virt. eigenvalues --    0.41022   0.41960   0.43198   0.45335   0.47101
 Alpha virt. eigenvalues --    0.50150   0.52801   0.57078   0.57553   0.58092
 Alpha virt. eigenvalues --    0.59924   0.60633   0.61708   0.64120   0.65838
 Alpha virt. eigenvalues --    0.67852   0.67985   0.69412   0.70993   0.71174
 Alpha virt. eigenvalues --    0.73599   0.74175   0.77061   0.78233   0.79099
 Alpha virt. eigenvalues --    0.81004   0.82738   0.84705   0.86395   0.87450
 Alpha virt. eigenvalues --    0.87727   0.88685   0.89834   0.90111   0.91506
 Alpha virt. eigenvalues --    0.92624   0.94462   0.95820   0.97171   0.97995
 Alpha virt. eigenvalues --    0.99297   0.99537   1.01104   1.02288   1.03450
 Alpha virt. eigenvalues --    1.03922   1.04378   1.07290   1.08780   1.09592
 Alpha virt. eigenvalues --    1.10501   1.11551   1.13998   1.18401   1.20700
 Alpha virt. eigenvalues --    1.21789   1.23252   1.25139   1.26777   1.27034
 Alpha virt. eigenvalues --    1.29736   1.30228   1.31952   1.33911   1.36141
 Alpha virt. eigenvalues --    1.37614   1.41443   1.45069   1.46214   1.46637
 Alpha virt. eigenvalues --    1.48913   1.52921   1.54360   1.57428   1.61010
 Alpha virt. eigenvalues --    1.62473   1.65853   1.68453   1.69115   1.72697
 Alpha virt. eigenvalues --    1.80009   1.81670   1.86087   1.89250   1.91305
 Alpha virt. eigenvalues --    1.92739   1.93757   1.94752   1.95917   1.96782
 Alpha virt. eigenvalues --    1.98071   2.00337   2.01864   2.03087   2.04847
 Alpha virt. eigenvalues --    2.06402   2.07513   2.07888   2.09580   2.10073
 Alpha virt. eigenvalues --    2.10962   2.11818   2.13176   2.14820   2.15600
 Alpha virt. eigenvalues --    2.17491   2.18597   2.19955   2.20644   2.21922
 Alpha virt. eigenvalues --    2.24002   2.25160   2.26176   2.29450   2.31269
 Alpha virt. eigenvalues --    2.32602   2.33432   2.34972   2.36308   2.36656
 Alpha virt. eigenvalues --    2.39890   2.40426   2.43891   2.45279   2.47652
 Alpha virt. eigenvalues --    2.49412   2.49982   2.52658   2.54594   2.55924
 Alpha virt. eigenvalues --    2.57312   2.57694   2.59251   2.60542   2.60879
 Alpha virt. eigenvalues --    2.63282   2.64450   2.67056   2.68886   2.70567
 Alpha virt. eigenvalues --    2.71697   2.73079   2.73741   2.76847   2.78509
 Alpha virt. eigenvalues --    2.79054   2.80228   2.82639   2.83932   2.85465
 Alpha virt. eigenvalues --    2.87851   2.88642   2.90476   2.92159   2.95748
 Alpha virt. eigenvalues --    2.96796   2.97601   3.01452   3.02469   3.03792
 Alpha virt. eigenvalues --    3.04773   3.05859   3.07420   3.08524   3.10783
 Alpha virt. eigenvalues --    3.13381   3.14996   3.16295   3.17488   3.19957
 Alpha virt. eigenvalues --    3.22966   3.23961   3.25780   3.29636   3.30011
 Alpha virt. eigenvalues --    3.33033   3.33985   3.36708   3.38959   3.44154
 Alpha virt. eigenvalues --    3.45771   3.49482   3.50672   3.53270   3.55879
 Alpha virt. eigenvalues --    3.57324   3.60671   3.61401   3.65100   3.65471
 Alpha virt. eigenvalues --    3.69621   3.70488   3.72606   3.73537   3.76134
 Alpha virt. eigenvalues --    3.80687   3.82145   3.84260   3.91384   3.92689
 Alpha virt. eigenvalues --    3.93060   3.96088   3.98458   4.00980   4.02634
 Alpha virt. eigenvalues --    4.03880   4.05948   4.10433   4.14347   4.16796
 Alpha virt. eigenvalues --    4.20658   4.22050   4.25326   4.26998   4.29669
 Alpha virt. eigenvalues --    4.32787   4.37078   4.41014   4.43848   4.49246
 Alpha virt. eigenvalues --    4.51170   4.64685   4.73486   4.79449   5.01002
 Alpha virt. eigenvalues --    5.09515   5.20053   5.25363   5.26111   5.30744
 Alpha virt. eigenvalues --    5.33469   5.43361   5.44409   5.49928   5.53305
 Alpha virt. eigenvalues --    5.55382   5.56516   5.61371   5.61652   5.64842
 Alpha virt. eigenvalues --    5.67063   5.70227   5.71612   5.72111   5.74986
 Alpha virt. eigenvalues --    5.79295   5.80099   5.80845   5.84941   5.89001
 Alpha virt. eigenvalues --    5.89888   5.91613   5.94868   5.95118   5.96880
 Alpha virt. eigenvalues --    5.97541   6.01382   6.02627   6.04027   6.07414
 Alpha virt. eigenvalues --    6.08203   6.08493   6.10913   6.11849   6.14098
 Alpha virt. eigenvalues --    6.15048   6.17493   6.17837   6.20075   6.21861
 Alpha virt. eigenvalues --    6.23851   6.25051   6.26190   6.27634   6.29912
 Alpha virt. eigenvalues --    6.31810   6.33401   6.37547   6.39072   6.39935
 Alpha virt. eigenvalues --    6.41047   6.42732   6.45195   6.46329   6.47627
 Alpha virt. eigenvalues --    6.49838   6.52879   6.53879   6.57341   6.59213
 Alpha virt. eigenvalues --    6.60517   6.62683   6.63326   6.64647   6.66947
 Alpha virt. eigenvalues --    6.69064   6.72184   6.75080   6.76972   6.79885
 Alpha virt. eigenvalues --    6.80850   6.83243   6.87605   6.88507   6.89926
 Alpha virt. eigenvalues --    6.90449   6.92019   6.94056   6.95580   6.96884
 Alpha virt. eigenvalues --    7.00611   7.01495   7.02911   7.04570   7.06740
 Alpha virt. eigenvalues --    7.07269   7.09784   7.14405   7.14992   7.17957
 Alpha virt. eigenvalues --    7.21883   7.23387   7.25317   7.28001   7.29006
 Alpha virt. eigenvalues --    7.30585   7.33063   7.34081   7.37029   7.41629
 Alpha virt. eigenvalues --    7.43663   7.47297   7.49813   7.51933   7.54175
 Alpha virt. eigenvalues --    7.56852   7.57877   7.60957   7.64301   7.65954
 Alpha virt. eigenvalues --    7.67422   7.69044   7.71446   7.74692   7.76058
 Alpha virt. eigenvalues --    7.77533   7.81126   7.84060   7.84234   7.86772
 Alpha virt. eigenvalues --    7.88172   7.89963   7.91042   7.92860   7.95581
 Alpha virt. eigenvalues --    7.96281   7.97545   7.99598   8.01235   8.03610
 Alpha virt. eigenvalues --    8.06319   8.06660   8.09015   8.11030   8.11774
 Alpha virt. eigenvalues --    8.13171   8.17135   8.17635   8.20173   8.23678
 Alpha virt. eigenvalues --    8.24416   8.24740   8.27625   8.28790   8.30866
 Alpha virt. eigenvalues --    8.32194   8.33502   8.34995   8.39200   8.41238
 Alpha virt. eigenvalues --    8.42554   8.43326   8.44338   8.47663   8.48306
 Alpha virt. eigenvalues --    8.49706   8.52678   8.55125   8.56279   8.58203
 Alpha virt. eigenvalues --    8.62527   8.64854   8.66472   8.67459   8.68473
 Alpha virt. eigenvalues --    8.71883   8.75542   8.76138   8.77392   8.78430
 Alpha virt. eigenvalues --    8.81987   8.85290   8.87271   8.88636   8.90464
 Alpha virt. eigenvalues --    8.91958   8.94848   8.96443   8.97522   8.98480
 Alpha virt. eigenvalues --    9.03545   9.04128   9.07318   9.09393   9.13458
 Alpha virt. eigenvalues --    9.18613   9.20604   9.24308   9.27037   9.29044
 Alpha virt. eigenvalues --    9.30334   9.32666   9.36142   9.38001   9.40693
 Alpha virt. eigenvalues --    9.42438   9.42929   9.48037   9.49744   9.54914
 Alpha virt. eigenvalues --    9.58019   9.58543   9.66285   9.66349   9.72445
 Alpha virt. eigenvalues --    9.77076   9.82146   9.90176   9.93523   9.95543
 Alpha virt. eigenvalues --   10.07271  10.11246  10.17821  10.22398  10.31505
 Alpha virt. eigenvalues --   10.34564  10.41725  10.45737  10.47456  10.52952
 Alpha virt. eigenvalues --   10.61460  10.64110  10.72754  10.82325  10.85007
 Alpha virt. eigenvalues --   10.92019  10.95868  10.99347  11.05479  11.14606
 Alpha virt. eigenvalues --   11.19070  11.31627  11.43279  11.54514  11.65620
 Alpha virt. eigenvalues --   11.75485  11.80693  12.24066  12.70550  12.86341
 Alpha virt. eigenvalues --   13.15289  13.20849  13.22504  29.42080  29.44562
 Alpha virt. eigenvalues --   29.59056  29.67956 149.09309 149.13866 149.29203
 Alpha virt. eigenvalues --  149.38307
          Condensed to atoms (all electrons):
               1          2          3          4          5          6
     1  C    4.890985   0.366203   0.395352   0.459298   0.354413  -0.062320
     2  C    0.366203   4.697057  -0.046253  -0.008759  -0.024016   0.379624
     3  H    0.395352  -0.046253   0.699335  -0.063614  -0.016995   0.011162
     4  H    0.459298  -0.008759  -0.063614   0.405149  -0.003565  -0.008976
     5  H    0.354413  -0.024016  -0.016995  -0.003565   0.657055  -0.002869
     6  C   -0.062320   0.379624   0.011162  -0.008976  -0.002869   4.778311
     7  H   -0.040712   0.399361  -0.001588  -0.005648   0.005207  -0.037343
     8  H   -0.026118   0.418124  -0.007574   0.005945  -0.000156  -0.044580
     9  C    0.007619  -0.050593  -0.000715   0.000121   0.000197   0.341892
    10  H   -0.006981  -0.040042  -0.000014   0.000097   0.002117   0.406327
    11  H   -0.000503  -0.035837  -0.000050   0.001700   0.000207   0.398027
    12  H    0.000160  -0.003615   0.000020  -0.000015   0.000017  -0.038656
    13  H   -0.000786   0.009726   0.000050  -0.000043   0.000008  -0.038677
    14  H   -0.000073  -0.011766  -0.000035   0.000078  -0.000022  -0.068581
               7          8          9         10         11         12
     1  C   -0.040712  -0.026118   0.007619  -0.006981  -0.000503   0.000160
     2  C    0.399361   0.418124  -0.050593  -0.040042  -0.035837  -0.003615
     3  H   -0.001588  -0.007574  -0.000715  -0.000014  -0.000050   0.000020
     4  H   -0.005648   0.005945   0.000121   0.000097   0.001700  -0.000015
     5  H    0.005207  -0.000156   0.000197   0.002117   0.000207   0.000017
     6  C   -0.037343  -0.044580   0.341892   0.406327   0.398027  -0.038656
     7  H    0.685049  -0.062256  -0.004549   0.009406  -0.006703  -0.000364
     8  H   -0.062256   0.651764  -0.003965  -0.005000   0.008535   0.004543
     9  C   -0.004549  -0.003965   4.753108  -0.061981  -0.056253   0.400602
    10  H    0.009406  -0.005000  -0.061981   0.698417  -0.048548  -0.007319
    11  H   -0.006703   0.008535  -0.056253  -0.048548   0.744880   0.011058
    12  H   -0.000364   0.004543   0.400602  -0.007319   0.011058   0.678382
    13  H   -0.000231  -0.000336   0.419131  -0.009604  -0.008631  -0.028134
    14  H    0.005572  -0.000864   0.403212   0.018450  -0.011883  -0.031113
              13         14
     1  C   -0.000786  -0.000073
     2  C    0.009726  -0.011766
     3  H    0.000050  -0.000035
     4  H   -0.000043   0.000078
     5  H    0.000008  -0.000022
     6  C   -0.038677  -0.068581
     7  H   -0.000231   0.005572
     8  H   -0.000336  -0.000864
     9  C    0.419131   0.403212
    10  H   -0.009604   0.018450
    11  H   -0.008631  -0.011883
    12  H   -0.028134  -0.031113
    13  H    0.670246  -0.052671
    14  H   -0.052671   0.700126
 Mulliken charges:
               1
     1  C   -0.336538
     2  C   -0.049211
     3  H    0.030919
     4  H    0.218230
     5  H    0.028401
     6  C   -0.013340
     7  H    0.054798
     8  H    0.061940
     9  C   -0.147827
    10  H    0.044673
    11  H    0.004000
    12  H    0.014434
    13  H    0.039951
    14  H    0.049570
 Sum of Mulliken charges =   0.00000
 Mulliken charges with hydrogens summed into heavy atoms:
               1
     1  C   -0.058987
     2  C    0.067526
     6  C    0.035333
     9  C   -0.043872
 Electronic spatial extent (au):  <R**2>=            432.4419
 Charge=              0.0000 electrons
 Dipole moment (field-independent basis, Debye):
    X=              0.0251    Y=             -0.2243    Z=             -0.5947  Tot=              0.6361
 Quadrupole moment (field-independent basis, Debye-Ang):
   XX=            -29.8778   YY=            -28.7735   ZZ=            -27.9250
   XY=              0.9558   XZ=              0.5198   YZ=              0.0749
 Traceless Quadrupole moment (field-independent basis, Debye-Ang):
   XX=             -1.0190   YY=              0.0853   ZZ=              0.9338
   XY=              0.9558   XZ=              0.5198   YZ=              0.0749
 Octapole moment (field-independent basis, Debye-Ang**2):
  XXX=             -0.4226  YYY=             -0.9944  ZZZ=             -2.1085  XYY=              0.2430
  XXY=              0.8616  XXZ=             -4.6245  XZZ=             -0.2434  YZZ=             -0.3821
  YYZ=             -0.1328  XYZ=             -1.3893
 Hexadecapole moment (field-independent basis, Debye-Ang**3):
 XXXX=           -480.7084 YYYY=            -94.6550 ZZZZ=            -59.5240 XXXY=              8.7837
 XXXZ=              4.9903 YYYX=              4.6932 YYYZ=             -0.1405 ZZZX=              2.2082
 ZZZY=              0.0190 XXYY=            -93.2849 XXZZ=            -86.3761 YYZZ=            -23.1350
 XXYZ=              0.3468 YYXZ=             -0.1164 ZZXY=             -1.1393
 N-N= 1.310179948236D+02 E-N=-6.280120756288D+02  KE= 1.581410547024D+02
 Leave Link  601 at Wed Aug 26 22:36:57 2020, MaxMem=  2097152000 cpu:         1.4
 (Enter /opt/cluster/programs/g09/g09_d.01/g09/l9999.exe)
 1\1\GINC-NODE20\SP\RB2PLYPD3-FC\def2QZVP\C4H10\BOITTIER\26-Aug-2020\0\
 \#p B2PLYPD3/Def2QZVP\\butane_opt\\0,1\C,0,-3.961512,0.321321,0.001707
 \C,0,-2.704295,-0.69073,0.040299\H,0,-4.849249,-0.302762,-0.061147\H,0
 ,-4.101354,0.627867,-0.720628\H,0,-4.127751,1.289115,1.074053\C,0,-1.3
 82646,0.143857,0.000215\H,0,-2.726706,-1.23811,-0.788749\H,0,-2.655984
 ,-1.28531,0.840685\C,0,-0.169071,-0.648975,0.052887\H,0,-1.235279,0.79
 66,0.781844\H,0,-1.223382,0.840934,-0.904449\H,0,-0.028419,-1.416936,1
 .060768\H,0,0.739721,-0.10671,-0.166615\H,0,-0.207788,-1.192523,-0.764
 898\\Version=ES64L-G09RevD.01\State=1-A\HF=-157.9137327\MP2=-158.16124
 91\RMSD=2.988e-09\PG=C01 [X(C4H10)]\\@


 WHEN HAVING A MEETING OF THE MINDS,
 MAKE SURE YOU HAVE THE EQUIPMENT FOR IT.
 Job cpu time:       0 days  1 hours 53 minutes  2.6 seconds.
 File lengths (MBytes):  RWF=    152 Int=      0 D2E=      0 Chk=     14 Scr=      1
 Normal termination of Gaussian 09 at Wed Aug 26 22:36:58 2020.
