 Entering Gaussian System, Link 0=/opt/cluster/programs/g09/g09_d.01/g09//g09
 Input=/home/boittier/MDCM/nms_sampling/butane_geom.xyz.dir/energies/butane_opt_2732_energy.com
 Output=/scratch/boittier/butane_opt_2732_energy/butane_opt_2732_energy.out
 Initial command:
 /opt/cluster/programs/g09/g09_d.01/g09/l1.exe "/scratch/boittier/butane_opt_2732_energy/Gau-85995.inp" -scrdir="/scratch/boittier/butane_opt_2732_energy/"
 Entering Link 1 = /opt/cluster/programs/g09/g09_d.01/g09/l1.exe PID=     85996.
  
 Copyright (c) 1988,1990,1992,1993,1995,1998,2003,2009,2013,
            Gaussian, Inc.  All Rights Reserved.
  
 This is part of the Gaussian(R) 09 program.  It is based on
 the Gaussian(R) 03 system (copyright 2003, Gaussian, Inc.),
 the Gaussian(R) 98 system (copyright 1998, Gaussian, Inc.),
 the Gaussian(R) 94 system (copyright 1995, Gaussian, Inc.),
 the Gaussian 92(TM) system (copyright 1992, Gaussian, Inc.),
 the Gaussian 90(TM) system (copyright 1990, Gaussian, Inc.),
 the Gaussian 88(TM) system (copyright 1988, Gaussian, Inc.),
 the Gaussian 86(TM) system (copyright 1986, Carnegie Mellon
 University), and the Gaussian 82(TM) system (copyright 1983,
 Carnegie Mellon University). Gaussian is a federally registered
 trademark of Gaussian, Inc.
  
 This software contains proprietary and confidential information,
 including trade secrets, belonging to Gaussian, Inc.
  
 This software is provided under written license and may be
 used, copied, transmitted, or stored only in accord with that
 written license.
  
 The following legend is applicable only to US Government
 contracts under FAR:
  
                    RESTRICTED RIGHTS LEGEND
  
 Use, reproduction and disclosure by the US Government is
 subject to restrictions as set forth in subparagraphs (a)
 and (c) of the Commercial Computer Software - Restricted
 Rights clause in FAR 52.227-19.
  
 Gaussian, Inc.
 340 Quinnipiac St., Bldg. 40, Wallingford CT 06492
  
  
 ---------------------------------------------------------------
 Warning -- This program may not be used in any manner that
 competes with the business of Gaussian, Inc. or will provide
 assistance to any competitor of Gaussian, Inc.  The licensee
 of this program is prohibited from giving any competitor of
 Gaussian, Inc. access to this program.  By using this program,
 the user acknowledges that Gaussian, Inc. is engaged in the
 business of creating and licensing software in the field of
 computational chemistry and represents and warrants to the
 licensee that it is not a competitor of Gaussian, Inc. and that
 it will not use this program in any manner prohibited above.
 ---------------------------------------------------------------
  

 Cite this work as:
 Gaussian 09, Revision D.01,
 M. J. Frisch, G. W. Trucks, H. B. Schlegel, G. E. Scuseria, 
 M. A. Robb, J. R. Cheeseman, G. Scalmani, V. Barone, B. Mennucci, 
 G. A. Petersson, H. Nakatsuji, M. Caricato, X. Li, H. P. Hratchian, 
 A. F. Izmaylov, J. Bloino, G. Zheng, J. L. Sonnenberg, M. Hada, 
 M. Ehara, K. Toyota, R. Fukuda, J. Hasegawa, M. Ishida, T. Nakajima, 
 Y. Honda, O. Kitao, H. Nakai, T. Vreven, J. A. Montgomery, Jr., 
 J. E. Peralta, F. Ogliaro, M. Bearpark, J. J. Heyd, E. Brothers, 
 K. N. Kudin, V. N. Staroverov, T. Keith, R. Kobayashi, J. Normand, 
 K. Raghavachari, A. Rendell, J. C. Burant, S. S. Iyengar, J. Tomasi, 
 M. Cossi, N. Rega, J. M. Millam, M. Klene, J. E. Knox, J. B. Cross, 
 V. Bakken, C. Adamo, J. Jaramillo, R. Gomperts, R. E. Stratmann, 
 O. Yazyev, A. J. Austin, R. Cammi, C. Pomelli, J. W. Ochterski, 
 R. L. Martin, K. Morokuma, V. G. Zakrzewski, G. A. Voth, 
 P. Salvador, J. J. Dannenberg, S. Dapprich, A. D. Daniels, 
 O. Farkas, J. B. Foresman, J. V. Ortiz, J. Cioslowski, 
 and D. J. Fox, Gaussian, Inc., Wallingford CT, 2013.
 
 ******************************************
 Gaussian 09:  ES64L-G09RevD.01 24-Apr-2013
                26-Aug-2020 
 ******************************************
 %chk=/home/boittier/MDCM/nms_sampling/butane_geom.xyz.dir/butane_opt_2732.chk
 %nproc=8
 Will use up to    8 processors via shared memory.
 %mem=16000MB
 --------------------
 #p B2PLYPD3/Def2QZVP
 --------------------
 1/38=1/1;
 2/12=2,17=6,18=5,40=1/2;
 3/5=45,7=101,11=9,16=1,25=1,30=1,74=-60/1,2,3;
 4//1;
 5/5=2,38=5/2;
 8/10=1/1;
 9/16=-3/6;
 6/7=2,8=2,9=2,10=2/1;
 99/5=1,9=1/99;
 Leave Link    1 at Wed Aug 26 20:13:02 2020, MaxMem=  2097152000 cpu:         0.3
 (Enter /opt/cluster/programs/g09/g09_d.01/g09/l101.exe)
 ----------
 butane_opt
 ----------
 Symbolic Z-matrix:
 Charge =  0 Multiplicity = 1
 C                    -3.91261   0.33661  -0.16348 
 C                    -2.65309  -0.66866   0.30241 
 H                    -5.05075  -0.35321  -0.48697 
 H                    -3.66679   0.73667  -0.9638 
 H                    -4.09512   1.31884   0.78954 
 C                    -1.387     0.07725   0.1172 
 H                    -2.4207   -1.18527  -0.62107 
 H                    -2.8301   -1.56844   1.43681 
 C                    -0.25881  -0.64082  -0.16038 
 H                    -1.35042   1.04518   1.13361 
 H                    -1.55717   0.55398  -0.68455 
 H                    -0.15205  -1.05768   0.68488 
 H                     0.84486   0.08102   0.0939 
 H                    -0.24039  -1.30607  -1.05999 
 
 NAtoms=     14 NQM=       14 NQMF=       0 NMMI=      0 NMMIF=      0
                NMic=       0 NMicF=      0.
                    Isotopes and Nuclear Properties:
 (Nuclear quadrupole moments (NQMom) in fm**2, nuclear magnetic moments (NMagM)
  in nuclear magnetons)

  Atom         1           2           3           4           5           6           7           8           9          10
 IAtWgt=          12          12           1           1           1          12           1           1          12           1
 AtmWgt=  12.0000000  12.0000000   1.0078250   1.0078250   1.0078250  12.0000000   1.0078250   1.0078250  12.0000000   1.0078250
 NucSpn=           0           0           1           1           1           0           1           1           0           1
 AtZEff=   0.0000000   0.0000000   0.0000000   0.0000000   0.0000000   0.0000000   0.0000000   0.0000000   0.0000000   0.0000000
 NQMom=    0.0000000   0.0000000   0.0000000   0.0000000   0.0000000   0.0000000   0.0000000   0.0000000   0.0000000   0.0000000
 NMagM=    0.0000000   0.0000000   2.7928460   2.7928460   2.7928460   0.0000000   2.7928460   2.7928460   0.0000000   2.7928460
 AtZNuc=   6.0000000   6.0000000   1.0000000   1.0000000   1.0000000   6.0000000   1.0000000   1.0000000   6.0000000   1.0000000

  Atom        11          12          13          14
 IAtWgt=           1           1           1           1
 AtmWgt=   1.0078250   1.0078250   1.0078250   1.0078250
 NucSpn=           1           1           1           1
 AtZEff=   0.0000000   0.0000000   0.0000000   0.0000000
 NQMom=    0.0000000   0.0000000   0.0000000   0.0000000
 NMagM=    2.7928460   2.7928460   2.7928460   2.7928460
 AtZNuc=   1.0000000   1.0000000   1.0000000   1.0000000
 Leave Link  101 at Wed Aug 26 20:13:02 2020, MaxMem=  2097152000 cpu:         0.5
 (Enter /opt/cluster/programs/g09/g09_d.01/g09/l202.exe)
                          Input orientation:                          
 ---------------------------------------------------------------------
 Center     Atomic      Atomic             Coordinates (Angstroms)
 Number     Number       Type             X           Y           Z
 ---------------------------------------------------------------------
      1          6           0       -3.912606    0.336605   -0.163482
      2          6           0       -2.653094   -0.668657    0.302406
      3          1           0       -5.050755   -0.353214   -0.486967
      4          1           0       -3.666794    0.736666   -0.963799
      5          1           0       -4.095121    1.318842    0.789536
      6          6           0       -1.386998    0.077246    0.117197
      7          1           0       -2.420703   -1.185271   -0.621071
      8          1           0       -2.830098   -1.568443    1.436807
      9          6           0       -0.258813   -0.640821   -0.160383
     10          1           0       -1.350421    1.045179    1.133614
     11          1           0       -1.557165    0.553977   -0.684545
     12          1           0       -0.152048   -1.057679    0.684875
     13          1           0        0.844860    0.081022    0.093903
     14          1           0       -0.240392   -1.306070   -1.059990
 ---------------------------------------------------------------------
                    Distance matrix (angstroms):
                    1          2          3          4          5
     1  C    0.000000
     2  C    1.677490   0.000000
     3  H    1.369626   2.543893   0.000000
     4  H    0.927890   2.146112   1.824981   0.000000
     5  H    1.380704   2.503376   2.310512   1.896464   0.000000
     6  C    2.554358   1.481105   3.738105   2.607845   3.054101
     7  H    2.179741   1.083377   2.761789   2.316041   3.326270
     8  H    2.713293   1.458702   3.179466   3.431690   3.218021
     9  C    3.782271   2.438756   4.811661   3.762616   4.411336
    10  H    2.957926   2.307617   4.274840   3.140049   2.779687
    11  H    2.422160   1.915716   3.614859   2.135859   3.033011
    12  H    4.099455   2.559854   5.085943   4.276826   4.605066
    13  H    4.771274   3.583458   5.940054   4.680131   5.139992
    14  H    4.121561   2.843158   4.937194   3.990270   5.016956
                    6          7          8          9         10
     6  C    0.000000
     7  H    1.790959   0.000000
     8  H    2.555817   2.132906   0.000000
     9  C    1.365823   2.276495   3.165913   0.000000
    10  H    1.404043   3.033040   3.018674   2.389274   0.000000
    11  H    0.948166   1.942861   3.259626   1.840654   1.894657
    12  H    1.770710   2.620796   2.828115   0.948489   2.461600
    13  H    2.231983   3.574715   4.246109   1.343061   2.613399
    14  H    2.148031   2.227330   3.606856   1.119012   3.401828
                   11         12         13         14
    11  H    0.000000
    12  H    2.539114   0.000000
    13  H    2.568928   1.624719   0.000000
    14  H    2.309681   1.764669   2.105532   0.000000
 Stoichiometry    C4H10
 Framework group  C1[X(C4H10)]
 Deg. of freedom    36
 Full point group                 C1      NOp   1
 Largest Abelian subgroup         C1      NOp   1
 Largest concise Abelian subgroup C1      NOp   1
                         Standard orientation:                         
 ---------------------------------------------------------------------
 Center     Atomic      Atomic             Coordinates (Angstroms)
 Number     Number       Type             X           Y           Z
 ---------------------------------------------------------------------
      1          6           0        1.929329   -0.200365   -0.176247
      2          6           0        0.504331    0.576095    0.248566
      3          1           0        2.920463    0.671371   -0.541765
      4          1           0        1.763551   -0.678513   -0.953982
      5          1           0        2.288927   -1.082924    0.822815
      6          6           0       -0.601123   -0.399800    0.109735
      7          1           0        0.182005    0.993919   -0.697602
      8          1           0        0.509167    1.548615    1.335761
      9          6           0       -1.842342    0.082004   -0.194750
     10          1           0       -0.459594   -1.305751    1.173012
     11          1           0       -0.343917   -0.876183   -0.668676
     12          1           0       -2.026230    0.513549    0.629619
     13          1           0       -2.793523   -0.818229    0.102987
     14          1           0       -1.982019    0.686541   -1.125994
 ---------------------------------------------------------------------
 Rotational constants (GHZ):     19.9733812      3.7233525      3.5503710
 Leave Link  202 at Wed Aug 26 20:13:03 2020, MaxMem=  2097152000 cpu:         0.1
 (Enter /opt/cluster/programs/g09/g09_d.01/g09/l301.exe)
 Standard basis: def2QZVP (5D, 7F)
 Ernie: Thresh=  0.10000D-02 Tol=  0.10000D-05 Strict=F.
 There are   638 symmetry adapted cartesian basis functions of A   symmetry.
 There are   528 symmetry adapted basis functions of A   symmetry.
   528 basis functions,   748 primitive gaussians,   638 cartesian basis functions
    17 alpha electrons       17 beta electrons
       nuclear repulsion energy       130.1207073038 Hartrees.
 IExCor=  419 DFT=T Ex+Corr=B2PLYPD3 ExCW=0 ScaHFX=  0.530000
 ScaDFX=  0.470000  0.470000  0.730000  0.730000 ScalE2=  0.270000  0.270000
 IRadAn=      0 IRanWt=     -1 IRanGd=            0 ICorTp=0 IEmpDi=141
 NAtoms=   14 NActive=   14 NUniq=   14 SFac= 1.00D+00 NAtFMM=   60 NAOKFM=F Big=F
 Integral buffers will be    131072 words long.
 Regular integral format.
 Two-electron integral symmetry is turned on.
 R6Disp:  Grimme-D3(BJ) Dispersion energy=       -0.0072985652 Hartrees.
 Nuclear repulsion after empirical dispersion term =      130.1134087386 Hartrees.
 Leave Link  301 at Wed Aug 26 20:13:04 2020, MaxMem=  2097152000 cpu:         0.4
 (Enter /opt/cluster/programs/g09/g09_d.01/g09/l302.exe)
 NPDir=0 NMtPBC=     1 NCelOv=     1 NCel=       1 NClECP=     1 NCelD=      1
         NCelK=      1 NCelE2=     1 NClLst=     1 CellRange=     0.0.
 One-electron integrals computed using PRISM.
   1 Symmetry operations used in ECPInt.
 ECPInt:  NShTT=   14196 NPrTT=   30597 LenC2=   13850 LenP2D=   25921.
 LDataN:  DoStor=T MaxTD1= 8 Len=  415
 NBasis=   528 RedAO= T EigKep=  3.45D-05  NBF=   528
 NBsUse=   528 1.00D-06 EigRej= -1.00D+00 NBFU=   528
 Precomputing XC quadrature grid using
 IXCGrd= 4 IRadAn=           0 IRanWt=          -1 IRanGd=           0 AccXCQ= 0.00D+00.
 Generated NRdTot=       0 NPtTot=           0 NUsed=           0 NTot=          32
 NSgBfM=   638   638   638   638   638 MxSgAt=    14 MxSgA2=    14.
 Leave Link  302 at Wed Aug 26 20:13:05 2020, MaxMem=  2097152000 cpu:         5.6
 (Enter /opt/cluster/programs/g09/g09_d.01/g09/l303.exe)
 DipDrv:  MaxL=1.
 Leave Link  303 at Wed Aug 26 20:13:06 2020, MaxMem=  2097152000 cpu:         0.6
 (Enter /opt/cluster/programs/g09/g09_d.01/g09/l401.exe)
 ExpMin= 7.60D-02 ExpMax= 6.70D+04 ExpMxC= 6.47D+02 IAcc=2 IRadAn=         4 AccDes= 0.00D+00
 Harris functional with IExCor=  419 and IRadAn=       4 diagonalized for initial guess.
 HarFok:  IExCor=  419 AccDes= 0.00D+00 IRadAn=         4 IDoV= 1 UseB2=F ITyADJ=14
 ICtDFT=  3500011 ScaDFX=  1.000000  1.000000  1.000000  1.000000
 FoFCou: FMM=F IPFlag=           0 FMFlag=      100000 FMFlg1=           0
         NFxFlg=           0 DoJE=T BraDBF=F KetDBF=T FulRan=T
         wScrn=  0.000000 ICntrl=     500 IOpCl=  0 I1Cent=   200000004 NGrid=           0
         NMat0=    1 NMatS0=      1 NMatT0=    0 NMatD0=    1 NMtDS0=    0 NMtDT0=    0
 Petite list used in FoFCou.
 Harris En= -158.331479128462    
 JPrj=0 DoOrth=F DoCkMO=F.
 Leave Link  401 at Wed Aug 26 20:13:09 2020, MaxMem=  2097152000 cpu:        16.7
 (Enter /opt/cluster/programs/g09/g09_d.01/g09/l502.exe)
 Closed shell SCF:
 Using DIIS extrapolation, IDIIS=  1040.
 Integral symmetry usage will be decided dynamically.
 IVT=     1249338 IEndB=     1249338 NGot=  2097152000 MDV=  2096326985
 LenX=  2096326985 LenY=  2095919303
 Requested convergence on RMS density matrix=1.00D-08 within 128 cycles.
 Requested convergence on MAX density matrix=1.00D-06.
 Requested convergence on             energy=1.00D-06.
 No special actions if energy rises.
 Fock matrices will be formed incrementally for  20 cycles.
 Integral accuracy reduced to 1.0D-05 until final iterations.

 Cycle   1  Pass 0  IDiag  1:
 FoFJK:  IHMeth= 1 ICntrl=       0 DoSepK=F KAlg= 0 I1Cent=   0 FoldK=F
 IRaf= 940000000 NMat=   1 IRICut=       1 DoRegI=T DoRafI=F ISym2E= 0.
 FoFCou: FMM=F IPFlag=           0 FMFlag=      100000 FMFlg1=           0
         NFxFlg=           0 DoJE=F BraDBF=F KetDBF=F FulRan=T
         wScrn=  0.000000 ICntrl=       0 IOpCl=  0 I1Cent=           0 NGrid=           0
         NMat0=    1 NMatS0=      1 NMatT0=    0 NMatD0=    1 NMtDS0=    0 NMtDT0=    0
 Symmetry not used in FoFCou.
 E= -157.509028842303    
 DIIS: error= 3.10D-02 at cycle   1 NSaved=   1.
 NSaved= 1 IEnMin= 1 EnMin= -157.509028842303     IErMin= 1 ErrMin= 3.10D-02
 ErrMax= 3.10D-02  0.00D+00 EMaxC= 1.00D-01 BMatC= 3.77D-01 BMatP= 3.77D-01
 IDIUse=3 WtCom= 6.90D-01 WtEn= 3.10D-01
 Coeff-Com:  0.100D+01
 Coeff-En:   0.100D+01
 Coeff:      0.100D+01
 Gap=     0.340 Goal=   None    Shift=    0.000
 GapD=    0.340 DampG=1.000 DampE=0.500 DampFc=0.5000 IDamp=-1.
 Damping current iteration by 5.00D-01
 RMSDP=1.29D-03 MaxDP=9.11D-02              OVMax= 2.25D-01

 Cycle   2  Pass 0  IDiag  1:
 RMSU=  6.15D-04    CP:  9.39D-01
 E= -157.657850311605     Delta-E=       -0.148821469302 Rises=F Damp=T
 DIIS: error= 6.04D-03 at cycle   2 NSaved=   2.
 NSaved= 2 IEnMin= 2 EnMin= -157.657850311605     IErMin= 2 ErrMin= 6.04D-03
 ErrMax= 6.04D-03  0.00D+00 EMaxC= 1.00D-01 BMatC= 3.23D-02 BMatP= 3.77D-01
 IDIUse=3 WtCom= 9.40D-01 WtEn= 6.04D-02
 Coeff-Com: -0.721D-01 0.107D+01
 Coeff-En:   0.120D-01 0.988D+00
 Coeff:     -0.670D-01 0.107D+01
 Gap=     0.455 Goal=   None    Shift=    0.000
 RMSDP=3.77D-04 MaxDP=2.03D-02 DE=-1.49D-01 OVMax= 1.45D-01

 Cycle   3  Pass 0  IDiag  1:
 RMSU=  3.19D-04    CP:  9.28D-01  6.78D-01
 E= -157.817728404071     Delta-E=       -0.159878092466 Rises=F Damp=F
 DIIS: error= 4.01D-03 at cycle   3 NSaved=   3.
 NSaved= 3 IEnMin= 3 EnMin= -157.817728404071     IErMin= 3 ErrMin= 4.01D-03
 ErrMax= 4.01D-03  0.00D+00 EMaxC= 1.00D-01 BMatC= 4.78D-03 BMatP= 3.23D-02
 IDIUse=3 WtCom= 9.60D-01 WtEn= 4.01D-02
 Coeff-Com: -0.100D+00 0.216D+00 0.885D+00
 Coeff-En:   0.000D+00 0.000D+00 0.100D+01
 Coeff:     -0.964D-01 0.207D+00 0.889D+00
 Gap=     0.374 Goal=   None    Shift=    0.000
 RMSDP=8.63D-05 MaxDP=8.78D-03 DE=-1.60D-01 OVMax= 2.12D-02

 Cycle   4  Pass 0  IDiag  1:
 RMSU=  6.60D-05    CP:  9.21D-01  7.58D-01  1.04D+00
 E= -157.822606247072     Delta-E=       -0.004877843001 Rises=F Damp=F
 DIIS: error= 1.18D-03 at cycle   4 NSaved=   4.
 NSaved= 4 IEnMin= 4 EnMin= -157.822606247072     IErMin= 4 ErrMin= 1.18D-03
 ErrMax= 1.18D-03  0.00D+00 EMaxC= 1.00D-01 BMatC= 5.20D-04 BMatP= 4.78D-03
 IDIUse=3 WtCom= 9.88D-01 WtEn= 1.18D-02
 Coeff-Com: -0.363D-01 0.532D-01 0.367D+00 0.616D+00
 Coeff-En:   0.000D+00 0.000D+00 0.000D+00 0.100D+01
 Coeff:     -0.359D-01 0.526D-01 0.363D+00 0.621D+00
 Gap=     0.375 Goal=   None    Shift=    0.000
 RMSDP=2.73D-05 MaxDP=2.59D-03 DE=-4.88D-03 OVMax= 5.83D-03

 Cycle   5  Pass 0  IDiag  1:
 RMSU=  1.99D-05    CP:  9.21D-01  7.40D-01  1.07D+00  8.37D-01
 E= -157.823101185253     Delta-E=       -0.000494938180 Rises=F Damp=F
 DIIS: error= 2.18D-04 at cycle   5 NSaved=   5.
 NSaved= 5 IEnMin= 5 EnMin= -157.823101185253     IErMin= 5 ErrMin= 2.18D-04
 ErrMax= 2.18D-04  0.00D+00 EMaxC= 1.00D-01 BMatC= 2.05D-05 BMatP= 5.20D-04
 IDIUse=3 WtCom= 9.98D-01 WtEn= 2.18D-03
 Coeff-Com: -0.196D-02-0.231D-02 0.384D-01 0.184D+00 0.782D+00
 Coeff-En:   0.000D+00 0.000D+00 0.000D+00 0.000D+00 0.100D+01
 Coeff:     -0.195D-02-0.231D-02 0.384D-01 0.183D+00 0.783D+00
 Gap=     0.375 Goal=   None    Shift=    0.000
 RMSDP=7.61D-06 MaxDP=4.68D-04 DE=-4.95D-04 OVMax= 1.32D-03

 Initial convergence to 1.0D-05 achieved.  Increase integral accuracy.
 Cycle   6  Pass 1  IDiag  1:
 E= -157.823126642795     Delta-E=       -0.000025457542 Rises=F Damp=F
 DIIS: error= 5.30D-05 at cycle   1 NSaved=   1.
 NSaved= 1 IEnMin= 1 EnMin= -157.823126642795     IErMin= 1 ErrMin= 5.30D-05
 ErrMax= 5.30D-05  0.00D+00 EMaxC= 1.00D-01 BMatC= 1.58D-06 BMatP= 1.58D-06
 IDIUse=1 WtCom= 1.00D+00 WtEn= 0.00D+00
 Coeff-Com:  0.100D+01
 Coeff:      0.100D+01
 Gap=     0.375 Goal=   None    Shift=    0.000
 RMSDP=7.61D-06 MaxDP=4.68D-04 DE=-2.55D-05 OVMax= 4.35D-04

 Cycle   7  Pass 1  IDiag  1:
 RMSU=  2.40D-05    CP:  1.00D+00
 E= -157.823127527815     Delta-E=       -0.000000885020 Rises=F Damp=F
 DIIS: error= 3.21D-05 at cycle   2 NSaved=   2.
 NSaved= 2 IEnMin= 2 EnMin= -157.823127527815     IErMin= 2 ErrMin= 3.21D-05
 ErrMax= 3.21D-05  0.00D+00 EMaxC= 1.00D-01 BMatC= 6.70D-07 BMatP= 1.58D-06
 IDIUse=1 WtCom= 1.00D+00 WtEn= 0.00D+00
 Coeff-Com:  0.375D+00 0.625D+00
 Coeff:      0.375D+00 0.625D+00
 Gap=     0.375 Goal=   None    Shift=    0.000
 RMSDP=1.11D-06 MaxDP=7.12D-05 DE=-8.85D-07 OVMax= 2.55D-04

 Cycle   8  Pass 1  IDiag  1:
 RMSU=  1.02D-06    CP:  1.00D+00  1.02D+00
 E= -157.823128151093     Delta-E=       -0.000000623278 Rises=F Damp=F
 DIIS: error= 8.77D-06 at cycle   3 NSaved=   3.
 NSaved= 3 IEnMin= 3 EnMin= -157.823128151093     IErMin= 3 ErrMin= 8.77D-06
 ErrMax= 8.77D-06  0.00D+00 EMaxC= 1.00D-01 BMatC= 4.08D-08 BMatP= 6.70D-07
 IDIUse=1 WtCom= 1.00D+00 WtEn= 0.00D+00
 Coeff-Com: -0.851D-03 0.177D+00 0.823D+00
 Coeff:     -0.851D-03 0.177D+00 0.823D+00
 Gap=     0.375 Goal=   None    Shift=    0.000
 RMSDP=4.86D-07 MaxDP=3.14D-05 DE=-6.23D-07 OVMax= 6.17D-05

 Cycle   9  Pass 1  IDiag  1:
 RMSU=  3.44D-07    CP:  1.00D+00  1.03D+00  9.59D-01
 E= -157.823128193809     Delta-E=       -0.000000042716 Rises=F Damp=F
 DIIS: error= 2.96D-06 at cycle   4 NSaved=   4.
 NSaved= 4 IEnMin= 4 EnMin= -157.823128193809     IErMin= 4 ErrMin= 2.96D-06
 ErrMax= 2.96D-06  0.00D+00 EMaxC= 1.00D-01 BMatC= 3.66D-09 BMatP= 4.08D-08
 IDIUse=1 WtCom= 1.00D+00 WtEn= 0.00D+00
 Coeff-Com: -0.240D-01 0.271D-01 0.300D+00 0.697D+00
 Coeff:     -0.240D-01 0.271D-01 0.300D+00 0.697D+00
 Gap=     0.375 Goal=   None    Shift=    0.000
 RMSDP=9.05D-08 MaxDP=5.06D-06 DE=-4.27D-08 OVMax= 1.75D-05

 Cycle  10  Pass 1  IDiag  1:
 RMSU=  7.56D-08    CP:  1.00D+00  1.03D+00  9.83D-01  1.05D+00
 E= -157.823128197821     Delta-E=       -0.000000004011 Rises=F Damp=F
 DIIS: error= 7.20D-07 at cycle   5 NSaved=   5.
 NSaved= 5 IEnMin= 5 EnMin= -157.823128197821     IErMin= 5 ErrMin= 7.20D-07
 ErrMax= 7.20D-07  0.00D+00 EMaxC= 1.00D-01 BMatC= 1.63D-10 BMatP= 3.66D-09
 IDIUse=1 WtCom= 1.00D+00 WtEn= 0.00D+00
 Coeff-Com: -0.404D-02-0.109D-01-0.238D-01 0.120D+00 0.919D+00
 Coeff:     -0.404D-02-0.109D-01-0.238D-01 0.120D+00 0.919D+00
 Gap=     0.375 Goal=   None    Shift=    0.000
 RMSDP=3.57D-08 MaxDP=1.94D-06 DE=-4.01D-09 OVMax= 4.87D-06

 Cycle  11  Pass 1  IDiag  1:
 RMSU=  2.12D-08    CP:  1.00D+00  1.03D+00  9.88D-01  1.13D+00  1.09D+00
 E= -157.823128198028     Delta-E=       -0.000000000208 Rises=F Damp=F
 DIIS: error= 2.41D-07 at cycle   6 NSaved=   6.
 NSaved= 6 IEnMin= 6 EnMin= -157.823128198028     IErMin= 6 ErrMin= 2.41D-07
 ErrMax= 2.41D-07  0.00D+00 EMaxC= 1.00D-01 BMatC= 2.41D-11 BMatP= 1.63D-10
 IDIUse=1 WtCom= 1.00D+00 WtEn= 0.00D+00
 Coeff-Com:  0.521D-03-0.603D-02-0.333D-01-0.916D-02 0.348D+00 0.700D+00
 Coeff:      0.521D-03-0.603D-02-0.333D-01-0.916D-02 0.348D+00 0.700D+00
 Gap=     0.375 Goal=   None    Shift=    0.000
 RMSDP=8.30D-09 MaxDP=4.06D-07 DE=-2.08D-10 OVMax= 1.50D-06

 SCF Done:  E(RB2PLYPD3) =  -157.823128198     A.U. after   11 cycles
            NFock= 11  Conv=0.83D-08     -V/T= 2.0042
 KE= 1.571644014013D+02 PE=-6.251049844107D+02 EE= 1.800040460728D+02
 Leave Link  502 at Wed Aug 26 20:20:07 2020, MaxMem=  2097152000 cpu:      3319.0
 (Enter /opt/cluster/programs/g09/g09_d.01/g09/l801.exe)
 DoSCS=T DFT=T ScalE2(SS,OS)=  0.270000  0.270000
 ExpMin= 7.60D-02 ExpMax= 6.70D+04 ExpMxC= 6.47D+02 IAcc=3 IRadAn=         5 AccDes= 0.00D+00
 HarFok:  IExCor=  205 AccDes= 0.00D+00 IRadAn=         5 IDoV=-2 UseB2=F ITyADJ=14
 ICtDFT= 12500011 ScaDFX=  1.000000  1.000000  1.000000  1.000000
 Largest valence mixing into a core orbital is  1.22D-04
 Largest core mixing into a valence orbital is  1.71D-05
 Range of M.O.s used for correlation:     5   528
 NBasis=   528 NAE=    17 NBE=    17 NFC=     4 NFV=     0
 NROrb=    524 NOA=    13 NOB=    13 NVA=   511 NVB=   511

 **** Warning!!: The largest alpha MO coefficient is  0.20890559D+02

 Leave Link  801 at Wed Aug 26 20:20:10 2020, MaxMem=  2097152000 cpu:         1.2
 (Enter /opt/cluster/programs/g09/g09_d.01/g09/l906.exe)
 DoSCS=T DFT=T ScalE2(SS,OS)=  0.270000  0.270000
 FulOut=F Deriv=F AODrv=F NAtomX=    14
   MMem=         463  MDisk=          13 MDiskD=          13
  W3Min=     4238234 MinDsk=     6904766 NBas6D=         638
 NBas2D=      205689    NTT=      203841    LW2=     4508827
    MDV=  2095902058 MDiskM=        7293 NBas2p=      189573
 Fully direct method using O(OVN) memory.
 IMap=   1   2   3   4   5   6   7   8   9  10  11  12  13
 JobTyp=1 Pass  1:  I=   1 to  13 NPSUse=  8 ParTrn=T ParDer=T DoDerP=F.
 Spin components of T(2) and E(2):
     alpha-alpha T2 =       0.4450840798D-01 E2=     -0.2711785683D-01
     alpha-beta  T2 =       0.3090477934D+00 E2=     -0.2018099034D+00
     beta-beta   T2 =       0.4450840798D-01 E2=     -0.2711785683D-01
 The integrals were generated   1 times.
 E2(B2PLYPD3) =    -0.2560456171D+00 E(B2PLYPD3) =    -0.15807917381511D+03
 Leave Link  906 at Wed Aug 26 20:25:00 2020, MaxMem=  2097152000 cpu:      2318.0
 (Enter /opt/cluster/programs/g09/g09_d.01/g09/l601.exe)
 Copying SCF densities to generalized density rwf, IOpCl= 0 IROHF=0.

 **********************************************************************

            Population analysis using the SCF density.

 **********************************************************************

 Orbital symmetries:
       Occupied  (A) (A) (A) (A) (A) (A) (A) (A) (A) (A) (A) (A)
                 (A) (A) (A) (A) (A)
       Virtual   (A) (A) (A) (A) (A) (A) (A) (A) (A) (A) (A) (A)
                 (A) (A) (A) (A) (A) (A) (A) (A) (A) (A) (A) (A)
                 (A) (A) (A) (A) (A) (A) (A) (A) (A) (A) (A) (A)
                 (A) (A) (A) (A) (A) (A) (A) (A) (A) (A) (A) (A)
                 (A) (A) (A) (A) (A) (A) (A) (A) (A) (A) (A) (A)
                 (A) (A) (A) (A) (A) (A) (A) (A) (A) (A) (A) (A)
                 (A) (A) (A) (A) (A) (A) (A) (A) (A) (A) (A) (A)
                 (A) (A) (A) (A) (A) (A) (A) (A) (A) (A) (A) (A)
                 (A) (A) (A) (A) (A) (A) (A) (A) (A) (A) (A) (A)
                 (A) (A) (A) (A) (A) (A) (A) (A) (A) (A) (A) (A)
                 (A) (A) (A) (A) (A) (A) (A) (A) (A) (A) (A) (A)
                 (A) (A) (A) (A) (A) (A) (A) (A) (A) (A) (A) (A)
                 (A) (A) (A) (A) (A) (A) (A) (A) (A) (A) (A) (A)
                 (A) (A) (A) (A) (A) (A) (A) (A) (A) (A) (A) (A)
                 (A) (A) (A) (A) (A) (A) (A) (A) (A) (A) (A) (A)
                 (A) (A) (A) (A) (A) (A) (A) (A) (A) (A) (A) (A)
                 (A) (A) (A) (A) (A) (A) (A) (A) (A) (A) (A) (A)
                 (A) (A) (A) (A) (A) (A) (A) (A) (A) (A) (A) (A)
                 (A) (A) (A) (A) (A) (A) (A) (A) (A) (A) (A) (A)
                 (A) (A) (A) (A) (A) (A) (A) (A) (A) (A) (A) (A)
                 (A) (A) (A) (A) (A) (A) (A) (A) (A) (A) (A) (A)
                 (A) (A) (A) (A) (A) (A) (A) (A) (A) (A) (A) (A)
                 (A) (A) (A) (A) (A) (A) (A) (A) (A) (A) (A) (A)
                 (A) (A) (A) (A) (A) (A) (A) (A) (A) (A) (A) (A)
                 (A) (A) (A) (A) (A) (A) (A) (A) (A) (A) (A) (A)
                 (A) (A) (A) (A) (A) (A) (A) (A) (A) (A) (A) (A)
                 (A) (A) (A) (A) (A) (A) (A) (A) (A) (A) (A) (A)
                 (A) (A) (A) (A) (A) (A) (A) (A) (A) (A) (A) (A)
                 (A) (A) (A) (A) (A) (A) (A) (A) (A) (A) (A) (A)
                 (A) (A) (A) (A) (A) (A) (A) (A) (A) (A) (A) (A)
                 (A) (A) (A) (A) (A) (A) (A) (A) (A) (A) (A) (A)
                 (A) (A) (A) (A) (A) (A) (A) (A) (A) (A) (A) (A)
                 (A) (A) (A) (A) (A) (A) (A) (A) (A) (A) (A) (A)
                 (A) (A) (A) (A) (A) (A) (A) (A) (A) (A) (A) (A)
                 (A) (A) (A) (A) (A) (A) (A) (A) (A) (A) (A) (A)
                 (A) (A) (A) (A) (A) (A) (A) (A) (A) (A) (A) (A)
                 (A) (A) (A) (A) (A) (A) (A) (A) (A) (A) (A) (A)
                 (A) (A) (A) (A) (A) (A) (A) (A) (A) (A) (A) (A)
                 (A) (A) (A) (A) (A) (A) (A) (A) (A) (A) (A) (A)
                 (A) (A) (A) (A) (A) (A) (A) (A) (A) (A) (A) (A)
                 (A) (A) (A) (A) (A) (A) (A) (A) (A) (A) (A) (A)
                 (A) (A) (A) (A) (A) (A) (A) (A) (A) (A) (A) (A)
                 (A) (A) (A) (A) (A) (A) (A)
 The electronic state is 1-A.
 Alpha  occ. eigenvalues --  -10.65367 -10.65337 -10.61376 -10.60577  -0.96102
 Alpha  occ. eigenvalues --   -0.83485  -0.73502  -0.65871  -0.56357  -0.50093
 Alpha  occ. eigenvalues --   -0.48106  -0.46437  -0.41542  -0.39707  -0.37401
 Alpha  occ. eigenvalues --   -0.36567  -0.33565
 Alpha virt. eigenvalues --    0.03946   0.05258   0.06555   0.06710   0.09508
 Alpha virt. eigenvalues --    0.10522   0.11928   0.12491   0.13686   0.14311
 Alpha virt. eigenvalues --    0.15480   0.15809   0.18019   0.19207   0.19488
 Alpha virt. eigenvalues --    0.21801   0.22856   0.23410   0.24439   0.27075
 Alpha virt. eigenvalues --    0.28034   0.28685   0.29526   0.31316   0.32150
 Alpha virt. eigenvalues --    0.32909   0.33777   0.35098   0.37771   0.39444
 Alpha virt. eigenvalues --    0.41000   0.41689   0.43949   0.46673   0.46939
 Alpha virt. eigenvalues --    0.49358   0.50130   0.51556   0.55192   0.55258
 Alpha virt. eigenvalues --    0.56666   0.59340   0.62228   0.65522   0.66603
 Alpha virt. eigenvalues --    0.67299   0.68168   0.68781   0.69533   0.71098
 Alpha virt. eigenvalues --    0.71706   0.73703   0.74811   0.75212   0.77432
 Alpha virt. eigenvalues --    0.79918   0.81716   0.83139   0.84175   0.85738
 Alpha virt. eigenvalues --    0.86067   0.87934   0.88700   0.90512   0.91018
 Alpha virt. eigenvalues --    0.93381   0.94055   0.94669   0.95992   0.96541
 Alpha virt. eigenvalues --    0.97964   0.99170   1.00142   1.00674   1.02463
 Alpha virt. eigenvalues --    1.03125   1.05254   1.06441   1.07896   1.08917
 Alpha virt. eigenvalues --    1.10914   1.12107   1.14192   1.17162   1.17364
 Alpha virt. eigenvalues --    1.19877   1.20479   1.22355   1.24741   1.26523
 Alpha virt. eigenvalues --    1.28395   1.29056   1.29934   1.31388   1.34534
 Alpha virt. eigenvalues --    1.35267   1.36918   1.39089   1.40209   1.42498
 Alpha virt. eigenvalues --    1.44594   1.48443   1.49748   1.53735   1.54455
 Alpha virt. eigenvalues --    1.62303   1.65897   1.66230   1.68750   1.72682
 Alpha virt. eigenvalues --    1.75898   1.81286   1.83970   1.86137   1.88014
 Alpha virt. eigenvalues --    1.90586   1.91167   1.93046   1.94814   1.95369
 Alpha virt. eigenvalues --    1.97673   1.97834   1.99401   2.00294   2.02035
 Alpha virt. eigenvalues --    2.02244   2.03734   2.06106   2.07862   2.08848
 Alpha virt. eigenvalues --    2.10581   2.12631   2.14095   2.15108   2.16586
 Alpha virt. eigenvalues --    2.17087   2.18675   2.19291   2.20306   2.22462
 Alpha virt. eigenvalues --    2.23207   2.25276   2.26388   2.27837   2.28117
 Alpha virt. eigenvalues --    2.29650   2.31254   2.32571   2.33644   2.34974
 Alpha virt. eigenvalues --    2.37383   2.38749   2.40023   2.41986   2.44977
 Alpha virt. eigenvalues --    2.45336   2.47921   2.48330   2.49578   2.50030
 Alpha virt. eigenvalues --    2.52566   2.53667   2.54884   2.56139   2.56945
 Alpha virt. eigenvalues --    2.57522   2.60124   2.61036   2.62019   2.64242
 Alpha virt. eigenvalues --    2.64854   2.65285   2.68058   2.68513   2.69793
 Alpha virt. eigenvalues --    2.72174   2.73710   2.75780   2.77610   2.78764
 Alpha virt. eigenvalues --    2.81124   2.82453   2.84548   2.86329   2.87086
 Alpha virt. eigenvalues --    2.88431   2.90310   2.93289   2.94751   2.96905
 Alpha virt. eigenvalues --    2.98185   2.99369   3.00484   3.02026   3.04602
 Alpha virt. eigenvalues --    3.06494   3.09081   3.09467   3.10790   3.12573
 Alpha virt. eigenvalues --    3.14443   3.18533   3.20833   3.21629   3.24386
 Alpha virt. eigenvalues --    3.26011   3.27794   3.28178   3.31530   3.35176
 Alpha virt. eigenvalues --    3.36486   3.37582   3.38651   3.41981   3.44055
 Alpha virt. eigenvalues --    3.45502   3.49211   3.51193   3.52764   3.55309
 Alpha virt. eigenvalues --    3.55961   3.58106   3.59741   3.62782   3.65394
 Alpha virt. eigenvalues --    3.69973   3.71049   3.73108   3.79239   3.82850
 Alpha virt. eigenvalues --    3.84268   3.86541   3.87873   3.91324   3.93053
 Alpha virt. eigenvalues --    3.95491   3.98391   4.00921   4.08757   4.09998
 Alpha virt. eigenvalues --    4.10340   4.13305   4.15574   4.16908   4.19740
 Alpha virt. eigenvalues --    4.22902   4.26169   4.35669   4.40185   4.42533
 Alpha virt. eigenvalues --    4.46548   4.50520   4.51499   4.86116   4.99592
 Alpha virt. eigenvalues --    5.06778   5.09999   5.12577   5.17693   5.22713
 Alpha virt. eigenvalues --    5.26583   5.28712   5.32073   5.37769   5.41387
 Alpha virt. eigenvalues --    5.44357   5.46820   5.50350   5.51631   5.52053
 Alpha virt. eigenvalues --    5.58168   5.59978   5.61433   5.63537   5.66335
 Alpha virt. eigenvalues --    5.68746   5.71220   5.76038   5.77352   5.78576
 Alpha virt. eigenvalues --    5.79370   5.82127   5.84910   5.86926   5.87595
 Alpha virt. eigenvalues --    5.89639   5.90552   5.92414   5.93396   5.94583
 Alpha virt. eigenvalues --    5.96103   5.96770   5.97497   5.99803   6.00963
 Alpha virt. eigenvalues --    6.02672   6.03396   6.04040   6.06691   6.07521
 Alpha virt. eigenvalues --    6.09250   6.10973   6.13400   6.16595   6.17426
 Alpha virt. eigenvalues --    6.19529   6.19877   6.21460   6.22482   6.25796
 Alpha virt. eigenvalues --    6.26965   6.28440   6.31008   6.33063   6.35723
 Alpha virt. eigenvalues --    6.36236   6.40550   6.41188   6.41966   6.43897
 Alpha virt. eigenvalues --    6.44491   6.49202   6.49666   6.51490   6.51606
 Alpha virt. eigenvalues --    6.56342   6.58634   6.60531   6.61019   6.65482
 Alpha virt. eigenvalues --    6.66855   6.69187   6.72208   6.73289   6.75698
 Alpha virt. eigenvalues --    6.77780   6.78778   6.79691   6.80819   6.83990
 Alpha virt. eigenvalues --    6.85974   6.86947   6.89402   6.90574   6.95088
 Alpha virt. eigenvalues --    6.96436   6.99180   7.02240   7.04778   7.06649
 Alpha virt. eigenvalues --    7.08447   7.11424   7.13277   7.15566   7.16432
 Alpha virt. eigenvalues --    7.19126   7.21019   7.23250   7.24457   7.25181
 Alpha virt. eigenvalues --    7.29807   7.33459   7.34216   7.37652   7.38547
 Alpha virt. eigenvalues --    7.38948   7.41670   7.42626   7.44276   7.46334
 Alpha virt. eigenvalues --    7.48352   7.51364   7.53302   7.55274   7.56519
 Alpha virt. eigenvalues --    7.56709   7.61646   7.62041   7.64170   7.68056
 Alpha virt. eigenvalues --    7.68510   7.71976   7.74516   7.77003   7.79174
 Alpha virt. eigenvalues --    7.81525   7.83627   7.85943   7.89323   7.91626
 Alpha virt. eigenvalues --    7.95700   7.95890   7.98145   7.99700   8.01692
 Alpha virt. eigenvalues --    8.02903   8.03901   8.04828   8.07515   8.07897
 Alpha virt. eigenvalues --    8.13006   8.14638   8.16529   8.17503   8.18327
 Alpha virt. eigenvalues --    8.19331   8.20544   8.21075   8.23966   8.25424
 Alpha virt. eigenvalues --    8.26118   8.28964   8.29913   8.32630   8.34000
 Alpha virt. eigenvalues --    8.34645   8.36548   8.37736   8.38934   8.39751
 Alpha virt. eigenvalues --    8.41537   8.42985   8.43448   8.45637   8.47923
 Alpha virt. eigenvalues --    8.51499   8.52049   8.55381   8.56634   8.60524
 Alpha virt. eigenvalues --    8.62342   8.64791   8.65989   8.67685   8.70412
 Alpha virt. eigenvalues --    8.71420   8.73192   8.78118   8.79345   8.80958
 Alpha virt. eigenvalues --    8.83975   8.85468   8.88167   8.92402   8.93087
 Alpha virt. eigenvalues --    8.93956   8.95449   8.98020   9.01187   9.02958
 Alpha virt. eigenvalues --    9.04723   9.05639   9.08222   9.10385   9.13268
 Alpha virt. eigenvalues --    9.16804   9.17937   9.20560   9.24450   9.29549
 Alpha virt. eigenvalues --    9.33007   9.33710   9.36428   9.40278   9.42493
 Alpha virt. eigenvalues --    9.44570   9.48879   9.54437   9.57497   9.60971
 Alpha virt. eigenvalues --    9.70549   9.71612   9.80620   9.81346   9.86902
 Alpha virt. eigenvalues --    9.90529   9.95744  10.00365  10.08376  10.17745
 Alpha virt. eigenvalues --   10.22590  10.29350  10.32358  10.39332  10.47579
 Alpha virt. eigenvalues --   10.51550  10.64919  10.70537  10.74604  10.86203
 Alpha virt. eigenvalues --   10.98513  11.08250  11.18431  11.19937  11.23337
 Alpha virt. eigenvalues --   11.26217  11.29042  11.31868  11.42972  11.57851
 Alpha virt. eigenvalues --   11.99708  12.55189  12.91826  28.90429  29.00281
 Alpha virt. eigenvalues --   29.26832  29.54795 148.56844 148.62815 149.00675
 Alpha virt. eigenvalues --  149.22415
          Condensed to atoms (all electrons):
               1          2          3          4          5          6
     1  C    4.815912   0.388588   0.377240   0.398399   0.370215  -0.050178
     2  C    0.388588   4.910131  -0.030655  -0.031046  -0.038028   0.351719
     3  H    0.377240  -0.030655   0.662778  -0.032671  -0.015739   0.007183
     4  H    0.398399  -0.031046  -0.032671   0.570887  -0.025749  -0.010132
     5  H    0.370215  -0.038028  -0.015739  -0.025749   0.662043  -0.002257
     6  C   -0.050178   0.351719   0.007183  -0.010132  -0.002257   4.946508
     7  H   -0.047855   0.345200  -0.001719  -0.003615   0.007752  -0.095165
     8  H   -0.025604   0.370423  -0.000800   0.004201  -0.000359  -0.031262
     9  C    0.007365  -0.055162  -0.000551  -0.000076  -0.000016   0.335922
    10  H   -0.000419  -0.065968  -0.000301   0.000107   0.005248   0.375954
    11  H   -0.018822  -0.062265   0.000843   0.001104   0.001693   0.420379
    12  H   -0.000604  -0.014867   0.000029  -0.000066   0.000096  -0.085831
    13  H   -0.000950   0.012114   0.000033   0.000021   0.000033  -0.031308
    14  H    0.000624  -0.005474  -0.000010   0.000081  -0.000035  -0.045338
               7          8          9         10         11         12
     1  C   -0.047855  -0.025604   0.007365  -0.000419  -0.018822  -0.000604
     2  C    0.345200   0.370423  -0.055162  -0.065968  -0.062265  -0.014867
     3  H   -0.001719  -0.000800  -0.000551  -0.000301   0.000843   0.000029
     4  H   -0.003615   0.004201  -0.000076   0.000107   0.001104  -0.000066
     5  H    0.007752  -0.000359  -0.000016   0.005248   0.001693   0.000096
     6  C   -0.095165  -0.031262   0.335922   0.375954   0.420379  -0.085831
     7  H    0.767417  -0.025148  -0.014685   0.020572  -0.021781  -0.002450
     8  H   -0.025148   0.673109  -0.001411  -0.005556   0.009739   0.007134
     9  C   -0.014685  -0.001411   4.802153  -0.031061  -0.088163   0.421481
    10  H    0.020572  -0.005556  -0.031061   0.759364  -0.024826  -0.006194
    11  H   -0.021781   0.009739  -0.088163  -0.024826   0.670179   0.023359
    12  H   -0.002450   0.007134   0.421481  -0.006194   0.023359   0.640329
    13  H   -0.000192  -0.000337   0.382905  -0.014047  -0.009551  -0.037768
    14  H    0.008810  -0.000885   0.419180   0.008466  -0.009719  -0.031721
              13         14
     1  C   -0.000950   0.000624
     2  C    0.012114  -0.005474
     3  H    0.000033  -0.000010
     4  H    0.000021   0.000081
     5  H    0.000033  -0.000035
     6  C   -0.031308  -0.045338
     7  H   -0.000192   0.008810
     8  H   -0.000337  -0.000885
     9  C    0.382905   0.419180
    10  H   -0.014047   0.008466
    11  H   -0.009551  -0.009719
    12  H   -0.037768  -0.031721
    13  H    0.697782  -0.026465
    14  H   -0.026465   0.618696
 Mulliken charges:
               1
     1  C   -0.213911
     2  C   -0.074711
     3  H    0.034338
     4  H    0.128555
     5  H    0.035103
     6  C   -0.086195
     7  H    0.062859
     8  H    0.026757
     9  C   -0.177880
    10  H   -0.021339
    11  H    0.107831
    12  H    0.087074
    13  H    0.027730
    14  H    0.063791
 Sum of Mulliken charges =   0.00000
 Mulliken charges with hydrogens summed into heavy atoms:
               1
     1  C   -0.015915
     2  C    0.014904
     6  C    0.000296
     9  C    0.000714
 Electronic spatial extent (au):  <R**2>=            427.5675
 Charge=              0.0000 electrons
 Dipole moment (field-independent basis, Debye):
    X=             -0.3280    Y=              0.1825    Z=             -0.7223  Tot=              0.8140
 Quadrupole moment (field-independent basis, Debye-Ang):
   XX=            -31.6823   YY=            -30.7184   ZZ=            -28.4495
   XY=             -0.6966   XZ=             -0.6537   YZ=             -0.0447
 Traceless Quadrupole moment (field-independent basis, Debye-Ang):
   XX=             -1.3989   YY=             -0.4350   ZZ=              1.8339
   XY=             -0.6966   XZ=             -0.6537   YZ=             -0.0447
 Octapole moment (field-independent basis, Debye-Ang**2):
  XXX=             -4.2720  YYY=              0.2932  ZZZ=             -3.3249  XYY=             -0.0486
  XXY=              1.0228  XXZ=             -1.1053  XZZ=             -1.0256  YZZ=              0.8859
  YYZ=             -0.1867  XYZ=              0.5553
 Hexadecapole moment (field-independent basis, Debye-Ang**3):
 XXXX=           -484.3146 YYYY=           -109.5327 ZZZZ=            -75.3864 XXXY=              3.0727
 XXXZ=            -10.7488 YYYX=             -2.8393 YYYZ=              2.4531 ZZZX=              0.0311
 ZZZY=              1.7896 XXYY=            -94.0204 XXZZ=            -88.1661 YYZZ=            -26.8984
 XXYZ=             -5.3324 YYXZ=              0.9443 ZZXY=             -3.7498
 N-N= 1.301134087386D+02 E-N=-6.251049245373D+02  KE= 1.571644014013D+02
 Leave Link  601 at Wed Aug 26 20:25:04 2020, MaxMem=  2097152000 cpu:         1.1
 (Enter /opt/cluster/programs/g09/g09_d.01/g09/l9999.exe)
 1\1\GINC-NODE10\SP\RB2PLYPD3-FC\def2QZVP\C4H10\BOITTIER\26-Aug-2020\0\
 \#p B2PLYPD3/Def2QZVP\\butane_opt\\0,1\C,0,-3.912606,0.336605,-0.16348
 2\C,0,-2.653094,-0.668657,0.302406\H,0,-5.050755,-0.353214,-0.486967\H
 ,0,-3.666794,0.736666,-0.963799\H,0,-4.095121,1.318842,0.789536\C,0,-1
 .386998,0.077246,0.117197\H,0,-2.420703,-1.185271,-0.621071\H,0,-2.830
 098,-1.568443,1.436807\C,0,-0.258813,-0.640821,-0.160383\H,0,-1.350421
 ,1.045179,1.133614\H,0,-1.557165,0.553977,-0.684545\H,0,-0.152048,-1.0
 57679,0.684875\H,0,0.84486,0.081022,0.093903\H,0,-0.240392,-1.30607,-1
 .05999\\Version=ES64L-G09RevD.01\State=1-A\HF=-157.8231282\MP2=-158.07
 91738\RMSD=8.302e-09\PG=C01 [X(C4H10)]\\@


 The number of Unix installations has grown to 10,
  with more expected.
                  -- The Unix Programmer's Manual,
                     2nd Edition, June, 1972.
 Job cpu time:       0 days  1 hours 34 minutes 26.3 seconds.
 File lengths (MBytes):  RWF=    152 Int=      0 D2E=      0 Chk=     14 Scr=      1
 Normal termination of Gaussian 09 at Wed Aug 26 20:25:31 2020.
