 Entering Gaussian System, Link 0=/opt/cluster/programs/g09/g09_d.01/g09//g09
 Input=/home/boittier/MDCM/nms_sampling/butane_geom.xyz.dir/energies/butane_opt_1502_energy.com
 Output=/scratch/boittier/butane_opt_1502_energy/butane_opt_1502_energy.out
 Initial command:
 /opt/cluster/programs/g09/g09_d.01/g09/l1.exe "/scratch/boittier/butane_opt_1502_energy/Gau-117856.inp" -scrdir="/scratch/boittier/butane_opt_1502_energy/"
 Entering Link 1 = /opt/cluster/programs/g09/g09_d.01/g09/l1.exe PID=    117857.
  
 Copyright (c) 1988,1990,1992,1993,1995,1998,2003,2009,2013,
            Gaussian, Inc.  All Rights Reserved.
  
 This is part of the Gaussian(R) 09 program.  It is based on
 the Gaussian(R) 03 system (copyright 2003, Gaussian, Inc.),
 the Gaussian(R) 98 system (copyright 1998, Gaussian, Inc.),
 the Gaussian(R) 94 system (copyright 1995, Gaussian, Inc.),
 the Gaussian 92(TM) system (copyright 1992, Gaussian, Inc.),
 the Gaussian 90(TM) system (copyright 1990, Gaussian, Inc.),
 the Gaussian 88(TM) system (copyright 1988, Gaussian, Inc.),
 the Gaussian 86(TM) system (copyright 1986, Carnegie Mellon
 University), and the Gaussian 82(TM) system (copyright 1983,
 Carnegie Mellon University). Gaussian is a federally registered
 trademark of Gaussian, Inc.
  
 This software contains proprietary and confidential information,
 including trade secrets, belonging to Gaussian, Inc.
  
 This software is provided under written license and may be
 used, copied, transmitted, or stored only in accord with that
 written license.
  
 The following legend is applicable only to US Government
 contracts under FAR:
  
                    RESTRICTED RIGHTS LEGEND
  
 Use, reproduction and disclosure by the US Government is
 subject to restrictions as set forth in subparagraphs (a)
 and (c) of the Commercial Computer Software - Restricted
 Rights clause in FAR 52.227-19.
  
 Gaussian, Inc.
 340 Quinnipiac St., Bldg. 40, Wallingford CT 06492
  
  
 ---------------------------------------------------------------
 Warning -- This program may not be used in any manner that
 competes with the business of Gaussian, Inc. or will provide
 assistance to any competitor of Gaussian, Inc.  The licensee
 of this program is prohibited from giving any competitor of
 Gaussian, Inc. access to this program.  By using this program,
 the user acknowledges that Gaussian, Inc. is engaged in the
 business of creating and licensing software in the field of
 computational chemistry and represents and warrants to the
 licensee that it is not a competitor of Gaussian, Inc. and that
 it will not use this program in any manner prohibited above.
 ---------------------------------------------------------------
  

 Cite this work as:
 Gaussian 09, Revision D.01,
 M. J. Frisch, G. W. Trucks, H. B. Schlegel, G. E. Scuseria, 
 M. A. Robb, J. R. Cheeseman, G. Scalmani, V. Barone, B. Mennucci, 
 G. A. Petersson, H. Nakatsuji, M. Caricato, X. Li, H. P. Hratchian, 
 A. F. Izmaylov, J. Bloino, G. Zheng, J. L. Sonnenberg, M. Hada, 
 M. Ehara, K. Toyota, R. Fukuda, J. Hasegawa, M. Ishida, T. Nakajima, 
 Y. Honda, O. Kitao, H. Nakai, T. Vreven, J. A. Montgomery, Jr., 
 J. E. Peralta, F. Ogliaro, M. Bearpark, J. J. Heyd, E. Brothers, 
 K. N. Kudin, V. N. Staroverov, T. Keith, R. Kobayashi, J. Normand, 
 K. Raghavachari, A. Rendell, J. C. Burant, S. S. Iyengar, J. Tomasi, 
 M. Cossi, N. Rega, J. M. Millam, M. Klene, J. E. Knox, J. B. Cross, 
 V. Bakken, C. Adamo, J. Jaramillo, R. Gomperts, R. E. Stratmann, 
 O. Yazyev, A. J. Austin, R. Cammi, C. Pomelli, J. W. Ochterski, 
 R. L. Martin, K. Morokuma, V. G. Zakrzewski, G. A. Voth, 
 P. Salvador, J. J. Dannenberg, S. Dapprich, A. D. Daniels, 
 O. Farkas, J. B. Foresman, J. V. Ortiz, J. Cioslowski, 
 and D. J. Fox, Gaussian, Inc., Wallingford CT, 2013.
 
 ******************************************
 Gaussian 09:  ES64L-G09RevD.01 24-Apr-2013
                26-Aug-2020 
 ******************************************
 %chk=/home/boittier/MDCM/nms_sampling/butane_geom.xyz.dir/butane_opt_1502.chk
 %nproc=8
 Will use up to    8 processors via shared memory.
 %mem=16000MB
 --------------------
 #p B2PLYPD3/Def2QZVP
 --------------------
 1/38=1/1;
 2/12=2,17=6,18=5,40=1/2;
 3/5=45,7=101,11=9,16=1,25=1,30=1,74=-60/1,2,3;
 4//1;
 5/5=2,38=5/2;
 8/10=1/1;
 9/16=-3/6;
 6/7=2,8=2,9=2,10=2/1;
 99/5=1,9=1/99;
 Leave Link    1 at Wed Aug 26 11:45:25 2020, MaxMem=  2097152000 cpu:         0.2
 (Enter /opt/cluster/programs/g09/g09_d.01/g09/l101.exe)
 ----------
 butane_opt
 ----------
 Symbolic Z-matrix:
 Charge =  0 Multiplicity = 1
 C                    -3.87276   0.20338  -0.1828 
 C                    -2.68746  -0.52705   0.21739 
 H                    -5.03288  -0.52719  -0.22665 
 H                    -3.74436   0.94121  -1.14226 
 H                    -3.9927    1.01331   0.69895 
 C                    -1.47357   0.1709    0.28965 
 H                    -2.61566  -1.23619  -0.69765 
 H                    -2.92175  -1.19178   1.28398 
 C                    -0.16361  -0.71685  -0.16054 
 H                    -1.35947   0.78126   1.07533 
 H                    -1.69414   0.93619  -0.74412 
 H                     0.38651  -1.52604   0.6122 
 H                     0.75747   0.00117  -0.3577 
 H                    -0.424    -1.24234  -0.98233 
 
 NAtoms=     14 NQM=       14 NQMF=       0 NMMI=      0 NMMIF=      0
                NMic=       0 NMicF=      0.
                    Isotopes and Nuclear Properties:
 (Nuclear quadrupole moments (NQMom) in fm**2, nuclear magnetic moments (NMagM)
  in nuclear magnetons)

  Atom         1           2           3           4           5           6           7           8           9          10
 IAtWgt=          12          12           1           1           1          12           1           1          12           1
 AtmWgt=  12.0000000  12.0000000   1.0078250   1.0078250   1.0078250  12.0000000   1.0078250   1.0078250  12.0000000   1.0078250
 NucSpn=           0           0           1           1           1           0           1           1           0           1
 AtZEff=   0.0000000   0.0000000   0.0000000   0.0000000   0.0000000   0.0000000   0.0000000   0.0000000   0.0000000   0.0000000
 NQMom=    0.0000000   0.0000000   0.0000000   0.0000000   0.0000000   0.0000000   0.0000000   0.0000000   0.0000000   0.0000000
 NMagM=    0.0000000   0.0000000   2.7928460   2.7928460   2.7928460   0.0000000   2.7928460   2.7928460   0.0000000   2.7928460
 AtZNuc=   6.0000000   6.0000000   1.0000000   1.0000000   1.0000000   6.0000000   1.0000000   1.0000000   6.0000000   1.0000000

  Atom        11          12          13          14
 IAtWgt=           1           1           1           1
 AtmWgt=   1.0078250   1.0078250   1.0078250   1.0078250
 NucSpn=           1           1           1           1
 AtZEff=   0.0000000   0.0000000   0.0000000   0.0000000
 NQMom=    0.0000000   0.0000000   0.0000000   0.0000000
 NMagM=    2.7928460   2.7928460   2.7928460   2.7928460
 AtZNuc=   1.0000000   1.0000000   1.0000000   1.0000000
 Leave Link  101 at Wed Aug 26 11:45:25 2020, MaxMem=  2097152000 cpu:         0.5
 (Enter /opt/cluster/programs/g09/g09_d.01/g09/l202.exe)
                          Input orientation:                          
 ---------------------------------------------------------------------
 Center     Atomic      Atomic             Coordinates (Angstroms)
 Number     Number       Type             X           Y           Z
 ---------------------------------------------------------------------
      1          6           0       -3.872756    0.203379   -0.182801
      2          6           0       -2.687459   -0.527049    0.217386
      3          1           0       -5.032876   -0.527190   -0.226649
      4          1           0       -3.744359    0.941208   -1.142259
      5          1           0       -3.992700    1.013311    0.698951
      6          6           0       -1.473574    0.170901    0.289649
      7          1           0       -2.615659   -1.236187   -0.697646
      8          1           0       -2.921754   -1.191779    1.283979
      9          6           0       -0.163606   -0.716853   -0.160542
     10          1           0       -1.359465    0.781263    1.075328
     11          1           0       -1.694138    0.936194   -0.744123
     12          1           0        0.386513   -1.526039    0.612200
     13          1           0        0.757474    0.001169   -0.357698
     14          1           0       -0.423999   -1.242341   -0.982334
 ---------------------------------------------------------------------
                    Distance matrix (angstroms):
                    1          2          3          4          5
     1  C    0.000000
     2  C    1.448656   0.000000
     3  H    1.371690   2.387079   0.000000
     4  H    1.217143   2.263062   2.157501   0.000000
     5  H    1.203272   2.075637   2.076498   1.859281   0.000000
     6  C    2.445473   1.402096   3.663676   2.792883   2.687597
     7  H    1.979320   1.159877   2.562704   2.492528   2.984454
     8  H    2.236585   1.278429   2.679648   3.333608   2.520239
     9  C    3.821664   2.559041   4.873411   4.066292   4.288841
    10  H    2.869402   2.052148   4.111100   3.260520   2.670100
    11  H    2.366110   2.013024   3.681908   2.088527   2.715105
    12  H    4.665221   3.256250   5.574150   5.121478   5.062937
    13  H    4.637942   3.532322   5.815883   4.665373   4.970422
    14  H    3.824040   2.659741   4.724854   3.977217   4.544261
                    6          7          8          9         10
     6  C    0.000000
     7  H    2.063736   0.000000
     8  H    2.223244   2.005618   0.000000
     9  C    1.645234   2.563348   3.149536   0.000000
    10  H    1.001426   2.965057   2.525307   2.280747   0.000000
    11  H    1.304993   2.360212   3.185672   2.327157   1.856451
    12  H    2.538418   3.288274   3.392292   1.246813   2.930285
    13  H    2.329258   3.608967   4.201779   1.184405   2.672740
    14  H    2.171820   2.210081   3.373057   1.009596   3.033817
                   11         12         13         14
    11  H    0.000000
    12  H    3.497329   0.000000
    13  H    2.652168   1.846802   0.000000
    14  H    2.532985   1.811064   1.825477   0.000000
 Stoichiometry    C4H10
 Framework group  C1[X(C4H10)]
 Deg. of freedom    36
 Full point group                 C1      NOp   1
 Largest Abelian subgroup         C1      NOp   1
 Largest concise Abelian subgroup C1      NOp   1
                         Standard orientation:                         
 ---------------------------------------------------------------------
 Center     Atomic      Atomic             Coordinates (Angstroms)
 Number     Number       Type             X           Y           Z
 ---------------------------------------------------------------------
      1          6           0       -1.865766    0.083865   -0.184234
      2          6           0       -0.563291   -0.439969    0.173203
      3          1           0       -2.869243   -0.845059   -0.292240
      4          1           0       -1.881347    0.900916   -1.086244
      5          1           0       -2.131197    0.790453    0.752859
      6          6           0        0.499212    0.464946    0.307695
      7          1           0       -0.364114   -1.054350   -0.790218
      8          1           0       -0.664952   -1.212998    1.186353
      9          6           0        1.950037   -0.127520   -0.193192
     10          1           0        0.500584    1.026698    1.136723
     11          1           0        0.135376    1.249257   -0.669794
     12          1           0        2.644750   -0.874258    0.523954
     13          1           0        2.720030    0.762170   -0.328755
     14          1           0        1.788959   -0.630760   -1.053475
 ---------------------------------------------------------------------
 Rotational constants (GHZ):     21.1859234      3.6441279      3.5186955
 Leave Link  202 at Wed Aug 26 11:45:25 2020, MaxMem=  2097152000 cpu:         0.1
 (Enter /opt/cluster/programs/g09/g09_d.01/g09/l301.exe)
 Standard basis: def2QZVP (5D, 7F)
 Ernie: Thresh=  0.10000D-02 Tol=  0.10000D-05 Strict=F.
 There are   638 symmetry adapted cartesian basis functions of A   symmetry.
 There are   528 symmetry adapted basis functions of A   symmetry.
   528 basis functions,   748 primitive gaussians,   638 cartesian basis functions
    17 alpha electrons       17 beta electrons
       nuclear repulsion energy       129.1180324507 Hartrees.
 IExCor=  419 DFT=T Ex+Corr=B2PLYPD3 ExCW=0 ScaHFX=  0.530000
 ScaDFX=  0.470000  0.470000  0.730000  0.730000 ScalE2=  0.270000  0.270000
 IRadAn=      0 IRanWt=     -1 IRanGd=            0 ICorTp=0 IEmpDi=141
 NAtoms=   14 NActive=   14 NUniq=   14 SFac= 1.00D+00 NAtFMM=   60 NAOKFM=F Big=F
 Integral buffers will be    131072 words long.
 Regular integral format.
 Two-electron integral symmetry is turned on.
 R6Disp:  Grimme-D3(BJ) Dispersion energy=       -0.0065256907 Hartrees.
 Nuclear repulsion after empirical dispersion term =      129.1115067600 Hartrees.
 Leave Link  301 at Wed Aug 26 11:45:25 2020, MaxMem=  2097152000 cpu:         0.4
 (Enter /opt/cluster/programs/g09/g09_d.01/g09/l302.exe)
 NPDir=0 NMtPBC=     1 NCelOv=     1 NCel=       1 NClECP=     1 NCelD=      1
         NCelK=      1 NCelE2=     1 NClLst=     1 CellRange=     0.0.
 One-electron integrals computed using PRISM.
   1 Symmetry operations used in ECPInt.
 ECPInt:  NShTT=   14196 NPrTT=   30597 LenC2=   13841 LenP2D=   25909.
 LDataN:  DoStor=T MaxTD1= 8 Len=  415
 NBasis=   528 RedAO= T EigKep=  5.09D-05  NBF=   528
 NBsUse=   528 1.00D-06 EigRej= -1.00D+00 NBFU=   528
 Precomputing XC quadrature grid using
 IXCGrd= 4 IRadAn=           0 IRanWt=          -1 IRanGd=           0 AccXCQ= 0.00D+00.
 Generated NRdTot=       0 NPtTot=           0 NUsed=           0 NTot=          32
 NSgBfM=   638   638   638   638   638 MxSgAt=    14 MxSgA2=    14.
 Leave Link  302 at Wed Aug 26 11:45:25 2020, MaxMem=  2097152000 cpu:         4.7
 (Enter /opt/cluster/programs/g09/g09_d.01/g09/l303.exe)
 DipDrv:  MaxL=1.
 Leave Link  303 at Wed Aug 26 11:45:26 2020, MaxMem=  2097152000 cpu:         0.5
 (Enter /opt/cluster/programs/g09/g09_d.01/g09/l401.exe)
 ExpMin= 7.60D-02 ExpMax= 6.70D+04 ExpMxC= 6.47D+02 IAcc=2 IRadAn=         4 AccDes= 0.00D+00
 Harris functional with IExCor=  419 and IRadAn=       4 diagonalized for initial guess.
 HarFok:  IExCor=  419 AccDes= 0.00D+00 IRadAn=         4 IDoV= 1 UseB2=F ITyADJ=14
 ICtDFT=  3500011 ScaDFX=  1.000000  1.000000  1.000000  1.000000
 FoFCou: FMM=F IPFlag=           0 FMFlag=      100000 FMFlg1=           0
         NFxFlg=           0 DoJE=T BraDBF=F KetDBF=T FulRan=T
         wScrn=  0.000000 ICntrl=     500 IOpCl=  0 I1Cent=   200000004 NGrid=           0
         NMat0=    1 NMatS0=      1 NMatT0=    0 NMatD0=    1 NMtDS0=    0 NMtDT0=    0
 Petite list used in FoFCou.
 Harris En= -158.440047950443    
 JPrj=0 DoOrth=F DoCkMO=F.
 Leave Link  401 at Wed Aug 26 11:45:28 2020, MaxMem=  2097152000 cpu:        14.6
 (Enter /opt/cluster/programs/g09/g09_d.01/g09/l502.exe)
 Closed shell SCF:
 Using DIIS extrapolation, IDIIS=  1040.
 Integral symmetry usage will be decided dynamically.
 IVT=     1249338 IEndB=     1249338 NGot=  2097152000 MDV=  2096326985
 LenX=  2096326985 LenY=  2095919303
 Requested convergence on RMS density matrix=1.00D-08 within 128 cycles.
 Requested convergence on MAX density matrix=1.00D-06.
 Requested convergence on             energy=1.00D-06.
 No special actions if energy rises.
 Fock matrices will be formed incrementally for  20 cycles.
 Integral accuracy reduced to 1.0D-05 until final iterations.

 Cycle   1  Pass 0  IDiag  1:
 FoFJK:  IHMeth= 1 ICntrl=       0 DoSepK=F KAlg= 0 I1Cent=   0 FoldK=F
 IRaf= 940000000 NMat=   1 IRICut=       1 DoRegI=T DoRafI=F ISym2E= 0.
 FoFCou: FMM=F IPFlag=           0 FMFlag=      100000 FMFlg1=           0
         NFxFlg=           0 DoJE=F BraDBF=F KetDBF=F FulRan=T
         wScrn=  0.000000 ICntrl=       0 IOpCl=  0 I1Cent=           0 NGrid=           0
         NMat0=    1 NMatS0=      1 NMatT0=    0 NMatD0=    1 NMtDS0=    0 NMtDT0=    0
 Symmetry not used in FoFCou.
 E= -157.738220802088    
 DIIS: error= 2.41D-02 at cycle   1 NSaved=   1.
 NSaved= 1 IEnMin= 1 EnMin= -157.738220802088     IErMin= 1 ErrMin= 2.41D-02
 ErrMax= 2.41D-02  0.00D+00 EMaxC= 1.00D-01 BMatC= 3.03D-01 BMatP= 3.03D-01
 IDIUse=3 WtCom= 7.59D-01 WtEn= 2.41D-01
 Coeff-Com:  0.100D+01
 Coeff-En:   0.100D+01
 Coeff:      0.100D+01
 Gap=     0.375 Goal=   None    Shift=    0.000
 GapD=    0.375 DampG=1.000 DampE=0.500 DampFc=0.5000 IDamp=-1.
 Damping current iteration by 5.00D-01
 RMSDP=1.02D-03 MaxDP=7.55D-02              OVMax= 1.86D-01

 Cycle   2  Pass 0  IDiag  1:
 RMSU=  4.90D-04    CP:  9.52D-01
 E= -157.855825073974     Delta-E=       -0.117604271886 Rises=F Damp=T
 DIIS: error= 5.85D-03 at cycle   2 NSaved=   2.
 NSaved= 2 IEnMin= 2 EnMin= -157.855825073974     IErMin= 2 ErrMin= 5.85D-03
 ErrMax= 5.85D-03  0.00D+00 EMaxC= 1.00D-01 BMatC= 3.03D-02 BMatP= 3.03D-01
 IDIUse=3 WtCom= 9.41D-01 WtEn= 5.85D-02
 Coeff-Com: -0.117D+00 0.112D+01
 Coeff-En:   0.000D+00 0.100D+01
 Coeff:     -0.110D+00 0.111D+01
 Gap=     0.437 Goal=   None    Shift=    0.000
 RMSDP=2.78D-04 MaxDP=1.85D-02 DE=-1.18D-01 OVMax= 1.15D-01

 Cycle   3  Pass 0  IDiag  1:
 RMSU=  2.48D-04    CP:  9.40D-01  7.54D-01
 E= -157.974444135933     Delta-E=       -0.118619061959 Rises=F Damp=F
 DIIS: error= 3.81D-03 at cycle   3 NSaved=   3.
 NSaved= 3 IEnMin= 3 EnMin= -157.974444135933     IErMin= 3 ErrMin= 3.81D-03
 ErrMax= 3.81D-03  0.00D+00 EMaxC= 1.00D-01 BMatC= 4.09D-03 BMatP= 3.03D-02
 IDIUse=3 WtCom= 9.62D-01 WtEn= 3.81D-02
 Coeff-Com: -0.115D+00 0.233D+00 0.882D+00
 Coeff-En:   0.000D+00 0.000D+00 0.100D+01
 Coeff:     -0.110D+00 0.224D+00 0.886D+00
 Gap=     0.398 Goal=   None    Shift=    0.000
 RMSDP=7.30D-05 MaxDP=6.44D-03 DE=-1.19D-01 OVMax= 1.72D-02

 Cycle   4  Pass 0  IDiag  1:
 RMSU=  5.11D-05    CP:  9.36D-01  8.56D-01  9.96D-01
 E= -157.978543068315     Delta-E=       -0.004098932383 Rises=F Damp=F
 DIIS: error= 9.22D-04 at cycle   4 NSaved=   4.
 NSaved= 4 IEnMin= 4 EnMin= -157.978543068315     IErMin= 4 ErrMin= 9.22D-04
 ErrMax= 9.22D-04  0.00D+00 EMaxC= 1.00D-01 BMatC= 3.59D-04 BMatP= 4.09D-03
 IDIUse=3 WtCom= 9.91D-01 WtEn= 9.22D-03
 Coeff-Com: -0.401D-01 0.621D-01 0.359D+00 0.619D+00
 Coeff-En:   0.000D+00 0.000D+00 0.000D+00 0.100D+01
 Coeff:     -0.397D-01 0.615D-01 0.356D+00 0.623D+00
 Gap=     0.398 Goal=   None    Shift=    0.000
 RMSDP=2.10D-05 MaxDP=1.87D-03 DE=-4.10D-03 OVMax= 4.55D-03

 Cycle   5  Pass 0  IDiag  1:
 RMSU=  1.55D-05    CP:  9.36D-01  8.42D-01  1.03D+00  8.14D-01
 E= -157.978885710205     Delta-E=       -0.000342641889 Rises=F Damp=F
 DIIS: error= 1.71D-04 at cycle   5 NSaved=   5.
 NSaved= 5 IEnMin= 5 EnMin= -157.978885710205     IErMin= 5 ErrMin= 1.71D-04
 ErrMax= 1.71D-04  0.00D+00 EMaxC= 1.00D-01 BMatC= 1.30D-05 BMatP= 3.59D-04
 IDIUse=3 WtCom= 9.98D-01 WtEn= 1.71D-03
 Coeff-Com: -0.279D-02 0.271D-03 0.418D-01 0.186D+00 0.775D+00
 Coeff-En:   0.000D+00 0.000D+00 0.000D+00 0.000D+00 0.100D+01
 Coeff:     -0.278D-02 0.271D-03 0.417D-01 0.185D+00 0.776D+00
 Gap=     0.398 Goal=   None    Shift=    0.000
 RMSDP=5.28D-06 MaxDP=3.56D-04 DE=-3.43D-04 OVMax= 8.09D-04

 Initial convergence to 1.0D-05 achieved.  Increase integral accuracy.
 Cycle   6  Pass 1  IDiag  1:
 E= -157.978880246676     Delta-E=        0.000005463528 Rises=F Damp=F
 DIIS: error= 4.93D-05 at cycle   1 NSaved=   1.
 NSaved= 1 IEnMin= 1 EnMin= -157.978880246676     IErMin= 1 ErrMin= 4.93D-05
 ErrMax= 4.93D-05  0.00D+00 EMaxC= 1.00D-01 BMatC= 7.34D-07 BMatP= 7.34D-07
 IDIUse=1 WtCom= 1.00D+00 WtEn= 0.00D+00
 Coeff-Com:  0.100D+01
 Coeff:      0.100D+01
 Gap=     0.398 Goal=   None    Shift=    0.000
 RMSDP=5.28D-06 MaxDP=3.56D-04 DE= 5.46D-06 OVMax= 2.24D-04

 Cycle   7  Pass 1  IDiag  1:
 RMSU=  2.22D-05    CP:  1.00D+00
 E= -157.978880793043     Delta-E=       -0.000000546367 Rises=F Damp=F
 DIIS: error= 1.54D-05 at cycle   2 NSaved=   2.
 NSaved= 2 IEnMin= 2 EnMin= -157.978880793043     IErMin= 2 ErrMin= 1.54D-05
 ErrMax= 1.54D-05  0.00D+00 EMaxC= 1.00D-01 BMatC= 1.23D-07 BMatP= 7.34D-07
 IDIUse=1 WtCom= 1.00D+00 WtEn= 0.00D+00
 Coeff-Com:  0.218D+00 0.782D+00
 Coeff:      0.218D+00 0.782D+00
 Gap=     0.398 Goal=   None    Shift=    0.000
 RMSDP=8.21D-07 MaxDP=3.90D-05 DE=-5.46D-07 OVMax= 1.33D-04

 Cycle   8  Pass 1  IDiag  1:
 RMSU=  5.83D-07    CP:  1.00D+00  1.03D+00
 E= -157.978880898356     Delta-E=       -0.000000105313 Rises=F Damp=F
 DIIS: error= 8.94D-06 at cycle   3 NSaved=   3.
 NSaved= 3 IEnMin= 3 EnMin= -157.978880898356     IErMin= 3 ErrMin= 8.94D-06
 ErrMax= 8.94D-06  0.00D+00 EMaxC= 1.00D-01 BMatC= 3.28D-08 BMatP= 1.23D-07
 IDIUse=1 WtCom= 1.00D+00 WtEn= 0.00D+00
 Coeff-Com: -0.198D-01 0.322D+00 0.698D+00
 Coeff:     -0.198D-01 0.322D+00 0.698D+00
 Gap=     0.398 Goal=   None    Shift=    0.000
 RMSDP=3.16D-07 MaxDP=2.32D-05 DE=-1.05D-07 OVMax= 4.49D-05

 Cycle   9  Pass 1  IDiag  1:
 RMSU=  2.19D-07    CP:  1.00D+00  1.04D+00  8.94D-01
 E= -157.978880932239     Delta-E=       -0.000000033882 Rises=F Damp=F
 DIIS: error= 1.67D-06 at cycle   4 NSaved=   4.
 NSaved= 4 IEnMin= 4 EnMin= -157.978880932239     IErMin= 4 ErrMin= 1.67D-06
 ErrMax= 1.67D-06  0.00D+00 EMaxC= 1.00D-01 BMatC= 1.04D-09 BMatP= 3.28D-08
 IDIUse=1 WtCom= 1.00D+00 WtEn= 0.00D+00
 Coeff-Com: -0.171D-01 0.607D-01 0.206D+00 0.750D+00
 Coeff:     -0.171D-01 0.607D-01 0.206D+00 0.750D+00
 Gap=     0.398 Goal=   None    Shift=    0.000
 RMSDP=5.81D-08 MaxDP=3.78D-06 DE=-3.39D-08 OVMax= 9.44D-06

 Cycle  10  Pass 1  IDiag  1:
 RMSU=  5.10D-08    CP:  1.00D+00  1.04D+00  9.20D-01  1.07D+00
 E= -157.978880933500     Delta-E=       -0.000000001261 Rises=F Damp=F
 DIIS: error= 4.08D-07 at cycle   5 NSaved=   5.
 NSaved= 5 IEnMin= 5 EnMin= -157.978880933500     IErMin= 5 ErrMin= 4.08D-07
 ErrMax= 4.08D-07  0.00D+00 EMaxC= 1.00D-01 BMatC= 7.83D-11 BMatP= 1.04D-09
 IDIUse=1 WtCom= 1.00D+00 WtEn= 0.00D+00
 Coeff-Com: -0.947D-03-0.254D-01-0.449D-01 0.140D+00 0.931D+00
 Coeff:     -0.947D-03-0.254D-01-0.449D-01 0.140D+00 0.931D+00
 Gap=     0.398 Goal=   None    Shift=    0.000
 RMSDP=2.45D-08 MaxDP=1.54D-06 DE=-1.26D-09 OVMax= 3.52D-06

 Cycle  11  Pass 1  IDiag  1:
 RMSU=  1.34D-08    CP:  1.00D+00  1.04D+00  9.34D-01  1.15D+00  1.04D+00
 E= -157.978880933607     Delta-E=       -0.000000000107 Rises=F Damp=F
 DIIS: error= 1.31D-07 at cycle   6 NSaved=   6.
 NSaved= 6 IEnMin= 6 EnMin= -157.978880933607     IErMin= 6 ErrMin= 1.31D-07
 ErrMax= 1.31D-07  0.00D+00 EMaxC= 1.00D-01 BMatC= 8.07D-12 BMatP= 7.83D-11
 IDIUse=1 WtCom= 1.00D+00 WtEn= 0.00D+00
 Coeff-Com:  0.548D-03-0.124D-01-0.271D-01 0.164D-01 0.352D+00 0.670D+00
 Coeff:      0.548D-03-0.124D-01-0.271D-01 0.164D-01 0.352D+00 0.670D+00
 Gap=     0.398 Goal=   None    Shift=    0.000
 RMSDP=4.24D-09 MaxDP=2.39D-07 DE=-1.07D-10 OVMax= 7.85D-07

 SCF Done:  E(RB2PLYPD3) =  -157.978880934     A.U. after   11 cycles
            NFock= 11  Conv=0.42D-08     -V/T= 2.0079
 KE= 1.567352158399D+02 PE=-6.231312016631D+02 EE= 1.793055981296D+02
 Leave Link  502 at Wed Aug 26 11:51:20 2020, MaxMem=  2097152000 cpu:      2811.6
 (Enter /opt/cluster/programs/g09/g09_d.01/g09/l801.exe)
 DoSCS=T DFT=T ScalE2(SS,OS)=  0.270000  0.270000
 ExpMin= 7.60D-02 ExpMax= 6.70D+04 ExpMxC= 6.47D+02 IAcc=3 IRadAn=         5 AccDes= 0.00D+00
 HarFok:  IExCor=  205 AccDes= 0.00D+00 IRadAn=         5 IDoV=-2 UseB2=F ITyADJ=14
 ICtDFT= 12500011 ScaDFX=  1.000000  1.000000  1.000000  1.000000
 Largest valence mixing into a core orbital is  1.22D-04
 Largest core mixing into a valence orbital is  1.92D-05
 Range of M.O.s used for correlation:     5   528
 NBasis=   528 NAE=    17 NBE=    17 NFC=     4 NFV=     0
 NROrb=    524 NOA=    13 NOB=    13 NVA=   511 NVB=   511

 **** Warning!!: The largest alpha MO coefficient is  0.24471509D+02

 Leave Link  801 at Wed Aug 26 11:51:20 2020, MaxMem=  2097152000 cpu:         1.0
 (Enter /opt/cluster/programs/g09/g09_d.01/g09/l906.exe)
 DoSCS=T DFT=T ScalE2(SS,OS)=  0.270000  0.270000
 FulOut=F Deriv=F AODrv=F NAtomX=    14
   MMem=         463  MDisk=          13 MDiskD=          13
  W3Min=     4238234 MinDsk=     6904766 NBas6D=         638
 NBas2D=      205689    NTT=      203841    LW2=     4508827
    MDV=  2095904136 MDiskM=        7293 NBas2p=      189167
 Fully direct method using O(OVN) memory.
 IMap=   1   2   3   4   5   6   7   8   9  10  11  12  13
 JobTyp=1 Pass  1:  I=   1 to  13 NPSUse=  8 ParTrn=T ParDer=T DoDerP=F.
 Spin components of T(2) and E(2):
     alpha-alpha T2 =       0.4380189096D-01 E2=     -0.2685193679D-01
     alpha-beta  T2 =       0.2978287361D+00 E2=     -0.1996651164D+00
     beta-beta   T2 =       0.4380189096D-01 E2=     -0.2685193679D-01
 The integrals were generated   1 times.
 E2(B2PLYPD3) =    -0.2533689900D+00 E(B2PLYPD3) =    -0.15823224992358D+03
 Leave Link  906 at Wed Aug 26 11:55:36 2020, MaxMem=  2097152000 cpu:      2040.0
 (Enter /opt/cluster/programs/g09/g09_d.01/g09/l601.exe)
 Copying SCF densities to generalized density rwf, IOpCl= 0 IROHF=0.

 **********************************************************************

            Population analysis using the SCF density.

 **********************************************************************

 Orbital symmetries:
       Occupied  (A) (A) (A) (A) (A) (A) (A) (A) (A) (A) (A) (A)
                 (A) (A) (A) (A) (A)
       Virtual   (A) (A) (A) (A) (A) (A) (A) (A) (A) (A) (A) (A)
                 (A) (A) (A) (A) (A) (A) (A) (A) (A) (A) (A) (A)
                 (A) (A) (A) (A) (A) (A) (A) (A) (A) (A) (A) (A)
                 (A) (A) (A) (A) (A) (A) (A) (A) (A) (A) (A) (A)
                 (A) (A) (A) (A) (A) (A) (A) (A) (A) (A) (A) (A)
                 (A) (A) (A) (A) (A) (A) (A) (A) (A) (A) (A) (A)
                 (A) (A) (A) (A) (A) (A) (A) (A) (A) (A) (A) (A)
                 (A) (A) (A) (A) (A) (A) (A) (A) (A) (A) (A) (A)
                 (A) (A) (A) (A) (A) (A) (A) (A) (A) (A) (A) (A)
                 (A) (A) (A) (A) (A) (A) (A) (A) (A) (A) (A) (A)
                 (A) (A) (A) (A) (A) (A) (A) (A) (A) (A) (A) (A)
                 (A) (A) (A) (A) (A) (A) (A) (A) (A) (A) (A) (A)
                 (A) (A) (A) (A) (A) (A) (A) (A) (A) (A) (A) (A)
                 (A) (A) (A) (A) (A) (A) (A) (A) (A) (A) (A) (A)
                 (A) (A) (A) (A) (A) (A) (A) (A) (A) (A) (A) (A)
                 (A) (A) (A) (A) (A) (A) (A) (A) (A) (A) (A) (A)
                 (A) (A) (A) (A) (A) (A) (A) (A) (A) (A) (A) (A)
                 (A) (A) (A) (A) (A) (A) (A) (A) (A) (A) (A) (A)
                 (A) (A) (A) (A) (A) (A) (A) (A) (A) (A) (A) (A)
                 (A) (A) (A) (A) (A) (A) (A) (A) (A) (A) (A) (A)
                 (A) (A) (A) (A) (A) (A) (A) (A) (A) (A) (A) (A)
                 (A) (A) (A) (A) (A) (A) (A) (A) (A) (A) (A) (A)
                 (A) (A) (A) (A) (A) (A) (A) (A) (A) (A) (A) (A)
                 (A) (A) (A) (A) (A) (A) (A) (A) (A) (A) (A) (A)
                 (A) (A) (A) (A) (A) (A) (A) (A) (A) (A) (A) (A)
                 (A) (A) (A) (A) (A) (A) (A) (A) (A) (A) (A) (A)
                 (A) (A) (A) (A) (A) (A) (A) (A) (A) (A) (A) (A)
                 (A) (A) (A) (A) (A) (A) (A) (A) (A) (A) (A) (A)
                 (A) (A) (A) (A) (A) (A) (A) (A) (A) (A) (A) (A)
                 (A) (A) (A) (A) (A) (A) (A) (A) (A) (A) (A) (A)
                 (A) (A) (A) (A) (A) (A) (A) (A) (A) (A) (A) (A)
                 (A) (A) (A) (A) (A) (A) (A) (A) (A) (A) (A) (A)
                 (A) (A) (A) (A) (A) (A) (A) (A) (A) (A) (A) (A)
                 (A) (A) (A) (A) (A) (A) (A) (A) (A) (A) (A) (A)
                 (A) (A) (A) (A) (A) (A) (A) (A) (A) (A) (A) (A)
                 (A) (A) (A) (A) (A) (A) (A) (A) (A) (A) (A) (A)
                 (A) (A) (A) (A) (A) (A) (A) (A) (A) (A) (A) (A)
                 (A) (A) (A) (A) (A) (A) (A) (A) (A) (A) (A) (A)
                 (A) (A) (A) (A) (A) (A) (A) (A) (A) (A) (A) (A)
                 (A) (A) (A) (A) (A) (A) (A) (A) (A) (A) (A) (A)
                 (A) (A) (A) (A) (A) (A) (A) (A) (A) (A) (A) (A)
                 (A) (A) (A) (A) (A) (A) (A) (A) (A) (A) (A) (A)
                 (A) (A) (A) (A) (A) (A) (A)
 The electronic state is 1-A.
 Alpha  occ. eigenvalues --  -10.64911 -10.62897 -10.62752 -10.62552  -0.93449
 Alpha  occ. eigenvalues --   -0.81568  -0.72768  -0.64358  -0.54471  -0.49677
 Alpha  occ. eigenvalues --   -0.47947  -0.45666  -0.43775  -0.39908  -0.38340
 Alpha  occ. eigenvalues --   -0.35126  -0.34883
 Alpha virt. eigenvalues --    0.04911   0.06104   0.06595   0.08029   0.09773
 Alpha virt. eigenvalues --    0.10470   0.12184   0.12804   0.14138   0.14455
 Alpha virt. eigenvalues --    0.15493   0.15934   0.18800   0.19638   0.20958
 Alpha virt. eigenvalues --    0.21532   0.22291   0.23197   0.26773   0.28070
 Alpha virt. eigenvalues --    0.29345   0.29963   0.30763   0.31270   0.32515
 Alpha virt. eigenvalues --    0.34927   0.35053   0.36078   0.36532   0.37534
 Alpha virt. eigenvalues --    0.37925   0.42689   0.43098   0.44504   0.47538
 Alpha virt. eigenvalues --    0.49188   0.49440   0.51914   0.55187   0.56449
 Alpha virt. eigenvalues --    0.58603   0.61125   0.63212   0.64104   0.65541
 Alpha virt. eigenvalues --    0.67351   0.67844   0.68230   0.70864   0.72749
 Alpha virt. eigenvalues --    0.73164   0.75032   0.75274   0.76210   0.77842
 Alpha virt. eigenvalues --    0.80498   0.81658   0.82334   0.83931   0.85316
 Alpha virt. eigenvalues --    0.87767   0.87966   0.89941   0.90555   0.90931
 Alpha virt. eigenvalues --    0.92186   0.93750   0.94756   0.96244   0.98133
 Alpha virt. eigenvalues --    0.98899   0.99365   1.00338   1.02049   1.02539
 Alpha virt. eigenvalues --    1.03712   1.06680   1.08507   1.09102   1.10923
 Alpha virt. eigenvalues --    1.12184   1.14190   1.14365   1.16375   1.17319
 Alpha virt. eigenvalues --    1.17504   1.21975   1.23620   1.25260   1.25961
 Alpha virt. eigenvalues --    1.27642   1.29933   1.31849   1.32907   1.34732
 Alpha virt. eigenvalues --    1.36354   1.37327   1.39367   1.40860   1.43148
 Alpha virt. eigenvalues --    1.44320   1.45187   1.47912   1.51594   1.54056
 Alpha virt. eigenvalues --    1.55242   1.56781   1.61904   1.64586   1.74690
 Alpha virt. eigenvalues --    1.78072   1.81422   1.85425   1.87823   1.90142
 Alpha virt. eigenvalues --    1.91161   1.93419   1.95307   1.96275   1.98056
 Alpha virt. eigenvalues --    1.98789   2.00409   2.01974   2.02785   2.04974
 Alpha virt. eigenvalues --    2.06278   2.07380   2.07922   2.09038   2.10868
 Alpha virt. eigenvalues --    2.11957   2.13826   2.14959   2.16343   2.16911
 Alpha virt. eigenvalues --    2.17381   2.18311   2.20739   2.21732   2.22294
 Alpha virt. eigenvalues --    2.23517   2.25511   2.26357   2.27645   2.30228
 Alpha virt. eigenvalues --    2.30647   2.33157   2.34695   2.36369   2.37250
 Alpha virt. eigenvalues --    2.38361   2.39598   2.41437   2.43426   2.45102
 Alpha virt. eigenvalues --    2.46347   2.48573   2.49942   2.51236   2.53352
 Alpha virt. eigenvalues --    2.54483   2.55598   2.57608   2.59535   2.61247
 Alpha virt. eigenvalues --    2.61559   2.64073   2.66610   2.67431   2.69537
 Alpha virt. eigenvalues --    2.70352   2.71025   2.71880   2.72268   2.74460
 Alpha virt. eigenvalues --    2.75713   2.76942   2.79442   2.80082   2.82728
 Alpha virt. eigenvalues --    2.85435   2.85744   2.86726   2.89235   2.89968
 Alpha virt. eigenvalues --    2.91160   2.91696   2.93549   2.93806   2.95310
 Alpha virt. eigenvalues --    2.98343   3.01288   3.02507   3.05665   3.07500
 Alpha virt. eigenvalues --    3.07685   3.09485   3.11827   3.13297   3.14091
 Alpha virt. eigenvalues --    3.16927   3.19312   3.20875   3.21820   3.22514
 Alpha virt. eigenvalues --    3.25513   3.26099   3.29224   3.30532   3.31419
 Alpha virt. eigenvalues --    3.32691   3.35892   3.37336   3.39873   3.40842
 Alpha virt. eigenvalues --    3.42428   3.44182   3.46339   3.48339   3.50208
 Alpha virt. eigenvalues --    3.55759   3.56081   3.58801   3.59300   3.63218
 Alpha virt. eigenvalues --    3.66712   3.67777   3.72703   3.74368   3.76427
 Alpha virt. eigenvalues --    3.80048   3.80067   3.82527   3.84769   3.88693
 Alpha virt. eigenvalues --    3.93028   3.93263   3.95310   3.97855   3.98436
 Alpha virt. eigenvalues --    4.03139   4.05322   4.10995   4.14554   4.16967
 Alpha virt. eigenvalues --    4.22074   4.27989   4.32891   4.37963   4.45269
 Alpha virt. eigenvalues --    4.48407   4.54361   4.57897   4.89759   4.98276
 Alpha virt. eigenvalues --    5.03472   5.09203   5.11305   5.21735   5.23213
 Alpha virt. eigenvalues --    5.27585   5.33328   5.39309   5.43140   5.47789
 Alpha virt. eigenvalues --    5.49353   5.53763   5.54066   5.55984   5.61955
 Alpha virt. eigenvalues --    5.63266   5.67370   5.68489   5.70103   5.71402
 Alpha virt. eigenvalues --    5.73176   5.75585   5.77777   5.81680   5.82802
 Alpha virt. eigenvalues --    5.84785   5.85616   5.88933   5.89971   5.90177
 Alpha virt. eigenvalues --    5.91793   5.92563   5.93550   5.96089   5.97298
 Alpha virt. eigenvalues --    5.98363   5.99289   6.00556   6.01523   6.02466
 Alpha virt. eigenvalues --    6.04567   6.06280   6.07927   6.08420   6.10944
 Alpha virt. eigenvalues --    6.14143   6.15468   6.16613   6.17182   6.19402
 Alpha virt. eigenvalues --    6.21333   6.23146   6.23634   6.26459   6.26986
 Alpha virt. eigenvalues --    6.27593   6.30663   6.32673   6.33633   6.36079
 Alpha virt. eigenvalues --    6.37287   6.38307   6.40348   6.42732   6.43611
 Alpha virt. eigenvalues --    6.44973   6.49294   6.49556   6.52279   6.52404
 Alpha virt. eigenvalues --    6.55931   6.58285   6.59124   6.61665   6.64626
 Alpha virt. eigenvalues --    6.65736   6.66805   6.69574   6.70964   6.73528
 Alpha virt. eigenvalues --    6.75730   6.78764   6.80602   6.82874   6.84419
 Alpha virt. eigenvalues --    6.86583   6.88175   6.90383   6.92697   6.92988
 Alpha virt. eigenvalues --    6.99276   7.00466   7.03072   7.05505   7.08021
 Alpha virt. eigenvalues --    7.08417   7.09549   7.12199   7.14063   7.17627
 Alpha virt. eigenvalues --    7.19546   7.21524   7.23588   7.24969   7.26150
 Alpha virt. eigenvalues --    7.32078   7.32837   7.34269   7.39398   7.39920
 Alpha virt. eigenvalues --    7.41881   7.42551   7.43627   7.49151   7.51228
 Alpha virt. eigenvalues --    7.54060   7.56007   7.57003   7.59368   7.61385
 Alpha virt. eigenvalues --    7.63181   7.65450   7.66744   7.67412   7.69054
 Alpha virt. eigenvalues --    7.71733   7.72206   7.72971   7.75169   7.76730
 Alpha virt. eigenvalues --    7.78470   7.79865   7.80589   7.82373   7.85279
 Alpha virt. eigenvalues --    7.85976   7.88173   7.91199   7.92588   7.94273
 Alpha virt. eigenvalues --    7.95566   7.97086   7.98130   8.01133   8.04857
 Alpha virt. eigenvalues --    8.05772   8.07084   8.10095   8.12862   8.13710
 Alpha virt. eigenvalues --    8.15573   8.17153   8.20967   8.21402   8.22735
 Alpha virt. eigenvalues --    8.27057   8.28777   8.28839   8.30594   8.34154
 Alpha virt. eigenvalues --    8.37154   8.39209   8.41404   8.43208   8.44252
 Alpha virt. eigenvalues --    8.45478   8.47623   8.49822   8.50521   8.53502
 Alpha virt. eigenvalues --    8.54691   8.55878   8.58191   8.58452   8.61415
 Alpha virt. eigenvalues --    8.65333   8.67065   8.67937   8.70841   8.74040
 Alpha virt. eigenvalues --    8.74761   8.77907   8.80156   8.82006   8.83730
 Alpha virt. eigenvalues --    8.86412   8.88279   8.89848   8.91365   8.93201
 Alpha virt. eigenvalues --    8.95752   8.96434   8.97479   8.99485   9.00195
 Alpha virt. eigenvalues --    9.05577   9.08173   9.09081   9.11782   9.12867
 Alpha virt. eigenvalues --    9.13723   9.20009   9.22214   9.24994   9.25761
 Alpha virt. eigenvalues --    9.29219   9.33163   9.36191   9.38793   9.41866
 Alpha virt. eigenvalues --    9.42635   9.46940   9.48857   9.50783   9.52772
 Alpha virt. eigenvalues --    9.53733   9.57572   9.61201   9.64284   9.69380
 Alpha virt. eigenvalues --    9.71632   9.73424   9.78138   9.79675   9.82647
 Alpha virt. eigenvalues --    9.86788   9.88382   9.93438   9.99028  10.08804
 Alpha virt. eigenvalues --   10.22700  10.41575  10.50032  10.57947  10.68595
 Alpha virt. eigenvalues --   10.77084  10.84294  10.90155  11.10624  11.20945
 Alpha virt. eigenvalues --   11.50502  11.58697  11.84482  11.87328  12.06347
 Alpha virt. eigenvalues --   12.45904  12.49406  12.79767  28.85714  29.15762
 Alpha virt. eigenvalues --   29.21649  29.43781 148.47451 148.79934 148.85158
 Alpha virt. eigenvalues --  149.07944
          Condensed to atoms (all electrons):
               1          2          3          4          5          6
     1  C    4.848409   0.357956   0.390548   0.397827   0.375712  -0.053238
     2  C    0.357956   4.824467  -0.037494  -0.036761  -0.071303   0.344611
     3  H    0.390548  -0.037494   0.655184  -0.025804  -0.022385   0.008582
     4  H    0.397827  -0.036761  -0.025804   0.656258  -0.037183  -0.008519
     5  H    0.375712  -0.071303  -0.022385  -0.037183   0.717684  -0.004261
     6  C   -0.053238   0.344611   0.008582  -0.008519  -0.004261   4.835557
     7  H   -0.082882   0.391197  -0.006667  -0.009258   0.018686  -0.058667
     8  H   -0.048619   0.393549  -0.003790   0.008429  -0.008244  -0.055132
     9  C    0.009404  -0.056728  -0.000696   0.000650  -0.000771   0.407129
    10  H   -0.002676  -0.044957  -0.000430  -0.000271   0.005644   0.389333
    11  H   -0.030675  -0.073410   0.001504   0.008225   0.000997   0.371011
    12  H   -0.000298  -0.000798   0.000032  -0.000037   0.000057  -0.025230
    13  H   -0.000630   0.006936   0.000020  -0.000014   0.000092  -0.040008
    14  H   -0.000122  -0.003832  -0.000020   0.000145  -0.000044  -0.042931
               7          8          9         10         11         12
     1  C   -0.082882  -0.048619   0.009404  -0.002676  -0.030675  -0.000298
     2  C    0.391197   0.393549  -0.056728  -0.044957  -0.073410  -0.000798
     3  H   -0.006667  -0.003790  -0.000696  -0.000430   0.001504   0.000032
     4  H   -0.009258   0.008429   0.000650  -0.000271   0.008225  -0.000037
     5  H    0.018686  -0.008244  -0.000771   0.005644   0.000997   0.000057
     6  C   -0.058667  -0.055132   0.407129   0.389333   0.371011  -0.025230
     7  H    0.756689  -0.027092  -0.026883   0.013172  -0.004487   0.000770
     8  H   -0.027092   0.716971   0.001599  -0.010230   0.016679   0.002284
     9  C   -0.026883   0.001599   4.724801  -0.041342  -0.036303   0.382457
    10  H    0.013172  -0.010230  -0.041342   0.646773  -0.037850  -0.001920
    11  H   -0.004487   0.016679  -0.036303  -0.037850   0.793233   0.007233
    12  H    0.000770   0.002284   0.382457  -0.001920   0.007233   0.680798
    13  H    0.001742  -0.000464   0.395099   0.001023  -0.006845  -0.038562
    14  H    0.003255  -0.000044   0.398451   0.005345  -0.003258  -0.032183
              13         14
     1  C   -0.000630  -0.000122
     2  C    0.006936  -0.003832
     3  H    0.000020  -0.000020
     4  H   -0.000014   0.000145
     5  H    0.000092  -0.000044
     6  C   -0.040008  -0.042931
     7  H    0.001742   0.003255
     8  H   -0.000464  -0.000044
     9  C    0.395099   0.398451
    10  H    0.001023   0.005345
    11  H   -0.006845  -0.003258
    12  H   -0.038562  -0.032183
    13  H    0.666150  -0.025494
    14  H   -0.025494   0.617747
 Mulliken charges:
               1
     1  C   -0.160715
     2  C    0.006567
     3  H    0.041418
     4  H    0.046312
     5  H    0.025320
     6  C   -0.068239
     7  H    0.030426
     8  H    0.014104
     9  C   -0.156866
    10  H    0.078387
    11  H   -0.006054
    12  H    0.025398
    13  H    0.040955
    14  H    0.082986
 Sum of Mulliken charges =   0.00000
 Mulliken charges with hydrogens summed into heavy atoms:
               1
     1  C   -0.047665
     2  C    0.051097
     6  C    0.004094
     9  C   -0.007526
 Electronic spatial extent (au):  <R**2>=            430.5275
 Charge=              0.0000 electrons
 Dipole moment (field-independent basis, Debye):
    X=              0.2084    Y=              0.1126    Z=             -0.0017  Tot=              0.2369
 Quadrupole moment (field-independent basis, Debye-Ang):
   XX=            -30.8172   YY=            -30.2105   ZZ=            -29.0070
   XY=              0.1955   XZ=              0.2322   YZ=              0.3896
 Traceless Quadrupole moment (field-independent basis, Debye-Ang):
   XX=             -0.8056   YY=             -0.1989   ZZ=              1.0046
   XY=              0.1955   XZ=              0.2322   YZ=              0.3896
 Octapole moment (field-independent basis, Debye-Ang**2):
  XXX=              6.0133  YYY=              0.6649  ZZZ=              0.7810  XYY=              0.2446
  XXY=             -1.5452  XXZ=             -0.0636  XZZ=              0.6815  YZZ=              0.4429
  YYZ=              0.1176  XYZ=              0.6709
 Hexadecapole moment (field-independent basis, Debye-Ang**3):
 XXXX=           -477.8301 YYYY=           -101.0412 ZZZZ=            -73.2703 XXXY=              7.6511
 XXXZ=              3.1149 YYYX=              0.6658 YYYZ=              1.6446 ZZZX=             -1.1543
 ZZZY=              2.2076 XXYY=            -90.9107 XXZZ=            -93.7717 YYZZ=            -26.0930
 XXYZ=             -0.2903 YYXZ=              0.9292 ZZXY=             -1.9792
 N-N= 1.291115067600D+02 E-N=-6.231311710286D+02  KE= 1.567352158399D+02
 Leave Link  601 at Wed Aug 26 11:55:36 2020, MaxMem=  2097152000 cpu:         1.1
 (Enter /opt/cluster/programs/g09/g09_d.01/g09/l9999.exe)
 1\1\GINC-NODE31\SP\RB2PLYPD3-FC\def2QZVP\C4H10\BOITTIER\26-Aug-2020\0\
 \#p B2PLYPD3/Def2QZVP\\butane_opt\\0,1\C,0,-3.872756,0.203379,-0.18280
 1\C,0,-2.687459,-0.527049,0.217386\H,0,-5.032876,-0.52719,-0.226649\H,
 0,-3.744359,0.941208,-1.142259\H,0,-3.9927,1.013311,0.698951\C,0,-1.47
 3574,0.170901,0.289649\H,0,-2.615659,-1.236187,-0.697646\H,0,-2.921754
 ,-1.191779,1.283979\C,0,-0.163606,-0.716853,-0.160542\H,0,-1.359465,0.
 781263,1.075328\H,0,-1.694138,0.936194,-0.744123\H,0,0.386513,-1.52603
 9,0.6122\H,0,0.757474,0.001169,-0.357698\H,0,-0.423999,-1.242341,-0.98
 2334\\Version=ES64L-G09RevD.01\State=1-A\HF=-157.9788809\MP2=-158.2322
 499\RMSD=4.237e-09\PG=C01 [X(C4H10)]\\@


 IN THE LONG RUN, DIGGING FOR TRUTH HAS ALWAYS PROVED NOT ONLY 
 MORE INTERESTING BUT MORE PROFITABLE THAN DIGGING FOR GOLD.

                             -- GEORGE R. HARRISON
 Job cpu time:       0 days  1 hours 21 minutes 15.3 seconds.
 File lengths (MBytes):  RWF=    152 Int=      0 D2E=      0 Chk=     14 Scr=      1
 Normal termination of Gaussian 09 at Wed Aug 26 11:55:36 2020.
