 Entering Gaussian System, Link 0=/opt/cluster/programs/g09/g09_d.01/g09//g09
 Input=/home/boittier/MDCM/nms_sampling/butane_geom.xyz.dir/energies/butane_opt_2394_energy.com
 Output=/scratch/boittier/butane_opt_2394_energy/butane_opt_2394_energy.out
 Initial command:
 /opt/cluster/programs/g09/g09_d.01/g09/l1.exe "/scratch/boittier/butane_opt_2394_energy/Gau-78676.inp" -scrdir="/scratch/boittier/butane_opt_2394_energy/"
 Entering Link 1 = /opt/cluster/programs/g09/g09_d.01/g09/l1.exe PID=     78677.
  
 Copyright (c) 1988,1990,1992,1993,1995,1998,2003,2009,2013,
            Gaussian, Inc.  All Rights Reserved.
  
 This is part of the Gaussian(R) 09 program.  It is based on
 the Gaussian(R) 03 system (copyright 2003, Gaussian, Inc.),
 the Gaussian(R) 98 system (copyright 1998, Gaussian, Inc.),
 the Gaussian(R) 94 system (copyright 1995, Gaussian, Inc.),
 the Gaussian 92(TM) system (copyright 1992, Gaussian, Inc.),
 the Gaussian 90(TM) system (copyright 1990, Gaussian, Inc.),
 the Gaussian 88(TM) system (copyright 1988, Gaussian, Inc.),
 the Gaussian 86(TM) system (copyright 1986, Carnegie Mellon
 University), and the Gaussian 82(TM) system (copyright 1983,
 Carnegie Mellon University). Gaussian is a federally registered
 trademark of Gaussian, Inc.
  
 This software contains proprietary and confidential information,
 including trade secrets, belonging to Gaussian, Inc.
  
 This software is provided under written license and may be
 used, copied, transmitted, or stored only in accord with that
 written license.
  
 The following legend is applicable only to US Government
 contracts under FAR:
  
                    RESTRICTED RIGHTS LEGEND
  
 Use, reproduction and disclosure by the US Government is
 subject to restrictions as set forth in subparagraphs (a)
 and (c) of the Commercial Computer Software - Restricted
 Rights clause in FAR 52.227-19.
  
 Gaussian, Inc.
 340 Quinnipiac St., Bldg. 40, Wallingford CT 06492
  
  
 ---------------------------------------------------------------
 Warning -- This program may not be used in any manner that
 competes with the business of Gaussian, Inc. or will provide
 assistance to any competitor of Gaussian, Inc.  The licensee
 of this program is prohibited from giving any competitor of
 Gaussian, Inc. access to this program.  By using this program,
 the user acknowledges that Gaussian, Inc. is engaged in the
 business of creating and licensing software in the field of
 computational chemistry and represents and warrants to the
 licensee that it is not a competitor of Gaussian, Inc. and that
 it will not use this program in any manner prohibited above.
 ---------------------------------------------------------------
  

 Cite this work as:
 Gaussian 09, Revision D.01,
 M. J. Frisch, G. W. Trucks, H. B. Schlegel, G. E. Scuseria, 
 M. A. Robb, J. R. Cheeseman, G. Scalmani, V. Barone, B. Mennucci, 
 G. A. Petersson, H. Nakatsuji, M. Caricato, X. Li, H. P. Hratchian, 
 A. F. Izmaylov, J. Bloino, G. Zheng, J. L. Sonnenberg, M. Hada, 
 M. Ehara, K. Toyota, R. Fukuda, J. Hasegawa, M. Ishida, T. Nakajima, 
 Y. Honda, O. Kitao, H. Nakai, T. Vreven, J. A. Montgomery, Jr., 
 J. E. Peralta, F. Ogliaro, M. Bearpark, J. J. Heyd, E. Brothers, 
 K. N. Kudin, V. N. Staroverov, T. Keith, R. Kobayashi, J. Normand, 
 K. Raghavachari, A. Rendell, J. C. Burant, S. S. Iyengar, J. Tomasi, 
 M. Cossi, N. Rega, J. M. Millam, M. Klene, J. E. Knox, J. B. Cross, 
 V. Bakken, C. Adamo, J. Jaramillo, R. Gomperts, R. E. Stratmann, 
 O. Yazyev, A. J. Austin, R. Cammi, C. Pomelli, J. W. Ochterski, 
 R. L. Martin, K. Morokuma, V. G. Zakrzewski, G. A. Voth, 
 P. Salvador, J. J. Dannenberg, S. Dapprich, A. D. Daniels, 
 O. Farkas, J. B. Foresman, J. V. Ortiz, J. Cioslowski, 
 and D. J. Fox, Gaussian, Inc., Wallingford CT, 2013.
 
 ******************************************
 Gaussian 09:  ES64L-G09RevD.01 24-Apr-2013
                26-Aug-2020 
 ******************************************
 %chk=/home/boittier/MDCM/nms_sampling/butane_geom.xyz.dir/butane_opt_2394.chk
 %nproc=8
 Will use up to    8 processors via shared memory.
 %mem=16000MB
 --------------------
 #p B2PLYPD3/Def2QZVP
 --------------------
 1/38=1/1;
 2/12=2,17=6,18=5,40=1/2;
 3/5=45,7=101,11=9,16=1,25=1,30=1,74=-60/1,2,3;
 4//1;
 5/5=2,38=5/2;
 8/10=1/1;
 9/16=-3/6;
 6/7=2,8=2,9=2,10=2/1;
 99/5=1,9=1/99;
 Leave Link    1 at Wed Aug 26 16:14:58 2020, MaxMem=  2097152000 cpu:         0.2
 (Enter /opt/cluster/programs/g09/g09_d.01/g09/l101.exe)
 ----------
 butane_opt
 ----------
 Symbolic Z-matrix:
 Charge =  0 Multiplicity = 1
 C                    -4.05442   0.34901  -0.1241 
 C                    -2.72567  -0.69574   0.23506 
 H                    -4.93223  -0.14539  -0.35211 
 H                    -3.71594   0.45884  -0.52086 
 H                    -4.33483   1.31967   0.81645 
 C                    -1.36364   0.13994   0.05655 
 H                    -2.59875  -1.27315  -0.51867 
 H                    -2.61787  -1.41043   1.0256 
 C                    -0.10108  -0.64349  -0.05807 
 H                    -0.89535   0.63177   0.79619 
 H                    -1.29054   0.78003  -0.82654 
 H                    -0.28784  -1.11207   0.74242 
 H                     0.80243  -0.0709    0.12443 
 H                    -0.23755  -1.46881  -1.10537 
 
 NAtoms=     14 NQM=       14 NQMF=       0 NMMI=      0 NMMIF=      0
                NMic=       0 NMicF=      0.
                    Isotopes and Nuclear Properties:
 (Nuclear quadrupole moments (NQMom) in fm**2, nuclear magnetic moments (NMagM)
  in nuclear magnetons)

  Atom         1           2           3           4           5           6           7           8           9          10
 IAtWgt=          12          12           1           1           1          12           1           1          12           1
 AtmWgt=  12.0000000  12.0000000   1.0078250   1.0078250   1.0078250  12.0000000   1.0078250   1.0078250  12.0000000   1.0078250
 NucSpn=           0           0           1           1           1           0           1           1           0           1
 AtZEff=   0.0000000   0.0000000   0.0000000   0.0000000   0.0000000   0.0000000   0.0000000   0.0000000   0.0000000   0.0000000
 NQMom=    0.0000000   0.0000000   0.0000000   0.0000000   0.0000000   0.0000000   0.0000000   0.0000000   0.0000000   0.0000000
 NMagM=    0.0000000   0.0000000   2.7928460   2.7928460   2.7928460   0.0000000   2.7928460   2.7928460   0.0000000   2.7928460
 AtZNuc=   6.0000000   6.0000000   1.0000000   1.0000000   1.0000000   6.0000000   1.0000000   1.0000000   6.0000000   1.0000000

  Atom        11          12          13          14
 IAtWgt=           1           1           1           1
 AtmWgt=   1.0078250   1.0078250   1.0078250   1.0078250
 NucSpn=           1           1           1           1
 AtZEff=   0.0000000   0.0000000   0.0000000   0.0000000
 NQMom=    0.0000000   0.0000000   0.0000000   0.0000000
 NMagM=    2.7928460   2.7928460   2.7928460   2.7928460
 AtZNuc=   1.0000000   1.0000000   1.0000000   1.0000000
 Leave Link  101 at Wed Aug 26 16:14:58 2020, MaxMem=  2097152000 cpu:         0.5
 (Enter /opt/cluster/programs/g09/g09_d.01/g09/l202.exe)
                          Input orientation:                          
 ---------------------------------------------------------------------
 Center     Atomic      Atomic             Coordinates (Angstroms)
 Number     Number       Type             X           Y           Z
 ---------------------------------------------------------------------
      1          6           0       -4.054422    0.349011   -0.124095
      2          6           0       -2.725669   -0.695743    0.235060
      3          1           0       -4.932225   -0.145394   -0.352107
      4          1           0       -3.715942    0.458844   -0.520861
      5          1           0       -4.334835    1.319673    0.816445
      6          6           0       -1.363640    0.139936    0.056552
      7          1           0       -2.598749   -1.273151   -0.518674
      8          1           0       -2.617871   -1.410431    1.025602
      9          6           0       -0.101081   -0.643485   -0.058070
     10          1           0       -0.895348    0.631765    0.796188
     11          1           0       -1.290542    0.780032   -0.826535
     12          1           0       -0.287840   -1.112074    0.742424
     13          1           0        0.802425   -0.070898    0.124428
     14          1           0       -0.237552   -1.468810   -1.105375
 ---------------------------------------------------------------------
                    Distance matrix (angstroms):
                    1          2          3          4          5
     1  C    0.000000
     2  C    1.728030   0.000000
     3  H    1.032939   2.348731   0.000000
     4  H    0.532968   1.698567   1.368549   0.000000
     5  H    1.380374   2.643733   1.966929   1.706588   0.000000
     6  C    2.704931   1.607902   3.603223   2.443038   3.285912
     7  H    2.214969   0.957927   2.597054   2.061051   3.394006
     8  H    2.545804   1.071147   2.975674   2.662986   3.231900
     9  C    4.076556   2.641424   4.865645   3.807430   4.747993
    10  H    3.302517   2.329639   4.268364   3.117735   3.507663
    11  H    2.884135   2.316136   3.787262   2.465596   3.501188
    12  H    4.131920   2.524631   4.868550   3.976878   4.721974
    13  H    4.881296   3.584706   5.754898   4.594852   5.366937
    14  H    4.340032   2.930038   4.935463   4.019540   5.315709
                    6          7          8          9         10
     6  C    0.000000
     7  H    1.962955   0.000000
     8  H    2.217158   1.550484   0.000000
     9  C    1.490282   2.616674   2.845485   0.000000
    10  H    1.004119   2.873872   2.681470   1.728259   0.000000
    11  H    1.093119   2.453924   3.160750   2.007923   1.676720
    12  H    1.787539   2.637539   2.366062   0.946174   1.847412
    13  H    2.177360   3.664284   3.782180   1.085120   1.956382
    14  H    2.281713   2.440851   3.195370   1.340386   2.908789
                   11         12         13         14
    11  H    0.000000
    12  H    2.654639   0.000000
    13  H    2.451311   1.629308   0.000000
    14  H    2.498766   1.882591   2.132633   0.000000
 Stoichiometry    C4H10
 Framework group  C1[X(C4H10)]
 Deg. of freedom    36
 Full point group                 C1      NOp   1
 Largest Abelian subgroup         C1      NOp   1
 Largest concise Abelian subgroup C1      NOp   1
                         Standard orientation:                         
 ---------------------------------------------------------------------
 Center     Atomic      Atomic             Coordinates (Angstroms)
 Number     Number       Type             X           Y           Z
 ---------------------------------------------------------------------
      1          6           0       -2.077196   -0.193105    0.152032
      2          6           0       -0.581350    0.596708   -0.201137
      3          1           0       -2.849607    0.449926    0.390477
      4          1           0       -1.763291   -0.367843    0.545715
      5          1           0       -2.532352   -1.084281   -0.798794
      6          6           0        0.606136   -0.475281   -0.039696
      7          1           0       -0.349277    1.131598    0.558901
      8          1           0       -0.347348    1.289920   -0.983477
      9          6           0        1.990600    0.063552    0.078033
     10          1           0        0.974942   -1.034616   -0.787614
     11          1           0        0.563847   -1.129292    0.835170
     12          1           0        1.890114    0.568577   -0.715754
     13          1           0        2.774166   -0.661614   -0.115982
     14          1           0        2.009668    0.886386    1.135962
 ---------------------------------------------------------------------
 Rotational constants (GHZ):     22.6726278      3.3949192      3.1890331
 Leave Link  202 at Wed Aug 26 16:14:58 2020, MaxMem=  2097152000 cpu:         0.0
 (Enter /opt/cluster/programs/g09/g09_d.01/g09/l301.exe)
 Standard basis: def2QZVP (5D, 7F)
 Ernie: Thresh=  0.10000D-02 Tol=  0.10000D-05 Strict=F.
 There are   638 symmetry adapted cartesian basis functions of A   symmetry.
 There are   528 symmetry adapted basis functions of A   symmetry.
   528 basis functions,   748 primitive gaussians,   638 cartesian basis functions
    17 alpha electrons       17 beta electrons
       nuclear repulsion energy       131.7149709271 Hartrees.
 IExCor=  419 DFT=T Ex+Corr=B2PLYPD3 ExCW=0 ScaHFX=  0.530000
 ScaDFX=  0.470000  0.470000  0.730000  0.730000 ScalE2=  0.270000  0.270000
 IRadAn=      0 IRanWt=     -1 IRanGd=            0 ICorTp=0 IEmpDi=141
 NAtoms=   14 NActive=   14 NUniq=   14 SFac= 1.00D+00 NAtFMM=   60 NAOKFM=F Big=F
 Integral buffers will be    131072 words long.
 Regular integral format.
 Two-electron integral symmetry is turned on.
 R6Disp:  Grimme-D3(BJ) Dispersion energy=       -0.0064889600 Hartrees.
 Nuclear repulsion after empirical dispersion term =      131.7084819671 Hartrees.
 Leave Link  301 at Wed Aug 26 16:14:58 2020, MaxMem=  2097152000 cpu:         0.4
 (Enter /opt/cluster/programs/g09/g09_d.01/g09/l302.exe)
 NPDir=0 NMtPBC=     1 NCelOv=     1 NCel=       1 NClECP=     1 NCelD=      1
         NCelK=      1 NCelE2=     1 NClLst=     1 CellRange=     0.0.
 One-electron integrals computed using PRISM.
   1 Symmetry operations used in ECPInt.
 ECPInt:  NShTT=   14196 NPrTT=   30597 LenC2=   13836 LenP2D=   25871.
 LDataN:  DoStor=T MaxTD1= 8 Len=  415
 NBasis=   528 RedAO= T EigKep=  1.91D-05  NBF=   528
 NBsUse=   528 1.00D-06 EigRej= -1.00D+00 NBFU=   528
 Precomputing XC quadrature grid using
 IXCGrd= 4 IRadAn=           0 IRanWt=          -1 IRanGd=           0 AccXCQ= 0.00D+00.
 Generated NRdTot=       0 NPtTot=           0 NUsed=           0 NTot=          32
 NSgBfM=   638   638   638   638   638 MxSgAt=    14 MxSgA2=    14.
 Leave Link  302 at Wed Aug 26 16:14:59 2020, MaxMem=  2097152000 cpu:         4.5
 (Enter /opt/cluster/programs/g09/g09_d.01/g09/l303.exe)
 DipDrv:  MaxL=1.
 Leave Link  303 at Wed Aug 26 16:14:59 2020, MaxMem=  2097152000 cpu:         0.5
 (Enter /opt/cluster/programs/g09/g09_d.01/g09/l401.exe)
 ExpMin= 7.60D-02 ExpMax= 6.70D+04 ExpMxC= 6.47D+02 IAcc=2 IRadAn=         4 AccDes= 0.00D+00
 Harris functional with IExCor=  419 and IRadAn=       4 diagonalized for initial guess.
 HarFok:  IExCor=  419 AccDes= 0.00D+00 IRadAn=         4 IDoV= 1 UseB2=F ITyADJ=14
 ICtDFT=  3500011 ScaDFX=  1.000000  1.000000  1.000000  1.000000
 FoFCou: FMM=F IPFlag=           0 FMFlag=      100000 FMFlg1=           0
         NFxFlg=           0 DoJE=T BraDBF=F KetDBF=T FulRan=T
         wScrn=  0.000000 ICntrl=     500 IOpCl=  0 I1Cent=   200000004 NGrid=           0
         NMat0=    1 NMatS0=      1 NMatT0=    0 NMatD0=    1 NMtDS0=    0 NMtDT0=    0
 Petite list used in FoFCou.
 Harris En= -157.893457391956    
 JPrj=0 DoOrth=F DoCkMO=F.
 Leave Link  401 at Wed Aug 26 16:15:01 2020, MaxMem=  2097152000 cpu:        14.6
 (Enter /opt/cluster/programs/g09/g09_d.01/g09/l502.exe)
 Closed shell SCF:
 Using DIIS extrapolation, IDIIS=  1040.
 Integral symmetry usage will be decided dynamically.
 IVT=     1249338 IEndB=     1249338 NGot=  2097152000 MDV=  2096326985
 LenX=  2096326985 LenY=  2095919303
 Requested convergence on RMS density matrix=1.00D-08 within 128 cycles.
 Requested convergence on MAX density matrix=1.00D-06.
 Requested convergence on             energy=1.00D-06.
 No special actions if energy rises.
 Fock matrices will be formed incrementally for  20 cycles.
 Integral accuracy reduced to 1.0D-05 until final iterations.

 Cycle   1  Pass 0  IDiag  1:
 FoFJK:  IHMeth= 1 ICntrl=       0 DoSepK=F KAlg= 0 I1Cent=   0 FoldK=F
 IRaf= 930000000 NMat=   1 IRICut=       1 DoRegI=T DoRafI=F ISym2E= 0.
 FoFCou: FMM=F IPFlag=           0 FMFlag=      100000 FMFlg1=           0
         NFxFlg=           0 DoJE=F BraDBF=F KetDBF=F FulRan=T
         wScrn=  0.000000 ICntrl=       0 IOpCl=  0 I1Cent=           0 NGrid=           0
         NMat0=    1 NMatS0=      1 NMatT0=    0 NMatD0=    1 NMtDS0=    0 NMtDT0=    0
 Symmetry not used in FoFCou.
 E= -156.726885547218    
 DIIS: error= 3.35D-02 at cycle   1 NSaved=   1.
 NSaved= 1 IEnMin= 1 EnMin= -156.726885547218     IErMin= 1 ErrMin= 3.35D-02
 ErrMax= 3.35D-02  0.00D+00 EMaxC= 1.00D-01 BMatC= 6.08D-01 BMatP= 6.08D-01
 IDIUse=3 WtCom= 6.65D-01 WtEn= 3.35D-01
 Coeff-Com:  0.100D+01
 Coeff-En:   0.100D+01
 Coeff:      0.100D+01
 Gap=     0.621 Goal=   None    Shift=    0.000
 GapD=    0.621 DampG=2.000 DampE=0.500 DampFc=1.0000 IDamp=-1.
 RMSDP=1.40D-03 MaxDP=8.97D-02              OVMax= 3.43D-01

 Cycle   2  Pass 0  IDiag  1:
 RMSU=  1.32D-03    CP:  8.57D-01
 E= -156.876873737805     Delta-E=       -0.149988190587 Rises=F Damp=F
 DIIS: error= 2.92D-02 at cycle   2 NSaved=   2.
 NSaved= 2 IEnMin= 2 EnMin= -156.876873737805     IErMin= 2 ErrMin= 2.92D-02
 ErrMax= 2.92D-02  0.00D+00 EMaxC= 1.00D-01 BMatC= 3.15D-01 BMatP= 6.08D-01
 IDIUse=3 WtCom= 7.08D-01 WtEn= 2.92D-01
 Coeff-Com:  0.410D+00 0.590D+00
 Coeff-En:   0.394D+00 0.606D+00
 Coeff:      0.406D+00 0.594D+00
 Gap=     0.443 Goal=   None    Shift=    0.000
 RMSDP=9.04D-04 MaxDP=5.96D-02 DE=-1.50D-01 OVMax= 1.64D-01

 Cycle   3  Pass 0  IDiag  1:
 RMSU=  3.92D-04    CP:  9.03D-01  3.93D-01
 E= -157.206229836346     Delta-E=       -0.329356098541 Rises=F Damp=F
 DIIS: error= 3.45D-03 at cycle   3 NSaved=   3.
 NSaved= 3 IEnMin= 3 EnMin= -157.206229836346     IErMin= 3 ErrMin= 3.45D-03
 ErrMax= 3.45D-03  0.00D+00 EMaxC= 1.00D-01 BMatC= 5.14D-03 BMatP= 3.15D-01
 IDIUse=3 WtCom= 9.65D-01 WtEn= 3.45D-02
 Coeff-Com: -0.681D-02 0.962D-01 0.911D+00
 Coeff-En:   0.000D+00 0.000D+00 0.100D+01
 Coeff:     -0.658D-02 0.928D-01 0.914D+00
 Gap=     0.406 Goal=   None    Shift=    0.000
 RMSDP=8.68D-05 MaxDP=5.47D-03 DE=-3.29D-01 OVMax= 2.37D-02

 Cycle   4  Pass 0  IDiag  1:
 RMSU=  7.01D-05    CP:  8.96D-01  4.24D-01  1.05D+00
 E= -157.211522339727     Delta-E=       -0.005292503381 Rises=F Damp=F
 DIIS: error= 5.56D-04 at cycle   4 NSaved=   4.
 NSaved= 4 IEnMin= 4 EnMin= -157.211522339727     IErMin= 4 ErrMin= 5.56D-04
 ErrMax= 5.56D-04  0.00D+00 EMaxC= 1.00D-01 BMatC= 2.27D-04 BMatP= 5.14D-03
 IDIUse=3 WtCom= 9.94D-01 WtEn= 5.56D-03
 Coeff-Com: -0.933D-02 0.944D-02 0.245D+00 0.755D+00
 Coeff-En:   0.000D+00 0.000D+00 0.000D+00 0.100D+01
 Coeff:     -0.928D-02 0.939D-02 0.243D+00 0.757D+00
 Gap=     0.403 Goal=   None    Shift=    0.000
 RMSDP=2.30D-05 MaxDP=1.13D-03 DE=-5.29D-03 OVMax= 4.08D-03

 Cycle   5  Pass 0  IDiag  1:
 RMSU=  1.78D-05    CP:  8.96D-01  4.19D-01  1.08D+00  9.28D-01
 E= -157.211718344766     Delta-E=       -0.000196005039 Rises=F Damp=F
 DIIS: error= 2.09D-04 at cycle   5 NSaved=   5.
 NSaved= 5 IEnMin= 5 EnMin= -157.211718344766     IErMin= 5 ErrMin= 2.09D-04
 ErrMax= 2.09D-04  0.00D+00 EMaxC= 1.00D-01 BMatC= 2.62D-05 BMatP= 2.27D-04
 IDIUse=3 WtCom= 9.98D-01 WtEn= 2.09D-03
 Coeff-Com: -0.308D-02-0.342D-02 0.335D-01 0.278D+00 0.695D+00
 Coeff-En:   0.000D+00 0.000D+00 0.000D+00 0.000D+00 0.100D+01
 Coeff:     -0.307D-02-0.341D-02 0.335D-01 0.277D+00 0.696D+00
 Gap=     0.403 Goal=   None    Shift=    0.000
 RMSDP=7.23D-06 MaxDP=5.62D-04 DE=-1.96D-04 OVMax= 1.58D-03

 Initial convergence to 1.0D-05 achieved.  Increase integral accuracy.
 Cycle   6  Pass 1  IDiag  1:
 E= -157.211722900409     Delta-E=       -0.000004555643 Rises=F Damp=F
 DIIS: error= 5.47D-05 at cycle   1 NSaved=   1.
 NSaved= 1 IEnMin= 1 EnMin= -157.211722900409     IErMin= 1 ErrMin= 5.47D-05
 ErrMax= 5.47D-05  0.00D+00 EMaxC= 1.00D-01 BMatC= 2.07D-06 BMatP= 2.07D-06
 IDIUse=1 WtCom= 1.00D+00 WtEn= 0.00D+00
 Coeff-Com:  0.100D+01
 Coeff:      0.100D+01
 Gap=     0.403 Goal=   None    Shift=    0.000
 RMSDP=7.23D-06 MaxDP=5.62D-04 DE=-4.56D-06 OVMax= 4.27D-04

 Cycle   7  Pass 1  IDiag  1:
 RMSU=  3.36D-05    CP:  1.00D+00
 E= -157.211724072422     Delta-E=       -0.000001172013 Rises=F Damp=F
 DIIS: error= 3.75D-05 at cycle   2 NSaved=   2.
 NSaved= 2 IEnMin= 2 EnMin= -157.211724072422     IErMin= 2 ErrMin= 3.75D-05
 ErrMax= 3.75D-05  0.00D+00 EMaxC= 1.00D-01 BMatC= 5.00D-07 BMatP= 2.07D-06
 IDIUse=1 WtCom= 1.00D+00 WtEn= 0.00D+00
 Coeff-Com:  0.276D+00 0.724D+00
 Coeff:      0.276D+00 0.724D+00
 Gap=     0.403 Goal=   None    Shift=    0.000
 RMSDP=1.20D-06 MaxDP=8.22D-05 DE=-1.17D-06 OVMax= 3.01D-04

 Cycle   8  Pass 1  IDiag  1:
 RMSU=  9.58D-07    CP:  1.00D+00  1.02D+00
 E= -157.211724485949     Delta-E=       -0.000000413527 Rises=F Damp=F
 DIIS: error= 1.32D-05 at cycle   3 NSaved=   3.
 NSaved= 3 IEnMin= 3 EnMin= -157.211724485949     IErMin= 3 ErrMin= 1.32D-05
 ErrMax= 1.32D-05  0.00D+00 EMaxC= 1.00D-01 BMatC= 1.00D-07 BMatP= 5.00D-07
 IDIUse=1 WtCom= 1.00D+00 WtEn= 0.00D+00
 Coeff-Com: -0.241D-01 0.291D+00 0.733D+00
 Coeff:     -0.241D-01 0.291D+00 0.733D+00
 Gap=     0.403 Goal=   None    Shift=    0.000
 RMSDP=5.08D-07 MaxDP=2.78D-05 DE=-4.14D-07 OVMax= 7.10D-05

 Cycle   9  Pass 1  IDiag  1:
 RMSU=  3.58D-07    CP:  1.00D+00  1.03D+00  8.84D-01
 E= -157.211724583374     Delta-E=       -0.000000097425 Rises=F Damp=F
 DIIS: error= 1.89D-06 at cycle   4 NSaved=   4.
 NSaved= 4 IEnMin= 4 EnMin= -157.211724583374     IErMin= 4 ErrMin= 1.89D-06
 ErrMax= 1.89D-06  0.00D+00 EMaxC= 1.00D-01 BMatC= 1.13D-09 BMatP= 1.00D-07
 IDIUse=1 WtCom= 1.00D+00 WtEn= 0.00D+00
 Coeff-Com: -0.120D-01 0.183D-01 0.803D-01 0.913D+00
 Coeff:     -0.120D-01 0.183D-01 0.803D-01 0.913D+00
 Gap=     0.403 Goal=   None    Shift=    0.000
 RMSDP=9.53D-08 MaxDP=3.17D-06 DE=-9.74D-08 OVMax= 1.77D-05

 Cycle  10  Pass 1  IDiag  1:
 RMSU=  6.48D-08    CP:  1.00D+00  1.03D+00  9.22D-01  1.16D+00
 E= -157.211724585146     Delta-E=       -0.000000001772 Rises=F Damp=F
 DIIS: error= 7.88D-07 at cycle   5 NSaved=   5.
 NSaved= 5 IEnMin= 5 EnMin= -157.211724585146     IErMin= 5 ErrMin= 7.88D-07
 ErrMax= 7.88D-07  0.00D+00 EMaxC= 1.00D-01 BMatC= 2.46D-10 BMatP= 1.13D-09
 IDIUse=1 WtCom= 1.00D+00 WtEn= 0.00D+00
 Coeff-Com: -0.650D-03-0.279D-01-0.683D-01 0.254D+00 0.842D+00
 Coeff:     -0.650D-03-0.279D-01-0.683D-01 0.254D+00 0.842D+00
 Gap=     0.403 Goal=   None    Shift=    0.000
 RMSDP=3.62D-08 MaxDP=1.32D-06 DE=-1.77D-09 OVMax= 5.67D-06

 Cycle  11  Pass 1  IDiag  1:
 RMSU=  2.13D-08    CP:  1.00D+00  1.03D+00  9.30D-01  1.23D+00  1.10D+00
 E= -157.211724585442     Delta-E=       -0.000000000297 Rises=F Damp=F
 DIIS: error= 2.15D-07 at cycle   6 NSaved=   6.
 NSaved= 6 IEnMin= 6 EnMin= -157.211724585442     IErMin= 6 ErrMin= 2.15D-07
 ErrMax= 2.15D-07  0.00D+00 EMaxC= 1.00D-01 BMatC= 2.10D-11 BMatP= 2.46D-10
 IDIUse=1 WtCom= 1.00D+00 WtEn= 0.00D+00
 Coeff-Com:  0.489D-03-0.111D-01-0.302D-01 0.405D-01 0.322D+00 0.678D+00
 Coeff:      0.489D-03-0.111D-01-0.302D-01 0.405D-01 0.322D+00 0.678D+00
 Gap=     0.403 Goal=   None    Shift=    0.000
 RMSDP=6.85D-09 MaxDP=3.29D-07 DE=-2.97D-10 OVMax= 1.25D-06

 SCF Done:  E(RB2PLYPD3) =  -157.211724585     A.U. after   11 cycles
            NFock= 11  Conv=0.68D-08     -V/T= 1.9865
 KE= 1.593704267403D+02 PE=-6.288499497767D+02 EE= 1.805593164837D+02
 Leave Link  502 at Wed Aug 26 16:20:55 2020, MaxMem=  2097152000 cpu:      2821.6
 (Enter /opt/cluster/programs/g09/g09_d.01/g09/l801.exe)
 DoSCS=T DFT=T ScalE2(SS,OS)=  0.270000  0.270000
 ExpMin= 7.60D-02 ExpMax= 6.70D+04 ExpMxC= 6.47D+02 IAcc=3 IRadAn=         5 AccDes= 0.00D+00
 HarFok:  IExCor=  205 AccDes= 0.00D+00 IRadAn=         5 IDoV=-2 UseB2=F ITyADJ=14
 ICtDFT= 12500011 ScaDFX=  1.000000  1.000000  1.000000  1.000000
 Largest valence mixing into a core orbital is  1.11D-04
 Largest core mixing into a valence orbital is  1.16D-05
 Range of M.O.s used for correlation:     5   528
 NBasis=   528 NAE=    17 NBE=    17 NFC=     4 NFV=     0
 NROrb=    524 NOA=    13 NOB=    13 NVA=   511 NVB=   511

 **** Warning!!: The largest alpha MO coefficient is  0.35903264D+02

 Leave Link  801 at Wed Aug 26 16:20:56 2020, MaxMem=  2097152000 cpu:         1.1
 (Enter /opt/cluster/programs/g09/g09_d.01/g09/l906.exe)
 DoSCS=T DFT=T ScalE2(SS,OS)=  0.270000  0.270000
 FulOut=F Deriv=F AODrv=F NAtomX=    14
   MMem=         463  MDisk=          13 MDiskD=          13
  W3Min=     4238234 MinDsk=     6904766 NBas6D=         638
 NBas2D=      205689    NTT=      203841    LW2=     4508827
    MDV=  2095904966 MDiskM=        7293 NBas2p=      188383
 Fully direct method using O(OVN) memory.
 IMap=   1   2   3   4   5   6   7   8   9  10  11  12  13
 JobTyp=1 Pass  1:  I=   1 to  13 NPSUse=  8 ParTrn=T ParDer=T DoDerP=F.
 Spin components of T(2) and E(2):
     alpha-alpha T2 =       0.4126736630D-01 E2=     -0.2669988333D-01
     alpha-beta  T2 =       0.2756859548D+00 E2=     -0.1977757050D+00
     beta-beta   T2 =       0.4126736630D-01 E2=     -0.2669988333D-01
 The integrals were generated   1 times.
 E2(B2PLYPD3) =    -0.2511754716D+00 E(B2PLYPD3) =    -0.15746290005705D+03
 Leave Link  906 at Wed Aug 26 16:25:07 2020, MaxMem=  2097152000 cpu:      2003.8
 (Enter /opt/cluster/programs/g09/g09_d.01/g09/l601.exe)
 Copying SCF densities to generalized density rwf, IOpCl= 0 IROHF=0.

 **********************************************************************

            Population analysis using the SCF density.

 **********************************************************************

 Orbital symmetries:
       Occupied  (A) (A) (A) (A) (A) (A) (A) (A) (A) (A) (A) (A)
                 (A) (A) (A) (A) (A)
       Virtual   (A) (A) (A) (A) (A) (A) (A) (A) (A) (A) (A) (A)
                 (A) (A) (A) (A) (A) (A) (A) (A) (A) (A) (A) (A)
                 (A) (A) (A) (A) (A) (A) (A) (A) (A) (A) (A) (A)
                 (A) (A) (A) (A) (A) (A) (A) (A) (A) (A) (A) (A)
                 (A) (A) (A) (A) (A) (A) (A) (A) (A) (A) (A) (A)
                 (A) (A) (A) (A) (A) (A) (A) (A) (A) (A) (A) (A)
                 (A) (A) (A) (A) (A) (A) (A) (A) (A) (A) (A) (A)
                 (A) (A) (A) (A) (A) (A) (A) (A) (A) (A) (A) (A)
                 (A) (A) (A) (A) (A) (A) (A) (A) (A) (A) (A) (A)
                 (A) (A) (A) (A) (A) (A) (A) (A) (A) (A) (A) (A)
                 (A) (A) (A) (A) (A) (A) (A) (A) (A) (A) (A) (A)
                 (A) (A) (A) (A) (A) (A) (A) (A) (A) (A) (A) (A)
                 (A) (A) (A) (A) (A) (A) (A) (A) (A) (A) (A) (A)
                 (A) (A) (A) (A) (A) (A) (A) (A) (A) (A) (A) (A)
                 (A) (A) (A) (A) (A) (A) (A) (A) (A) (A) (A) (A)
                 (A) (A) (A) (A) (A) (A) (A) (A) (A) (A) (A) (A)
                 (A) (A) (A) (A) (A) (A) (A) (A) (A) (A) (A) (A)
                 (A) (A) (A) (A) (A) (A) (A) (A) (A) (A) (A) (A)
                 (A) (A) (A) (A) (A) (A) (A) (A) (A) (A) (A) (A)
                 (A) (A) (A) (A) (A) (A) (A) (A) (A) (A) (A) (A)
                 (A) (A) (A) (A) (A) (A) (A) (A) (A) (A) (A) (A)
                 (A) (A) (A) (A) (A) (A) (A) (A) (A) (A) (A) (A)
                 (A) (A) (A) (A) (A) (A) (A) (A) (A) (A) (A) (A)
                 (A) (A) (A) (A) (A) (A) (A) (A) (A) (A) (A) (A)
                 (A) (A) (A) (A) (A) (A) (A) (A) (A) (A) (A) (A)
                 (A) (A) (A) (A) (A) (A) (A) (A) (A) (A) (A) (A)
                 (A) (A) (A) (A) (A) (A) (A) (A) (A) (A) (A) (A)
                 (A) (A) (A) (A) (A) (A) (A) (A) (A) (A) (A) (A)
                 (A) (A) (A) (A) (A) (A) (A) (A) (A) (A) (A) (A)
                 (A) (A) (A) (A) (A) (A) (A) (A) (A) (A) (A) (A)
                 (A) (A) (A) (A) (A) (A) (A) (A) (A) (A) (A) (A)
                 (A) (A) (A) (A) (A) (A) (A) (A) (A) (A) (A) (A)
                 (A) (A) (A) (A) (A) (A) (A) (A) (A) (A) (A) (A)
                 (A) (A) (A) (A) (A) (A) (A) (A) (A) (A) (A) (A)
                 (A) (A) (A) (A) (A) (A) (A) (A) (A) (A) (A) (A)
                 (A) (A) (A) (A) (A) (A) (A) (A) (A) (A) (A) (A)
                 (A) (A) (A) (A) (A) (A) (A) (A) (A) (A) (A) (A)
                 (A) (A) (A) (A) (A) (A) (A) (A) (A) (A) (A) (A)
                 (A) (A) (A) (A) (A) (A) (A) (A) (A) (A) (A) (A)
                 (A) (A) (A) (A) (A) (A) (A) (A) (A) (A) (A) (A)
                 (A) (A) (A) (A) (A) (A) (A) (A) (A) (A) (A) (A)
                 (A) (A) (A) (A) (A) (A) (A) (A) (A) (A) (A) (A)
                 (A) (A) (A) (A) (A) (A) (A)
 The electronic state is 1-A.
 Alpha  occ. eigenvalues --  -10.62666 -10.61490 -10.60413 -10.59638  -0.93862
 Alpha  occ. eigenvalues --   -0.89507  -0.77002  -0.67562  -0.57108  -0.53584
 Alpha  occ. eigenvalues --   -0.50933  -0.46558  -0.43865  -0.39949  -0.38130
 Alpha  occ. eigenvalues --   -0.37618  -0.34887
 Alpha virt. eigenvalues --    0.05443   0.06105   0.08303   0.08875   0.10828
 Alpha virt. eigenvalues --    0.11085   0.12537   0.12674   0.14441   0.15265
 Alpha virt. eigenvalues --    0.15669   0.17108   0.18076   0.19633   0.20841
 Alpha virt. eigenvalues --    0.22183   0.22974   0.24409   0.26669   0.28432
 Alpha virt. eigenvalues --    0.28908   0.30417   0.31323   0.32864   0.33828
 Alpha virt. eigenvalues --    0.35387   0.35930   0.38355   0.39117   0.40094
 Alpha virt. eigenvalues --    0.41072   0.42080   0.42532   0.44149   0.47728
 Alpha virt. eigenvalues --    0.50011   0.52536   0.54483   0.55612   0.57599
 Alpha virt. eigenvalues --    0.59328   0.61486   0.65179   0.65253   0.65654
 Alpha virt. eigenvalues --    0.67539   0.68532   0.69404   0.71853   0.73380
 Alpha virt. eigenvalues --    0.73425   0.73779   0.74760   0.77673   0.79390
 Alpha virt. eigenvalues --    0.80867   0.81837   0.83633   0.86202   0.87126
 Alpha virt. eigenvalues --    0.87653   0.88976   0.89207   0.90179   0.91235
 Alpha virt. eigenvalues --    0.93375   0.94042   0.95762   0.95911   0.96548
 Alpha virt. eigenvalues --    0.98223   0.99779   1.00373   1.01737   1.02760
 Alpha virt. eigenvalues --    1.04739   1.06117   1.08073   1.09069   1.12107
 Alpha virt. eigenvalues --    1.12754   1.14316   1.16807   1.17853   1.19097
 Alpha virt. eigenvalues --    1.20044   1.21922   1.25578   1.26431   1.28301
 Alpha virt. eigenvalues --    1.29601   1.31264   1.33805   1.34840   1.37157
 Alpha virt. eigenvalues --    1.39646   1.42760   1.43060   1.45059   1.48228
 Alpha virt. eigenvalues --    1.49783   1.51092   1.55484   1.57605   1.59558
 Alpha virt. eigenvalues --    1.63977   1.66545   1.69092   1.71689   1.76272
 Alpha virt. eigenvalues --    1.82099   1.82428   1.84260   1.85577   1.88101
 Alpha virt. eigenvalues --    1.90927   1.92105   1.93096   1.94677   1.95430
 Alpha virt. eigenvalues --    1.96999   1.97767   1.99201   2.01741   2.02961
 Alpha virt. eigenvalues --    2.04191   2.05349   2.06650   2.07014   2.09964
 Alpha virt. eigenvalues --    2.11135   2.12329   2.13405   2.15787   2.16570
 Alpha virt. eigenvalues --    2.16886   2.18753   2.20719   2.22189   2.23539
 Alpha virt. eigenvalues --    2.24977   2.26248   2.29187   2.30284   2.30801
 Alpha virt. eigenvalues --    2.33237   2.35137   2.35508   2.38891   2.39978
 Alpha virt. eigenvalues --    2.40402   2.42205   2.43218   2.44568   2.44721
 Alpha virt. eigenvalues --    2.47209   2.49578   2.50456   2.53272   2.56172
 Alpha virt. eigenvalues --    2.56401   2.58544   2.58803   2.61284   2.63523
 Alpha virt. eigenvalues --    2.65420   2.65886   2.66310   2.67547   2.70664
 Alpha virt. eigenvalues --    2.72058   2.73675   2.73833   2.75366   2.78243
 Alpha virt. eigenvalues --    2.80126   2.81168   2.81900   2.84096   2.86219
 Alpha virt. eigenvalues --    2.87363   2.88727   2.90775   2.92354   2.94666
 Alpha virt. eigenvalues --    2.96163   2.97015   2.99136   3.00848   3.02578
 Alpha virt. eigenvalues --    3.05197   3.06569   3.08337   3.09204   3.12857
 Alpha virt. eigenvalues --    3.15186   3.17031   3.19358   3.20656   3.22233
 Alpha virt. eigenvalues --    3.27216   3.30847   3.31760   3.32960   3.35035
 Alpha virt. eigenvalues --    3.35890   3.38346   3.42120   3.42979   3.45214
 Alpha virt. eigenvalues --    3.48464   3.49737   3.50166   3.53057   3.54529
 Alpha virt. eigenvalues --    3.57056   3.58122   3.60493   3.63792   3.65997
 Alpha virt. eigenvalues --    3.67429   3.70675   3.71755   3.72632   3.75941
 Alpha virt. eigenvalues --    3.78666   3.83932   3.87055   3.87848   3.92298
 Alpha virt. eigenvalues --    3.94063   3.98094   3.99201   4.02038   4.04350
 Alpha virt. eigenvalues --    4.07761   4.08814   4.12751   4.14784   4.18785
 Alpha virt. eigenvalues --    4.19848   4.22625   4.23709   4.28195   4.30030
 Alpha virt. eigenvalues --    4.39507   4.40633   4.53351   4.57382   4.62712
 Alpha virt. eigenvalues --    4.71091   4.93475   4.96999   5.01805   5.10449
 Alpha virt. eigenvalues --    5.12466   5.20209   5.27031   5.32362   5.37314
 Alpha virt. eigenvalues --    5.38898   5.42592   5.44648   5.48348   5.53051
 Alpha virt. eigenvalues --    5.54576   5.56460   5.62314   5.63222   5.64822
 Alpha virt. eigenvalues --    5.65687   5.67039   5.68740   5.73548   5.76430
 Alpha virt. eigenvalues --    5.79291   5.81230   5.82061   5.87254   5.88707
 Alpha virt. eigenvalues --    5.89829   5.91148   5.95291   5.96326   5.97011
 Alpha virt. eigenvalues --    5.99400   6.00009   6.00928   6.03223   6.05281
 Alpha virt. eigenvalues --    6.06120   6.06999   6.09326   6.13022   6.13975
 Alpha virt. eigenvalues --    6.16335   6.17326   6.18885   6.21284   6.22725
 Alpha virt. eigenvalues --    6.23233   6.24260   6.26835   6.28863   6.31728
 Alpha virt. eigenvalues --    6.32415   6.33226   6.34525   6.36400   6.38264
 Alpha virt. eigenvalues --    6.39565   6.42162   6.44104   6.45256   6.46575
 Alpha virt. eigenvalues --    6.48545   6.48740   6.51461   6.54114   6.57432
 Alpha virt. eigenvalues --    6.57948   6.61914   6.63571   6.65462   6.68368
 Alpha virt. eigenvalues --    6.70381   6.72481   6.73932   6.74775   6.76675
 Alpha virt. eigenvalues --    6.78834   6.80238   6.82893   6.83778   6.86369
 Alpha virt. eigenvalues --    6.88101   6.91874   6.93893   6.95423   6.98216
 Alpha virt. eigenvalues --    7.00274   7.01801   7.05540   7.07178   7.09526
 Alpha virt. eigenvalues --    7.11596   7.13710   7.16437   7.18066   7.20556
 Alpha virt. eigenvalues --    7.23676   7.26739   7.28220   7.29131   7.31297
 Alpha virt. eigenvalues --    7.33524   7.36160   7.40255   7.44772   7.47041
 Alpha virt. eigenvalues --    7.48279   7.50103   7.53068   7.54397   7.57412
 Alpha virt. eigenvalues --    7.60126   7.62479   7.63474   7.65660   7.67578
 Alpha virt. eigenvalues --    7.70786   7.71516   7.76083   7.78187   7.79606
 Alpha virt. eigenvalues --    7.81317   7.83235   7.85706   7.86628   7.88757
 Alpha virt. eigenvalues --    7.89235   7.90970   7.93466   7.96244   7.97816
 Alpha virt. eigenvalues --    7.99423   8.01301   8.03209   8.03873   8.06540
 Alpha virt. eigenvalues --    8.09612   8.11381   8.13019   8.16146   8.16762
 Alpha virt. eigenvalues --    8.19037   8.21621   8.21683   8.24026   8.25661
 Alpha virt. eigenvalues --    8.28359   8.29214   8.32555   8.33744   8.35701
 Alpha virt. eigenvalues --    8.36212   8.38884   8.40111   8.44106   8.46369
 Alpha virt. eigenvalues --    8.47222   8.49198   8.50539   8.51755   8.52701
 Alpha virt. eigenvalues --    8.56579   8.56759   8.58787   8.61339   8.64635
 Alpha virt. eigenvalues --    8.66421   8.68675   8.69653   8.73718   8.75060
 Alpha virt. eigenvalues --    8.76433   8.77096   8.78141   8.82137   8.84520
 Alpha virt. eigenvalues --    8.85531   8.87444   8.90051   8.92275   8.95638
 Alpha virt. eigenvalues --    8.96613   8.99986   9.02064   9.03567   9.04650
 Alpha virt. eigenvalues --    9.08220   9.09682   9.11322   9.14905   9.17027
 Alpha virt. eigenvalues --    9.18357   9.20672   9.25793   9.30807   9.33897
 Alpha virt. eigenvalues --    9.35787   9.36700   9.39560   9.45086   9.49310
 Alpha virt. eigenvalues --    9.52234   9.55281   9.58951   9.61216   9.62425
 Alpha virt. eigenvalues --    9.64724   9.74041   9.85649   9.92557  10.03706
 Alpha virt. eigenvalues --   10.10321  10.20618  10.25203  10.27805  10.37782
 Alpha virt. eigenvalues --   10.41025  10.47430  10.48842  10.54310  10.57966
 Alpha virt. eigenvalues --   10.67364  10.71603  10.76817  10.81786  10.85068
 Alpha virt. eigenvalues --   10.98568  11.00146  11.05846  11.09643  11.20086
 Alpha virt. eigenvalues --   11.23598  11.29136  11.32864  11.39300  11.43774
 Alpha virt. eigenvalues --   11.53559  11.91042  12.12721  12.21751  12.26884
 Alpha virt. eigenvalues --   12.41830  12.54577  13.00584  13.11307  13.30241
 Alpha virt. eigenvalues --   14.08988  15.30482  18.73838  29.31926  29.41019
 Alpha virt. eigenvalues --   29.53469  29.84096 148.99281 149.11205 149.21133
 Alpha virt. eigenvalues --  149.64876
          Condensed to atoms (all electrons):
               1          2          3          4          5          6
     1  C    5.753155   0.365413   0.330884   0.151887   0.317083  -0.031663
     2  C    0.365413   4.816195  -0.016315  -0.085139  -0.015603   0.370090
     3  H    0.330884  -0.016315   0.592567   0.015959  -0.026559   0.004887
     4  H    0.151887  -0.085139   0.015959   0.198095   0.040384  -0.003275
     5  H    0.317083  -0.015603  -0.026559   0.040384   0.628971  -0.001969
     6  C   -0.031663   0.370090   0.004887  -0.003275  -0.001969   4.830757
     7  H   -0.028194   0.393904  -0.004599  -0.001405   0.004980  -0.043396
     8  H   -0.027716   0.394398  -0.000088   0.008835  -0.000732  -0.033731
     9  C    0.002761  -0.033368  -0.000294   0.000055   0.000086   0.315796
    10  H   -0.000415  -0.035088  -0.000043  -0.000142   0.000871   0.406062
    11  H   -0.005173  -0.040565   0.000201   0.004285   0.000336   0.399290
    12  H   -0.000239  -0.009351   0.000005  -0.000038   0.000016  -0.080541
    13  H   -0.000481   0.007163   0.000020  -0.000004   0.000006  -0.032768
    14  H    0.000340  -0.003321   0.000038  -0.000017  -0.000001  -0.054615
               7          8          9         10         11         12
     1  C   -0.028194  -0.027716   0.002761  -0.000415  -0.005173  -0.000239
     2  C    0.393904   0.394398  -0.033368  -0.035088  -0.040565  -0.009351
     3  H   -0.004599  -0.000088  -0.000294  -0.000043   0.000201   0.000005
     4  H   -0.001405   0.008835   0.000055  -0.000142   0.004285  -0.000038
     5  H    0.004980  -0.000732   0.000086   0.000871   0.000336   0.000016
     6  C   -0.043396  -0.033731   0.315796   0.406062   0.399290  -0.080541
     7  H    0.658184  -0.065271  -0.008265   0.011836  -0.004438  -0.001487
     8  H   -0.065271   0.671986  -0.002421  -0.005373   0.006682   0.004912
     9  C   -0.008265  -0.002421   4.859796  -0.098629  -0.061169   0.405090
    10  H    0.011836  -0.005373  -0.098629   0.745828  -0.051595  -0.019992
    11  H   -0.004438   0.006682  -0.061169  -0.051595   0.724265   0.021105
    12  H   -0.001487   0.004912   0.405090  -0.019992   0.021105   0.655887
    13  H   -0.000410  -0.000134   0.429859  -0.013531  -0.006709  -0.049366
    14  H    0.009529  -0.000748   0.379193   0.019873  -0.008447  -0.022717
              13         14
     1  C   -0.000481   0.000340
     2  C    0.007163  -0.003321
     3  H    0.000020   0.000038
     4  H   -0.000004  -0.000017
     5  H    0.000006  -0.000001
     6  C   -0.032768  -0.054615
     7  H   -0.000410   0.009529
     8  H   -0.000134  -0.000748
     9  C    0.429859   0.379193
    10  H   -0.013531   0.019873
    11  H   -0.006709  -0.008447
    12  H   -0.049366  -0.022717
    13  H    0.629190  -0.023908
    14  H   -0.023908   0.709804
 Mulliken charges:
               1
     1  C   -0.827642
     2  C   -0.108412
     3  H    0.103337
     4  H    0.670519
     5  H    0.052129
     6  C   -0.044923
     7  H    0.079032
     8  H    0.049400
     9  C   -0.188492
    10  H    0.040336
    11  H    0.021931
    12  H    0.096715
    13  H    0.061073
    14  H   -0.005003
 Sum of Mulliken charges =   0.00000
 Mulliken charges with hydrogens summed into heavy atoms:
               1
     1  C   -0.001657
     2  C    0.020020
     6  C    0.017344
     9  C   -0.035707
 Electronic spatial extent (au):  <R**2>=            443.6027
 Charge=              0.0000 electrons
 Dipole moment (field-independent basis, Debye):
    X=             -0.0509    Y=              0.0531    Z=             -0.1317  Tot=              0.1508
 Quadrupole moment (field-independent basis, Debye-Ang):
   XX=            -28.6611   YY=            -28.7171   ZZ=            -28.3392
   XY=             -1.8523   XZ=             -1.4747   YZ=              0.3559
 Traceless Quadrupole moment (field-independent basis, Debye-Ang):
   XX=             -0.0886   YY=             -0.1446   ZZ=              0.2332
   XY=             -1.8523   XZ=             -1.4747   YZ=              0.3559
 Octapole moment (field-independent basis, Debye-Ang**2):
  XXX=             -7.7908  YYY=              0.5548  ZZZ=              0.2542  XYY=             -0.4773
  XXY=             -3.8488  XXZ=             -2.8704  XZZ=             -0.6411  YZZ=              0.0726
  YYZ=             -0.5100  XYZ=             -1.0703
 Hexadecapole moment (field-independent basis, Debye-Ang**3):
 XXXX=           -476.7621 YYYY=            -94.4872 ZZZZ=            -59.5137 XXXY=            -20.2954
 XXXZ=            -12.3838 YYYX=             -5.3773 YYYZ=             -1.1240 ZZZX=             -5.4780
 ZZZY=             -0.7627 XXYY=            -94.3967 XXZZ=            -90.8635 YYZZ=            -23.3973
 XXYZ=              4.8129 YYXZ=             -0.5907 ZZXY=              0.0822
 N-N= 1.317084819671D+02 E-N=-6.288499589749D+02  KE= 1.593704267403D+02
 Leave Link  601 at Wed Aug 26 16:25:07 2020, MaxMem=  2097152000 cpu:         1.1
 (Enter /opt/cluster/programs/g09/g09_d.01/g09/l9999.exe)
 1\1\GINC-NODE26\SP\RB2PLYPD3-FC\def2QZVP\C4H10\BOITTIER\26-Aug-2020\0\
 \#p B2PLYPD3/Def2QZVP\\butane_opt\\0,1\C,0,-4.054422,0.349011,-0.12409
 5\C,0,-2.725669,-0.695743,0.23506\H,0,-4.932225,-0.145394,-0.352107\H,
 0,-3.715942,0.458844,-0.520861\H,0,-4.334835,1.319673,0.816445\C,0,-1.
 36364,0.139936,0.056552\H,0,-2.598749,-1.273151,-0.518674\H,0,-2.61787
 1,-1.410431,1.025602\C,0,-0.101081,-0.643485,-0.05807\H,0,-0.895348,0.
 631765,0.796188\H,0,-1.290542,0.780032,-0.826535\H,0,-0.28784,-1.11207
 4,0.742424\H,0,0.802425,-0.070898,0.124428\H,0,-0.237552,-1.46881,-1.1
 05375\\Version=ES64L-G09RevD.01\State=1-A\HF=-157.2117246\MP2=-157.462
 9001\RMSD=6.847e-09\PG=C01 [X(C4H10)]\\@


 WE LEARN WISDOM FROM FAILURE MUCH MORE THAN FROM SUCCESS.
 WE DISCOVER WHAT WILL DO BY FINDING OUT WHAT WILL NOT DO...
 AND HE WHO NEVER MADE A MISTAKE NEVER MADE A DISCOVERY
 Job cpu time:       0 days  1 hours 20 minutes 48.8 seconds.
 File lengths (MBytes):  RWF=    152 Int=      0 D2E=      0 Chk=     14 Scr=      1
 Normal termination of Gaussian 09 at Wed Aug 26 16:25:08 2020.
