 Entering Gaussian System, Link 0=/opt/cluster/programs/g09/g09_d.01/g09//g09
 Input=/home/boittier/MDCM/nms_sampling/butane_geom.xyz.dir/energies/butane_opt_68_energy.com
 Output=/scratch/boittier/butane_opt_68_energy/butane_opt_68_energy.out
 Initial command:
 /opt/cluster/programs/g09/g09_d.01/g09/l1.exe "/scratch/boittier/butane_opt_68_energy/Gau-95255.inp" -scrdir="/scratch/boittier/butane_opt_68_energy/"
 Entering Link 1 = /opt/cluster/programs/g09/g09_d.01/g09/l1.exe PID=     95256.
  
 Copyright (c) 1988,1990,1992,1993,1995,1998,2003,2009,2013,
            Gaussian, Inc.  All Rights Reserved.
  
 This is part of the Gaussian(R) 09 program.  It is based on
 the Gaussian(R) 03 system (copyright 2003, Gaussian, Inc.),
 the Gaussian(R) 98 system (copyright 1998, Gaussian, Inc.),
 the Gaussian(R) 94 system (copyright 1995, Gaussian, Inc.),
 the Gaussian 92(TM) system (copyright 1992, Gaussian, Inc.),
 the Gaussian 90(TM) system (copyright 1990, Gaussian, Inc.),
 the Gaussian 88(TM) system (copyright 1988, Gaussian, Inc.),
 the Gaussian 86(TM) system (copyright 1986, Carnegie Mellon
 University), and the Gaussian 82(TM) system (copyright 1983,
 Carnegie Mellon University). Gaussian is a federally registered
 trademark of Gaussian, Inc.
  
 This software contains proprietary and confidential information,
 including trade secrets, belonging to Gaussian, Inc.
  
 This software is provided under written license and may be
 used, copied, transmitted, or stored only in accord with that
 written license.
  
 The following legend is applicable only to US Government
 contracts under FAR:
  
                    RESTRICTED RIGHTS LEGEND
  
 Use, reproduction and disclosure by the US Government is
 subject to restrictions as set forth in subparagraphs (a)
 and (c) of the Commercial Computer Software - Restricted
 Rights clause in FAR 52.227-19.
  
 Gaussian, Inc.
 340 Quinnipiac St., Bldg. 40, Wallingford CT 06492
  
  
 ---------------------------------------------------------------
 Warning -- This program may not be used in any manner that
 competes with the business of Gaussian, Inc. or will provide
 assistance to any competitor of Gaussian, Inc.  The licensee
 of this program is prohibited from giving any competitor of
 Gaussian, Inc. access to this program.  By using this program,
 the user acknowledges that Gaussian, Inc. is engaged in the
 business of creating and licensing software in the field of
 computational chemistry and represents and warrants to the
 licensee that it is not a competitor of Gaussian, Inc. and that
 it will not use this program in any manner prohibited above.
 ---------------------------------------------------------------
  

 Cite this work as:
 Gaussian 09, Revision D.01,
 M. J. Frisch, G. W. Trucks, H. B. Schlegel, G. E. Scuseria, 
 M. A. Robb, J. R. Cheeseman, G. Scalmani, V. Barone, B. Mennucci, 
 G. A. Petersson, H. Nakatsuji, M. Caricato, X. Li, H. P. Hratchian, 
 A. F. Izmaylov, J. Bloino, G. Zheng, J. L. Sonnenberg, M. Hada, 
 M. Ehara, K. Toyota, R. Fukuda, J. Hasegawa, M. Ishida, T. Nakajima, 
 Y. Honda, O. Kitao, H. Nakai, T. Vreven, J. A. Montgomery, Jr., 
 J. E. Peralta, F. Ogliaro, M. Bearpark, J. J. Heyd, E. Brothers, 
 K. N. Kudin, V. N. Staroverov, T. Keith, R. Kobayashi, J. Normand, 
 K. Raghavachari, A. Rendell, J. C. Burant, S. S. Iyengar, J. Tomasi, 
 M. Cossi, N. Rega, J. M. Millam, M. Klene, J. E. Knox, J. B. Cross, 
 V. Bakken, C. Adamo, J. Jaramillo, R. Gomperts, R. E. Stratmann, 
 O. Yazyev, A. J. Austin, R. Cammi, C. Pomelli, J. W. Ochterski, 
 R. L. Martin, K. Morokuma, V. G. Zakrzewski, G. A. Voth, 
 P. Salvador, J. J. Dannenberg, S. Dapprich, A. D. Daniels, 
 O. Farkas, J. B. Foresman, J. V. Ortiz, J. Cioslowski, 
 and D. J. Fox, Gaussian, Inc., Wallingford CT, 2013.
 
 ******************************************
 Gaussian 09:  ES64L-G09RevD.01 24-Apr-2013
                26-Aug-2020 
 ******************************************
 %chk=/home/boittier/MDCM/nms_sampling/butane_geom.xyz.dir/butane_opt_68.chk
 %nproc=8
 Will use up to    8 processors via shared memory.
 %mem=16000MB
 --------------------
 #p B2PLYPD3/Def2QZVP
 --------------------
 1/38=1/1;
 2/12=2,17=6,18=5,40=1/2;
 3/5=45,7=101,11=9,16=1,25=1,30=1,74=-60/1,2,3;
 4//1;
 5/5=2,38=5/2;
 8/10=1/1;
 9/16=-3/6;
 6/7=2,8=2,9=2,10=2/1;
 99/5=1,9=1/99;
 Leave Link    1 at Wed Aug 26 22:37:27 2020, MaxMem=  2097152000 cpu:         0.2
 (Enter /opt/cluster/programs/g09/g09_d.01/g09/l101.exe)
 ----------
 butane_opt
 ----------
 Symbolic Z-matrix:
 Charge =  0 Multiplicity = 1
 C                    -3.96335   0.24129   0.09553 
 C                    -2.75474  -0.58933  -0.11523 
 H                    -4.89412  -0.30912   0.56884 
 H                    -4.21624   0.99198  -0.84738 
 H                    -3.57847   0.70422   0.96337 
 C                    -1.41321   0.21767  -0.05052 
 H                    -2.74804  -1.31642  -0.94076 
 H                    -2.75574  -1.16812   0.79194 
 C                    -0.08371  -0.73271   0.10083 
 H                    -1.55917   0.96425   0.84879 
 H                    -1.28633   0.8558   -1.01208 
 H                    -0.19649  -1.41927   1.07638 
 H                     0.82445  -0.18604   0.23257 
 H                    -0.03014  -1.22329  -0.61107 
 
 NAtoms=     14 NQM=       14 NQMF=       0 NMMI=      0 NMMIF=      0
                NMic=       0 NMicF=      0.
                    Isotopes and Nuclear Properties:
 (Nuclear quadrupole moments (NQMom) in fm**2, nuclear magnetic moments (NMagM)
  in nuclear magnetons)

  Atom         1           2           3           4           5           6           7           8           9          10
 IAtWgt=          12          12           1           1           1          12           1           1          12           1
 AtmWgt=  12.0000000  12.0000000   1.0078250   1.0078250   1.0078250  12.0000000   1.0078250   1.0078250  12.0000000   1.0078250
 NucSpn=           0           0           1           1           1           0           1           1           0           1
 AtZEff=   0.0000000   0.0000000   0.0000000   0.0000000   0.0000000   0.0000000   0.0000000   0.0000000   0.0000000   0.0000000
 NQMom=    0.0000000   0.0000000   0.0000000   0.0000000   0.0000000   0.0000000   0.0000000   0.0000000   0.0000000   0.0000000
 NMagM=    0.0000000   0.0000000   2.7928460   2.7928460   2.7928460   0.0000000   2.7928460   2.7928460   0.0000000   2.7928460
 AtZNuc=   6.0000000   6.0000000   1.0000000   1.0000000   1.0000000   6.0000000   1.0000000   1.0000000   6.0000000   1.0000000

  Atom        11          12          13          14
 IAtWgt=           1           1           1           1
 AtmWgt=   1.0078250   1.0078250   1.0078250   1.0078250
 NucSpn=           1           1           1           1
 AtZEff=   0.0000000   0.0000000   0.0000000   0.0000000
 NQMom=    0.0000000   0.0000000   0.0000000   0.0000000
 NMagM=    2.7928460   2.7928460   2.7928460   2.7928460
 AtZNuc=   1.0000000   1.0000000   1.0000000   1.0000000
 Leave Link  101 at Wed Aug 26 22:37:27 2020, MaxMem=  2097152000 cpu:         0.5
 (Enter /opt/cluster/programs/g09/g09_d.01/g09/l202.exe)
                          Input orientation:                          
 ---------------------------------------------------------------------
 Center     Atomic      Atomic             Coordinates (Angstroms)
 Number     Number       Type             X           Y           Z
 ---------------------------------------------------------------------
      1          6           0       -3.963348    0.241287    0.095533
      2          6           0       -2.754742   -0.589329   -0.115229
      3          1           0       -4.894118   -0.309121    0.568839
      4          1           0       -4.216238    0.991977   -0.847383
      5          1           0       -3.578467    0.704222    0.963367
      6          6           0       -1.413205    0.217671   -0.050515
      7          1           0       -2.748039   -1.316417   -0.940762
      8          1           0       -2.755741   -1.168118    0.791936
      9          6           0       -0.083708   -0.732706    0.100828
     10          1           0       -1.559170    0.964253    0.848785
     11          1           0       -1.286333    0.855797   -1.012083
     12          1           0       -0.196491   -1.419270    1.076379
     13          1           0        0.824454   -0.186041    0.232569
     14          1           0       -0.030137   -1.223285   -0.611072
 ---------------------------------------------------------------------
                    Distance matrix (angstroms):
                    1          2          3          4          5
     1  C    0.000000
     2  C    1.481578   0.000000
     3  H    1.180381   2.263492   0.000000
     4  H    1.231495   2.274324   2.039133   0.000000
     5  H    1.056209   1.874878   1.706884   1.941229   0.000000
     6  C    2.554431   1.566895   3.574614   3.015218   2.439887
     7  H    2.230992   1.100094   2.810551   2.737336   2.897982
     8  H    1.982351   1.076079   2.315233   3.080005   2.052297
     9  C    4.000037   2.683591   4.851650   4.577274   3.875832
    10  H    2.621095   2.184567   3.580744   3.152422   2.039192
    11  H    2.961561   2.246989   4.107610   2.937689   3.029729
    12  H    4.231870   2.941663   4.853630   5.066886   3.994966
    13  H    4.808787   3.618598   5.729772   5.287967   4.551082
    14  H    4.256103   2.840992   5.087848   4.742011   4.334142
                    6          7          8          9         10
     6  C    0.000000
     7  H    2.219853   0.000000
     8  H    2.105359   1.739050   0.000000
     9  C    1.641244   2.919638   2.794096   0.000000
    10  H    1.177893   3.133264   2.445817   2.369831   0.000000
    11  H    1.160997   2.619195   3.083809   2.282152   1.883888
    12  H    2.330206   3.254202   2.587227   1.198245   2.754973
    13  H    2.291340   3.926469   3.754353   1.068156   2.717455
    14  H    2.074477   2.739409   3.066006   0.866221   3.042112
                   11         12         13         14
    11  H    0.000000
    12  H    3.274959   0.000000
    13  H    2.662707   1.809751   0.000000
    14  H    2.461995   1.706920   1.586799   0.000000
 Stoichiometry    C4H10
 Framework group  C1[X(C4H10)]
 Deg. of freedom    36
 Full point group                 C1      NOp   1
 Largest Abelian subgroup         C1      NOp   1
 Largest concise Abelian subgroup C1      NOp   1
                         Standard orientation:                         
 ---------------------------------------------------------------------
 Center     Atomic      Atomic             Coordinates (Angstroms)
 Number     Number       Type             X           Y           Z
 ---------------------------------------------------------------------
      1          6           0       -1.963074    0.092363    0.079080
      2          6           0       -0.624711   -0.478074   -0.201028
      3          1           0       -2.775818   -0.664957    0.478097
      4          1           0       -2.353085    0.880968   -0.782646
      5          1           0       -1.664289    0.522168    0.996453
      6          6           0        0.548080    0.547191   -0.032062
      7          1           0       -0.490203   -1.099640   -1.098675
      8          1           0       -0.515791   -1.140842    0.639698
      9          6           0        2.028959   -0.157027    0.036927
     10          1           0        0.273469    1.154700    0.938995
     11          1           0        0.551865    1.296591   -0.918798
     12          1           0        2.047906   -0.952718    0.932642
     13          1           0        2.823276    0.528008    0.238778
     14          1           0        2.167145   -0.550996   -0.722041
 ---------------------------------------------------------------------
 Rotational constants (GHZ):     22.4013213      3.4808998      3.2968824
 Leave Link  202 at Wed Aug 26 22:37:27 2020, MaxMem=  2097152000 cpu:         0.0
 (Enter /opt/cluster/programs/g09/g09_d.01/g09/l301.exe)
 Standard basis: def2QZVP (5D, 7F)
 Ernie: Thresh=  0.10000D-02 Tol=  0.10000D-05 Strict=F.
 There are   638 symmetry adapted cartesian basis functions of A   symmetry.
 There are   528 symmetry adapted basis functions of A   symmetry.
   528 basis functions,   748 primitive gaussians,   638 cartesian basis functions
    17 alpha electrons       17 beta electrons
       nuclear repulsion energy       128.7916183950 Hartrees.
 IExCor=  419 DFT=T Ex+Corr=B2PLYPD3 ExCW=0 ScaHFX=  0.530000
 ScaDFX=  0.470000  0.470000  0.730000  0.730000 ScalE2=  0.270000  0.270000
 IRadAn=      0 IRanWt=     -1 IRanGd=            0 ICorTp=0 IEmpDi=141
 NAtoms=   14 NActive=   14 NUniq=   14 SFac= 1.00D+00 NAtFMM=   60 NAOKFM=F Big=F
 Integral buffers will be    131072 words long.
 Regular integral format.
 Two-electron integral symmetry is turned on.
 R6Disp:  Grimme-D3(BJ) Dispersion energy=       -0.0063606865 Hartrees.
 Nuclear repulsion after empirical dispersion term =      128.7852577085 Hartrees.
 Leave Link  301 at Wed Aug 26 22:37:27 2020, MaxMem=  2097152000 cpu:         0.4
 (Enter /opt/cluster/programs/g09/g09_d.01/g09/l302.exe)
 NPDir=0 NMtPBC=     1 NCelOv=     1 NCel=       1 NClECP=     1 NCelD=      1
         NCelK=      1 NCelE2=     1 NClLst=     1 CellRange=     0.0.
 One-electron integrals computed using PRISM.
   1 Symmetry operations used in ECPInt.
 ECPInt:  NShTT=   14196 NPrTT=   30597 LenC2=   13851 LenP2D=   25884.
 LDataN:  DoStor=T MaxTD1= 8 Len=  415
 NBasis=   528 RedAO= T EigKep=  3.69D-05  NBF=   528
 NBsUse=   528 1.00D-06 EigRej= -1.00D+00 NBFU=   528
 Precomputing XC quadrature grid using
 IXCGrd= 4 IRadAn=           0 IRanWt=          -1 IRanGd=           0 AccXCQ= 0.00D+00.
 Generated NRdTot=       0 NPtTot=           0 NUsed=           0 NTot=          32
 NSgBfM=   638   638   638   638   638 MxSgAt=    14 MxSgA2=    14.
 Leave Link  302 at Wed Aug 26 22:37:28 2020, MaxMem=  2097152000 cpu:         5.3
 (Enter /opt/cluster/programs/g09/g09_d.01/g09/l303.exe)
 DipDrv:  MaxL=1.
 Leave Link  303 at Wed Aug 26 22:37:28 2020, MaxMem=  2097152000 cpu:         0.5
 (Enter /opt/cluster/programs/g09/g09_d.01/g09/l401.exe)
 ExpMin= 7.60D-02 ExpMax= 6.70D+04 ExpMxC= 6.47D+02 IAcc=2 IRadAn=         4 AccDes= 0.00D+00
 Harris functional with IExCor=  419 and IRadAn=       4 diagonalized for initial guess.
 HarFok:  IExCor=  419 AccDes= 0.00D+00 IRadAn=         4 IDoV= 1 UseB2=F ITyADJ=14
 ICtDFT=  3500011 ScaDFX=  1.000000  1.000000  1.000000  1.000000
 FoFCou: FMM=F IPFlag=           0 FMFlag=      100000 FMFlg1=           0
         NFxFlg=           0 DoJE=T BraDBF=F KetDBF=T FulRan=T
         wScrn=  0.000000 ICntrl=     500 IOpCl=  0 I1Cent=   200000004 NGrid=           0
         NMat0=    1 NMatS0=      1 NMatT0=    0 NMatD0=    1 NMtDS0=    0 NMtDT0=    0
 Petite list used in FoFCou.
 Harris En= -158.528417080981    
 JPrj=0 DoOrth=F DoCkMO=F.
 Leave Link  401 at Wed Aug 26 22:37:31 2020, MaxMem=  2097152000 cpu:        16.1
 (Enter /opt/cluster/programs/g09/g09_d.01/g09/l502.exe)
 Closed shell SCF:
 Using DIIS extrapolation, IDIIS=  1040.
 Integral symmetry usage will be decided dynamically.
 IVT=     1249338 IEndB=     1249338 NGot=  2097152000 MDV=  2096326985
 LenX=  2096326985 LenY=  2095919303
 Requested convergence on RMS density matrix=1.00D-08 within 128 cycles.
 Requested convergence on MAX density matrix=1.00D-06.
 Requested convergence on             energy=1.00D-06.
 No special actions if energy rises.
 Fock matrices will be formed incrementally for  20 cycles.
 Integral accuracy reduced to 1.0D-05 until final iterations.

 Cycle   1  Pass 0  IDiag  1:
 FoFJK:  IHMeth= 1 ICntrl=       0 DoSepK=F KAlg= 0 I1Cent=   0 FoldK=F
 IRaf= 940000000 NMat=   1 IRICut=       1 DoRegI=T DoRafI=F ISym2E= 0.
 FoFCou: FMM=F IPFlag=           0 FMFlag=      100000 FMFlg1=           0
         NFxFlg=           0 DoJE=F BraDBF=F KetDBF=F FulRan=T
         wScrn=  0.000000 ICntrl=       0 IOpCl=  0 I1Cent=           0 NGrid=           0
         NMat0=    1 NMatS0=      1 NMatT0=    0 NMatD0=    1 NMtDS0=    0 NMtDT0=    0
 Symmetry not used in FoFCou.
 E= -157.764480348688    
 DIIS: error= 2.52D-02 at cycle   1 NSaved=   1.
 NSaved= 1 IEnMin= 1 EnMin= -157.764480348688     IErMin= 1 ErrMin= 2.52D-02
 ErrMax= 2.52D-02  0.00D+00 EMaxC= 1.00D-01 BMatC= 3.35D-01 BMatP= 3.35D-01
 IDIUse=3 WtCom= 7.48D-01 WtEn= 2.52D-01
 Coeff-Com:  0.100D+01
 Coeff-En:   0.100D+01
 Coeff:      0.100D+01
 Gap=     0.382 Goal=   None    Shift=    0.000
 GapD=    0.382 DampG=1.000 DampE=0.500 DampFc=0.5000 IDamp=-1.
 Damping current iteration by 5.00D-01
 RMSDP=9.20D-04 MaxDP=6.62D-02              OVMax= 1.74D-01

 Cycle   2  Pass 0  IDiag  1:
 RMSU=  4.37D-04    CP:  9.53D-01
 E= -157.900860338066     Delta-E=       -0.136379989377 Rises=F Damp=T
 DIIS: error= 4.96D-03 at cycle   2 NSaved=   2.
 NSaved= 2 IEnMin= 2 EnMin= -157.900860338066     IErMin= 2 ErrMin= 4.96D-03
 ErrMax= 4.96D-03  0.00D+00 EMaxC= 1.00D-01 BMatC= 3.17D-02 BMatP= 3.35D-01
 IDIUse=3 WtCom= 9.50D-01 WtEn= 4.96D-02
 Coeff-Com: -0.191D+00 0.119D+01
 Coeff-En:   0.000D+00 0.100D+01
 Coeff:     -0.181D+00 0.118D+01
 Gap=     0.460 Goal=   None    Shift=    0.000
 RMSDP=2.27D-04 MaxDP=1.01D-02 DE=-1.36D-01 OVMax= 9.03D-02

 Cycle   3  Pass 0  IDiag  1:
 RMSU=  2.18D-04    CP:  9.39D-01  8.91D-01
 E= -158.024455828951     Delta-E=       -0.123595490886 Rises=F Damp=F
 DIIS: error= 2.66D-03 at cycle   3 NSaved=   3.
 NSaved= 3 IEnMin= 3 EnMin= -158.024455828951     IErMin= 3 ErrMin= 2.66D-03
 ErrMax= 2.66D-03  0.00D+00 EMaxC= 1.00D-01 BMatC= 2.68D-03 BMatP= 3.17D-02
 IDIUse=3 WtCom= 9.73D-01 WtEn= 2.66D-02
 Coeff-Com: -0.990D-01 0.206D+00 0.893D+00
 Coeff-En:   0.000D+00 0.000D+00 0.100D+01
 Coeff:     -0.963D-01 0.201D+00 0.895D+00
 Gap=     0.418 Goal=   None    Shift=    0.000
 RMSDP=6.08D-05 MaxDP=4.65D-03 DE=-1.24D-01 OVMax= 1.37D-02

 Cycle   4  Pass 0  IDiag  1:
 RMSU=  4.55D-05    CP:  9.35D-01  9.79D-01  9.83D-01
 E= -158.026982085582     Delta-E=       -0.002526256631 Rises=F Damp=F
 DIIS: error= 8.50D-04 at cycle   4 NSaved=   4.
 NSaved= 4 IEnMin= 4 EnMin= -158.026982085582     IErMin= 4 ErrMin= 8.50D-04
 ErrMax= 8.50D-04  0.00D+00 EMaxC= 1.00D-01 BMatC= 2.90D-04 BMatP= 2.68D-03
 IDIUse=3 WtCom= 9.92D-01 WtEn= 8.50D-03
 Coeff-Com: -0.329D-01 0.506D-01 0.353D+00 0.629D+00
 Coeff-En:   0.000D+00 0.000D+00 0.000D+00 0.100D+01
 Coeff:     -0.326D-01 0.502D-01 0.350D+00 0.632D+00
 Gap=     0.421 Goal=   None    Shift=    0.000
 RMSDP=1.84D-05 MaxDP=1.26D-03 DE=-2.53D-03 OVMax= 4.46D-03

 Cycle   5  Pass 0  IDiag  1:
 RMSU=  1.33D-05    CP:  9.36D-01  9.66D-01  1.02D+00  8.14D-01
 E= -158.027256740098     Delta-E=       -0.000274654515 Rises=F Damp=F
 DIIS: error= 1.56D-04 at cycle   5 NSaved=   5.
 NSaved= 5 IEnMin= 5 EnMin= -158.027256740098     IErMin= 5 ErrMin= 1.56D-04
 ErrMax= 1.56D-04  0.00D+00 EMaxC= 1.00D-01 BMatC= 1.05D-05 BMatP= 2.90D-04
 IDIUse=3 WtCom= 9.98D-01 WtEn= 1.56D-03
 Coeff-Com: -0.247D-02 0.271D-03 0.436D-01 0.191D+00 0.768D+00
 Coeff-En:   0.000D+00 0.000D+00 0.000D+00 0.000D+00 0.100D+01
 Coeff:     -0.246D-02 0.271D-03 0.436D-01 0.190D+00 0.768D+00
 Gap=     0.420 Goal=   None    Shift=    0.000
 RMSDP=4.06D-06 MaxDP=2.90D-04 DE=-2.75D-04 OVMax= 7.53D-04

 Initial convergence to 1.0D-05 achieved.  Increase integral accuracy.
 Cycle   6  Pass 1  IDiag  1:
 E= -158.027260505888     Delta-E=       -0.000003765790 Rises=F Damp=F
 DIIS: error= 6.05D-05 at cycle   1 NSaved=   1.
 NSaved= 1 IEnMin= 1 EnMin= -158.027260505888     IErMin= 1 ErrMin= 6.05D-05
 ErrMax= 6.05D-05  0.00D+00 EMaxC= 1.00D-01 BMatC= 9.33D-07 BMatP= 9.33D-07
 IDIUse=1 WtCom= 1.00D+00 WtEn= 0.00D+00
 Coeff-Com:  0.100D+01
 Coeff:      0.100D+01
 Gap=     0.420 Goal=   None    Shift=    0.000
 RMSDP=4.06D-06 MaxDP=2.90D-04 DE=-3.77D-06 OVMax= 1.72D-04

 Cycle   7  Pass 1  IDiag  1:
 RMSU=  2.68D-05    CP:  1.00D+00
 E= -158.027261012083     Delta-E=       -0.000000506196 Rises=F Damp=F
 DIIS: error= 7.95D-06 at cycle   2 NSaved=   2.
 NSaved= 2 IEnMin= 2 EnMin= -158.027261012083     IErMin= 2 ErrMin= 7.95D-06
 ErrMax= 7.95D-06  0.00D+00 EMaxC= 1.00D-01 BMatC= 3.89D-08 BMatP= 9.33D-07
 IDIUse=1 WtCom= 1.00D+00 WtEn= 0.00D+00
 Coeff-Com:  0.537D-01 0.946D+00
 Coeff:      0.537D-01 0.946D+00
 Gap=     0.420 Goal=   None    Shift=    0.000
 RMSDP=9.40D-07 MaxDP=4.77D-05 DE=-5.06D-07 OVMax= 7.39D-05

 Cycle   8  Pass 1  IDiag  1:
 RMSU=  4.95D-07    CP:  1.00D+00  1.03D+00
 E= -158.027261035860     Delta-E=       -0.000000023777 Rises=F Damp=F
 DIIS: error= 5.81D-06 at cycle   3 NSaved=   3.
 NSaved= 3 IEnMin= 3 EnMin= -158.027261035860     IErMin= 3 ErrMin= 5.81D-06
 ErrMax= 5.81D-06  0.00D+00 EMaxC= 1.00D-01 BMatC= 2.30D-08 BMatP= 3.89D-08
 IDIUse=1 WtCom= 1.00D+00 WtEn= 0.00D+00
 Coeff-Com: -0.155D-01 0.429D+00 0.586D+00
 Coeff:     -0.155D-01 0.429D+00 0.586D+00
 Gap=     0.420 Goal=   None    Shift=    0.000
 RMSDP=1.67D-07 MaxDP=1.88D-05 DE=-2.38D-08 OVMax= 3.71D-05

 Cycle   9  Pass 1  IDiag  1:
 RMSU=  1.43D-07    CP:  1.00D+00  1.03D+00  9.16D-01
 E= -158.027261058318     Delta-E=       -0.000000022458 Rises=F Damp=F
 DIIS: error= 8.62D-07 at cycle   4 NSaved=   4.
 NSaved= 4 IEnMin= 4 EnMin= -158.027261058318     IErMin= 4 ErrMin= 8.62D-07
 ErrMax= 8.62D-07  0.00D+00 EMaxC= 1.00D-01 BMatC= 2.44D-10 BMatP= 2.30D-08
 IDIUse=1 WtCom= 1.00D+00 WtEn= 0.00D+00
 Coeff-Com: -0.447D-02 0.590D-03 0.577D-01 0.946D+00
 Coeff:     -0.447D-02 0.590D-03 0.577D-01 0.946D+00
 Gap=     0.420 Goal=   None    Shift=    0.000
 RMSDP=4.01D-08 MaxDP=1.90D-06 DE=-2.25D-08 OVMax= 6.36D-06

 Cycle  10  Pass 1  IDiag  1:
 RMSU=  2.92D-08    CP:  1.00D+00  1.03D+00  9.60D-01  1.09D+00
 E= -158.027261058692     Delta-E=       -0.000000000374 Rises=F Damp=F
 DIIS: error= 2.63D-07 at cycle   5 NSaved=   5.
 NSaved= 5 IEnMin= 5 EnMin= -158.027261058692     IErMin= 5 ErrMin= 2.63D-07
 ErrMax= 2.63D-07  0.00D+00 EMaxC= 1.00D-01 BMatC= 2.83D-11 BMatP= 2.44D-10
 IDIUse=1 WtCom= 1.00D+00 WtEn= 0.00D+00
 Coeff-Com:  0.386D-03-0.378D-01-0.403D-01 0.214D+00 0.864D+00
 Coeff:      0.386D-03-0.378D-01-0.403D-01 0.214D+00 0.864D+00
 Gap=     0.420 Goal=   None    Shift=    0.000
 RMSDP=1.30D-08 MaxDP=7.06D-07 DE=-3.74D-10 OVMax= 2.06D-06

 Cycle  11  Pass 1  IDiag  1:
 RMSU=  9.03D-09    CP:  1.00D+00  1.03D+00  9.71D-01  1.14D+00  1.15D+00
 E= -158.027261058724     Delta-E=       -0.000000000033 Rises=F Damp=F
 DIIS: error= 5.80D-08 at cycle   6 NSaved=   6.
 NSaved= 6 IEnMin= 6 EnMin= -158.027261058724     IErMin= 6 ErrMin= 5.80D-08
 ErrMax= 5.80D-08  0.00D+00 EMaxC= 1.00D-01 BMatC= 2.42D-12 BMatP= 2.83D-11
 IDIUse=1 WtCom= 1.00D+00 WtEn= 0.00D+00
 Coeff-Com:  0.322D-03-0.143D-01-0.175D-01 0.441D-01 0.321D+00 0.667D+00
 Coeff:      0.322D-03-0.143D-01-0.175D-01 0.441D-01 0.321D+00 0.667D+00
 Gap=     0.420 Goal=   None    Shift=    0.000
 RMSDP=2.08D-09 MaxDP=1.32D-07 DE=-3.26D-11 OVMax= 3.64D-07

 SCF Done:  E(RB2PLYPD3) =  -158.027261059     A.U. after   11 cycles
            NFock= 11  Conv=0.21D-08     -V/T= 2.0042
 KE= 1.573601030682D+02 PE=-6.231639581704D+02 EE= 1.789913363349D+02
 Leave Link  502 at Wed Aug 26 22:44:06 2020, MaxMem=  2097152000 cpu:      3153.6
 (Enter /opt/cluster/programs/g09/g09_d.01/g09/l801.exe)
 DoSCS=T DFT=T ScalE2(SS,OS)=  0.270000  0.270000
 ExpMin= 7.60D-02 ExpMax= 6.70D+04 ExpMxC= 6.47D+02 IAcc=3 IRadAn=         5 AccDes= 0.00D+00
 HarFok:  IExCor=  205 AccDes= 0.00D+00 IRadAn=         5 IDoV=-2 UseB2=F ITyADJ=14
 ICtDFT= 12500011 ScaDFX=  1.000000  1.000000  1.000000  1.000000
 Largest valence mixing into a core orbital is  1.21D-04
 Largest core mixing into a valence orbital is  1.81D-05
 Range of M.O.s used for correlation:     5   528
 NBasis=   528 NAE=    17 NBE=    17 NFC=     4 NFV=     0
 NROrb=    524 NOA=    13 NOB=    13 NVA=   511 NVB=   511

 **** Warning!!: The largest alpha MO coefficient is  0.37431613D+02

 Leave Link  801 at Wed Aug 26 22:44:06 2020, MaxMem=  2097152000 cpu:         1.3
 (Enter /opt/cluster/programs/g09/g09_d.01/g09/l906.exe)
 DoSCS=T DFT=T ScalE2(SS,OS)=  0.270000  0.270000
 FulOut=F Deriv=F AODrv=F NAtomX=    14
   MMem=         463  MDisk=          13 MDiskD=          13
  W3Min=     4238234 MinDsk=     6904766 NBas6D=         638
 NBas2D=      205689    NTT=      203841    LW2=     4508827
    MDV=  2095902280 MDiskM=        7293 NBas2p=      189535
 Fully direct method using O(OVN) memory.
 IMap=   1   2   3   4   5   6   7   8   9  10  11  12  13
 JobTyp=1 Pass  1:  I=   1 to  13 NPSUse=  8 ParTrn=T ParDer=T DoDerP=F.
 Spin components of T(2) and E(2):
     alpha-alpha T2 =       0.4132715935D-01 E2=     -0.2632063348D-01
     alpha-beta  T2 =       0.2740720194D+00 E2=     -0.1958729791D+00
     beta-beta   T2 =       0.4132715935D-01 E2=     -0.2632063348D-01
 The integrals were generated   1 times.
 E2(B2PLYPD3) =    -0.2485142461D+00 E(B2PLYPD3) =    -0.15827577530478D+03
 Leave Link  906 at Wed Aug 26 22:52:01 2020, MaxMem=  2097152000 cpu:      3793.9
 (Enter /opt/cluster/programs/g09/g09_d.01/g09/l601.exe)
 Copying SCF densities to generalized density rwf, IOpCl= 0 IROHF=0.

 **********************************************************************

            Population analysis using the SCF density.

 **********************************************************************

 Orbital symmetries:
       Occupied  (A) (A) (A) (A) (A) (A) (A) (A) (A) (A) (A) (A)
                 (A) (A) (A) (A) (A)
       Virtual   (A) (A) (A) (A) (A) (A) (A) (A) (A) (A) (A) (A)
                 (A) (A) (A) (A) (A) (A) (A) (A) (A) (A) (A) (A)
                 (A) (A) (A) (A) (A) (A) (A) (A) (A) (A) (A) (A)
                 (A) (A) (A) (A) (A) (A) (A) (A) (A) (A) (A) (A)
                 (A) (A) (A) (A) (A) (A) (A) (A) (A) (A) (A) (A)
                 (A) (A) (A) (A) (A) (A) (A) (A) (A) (A) (A) (A)
                 (A) (A) (A) (A) (A) (A) (A) (A) (A) (A) (A) (A)
                 (A) (A) (A) (A) (A) (A) (A) (A) (A) (A) (A) (A)
                 (A) (A) (A) (A) (A) (A) (A) (A) (A) (A) (A) (A)
                 (A) (A) (A) (A) (A) (A) (A) (A) (A) (A) (A) (A)
                 (A) (A) (A) (A) (A) (A) (A) (A) (A) (A) (A) (A)
                 (A) (A) (A) (A) (A) (A) (A) (A) (A) (A) (A) (A)
                 (A) (A) (A) (A) (A) (A) (A) (A) (A) (A) (A) (A)
                 (A) (A) (A) (A) (A) (A) (A) (A) (A) (A) (A) (A)
                 (A) (A) (A) (A) (A) (A) (A) (A) (A) (A) (A) (A)
                 (A) (A) (A) (A) (A) (A) (A) (A) (A) (A) (A) (A)
                 (A) (A) (A) (A) (A) (A) (A) (A) (A) (A) (A) (A)
                 (A) (A) (A) (A) (A) (A) (A) (A) (A) (A) (A) (A)
                 (A) (A) (A) (A) (A) (A) (A) (A) (A) (A) (A) (A)
                 (A) (A) (A) (A) (A) (A) (A) (A) (A) (A) (A) (A)
                 (A) (A) (A) (A) (A) (A) (A) (A) (A) (A) (A) (A)
                 (A) (A) (A) (A) (A) (A) (A) (A) (A) (A) (A) (A)
                 (A) (A) (A) (A) (A) (A) (A) (A) (A) (A) (A) (A)
                 (A) (A) (A) (A) (A) (A) (A) (A) (A) (A) (A) (A)
                 (A) (A) (A) (A) (A) (A) (A) (A) (A) (A) (A) (A)
                 (A) (A) (A) (A) (A) (A) (A) (A) (A) (A) (A) (A)
                 (A) (A) (A) (A) (A) (A) (A) (A) (A) (A) (A) (A)
                 (A) (A) (A) (A) (A) (A) (A) (A) (A) (A) (A) (A)
                 (A) (A) (A) (A) (A) (A) (A) (A) (A) (A) (A) (A)
                 (A) (A) (A) (A) (A) (A) (A) (A) (A) (A) (A) (A)
                 (A) (A) (A) (A) (A) (A) (A) (A) (A) (A) (A) (A)
                 (A) (A) (A) (A) (A) (A) (A) (A) (A) (A) (A) (A)
                 (A) (A) (A) (A) (A) (A) (A) (A) (A) (A) (A) (A)
                 (A) (A) (A) (A) (A) (A) (A) (A) (A) (A) (A) (A)
                 (A) (A) (A) (A) (A) (A) (A) (A) (A) (A) (A) (A)
                 (A) (A) (A) (A) (A) (A) (A) (A) (A) (A) (A) (A)
                 (A) (A) (A) (A) (A) (A) (A) (A) (A) (A) (A) (A)
                 (A) (A) (A) (A) (A) (A) (A) (A) (A) (A) (A) (A)
                 (A) (A) (A) (A) (A) (A) (A) (A) (A) (A) (A) (A)
                 (A) (A) (A) (A) (A) (A) (A) (A) (A) (A) (A) (A)
                 (A) (A) (A) (A) (A) (A) (A) (A) (A) (A) (A) (A)
                 (A) (A) (A) (A) (A) (A) (A) (A) (A) (A) (A) (A)
                 (A) (A) (A) (A) (A) (A) (A)
 The electronic state is 1-A.
 Alpha  occ. eigenvalues --  -10.63243 -10.61638 -10.60555 -10.59232  -0.90873
 Alpha  occ. eigenvalues --   -0.83723  -0.72825  -0.65591  -0.54028  -0.50579
 Alpha  occ. eigenvalues --   -0.48443  -0.46929  -0.41881  -0.40505  -0.39323
 Alpha  occ. eigenvalues --   -0.37675  -0.36446
 Alpha virt. eigenvalues --    0.05575   0.06717   0.08222   0.08566   0.10600
 Alpha virt. eigenvalues --    0.11748   0.12553   0.13550   0.14433   0.15189
 Alpha virt. eigenvalues --    0.15961   0.16822   0.19023   0.19587   0.21340
 Alpha virt. eigenvalues --    0.22364   0.22827   0.24061   0.26211   0.28528
 Alpha virt. eigenvalues --    0.30447   0.31386   0.32704   0.32893   0.35765
 Alpha virt. eigenvalues --    0.36001   0.36449   0.36912   0.38335   0.38807
 Alpha virt. eigenvalues --    0.39483   0.40975   0.42987   0.43735   0.46008
 Alpha virt. eigenvalues --    0.49316   0.50416   0.52421   0.55807   0.57212
 Alpha virt. eigenvalues --    0.60052   0.61424   0.64298   0.65423   0.66365
 Alpha virt. eigenvalues --    0.66864   0.67147   0.69657   0.70278   0.72297
 Alpha virt. eigenvalues --    0.73120   0.75076   0.76260   0.76855   0.77632
 Alpha virt. eigenvalues --    0.80095   0.81123   0.83451   0.85313   0.87179
 Alpha virt. eigenvalues --    0.87706   0.88402   0.88470   0.90281   0.91803
 Alpha virt. eigenvalues --    0.92900   0.94267   0.96630   0.97152   0.98008
 Alpha virt. eigenvalues --    0.99136   0.99949   1.01151   1.01529   1.03004
 Alpha virt. eigenvalues --    1.04313   1.05999   1.06927   1.08053   1.10059
 Alpha virt. eigenvalues --    1.10895   1.12523   1.15073   1.17744   1.18520
 Alpha virt. eigenvalues --    1.19586   1.22249   1.24139   1.24962   1.26033
 Alpha virt. eigenvalues --    1.30996   1.31485   1.34146   1.36562   1.37137
 Alpha virt. eigenvalues --    1.37707   1.37943   1.39542   1.43895   1.45709
 Alpha virt. eigenvalues --    1.48207   1.50715   1.51666   1.52460   1.55897
 Alpha virt. eigenvalues --    1.56562   1.60626   1.64808   1.68339   1.72168
 Alpha virt. eigenvalues --    1.73368   1.83667   1.85240   1.88627   1.90814
 Alpha virt. eigenvalues --    1.92126   1.92904   1.95310   1.97781   1.97948
 Alpha virt. eigenvalues --    2.00684   2.02853   2.04098   2.05284   2.06040
 Alpha virt. eigenvalues --    2.06758   2.08186   2.08897   2.10058   2.10326
 Alpha virt. eigenvalues --    2.11371   2.12219   2.13798   2.14545   2.15945
 Alpha virt. eigenvalues --    2.17618   2.19298   2.20555   2.21682   2.22645
 Alpha virt. eigenvalues --    2.25186   2.25806   2.26792   2.28446   2.29340
 Alpha virt. eigenvalues --    2.31325   2.31744   2.35154   2.35585   2.37389
 Alpha virt. eigenvalues --    2.38825   2.41055   2.43398   2.46484   2.46622
 Alpha virt. eigenvalues --    2.49247   2.51159   2.51803   2.54740   2.55380
 Alpha virt. eigenvalues --    2.57193   2.58412   2.59235   2.60584   2.62818
 Alpha virt. eigenvalues --    2.63699   2.65879   2.67158   2.69093   2.70187
 Alpha virt. eigenvalues --    2.72479   2.73010   2.75088   2.75584   2.77316
 Alpha virt. eigenvalues --    2.78720   2.80249   2.81725   2.84291   2.86332
 Alpha virt. eigenvalues --    2.87843   2.89530   2.91337   2.93253   2.93644
 Alpha virt. eigenvalues --    2.95796   2.97879   2.98048   3.00665   3.01325
 Alpha virt. eigenvalues --    3.03609   3.03855   3.06423   3.07709   3.09307
 Alpha virt. eigenvalues --    3.12413   3.13149   3.14617   3.17065   3.18741
 Alpha virt. eigenvalues --    3.19924   3.21931   3.24629   3.25745   3.31605
 Alpha virt. eigenvalues --    3.32175   3.32943   3.34530   3.35736   3.38362
 Alpha virt. eigenvalues --    3.39168   3.42990   3.44987   3.46320   3.47334
 Alpha virt. eigenvalues --    3.50429   3.52004   3.53517   3.55036   3.57728
 Alpha virt. eigenvalues --    3.60340   3.62452   3.66076   3.68303   3.71634
 Alpha virt. eigenvalues --    3.71812   3.75283   3.76451   3.78710   3.82993
 Alpha virt. eigenvalues --    3.85816   3.86873   3.89309   3.93029   3.95809
 Alpha virt. eigenvalues --    3.97821   4.00335   4.02976   4.06143   4.07523
 Alpha virt. eigenvalues --    4.10761   4.12945   4.18868   4.21325   4.23125
 Alpha virt. eigenvalues --    4.26354   4.33929   4.36682   4.43736   4.47497
 Alpha virt. eigenvalues --    4.52577   4.59888   4.63644   4.76350   4.92748
 Alpha virt. eigenvalues --    5.07969   5.15120   5.18462   5.21738   5.28222
 Alpha virt. eigenvalues --    5.37449   5.38128   5.45908   5.48457   5.50586
 Alpha virt. eigenvalues --    5.54888   5.58102   5.64590   5.65887   5.68803
 Alpha virt. eigenvalues --    5.70136   5.71935   5.73967   5.76603   5.77586
 Alpha virt. eigenvalues --    5.80914   5.82713   5.84064   5.86227   5.87340
 Alpha virt. eigenvalues --    5.88986   5.92928   5.94921   5.95392   5.98070
 Alpha virt. eigenvalues --    5.98731   6.00157   6.02032   6.03599   6.05556
 Alpha virt. eigenvalues --    6.06531   6.07767   6.08931   6.10833   6.12141
 Alpha virt. eigenvalues --    6.12718   6.14822   6.16945   6.17737   6.19000
 Alpha virt. eigenvalues --    6.19598   6.20440   6.22876   6.26148   6.27138
 Alpha virt. eigenvalues --    6.27854   6.30883   6.32507   6.35235   6.35751
 Alpha virt. eigenvalues --    6.35990   6.38618   6.40238   6.41132   6.41856
 Alpha virt. eigenvalues --    6.44384   6.45716   6.49819   6.51403   6.52795
 Alpha virt. eigenvalues --    6.54882   6.56279   6.57509   6.61228   6.63891
 Alpha virt. eigenvalues --    6.64659   6.67180   6.68023   6.70084   6.72312
 Alpha virt. eigenvalues --    6.73398   6.76547   6.78982   6.82693   6.83433
 Alpha virt. eigenvalues --    6.83778   6.85585   6.87050   6.88096   6.92339
 Alpha virt. eigenvalues --    6.93404   6.95661   6.96957   6.98599   7.02333
 Alpha virt. eigenvalues --    7.05706   7.06320   7.10078   7.13954   7.15085
 Alpha virt. eigenvalues --    7.15804   7.17495   7.21906   7.23631   7.25007
 Alpha virt. eigenvalues --    7.27327   7.29368   7.32228   7.34982   7.37708
 Alpha virt. eigenvalues --    7.38829   7.41353   7.44012   7.48734   7.51400
 Alpha virt. eigenvalues --    7.52398   7.56099   7.58388   7.59402   7.63743
 Alpha virt. eigenvalues --    7.65235   7.65792   7.68243   7.68809   7.71274
 Alpha virt. eigenvalues --    7.74250   7.75119   7.77188   7.78172   7.79986
 Alpha virt. eigenvalues --    7.82178   7.83323   7.83962   7.85807   7.88079
 Alpha virt. eigenvalues --    7.89786   7.91468   7.92352   7.95441   7.95602
 Alpha virt. eigenvalues --    7.96964   7.98900   7.99603   8.01922   8.02926
 Alpha virt. eigenvalues --    8.07087   8.07668   8.09262   8.10131   8.12222
 Alpha virt. eigenvalues --    8.15545   8.19865   8.21962   8.24059   8.26272
 Alpha virt. eigenvalues --    8.29096   8.29293   8.31504   8.35382   8.36947
 Alpha virt. eigenvalues --    8.37518   8.38791   8.41499   8.43181   8.44009
 Alpha virt. eigenvalues --    8.46505   8.47036   8.48635   8.51865   8.53568
 Alpha virt. eigenvalues --    8.54270   8.57135   8.59648   8.62163   8.63031
 Alpha virt. eigenvalues --    8.63331   8.63625   8.67295   8.67553   8.70942
 Alpha virt. eigenvalues --    8.73072   8.74496   8.76348   8.78071   8.80265
 Alpha virt. eigenvalues --    8.84377   8.87778   8.89061   8.89680   8.94541
 Alpha virt. eigenvalues --    8.94977   8.96307   9.00678   9.02943   9.07579
 Alpha virt. eigenvalues --    9.10521   9.12511   9.15490   9.18496   9.19165
 Alpha virt. eigenvalues --    9.20684   9.26696   9.27312   9.29394   9.32018
 Alpha virt. eigenvalues --    9.38045   9.39308   9.42305   9.43731   9.48471
 Alpha virt. eigenvalues --    9.52606   9.55287   9.58511   9.60342   9.63182
 Alpha virt. eigenvalues --    9.65703   9.70336   9.73681   9.76778   9.77245
 Alpha virt. eigenvalues --    9.81558   9.85360   9.87005   9.98887  10.00282
 Alpha virt. eigenvalues --   10.02705  10.05081  10.06041  10.14100  10.17971
 Alpha virt. eigenvalues --   10.26941  10.32987  10.35359  10.40221  10.44213
 Alpha virt. eigenvalues --   10.46204  10.55400  10.59427  10.68673  10.75636
 Alpha virt. eigenvalues --   10.78634  11.47564  11.60455  11.78502  11.85333
 Alpha virt. eigenvalues --   12.06083  12.14849  12.19797  12.42588  12.58558
 Alpha virt. eigenvalues --   12.62573  13.05811  13.22976  29.10333  29.24554
 Alpha virt. eigenvalues --   29.46203  29.57564 148.71001 148.86086 149.13331
 Alpha virt. eigenvalues --  149.27957
          Condensed to atoms (all electrons):
               1          2          3          4          5          6
     1  C    4.762841   0.359996   0.413364   0.400945   0.396507  -0.051932
     2  C    0.359996   4.804755  -0.030522  -0.046039  -0.075165   0.380837
     3  H    0.413364  -0.030522   0.655061  -0.030248  -0.046654   0.009585
     4  H    0.400945  -0.046039  -0.030248   0.648742  -0.022459  -0.001631
     5  H    0.396507  -0.075165  -0.046654  -0.022459   0.702189  -0.023559
     6  C   -0.051932   0.380837   0.009585  -0.001631  -0.023559   4.817915
     7  H   -0.042935   0.396591  -0.003453  -0.004264   0.014016  -0.052655
     8  H   -0.066548   0.390277  -0.011010   0.012193  -0.011344  -0.055373
     9  C    0.005917  -0.044646  -0.000625  -0.000204   0.000837   0.381560
    10  H   -0.009892  -0.047369   0.000350   0.000083   0.003523   0.379423
    11  H    0.000130  -0.044662  -0.000495   0.003912   0.000646   0.378514
    12  H    0.000147  -0.004241  -0.000012  -0.000009   0.000207  -0.040807
    13  H   -0.000440   0.006418   0.000027   0.000021  -0.000050  -0.036083
    14  H   -0.000234  -0.004775   0.000012   0.000013  -0.000098  -0.028935
               7          8          9         10         11         12
     1  C   -0.042935  -0.066548   0.005917  -0.009892   0.000130   0.000147
     2  C    0.396591   0.390277  -0.044646  -0.047369  -0.044662  -0.004241
     3  H   -0.003453  -0.011010  -0.000625   0.000350  -0.000495  -0.000012
     4  H   -0.004264   0.012193  -0.000204   0.000083   0.003912  -0.000009
     5  H    0.014016  -0.011344   0.000837   0.003523   0.000646   0.000207
     6  C   -0.052655  -0.055373   0.381560   0.379423   0.378514  -0.040807
     7  H    0.699252  -0.042082  -0.000408   0.009033  -0.004482   0.000404
     8  H   -0.042082   0.736033  -0.007497  -0.005957   0.011172   0.003319
     9  C   -0.000408  -0.007497   4.726245  -0.032601  -0.044560   0.385624
    10  H    0.009033  -0.005957  -0.032601   0.709742  -0.031772  -0.001411
    11  H   -0.004482   0.011172  -0.044560  -0.031772   0.706700   0.007282
    12  H    0.000404   0.003319   0.385624  -0.001411   0.007282   0.681533
    13  H   -0.000258   0.000181   0.408066  -0.003188  -0.001873  -0.030219
    14  H    0.002384  -0.000186   0.435309   0.006802  -0.003830  -0.026454
              13         14
     1  C   -0.000440  -0.000234
     2  C    0.006418  -0.004775
     3  H    0.000027   0.000012
     4  H    0.000021   0.000013
     5  H   -0.000050  -0.000098
     6  C   -0.036083  -0.028935
     7  H   -0.000258   0.002384
     8  H    0.000181  -0.000186
     9  C    0.408066   0.435309
    10  H   -0.003188   0.006802
    11  H   -0.001873  -0.003830
    12  H   -0.030219  -0.026454
    13  H    0.647892  -0.040769
    14  H   -0.040769   0.523673
 Mulliken charges:
               1
     1  C   -0.167865
     2  C   -0.041453
     3  H    0.044619
     4  H    0.038944
     5  H    0.061405
     6  C   -0.056861
     7  H    0.028857
     8  H    0.046822
     9  C   -0.213016
    10  H    0.023234
    11  H    0.023319
    12  H    0.024634
    13  H    0.050276
    14  H    0.137086
 Sum of Mulliken charges =   0.00000
 Mulliken charges with hydrogens summed into heavy atoms:
               1
     1  C   -0.022897
     2  C    0.034225
     6  C   -0.010308
     9  C   -0.001020
 Electronic spatial extent (au):  <R**2>=            438.1778
 Charge=              0.0000 electrons
 Dipole moment (field-independent basis, Debye):
    X=              0.2532    Y=             -0.1634    Z=              0.0376  Tot=              0.3037
 Quadrupole moment (field-independent basis, Debye-Ang):
   XX=            -29.6713   YY=            -29.5788   ZZ=            -28.0981
   XY=              0.5082   XZ=             -0.7096   YZ=             -0.4120
 Traceless Quadrupole moment (field-independent basis, Debye-Ang):
   XX=             -0.5553   YY=             -0.4627   ZZ=              1.0180
   XY=              0.5082   XZ=             -0.7096   YZ=             -0.4120
 Octapole moment (field-independent basis, Debye-Ang**2):
  XXX=              5.8814  YYY=             -1.1684  ZZZ=             -0.4666  XYY=              0.6698
  XXY=             -0.6379  XXZ=             -0.1868  XZZ=              0.2544  YZZ=             -0.3619
  YYZ=             -0.3660  XYZ=              1.3753
 Hexadecapole moment (field-independent basis, Debye-Ang**3):
 XXXX=           -476.9822 YYYY=            -96.7889 ZZZZ=            -63.5428 XXXY=              8.8409
 XXXZ=             -4.7523 YYYX=              1.4198 YYYZ=             -0.4467 ZZZX=             -2.3663
 ZZZY=              0.3395 XXYY=            -94.2898 XXZZ=            -88.2381 YYZZ=            -24.0781
 XXYZ=             -2.8263 YYXZ=             -0.0077 ZZXY=             -1.0083
 N-N= 1.287852577085D+02 E-N=-6.231639559634D+02  KE= 1.573601030682D+02
 Leave Link  601 at Wed Aug 26 22:52:02 2020, MaxMem=  2097152000 cpu:         1.3
 (Enter /opt/cluster/programs/g09/g09_d.01/g09/l9999.exe)
 1\1\GINC-NODE10\SP\RB2PLYPD3-FC\def2QZVP\C4H10\BOITTIER\26-Aug-2020\0\
 \#p B2PLYPD3/Def2QZVP\\butane_opt\\0,1\C,0,-3.963348,0.241287,0.095533
 \C,0,-2.754742,-0.589329,-0.115229\H,0,-4.894118,-0.309121,0.568839\H,
 0,-4.216238,0.991977,-0.847383\H,0,-3.578467,0.704222,0.963367\C,0,-1.
 413205,0.217671,-0.050515\H,0,-2.748039,-1.316417,-0.940762\H,0,-2.755
 741,-1.168118,0.791936\C,0,-0.083708,-0.732706,0.100828\H,0,-1.55917,0
 .964253,0.848785\H,0,-1.286333,0.855797,-1.012083\H,0,-0.196491,-1.419
 27,1.076379\H,0,0.824454,-0.186041,0.232569\H,0,-0.030137,-1.223285,-0
 .611072\\Version=ES64L-G09RevD.01\State=1-A\HF=-158.0272611\MP2=-158.2
 757753\RMSD=2.082e-09\PG=C01 [X(C4H10)]\\@


       THE DEATH-KNELL OF THE ATOM

 SO THE ATOMS IN TURN, WE NOW CLEARLY DISCERN,
 FLY TO BITS WITH THE UTMOST FACILITY;
 THEY WEND ON THEIR WAY, AND, IN SPLITTING, DISPLAY
 AN ABSOLUTE LACK OF STABILITY.

          SIR WM. RAMSAY, 1905
 Job cpu time:       0 days  1 hours 56 minutes 13.8 seconds.
 File lengths (MBytes):  RWF=    152 Int=      0 D2E=      0 Chk=     14 Scr=      1
 Normal termination of Gaussian 09 at Wed Aug 26 22:52:02 2020.
