 Entering Gaussian System, Link 0=/opt/cluster/programs/g09/g09_d.01/g09//g09
 Input=/home/boittier/MDCM/nms_sampling/butane_geom.xyz.dir/energies/butane_opt_493_energy.com
 Output=/scratch/boittier/butane_opt_493_energy/butane_opt_493_energy.out
 Initial command:
 /opt/cluster/programs/g09/g09_d.01/g09/l1.exe "/scratch/boittier/butane_opt_493_energy/Gau-230277.inp" -scrdir="/scratch/boittier/butane_opt_493_energy/"
 Entering Link 1 = /opt/cluster/programs/g09/g09_d.01/g09/l1.exe PID=    230278.
  
 Copyright (c) 1988,1990,1992,1993,1995,1998,2003,2009,2013,
            Gaussian, Inc.  All Rights Reserved.
  
 This is part of the Gaussian(R) 09 program.  It is based on
 the Gaussian(R) 03 system (copyright 2003, Gaussian, Inc.),
 the Gaussian(R) 98 system (copyright 1998, Gaussian, Inc.),
 the Gaussian(R) 94 system (copyright 1995, Gaussian, Inc.),
 the Gaussian 92(TM) system (copyright 1992, Gaussian, Inc.),
 the Gaussian 90(TM) system (copyright 1990, Gaussian, Inc.),
 the Gaussian 88(TM) system (copyright 1988, Gaussian, Inc.),
 the Gaussian 86(TM) system (copyright 1986, Carnegie Mellon
 University), and the Gaussian 82(TM) system (copyright 1983,
 Carnegie Mellon University). Gaussian is a federally registered
 trademark of Gaussian, Inc.
  
 This software contains proprietary and confidential information,
 including trade secrets, belonging to Gaussian, Inc.
  
 This software is provided under written license and may be
 used, copied, transmitted, or stored only in accord with that
 written license.
  
 The following legend is applicable only to US Government
 contracts under FAR:
  
                    RESTRICTED RIGHTS LEGEND
  
 Use, reproduction and disclosure by the US Government is
 subject to restrictions as set forth in subparagraphs (a)
 and (c) of the Commercial Computer Software - Restricted
 Rights clause in FAR 52.227-19.
  
 Gaussian, Inc.
 340 Quinnipiac St., Bldg. 40, Wallingford CT 06492
  
  
 ---------------------------------------------------------------
 Warning -- This program may not be used in any manner that
 competes with the business of Gaussian, Inc. or will provide
 assistance to any competitor of Gaussian, Inc.  The licensee
 of this program is prohibited from giving any competitor of
 Gaussian, Inc. access to this program.  By using this program,
 the user acknowledges that Gaussian, Inc. is engaged in the
 business of creating and licensing software in the field of
 computational chemistry and represents and warrants to the
 licensee that it is not a competitor of Gaussian, Inc. and that
 it will not use this program in any manner prohibited above.
 ---------------------------------------------------------------
  

 Cite this work as:
 Gaussian 09, Revision D.01,
 M. J. Frisch, G. W. Trucks, H. B. Schlegel, G. E. Scuseria, 
 M. A. Robb, J. R. Cheeseman, G. Scalmani, V. Barone, B. Mennucci, 
 G. A. Petersson, H. Nakatsuji, M. Caricato, X. Li, H. P. Hratchian, 
 A. F. Izmaylov, J. Bloino, G. Zheng, J. L. Sonnenberg, M. Hada, 
 M. Ehara, K. Toyota, R. Fukuda, J. Hasegawa, M. Ishida, T. Nakajima, 
 Y. Honda, O. Kitao, H. Nakai, T. Vreven, J. A. Montgomery, Jr., 
 J. E. Peralta, F. Ogliaro, M. Bearpark, J. J. Heyd, E. Brothers, 
 K. N. Kudin, V. N. Staroverov, T. Keith, R. Kobayashi, J. Normand, 
 K. Raghavachari, A. Rendell, J. C. Burant, S. S. Iyengar, J. Tomasi, 
 M. Cossi, N. Rega, J. M. Millam, M. Klene, J. E. Knox, J. B. Cross, 
 V. Bakken, C. Adamo, J. Jaramillo, R. Gomperts, R. E. Stratmann, 
 O. Yazyev, A. J. Austin, R. Cammi, C. Pomelli, J. W. Ochterski, 
 R. L. Martin, K. Morokuma, V. G. Zakrzewski, G. A. Voth, 
 P. Salvador, J. J. Dannenberg, S. Dapprich, A. D. Daniels, 
 O. Farkas, J. B. Foresman, J. V. Ortiz, J. Cioslowski, 
 and D. J. Fox, Gaussian, Inc., Wallingford CT, 2013.
 
 ******************************************
 Gaussian 09:  ES64L-G09RevD.01 24-Apr-2013
                26-Aug-2020 
 ******************************************
 %chk=/home/boittier/MDCM/nms_sampling/butane_geom.xyz.dir/butane_opt_493.chk
 %nproc=8
 Will use up to    8 processors via shared memory.
 %mem=16000MB
 --------------------
 #p B2PLYPD3/Def2QZVP
 --------------------
 1/38=1/1;
 2/12=2,17=6,18=5,40=1/2;
 3/5=45,7=101,11=9,16=1,25=1,30=1,74=-60/1,2,3;
 4//1;
 5/5=2,38=5/2;
 8/10=1/1;
 9/16=-3/6;
 6/7=2,8=2,9=2,10=2/1;
 99/5=1,9=1/99;
 Leave Link    1 at Wed Aug 26 21:54:42 2020, MaxMem=  2097152000 cpu:         0.2
 (Enter /opt/cluster/programs/g09/g09_d.01/g09/l101.exe)
 ----------
 butane_opt
 ----------
 Symbolic Z-matrix:
 Charge =  0 Multiplicity = 1
 C                    -3.90447   0.22726  -0.15373 
 C                    -2.66154  -0.55831   0.19972 
 H                    -5.10438  -0.57104  -0.01911 
 H                    -3.7469    0.95222  -1.34538 
 H                    -4.10349   0.62039   0.49018 
 C                    -1.45551   0.22706   0.25166 
 H                    -2.54473  -1.3097   -0.66337 
 H                    -2.70798  -0.90953   0.92755 
 C                    -0.1881   -0.72989  -0.13389 
 H                    -1.00466   1.13715   1.22427 
 H                    -1.70062   0.66982  -0.42837 
 H                     0.35825  -1.74563   0.86016 
 H                     0.76499  -0.2381   -0.69793 
 H                    -0.65563  -1.10004  -0.81585 
 
 NAtoms=     14 NQM=       14 NQMF=       0 NMMI=      0 NMMIF=      0
                NMic=       0 NMicF=      0.
                    Isotopes and Nuclear Properties:
 (Nuclear quadrupole moments (NQMom) in fm**2, nuclear magnetic moments (NMagM)
  in nuclear magnetons)

  Atom         1           2           3           4           5           6           7           8           9          10
 IAtWgt=          12          12           1           1           1          12           1           1          12           1
 AtmWgt=  12.0000000  12.0000000   1.0078250   1.0078250   1.0078250  12.0000000   1.0078250   1.0078250  12.0000000   1.0078250
 NucSpn=           0           0           1           1           1           0           1           1           0           1
 AtZEff=   0.0000000   0.0000000   0.0000000   0.0000000   0.0000000   0.0000000   0.0000000   0.0000000   0.0000000   0.0000000
 NQMom=    0.0000000   0.0000000   0.0000000   0.0000000   0.0000000   0.0000000   0.0000000   0.0000000   0.0000000   0.0000000
 NMagM=    0.0000000   0.0000000   2.7928460   2.7928460   2.7928460   0.0000000   2.7928460   2.7928460   0.0000000   2.7928460
 AtZNuc=   6.0000000   6.0000000   1.0000000   1.0000000   1.0000000   6.0000000   1.0000000   1.0000000   6.0000000   1.0000000

  Atom        11          12          13          14
 IAtWgt=           1           1           1           1
 AtmWgt=   1.0078250   1.0078250   1.0078250   1.0078250
 NucSpn=           1           1           1           1
 AtZEff=   0.0000000   0.0000000   0.0000000   0.0000000
 NQMom=    0.0000000   0.0000000   0.0000000   0.0000000
 NMagM=    2.7928460   2.7928460   2.7928460   2.7928460
 AtZNuc=   1.0000000   1.0000000   1.0000000   1.0000000
 Leave Link  101 at Wed Aug 26 21:54:42 2020, MaxMem=  2097152000 cpu:         0.5
 (Enter /opt/cluster/programs/g09/g09_d.01/g09/l202.exe)
                          Input orientation:                          
 ---------------------------------------------------------------------
 Center     Atomic      Atomic             Coordinates (Angstroms)
 Number     Number       Type             X           Y           Z
 ---------------------------------------------------------------------
      1          6           0       -3.904467    0.227255   -0.153731
      2          6           0       -2.661539   -0.558314    0.199715
      3          1           0       -5.104379   -0.571035   -0.019111
      4          1           0       -3.746903    0.952220   -1.345378
      5          1           0       -4.103485    0.620392    0.490175
      6          6           0       -1.455514    0.227061    0.251655
      7          1           0       -2.544734   -1.309698   -0.663374
      8          1           0       -2.707979   -0.909532    0.927547
      9          6           0       -0.188096   -0.729890   -0.133891
     10          1           0       -1.004655    1.137151    1.224273
     11          1           0       -1.700621    0.669820   -0.428370
     12          1           0        0.358253   -1.745628    0.860162
     13          1           0        0.764989   -0.238102   -0.697926
     14          1           0       -0.655633   -1.100042   -0.815850
 ---------------------------------------------------------------------
                    Distance matrix (angstroms):
                    1          2          3          4          5
     1  C    0.000000
     2  C    1.512254   0.000000
     3  H    1.447473   2.452654   0.000000
     4  H    1.403718   2.418065   2.433522   0.000000
     5  H    0.780243   1.884920   1.637272   1.899083   0.000000
     6  C    2.482279   1.440142   3.744928   2.885625   2.687629
     7  H    2.114435   1.150280   2.740890   2.650776   2.735987
     8  H    1.973076   0.809475   2.598745   3.116356   2.116459
     9  C    3.837699   2.501730   4.920188   4.118532   4.188435
    10  H    3.337022   2.582554   4.612119   3.762609   3.226250
    11  H    2.264559   1.681121   3.645927   2.260072   2.572921
    12  H    4.805312   3.311351   5.656248   5.384709   5.063798
    13  H    4.724037   3.556598   5.917864   4.710969   5.084352
    14  H    3.571420   2.312683   4.550383   3.748083   4.068572
                    6          7          8          9         10
     6  C    0.000000
     7  H    2.094112   0.000000
     8  H    1.821357   1.648579   0.000000
     9  C    1.634243   2.484003   2.740207   0.000000
    10  H    1.406244   3.452843   2.679229   2.448922   0.000000
    11  H    0.847672   2.164774   2.312495   2.081739   1.853104
    12  H    2.748005   3.307345   3.178895   1.522617   3.209441
    13  H    2.459413   3.479048   3.892877   1.211760   2.952594
    14  H    1.881643   1.906805   2.699602   0.905909   3.047778
                   11         12         13         14
    11  H    0.000000
    12  H    3.425444   0.000000
    13  H    2.641253   2.205835   0.000000
    14  H    2.091543   2.062465   1.665837   0.000000
 Stoichiometry    C4H10
 Framework group  C1[X(C4H10)]
 Deg. of freedom    36
 Full point group                 C1      NOp   1
 Largest Abelian subgroup         C1      NOp   1
 Largest concise Abelian subgroup C1      NOp   1
                         Standard orientation:                         
 ---------------------------------------------------------------------
 Center     Atomic      Atomic             Coordinates (Angstroms)
 Number     Number       Type             X           Y           Z
 ---------------------------------------------------------------------
      1          6           0        1.908164    0.093571    0.133845
      2          6           0        0.535014   -0.435822   -0.214170
      3          1           0        2.937838   -0.904290   -0.064202
      4          1           0        1.911035    0.784192    1.355916
      5          1           0        2.162826    0.470493   -0.500077
      6          6           0       -0.506866    0.558343   -0.202794
      7          1           0        0.299774   -1.188908    0.622890
      8          1           0        0.501159   -0.758584   -0.955742
      9          6           0       -1.920443   -0.166088    0.181590
     10          1           0       -0.802560    1.575748   -1.127443
     11          1           0       -0.170647    0.919719    0.486344
     12          1           0       -2.664487   -1.021921   -0.834437
     13          1           0       -2.755098    0.467462    0.790135
     14          1           0       -1.515049   -0.643936    0.835797
 ---------------------------------------------------------------------
 Rotational constants (GHZ):     21.2415868      3.6537452      3.4881505
 Leave Link  202 at Wed Aug 26 21:54:42 2020, MaxMem=  2097152000 cpu:         0.0
 (Enter /opt/cluster/programs/g09/g09_d.01/g09/l301.exe)
 Standard basis: def2QZVP (5D, 7F)
 Ernie: Thresh=  0.10000D-02 Tol=  0.10000D-05 Strict=F.
 There are   638 symmetry adapted cartesian basis functions of A   symmetry.
 There are   528 symmetry adapted basis functions of A   symmetry.
   528 basis functions,   748 primitive gaussians,   638 cartesian basis functions
    17 alpha electrons       17 beta electrons
       nuclear repulsion energy       131.9147829732 Hartrees.
 IExCor=  419 DFT=T Ex+Corr=B2PLYPD3 ExCW=0 ScaHFX=  0.530000
 ScaDFX=  0.470000  0.470000  0.730000  0.730000 ScalE2=  0.270000  0.270000
 IRadAn=      0 IRanWt=     -1 IRanGd=            0 ICorTp=0 IEmpDi=141
 NAtoms=   14 NActive=   14 NUniq=   14 SFac= 1.00D+00 NAtFMM=   60 NAOKFM=F Big=F
 Integral buffers will be    131072 words long.
 Regular integral format.
 Two-electron integral symmetry is turned on.
 R6Disp:  Grimme-D3(BJ) Dispersion energy=       -0.0074949184 Hartrees.
 Nuclear repulsion after empirical dispersion term =      131.9072880548 Hartrees.
 Leave Link  301 at Wed Aug 26 21:54:42 2020, MaxMem=  2097152000 cpu:         0.4
 (Enter /opt/cluster/programs/g09/g09_d.01/g09/l302.exe)
 NPDir=0 NMtPBC=     1 NCelOv=     1 NCel=       1 NClECP=     1 NCelD=      1
         NCelK=      1 NCelE2=     1 NClLst=     1 CellRange=     0.0.
 One-electron integrals computed using PRISM.
   1 Symmetry operations used in ECPInt.
 ECPInt:  NShTT=   14196 NPrTT=   30597 LenC2=   13839 LenP2D=   25914.
 LDataN:  DoStor=T MaxTD1= 8 Len=  415
 NBasis=   528 RedAO= T EigKep=  2.40D-05  NBF=   528
 NBsUse=   528 1.00D-06 EigRej= -1.00D+00 NBFU=   528
 Precomputing XC quadrature grid using
 IXCGrd= 4 IRadAn=           0 IRanWt=          -1 IRanGd=           0 AccXCQ= 0.00D+00.
 Generated NRdTot=       0 NPtTot=           0 NUsed=           0 NTot=          32
 NSgBfM=   638   638   638   638   638 MxSgAt=    14 MxSgA2=    14.
 Leave Link  302 at Wed Aug 26 21:54:43 2020, MaxMem=  2097152000 cpu:         4.8
 (Enter /opt/cluster/programs/g09/g09_d.01/g09/l303.exe)
 DipDrv:  MaxL=1.
 Leave Link  303 at Wed Aug 26 21:54:43 2020, MaxMem=  2097152000 cpu:         0.5
 (Enter /opt/cluster/programs/g09/g09_d.01/g09/l401.exe)
 ExpMin= 7.60D-02 ExpMax= 6.70D+04 ExpMxC= 6.47D+02 IAcc=2 IRadAn=         4 AccDes= 0.00D+00
 Harris functional with IExCor=  419 and IRadAn=       4 diagonalized for initial guess.
 HarFok:  IExCor=  419 AccDes= 0.00D+00 IRadAn=         4 IDoV= 1 UseB2=F ITyADJ=14
 ICtDFT=  3500011 ScaDFX=  1.000000  1.000000  1.000000  1.000000
 FoFCou: FMM=F IPFlag=           0 FMFlag=      100000 FMFlg1=           0
         NFxFlg=           0 DoJE=T BraDBF=F KetDBF=T FulRan=T
         wScrn=  0.000000 ICntrl=     500 IOpCl=  0 I1Cent=   200000004 NGrid=           0
         NMat0=    1 NMatS0=      1 NMatT0=    0 NMatD0=    1 NMtDS0=    0 NMtDT0=    0
 Petite list used in FoFCou.
 Harris En= -158.181250521512    
 JPrj=0 DoOrth=F DoCkMO=F.
 Leave Link  401 at Wed Aug 26 21:54:45 2020, MaxMem=  2097152000 cpu:        14.6
 (Enter /opt/cluster/programs/g09/g09_d.01/g09/l502.exe)
 Closed shell SCF:
 Using DIIS extrapolation, IDIIS=  1040.
 Integral symmetry usage will be decided dynamically.
 IVT=     1249338 IEndB=     1249338 NGot=  2097152000 MDV=  2096326985
 LenX=  2096326985 LenY=  2095919303
 Requested convergence on RMS density matrix=1.00D-08 within 128 cycles.
 Requested convergence on MAX density matrix=1.00D-06.
 Requested convergence on             energy=1.00D-06.
 No special actions if energy rises.
 Fock matrices will be formed incrementally for  20 cycles.
 Integral accuracy reduced to 1.0D-05 until final iterations.

 Cycle   1  Pass 0  IDiag  1:
 FoFJK:  IHMeth= 1 ICntrl=       0 DoSepK=F KAlg= 0 I1Cent=   0 FoldK=F
 IRaf= 930000000 NMat=   1 IRICut=       1 DoRegI=T DoRafI=F ISym2E= 0.
 FoFCou: FMM=F IPFlag=           0 FMFlag=      100000 FMFlg1=           0
         NFxFlg=           0 DoJE=F BraDBF=F KetDBF=F FulRan=T
         wScrn=  0.000000 ICntrl=       0 IOpCl=  0 I1Cent=           0 NGrid=           0
         NMat0=    1 NMatS0=      1 NMatT0=    0 NMatD0=    1 NMtDS0=    0 NMtDT0=    0
 Symmetry not used in FoFCou.
 E= -157.190062525381    
 DIIS: error= 2.22D-02 at cycle   1 NSaved=   1.
 NSaved= 1 IEnMin= 1 EnMin= -157.190062525381     IErMin= 1 ErrMin= 2.22D-02
 ErrMax= 2.22D-02  0.00D+00 EMaxC= 1.00D-01 BMatC= 4.62D-01 BMatP= 4.62D-01
 IDIUse=3 WtCom= 7.78D-01 WtEn= 2.22D-01
 Coeff-Com:  0.100D+01
 Coeff-En:   0.100D+01
 Coeff:      0.100D+01
 Gap=     0.377 Goal=   None    Shift=    0.000
 GapD=    0.377 DampG=1.000 DampE=0.500 DampFc=0.5000 IDamp=-1.
 Damping current iteration by 5.00D-01
 RMSDP=1.44D-03 MaxDP=6.19D-02              OVMax= 2.61D-01

 Cycle   2  Pass 0  IDiag  1:
 RMSU=  6.94D-04    CP:  9.36D-01
 E= -157.382374792315     Delta-E=       -0.192312266934 Rises=F Damp=T
 DIIS: error= 5.37D-03 at cycle   2 NSaved=   2.
 NSaved= 2 IEnMin= 2 EnMin= -157.382374792315     IErMin= 2 ErrMin= 5.37D-03
 ErrMax= 5.37D-03  0.00D+00 EMaxC= 1.00D-01 BMatC= 3.70D-02 BMatP= 4.62D-01
 IDIUse=3 WtCom= 9.46D-01 WtEn= 5.37D-02
 Coeff-Com: -0.887D-01 0.109D+01
 Coeff-En:   0.000D+00 0.100D+01
 Coeff:     -0.839D-01 0.108D+01
 Gap=     0.457 Goal=   None    Shift=    0.000
 RMSDP=4.35D-04 MaxDP=2.69D-02 DE=-1.92D-01 OVMax= 1.58D-01

 Cycle   3  Pass 0  IDiag  1:
 RMSU=  3.59D-04    CP:  9.32D-01  6.45D-01
 E= -157.583615841470     Delta-E=       -0.201241049155 Rises=F Damp=F
 DIIS: error= 4.41D-03 at cycle   3 NSaved=   3.
 NSaved= 3 IEnMin= 3 EnMin= -157.583615841470     IErMin= 3 ErrMin= 4.41D-03
 ErrMax= 4.41D-03  0.00D+00 EMaxC= 1.00D-01 BMatC= 5.57D-03 BMatP= 3.70D-02
 IDIUse=3 WtCom= 9.56D-01 WtEn= 4.41D-02
 Coeff-Com: -0.987D-01 0.232D+00 0.867D+00
 Coeff-En:   0.000D+00 0.000D+00 0.100D+01
 Coeff:     -0.943D-01 0.221D+00 0.873D+00
 Gap=     0.392 Goal=   None    Shift=    0.000
 RMSDP=9.36D-05 MaxDP=9.94D-03 DE=-2.01D-01 OVMax= 2.35D-02

 Cycle   4  Pass 0  IDiag  1:
 RMSU=  7.86D-05    CP:  9.23D-01  6.98D-01  1.06D+00
 E= -157.589531611801     Delta-E=       -0.005915770331 Rises=F Damp=F
 DIIS: error= 1.09D-03 at cycle   4 NSaved=   4.
 NSaved= 4 IEnMin= 4 EnMin= -157.589531611801     IErMin= 4 ErrMin= 1.09D-03
 ErrMax= 1.09D-03  0.00D+00 EMaxC= 1.00D-01 BMatC= 3.59D-04 BMatP= 5.57D-03
 IDIUse=3 WtCom= 9.89D-01 WtEn= 1.09D-02
 Coeff-Com: -0.266D-01 0.391D-01 0.285D+00 0.702D+00
 Coeff-En:   0.000D+00 0.000D+00 0.000D+00 0.100D+01
 Coeff:     -0.263D-01 0.387D-01 0.282D+00 0.705D+00
 Gap=     0.391 Goal=   None    Shift=    0.000
 RMSDP=2.81D-05 MaxDP=2.38D-03 DE=-5.92D-03 OVMax= 5.40D-03

 Cycle   5  Pass 0  IDiag  1:
 RMSU=  2.19D-05    CP:  9.23D-01  6.82D-01  1.10D+00  9.18D-01
 E= -157.589861165066     Delta-E=       -0.000329553265 Rises=F Damp=F
 DIIS: error= 3.29D-04 at cycle   5 NSaved=   5.
 NSaved= 5 IEnMin= 5 EnMin= -157.589861165066     IErMin= 5 ErrMin= 3.29D-04
 ErrMax= 3.29D-04  0.00D+00 EMaxC= 1.00D-01 BMatC= 3.81D-05 BMatP= 3.59D-04
 IDIUse=3 WtCom= 9.97D-01 WtEn= 3.29D-03
 Coeff-Com: -0.607D-03-0.691D-02 0.309D-01 0.264D+00 0.713D+00
 Coeff-En:   0.000D+00 0.000D+00 0.000D+00 0.000D+00 0.100D+01
 Coeff:     -0.605D-03-0.689D-02 0.308D-01 0.263D+00 0.714D+00
 Gap=     0.391 Goal=   None    Shift=    0.000
 RMSDP=9.15D-06 MaxDP=5.27D-04 DE=-3.30D-04 OVMax= 1.84D-03

 Initial convergence to 1.0D-05 achieved.  Increase integral accuracy.
 Cycle   6  Pass 1  IDiag  1:
 E= -157.589886350814     Delta-E=       -0.000025185748 Rises=F Damp=F
 DIIS: error= 5.10D-05 at cycle   1 NSaved=   1.
 NSaved= 1 IEnMin= 1 EnMin= -157.589886350814     IErMin= 1 ErrMin= 5.10D-05
 ErrMax= 5.10D-05  0.00D+00 EMaxC= 1.00D-01 BMatC= 1.25D-06 BMatP= 1.25D-06
 IDIUse=1 WtCom= 1.00D+00 WtEn= 0.00D+00
 Coeff-Com:  0.100D+01
 Coeff:      0.100D+01
 Gap=     0.391 Goal=   None    Shift=    0.000
 RMSDP=9.15D-06 MaxDP=5.27D-04 DE=-2.52D-05 OVMax= 4.54D-04

 Cycle   7  Pass 1  IDiag  1:
 RMSU=  2.74D-05    CP:  1.00D+00
 E= -157.589887566761     Delta-E=       -0.000001215947 Rises=F Damp=F
 DIIS: error= 2.54D-05 at cycle   2 NSaved=   2.
 NSaved= 2 IEnMin= 2 EnMin= -157.589887566761     IErMin= 2 ErrMin= 2.54D-05
 ErrMax= 2.54D-05  0.00D+00 EMaxC= 1.00D-01 BMatC= 3.89D-07 BMatP= 1.25D-06
 IDIUse=1 WtCom= 1.00D+00 WtEn= 0.00D+00
 Coeff-Com:  0.310D+00 0.690D+00
 Coeff:      0.310D+00 0.690D+00
 Gap=     0.391 Goal=   None    Shift=    0.000
 RMSDP=1.05D-06 MaxDP=6.71D-05 DE=-1.22D-06 OVMax= 2.14D-04

 Cycle   8  Pass 1  IDiag  1:
 RMSU=  8.36D-07    CP:  1.00D+00  1.02D+00
 E= -157.589887926489     Delta-E=       -0.000000359728 Rises=F Damp=F
 DIIS: error= 1.08D-05 at cycle   3 NSaved=   3.
 NSaved= 3 IEnMin= 3 EnMin= -157.589887926489     IErMin= 3 ErrMin= 1.08D-05
 ErrMax= 1.08D-05  0.00D+00 EMaxC= 1.00D-01 BMatC= 5.41D-08 BMatP= 3.89D-07
 IDIUse=1 WtCom= 1.00D+00 WtEn= 0.00D+00
 Coeff-Com: -0.401D-01 0.232D+00 0.808D+00
 Coeff:     -0.401D-01 0.232D+00 0.808D+00
 Gap=     0.391 Goal=   None    Shift=    0.000
 RMSDP=5.80D-07 MaxDP=2.94D-05 DE=-3.60D-07 OVMax= 6.92D-05

 Cycle   9  Pass 1  IDiag  1:
 RMSU=  4.29D-07    CP:  1.00D+00  1.04D+00  1.01D+00
 E= -157.589887989201     Delta-E=       -0.000000062712 Rises=F Damp=F
 DIIS: error= 2.35D-06 at cycle   4 NSaved=   4.
 NSaved= 4 IEnMin= 4 EnMin= -157.589887989201     IErMin= 4 ErrMin= 2.35D-06
 ErrMax= 2.35D-06  0.00D+00 EMaxC= 1.00D-01 BMatC= 2.01D-09 BMatP= 5.41D-08
 IDIUse=1 WtCom= 1.00D+00 WtEn= 0.00D+00
 Coeff-Com: -0.272D-01 0.109D-01 0.178D+00 0.839D+00
 Coeff:     -0.272D-01 0.109D-01 0.178D+00 0.839D+00
 Gap=     0.391 Goal=   None    Shift=    0.000
 RMSDP=1.17D-07 MaxDP=6.50D-06 DE=-6.27D-08 OVMax= 1.86D-05

 Cycle  10  Pass 1  IDiag  1:
 RMSU=  8.86D-08    CP:  1.00D+00  1.04D+00  1.05D+00  1.15D+00
 E= -157.589887992122     Delta-E=       -0.000000002922 Rises=F Damp=F
 DIIS: error= 6.54D-07 at cycle   5 NSaved=   5.
 NSaved= 5 IEnMin= 5 EnMin= -157.589887992122     IErMin= 5 ErrMin= 6.54D-07
 ErrMax= 6.54D-07  0.00D+00 EMaxC= 1.00D-01 BMatC= 1.92D-10 BMatP= 2.01D-09
 IDIUse=1 WtCom= 1.00D+00 WtEn= 0.00D+00
 Coeff-Com: -0.246D-02-0.189D-01-0.367D-01 0.192D+00 0.866D+00
 Coeff:     -0.246D-02-0.189D-01-0.367D-01 0.192D+00 0.866D+00
 Gap=     0.391 Goal=   None    Shift=    0.000
 RMSDP=3.91D-08 MaxDP=2.43D-06 DE=-2.92D-09 OVMax= 6.68D-06

 Cycle  11  Pass 1  IDiag  1:
 RMSU=  2.23D-08    CP:  1.00D+00  1.04D+00  1.06D+00  1.21D+00  1.05D+00
 E= -157.589887992374     Delta-E=       -0.000000000251 Rises=F Damp=F
 DIIS: error= 2.22D-07 at cycle   6 NSaved=   6.
 NSaved= 6 IEnMin= 6 EnMin= -157.589887992374     IErMin= 6 ErrMin= 2.22D-07
 ErrMax= 2.22D-07  0.00D+00 EMaxC= 1.00D-01 BMatC= 2.36D-11 BMatP= 1.92D-10
 IDIUse=1 WtCom= 1.00D+00 WtEn= 0.00D+00
 Coeff-Com:  0.776D-03-0.766D-02-0.253D-01 0.250D-01 0.343D+00 0.664D+00
 Coeff:      0.776D-03-0.766D-02-0.253D-01 0.250D-01 0.343D+00 0.664D+00
 Gap=     0.391 Goal=   None    Shift=    0.000
 RMSDP=7.63D-09 MaxDP=4.02D-07 DE=-2.51D-10 OVMax= 1.46D-06

 SCF Done:  E(RB2PLYPD3) =  -157.589887992     A.U. after   11 cycles
            NFock= 11  Conv=0.76D-08     -V/T= 1.9956
 KE= 1.582896751964D+02 PE=-6.290791358666D+02 EE= 1.812922846230D+02
 Leave Link  502 at Wed Aug 26 22:00:51 2020, MaxMem=  2097152000 cpu:      2921.3
 (Enter /opt/cluster/programs/g09/g09_d.01/g09/l801.exe)
 DoSCS=T DFT=T ScalE2(SS,OS)=  0.270000  0.270000
 ExpMin= 7.60D-02 ExpMax= 6.70D+04 ExpMxC= 6.47D+02 IAcc=3 IRadAn=         5 AccDes= 0.00D+00
 HarFok:  IExCor=  205 AccDes= 0.00D+00 IRadAn=         5 IDoV=-2 UseB2=F ITyADJ=14
 ICtDFT= 12500011 ScaDFX=  1.000000  1.000000  1.000000  1.000000
 DSYEVD-2 returned Info=         115 IAlg= 4 N=    57 NDim=    57 NE2=    36777324 trying  DSYEV.
 Largest valence mixing into a core orbital is  1.16D-04
 Largest core mixing into a valence orbital is  1.39D-05
 Range of M.O.s used for correlation:     5   528
 NBasis=   528 NAE=    17 NBE=    17 NFC=     4 NFV=     0
 NROrb=    524 NOA=    13 NOB=    13 NVA=   511 NVB=   511

 **** Warning!!: The largest alpha MO coefficient is  0.38272582D+02

 Leave Link  801 at Wed Aug 26 22:00:53 2020, MaxMem=  2097152000 cpu:         1.1
 (Enter /opt/cluster/programs/g09/g09_d.01/g09/l906.exe)
 DoSCS=T DFT=T ScalE2(SS,OS)=  0.270000  0.270000
 FulOut=F Deriv=F AODrv=F NAtomX=    14
   MMem=         463  MDisk=          13 MDiskD=          13
  W3Min=     4238234 MinDsk=     6904766 NBas6D=         638
 NBas2D=      205689    NTT=      203841    LW2=     4508827
    MDV=  2095902876 MDiskM=        7293 NBas2p=      189204
 Fully direct method using O(OVN) memory.
 IMap=   1   2   3   4   5   6   7   8   9  10  11  12  13
 JobTyp=1 Pass  1:  I=   1 to  13 NPSUse=  8 ParTrn=T ParDer=T DoDerP=F.
 Spin components of T(2) and E(2):
     alpha-alpha T2 =       0.4272191363D-01 E2=     -0.2675164357D-01
     alpha-beta  T2 =       0.3020289128D+00 E2=     -0.2007636694D+00
     beta-beta   T2 =       0.4272191363D-01 E2=     -0.2675164357D-01
 The integrals were generated   1 times.
 E2(B2PLYPD3) =    -0.2542669566D+00 E(B2PLYPD3) =    -0.15784415494894D+03
 Leave Link  906 at Wed Aug 26 22:05:17 2020, MaxMem=  2097152000 cpu:      2090.8
 (Enter /opt/cluster/programs/g09/g09_d.01/g09/l601.exe)
 Copying SCF densities to generalized density rwf, IOpCl= 0 IROHF=0.

 **********************************************************************

            Population analysis using the SCF density.

 **********************************************************************

 Orbital symmetries:
       Occupied  (A) (A) (A) (A) (A) (A) (A) (A) (A) (A) (A) (A)
                 (A) (A) (A) (A) (A)
       Virtual   (A) (A) (A) (A) (A) (A) (A) (A) (A) (A) (A) (A)
                 (A) (A) (A) (A) (A) (A) (A) (A) (A) (A) (A) (A)
                 (A) (A) (A) (A) (A) (A) (A) (A) (A) (A) (A) (A)
                 (A) (A) (A) (A) (A) (A) (A) (A) (A) (A) (A) (A)
                 (A) (A) (A) (A) (A) (A) (A) (A) (A) (A) (A) (A)
                 (A) (A) (A) (A) (A) (A) (A) (A) (A) (A) (A) (A)
                 (A) (A) (A) (A) (A) (A) (A) (A) (A) (A) (A) (A)
                 (A) (A) (A) (A) (A) (A) (A) (A) (A) (A) (A) (A)
                 (A) (A) (A) (A) (A) (A) (A) (A) (A) (A) (A) (A)
                 (A) (A) (A) (A) (A) (A) (A) (A) (A) (A) (A) (A)
                 (A) (A) (A) (A) (A) (A) (A) (A) (A) (A) (A) (A)
                 (A) (A) (A) (A) (A) (A) (A) (A) (A) (A) (A) (A)
                 (A) (A) (A) (A) (A) (A) (A) (A) (A) (A) (A) (A)
                 (A) (A) (A) (A) (A) (A) (A) (A) (A) (A) (A) (A)
                 (A) (A) (A) (A) (A) (A) (A) (A) (A) (A) (A) (A)
                 (A) (A) (A) (A) (A) (A) (A) (A) (A) (A) (A) (A)
                 (A) (A) (A) (A) (A) (A) (A) (A) (A) (A) (A) (A)
                 (A) (A) (A) (A) (A) (A) (A) (A) (A) (A) (A) (A)
                 (A) (A) (A) (A) (A) (A) (A) (A) (A) (A) (A) (A)
                 (A) (A) (A) (A) (A) (A) (A) (A) (A) (A) (A) (A)
                 (A) (A) (A) (A) (A) (A) (A) (A) (A) (A) (A) (A)
                 (A) (A) (A) (A) (A) (A) (A) (A) (A) (A) (A) (A)
                 (A) (A) (A) (A) (A) (A) (A) (A) (A) (A) (A) (A)
                 (A) (A) (A) (A) (A) (A) (A) (A) (A) (A) (A) (A)
                 (A) (A) (A) (A) (A) (A) (A) (A) (A) (A) (A) (A)
                 (A) (A) (A) (A) (A) (A) (A) (A) (A) (A) (A) (A)
                 (A) (A) (A) (A) (A) (A) (A) (A) (A) (A) (A) (A)
                 (A) (A) (A) (A) (A) (A) (A) (A) (A) (A) (A) (A)
                 (A) (A) (A) (A) (A) (A) (A) (A) (A) (A) (A) (A)
                 (A) (A) (A) (A) (A) (A) (A) (A) (A) (A) (A) (A)
                 (A) (A) (A) (A) (A) (A) (A) (A) (A) (A) (A) (A)
                 (A) (A) (A) (A) (A) (A) (A) (A) (A) (A) (A) (A)
                 (A) (A) (A) (A) (A) (A) (A) (A) (A) (A) (A) (A)
                 (A) (A) (A) (A) (A) (A) (A) (A) (A) (A) (A) (A)
                 (A) (A) (A) (A) (A) (A) (A) (A) (A) (A) (A) (A)
                 (A) (A) (A) (A) (A) (A) (A) (A) (A) (A) (A) (A)
                 (A) (A) (A) (A) (A) (A) (A) (A) (A) (A) (A) (A)
                 (A) (A) (A) (A) (A) (A) (A) (A) (A) (A) (A) (A)
                 (A) (A) (A) (A) (A) (A) (A) (A) (A) (A) (A) (A)
                 (A) (A) (A) (A) (A) (A) (A) (A) (A) (A) (A) (A)
                 (A) (A) (A) (A) (A) (A) (A) (A) (A) (A) (A) (A)
                 (A) (A) (A) (A) (A) (A) (A) (A) (A) (A) (A) (A)
                 (A) (A) (A) (A) (A) (A) (A)
 The electronic state is 1-A.
 Alpha  occ. eigenvalues --  -10.63662 -10.63326 -10.61475 -10.58694  -0.96922
 Alpha  occ. eigenvalues --   -0.84977  -0.76171  -0.71488  -0.58255  -0.50170
 Alpha  occ. eigenvalues --   -0.47697  -0.45165  -0.42300  -0.41201  -0.37619
 Alpha  occ. eigenvalues --   -0.36475  -0.35490
 Alpha virt. eigenvalues --    0.03607   0.04157   0.06413   0.07812   0.09813
 Alpha virt. eigenvalues --    0.09994   0.11555   0.12677   0.13521   0.14769
 Alpha virt. eigenvalues --    0.15718   0.16551   0.17576   0.18946   0.21147
 Alpha virt. eigenvalues --    0.21182   0.22863   0.24421   0.25520   0.26991
 Alpha virt. eigenvalues --    0.27738   0.28812   0.28984   0.30255   0.32101
 Alpha virt. eigenvalues --    0.34005   0.35077   0.35559   0.37853   0.40039
 Alpha virt. eigenvalues --    0.42934   0.44718   0.45412   0.46175   0.48481
 Alpha virt. eigenvalues --    0.48819   0.49417   0.51560   0.54197   0.55518
 Alpha virt. eigenvalues --    0.58871   0.62819   0.64662   0.65731   0.66669
 Alpha virt. eigenvalues --    0.67563   0.68296   0.69067   0.70585   0.71945
 Alpha virt. eigenvalues --    0.73755   0.73992   0.74380   0.75709   0.78670
 Alpha virt. eigenvalues --    0.79466   0.80149   0.82644   0.83714   0.85413
 Alpha virt. eigenvalues --    0.87691   0.88790   0.88996   0.90035   0.91591
 Alpha virt. eigenvalues --    0.92457   0.93530   0.95017   0.96102   0.97084
 Alpha virt. eigenvalues --    0.97930   1.00521   1.00954   1.01005   1.03095
 Alpha virt. eigenvalues --    1.05267   1.05718   1.06610   1.08673   1.10620
 Alpha virt. eigenvalues --    1.12155   1.14246   1.14702   1.16703   1.19903
 Alpha virt. eigenvalues --    1.21751   1.22239   1.24710   1.26018   1.26901
 Alpha virt. eigenvalues --    1.28180   1.28625   1.30975   1.32163   1.35337
 Alpha virt. eigenvalues --    1.36545   1.38074   1.41580   1.42993   1.44618
 Alpha virt. eigenvalues --    1.45567   1.49546   1.52206   1.56213   1.59053
 Alpha virt. eigenvalues --    1.63490   1.65792   1.67235   1.71898   1.74675
 Alpha virt. eigenvalues --    1.80749   1.82522   1.85664   1.86869   1.87308
 Alpha virt. eigenvalues --    1.88511   1.90327   1.92178   1.92835   1.93467
 Alpha virt. eigenvalues --    1.94503   1.98576   1.99098   2.02837   2.03043
 Alpha virt. eigenvalues --    2.04893   2.05804   2.06761   2.07249   2.08203
 Alpha virt. eigenvalues --    2.10303   2.12110   2.13305   2.14027   2.15349
 Alpha virt. eigenvalues --    2.17001   2.17841   2.19585   2.20771   2.21391
 Alpha virt. eigenvalues --    2.22153   2.23438   2.26408   2.26602   2.28288
 Alpha virt. eigenvalues --    2.30132   2.31071   2.31198   2.34267   2.35333
 Alpha virt. eigenvalues --    2.37263   2.38958   2.40511   2.41508   2.42766
 Alpha virt. eigenvalues --    2.44055   2.46563   2.47437   2.48738   2.50470
 Alpha virt. eigenvalues --    2.51875   2.52070   2.52886   2.53889   2.55499
 Alpha virt. eigenvalues --    2.58141   2.58767   2.60583   2.61942   2.64095
 Alpha virt. eigenvalues --    2.65357   2.67220   2.68485   2.69746   2.71606
 Alpha virt. eigenvalues --    2.73511   2.75236   2.78536   2.80791   2.82030
 Alpha virt. eigenvalues --    2.82812   2.83715   2.86445   2.87805   2.88079
 Alpha virt. eigenvalues --    2.89928   2.94486   2.95346   2.96514   2.97897
 Alpha virt. eigenvalues --    3.01043   3.03006   3.04168   3.05436   3.07167
 Alpha virt. eigenvalues --    3.09167   3.10772   3.12602   3.14371   3.16300
 Alpha virt. eigenvalues --    3.18516   3.19255   3.20052   3.21851   3.24586
 Alpha virt. eigenvalues --    3.27052   3.29405   3.30705   3.33194   3.35226
 Alpha virt. eigenvalues --    3.36817   3.38025   3.41440   3.43649   3.44245
 Alpha virt. eigenvalues --    3.45603   3.50541   3.52651   3.54967   3.56131
 Alpha virt. eigenvalues --    3.57248   3.61028   3.64292   3.66164   3.73213
 Alpha virt. eigenvalues --    3.75104   3.80367   3.85361   3.86938   3.89620
 Alpha virt. eigenvalues --    3.90399   3.93839   3.94921   3.96504   3.99159
 Alpha virt. eigenvalues --    4.02839   4.03786   4.05070   4.09683   4.10541
 Alpha virt. eigenvalues --    4.15030   4.19175   4.20373   4.25130   4.29150
 Alpha virt. eigenvalues --    4.29476   4.39535   4.47680   4.50718   4.54851
 Alpha virt. eigenvalues --    4.59190   4.72907   4.89140   4.91073   5.04896
 Alpha virt. eigenvalues --    5.06392   5.13801   5.15301   5.22083   5.25245
 Alpha virt. eigenvalues --    5.27466   5.32311   5.35465   5.39110   5.40233
 Alpha virt. eigenvalues --    5.43865   5.46258   5.48249   5.51300   5.54932
 Alpha virt. eigenvalues --    5.57614   5.59125   5.61713   5.63802   5.64379
 Alpha virt. eigenvalues --    5.67664   5.73092   5.74341   5.75582   5.79701
 Alpha virt. eigenvalues --    5.79990   5.82506   5.84104   5.86698   5.88251
 Alpha virt. eigenvalues --    5.89522   5.92406   5.93207   5.93766   5.94954
 Alpha virt. eigenvalues --    5.96828   5.97233   5.98995   5.99494   5.99905
 Alpha virt. eigenvalues --    6.00419   6.01506   6.05140   6.05426   6.06661
 Alpha virt. eigenvalues --    6.07870   6.10505   6.12608   6.14081   6.15273
 Alpha virt. eigenvalues --    6.16673   6.19020   6.20094   6.22502   6.23591
 Alpha virt. eigenvalues --    6.26219   6.30154   6.31564   6.32578   6.34472
 Alpha virt. eigenvalues --    6.36317   6.38233   6.42179   6.42927   6.44012
 Alpha virt. eigenvalues --    6.44459   6.47957   6.51139   6.54799   6.56449
 Alpha virt. eigenvalues --    6.57514   6.58253   6.59907   6.60831   6.65830
 Alpha virt. eigenvalues --    6.66741   6.68582   6.70428   6.74744   6.76701
 Alpha virt. eigenvalues --    6.78897   6.81258   6.81726   6.84980   6.87167
 Alpha virt. eigenvalues --    6.90083   6.92051   6.92883   6.94495   6.97407
 Alpha virt. eigenvalues --    7.01729   7.03920   7.06283   7.06864   7.08977
 Alpha virt. eigenvalues --    7.11296   7.13307   7.14768   7.16791   7.19951
 Alpha virt. eigenvalues --    7.21748   7.24815   7.25894   7.27475   7.29080
 Alpha virt. eigenvalues --    7.31493   7.32989   7.34625   7.38107   7.40228
 Alpha virt. eigenvalues --    7.42143   7.44324   7.46639   7.50424   7.51749
 Alpha virt. eigenvalues --    7.54651   7.56843   7.58301   7.62497   7.65297
 Alpha virt. eigenvalues --    7.67639   7.69185   7.71268   7.72916   7.76822
 Alpha virt. eigenvalues --    7.77667   7.79949   7.82313   7.83086   7.87248
 Alpha virt. eigenvalues --    7.88309   7.91468   7.93709   7.97256   8.01622
 Alpha virt. eigenvalues --    8.01815   8.05049   8.07213   8.09012   8.09832
 Alpha virt. eigenvalues --    8.12759   8.13584   8.15181   8.18686   8.20170
 Alpha virt. eigenvalues --    8.20821   8.21360   8.22843   8.25875   8.27131
 Alpha virt. eigenvalues --    8.28425   8.28891   8.32093   8.32393   8.35152
 Alpha virt. eigenvalues --    8.35677   8.37492   8.38355   8.39272   8.40550
 Alpha virt. eigenvalues --    8.45196   8.47507   8.47913   8.49887   8.51832
 Alpha virt. eigenvalues --    8.52835   8.56485   8.58102   8.61643   8.62483
 Alpha virt. eigenvalues --    8.62924   8.65220   8.68047   8.68086   8.71128
 Alpha virt. eigenvalues --    8.74415   8.77512   8.78868   8.80624   8.84658
 Alpha virt. eigenvalues --    8.86496   8.88484   8.90195   8.91026   8.91755
 Alpha virt. eigenvalues --    8.94665   8.97060   8.98540   9.00106   9.03672
 Alpha virt. eigenvalues --    9.06109   9.08693   9.09891   9.12340   9.20435
 Alpha virt. eigenvalues --    9.21734   9.23617   9.29257   9.29506   9.31840
 Alpha virt. eigenvalues --    9.35959   9.37025   9.38692   9.46003   9.47259
 Alpha virt. eigenvalues --    9.51465   9.53985   9.55728   9.60158   9.62202
 Alpha virt. eigenvalues --    9.67781   9.71484   9.73984   9.81075   9.85396
 Alpha virt. eigenvalues --    9.87556   9.94407  10.00648  10.05647  10.10962
 Alpha virt. eigenvalues --   10.16334  10.18121  10.20511  10.24072  10.26022
 Alpha virt. eigenvalues --   10.36943  10.42929  10.46494  10.55658  10.57296
 Alpha virt. eigenvalues --   10.81776  10.93277  11.07776  11.22441  11.35315
 Alpha virt. eigenvalues --   11.38632  11.50686  11.68143  11.75915  11.84128
 Alpha virt. eigenvalues --   11.91278  12.01717  12.09093  12.11004  12.34570
 Alpha virt. eigenvalues --   12.56063  13.06560  13.38365  29.05153  29.33102
 Alpha virt. eigenvalues --   29.42695  29.85212 148.72089 149.00592 149.14074
 Alpha virt. eigenvalues --  149.60491
          Condensed to atoms (all electrons):
               1          2          3          4          5          6
     1  C    5.019780   0.348276   0.355113   0.364321   0.436882  -0.060353
     2  C    0.348276   4.966324  -0.029415  -0.036613  -0.029098   0.304417
     3  H    0.355113  -0.029415   0.717016  -0.014302  -0.030862   0.008865
     4  H    0.364321  -0.036613  -0.014302   0.639864  -0.005856  -0.006507
     5  H    0.436882  -0.029098  -0.030862  -0.005856   0.342699  -0.002944
     6  C   -0.060353   0.304417   0.008865  -0.006507  -0.002944   5.028216
     7  H   -0.058027   0.396282  -0.008214  -0.002775   0.011089  -0.047199
     8  H   -0.013914   0.447280  -0.002411   0.005860  -0.010531  -0.052823
     9  C    0.007909  -0.051874  -0.000404   0.000456  -0.000653   0.357802
    10  H   -0.002109  -0.019784  -0.000105  -0.000212   0.002436   0.364013
    11  H   -0.014698  -0.081534   0.000031   0.009748  -0.002223   0.438159
    12  H    0.000144   0.000911   0.000008  -0.000008  -0.000001  -0.020413
    13  H   -0.000623   0.007426   0.000024  -0.000038   0.000046  -0.027939
    14  H   -0.000250  -0.017248   0.000037   0.000164  -0.000093  -0.063238
               7          8          9         10         11         12
     1  C   -0.058027  -0.013914   0.007909  -0.002109  -0.014698   0.000144
     2  C    0.396282   0.447280  -0.051874  -0.019784  -0.081534   0.000911
     3  H   -0.008214  -0.002411  -0.000404  -0.000105   0.000031   0.000008
     4  H   -0.002775   0.005860   0.000456  -0.000212   0.009748  -0.000008
     5  H    0.011089  -0.010531  -0.000653   0.002436  -0.002223  -0.000001
     6  C   -0.047199  -0.052823   0.357802   0.364013   0.438159  -0.020413
     7  H    0.705000  -0.030733  -0.024704   0.008126  -0.006378   0.001511
     8  H   -0.030733   0.431045   0.000985  -0.008351   0.018367   0.001168
     9  C   -0.024704   0.000985   4.849973  -0.044195  -0.022878   0.356070
    10  H    0.008126  -0.008351  -0.044195   0.698516  -0.021684  -0.001649
    11  H   -0.006378   0.018367  -0.022878  -0.021684   0.473615   0.004486
    12  H    0.001511   0.001168   0.356070  -0.001649   0.004486   0.679770
    13  H    0.001847  -0.000539   0.395767   0.000604  -0.004644  -0.027938
    14  H    0.002551   0.001073   0.406272   0.009539  -0.003868  -0.014312
              13         14
     1  C   -0.000623  -0.000250
     2  C    0.007426  -0.017248
     3  H    0.000024   0.000037
     4  H   -0.000038   0.000164
     5  H    0.000046  -0.000093
     6  C   -0.027939  -0.063238
     7  H    0.001847   0.002551
     8  H   -0.000539   0.001073
     9  C    0.395767   0.406272
    10  H    0.000604   0.009539
    11  H   -0.004644  -0.003868
    12  H   -0.027938  -0.014312
    13  H    0.657650  -0.041607
    14  H   -0.041607   0.575954
 Mulliken charges:
               1
     1  C   -0.382451
     2  C   -0.205349
     3  H    0.004619
     4  H    0.045898
     5  H    0.289111
     6  C   -0.220056
     7  H    0.051625
     8  H    0.213524
     9  C   -0.230527
    10  H    0.014858
    11  H    0.213502
    12  H    0.020255
    13  H    0.039964
    14  H    0.145026
 Sum of Mulliken charges =   0.00000
 Mulliken charges with hydrogens summed into heavy atoms:
               1
     1  C   -0.042823
     2  C    0.059801
     6  C    0.008304
     9  C   -0.025281
 Electronic spatial extent (au):  <R**2>=            430.4563
 Charge=              0.0000 electrons
 Dipole moment (field-independent basis, Debye):
    X=              0.2214    Y=              0.1078    Z=              0.2267  Tot=              0.3347
 Quadrupole moment (field-independent basis, Debye-Ang):
   XX=            -31.4723   YY=            -30.1298   ZZ=            -28.3126
   XY=              0.1747   XZ=             -1.3796   YZ=              0.6480
 Traceless Quadrupole moment (field-independent basis, Debye-Ang):
   XX=             -1.5007   YY=             -0.1582   ZZ=              1.6590
   XY=              0.1747   XZ=             -1.3796   YZ=              0.6480
 Octapole moment (field-independent basis, Debye-Ang**2):
  XXX=             -0.7806  YYY=              0.3262  ZZZ=              0.9987  XYY=              0.3154
  XXY=              1.1061  XXZ=             -2.4859  XZZ=              0.4386  YZZ=              0.4760
  YYZ=             -0.2930  XYZ=              0.1072
 Hexadecapole moment (field-independent basis, Debye-Ang**3):
 XXXX=           -496.9523 YYYY=           -100.8771 ZZZZ=            -70.1550 XXXY=             -1.5065
 XXXZ=            -16.4022 YYYX=             -1.4143 YYYZ=             -0.4635 ZZZX=             -4.7903
 ZZZY=              2.3757 XXYY=            -96.8354 XXZZ=            -89.7662 YYZZ=            -26.1993
 XXYZ=              5.8999 YYXZ=              0.1701 ZZXY=              2.1700
 N-N= 1.319072880548D+02 E-N=-6.290791072509D+02  KE= 1.582896751964D+02
 Leave Link  601 at Wed Aug 26 22:05:18 2020, MaxMem=  2097152000 cpu:         1.1
 (Enter /opt/cluster/programs/g09/g09_d.01/g09/l9999.exe)
 1\1\GINC-NODE34\SP\RB2PLYPD3-FC\def2QZVP\C4H10\BOITTIER\26-Aug-2020\0\
 \#p B2PLYPD3/Def2QZVP\\butane_opt\\0,1\C,0,-3.904467,0.227255,-0.15373
 1\C,0,-2.661539,-0.558314,0.199715\H,0,-5.104379,-0.571035,-0.019111\H
 ,0,-3.746903,0.95222,-1.345378\H,0,-4.103485,0.620392,0.490175\C,0,-1.
 455514,0.227061,0.251655\H,0,-2.544734,-1.309698,-0.663374\H,0,-2.7079
 79,-0.909532,0.927547\C,0,-0.188096,-0.72989,-0.133891\H,0,-1.004655,1
 .137151,1.224273\H,0,-1.700621,0.66982,-0.42837\H,0,0.358253,-1.745628
 ,0.860162\H,0,0.764989,-0.238102,-0.697926\H,0,-0.655633,-1.100042,-0.
 81585\\Version=ES64L-G09RevD.01\State=1-A\HF=-157.589888\MP2=-157.8441
 549\RMSD=7.632e-09\PG=C01 [X(C4H10)]\\@


 THOUGH I SPEAK WITH THE TONGUES OF MEN AND OF ANGELS, 
 AND HAVE NOT LOVE,
 I AM BECOME AS SOUNDING BRASS, A TINKLING CYMBAL.
 AND THOUGH I HAVE THE GIFT OF PROPHECY,
 AND UNDERSTAND ALL MYSTERIES, AND ALL KNOWLEDGE.
 AND THOUGH I HAVE ALL FAITH, SO THAT I COULD REMOVE MOUNTAINS,
 AND HAVE NOT LOVE, I AM NOTHING.
 AND THOUGH I BESTOW ALL MY GOODS TO FEED THE POOR,
 AND THOUGH I GIVE MY BODY TO BE BURNED,
 AND HAVE NOT LOVE IT PROFITETH ME NOTHING.
 LOVE SUFFERETH LONG, AND IS KIND,
 LOVE ENVIETH NOT,
 LOVE VAUNTETH NOT ITSELF, IS NOT PUFFED UP,
 DOTH NOT BEHAVE ITSELF UNSEEMLY, SEEKETH NOT HER OWN,
 IS NOT EASILY PROVOKED, THINKETH NO EVIL,
 REJOICETH NOT IN INIQUITY, BUT REJOICETH IN THE TRUTH,
 BEARETH ALL THINGS, BELIEVETH ALL THINGS,
 HOPETH ALL THINGS, ENDURETH ALL THINGS.
 LOVE NEVER FAILETH, BUT WHETHER THERE BE PROPHECIES, THEY SHALL FAIL, 
 WHETHER THERE BE TONGUES, THEY SHALL CEASE,
 WHETHER THERE BE KNOWLEDGE, IT SHALL VANISH AWAY.
 FOR WE KNOW IN PART, AND WE PROPHESY IN PART.
 BUT WHEN THAT WHICH IS PERFECT IS COME, THEN THAT WHICH IS IN PART 
 SHALL BE DONE AWAY. 
 WHEN I WAS A CHILD, I SPAKE AS A CHILD, I UNDERSTOOD AS A CHILD, 
 I THOUGHT AS A CHILD.
 BUT WHEN I BECAME A MAN, I PUT AWAY CHILDISH THINGS.
 FOR NOW WE SEE THROUGH A GLASS, DARKLY, BUT THEN FACE TO FACE.
 NOW I KNOW IN PART. BUT THEN SHALL I KNOW EVEN AS ALSO I AM KNOWN.
 AND NOW ABIDETH FAITH, HOPE AND LOVE, THESE THREE.
 BUT THE GREATEST OF THESE IS LOVE.

                     I CORINTHIANS 13
 Job cpu time:       0 days  1 hours 23 minutes 55.9 seconds.
 File lengths (MBytes):  RWF=    152 Int=      0 D2E=      0 Chk=     14 Scr=      1
 Normal termination of Gaussian 09 at Wed Aug 26 22:05:19 2020.
