 Entering Gaussian System, Link 0=/opt/cluster/programs/g09/g09_d.01/g09//g09
 Input=/home/boittier/MDCM/nms_sampling/butane_geom.xyz.dir/energies/butane_opt_1609_energy.com
 Output=/scratch/boittier/butane_opt_1609_energy/butane_opt_1609_energy.out
 Initial command:
 /opt/cluster/programs/g09/g09_d.01/g09/l1.exe "/scratch/boittier/butane_opt_1609_energy/Gau-97090.inp" -scrdir="/scratch/boittier/butane_opt_1609_energy/"
 Entering Link 1 = /opt/cluster/programs/g09/g09_d.01/g09/l1.exe PID=     97091.
  
 Copyright (c) 1988,1990,1992,1993,1995,1998,2003,2009,2013,
            Gaussian, Inc.  All Rights Reserved.
  
 This is part of the Gaussian(R) 09 program.  It is based on
 the Gaussian(R) 03 system (copyright 2003, Gaussian, Inc.),
 the Gaussian(R) 98 system (copyright 1998, Gaussian, Inc.),
 the Gaussian(R) 94 system (copyright 1995, Gaussian, Inc.),
 the Gaussian 92(TM) system (copyright 1992, Gaussian, Inc.),
 the Gaussian 90(TM) system (copyright 1990, Gaussian, Inc.),
 the Gaussian 88(TM) system (copyright 1988, Gaussian, Inc.),
 the Gaussian 86(TM) system (copyright 1986, Carnegie Mellon
 University), and the Gaussian 82(TM) system (copyright 1983,
 Carnegie Mellon University). Gaussian is a federally registered
 trademark of Gaussian, Inc.
  
 This software contains proprietary and confidential information,
 including trade secrets, belonging to Gaussian, Inc.
  
 This software is provided under written license and may be
 used, copied, transmitted, or stored only in accord with that
 written license.
  
 The following legend is applicable only to US Government
 contracts under FAR:
  
                    RESTRICTED RIGHTS LEGEND
  
 Use, reproduction and disclosure by the US Government is
 subject to restrictions as set forth in subparagraphs (a)
 and (c) of the Commercial Computer Software - Restricted
 Rights clause in FAR 52.227-19.
  
 Gaussian, Inc.
 340 Quinnipiac St., Bldg. 40, Wallingford CT 06492
  
  
 ---------------------------------------------------------------
 Warning -- This program may not be used in any manner that
 competes with the business of Gaussian, Inc. or will provide
 assistance to any competitor of Gaussian, Inc.  The licensee
 of this program is prohibited from giving any competitor of
 Gaussian, Inc. access to this program.  By using this program,
 the user acknowledges that Gaussian, Inc. is engaged in the
 business of creating and licensing software in the field of
 computational chemistry and represents and warrants to the
 licensee that it is not a competitor of Gaussian, Inc. and that
 it will not use this program in any manner prohibited above.
 ---------------------------------------------------------------
  

 Cite this work as:
 Gaussian 09, Revision D.01,
 M. J. Frisch, G. W. Trucks, H. B. Schlegel, G. E. Scuseria, 
 M. A. Robb, J. R. Cheeseman, G. Scalmani, V. Barone, B. Mennucci, 
 G. A. Petersson, H. Nakatsuji, M. Caricato, X. Li, H. P. Hratchian, 
 A. F. Izmaylov, J. Bloino, G. Zheng, J. L. Sonnenberg, M. Hada, 
 M. Ehara, K. Toyota, R. Fukuda, J. Hasegawa, M. Ishida, T. Nakajima, 
 Y. Honda, O. Kitao, H. Nakai, T. Vreven, J. A. Montgomery, Jr., 
 J. E. Peralta, F. Ogliaro, M. Bearpark, J. J. Heyd, E. Brothers, 
 K. N. Kudin, V. N. Staroverov, T. Keith, R. Kobayashi, J. Normand, 
 K. Raghavachari, A. Rendell, J. C. Burant, S. S. Iyengar, J. Tomasi, 
 M. Cossi, N. Rega, J. M. Millam, M. Klene, J. E. Knox, J. B. Cross, 
 V. Bakken, C. Adamo, J. Jaramillo, R. Gomperts, R. E. Stratmann, 
 O. Yazyev, A. J. Austin, R. Cammi, C. Pomelli, J. W. Ochterski, 
 R. L. Martin, K. Morokuma, V. G. Zakrzewski, G. A. Voth, 
 P. Salvador, J. J. Dannenberg, S. Dapprich, A. D. Daniels, 
 O. Farkas, J. B. Foresman, J. V. Ortiz, J. Cioslowski, 
 and D. J. Fox, Gaussian, Inc., Wallingford CT, 2013.
 
 ******************************************
 Gaussian 09:  ES64L-G09RevD.01 24-Apr-2013
                26-Aug-2020 
 ******************************************
 %chk=/home/boittier/MDCM/nms_sampling/butane_geom.xyz.dir/butane_opt_1609.chk
 %nproc=8
 Will use up to    8 processors via shared memory.
 %mem=16000MB
 --------------------
 #p B2PLYPD3/Def2QZVP
 --------------------
 1/38=1/1;
 2/12=2,17=6,18=5,40=1/2;
 3/5=45,7=101,11=9,16=1,25=1,30=1,74=-60/1,2,3;
 4//1;
 5/5=2,38=5/2;
 8/10=1/1;
 9/16=-3/6;
 6/7=2,8=2,9=2,10=2/1;
 99/5=1,9=1/99;
 Leave Link    1 at Wed Aug 26 12:18:17 2020, MaxMem=  2097152000 cpu:         0.2
 (Enter /opt/cluster/programs/g09/g09_d.01/g09/l101.exe)
 ----------
 butane_opt
 ----------
 Symbolic Z-matrix:
 Charge =  0 Multiplicity = 1
 C                    -4.05013   0.24421  -0.08625 
 C                    -2.71792  -0.62647   0.23502 
 H                    -4.81178  -0.13349  -0.69938 
 H                    -3.67753   0.68571  -0.80039 
 H                    -4.5324    1.4414    0.8784 
 C                    -1.36512   0.13229   0.08518 
 H                    -2.35102  -1.16552  -0.57863 
 H                    -2.89782  -1.45906   1.1875 
 C                    -0.09068  -0.68274  -0.05452 
 H                    -1.37614   0.80642   0.99957 
 H                    -1.4124    0.86503  -0.95687 
 H                     0.09489  -0.934     0.57834 
 H                     0.92235   0.01384  -0.28728 
 H                    -0.30616  -1.39503  -1.00157 
 
 NAtoms=     14 NQM=       14 NQMF=       0 NMMI=      0 NMMIF=      0
                NMic=       0 NMicF=      0.
                    Isotopes and Nuclear Properties:
 (Nuclear quadrupole moments (NQMom) in fm**2, nuclear magnetic moments (NMagM)
  in nuclear magnetons)

  Atom         1           2           3           4           5           6           7           8           9          10
 IAtWgt=          12          12           1           1           1          12           1           1          12           1
 AtmWgt=  12.0000000  12.0000000   1.0078250   1.0078250   1.0078250  12.0000000   1.0078250   1.0078250  12.0000000   1.0078250
 NucSpn=           0           0           1           1           1           0           1           1           0           1
 AtZEff=   0.0000000   0.0000000   0.0000000   0.0000000   0.0000000   0.0000000   0.0000000   0.0000000   0.0000000   0.0000000
 NQMom=    0.0000000   0.0000000   0.0000000   0.0000000   0.0000000   0.0000000   0.0000000   0.0000000   0.0000000   0.0000000
 NMagM=    0.0000000   0.0000000   2.7928460   2.7928460   2.7928460   0.0000000   2.7928460   2.7928460   0.0000000   2.7928460
 AtZNuc=   6.0000000   6.0000000   1.0000000   1.0000000   1.0000000   6.0000000   1.0000000   1.0000000   6.0000000   1.0000000

  Atom        11          12          13          14
 IAtWgt=           1           1           1           1
 AtmWgt=   1.0078250   1.0078250   1.0078250   1.0078250
 NucSpn=           1           1           1           1
 AtZEff=   0.0000000   0.0000000   0.0000000   0.0000000
 NQMom=    0.0000000   0.0000000   0.0000000   0.0000000
 NMagM=    2.7928460   2.7928460   2.7928460   2.7928460
 AtZNuc=   1.0000000   1.0000000   1.0000000   1.0000000
 Leave Link  101 at Wed Aug 26 12:18:17 2020, MaxMem=  2097152000 cpu:         0.5
 (Enter /opt/cluster/programs/g09/g09_d.01/g09/l202.exe)
                          Input orientation:                          
 ---------------------------------------------------------------------
 Center     Atomic      Atomic             Coordinates (Angstroms)
 Number     Number       Type             X           Y           Z
 ---------------------------------------------------------------------
      1          6           0       -4.050132    0.244212   -0.086251
      2          6           0       -2.717918   -0.626466    0.235018
      3          1           0       -4.811778   -0.133494   -0.699375
      4          1           0       -3.677527    0.685713   -0.800393
      5          1           0       -4.532403    1.441400    0.878402
      6          6           0       -1.365116    0.132291    0.085179
      7          1           0       -2.351020   -1.165520   -0.578633
      8          1           0       -2.897817   -1.459064    1.187504
      9          6           0       -0.090680   -0.682741   -0.054517
     10          1           0       -1.376137    0.806419    0.999569
     11          1           0       -1.412404    0.865025   -0.956869
     12          1           0        0.094890   -0.934000    0.578344
     13          1           0        0.922352    0.013844   -0.287284
     14          1           0       -0.306161   -1.395026   -1.001573
 ---------------------------------------------------------------------
                    Distance matrix (angstroms):
                    1          2          3          4          5
     1  C    0.000000
     2  C    1.623603   0.000000
     3  H    1.048183   2.345285   0.000000
     4  H    0.918562   1.927366   1.402794   0.000000
     5  H    1.611335   2.825309   2.246714   2.029835   0.000000
     6  C    2.692810   1.558280   3.544805   2.537274   3.517766
     7  H    2.262027   1.042699   2.671140   2.288201   3.698299
     8  H    2.418973   1.277816   2.996781   3.026508   3.343667
     9  C    4.066634   2.643743   4.796486   3.910814   5.011109
    10  H    2.940294   2.106674   3.946324   2.924180   3.221785
    11  H    2.846224   2.312900   3.552335   2.277591   3.665354
    12  H    4.360169   2.850323   5.133105   4.330764   5.210029
    13  H    4.981875   3.732876   5.750806   4.676919   5.757699
    14  H    4.188345   2.817164   4.688643   3.966870   5.425932
                    6          7          8          9         10
     6  C    0.000000
     7  H    1.759820   0.000000
     8  H    2.469150   1.872003   0.000000
     9  C    1.519203   2.370002   3.166277   0.000000
    10  H    1.136081   2.707335   2.735552   2.231837   0.000000
    11  H    1.274755   2.268739   3.493734   2.226381   1.957652
    12  H    1.873981   2.715635   3.098881   0.705748   2.317414
    13  H    2.320618   3.491525   4.351798   1.251257   2.750858
    14  H    2.152931   2.100714   3.393058   1.204449   3.161610
                   11         12         13         14
    11  H    0.000000
    12  H    2.804515   0.000000
    13  H    2.573701   1.527224   0.000000
    14  H    2.516665   1.693967   2.001092   0.000000
 Stoichiometry    C4H10
 Framework group  C1[X(C4H10)]
 Deg. of freedom    36
 Full point group                 C1      NOp   1
 Largest Abelian subgroup         C1      NOp   1
 Largest concise Abelian subgroup C1      NOp   1
                         Standard orientation:                         
 ---------------------------------------------------------------------
 Center     Atomic      Atomic             Coordinates (Angstroms)
 Number     Number       Type             X           Y           Z
 ---------------------------------------------------------------------
      1          6           0        2.046515   -0.082329   -0.123863
      2          6           0        0.582982    0.551452    0.180243
      3          1           0        2.717270    0.387583   -0.778049
      4          1           0        1.749843   -0.627999   -0.800609
      5          1           0        2.753310   -1.109407    0.896897
      6          6           0       -0.611063   -0.447407    0.111131
      7          1           0        0.111788    0.962953   -0.653942
      8          1           0        0.622545    1.461117    1.076768
      9          6           0       -2.014610    0.113202   -0.042989
     10          1           0       -0.463623   -1.049520    1.063182
     11          1           0       -0.446810   -1.223595   -0.886642
     12          1           0       -2.233277    0.366065    0.578562
     13          1           0       -2.887186   -0.768390   -0.207458
     14          1           0       -1.946807    0.791684   -1.035844
 ---------------------------------------------------------------------
 Rotational constants (GHZ):     22.0583657      3.3347651      3.1803358
 Leave Link  202 at Wed Aug 26 12:18:17 2020, MaxMem=  2097152000 cpu:         0.0
 (Enter /opt/cluster/programs/g09/g09_d.01/g09/l301.exe)
 Standard basis: def2QZVP (5D, 7F)
 Ernie: Thresh=  0.10000D-02 Tol=  0.10000D-05 Strict=F.
 There are   638 symmetry adapted cartesian basis functions of A   symmetry.
 There are   528 symmetry adapted basis functions of A   symmetry.
   528 basis functions,   748 primitive gaussians,   638 cartesian basis functions
    17 alpha electrons       17 beta electrons
       nuclear repulsion energy       127.9319273539 Hartrees.
 IExCor=  419 DFT=T Ex+Corr=B2PLYPD3 ExCW=0 ScaHFX=  0.530000
 ScaDFX=  0.470000  0.470000  0.730000  0.730000 ScalE2=  0.270000  0.270000
 IRadAn=      0 IRanWt=     -1 IRanGd=            0 ICorTp=0 IEmpDi=141
 NAtoms=   14 NActive=   14 NUniq=   14 SFac= 1.00D+00 NAtFMM=   60 NAOKFM=F Big=F
 Integral buffers will be    131072 words long.
 Regular integral format.
 Two-electron integral symmetry is turned on.
 R6Disp:  Grimme-D3(BJ) Dispersion energy=       -0.0067247845 Hartrees.
 Nuclear repulsion after empirical dispersion term =      127.9252025694 Hartrees.
 Leave Link  301 at Wed Aug 26 12:18:17 2020, MaxMem=  2097152000 cpu:         0.4
 (Enter /opt/cluster/programs/g09/g09_d.01/g09/l302.exe)
 NPDir=0 NMtPBC=     1 NCelOv=     1 NCel=       1 NClECP=     1 NCelD=      1
         NCelK=      1 NCelE2=     1 NClLst=     1 CellRange=     0.0.
 One-electron integrals computed using PRISM.
   1 Symmetry operations used in ECPInt.
 ECPInt:  NShTT=   14196 NPrTT=   30597 LenC2=   13812 LenP2D=   25706.
 LDataN:  DoStor=T MaxTD1= 8 Len=  415
 NBasis=   528 RedAO= T EigKep=  2.78D-05  NBF=   528
 NBsUse=   528 1.00D-06 EigRej= -1.00D+00 NBFU=   528
 Precomputing XC quadrature grid using
 IXCGrd= 4 IRadAn=           0 IRanWt=          -1 IRanGd=           0 AccXCQ= 0.00D+00.
 Generated NRdTot=       0 NPtTot=           0 NUsed=           0 NTot=          32
 NSgBfM=   638   638   638   638   638 MxSgAt=    14 MxSgA2=    14.
 Leave Link  302 at Wed Aug 26 12:18:18 2020, MaxMem=  2097152000 cpu:         5.6
 (Enter /opt/cluster/programs/g09/g09_d.01/g09/l303.exe)
 DipDrv:  MaxL=1.
 Leave Link  303 at Wed Aug 26 12:18:18 2020, MaxMem=  2097152000 cpu:         0.6
 (Enter /opt/cluster/programs/g09/g09_d.01/g09/l401.exe)
 ExpMin= 7.60D-02 ExpMax= 6.70D+04 ExpMxC= 6.47D+02 IAcc=2 IRadAn=         4 AccDes= 0.00D+00
 Harris functional with IExCor=  419 and IRadAn=       4 diagonalized for initial guess.
 HarFok:  IExCor=  419 AccDes= 0.00D+00 IRadAn=         4 IDoV= 1 UseB2=F ITyADJ=14
 ICtDFT=  3500011 ScaDFX=  1.000000  1.000000  1.000000  1.000000
 FoFCou: FMM=F IPFlag=           0 FMFlag=      100000 FMFlg1=           0
         NFxFlg=           0 DoJE=T BraDBF=F KetDBF=T FulRan=T
         wScrn=  0.000000 ICntrl=     500 IOpCl=  0 I1Cent=   200000004 NGrid=           0
         NMat0=    1 NMatS0=      1 NMatT0=    0 NMatD0=    1 NMtDS0=    0 NMtDT0=    0
 Petite list used in FoFCou.
 Harris En= -158.250579693580    
 JPrj=0 DoOrth=F DoCkMO=F.
 Leave Link  401 at Wed Aug 26 12:18:20 2020, MaxMem=  2097152000 cpu:        16.7
 (Enter /opt/cluster/programs/g09/g09_d.01/g09/l502.exe)
 Closed shell SCF:
 Using DIIS extrapolation, IDIIS=  1040.
 Integral symmetry usage will be decided dynamically.
 IVT=     1249338 IEndB=     1249338 NGot=  2097152000 MDV=  2096326985
 LenX=  2096326985 LenY=  2095919303
 Requested convergence on RMS density matrix=1.00D-08 within 128 cycles.
 Requested convergence on MAX density matrix=1.00D-06.
 Requested convergence on             energy=1.00D-06.
 No special actions if energy rises.
 Fock matrices will be formed incrementally for  20 cycles.
 Integral accuracy reduced to 1.0D-05 until final iterations.

 Cycle   1  Pass 0  IDiag  1:
 FoFJK:  IHMeth= 1 ICntrl=       0 DoSepK=F KAlg= 0 I1Cent=   0 FoldK=F
 IRaf= 930000000 NMat=   1 IRICut=       1 DoRegI=T DoRafI=F ISym2E= 0.
 FoFCou: FMM=F IPFlag=           0 FMFlag=      100000 FMFlg1=           0
         NFxFlg=           0 DoJE=F BraDBF=F KetDBF=F FulRan=T
         wScrn=  0.000000 ICntrl=       0 IOpCl=  0 I1Cent=           0 NGrid=           0
         NMat0=    1 NMatS0=      1 NMatT0=    0 NMatD0=    1 NMtDS0=    0 NMtDT0=    0
 Symmetry not used in FoFCou.
 E= -157.348279685463    
 DIIS: error= 2.69D-02 at cycle   1 NSaved=   1.
 NSaved= 1 IEnMin= 1 EnMin= -157.348279685463     IErMin= 1 ErrMin= 2.69D-02
 ErrMax= 2.69D-02  0.00D+00 EMaxC= 1.00D-01 BMatC= 4.17D-01 BMatP= 4.17D-01
 IDIUse=3 WtCom= 7.31D-01 WtEn= 2.69D-01
 Coeff-Com:  0.100D+01
 Coeff-En:   0.100D+01
 Coeff:      0.100D+01
 Gap=     0.316 Goal=   None    Shift=    0.000
 GapD=    0.316 DampG=1.000 DampE=0.500 DampFc=0.5000 IDamp=-1.
 Damping current iteration by 5.00D-01
 RMSDP=1.17D-03 MaxDP=8.52D-02              OVMax= 2.51D-01

 Cycle   2  Pass 0  IDiag  1:
 RMSU=  5.54D-04    CP:  9.41D-01
 E= -157.524680934126     Delta-E=       -0.176401248663 Rises=F Damp=T
 DIIS: error= 5.60D-03 at cycle   2 NSaved=   2.
 NSaved= 2 IEnMin= 2 EnMin= -157.524680934126     IErMin= 2 ErrMin= 5.60D-03
 ErrMax= 5.60D-03  0.00D+00 EMaxC= 1.00D-01 BMatC= 3.42D-02 BMatP= 4.17D-01
 IDIUse=3 WtCom= 9.44D-01 WtEn= 5.60D-02
 Coeff-Com: -0.143D+00 0.114D+01
 Coeff-En:   0.000D+00 0.100D+01
 Coeff:     -0.135D+00 0.114D+01
 Gap=     0.421 Goal=   None    Shift=    0.000
 RMSDP=3.08D-04 MaxDP=1.59D-02 DE=-1.76D-01 OVMax= 1.43D-01

 Cycle   3  Pass 0  IDiag  1:
 RMSU=  2.90D-04    CP:  9.28D-01  8.29D-01
 E= -157.690205880130     Delta-E=       -0.165524946004 Rises=F Damp=F
 DIIS: error= 3.07D-03 at cycle   3 NSaved=   3.
 NSaved= 3 IEnMin= 3 EnMin= -157.690205880130     IErMin= 3 ErrMin= 3.07D-03
 ErrMax= 3.07D-03  0.00D+00 EMaxC= 1.00D-01 BMatC= 3.74D-03 BMatP= 3.42D-02
 IDIUse=3 WtCom= 9.69D-01 WtEn= 3.07D-02
 Coeff-Com: -0.895D-01 0.218D+00 0.871D+00
 Coeff-En:   0.000D+00 0.000D+00 0.100D+01
 Coeff:     -0.868D-01 0.211D+00 0.875D+00
 Gap=     0.370 Goal=   None    Shift=    0.000
 RMSDP=8.32D-05 MaxDP=5.93D-03 DE=-1.66D-01 OVMax= 2.32D-02

 Cycle   4  Pass 0  IDiag  1:
 RMSU=  6.86D-05    CP:  9.22D-01  9.07D-01  1.00D+00
 E= -157.693887712095     Delta-E=       -0.003681831965 Rises=F Damp=F
 DIIS: error= 1.07D-03 at cycle   4 NSaved=   4.
 NSaved= 4 IEnMin= 4 EnMin= -157.693887712095     IErMin= 4 ErrMin= 1.07D-03
 ErrMax= 1.07D-03  0.00D+00 EMaxC= 1.00D-01 BMatC= 5.83D-04 BMatP= 3.74D-03
 IDIUse=3 WtCom= 9.89D-01 WtEn= 1.07D-02
 Coeff-Com: -0.290D-01 0.419D-01 0.362D+00 0.625D+00
 Coeff-En:   0.000D+00 0.000D+00 0.000D+00 0.100D+01
 Coeff:     -0.287D-01 0.415D-01 0.358D+00 0.629D+00
 Gap=     0.374 Goal=   None    Shift=    0.000
 RMSDP=2.79D-05 MaxDP=1.95D-03 DE=-3.68D-03 OVMax= 6.49D-03

 Cycle   5  Pass 0  IDiag  1:
 RMSU=  1.88D-05    CP:  9.23D-01  8.87D-01  1.05D+00  8.23D-01
 E= -157.694452678560     Delta-E=       -0.000564966465 Rises=F Damp=F
 DIIS: error= 1.92D-04 at cycle   5 NSaved=   5.
 NSaved= 5 IEnMin= 5 EnMin= -157.694452678560     IErMin= 5 ErrMin= 1.92D-04
 ErrMax= 1.92D-04  0.00D+00 EMaxC= 1.00D-01 BMatC= 1.69D-05 BMatP= 5.83D-04
 IDIUse=3 WtCom= 9.98D-01 WtEn= 1.92D-03
 Coeff-Com: -0.740D-03-0.489D-02 0.403D-01 0.170D+00 0.796D+00
 Coeff-En:   0.000D+00 0.000D+00 0.000D+00 0.000D+00 0.100D+01
 Coeff:     -0.738D-03-0.488D-02 0.402D-01 0.169D+00 0.796D+00
 Gap=     0.374 Goal=   None    Shift=    0.000
 RMSDP=6.83D-06 MaxDP=4.53D-04 DE=-5.65D-04 OVMax= 9.43D-04

 Initial convergence to 1.0D-05 achieved.  Increase integral accuracy.
 Cycle   6  Pass 1  IDiag  1:
 E= -157.694492785646     Delta-E=       -0.000040107085 Rises=F Damp=F
 DIIS: error= 7.33D-05 at cycle   1 NSaved=   1.
 NSaved= 1 IEnMin= 1 EnMin= -157.694492785646     IErMin= 1 ErrMin= 7.33D-05
 ErrMax= 7.33D-05  0.00D+00 EMaxC= 1.00D-01 BMatC= 1.44D-06 BMatP= 1.44D-06
 IDIUse=1 WtCom= 1.00D+00 WtEn= 0.00D+00
 Coeff-Com:  0.100D+01
 Coeff:      0.100D+01
 Gap=     0.374 Goal=   None    Shift=    0.000
 RMSDP=6.83D-06 MaxDP=4.53D-04 DE=-4.01D-05 OVMax= 3.10D-04

 Cycle   7  Pass 1  IDiag  1:
 RMSU=  3.78D-05    CP:  1.00D+00
 E= -157.694493646175     Delta-E=       -0.000000860530 Rises=F Damp=F
 DIIS: error= 2.01D-05 at cycle   2 NSaved=   2.
 NSaved= 2 IEnMin= 2 EnMin= -157.694493646175     IErMin= 2 ErrMin= 2.01D-05
 ErrMax= 2.01D-05  0.00D+00 EMaxC= 1.00D-01 BMatC= 2.80D-07 BMatP= 1.44D-06
 IDIUse=1 WtCom= 1.00D+00 WtEn= 0.00D+00
 Coeff-Com:  0.239D+00 0.761D+00
 Coeff:      0.239D+00 0.761D+00
 Gap=     0.374 Goal=   None    Shift=    0.000
 RMSDP=1.32D-06 MaxDP=8.50D-05 DE=-8.61D-07 OVMax= 1.75D-04

 Cycle   8  Pass 1  IDiag  1:
 RMSU=  8.45D-07    CP:  1.00D+00  1.03D+00
 E= -157.694493868531     Delta-E=       -0.000000222356 Rises=F Damp=F
 DIIS: error= 8.42D-06 at cycle   3 NSaved=   3.
 NSaved= 3 IEnMin= 3 EnMin= -157.694493868531     IErMin= 3 ErrMin= 8.42D-06
 ErrMax= 8.42D-06  0.00D+00 EMaxC= 1.00D-01 BMatC= 6.80D-08 BMatP= 2.80D-07
 IDIUse=1 WtCom= 1.00D+00 WtEn= 0.00D+00
 Coeff-Com: -0.189D-01 0.316D+00 0.703D+00
 Coeff:     -0.189D-01 0.316D+00 0.703D+00
 Gap=     0.374 Goal=   None    Shift=    0.000
 RMSDP=5.19D-07 MaxDP=3.36D-05 DE=-2.22D-07 OVMax= 6.57D-05

 Cycle   9  Pass 1  IDiag  1:
 RMSU=  3.33D-07    CP:  1.00D+00  1.04D+00  9.08D-01
 E= -157.694493937588     Delta-E=       -0.000000069057 Rises=F Damp=F
 DIIS: error= 1.09D-06 at cycle   4 NSaved=   4.
 NSaved= 4 IEnMin= 4 EnMin= -157.694493937588     IErMin= 4 ErrMin= 1.09D-06
 ErrMax= 1.09D-06  0.00D+00 EMaxC= 1.00D-01 BMatC= 8.06D-10 BMatP= 6.80D-08
 IDIUse=1 WtCom= 1.00D+00 WtEn= 0.00D+00
 Coeff-Com: -0.104D-01 0.250D-01 0.105D+00 0.880D+00
 Coeff:     -0.104D-01 0.250D-01 0.105D+00 0.880D+00
 Gap=     0.374 Goal=   None    Shift=    0.000
 RMSDP=8.08D-08 MaxDP=3.63D-06 DE=-6.91D-08 OVMax= 1.43D-05

 Cycle  10  Pass 1  IDiag  1:
 RMSU=  5.64D-08    CP:  1.00D+00  1.04D+00  9.46D-01  1.12D+00
 E= -157.694493938779     Delta-E=       -0.000000001191 Rises=F Damp=F
 DIIS: error= 4.72D-07 at cycle   5 NSaved=   5.
 NSaved= 5 IEnMin= 5 EnMin= -157.694493938779     IErMin= 5 ErrMin= 4.72D-07
 ErrMax= 4.72D-07  0.00D+00 EMaxC= 1.00D-01 BMatC= 1.29D-10 BMatP= 8.06D-10
 IDIUse=1 WtCom= 1.00D+00 WtEn= 0.00D+00
 Coeff-Com: -0.606D-03-0.286D-01-0.530D-01 0.222D+00 0.860D+00
 Coeff:     -0.606D-03-0.286D-01-0.530D-01 0.222D+00 0.860D+00
 Gap=     0.374 Goal=   None    Shift=    0.000
 RMSDP=2.99D-08 MaxDP=1.41D-06 DE=-1.19D-09 OVMax= 4.91D-06

 Cycle  11  Pass 1  IDiag  1:
 RMSU=  1.86D-08    CP:  1.00D+00  1.04D+00  9.53D-01  1.18D+00  1.14D+00
 E= -157.694493938931     Delta-E=       -0.000000000152 Rises=F Damp=F
 DIIS: error= 1.76D-07 at cycle   6 NSaved=   6.
 NSaved= 6 IEnMin= 6 EnMin= -157.694493938931     IErMin= 6 ErrMin= 1.76D-07
 ErrMax= 1.76D-07  0.00D+00 EMaxC= 1.00D-01 BMatC= 1.48D-11 BMatP= 1.29D-10
 IDIUse=1 WtCom= 1.00D+00 WtEn= 0.00D+00
 Coeff-Com:  0.400D-03-0.123D-01-0.269D-01 0.308D-01 0.343D+00 0.665D+00
 Coeff:      0.400D-03-0.123D-01-0.269D-01 0.308D-01 0.343D+00 0.665D+00
 Gap=     0.374 Goal=   None    Shift=    0.000
 RMSDP=5.85D-09 MaxDP=3.07D-07 DE=-1.52D-10 OVMax= 1.33D-06

 SCF Done:  E(RB2PLYPD3) =  -157.694493939     A.U. after   11 cycles
            NFock= 11  Conv=0.59D-08     -V/T= 2.0004
 KE= 1.576324790458D+02 PE=-6.208473628107D+02 EE= 1.775951872565D+02
 Leave Link  502 at Wed Aug 26 12:25:56 2020, MaxMem=  2097152000 cpu:      3635.9
 (Enter /opt/cluster/programs/g09/g09_d.01/g09/l801.exe)
 DoSCS=T DFT=T ScalE2(SS,OS)=  0.270000  0.270000
 ExpMin= 7.60D-02 ExpMax= 6.70D+04 ExpMxC= 6.47D+02 IAcc=3 IRadAn=         5 AccDes= 0.00D+00
 HarFok:  IExCor=  205 AccDes= 0.00D+00 IRadAn=         5 IDoV=-2 UseB2=F ITyADJ=14
 ICtDFT= 12500011 ScaDFX=  1.000000  1.000000  1.000000  1.000000
 DSYEVD-2 returned Info=         115 IAlg= 4 N=    57 NDim=    57 NE2=    36777324 trying  DSYEV.
 Largest valence mixing into a core orbital is  1.19D-04
 Largest core mixing into a valence orbital is  1.59D-05
 Range of M.O.s used for correlation:     5   528
 NBasis=   528 NAE=    17 NBE=    17 NFC=     4 NFV=     0
 NROrb=    524 NOA=    13 NOB=    13 NVA=   511 NVB=   511

 **** Warning!!: The largest alpha MO coefficient is  0.24792167D+02

 Leave Link  801 at Wed Aug 26 12:25:57 2020, MaxMem=  2097152000 cpu:         1.2
 (Enter /opt/cluster/programs/g09/g09_d.01/g09/l906.exe)
 DoSCS=T DFT=T ScalE2(SS,OS)=  0.270000  0.270000
 FulOut=F Deriv=F AODrv=F NAtomX=    14
   MMem=         463  MDisk=          13 MDiskD=          13
  W3Min=     4238234 MinDsk=     6904766 NBas6D=         638
 NBas2D=      205689    NTT=      203841    LW2=     4508827
    MDV=  2095910754 MDiskM=        7293 NBas2p=      187399
 Fully direct method using O(OVN) memory.
 IMap=   1   2   3   4   5   6   7   8   9  10  11  12  13
 JobTyp=1 Pass  1:  I=   1 to  13 NPSUse=  8 ParTrn=T ParDer=T DoDerP=F.
 Spin components of T(2) and E(2):
     alpha-alpha T2 =       0.4346469870D-01 E2=     -0.2680494838D-01
     alpha-beta  T2 =       0.3008035709D+00 E2=     -0.2004788349D+00
     beta-beta   T2 =       0.4346469870D-01 E2=     -0.2680494838D-01
 The integrals were generated   1 times.
 E2(B2PLYPD3) =    -0.2540887317D+00 E(B2PLYPD3) =    -0.15794858267061D+03
 Leave Link  906 at Wed Aug 26 12:30:54 2020, MaxMem=  2097152000 cpu:      2370.0
 (Enter /opt/cluster/programs/g09/g09_d.01/g09/l601.exe)
 Copying SCF densities to generalized density rwf, IOpCl= 0 IROHF=0.

 **********************************************************************

            Population analysis using the SCF density.

 **********************************************************************

 Orbital symmetries:
       Occupied  (A) (A) (A) (A) (A) (A) (A) (A) (A) (A) (A) (A)
                 (A) (A) (A) (A) (A)
       Virtual   (A) (A) (A) (A) (A) (A) (A) (A) (A) (A) (A) (A)
                 (A) (A) (A) (A) (A) (A) (A) (A) (A) (A) (A) (A)
                 (A) (A) (A) (A) (A) (A) (A) (A) (A) (A) (A) (A)
                 (A) (A) (A) (A) (A) (A) (A) (A) (A) (A) (A) (A)
                 (A) (A) (A) (A) (A) (A) (A) (A) (A) (A) (A) (A)
                 (A) (A) (A) (A) (A) (A) (A) (A) (A) (A) (A) (A)
                 (A) (A) (A) (A) (A) (A) (A) (A) (A) (A) (A) (A)
                 (A) (A) (A) (A) (A) (A) (A) (A) (A) (A) (A) (A)
                 (A) (A) (A) (A) (A) (A) (A) (A) (A) (A) (A) (A)
                 (A) (A) (A) (A) (A) (A) (A) (A) (A) (A) (A) (A)
                 (A) (A) (A) (A) (A) (A) (A) (A) (A) (A) (A) (A)
                 (A) (A) (A) (A) (A) (A) (A) (A) (A) (A) (A) (A)
                 (A) (A) (A) (A) (A) (A) (A) (A) (A) (A) (A) (A)
                 (A) (A) (A) (A) (A) (A) (A) (A) (A) (A) (A) (A)
                 (A) (A) (A) (A) (A) (A) (A) (A) (A) (A) (A) (A)
                 (A) (A) (A) (A) (A) (A) (A) (A) (A) (A) (A) (A)
                 (A) (A) (A) (A) (A) (A) (A) (A) (A) (A) (A) (A)
                 (A) (A) (A) (A) (A) (A) (A) (A) (A) (A) (A) (A)
                 (A) (A) (A) (A) (A) (A) (A) (A) (A) (A) (A) (A)
                 (A) (A) (A) (A) (A) (A) (A) (A) (A) (A) (A) (A)
                 (A) (A) (A) (A) (A) (A) (A) (A) (A) (A) (A) (A)
                 (A) (A) (A) (A) (A) (A) (A) (A) (A) (A) (A) (A)
                 (A) (A) (A) (A) (A) (A) (A) (A) (A) (A) (A) (A)
                 (A) (A) (A) (A) (A) (A) (A) (A) (A) (A) (A) (A)
                 (A) (A) (A) (A) (A) (A) (A) (A) (A) (A) (A) (A)
                 (A) (A) (A) (A) (A) (A) (A) (A) (A) (A) (A) (A)
                 (A) (A) (A) (A) (A) (A) (A) (A) (A) (A) (A) (A)
                 (A) (A) (A) (A) (A) (A) (A) (A) (A) (A) (A) (A)
                 (A) (A) (A) (A) (A) (A) (A) (A) (A) (A) (A) (A)
                 (A) (A) (A) (A) (A) (A) (A) (A) (A) (A) (A) (A)
                 (A) (A) (A) (A) (A) (A) (A) (A) (A) (A) (A) (A)
                 (A) (A) (A) (A) (A) (A) (A) (A) (A) (A) (A) (A)
                 (A) (A) (A) (A) (A) (A) (A) (A) (A) (A) (A) (A)
                 (A) (A) (A) (A) (A) (A) (A) (A) (A) (A) (A) (A)
                 (A) (A) (A) (A) (A) (A) (A) (A) (A) (A) (A) (A)
                 (A) (A) (A) (A) (A) (A) (A) (A) (A) (A) (A) (A)
                 (A) (A) (A) (A) (A) (A) (A) (A) (A) (A) (A) (A)
                 (A) (A) (A) (A) (A) (A) (A) (A) (A) (A) (A) (A)
                 (A) (A) (A) (A) (A) (A) (A) (A) (A) (A) (A) (A)
                 (A) (A) (A) (A) (A) (A) (A) (A) (A) (A) (A) (A)
                 (A) (A) (A) (A) (A) (A) (A) (A) (A) (A) (A) (A)
                 (A) (A) (A) (A) (A) (A) (A) (A) (A) (A) (A) (A)
                 (A) (A) (A) (A) (A) (A) (A)
 The electronic state is 1-A.
 Alpha  occ. eigenvalues --  -10.63983 -10.63878 -10.62818 -10.60111  -0.92505
 Alpha  occ. eigenvalues --   -0.85896  -0.76845  -0.65601  -0.56693  -0.49866
 Alpha  occ. eigenvalues --   -0.49276  -0.44928  -0.41927  -0.40732  -0.38013
 Alpha  occ. eigenvalues --   -0.37033  -0.34008
 Alpha virt. eigenvalues --    0.03398   0.04976   0.07249   0.08185   0.09243
 Alpha virt. eigenvalues --    0.10605   0.11559   0.13256   0.14473   0.14885
 Alpha virt. eigenvalues --    0.15769   0.16436   0.17806   0.18730   0.20350
 Alpha virt. eigenvalues --    0.22029   0.22848   0.24096   0.25710   0.26158
 Alpha virt. eigenvalues --    0.28741   0.29710   0.30371   0.31366   0.33295
 Alpha virt. eigenvalues --    0.34005   0.36112   0.37239   0.38147   0.38278
 Alpha virt. eigenvalues --    0.40781   0.41937   0.42778   0.44851   0.45083
 Alpha virt. eigenvalues --    0.46991   0.50147   0.52399   0.53588   0.54944
 Alpha virt. eigenvalues --    0.59114   0.62739   0.63982   0.64692   0.65384
 Alpha virt. eigenvalues --    0.66885   0.68739   0.70449   0.70619   0.71680
 Alpha virt. eigenvalues --    0.73142   0.73618   0.74345   0.75773   0.77480
 Alpha virt. eigenvalues --    0.78422   0.80134   0.82089   0.82391   0.85002
 Alpha virt. eigenvalues --    0.87162   0.87721   0.87926   0.89240   0.89691
 Alpha virt. eigenvalues --    0.92159   0.93502   0.94165   0.95054   0.96735
 Alpha virt. eigenvalues --    0.97933   0.98458   1.00098   1.01082   1.02639
 Alpha virt. eigenvalues --    1.03397   1.04623   1.06223   1.07933   1.10006
 Alpha virt. eigenvalues --    1.11134   1.12459   1.15019   1.16557   1.18869
 Alpha virt. eigenvalues --    1.20292   1.21717   1.23069   1.25333   1.27119
 Alpha virt. eigenvalues --    1.28177   1.29525   1.30340   1.32473   1.34000
 Alpha virt. eigenvalues --    1.35861   1.36983   1.38536   1.41738   1.43258
 Alpha virt. eigenvalues --    1.44824   1.47205   1.51557   1.54677   1.57402
 Alpha virt. eigenvalues --    1.62001   1.65634   1.67278   1.69393   1.72649
 Alpha virt. eigenvalues --    1.76022   1.79470   1.82543   1.85689   1.87973
 Alpha virt. eigenvalues --    1.88700   1.90585   1.91873   1.93710   1.94770
 Alpha virt. eigenvalues --    1.95297   1.97142   2.00511   2.01854   2.03101
 Alpha virt. eigenvalues --    2.03487   2.04656   2.06356   2.07192   2.10080
 Alpha virt. eigenvalues --    2.10436   2.10521   2.13668   2.15407   2.16297
 Alpha virt. eigenvalues --    2.17047   2.18304   2.18816   2.21325   2.22445
 Alpha virt. eigenvalues --    2.23686   2.25037   2.25660   2.27205   2.28028
 Alpha virt. eigenvalues --    2.29824   2.30507   2.32664   2.33951   2.35374
 Alpha virt. eigenvalues --    2.37723   2.38863   2.40566   2.40959   2.44495
 Alpha virt. eigenvalues --    2.45275   2.46395   2.47633   2.49170   2.51120
 Alpha virt. eigenvalues --    2.52528   2.54694   2.55555   2.57047   2.57745
 Alpha virt. eigenvalues --    2.58396   2.59122   2.61952   2.63418   2.66192
 Alpha virt. eigenvalues --    2.66380   2.67639   2.70459   2.71212   2.72683
 Alpha virt. eigenvalues --    2.74842   2.75825   2.77752   2.78672   2.80570
 Alpha virt. eigenvalues --    2.83156   2.85269   2.86290   2.88499   2.89277
 Alpha virt. eigenvalues --    2.90221   2.93233   2.94722   2.95295   2.97925
 Alpha virt. eigenvalues --    2.98690   2.99801   3.01078   3.03989   3.06013
 Alpha virt. eigenvalues --    3.08219   3.08833   3.09741   3.13867   3.16038
 Alpha virt. eigenvalues --    3.17155   3.18416   3.22256   3.24774   3.24903
 Alpha virt. eigenvalues --    3.25737   3.27993   3.32289   3.32954   3.36827
 Alpha virt. eigenvalues --    3.37872   3.38951   3.42314   3.44717   3.45936
 Alpha virt. eigenvalues --    3.47877   3.48829   3.52362   3.54595   3.55684
 Alpha virt. eigenvalues --    3.60116   3.61073   3.62383   3.64933   3.67991
 Alpha virt. eigenvalues --    3.68959   3.71140   3.73031   3.74952   3.77803
 Alpha virt. eigenvalues --    3.81067   3.82088   3.83858   3.85639   3.86467
 Alpha virt. eigenvalues --    3.94577   3.98121   3.99783   4.04120   4.06384
 Alpha virt. eigenvalues --    4.09116   4.13380   4.17601   4.18946   4.22465
 Alpha virt. eigenvalues --    4.27787   4.37782   4.39216   4.42495   4.51028
 Alpha virt. eigenvalues --    4.59373   4.68221   4.71636   4.84637   4.96572
 Alpha virt. eigenvalues --    4.98637   5.13723   5.14596   5.18545   5.22081
 Alpha virt. eigenvalues --    5.26783   5.29751   5.34574   5.39182   5.39657
 Alpha virt. eigenvalues --    5.46432   5.49121   5.52048   5.54793   5.59387
 Alpha virt. eigenvalues --    5.63803   5.64050   5.65094   5.68698   5.69931
 Alpha virt. eigenvalues --    5.72421   5.74692   5.76405   5.80360   5.81196
 Alpha virt. eigenvalues --    5.81932   5.85221   5.85635   5.86514   5.90928
 Alpha virt. eigenvalues --    5.92070   5.92713   5.94261   5.95700   5.97518
 Alpha virt. eigenvalues --    5.98921   5.99881   5.99989   6.01885   6.04581
 Alpha virt. eigenvalues --    6.06181   6.07227   6.08937   6.11366   6.13090
 Alpha virt. eigenvalues --    6.14018   6.17162   6.18440   6.20042   6.20847
 Alpha virt. eigenvalues --    6.21834   6.24969   6.25443   6.27120   6.28431
 Alpha virt. eigenvalues --    6.29612   6.31029   6.33759   6.34785   6.36037
 Alpha virt. eigenvalues --    6.37419   6.39878   6.40849   6.42288   6.45436
 Alpha virt. eigenvalues --    6.47292   6.49619   6.53441   6.56186   6.57464
 Alpha virt. eigenvalues --    6.58014   6.58244   6.61700   6.64421   6.66911
 Alpha virt. eigenvalues --    6.67548   6.69251   6.74045   6.75561   6.76960
 Alpha virt. eigenvalues --    6.78121   6.79082   6.83136   6.84336   6.85712
 Alpha virt. eigenvalues --    6.86275   6.90245   6.94382   6.94927   6.95685
 Alpha virt. eigenvalues --    6.99539   7.00172   7.01092   7.04224   7.04623
 Alpha virt. eigenvalues --    7.08461   7.10148   7.12471   7.13599   7.15229
 Alpha virt. eigenvalues --    7.17026   7.18867   7.20037   7.25614   7.27683
 Alpha virt. eigenvalues --    7.29332   7.32828   7.35024   7.37696   7.38806
 Alpha virt. eigenvalues --    7.39597   7.48583   7.49002   7.53540   7.53714
 Alpha virt. eigenvalues --    7.56798   7.58110   7.62176   7.62979   7.64721
 Alpha virt. eigenvalues --    7.66878   7.68660   7.70949   7.72452   7.73064
 Alpha virt. eigenvalues --    7.75339   7.78166   7.80853   7.81790   7.82661
 Alpha virt. eigenvalues --    7.85801   7.88675   7.89403   7.90890   7.91917
 Alpha virt. eigenvalues --    7.92718   7.94382   7.95086   7.98353   7.99706
 Alpha virt. eigenvalues --    8.02234   8.02682   8.05675   8.08080   8.09555
 Alpha virt. eigenvalues --    8.12075   8.15210   8.16319   8.17369   8.18512
 Alpha virt. eigenvalues --    8.21259   8.23542   8.25021   8.26278   8.29330
 Alpha virt. eigenvalues --    8.31395   8.31448   8.34946   8.35127   8.36021
 Alpha virt. eigenvalues --    8.37246   8.39954   8.42558   8.43238   8.44799
 Alpha virt. eigenvalues --    8.47446   8.48752   8.51124   8.51971   8.55709
 Alpha virt. eigenvalues --    8.60619   8.62722   8.64164   8.66120   8.68374
 Alpha virt. eigenvalues --    8.68503   8.70249   8.72029   8.75141   8.78401
 Alpha virt. eigenvalues --    8.81541   8.82357   8.85183   8.86519   8.89638
 Alpha virt. eigenvalues --    8.92187   8.95201   8.97969   8.99310   9.04881
 Alpha virt. eigenvalues --    9.06557   9.07793   9.08193   9.11302   9.13466
 Alpha virt. eigenvalues --    9.14805   9.16645   9.21702   9.25603   9.27868
 Alpha virt. eigenvalues --    9.29143   9.31210   9.34811   9.35574   9.36723
 Alpha virt. eigenvalues --    9.39313   9.40920   9.42816   9.46454   9.47372
 Alpha virt. eigenvalues --    9.54102   9.55372   9.61778   9.66231   9.71963
 Alpha virt. eigenvalues --    9.74395   9.80909   9.88200   9.91571  10.04963
 Alpha virt. eigenvalues --   10.09530  10.11843  10.20740  10.28154  10.35955
 Alpha virt. eigenvalues --   10.36563  10.46161  10.50405  10.56517  10.64127
 Alpha virt. eigenvalues --   10.68117  10.73762  10.79386  11.00631  11.27514
 Alpha virt. eigenvalues --   11.36075  11.43172  11.45241  11.51365  11.69190
 Alpha virt. eigenvalues --   11.73352  11.94274  12.10823  12.37829  12.54033
 Alpha virt. eigenvalues --   12.65288  12.69840  14.86408  29.08121  29.11729
 Alpha virt. eigenvalues --   29.27692  29.89280 148.68947 148.76053 148.95222
 Alpha virt. eigenvalues --  149.62303
          Condensed to atoms (all electrons):
               1          2          3          4          5          6
     1  C    4.811753   0.379450   0.409960   0.399378   0.342242  -0.038140
     2  C    0.379450   4.855001  -0.026188  -0.055062  -0.020074   0.338583
     3  H    0.409960  -0.026188   0.641210  -0.063754  -0.022215   0.005756
     4  H    0.399378  -0.055062  -0.063754   0.619294  -0.015295  -0.014084
     5  H    0.342242  -0.020074  -0.022215  -0.015295   0.697795   0.001507
     6  C   -0.038140   0.338583   0.005756  -0.014084   0.001507   4.852244
     7  H   -0.036471   0.359553  -0.004356  -0.002666   0.005173  -0.109928
     8  H   -0.045145   0.386351  -0.001155   0.009000  -0.001558  -0.026557
     9  C    0.003707  -0.045078  -0.000319   0.000005   0.000106   0.349371
    10  H    0.001905  -0.080336  -0.000502   0.001199   0.003441   0.367268
    11  H   -0.009397  -0.032892   0.000538   0.002806   0.000510   0.392412
    12  H   -0.000248  -0.001074   0.000030  -0.000055  -0.000032  -0.008157
    13  H   -0.000269   0.006898   0.000020  -0.000035   0.000010  -0.032410
    14  H    0.000396  -0.007521  -0.000045   0.000167   0.000013  -0.057817
               7          8          9         10         11         12
     1  C   -0.036471  -0.045145   0.003707   0.001905  -0.009397  -0.000248
     2  C    0.359553   0.386351  -0.045078  -0.080336  -0.032892  -0.001074
     3  H   -0.004356  -0.001155  -0.000319  -0.000502   0.000538   0.000030
     4  H   -0.002666   0.009000   0.000005   0.001199   0.002806  -0.000055
     5  H    0.005173  -0.001558   0.000106   0.003441   0.000510  -0.000032
     6  C   -0.109928  -0.026557   0.349371   0.367268   0.392412  -0.008157
     7  H    0.757772  -0.033917  -0.012409   0.023656  -0.009912  -0.002079
     8  H   -0.033917   0.685593  -0.000152  -0.004242   0.006557   0.002065
     9  C   -0.012409  -0.000152   5.151496  -0.043031  -0.053329   0.400299
    10  H    0.023656  -0.004242  -0.043031   0.721850  -0.023464  -0.007909
    11  H   -0.009912   0.006557  -0.053329  -0.023464   0.710210   0.008651
    12  H   -0.002079   0.002065   0.400299  -0.007909   0.008651   0.249114
    13  H   -0.000320  -0.000255   0.386958  -0.003603  -0.011162  -0.023175
    14  H    0.011690   0.000054   0.374259   0.010155  -0.001433  -0.001879
              13         14
     1  C   -0.000269   0.000396
     2  C    0.006898  -0.007521
     3  H    0.000020  -0.000045
     4  H   -0.000035   0.000167
     5  H    0.000010   0.000013
     6  C   -0.032410  -0.057817
     7  H   -0.000320   0.011690
     8  H   -0.000255   0.000054
     9  C    0.386958   0.374259
    10  H   -0.003603   0.010155
    11  H   -0.011162  -0.001433
    12  H   -0.023175  -0.001879
    13  H    0.657982  -0.024566
    14  H   -0.024566   0.635825
 Mulliken charges:
               1
     1  C   -0.219121
     2  C   -0.057612
     3  H    0.061018
     4  H    0.119102
     5  H    0.008378
     6  C   -0.020049
     7  H    0.054214
     8  H    0.023361
     9  C   -0.511883
    10  H    0.033612
    11  H    0.019905
    12  H    0.384448
    13  H    0.043928
    14  H    0.060701
 Sum of Mulliken charges =   0.00000
 Mulliken charges with hydrogens summed into heavy atoms:
               1
     1  C   -0.030623
     2  C    0.019962
     6  C    0.033467
     9  C   -0.022806
 Electronic spatial extent (au):  <R**2>=            455.4780
 Charge=              0.0000 electrons
 Dipole moment (field-independent basis, Debye):
    X=             -0.6322    Y=              0.1291    Z=             -0.5966  Tot=              0.8788
 Quadrupole moment (field-independent basis, Debye-Ang):
   XX=            -30.2333   YY=            -30.4126   ZZ=            -28.3282
   XY=             -0.0857   XZ=             -1.6660   YZ=             -0.0028
 Traceless Quadrupole moment (field-independent basis, Debye-Ang):
   XX=             -0.5753   YY=             -0.7546   ZZ=              1.3298
   XY=             -0.0857   XZ=             -1.6660   YZ=             -0.0028
 Octapole moment (field-independent basis, Debye-Ang**2):
  XXX=             -7.8759  YYY=              1.4657  ZZZ=             -1.8907  XYY=             -1.2411
  XXY=             -1.1168  XXZ=             -2.3429  XZZ=             -0.5420  YZZ=              0.6359
  YYZ=              0.3580  XYZ=             -0.7844
 Hexadecapole moment (field-independent basis, Debye-Ang**3):
 XXXX=           -512.9186 YYYY=           -102.5995 ZZZZ=            -68.4148 XXXY=              4.4007
 XXXZ=            -20.1347 YYYX=              1.4942 YYYZ=              2.4458 ZZZX=             -7.6483
 ZZZY=              0.2684 XXYY=           -100.3801 XXZZ=            -91.6288 YYZZ=            -25.6216
 XXYZ=             -3.0890 YYXZ=              0.8729 ZZXY=             -1.2154
 N-N= 1.279252025694D+02 E-N=-6.208473315028D+02  KE= 1.576324790458D+02
 Leave Link  601 at Wed Aug 26 12:30:55 2020, MaxMem=  2097152000 cpu:         1.2
 (Enter /opt/cluster/programs/g09/g09_d.01/g09/l9999.exe)
 1\1\GINC-NODE18\SP\RB2PLYPD3-FC\def2QZVP\C4H10\BOITTIER\26-Aug-2020\0\
 \#p B2PLYPD3/Def2QZVP\\butane_opt\\0,1\C,0,-4.050132,0.244212,-0.08625
 1\C,0,-2.717918,-0.626466,0.235018\H,0,-4.811778,-0.133494,-0.699375\H
 ,0,-3.677527,0.685713,-0.800393\H,0,-4.532403,1.4414,0.878402\C,0,-1.3
 65116,0.132291,0.085179\H,0,-2.35102,-1.16552,-0.578633\H,0,-2.897817,
 -1.459064,1.187504\C,0,-0.09068,-0.682741,-0.054517\H,0,-1.376137,0.80
 6419,0.999569\H,0,-1.412404,0.865025,-0.956869\H,0,0.09489,-0.934,0.57
 8344\H,0,0.922352,0.013844,-0.287284\H,0,-0.306161,-1.395026,-1.001573
 \\Version=ES64L-G09RevD.01\State=1-A\HF=-157.6944939\MP2=-157.9485827\
 RMSD=5.850e-09\PG=C01 [X(C4H10)]\\@


 IF YOU GIVE EVERYONE A PIECE OF YOUR MIND,
 PRETTY SOON IT WILL BE ALL GONE.
 Job cpu time:       0 days  1 hours 40 minutes 33.3 seconds.
 File lengths (MBytes):  RWF=    152 Int=      0 D2E=      0 Chk=     14 Scr=      1
 Normal termination of Gaussian 09 at Wed Aug 26 12:30:55 2020.
