 Entering Gaussian System, Link 0=/opt/cluster/programs/g09/g09_d.01/g09//g09
 Input=/home/boittier/MDCM/nms_sampling/butane_geom.xyz.dir/energies/butane_opt_284_energy.com
 Output=/scratch/boittier/butane_opt_284_energy/butane_opt_284_energy.out
 Initial command:
 /opt/cluster/programs/g09/g09_d.01/g09/l1.exe "/scratch/boittier/butane_opt_284_energy/Gau-66215.inp" -scrdir="/scratch/boittier/butane_opt_284_energy/"
 Entering Link 1 = /opt/cluster/programs/g09/g09_d.01/g09/l1.exe PID=     66216.
  
 Copyright (c) 1988,1990,1992,1993,1995,1998,2003,2009,2013,
            Gaussian, Inc.  All Rights Reserved.
  
 This is part of the Gaussian(R) 09 program.  It is based on
 the Gaussian(R) 03 system (copyright 2003, Gaussian, Inc.),
 the Gaussian(R) 98 system (copyright 1998, Gaussian, Inc.),
 the Gaussian(R) 94 system (copyright 1995, Gaussian, Inc.),
 the Gaussian 92(TM) system (copyright 1992, Gaussian, Inc.),
 the Gaussian 90(TM) system (copyright 1990, Gaussian, Inc.),
 the Gaussian 88(TM) system (copyright 1988, Gaussian, Inc.),
 the Gaussian 86(TM) system (copyright 1986, Carnegie Mellon
 University), and the Gaussian 82(TM) system (copyright 1983,
 Carnegie Mellon University). Gaussian is a federally registered
 trademark of Gaussian, Inc.
  
 This software contains proprietary and confidential information,
 including trade secrets, belonging to Gaussian, Inc.
  
 This software is provided under written license and may be
 used, copied, transmitted, or stored only in accord with that
 written license.
  
 The following legend is applicable only to US Government
 contracts under FAR:
  
                    RESTRICTED RIGHTS LEGEND
  
 Use, reproduction and disclosure by the US Government is
 subject to restrictions as set forth in subparagraphs (a)
 and (c) of the Commercial Computer Software - Restricted
 Rights clause in FAR 52.227-19.
  
 Gaussian, Inc.
 340 Quinnipiac St., Bldg. 40, Wallingford CT 06492
  
  
 ---------------------------------------------------------------
 Warning -- This program may not be used in any manner that
 competes with the business of Gaussian, Inc. or will provide
 assistance to any competitor of Gaussian, Inc.  The licensee
 of this program is prohibited from giving any competitor of
 Gaussian, Inc. access to this program.  By using this program,
 the user acknowledges that Gaussian, Inc. is engaged in the
 business of creating and licensing software in the field of
 computational chemistry and represents and warrants to the
 licensee that it is not a competitor of Gaussian, Inc. and that
 it will not use this program in any manner prohibited above.
 ---------------------------------------------------------------
  

 Cite this work as:
 Gaussian 09, Revision D.01,
 M. J. Frisch, G. W. Trucks, H. B. Schlegel, G. E. Scuseria, 
 M. A. Robb, J. R. Cheeseman, G. Scalmani, V. Barone, B. Mennucci, 
 G. A. Petersson, H. Nakatsuji, M. Caricato, X. Li, H. P. Hratchian, 
 A. F. Izmaylov, J. Bloino, G. Zheng, J. L. Sonnenberg, M. Hada, 
 M. Ehara, K. Toyota, R. Fukuda, J. Hasegawa, M. Ishida, T. Nakajima, 
 Y. Honda, O. Kitao, H. Nakai, T. Vreven, J. A. Montgomery, Jr., 
 J. E. Peralta, F. Ogliaro, M. Bearpark, J. J. Heyd, E. Brothers, 
 K. N. Kudin, V. N. Staroverov, T. Keith, R. Kobayashi, J. Normand, 
 K. Raghavachari, A. Rendell, J. C. Burant, S. S. Iyengar, J. Tomasi, 
 M. Cossi, N. Rega, J. M. Millam, M. Klene, J. E. Knox, J. B. Cross, 
 V. Bakken, C. Adamo, J. Jaramillo, R. Gomperts, R. E. Stratmann, 
 O. Yazyev, A. J. Austin, R. Cammi, C. Pomelli, J. W. Ochterski, 
 R. L. Martin, K. Morokuma, V. G. Zakrzewski, G. A. Voth, 
 P. Salvador, J. J. Dannenberg, S. Dapprich, A. D. Daniels, 
 O. Farkas, J. B. Foresman, J. V. Ortiz, J. Cioslowski, 
 and D. J. Fox, Gaussian, Inc., Wallingford CT, 2013.
 
 ******************************************
 Gaussian 09:  ES64L-G09RevD.01 24-Apr-2013
                26-Aug-2020 
 ******************************************
 %chk=/home/boittier/MDCM/nms_sampling/butane_geom.xyz.dir/butane_opt_284.chk
 %nproc=8
 Will use up to    8 processors via shared memory.
 %mem=16000MB
 --------------------
 #p B2PLYPD3/Def2QZVP
 --------------------
 1/38=1/1;
 2/12=2,17=6,18=5,40=1/2;
 3/5=45,7=101,11=9,16=1,25=1,30=1,74=-60/1,2,3;
 4//1;
 5/5=2,38=5/2;
 8/10=1/1;
 9/16=-3/6;
 6/7=2,8=2,9=2,10=2/1;
 99/5=1,9=1/99;
 Leave Link    1 at Wed Aug 26 20:44:53 2020, MaxMem=  2097152000 cpu:         3.0
 (Enter /opt/cluster/programs/g09/g09_d.01/g09/l101.exe)
 ----------
 butane_opt
 ----------
 Symbolic Z-matrix:
 Charge =  0 Multiplicity = 1
 C                    -3.8851    0.28103   0.00319 
 C                    -2.65812  -0.62875  -0.00605 
 H                    -4.79706  -0.23457  -0.02916 
 H                    -3.82745   0.64061  -0.6663 
 H                    -3.96137   1.12696   0.99489 
 C                    -1.41732   0.1136    0.01725 
 H                    -2.69975  -1.35005  -0.78207 
 H                    -2.72947  -1.02088   0.81379 
 C                    -0.24992  -0.65106   0.03887 
 H                    -1.16146   1.08606   1.03984 
 H                    -1.61786   0.64082  -0.6924 
 H                    -0.06613  -1.89088   1.23967 
 H                     0.60297  -0.08612  -0.67093 
 H                    -0.2659   -0.76119  -0.35533 
 
 NAtoms=     14 NQM=       14 NQMF=       0 NMMI=      0 NMMIF=      0
                NMic=       0 NMicF=      0.
                    Isotopes and Nuclear Properties:
 (Nuclear quadrupole moments (NQMom) in fm**2, nuclear magnetic moments (NMagM)
  in nuclear magnetons)

  Atom         1           2           3           4           5           6           7           8           9          10
 IAtWgt=          12          12           1           1           1          12           1           1          12           1
 AtmWgt=  12.0000000  12.0000000   1.0078250   1.0078250   1.0078250  12.0000000   1.0078250   1.0078250  12.0000000   1.0078250
 NucSpn=           0           0           1           1           1           0           1           1           0           1
 AtZEff=   0.0000000   0.0000000   0.0000000   0.0000000   0.0000000   0.0000000   0.0000000   0.0000000   0.0000000   0.0000000
 NQMom=    0.0000000   0.0000000   0.0000000   0.0000000   0.0000000   0.0000000   0.0000000   0.0000000   0.0000000   0.0000000
 NMagM=    0.0000000   0.0000000   2.7928460   2.7928460   2.7928460   0.0000000   2.7928460   2.7928460   0.0000000   2.7928460
 AtZNuc=   6.0000000   6.0000000   1.0000000   1.0000000   1.0000000   6.0000000   1.0000000   1.0000000   6.0000000   1.0000000

  Atom        11          12          13          14
 IAtWgt=           1           1           1           1
 AtmWgt=   1.0078250   1.0078250   1.0078250   1.0078250
 NucSpn=           1           1           1           1
 AtZEff=   0.0000000   0.0000000   0.0000000   0.0000000
 NQMom=    0.0000000   0.0000000   0.0000000   0.0000000
 NMagM=    2.7928460   2.7928460   2.7928460   2.7928460
 AtZNuc=   1.0000000   1.0000000   1.0000000   1.0000000
 Leave Link  101 at Wed Aug 26 20:44:58 2020, MaxMem=  2097152000 cpu:         0.5
 (Enter /opt/cluster/programs/g09/g09_d.01/g09/l202.exe)
                          Input orientation:                          
 ---------------------------------------------------------------------
 Center     Atomic      Atomic             Coordinates (Angstroms)
 Number     Number       Type             X           Y           Z
 ---------------------------------------------------------------------
      1          6           0       -3.885096    0.281028    0.003187
      2          6           0       -2.658122   -0.628746   -0.006051
      3          1           0       -4.797059   -0.234572   -0.029158
      4          1           0       -3.827446    0.640608   -0.666303
      5          1           0       -3.961369    1.126962    0.994894
      6          6           0       -1.417317    0.113604    0.017253
      7          1           0       -2.699748   -1.350047   -0.782068
      8          1           0       -2.729468   -1.020882    0.813794
      9          6           0       -0.249917   -0.651061    0.038867
     10          1           0       -1.161464    1.086060    1.039842
     11          1           0       -1.617864    0.640820   -0.692398
     12          1           0       -0.066125   -1.890881    1.239665
     13          1           0        0.602969   -0.086120   -0.670934
     14          1           0       -0.265902   -0.761185   -0.355330
 ---------------------------------------------------------------------
                    Distance matrix (angstroms):
                    1          2          3          4          5
     1  C    0.000000
     2  C    1.527494   0.000000
     3  H    1.048125   2.175077   0.000000
     4  H    0.762127   1.847840   1.453287   0.000000
     5  H    1.305720   2.404757   1.897587   1.736102   0.000000
     6  C    2.473492   1.446106   3.397946   2.560020   2.907727
     7  H    2.163812   1.060288   2.491961   2.290810   3.299220
     8  H    1.920294   0.911596   2.367231   2.481288   2.482662
     9  C    3.752944   2.408727   4.566683   3.868383   4.224953
    10  H    3.023392   2.504883   4.013026   3.196376   2.800564
    11  H    2.398672   1.779047   3.363552   2.209736   2.928362
    12  H    4.564056   3.140580   5.170591   4.918199   4.933580
    13  H    4.553237   3.372125   5.440057   4.489625   5.007967
    14  H    3.783293   2.421209   4.573302   3.840094   4.364021
                    6          7          8          9         10
     6  C    0.000000
     7  H    2.103763   0.000000
     8  H    1.908737   1.629726   0.000000
     9  C    1.395709   2.676600   2.624015   0.000000
    10  H    1.434162   3.408855   2.636084   2.202376   0.000000
    11  H    0.906521   2.267612   2.503104   2.018659   1.845859
    12  H    2.708869   3.363908   2.834018   1.735756   3.178345
    13  H    2.143606   3.538051   3.766077   1.245147   2.722863
    14  H    1.493262   2.540171   2.739243   0.409602   2.482106
                   11         12         13         14
    11  H    0.000000
    12  H    3.542636   0.000000
    13  H    2.336879   2.712054   0.000000
    14  H    1.976622   1.964722   1.144664   0.000000
 Small interatomic distances encountered:     14     9
 Problem with the distance matrix.
 Error termination via Lnk1e in /opt/cluster/programs/g09/g09_d.01/g09/l202.exe at Wed Aug 26 20:45:01 2020.
 Job cpu time:       0 days  0 hours  0 minutes  3.5 seconds.
 File lengths (MBytes):  RWF=      5 Int=      0 D2E=      0 Chk=      2 Scr=      1
