 Entering Gaussian System, Link 0=/opt/cluster/programs/g09/g09_d.01/g09//g09
 Input=/home/boittier/MDCM/nms_sampling/butane_geom.xyz.dir/energies/butane_opt_1468_energy.com
 Output=/scratch/boittier/butane_opt_1468_energy/butane_opt_1468_energy.out
 Initial command:
 /opt/cluster/programs/g09/g09_d.01/g09/l1.exe "/scratch/boittier/butane_opt_1468_energy/Gau-105972.inp" -scrdir="/scratch/boittier/butane_opt_1468_energy/"
 Entering Link 1 = /opt/cluster/programs/g09/g09_d.01/g09/l1.exe PID=    105973.
  
 Copyright (c) 1988,1990,1992,1993,1995,1998,2003,2009,2013,
            Gaussian, Inc.  All Rights Reserved.
  
 This is part of the Gaussian(R) 09 program.  It is based on
 the Gaussian(R) 03 system (copyright 2003, Gaussian, Inc.),
 the Gaussian(R) 98 system (copyright 1998, Gaussian, Inc.),
 the Gaussian(R) 94 system (copyright 1995, Gaussian, Inc.),
 the Gaussian 92(TM) system (copyright 1992, Gaussian, Inc.),
 the Gaussian 90(TM) system (copyright 1990, Gaussian, Inc.),
 the Gaussian 88(TM) system (copyright 1988, Gaussian, Inc.),
 the Gaussian 86(TM) system (copyright 1986, Carnegie Mellon
 University), and the Gaussian 82(TM) system (copyright 1983,
 Carnegie Mellon University). Gaussian is a federally registered
 trademark of Gaussian, Inc.
  
 This software contains proprietary and confidential information,
 including trade secrets, belonging to Gaussian, Inc.
  
 This software is provided under written license and may be
 used, copied, transmitted, or stored only in accord with that
 written license.
  
 The following legend is applicable only to US Government
 contracts under FAR:
  
                    RESTRICTED RIGHTS LEGEND
  
 Use, reproduction and disclosure by the US Government is
 subject to restrictions as set forth in subparagraphs (a)
 and (c) of the Commercial Computer Software - Restricted
 Rights clause in FAR 52.227-19.
  
 Gaussian, Inc.
 340 Quinnipiac St., Bldg. 40, Wallingford CT 06492
  
  
 ---------------------------------------------------------------
 Warning -- This program may not be used in any manner that
 competes with the business of Gaussian, Inc. or will provide
 assistance to any competitor of Gaussian, Inc.  The licensee
 of this program is prohibited from giving any competitor of
 Gaussian, Inc. access to this program.  By using this program,
 the user acknowledges that Gaussian, Inc. is engaged in the
 business of creating and licensing software in the field of
 computational chemistry and represents and warrants to the
 licensee that it is not a competitor of Gaussian, Inc. and that
 it will not use this program in any manner prohibited above.
 ---------------------------------------------------------------
  

 Cite this work as:
 Gaussian 09, Revision D.01,
 M. J. Frisch, G. W. Trucks, H. B. Schlegel, G. E. Scuseria, 
 M. A. Robb, J. R. Cheeseman, G. Scalmani, V. Barone, B. Mennucci, 
 G. A. Petersson, H. Nakatsuji, M. Caricato, X. Li, H. P. Hratchian, 
 A. F. Izmaylov, J. Bloino, G. Zheng, J. L. Sonnenberg, M. Hada, 
 M. Ehara, K. Toyota, R. Fukuda, J. Hasegawa, M. Ishida, T. Nakajima, 
 Y. Honda, O. Kitao, H. Nakai, T. Vreven, J. A. Montgomery, Jr., 
 J. E. Peralta, F. Ogliaro, M. Bearpark, J. J. Heyd, E. Brothers, 
 K. N. Kudin, V. N. Staroverov, T. Keith, R. Kobayashi, J. Normand, 
 K. Raghavachari, A. Rendell, J. C. Burant, S. S. Iyengar, J. Tomasi, 
 M. Cossi, N. Rega, J. M. Millam, M. Klene, J. E. Knox, J. B. Cross, 
 V. Bakken, C. Adamo, J. Jaramillo, R. Gomperts, R. E. Stratmann, 
 O. Yazyev, A. J. Austin, R. Cammi, C. Pomelli, J. W. Ochterski, 
 R. L. Martin, K. Morokuma, V. G. Zakrzewski, G. A. Voth, 
 P. Salvador, J. J. Dannenberg, S. Dapprich, A. D. Daniels, 
 O. Farkas, J. B. Foresman, J. V. Ortiz, J. Cioslowski, 
 and D. J. Fox, Gaussian, Inc., Wallingford CT, 2013.
 
 ******************************************
 Gaussian 09:  ES64L-G09RevD.01 24-Apr-2013
                26-Aug-2020 
 ******************************************
 %chk=/home/boittier/MDCM/nms_sampling/butane_geom.xyz.dir/butane_opt_1468.chk
 %nproc=8
 Will use up to    8 processors via shared memory.
 %mem=16000MB
 --------------------
 #p B2PLYPD3/Def2QZVP
 --------------------
 1/38=1/1;
 2/12=2,17=6,18=5,40=1/2;
 3/5=45,7=101,11=9,16=1,25=1,30=1,74=-60/1,2,3;
 4//1;
 5/5=2,38=5/2;
 8/10=1/1;
 9/16=-3/6;
 6/7=2,8=2,9=2,10=2/1;
 99/5=1,9=1/99;
 Leave Link    1 at Wed Aug 26 11:34:36 2020, MaxMem=  2097152000 cpu:         0.2
 (Enter /opt/cluster/programs/g09/g09_d.01/g09/l101.exe)
 ----------
 butane_opt
 ----------
 Symbolic Z-matrix:
 Charge =  0 Multiplicity = 1
 C                    -3.9153    0.27856   0.23184 
 C                    -2.65972  -0.59575  -0.13239 
 H                    -4.76155  -0.18301   0.26384 
 H                    -4.13387   0.65652  -0.43464 
 H                    -3.80312   1.17205   1.11761 
 C                    -1.46331   0.08464  -0.32241 
 H                    -2.80416  -1.28057  -1.09347 
 H                    -2.56425  -1.36166   0.93179 
 C                    -0.19964  -0.65703   0.2561 
 H                    -1.76115   0.61671   0.42507 
 H                    -1.0689    0.83842  -1.25817 
 H                    -0.44461  -0.84849   0.85941 
 H                     0.97077   0.19142   0.99832 
 H                     0.15587  -1.57897  -0.77697 
 
 NAtoms=     14 NQM=       14 NQMF=       0 NMMI=      0 NMMIF=      0
                NMic=       0 NMicF=      0.
                    Isotopes and Nuclear Properties:
 (Nuclear quadrupole moments (NQMom) in fm**2, nuclear magnetic moments (NMagM)
  in nuclear magnetons)

  Atom         1           2           3           4           5           6           7           8           9          10
 IAtWgt=          12          12           1           1           1          12           1           1          12           1
 AtmWgt=  12.0000000  12.0000000   1.0078250   1.0078250   1.0078250  12.0000000   1.0078250   1.0078250  12.0000000   1.0078250
 NucSpn=           0           0           1           1           1           0           1           1           0           1
 AtZEff=   0.0000000   0.0000000   0.0000000   0.0000000   0.0000000   0.0000000   0.0000000   0.0000000   0.0000000   0.0000000
 NQMom=    0.0000000   0.0000000   0.0000000   0.0000000   0.0000000   0.0000000   0.0000000   0.0000000   0.0000000   0.0000000
 NMagM=    0.0000000   0.0000000   2.7928460   2.7928460   2.7928460   0.0000000   2.7928460   2.7928460   0.0000000   2.7928460
 AtZNuc=   6.0000000   6.0000000   1.0000000   1.0000000   1.0000000   6.0000000   1.0000000   1.0000000   6.0000000   1.0000000

  Atom        11          12          13          14
 IAtWgt=           1           1           1           1
 AtmWgt=   1.0078250   1.0078250   1.0078250   1.0078250
 NucSpn=           1           1           1           1
 AtZEff=   0.0000000   0.0000000   0.0000000   0.0000000
 NQMom=    0.0000000   0.0000000   0.0000000   0.0000000
 NMagM=    2.7928460   2.7928460   2.7928460   2.7928460
 AtZNuc=   1.0000000   1.0000000   1.0000000   1.0000000
 Leave Link  101 at Wed Aug 26 11:34:36 2020, MaxMem=  2097152000 cpu:         0.5
 (Enter /opt/cluster/programs/g09/g09_d.01/g09/l202.exe)
                          Input orientation:                          
 ---------------------------------------------------------------------
 Center     Atomic      Atomic             Coordinates (Angstroms)
 Number     Number       Type             X           Y           Z
 ---------------------------------------------------------------------
      1          6           0       -3.915297    0.278557    0.231841
      2          6           0       -2.659723   -0.595753   -0.132387
      3          1           0       -4.761553   -0.183009    0.263840
      4          1           0       -4.133875    0.656516   -0.434641
      5          1           0       -3.803124    1.172054    1.117612
      6          6           0       -1.463307    0.084643   -0.322408
      7          1           0       -2.804160   -1.280573   -1.093470
      8          1           0       -2.564249   -1.361659    0.931786
      9          6           0       -0.199639   -0.657033    0.256099
     10          1           0       -1.761153    0.616709    0.425071
     11          1           0       -1.068898    0.838416   -1.258174
     12          1           0       -0.444607   -0.848489    0.859412
     13          1           0        0.970768    0.191420    0.998315
     14          1           0        0.155867   -1.578971   -0.776971
 ---------------------------------------------------------------------
                    Distance matrix (angstroms):
                    1          2          3          4          5
     1  C    0.000000
     2  C    1.572751   0.000000
     3  H    0.964477   2.178312   0.000000
     4  H    0.796761   1.957718   1.259626   0.000000
     5  H    1.263135   2.448470   1.866470   1.668732   0.000000
     6  C    2.521319   1.389409   3.360618   2.733417   2.954804
     7  H    2.328510   1.188916   2.622656   2.440187   3.449955
     8  H    2.237311   1.314607   2.581378   2.898944   2.826490
     9  C    3.831714   2.491323   4.586482   4.204848   4.131933
    10  H    2.189069   1.608804   3.109332   2.523985   2.226582
    11  H    3.261223   2.419703   4.122564   3.178896   3.637536
    12  H    3.702670   2.440139   4.408355   4.189309   3.927964
    13  H    4.946585   3.883116   5.791300   5.322317   4.875030
    14  H    4.587209   3.051189   5.216610   4.849379   5.179883
                    6          7          8          9         10
     6  C    0.000000
     7  H    2.063065   0.000000
     8  H    2.208363   2.041028   0.000000
     9  C    1.575313   2.998945   2.558209   0.000000
    10  H    0.964641   2.644524   2.194462   2.022201   0.000000
    11  H    1.264670   2.743789   3.445625   2.298913   1.833490
    12  H    1.818016   3.093208   2.182078   0.678713   2.017114
    13  H    2.771359   4.559869   3.861713   1.624995   2.823627
    14  H    2.365579   2.991818   3.219644   1.429541   3.152916
                   11         12         13         14
    11  H    0.000000
    12  H    2.778409   0.000000
    13  H    3.109756   1.761815   0.000000
    14  H    2.752338   1.889953   2.636283   0.000000
 Stoichiometry    C4H10
 Framework group  C1[X(C4H10)]
 Deg. of freedom    36
 Full point group                 C1      NOp   1
 Largest Abelian subgroup         C1      NOp   1
 Largest concise Abelian subgroup C1      NOp   1
                         Standard orientation:                         
 ---------------------------------------------------------------------
 Center     Atomic      Atomic             Coordinates (Angstroms)
 Number     Number       Type             X           Y           Z
 ---------------------------------------------------------------------
      1          6           0       -1.925507   -0.197944   -0.122857
      2          6           0       -0.530529    0.519661   -0.010498
      3          1           0       -2.674637    0.361010   -0.360744
      4          1           0       -2.204834   -0.275802    0.619263
      5          1           0       -1.981801   -1.349726   -0.638357
      6          6           0        0.524396   -0.245639    0.471072
      7          1           0       -0.543219    1.511053    0.645627
      8          1           0       -0.304541    0.837018   -1.266048
      9          6           0        1.897823    0.019002   -0.253686
     10          1           0        0.130939   -0.945927   -0.063081
     11          1           0        0.781659   -0.680593    1.630391
     12          1           0        1.687920    0.026525   -0.899082
     13          1           0        2.891317   -1.222384   -0.589156
     14          1           0        2.420099    1.168345    0.417004
 ---------------------------------------------------------------------
 Rotational constants (GHZ):     20.7670136      3.6315295      3.5457930
 Leave Link  202 at Wed Aug 26 11:34:36 2020, MaxMem=  2097152000 cpu:         0.0
 (Enter /opt/cluster/programs/g09/g09_d.01/g09/l301.exe)
 Standard basis: def2QZVP (5D, 7F)
 Ernie: Thresh=  0.10000D-02 Tol=  0.10000D-05 Strict=F.
 There are   638 symmetry adapted cartesian basis functions of A   symmetry.
 There are   528 symmetry adapted basis functions of A   symmetry.
   528 basis functions,   748 primitive gaussians,   638 cartesian basis functions
    17 alpha electrons       17 beta electrons
       nuclear repulsion energy       132.2144546456 Hartrees.
 IExCor=  419 DFT=T Ex+Corr=B2PLYPD3 ExCW=0 ScaHFX=  0.530000
 ScaDFX=  0.470000  0.470000  0.730000  0.730000 ScalE2=  0.270000  0.270000
 IRadAn=      0 IRanWt=     -1 IRanGd=            0 ICorTp=0 IEmpDi=141
 NAtoms=   14 NActive=   14 NUniq=   14 SFac= 1.00D+00 NAtFMM=   60 NAOKFM=F Big=F
 Integral buffers will be    131072 words long.
 Regular integral format.
 Two-electron integral symmetry is turned on.
 R6Disp:  Grimme-D3(BJ) Dispersion energy=       -0.0070446888 Hartrees.
 Nuclear repulsion after empirical dispersion term =      132.2074099568 Hartrees.
 Leave Link  301 at Wed Aug 26 11:34:36 2020, MaxMem=  2097152000 cpu:         0.5
 (Enter /opt/cluster/programs/g09/g09_d.01/g09/l302.exe)
 NPDir=0 NMtPBC=     1 NCelOv=     1 NCel=       1 NClECP=     1 NCelD=      1
         NCelK=      1 NCelE2=     1 NClLst=     1 CellRange=     0.0.
 One-electron integrals computed using PRISM.
   1 Symmetry operations used in ECPInt.
 ECPInt:  NShTT=   14196 NPrTT=   30597 LenC2=   13850 LenP2D=   25926.
 LDataN:  DoStor=T MaxTD1= 8 Len=  415
 NBasis=   528 RedAO= T EigKep=  2.26D-05  NBF=   528
 NBsUse=   528 1.00D-06 EigRej= -1.00D+00 NBFU=   528
 Precomputing XC quadrature grid using
 IXCGrd= 4 IRadAn=           0 IRanWt=          -1 IRanGd=           0 AccXCQ= 0.00D+00.
 Generated NRdTot=       0 NPtTot=           0 NUsed=           0 NTot=          32
 NSgBfM=   638   638   638   638   638 MxSgAt=    14 MxSgA2=    14.
 Leave Link  302 at Wed Aug 26 11:34:37 2020, MaxMem=  2097152000 cpu:         4.7
 (Enter /opt/cluster/programs/g09/g09_d.01/g09/l303.exe)
 DipDrv:  MaxL=1.
 Leave Link  303 at Wed Aug 26 11:34:37 2020, MaxMem=  2097152000 cpu:         0.6
 (Enter /opt/cluster/programs/g09/g09_d.01/g09/l401.exe)
 ExpMin= 7.60D-02 ExpMax= 6.70D+04 ExpMxC= 6.47D+02 IAcc=2 IRadAn=         4 AccDes= 0.00D+00
 Harris functional with IExCor=  419 and IRadAn=       4 diagonalized for initial guess.
 HarFok:  IExCor=  419 AccDes= 0.00D+00 IRadAn=         4 IDoV= 1 UseB2=F ITyADJ=14
 ICtDFT=  3500011 ScaDFX=  1.000000  1.000000  1.000000  1.000000
 FoFCou: FMM=F IPFlag=           0 FMFlag=      100000 FMFlg1=           0
         NFxFlg=           0 DoJE=T BraDBF=F KetDBF=T FulRan=T
         wScrn=  0.000000 ICntrl=     500 IOpCl=  0 I1Cent=   200000004 NGrid=           0
         NMat0=    1 NMatS0=      1 NMatT0=    0 NMatD0=    1 NMtDS0=    0 NMtDT0=    0
 Petite list used in FoFCou.
 Harris En= -158.104297846329    
 JPrj=0 DoOrth=F DoCkMO=F.
 Leave Link  401 at Wed Aug 26 11:34:39 2020, MaxMem=  2097152000 cpu:        15.9
 (Enter /opt/cluster/programs/g09/g09_d.01/g09/l502.exe)
 Closed shell SCF:
 Using DIIS extrapolation, IDIIS=  1040.
 Integral symmetry usage will be decided dynamically.
 IVT=     1249338 IEndB=     1249338 NGot=  2097152000 MDV=  2096326985
 LenX=  2096326985 LenY=  2095919303
 Requested convergence on RMS density matrix=1.00D-08 within 128 cycles.
 Requested convergence on MAX density matrix=1.00D-06.
 Requested convergence on             energy=1.00D-06.
 No special actions if energy rises.
 Fock matrices will be formed incrementally for  20 cycles.
 Integral accuracy reduced to 1.0D-05 until final iterations.

 Cycle   1  Pass 0  IDiag  1:
 FoFJK:  IHMeth= 1 ICntrl=       0 DoSepK=F KAlg= 0 I1Cent=   0 FoldK=F
 IRaf= 940000000 NMat=   1 IRICut=       1 DoRegI=T DoRafI=F ISym2E= 0.
 FoFCou: FMM=F IPFlag=           0 FMFlag=      100000 FMFlg1=           0
         NFxFlg=           0 DoJE=F BraDBF=F KetDBF=F FulRan=T
         wScrn=  0.000000 ICntrl=       0 IOpCl=  0 I1Cent=           0 NGrid=           0
         NMat0=    1 NMatS0=      1 NMatT0=    0 NMatD0=    1 NMtDS0=    0 NMtDT0=    0
 Symmetry not used in FoFCou.
 E= -157.031720759105    
 DIIS: error= 3.73D-02 at cycle   1 NSaved=   1.
 NSaved= 1 IEnMin= 1 EnMin= -157.031720759105     IErMin= 1 ErrMin= 3.73D-02
 ErrMax= 3.73D-02  0.00D+00 EMaxC= 1.00D-01 BMatC= 5.28D-01 BMatP= 5.28D-01
 IDIUse=3 WtCom= 6.27D-01 WtEn= 3.73D-01
 Coeff-Com:  0.100D+01
 Coeff-En:   0.100D+01
 Coeff:      0.100D+01
 Gap=     0.281 Goal=   None    Shift=    0.000
 GapD=    0.281 DampG=1.000 DampE=0.500 DampFc=0.5000 IDamp=-1.
 Damping current iteration by 5.00D-01
 RMSDP=1.69D-03 MaxDP=8.51D-02              OVMax= 3.10D-01

 Cycle   2  Pass 0  IDiag  1:
 RMSU=  8.20D-04    CP:  9.33D-01
 E= -157.254124236440     Delta-E=       -0.222403477336 Rises=F Damp=T
 DIIS: error= 5.94D-03 at cycle   2 NSaved=   2.
 NSaved= 2 IEnMin= 2 EnMin= -157.254124236440     IErMin= 2 ErrMin= 5.94D-03
 ErrMax= 5.94D-03  0.00D+00 EMaxC= 1.00D-01 BMatC= 3.90D-02 BMatP= 5.28D-01
 IDIUse=3 WtCom= 9.41D-01 WtEn= 5.94D-02
 Coeff-Com: -0.919D-01 0.109D+01
 Coeff-En:   0.000D+00 0.100D+01
 Coeff:     -0.864D-01 0.109D+01
 Gap=     0.415 Goal=   None    Shift=    0.000
 RMSDP=5.69D-04 MaxDP=4.08D-02 DE=-2.22D-01 OVMax= 1.98D-01

 Cycle   3  Pass 0  IDiag  1:
 RMSU=  4.38D-04    CP:  9.16D-01  5.61D-01
 E= -157.477108012293     Delta-E=       -0.222983775852 Rises=F Damp=F
 DIIS: error= 4.14D-03 at cycle   3 NSaved=   3.
 NSaved= 3 IEnMin= 3 EnMin= -157.477108012293     IErMin= 3 ErrMin= 4.14D-03
 ErrMax= 4.14D-03  0.00D+00 EMaxC= 1.00D-01 BMatC= 7.54D-03 BMatP= 3.90D-02
 IDIUse=3 WtCom= 9.59D-01 WtEn= 4.14D-02
 Coeff-Com: -0.913D-01 0.278D+00 0.813D+00
 Coeff-En:   0.000D+00 0.000D+00 0.100D+01
 Coeff:     -0.875D-01 0.267D+00 0.821D+00
 Gap=     0.353 Goal=   None    Shift=    0.000
 RMSDP=1.18D-04 MaxDP=9.66D-03 DE=-2.23D-01 OVMax= 3.41D-02

 Cycle   4  Pass 0  IDiag  1:
 RMSU=  1.06D-04    CP:  9.09D-01  6.10D-01  1.04D+00
 E= -157.484664387334     Delta-E=       -0.007556375041 Rises=F Damp=F
 DIIS: error= 1.49D-03 at cycle   4 NSaved=   4.
 NSaved= 4 IEnMin= 4 EnMin= -157.484664387334     IErMin= 4 ErrMin= 1.49D-03
 ErrMax= 1.49D-03  0.00D+00 EMaxC= 1.00D-01 BMatC= 1.19D-03 BMatP= 7.54D-03
 IDIUse=3 WtCom= 9.85D-01 WtEn= 1.49D-02
 Coeff-Com: -0.289D-01 0.403D-01 0.345D+00 0.644D+00
 Coeff-En:   0.000D+00 0.000D+00 0.000D+00 0.100D+01
 Coeff:     -0.284D-01 0.397D-01 0.340D+00 0.649D+00
 Gap=     0.356 Goal=   None    Shift=    0.000
 RMSDP=4.35D-05 MaxDP=2.45D-03 DE=-7.56D-03 OVMax= 7.89D-03

 Cycle   5  Pass 0  IDiag  1:
 RMSU=  2.97D-05    CP:  9.09D-01  5.84D-01  1.08D+00  8.46D-01
 E= -157.485813530944     Delta-E=       -0.001149143610 Rises=F Damp=F
 DIIS: error= 2.37D-04 at cycle   5 NSaved=   5.
 NSaved= 5 IEnMin= 5 EnMin= -157.485813530944     IErMin= 5 ErrMin= 2.37D-04
 ErrMax= 2.37D-04  0.00D+00 EMaxC= 1.00D-01 BMatC= 2.24D-05 BMatP= 1.19D-03
 IDIUse=3 WtCom= 9.98D-01 WtEn= 2.37D-03
 Coeff-Com:  0.602D-03-0.943D-02 0.260D-01 0.132D+00 0.851D+00
 Coeff-En:   0.000D+00 0.000D+00 0.000D+00 0.000D+00 0.100D+01
 Coeff:      0.601D-03-0.941D-02 0.260D-01 0.131D+00 0.852D+00
 Gap=     0.356 Goal=   None    Shift=    0.000
 RMSDP=1.25D-05 MaxDP=7.90D-04 DE=-1.15D-03 OVMax= 1.37D-03

 Cycle   6  Pass 0  IDiag  1:
 RMSU=  8.12D-06    CP:  9.09D-01  5.77D-01  1.09D+00  8.85D-01  1.13D+00
 E= -157.485839586564     Delta-E=       -0.000026055620 Rises=F Damp=F
 DIIS: error= 4.71D-05 at cycle   6 NSaved=   6.
 NSaved= 6 IEnMin= 6 EnMin= -157.485839586564     IErMin= 6 ErrMin= 4.71D-05
 ErrMax= 4.71D-05  0.00D+00 EMaxC= 1.00D-01 BMatC= 8.60D-07 BMatP= 2.24D-05
 IDIUse=1 WtCom= 1.00D+00 WtEn= 0.00D+00
 Coeff-Com:  0.189D-02-0.318D-02-0.159D-01-0.300D-01 0.384D-01 0.101D+01
 Coeff:      0.189D-02-0.318D-02-0.159D-01-0.300D-01 0.384D-01 0.101D+01
 Gap=     0.356 Goal=   None    Shift=    0.000
 RMSDP=4.08D-06 MaxDP=2.48D-04 DE=-2.61D-05 OVMax= 5.15D-04

 Initial convergence to 1.0D-05 achieved.  Increase integral accuracy.
 Cycle   7  Pass 1  IDiag  1:
 E= -157.485876597152     Delta-E=       -0.000037010588 Rises=F Damp=F
 DIIS: error= 5.43D-05 at cycle   1 NSaved=   1.
 NSaved= 1 IEnMin= 1 EnMin= -157.485876597152     IErMin= 1 ErrMin= 5.43D-05
 ErrMax= 5.43D-05  0.00D+00 EMaxC= 1.00D-01 BMatC= 6.70D-07 BMatP= 6.70D-07
 IDIUse=1 WtCom= 1.00D+00 WtEn= 0.00D+00
 Coeff-Com:  0.100D+01
 Coeff:      0.100D+01
 Gap=     0.356 Goal=   None    Shift=    0.000
 RMSDP=4.08D-06 MaxDP=2.48D-04 DE=-3.70D-05 OVMax= 1.48D-04

 Cycle   8  Pass 1  IDiag  1:
 RMSU=  3.41D-05    CP:  1.00D+00
 E= -157.485876868577     Delta-E=       -0.000000271425 Rises=F Damp=F
 DIIS: error= 9.97D-06 at cycle   2 NSaved=   2.
 NSaved= 2 IEnMin= 2 EnMin= -157.485876868577     IErMin= 2 ErrMin= 9.97D-06
 ErrMax= 9.97D-06  0.00D+00 EMaxC= 1.00D-01 BMatC= 5.94D-08 BMatP= 6.70D-07
 IDIUse=1 WtCom= 1.00D+00 WtEn= 0.00D+00
 Coeff-Com:  0.139D+00 0.861D+00
 Coeff:      0.139D+00 0.861D+00
 Gap=     0.356 Goal=   None    Shift=    0.000
 RMSDP=9.22D-07 MaxDP=7.44D-05 DE=-2.71D-07 OVMax= 7.62D-05

 Cycle   9  Pass 1  IDiag  1:
 RMSU=  4.96D-07    CP:  1.00D+00  1.02D+00
 E= -157.485876908127     Delta-E=       -0.000000039550 Rises=F Damp=F
 DIIS: error= 5.07D-06 at cycle   3 NSaved=   3.
 NSaved= 3 IEnMin= 3 EnMin= -157.485876908127     IErMin= 3 ErrMin= 5.07D-06
 ErrMax= 5.07D-06  0.00D+00 EMaxC= 1.00D-01 BMatC= 1.91D-08 BMatP= 5.94D-08
 IDIUse=1 WtCom= 1.00D+00 WtEn= 0.00D+00
 Coeff-Com: -0.109D-01 0.355D+00 0.656D+00
 Coeff:     -0.109D-01 0.355D+00 0.656D+00
 Gap=     0.356 Goal=   None    Shift=    0.000
 RMSDP=2.20D-07 MaxDP=1.41D-05 DE=-3.95D-08 OVMax= 2.75D-05

 Cycle  10  Pass 1  IDiag  1:
 RMSU=  1.47D-07    CP:  1.00D+00  1.03D+00  9.37D-01
 E= -157.485876925677     Delta-E=       -0.000000017550 Rises=F Damp=F
 DIIS: error= 5.38D-07 at cycle   4 NSaved=   4.
 NSaved= 4 IEnMin= 4 EnMin= -157.485876925677     IErMin= 4 ErrMin= 5.38D-07
 ErrMax= 5.38D-07  0.00D+00 EMaxC= 1.00D-01 BMatC= 1.24D-10 BMatP= 1.91D-08
 IDIUse=1 WtCom= 1.00D+00 WtEn= 0.00D+00
 Coeff-Com: -0.308D-02 0.294D-01 0.748D-01 0.899D+00
 Coeff:     -0.308D-02 0.294D-01 0.748D-01 0.899D+00
 Gap=     0.356 Goal=   None    Shift=    0.000
 RMSDP=3.46D-08 MaxDP=1.63D-06 DE=-1.76D-08 OVMax= 6.13D-06

 Cycle  11  Pass 1  IDiag  1:
 RMSU=  2.77D-08    CP:  1.00D+00  1.03D+00  9.61D-01  1.11D+00
 E= -157.485876925903     Delta-E=       -0.000000000226 Rises=F Damp=F
 DIIS: error= 3.94D-07 at cycle   5 NSaved=   5.
 NSaved= 5 IEnMin= 5 EnMin= -157.485876925903     IErMin= 5 ErrMin= 3.94D-07
 ErrMax= 3.94D-07  0.00D+00 EMaxC= 1.00D-01 BMatC= 3.03D-11 BMatP= 1.24D-10
 IDIUse=1 WtCom= 1.00D+00 WtEn= 0.00D+00
 Coeff-Com:  0.987D-03-0.535D-01-0.926D-01 0.274D+00 0.871D+00
 Coeff:      0.987D-03-0.535D-01-0.926D-01 0.274D+00 0.871D+00
 Gap=     0.356 Goal=   None    Shift=    0.000
 RMSDP=1.64D-08 MaxDP=9.44D-07 DE=-2.26D-10 OVMax= 4.80D-06

 Cycle  12  Pass 1  IDiag  1:
 RMSU=  1.15D-08    CP:  1.00D+00  1.03D+00  9.74D-01  1.16D+00  1.24D+00
 E= -157.485876925949     Delta-E=       -0.000000000045 Rises=F Damp=F
 DIIS: error= 8.62D-08 at cycle   6 NSaved=   6.
 NSaved= 6 IEnMin= 6 EnMin= -157.485876925949     IErMin= 6 ErrMin= 8.62D-08
 ErrMax= 8.62D-08  0.00D+00 EMaxC= 1.00D-01 BMatC= 3.54D-12 BMatP= 3.03D-11
 IDIUse=1 WtCom= 1.00D+00 WtEn= 0.00D+00
 Coeff-Com:  0.614D-03-0.252D-01-0.451D-01 0.638D-01 0.377D+00 0.629D+00
 Coeff:      0.614D-03-0.252D-01-0.451D-01 0.638D-01 0.377D+00 0.629D+00
 Gap=     0.356 Goal=   None    Shift=    0.000
 RMSDP=3.19D-09 MaxDP=2.27D-07 DE=-4.53D-11 OVMax= 7.63D-07

 SCF Done:  E(RB2PLYPD3) =  -157.485876926     A.U. after   12 cycles
            NFock= 12  Conv=0.32D-08     -V/T= 1.9940
 KE= 1.584381967901D+02 PE=-6.295561979080D+02 EE= 1.814247142352D+02
 Leave Link  502 at Wed Aug 26 11:40:54 2020, MaxMem=  2097152000 cpu:      2991.9
 (Enter /opt/cluster/programs/g09/g09_d.01/g09/l801.exe)
 DoSCS=T DFT=T ScalE2(SS,OS)=  0.270000  0.270000
 ExpMin= 7.60D-02 ExpMax= 6.70D+04 ExpMxC= 6.47D+02 IAcc=3 IRadAn=         5 AccDes= 0.00D+00
 HarFok:  IExCor=  205 AccDes= 0.00D+00 IRadAn=         5 IDoV=-2 UseB2=F ITyADJ=14
 ICtDFT= 12500011 ScaDFX=  1.000000  1.000000  1.000000  1.000000
 Largest valence mixing into a core orbital is  1.17D-04
 Largest core mixing into a valence orbital is  1.50D-05
 Range of M.O.s used for correlation:     5   528
 NBasis=   528 NAE=    17 NBE=    17 NFC=     4 NFV=     0
 NROrb=    524 NOA=    13 NOB=    13 NVA=   511 NVB=   511

 **** Warning!!: The largest alpha MO coefficient is  0.35759576D+02

 Leave Link  801 at Wed Aug 26 11:40:54 2020, MaxMem=  2097152000 cpu:         1.1
 (Enter /opt/cluster/programs/g09/g09_d.01/g09/l906.exe)
 DoSCS=T DFT=T ScalE2(SS,OS)=  0.270000  0.270000
 FulOut=F Deriv=F AODrv=F NAtomX=    14
   MMem=         463  MDisk=          13 MDiskD=          13
  W3Min=     4238234 MinDsk=     6904766 NBas6D=         638
 NBas2D=      205689    NTT=      203841    LW2=     4508827
    MDV=  2095902488 MDiskM=        7293 NBas2p=      189369
 Fully direct method using O(OVN) memory.
 IMap=   1   2   3   4   5   6   7   8   9  10  11  12  13
 JobTyp=1 Pass  1:  I=   1 to  13 NPSUse=  8 ParTrn=T ParDer=T DoDerP=F.
 Spin components of T(2) and E(2):
     alpha-alpha T2 =       0.4330399573D-01 E2=     -0.2706220244D-01
     alpha-beta  T2 =       0.3047961689D+00 E2=     -0.2015770194D+00
     beta-beta   T2 =       0.4330399573D-01 E2=     -0.2706220244D-01
 The integrals were generated   1 times.
 E2(B2PLYPD3) =    -0.2557014243D+00 E(B2PLYPD3) =    -0.15774157835028D+03
 Leave Link  906 at Wed Aug 26 11:46:29 2020, MaxMem=  2097152000 cpu:      2677.0
 (Enter /opt/cluster/programs/g09/g09_d.01/g09/l601.exe)
 Copying SCF densities to generalized density rwf, IOpCl= 0 IROHF=0.

 **********************************************************************

            Population analysis using the SCF density.

 **********************************************************************

 Orbital symmetries:
       Occupied  (A) (A) (A) (A) (A) (A) (A) (A) (A) (A) (A) (A)
                 (A) (A) (A) (A) (A)
       Virtual   (A) (A) (A) (A) (A) (A) (A) (A) (A) (A) (A) (A)
                 (A) (A) (A) (A) (A) (A) (A) (A) (A) (A) (A) (A)
                 (A) (A) (A) (A) (A) (A) (A) (A) (A) (A) (A) (A)
                 (A) (A) (A) (A) (A) (A) (A) (A) (A) (A) (A) (A)
                 (A) (A) (A) (A) (A) (A) (A) (A) (A) (A) (A) (A)
                 (A) (A) (A) (A) (A) (A) (A) (A) (A) (A) (A) (A)
                 (A) (A) (A) (A) (A) (A) (A) (A) (A) (A) (A) (A)
                 (A) (A) (A) (A) (A) (A) (A) (A) (A) (A) (A) (A)
                 (A) (A) (A) (A) (A) (A) (A) (A) (A) (A) (A) (A)
                 (A) (A) (A) (A) (A) (A) (A) (A) (A) (A) (A) (A)
                 (A) (A) (A) (A) (A) (A) (A) (A) (A) (A) (A) (A)
                 (A) (A) (A) (A) (A) (A) (A) (A) (A) (A) (A) (A)
                 (A) (A) (A) (A) (A) (A) (A) (A) (A) (A) (A) (A)
                 (A) (A) (A) (A) (A) (A) (A) (A) (A) (A) (A) (A)
                 (A) (A) (A) (A) (A) (A) (A) (A) (A) (A) (A) (A)
                 (A) (A) (A) (A) (A) (A) (A) (A) (A) (A) (A) (A)
                 (A) (A) (A) (A) (A) (A) (A) (A) (A) (A) (A) (A)
                 (A) (A) (A) (A) (A) (A) (A) (A) (A) (A) (A) (A)
                 (A) (A) (A) (A) (A) (A) (A) (A) (A) (A) (A) (A)
                 (A) (A) (A) (A) (A) (A) (A) (A) (A) (A) (A) (A)
                 (A) (A) (A) (A) (A) (A) (A) (A) (A) (A) (A) (A)
                 (A) (A) (A) (A) (A) (A) (A) (A) (A) (A) (A) (A)
                 (A) (A) (A) (A) (A) (A) (A) (A) (A) (A) (A) (A)
                 (A) (A) (A) (A) (A) (A) (A) (A) (A) (A) (A) (A)
                 (A) (A) (A) (A) (A) (A) (A) (A) (A) (A) (A) (A)
                 (A) (A) (A) (A) (A) (A) (A) (A) (A) (A) (A) (A)
                 (A) (A) (A) (A) (A) (A) (A) (A) (A) (A) (A) (A)
                 (A) (A) (A) (A) (A) (A) (A) (A) (A) (A) (A) (A)
                 (A) (A) (A) (A) (A) (A) (A) (A) (A) (A) (A) (A)
                 (A) (A) (A) (A) (A) (A) (A) (A) (A) (A) (A) (A)
                 (A) (A) (A) (A) (A) (A) (A) (A) (A) (A) (A) (A)
                 (A) (A) (A) (A) (A) (A) (A) (A) (A) (A) (A) (A)
                 (A) (A) (A) (A) (A) (A) (A) (A) (A) (A) (A) (A)
                 (A) (A) (A) (A) (A) (A) (A) (A) (A) (A) (A) (A)
                 (A) (A) (A) (A) (A) (A) (A) (A) (A) (A) (A) (A)
                 (A) (A) (A) (A) (A) (A) (A) (A) (A) (A) (A) (A)
                 (A) (A) (A) (A) (A) (A) (A) (A) (A) (A) (A) (A)
                 (A) (A) (A) (A) (A) (A) (A) (A) (A) (A) (A) (A)
                 (A) (A) (A) (A) (A) (A) (A) (A) (A) (A) (A) (A)
                 (A) (A) (A) (A) (A) (A) (A) (A) (A) (A) (A) (A)
                 (A) (A) (A) (A) (A) (A) (A) (A) (A) (A) (A) (A)
                 (A) (A) (A) (A) (A) (A) (A) (A) (A) (A) (A) (A)
                 (A) (A) (A) (A) (A) (A) (A)
 The electronic state is 1-A.
 Alpha  occ. eigenvalues --  -10.65144 -10.64179 -10.60820 -10.58186  -0.96477
 Alpha  occ. eigenvalues --   -0.87955  -0.80142  -0.65629  -0.57065  -0.51567
 Alpha  occ. eigenvalues --   -0.48477  -0.46836  -0.43737  -0.41660  -0.37394
 Alpha  occ. eigenvalues --   -0.35460  -0.33250
 Alpha virt. eigenvalues --    0.02319   0.05483   0.06433   0.06976   0.08945
 Alpha virt. eigenvalues --    0.10202   0.11754   0.13431   0.13607   0.14713
 Alpha virt. eigenvalues --    0.15378   0.16667   0.18019   0.19341   0.20444
 Alpha virt. eigenvalues --    0.21384   0.22232   0.24166   0.25482   0.27202
 Alpha virt. eigenvalues --    0.28308   0.28898   0.30169   0.31682   0.32694
 Alpha virt. eigenvalues --    0.33573   0.35601   0.36273   0.36933   0.39291
 Alpha virt. eigenvalues --    0.40741   0.42718   0.43645   0.45432   0.48295
 Alpha virt. eigenvalues --    0.48733   0.51687   0.52863   0.53921   0.58209
 Alpha virt. eigenvalues --    0.60192   0.61545   0.63803   0.64370   0.66004
 Alpha virt. eigenvalues --    0.67545   0.68012   0.68869   0.70946   0.71204
 Alpha virt. eigenvalues --    0.72118   0.74668   0.75238   0.76593   0.77186
 Alpha virt. eigenvalues --    0.77880   0.80385   0.83212   0.83812   0.85213
 Alpha virt. eigenvalues --    0.86289   0.86959   0.88043   0.89179   0.90951
 Alpha virt. eigenvalues --    0.93098   0.94618   0.95282   0.95901   0.97533
 Alpha virt. eigenvalues --    0.98087   0.99067   1.00274   1.01062   1.03181
 Alpha virt. eigenvalues --    1.04881   1.06969   1.07859   1.08689   1.10788
 Alpha virt. eigenvalues --    1.12581   1.12924   1.15679   1.18072   1.18143
 Alpha virt. eigenvalues --    1.19332   1.21772   1.22005   1.23278   1.26081
 Alpha virt. eigenvalues --    1.27179   1.31780   1.33126   1.34557   1.36075
 Alpha virt. eigenvalues --    1.36835   1.39395   1.41198   1.42324   1.43558
 Alpha virt. eigenvalues --    1.47053   1.49010   1.50444   1.56076   1.58987
 Alpha virt. eigenvalues --    1.62648   1.69213   1.70664   1.75664   1.78194
 Alpha virt. eigenvalues --    1.79908   1.80235   1.83371   1.85463   1.87621
 Alpha virt. eigenvalues --    1.89630   1.91293   1.92642   1.94704   1.95573
 Alpha virt. eigenvalues --    1.96601   1.98671   2.01171   2.02105   2.03376
 Alpha virt. eigenvalues --    2.03681   2.04850   2.05847   2.07506   2.09048
 Alpha virt. eigenvalues --    2.10887   2.11137   2.14234   2.15259   2.16854
 Alpha virt. eigenvalues --    2.17867   2.18860   2.20036   2.21465   2.22401
 Alpha virt. eigenvalues --    2.24059   2.25603   2.27306   2.28479   2.29003
 Alpha virt. eigenvalues --    2.30004   2.31516   2.32129   2.33073   2.35148
 Alpha virt. eigenvalues --    2.36624   2.38881   2.40200   2.41516   2.43344
 Alpha virt. eigenvalues --    2.44972   2.46367   2.46789   2.47922   2.50534
 Alpha virt. eigenvalues --    2.52496   2.53636   2.55078   2.55964   2.57777
 Alpha virt. eigenvalues --    2.58669   2.61050   2.63342   2.64438   2.65961
 Alpha virt. eigenvalues --    2.67263   2.68411   2.69219   2.70639   2.72830
 Alpha virt. eigenvalues --    2.74214   2.76409   2.78144   2.78787   2.81244
 Alpha virt. eigenvalues --    2.82847   2.85296   2.86244   2.89019   2.90122
 Alpha virt. eigenvalues --    2.91508   2.92981   2.96420   2.97581   2.98874
 Alpha virt. eigenvalues --    3.00377   3.01299   3.02700   3.03803   3.04847
 Alpha virt. eigenvalues --    3.08643   3.12498   3.13298   3.14940   3.16352
 Alpha virt. eigenvalues --    3.18906   3.19945   3.20986   3.22981   3.25733
 Alpha virt. eigenvalues --    3.26984   3.28464   3.31501   3.33773   3.37567
 Alpha virt. eigenvalues --    3.38462   3.38784   3.42520   3.45348   3.46721
 Alpha virt. eigenvalues --    3.50184   3.52570   3.54021   3.55073   3.60839
 Alpha virt. eigenvalues --    3.62640   3.65629   3.67750   3.69299   3.74316
 Alpha virt. eigenvalues --    3.75813   3.78561   3.79874   3.82022   3.85424
 Alpha virt. eigenvalues --    3.88163   3.91156   3.95129   3.96909   3.99137
 Alpha virt. eigenvalues --    4.02025   4.03004   4.07243   4.09882   4.14577
 Alpha virt. eigenvalues --    4.18071   4.19672   4.24794   4.28383   4.31685
 Alpha virt. eigenvalues --    4.35380   4.39935   4.51339   4.53149   4.56944
 Alpha virt. eigenvalues --    4.62705   4.68467   4.85697   4.95858   5.04387
 Alpha virt. eigenvalues --    5.09715   5.11717   5.15703   5.21660   5.27655
 Alpha virt. eigenvalues --    5.29401   5.34914   5.38348   5.44121   5.46114
 Alpha virt. eigenvalues --    5.47584   5.52398   5.56242   5.56368   5.60286
 Alpha virt. eigenvalues --    5.61706   5.63043   5.66286   5.67159   5.69495
 Alpha virt. eigenvalues --    5.70204   5.72784   5.74608   5.77351   5.79417
 Alpha virt. eigenvalues --    5.80703   5.83345   5.84150   5.85359   5.87668
 Alpha virt. eigenvalues --    5.88581   5.90705   5.92141   5.93308   5.94593
 Alpha virt. eigenvalues --    5.95777   5.97631   5.97868   5.99962   6.01917
 Alpha virt. eigenvalues --    6.02335   6.03423   6.04439   6.07351   6.08446
 Alpha virt. eigenvalues --    6.09424   6.11931   6.14620   6.15311   6.20183
 Alpha virt. eigenvalues --    6.21776   6.22333   6.23095   6.25733   6.26794
 Alpha virt. eigenvalues --    6.27546   6.29341   6.29851   6.33651   6.36252
 Alpha virt. eigenvalues --    6.36834   6.40250   6.42741   6.44039   6.47121
 Alpha virt. eigenvalues --    6.48643   6.53483   6.55546   6.56568   6.58423
 Alpha virt. eigenvalues --    6.59896   6.61537   6.63898   6.65155   6.70797
 Alpha virt. eigenvalues --    6.71961   6.72379   6.74079   6.77078   6.78493
 Alpha virt. eigenvalues --    6.78987   6.81824   6.86830   6.88127   6.89850
 Alpha virt. eigenvalues --    6.93520   6.94612   6.95862   6.96092   6.98489
 Alpha virt. eigenvalues --    7.01153   7.03312   7.05061   7.08165   7.09241
 Alpha virt. eigenvalues --    7.10584   7.12647   7.14044   7.16797   7.19876
 Alpha virt. eigenvalues --    7.25017   7.26282   7.27920   7.30541   7.32984
 Alpha virt. eigenvalues --    7.34734   7.37687   7.39746   7.43071   7.44738
 Alpha virt. eigenvalues --    7.46410   7.47748   7.51339   7.52822   7.54726
 Alpha virt. eigenvalues --    7.58366   7.60474   7.63053   7.64336   7.65860
 Alpha virt. eigenvalues --    7.66911   7.69511   7.71593   7.73586   7.75439
 Alpha virt. eigenvalues --    7.76756   7.78332   7.79697   7.80752   7.85075
 Alpha virt. eigenvalues --    7.86785   7.88386   7.91638   7.94188   7.96131
 Alpha virt. eigenvalues --    7.96304   7.99084   8.01908   8.03404   8.06642
 Alpha virt. eigenvalues --    8.08146   8.10395   8.12573   8.14174   8.16528
 Alpha virt. eigenvalues --    8.18250   8.21328   8.21498   8.24133   8.26959
 Alpha virt. eigenvalues --    8.27187   8.28064   8.30973   8.34018   8.35113
 Alpha virt. eigenvalues --    8.36255   8.37907   8.38928   8.40909   8.42563
 Alpha virt. eigenvalues --    8.43494   8.45034   8.48397   8.50130   8.52351
 Alpha virt. eigenvalues --    8.55929   8.56939   8.58615   8.60558   8.63883
 Alpha virt. eigenvalues --    8.66202   8.67706   8.68898   8.70781   8.71971
 Alpha virt. eigenvalues --    8.75586   8.76446   8.79422   8.81684   8.82226
 Alpha virt. eigenvalues --    8.84247   8.88054   8.90025   8.94411   8.96667
 Alpha virt. eigenvalues --    8.97278   8.99347   9.00713   9.03333   9.06608
 Alpha virt. eigenvalues --    9.09645   9.13400   9.14460   9.18284   9.20268
 Alpha virt. eigenvalues --    9.21326   9.22187   9.26240   9.28658   9.31488
 Alpha virt. eigenvalues --    9.36317   9.38691   9.39316   9.41225   9.45267
 Alpha virt. eigenvalues --    9.46874   9.48544   9.53097   9.64377   9.65612
 Alpha virt. eigenvalues --    9.69524   9.75999   9.81536   9.85370   9.89230
 Alpha virt. eigenvalues --    9.92177   9.98704  10.09344  10.14608  10.20674
 Alpha virt. eigenvalues --   10.22649  10.28070  10.34321  10.40819  10.42683
 Alpha virt. eigenvalues --   10.59031  10.62901  10.77227  10.85154  10.86542
 Alpha virt. eigenvalues --   11.06119  11.11088  11.14486  11.16306  11.22958
 Alpha virt. eigenvalues --   11.28569  11.62723  11.67225  11.75150  11.81279
 Alpha virt. eigenvalues --   11.85487  11.88743  12.00756  12.33214  12.50134
 Alpha virt. eigenvalues --   12.69981  13.20066  15.38716  29.02324  29.45102
 Alpha virt. eigenvalues --   29.52731  29.89944 148.67999 149.12168 149.23881
 Alpha virt. eigenvalues --  149.65836
          Condensed to atoms (all electrons):
               1          2          3          4          5          6
     1  C    4.842225   0.384629   0.408430   0.446476   0.382604  -0.044339
     2  C    0.384629   4.893526  -0.033770  -0.019566  -0.036826   0.291536
     3  H    0.408430  -0.033770   0.646179  -0.043355  -0.020306   0.004552
     4  H    0.446476  -0.019566  -0.043355   0.420349  -0.015718  -0.002880
     5  H    0.382604  -0.036826  -0.020306  -0.015718   0.642351   0.000223
     6  C   -0.044339   0.291536   0.004552  -0.002880   0.000223   4.872409
     7  H   -0.041174   0.371309  -0.000913  -0.007185   0.005738  -0.083190
     8  H   -0.055896   0.389153  -0.007616   0.010787  -0.002445  -0.034537
     9  C    0.007897  -0.070036  -0.000515  -0.000541   0.000412   0.372983
    10  H   -0.037758  -0.118721   0.001834  -0.003480   0.008284   0.375220
    11  H   -0.001460  -0.028406  -0.000306   0.002264  -0.000178   0.396833
    12  H   -0.000132  -0.000358   0.000095  -0.000036  -0.000054  -0.029639
    13  H   -0.000233   0.008157   0.000011   0.000073  -0.000070  -0.012836
    14  H   -0.000482  -0.002112   0.000055  -0.000009   0.000009  -0.055026
               7          8          9         10         11         12
     1  C   -0.041174  -0.055896   0.007897  -0.037758  -0.001460  -0.000132
     2  C    0.371309   0.389153  -0.070036  -0.118721  -0.028406  -0.000358
     3  H   -0.000913  -0.007616  -0.000515   0.001834  -0.000306   0.000095
     4  H   -0.007185   0.010787  -0.000541  -0.003480   0.002264  -0.000036
     5  H    0.005738  -0.002445   0.000412   0.008284  -0.000178  -0.000054
     6  C   -0.083190  -0.034537   0.372983   0.375220   0.396833  -0.029639
     7  H    0.733778  -0.025256   0.003592   0.029785  -0.008756  -0.001389
     8  H   -0.025256   0.715750  -0.021676  -0.006084   0.008576   0.006450
     9  C    0.003592  -0.021676   5.453230  -0.050002  -0.051301   0.334842
    10  H    0.029785  -0.006084  -0.050002   0.749081  -0.028024  -0.006205
    11  H   -0.008756   0.008576  -0.051301  -0.028024   0.660489   0.007556
    12  H   -0.001389   0.006450   0.334842  -0.006205   0.007556   0.185158
    13  H   -0.000842   0.001608   0.310012  -0.007090  -0.001062  -0.010215
    14  H    0.006418   0.001955   0.345580   0.011514  -0.001718   0.005524
              13         14
     1  C   -0.000233  -0.000482
     2  C    0.008157  -0.002112
     3  H    0.000011   0.000055
     4  H    0.000073  -0.000009
     5  H   -0.000070   0.000009
     6  C   -0.012836  -0.055026
     7  H   -0.000842   0.006418
     8  H    0.001608   0.001955
     9  C    0.310012   0.345580
    10  H   -0.007090   0.011514
    11  H   -0.001062  -0.001718
    12  H   -0.010215   0.005524
    13  H    0.742919  -0.016211
    14  H   -0.016211   0.652472
 Mulliken charges:
               1
     1  C   -0.290786
     2  C   -0.028516
     3  H    0.045625
     4  H    0.212822
     5  H    0.035974
     6  C   -0.051309
     7  H    0.018084
     8  H    0.019231
     9  C   -0.634478
    10  H    0.081647
    11  H    0.045493
    12  H    0.508403
    13  H   -0.014219
    14  H    0.052028
 Sum of Mulliken charges =   0.00000
 Mulliken charges with hydrogens summed into heavy atoms:
               1
     1  C    0.003635
     2  C    0.008800
     6  C    0.075831
     9  C   -0.088266
 Electronic spatial extent (au):  <R**2>=            428.9186
 Charge=              0.0000 electrons
 Dipole moment (field-independent basis, Debye):
    X=             -1.3039    Y=              0.0833    Z=              0.1578  Tot=              1.3160
 Quadrupole moment (field-independent basis, Debye-Ang):
   XX=            -31.2102   YY=            -29.8326   ZZ=            -28.7773
   XY=              0.7090   XZ=             -0.2055   YZ=              0.9349
 Traceless Quadrupole moment (field-independent basis, Debye-Ang):
   XX=             -1.2702   YY=              0.1075   ZZ=              1.1628
   XY=              0.7090   XZ=             -0.2055   YZ=              0.9349
 Octapole moment (field-independent basis, Debye-Ang**2):
  XXX=            -22.1368  YYY=             -0.5071  ZZZ=              0.8888  XYY=             -2.1260
  XXY=              1.9648  XXZ=              2.1980  XZZ=             -0.7570  YZZ=             -0.0954
  YYZ=              0.4939  XYZ=              0.9239
 Hexadecapole moment (field-independent basis, Debye-Ang**3):
 XXXX=           -485.1215 YYYY=            -99.9427 ZZZZ=            -74.7790 XXXY=              1.5991
 XXXZ=             -3.8623 YYYX=              5.4969 YYYZ=              3.3826 ZZZX=             -0.7897
 ZZZY=             -2.2577 XXYY=            -91.0173 XXZZ=            -91.1100 YYZZ=            -28.1152
 XXYZ=              4.6080 YYXZ=              1.7641 ZZXY=             -0.0290
 N-N= 1.322074099568D+02 E-N=-6.295562139638D+02  KE= 1.584381967901D+02
 Leave Link  601 at Wed Aug 26 11:46:30 2020, MaxMem=  2097152000 cpu:         1.2
 (Enter /opt/cluster/programs/g09/g09_d.01/g09/l9999.exe)
 1\1\GINC-NODE21\SP\RB2PLYPD3-FC\def2QZVP\C4H10\BOITTIER\26-Aug-2020\0\
 \#p B2PLYPD3/Def2QZVP\\butane_opt\\0,1\C,0,-3.915297,0.278557,0.231841
 \C,0,-2.659723,-0.595753,-0.132387\H,0,-4.761553,-0.183009,0.26384\H,0
 ,-4.133875,0.656516,-0.434641\H,0,-3.803124,1.172054,1.117612\C,0,-1.4
 63307,0.084643,-0.322408\H,0,-2.80416,-1.280573,-1.09347\H,0,-2.564249
 ,-1.361659,0.931786\C,0,-0.199639,-0.657033,0.256099\H,0,-1.761153,0.6
 16709,0.425071\H,0,-1.068898,0.838416,-1.258174\H,0,-0.444607,-0.84848
 9,0.859412\H,0,0.970768,0.19142,0.998315\H,0,0.155867,-1.578971,-0.776
 971\\Version=ES64L-G09RevD.01\State=1-A\HF=-157.4858769\MP2=-157.74157
 84\RMSD=3.190e-09\PG=C01 [X(C4H10)]\\@


 Democracy is the recurrent suspicion that more than half of the people
 are right more than half of the time.
 -- E. B. White
 Job cpu time:       0 days  1 hours 34 minutes 54.2 seconds.
 File lengths (MBytes):  RWF=    152 Int=      0 D2E=      0 Chk=     14 Scr=      1
 Normal termination of Gaussian 09 at Wed Aug 26 11:46:31 2020.
