 Entering Gaussian System, Link 0=/opt/cluster/programs/g09/g09_d.01/g09//g09
 Input=/home/boittier/MDCM/nms_sampling/butane_geom.xyz.dir/energies/butane_opt_2110_energy.com
 Output=/scratch/boittier/butane_opt_2110_energy/butane_opt_2110_energy.out
 Initial command:
 /opt/cluster/programs/g09/g09_d.01/g09/l1.exe "/scratch/boittier/butane_opt_2110_energy/Gau-244688.inp" -scrdir="/scratch/boittier/butane_opt_2110_energy/"
 Entering Link 1 = /opt/cluster/programs/g09/g09_d.01/g09/l1.exe PID=    244689.
  
 Copyright (c) 1988,1990,1992,1993,1995,1998,2003,2009,2013,
            Gaussian, Inc.  All Rights Reserved.
  
 This is part of the Gaussian(R) 09 program.  It is based on
 the Gaussian(R) 03 system (copyright 2003, Gaussian, Inc.),
 the Gaussian(R) 98 system (copyright 1998, Gaussian, Inc.),
 the Gaussian(R) 94 system (copyright 1995, Gaussian, Inc.),
 the Gaussian 92(TM) system (copyright 1992, Gaussian, Inc.),
 the Gaussian 90(TM) system (copyright 1990, Gaussian, Inc.),
 the Gaussian 88(TM) system (copyright 1988, Gaussian, Inc.),
 the Gaussian 86(TM) system (copyright 1986, Carnegie Mellon
 University), and the Gaussian 82(TM) system (copyright 1983,
 Carnegie Mellon University). Gaussian is a federally registered
 trademark of Gaussian, Inc.
  
 This software contains proprietary and confidential information,
 including trade secrets, belonging to Gaussian, Inc.
  
 This software is provided under written license and may be
 used, copied, transmitted, or stored only in accord with that
 written license.
  
 The following legend is applicable only to US Government
 contracts under FAR:
  
                    RESTRICTED RIGHTS LEGEND
  
 Use, reproduction and disclosure by the US Government is
 subject to restrictions as set forth in subparagraphs (a)
 and (c) of the Commercial Computer Software - Restricted
 Rights clause in FAR 52.227-19.
  
 Gaussian, Inc.
 340 Quinnipiac St., Bldg. 40, Wallingford CT 06492
  
  
 ---------------------------------------------------------------
 Warning -- This program may not be used in any manner that
 competes with the business of Gaussian, Inc. or will provide
 assistance to any competitor of Gaussian, Inc.  The licensee
 of this program is prohibited from giving any competitor of
 Gaussian, Inc. access to this program.  By using this program,
 the user acknowledges that Gaussian, Inc. is engaged in the
 business of creating and licensing software in the field of
 computational chemistry and represents and warrants to the
 licensee that it is not a competitor of Gaussian, Inc. and that
 it will not use this program in any manner prohibited above.
 ---------------------------------------------------------------
  

 Cite this work as:
 Gaussian 09, Revision D.01,
 M. J. Frisch, G. W. Trucks, H. B. Schlegel, G. E. Scuseria, 
 M. A. Robb, J. R. Cheeseman, G. Scalmani, V. Barone, B. Mennucci, 
 G. A. Petersson, H. Nakatsuji, M. Caricato, X. Li, H. P. Hratchian, 
 A. F. Izmaylov, J. Bloino, G. Zheng, J. L. Sonnenberg, M. Hada, 
 M. Ehara, K. Toyota, R. Fukuda, J. Hasegawa, M. Ishida, T. Nakajima, 
 Y. Honda, O. Kitao, H. Nakai, T. Vreven, J. A. Montgomery, Jr., 
 J. E. Peralta, F. Ogliaro, M. Bearpark, J. J. Heyd, E. Brothers, 
 K. N. Kudin, V. N. Staroverov, T. Keith, R. Kobayashi, J. Normand, 
 K. Raghavachari, A. Rendell, J. C. Burant, S. S. Iyengar, J. Tomasi, 
 M. Cossi, N. Rega, J. M. Millam, M. Klene, J. E. Knox, J. B. Cross, 
 V. Bakken, C. Adamo, J. Jaramillo, R. Gomperts, R. E. Stratmann, 
 O. Yazyev, A. J. Austin, R. Cammi, C. Pomelli, J. W. Ochterski, 
 R. L. Martin, K. Morokuma, V. G. Zakrzewski, G. A. Voth, 
 P. Salvador, J. J. Dannenberg, S. Dapprich, A. D. Daniels, 
 O. Farkas, J. B. Foresman, J. V. Ortiz, J. Cioslowski, 
 and D. J. Fox, Gaussian, Inc., Wallingford CT, 2013.
 
 ******************************************
 Gaussian 09:  ES64L-G09RevD.01 24-Apr-2013
                26-Aug-2020 
 ******************************************
 %chk=/home/boittier/MDCM/nms_sampling/butane_geom.xyz.dir/butane_opt_2110.chk
 %nproc=8
 Will use up to    8 processors via shared memory.
 %mem=16000MB
 --------------------
 #p B2PLYPD3/Def2QZVP
 --------------------
 1/38=1/1;
 2/12=2,17=6,18=5,40=1/2;
 3/5=45,7=101,11=9,16=1,25=1,30=1,74=-60/1,2,3;
 4//1;
 5/5=2,38=5/2;
 8/10=1/1;
 9/16=-3/6;
 6/7=2,8=2,9=2,10=2/1;
 99/5=1,9=1/99;
 Leave Link    1 at Wed Aug 26 14:54:35 2020, MaxMem=  2097152000 cpu:         0.2
 (Enter /opt/cluster/programs/g09/g09_d.01/g09/l101.exe)
 ----------
 butane_opt
 ----------
 Symbolic Z-matrix:
 Charge =  0 Multiplicity = 1
 C                    -4.01848   0.32789  -0.08673 
 C                    -2.66355  -0.70948   0.12812 
 H                    -4.95426  -0.28982   0.01249 
 H                    -3.88061   0.98515  -1.00226 
 H                    -4.43903   0.90207   0.65878 
 C                    -1.31949   0.18998   0.20926 
 H                    -2.65076  -1.61809  -0.979 
 H                    -2.9431   -1.13872   0.85928 
 C                    -0.17007  -0.68715  -0.09171 
 H                    -1.13829   1.05371   1.06787 
 H                    -1.29003   0.76042  -0.62236 
 H                     0.17046  -1.73375   1.11066 
 H                     0.60937  -0.1873   -0.80498 
 H                    -0.42003  -0.67875  -0.68506 
 
 NAtoms=     14 NQM=       14 NQMF=       0 NMMI=      0 NMMIF=      0
                NMic=       0 NMicF=      0.
                    Isotopes and Nuclear Properties:
 (Nuclear quadrupole moments (NQMom) in fm**2, nuclear magnetic moments (NMagM)
  in nuclear magnetons)

  Atom         1           2           3           4           5           6           7           8           9          10
 IAtWgt=          12          12           1           1           1          12           1           1          12           1
 AtmWgt=  12.0000000  12.0000000   1.0078250   1.0078250   1.0078250  12.0000000   1.0078250   1.0078250  12.0000000   1.0078250
 NucSpn=           0           0           1           1           1           0           1           1           0           1
 AtZEff=   0.0000000   0.0000000   0.0000000   0.0000000   0.0000000   0.0000000   0.0000000   0.0000000   0.0000000   0.0000000
 NQMom=    0.0000000   0.0000000   0.0000000   0.0000000   0.0000000   0.0000000   0.0000000   0.0000000   0.0000000   0.0000000
 NMagM=    0.0000000   0.0000000   2.7928460   2.7928460   2.7928460   0.0000000   2.7928460   2.7928460   0.0000000   2.7928460
 AtZNuc=   6.0000000   6.0000000   1.0000000   1.0000000   1.0000000   6.0000000   1.0000000   1.0000000   6.0000000   1.0000000

  Atom        11          12          13          14
 IAtWgt=           1           1           1           1
 AtmWgt=   1.0078250   1.0078250   1.0078250   1.0078250
 NucSpn=           1           1           1           1
 AtZEff=   0.0000000   0.0000000   0.0000000   0.0000000
 NQMom=    0.0000000   0.0000000   0.0000000   0.0000000
 NMagM=    2.7928460   2.7928460   2.7928460   2.7928460
 AtZNuc=   1.0000000   1.0000000   1.0000000   1.0000000
 Leave Link  101 at Wed Aug 26 14:54:35 2020, MaxMem=  2097152000 cpu:         0.5
 (Enter /opt/cluster/programs/g09/g09_d.01/g09/l202.exe)
                          Input orientation:                          
 ---------------------------------------------------------------------
 Center     Atomic      Atomic             Coordinates (Angstroms)
 Number     Number       Type             X           Y           Z
 ---------------------------------------------------------------------
      1          6           0       -4.018483    0.327888   -0.086731
      2          6           0       -2.663550   -0.709476    0.128118
      3          1           0       -4.954261   -0.289817    0.012493
      4          1           0       -3.880610    0.985147   -1.002256
      5          1           0       -4.439026    0.902070    0.658777
      6          6           0       -1.319485    0.189979    0.209264
      7          1           0       -2.650758   -1.618088   -0.978996
      8          1           0       -2.943096   -1.138720    0.859278
      9          6           0       -0.170074   -0.687149   -0.091706
     10          1           0       -1.138287    1.053708    1.067867
     11          1           0       -1.290034    0.760421   -0.622363
     12          1           0        0.170455   -1.733748    1.110663
     13          1           0        0.609367   -0.187304   -0.804976
     14          1           0       -0.420027   -0.678745   -0.685064
 ---------------------------------------------------------------------
                    Distance matrix (angstroms):
                    1          2          3          4          5
     1  C    0.000000
     2  C    1.719921   0.000000
     3  H    1.125649   2.331703   0.000000
     4  H    1.135423   2.372915   1.951403   0.000000
     5  H    1.030691   2.455808   1.450429   1.754355   0.000000
     6  C    2.718680   1.619295   3.671583   2.942692   3.231203
     7  H    2.540400   1.432285   2.837865   2.879220   3.497342
     8  H    2.049958   0.892744   2.341467   2.975744   2.538273
     9  C    3.980022   2.503247   4.801789   4.170582   4.616578
    10  H    3.186760   2.513637   4.180973   3.436633   3.329448
    11  H    2.813969   2.147176   3.864272   2.627909   3.402578
    12  H    4.819886   3.169560   5.436325   5.316761   5.329076
    13  H    4.711507   3.443155   5.624297   4.644723   5.368015
    14  H    3.784204   2.386547   4.604034   3.852893   4.522968
                    6          7          8          9         10
     6  C    0.000000
     7  H    2.540346   0.000000
     8  H    2.196377   1.922110   0.000000
     9  C    1.476849   2.794230   2.966132   0.000000
    10  H    1.231284   3.689947   2.847382   2.304914   0.000000
    11  H    1.008898   2.763343   2.921406   1.905614   1.722185
    12  H    2.594835   3.512733   3.179851   1.630037   3.079699
    13  H    2.211673   3.564525   4.036698   1.168815   2.846392
    14  H    1.537377   2.438221   2.993735   0.643911   2.567111
                   11         12         13         14
    11  H    0.000000
    12  H    3.370057   0.000000
    13  H    2.130553   2.500761   0.000000
    14  H    1.682867   2.164795   1.146972   0.000000
 Stoichiometry    C4H10
 Framework group  C1[X(C4H10)]
 Deg. of freedom    36
 Full point group                 C1      NOp   1
 Largest Abelian subgroup         C1      NOp   1
 Largest concise Abelian subgroup C1      NOp   1
                         Standard orientation:                         
 ---------------------------------------------------------------------
 Center     Atomic      Atomic             Coordinates (Angstroms)
 Number     Number       Type             X           Y           Z
 ---------------------------------------------------------------------
      1          6           0        2.026910   -0.175914   -0.085933
      2          6           0        0.503557    0.605955    0.075938
      3          1           0        2.832753    0.608184   -0.032132
      4          1           0        2.015397   -0.902396   -0.958444
      5          1           0        2.543367   -0.616025    0.689888
      6          6           0       -0.652388   -0.518493    0.222648
      7          1           0        0.327600    1.426845   -1.084502
      8          1           0        0.696893    1.123440    0.777238
      9          6           0       -1.942504    0.112208   -0.122169
     10          1           0       -0.674523   -1.346302    1.133857
     11          1           0       -0.573585   -1.134713   -0.572297
     12          1           0       -2.473817    1.150367    1.016670
     13          1           0       -2.614276   -0.565321   -0.797301
     14          1           0       -1.693260    0.113387   -0.715883
 ---------------------------------------------------------------------
 Rotational constants (GHZ):     19.5903503      3.4450325      3.2266779
 Leave Link  202 at Wed Aug 26 14:54:35 2020, MaxMem=  2097152000 cpu:         0.1
 (Enter /opt/cluster/programs/g09/g09_d.01/g09/l301.exe)
 Standard basis: def2QZVP (5D, 7F)
 Ernie: Thresh=  0.10000D-02 Tol=  0.10000D-05 Strict=F.
 There are   638 symmetry adapted cartesian basis functions of A   symmetry.
 There are   528 symmetry adapted basis functions of A   symmetry.
   528 basis functions,   748 primitive gaussians,   638 cartesian basis functions
    17 alpha electrons       17 beta electrons
       nuclear repulsion energy       128.1796753562 Hartrees.
 IExCor=  419 DFT=T Ex+Corr=B2PLYPD3 ExCW=0 ScaHFX=  0.530000
 ScaDFX=  0.470000  0.470000  0.730000  0.730000 ScalE2=  0.270000  0.270000
 IRadAn=      0 IRanWt=     -1 IRanGd=            0 ICorTp=0 IEmpDi=141
 NAtoms=   14 NActive=   14 NUniq=   14 SFac= 1.00D+00 NAtFMM=   60 NAOKFM=F Big=F
 Integral buffers will be    131072 words long.
 Regular integral format.
 Two-electron integral symmetry is turned on.
 R6Disp:  Grimme-D3(BJ) Dispersion energy=       -0.0070299460 Hartrees.
 Nuclear repulsion after empirical dispersion term =      128.1726454102 Hartrees.
 Leave Link  301 at Wed Aug 26 14:54:35 2020, MaxMem=  2097152000 cpu:         0.4
 (Enter /opt/cluster/programs/g09/g09_d.01/g09/l302.exe)
 NPDir=0 NMtPBC=     1 NCelOv=     1 NCel=       1 NClECP=     1 NCelD=      1
         NCelK=      1 NCelE2=     1 NClLst=     1 CellRange=     0.0.
 One-electron integrals computed using PRISM.
   1 Symmetry operations used in ECPInt.
 ECPInt:  NShTT=   14196 NPrTT=   30597 LenC2=   13819 LenP2D=   25689.
 LDataN:  DoStor=T MaxTD1= 8 Len=  415
 NBasis=   528 RedAO= T EigKep=  1.78D-05  NBF=   528
 NBsUse=   528 1.00D-06 EigRej= -1.00D+00 NBFU=   528
 Precomputing XC quadrature grid using
 IXCGrd= 4 IRadAn=           0 IRanWt=          -1 IRanGd=           0 AccXCQ= 0.00D+00.
 Generated NRdTot=       0 NPtTot=           0 NUsed=           0 NTot=          32
 NSgBfM=   638   638   638   638   638 MxSgAt=    14 MxSgA2=    14.
 Leave Link  302 at Wed Aug 26 14:54:36 2020, MaxMem=  2097152000 cpu:         4.7
 (Enter /opt/cluster/programs/g09/g09_d.01/g09/l303.exe)
 DipDrv:  MaxL=1.
 Leave Link  303 at Wed Aug 26 14:54:36 2020, MaxMem=  2097152000 cpu:         0.5
 (Enter /opt/cluster/programs/g09/g09_d.01/g09/l401.exe)
 ExpMin= 7.60D-02 ExpMax= 6.70D+04 ExpMxC= 6.47D+02 IAcc=2 IRadAn=         4 AccDes= 0.00D+00
 Harris functional with IExCor=  419 and IRadAn=       4 diagonalized for initial guess.
 HarFok:  IExCor=  419 AccDes= 0.00D+00 IRadAn=         4 IDoV= 1 UseB2=F ITyADJ=14
 ICtDFT=  3500011 ScaDFX=  1.000000  1.000000  1.000000  1.000000
 FoFCou: FMM=F IPFlag=           0 FMFlag=      100000 FMFlg1=           0
         NFxFlg=           0 DoJE=T BraDBF=F KetDBF=T FulRan=T
         wScrn=  0.000000 ICntrl=     500 IOpCl=  0 I1Cent=   200000004 NGrid=           0
         NMat0=    1 NMatS0=      1 NMatT0=    0 NMatD0=    1 NMtDS0=    0 NMtDT0=    0
 Petite list used in FoFCou.
 Harris En= -158.085050596562    
 JPrj=0 DoOrth=F DoCkMO=F.
 Leave Link  401 at Wed Aug 26 14:54:38 2020, MaxMem=  2097152000 cpu:        14.4
 (Enter /opt/cluster/programs/g09/g09_d.01/g09/l502.exe)
 Closed shell SCF:
 Using DIIS extrapolation, IDIIS=  1040.
 Integral symmetry usage will be decided dynamically.
 IVT=     1249338 IEndB=     1249338 NGot=  2097152000 MDV=  2096326985
 LenX=  2096326985 LenY=  2095919303
 Requested convergence on RMS density matrix=1.00D-08 within 128 cycles.
 Requested convergence on MAX density matrix=1.00D-06.
 Requested convergence on             energy=1.00D-06.
 No special actions if energy rises.
 Fock matrices will be formed incrementally for  20 cycles.
 Integral accuracy reduced to 1.0D-05 until final iterations.

 Cycle   1  Pass 0  IDiag  1:
 FoFJK:  IHMeth= 1 ICntrl=       0 DoSepK=F KAlg= 0 I1Cent=   0 FoldK=F
 IRaf= 930000000 NMat=   1 IRICut=       1 DoRegI=T DoRafI=F ISym2E= 0.
 FoFCou: FMM=F IPFlag=           0 FMFlag=      100000 FMFlg1=           0
         NFxFlg=           0 DoJE=F BraDBF=F KetDBF=F FulRan=T
         wScrn=  0.000000 ICntrl=       0 IOpCl=  0 I1Cent=           0 NGrid=           0
         NMat0=    1 NMatS0=      1 NMatT0=    0 NMatD0=    1 NMtDS0=    0 NMtDT0=    0
 Symmetry not used in FoFCou.
 E= -157.030713967887    
 DIIS: error= 3.06D-02 at cycle   1 NSaved=   1.
 NSaved= 1 IEnMin= 1 EnMin= -157.030713967887     IErMin= 1 ErrMin= 3.06D-02
 ErrMax= 3.06D-02  0.00D+00 EMaxC= 1.00D-01 BMatC= 5.14D-01 BMatP= 5.14D-01
 IDIUse=3 WtCom= 6.94D-01 WtEn= 3.06D-01
 Coeff-Com:  0.100D+01
 Coeff-En:   0.100D+01
 Coeff:      0.100D+01
 Gap=     0.336 Goal=   None    Shift=    0.000
 GapD=    0.336 DampG=1.000 DampE=0.500 DampFc=0.5000 IDamp=-1.
 Damping current iteration by 5.00D-01
 RMSDP=1.81D-03 MaxDP=1.20D-01              OVMax= 3.19D-01

 Cycle   2  Pass 0  IDiag  1:
 RMSU=  8.89D-04    CP:  9.42D-01
 E= -157.244301556757     Delta-E=       -0.213587588870 Rises=F Damp=T
 DIIS: error= 5.63D-03 at cycle   2 NSaved=   2.
 NSaved= 2 IEnMin= 2 EnMin= -157.244301556757     IErMin= 2 ErrMin= 5.63D-03
 ErrMax= 5.63D-03  0.00D+00 EMaxC= 1.00D-01 BMatC= 3.76D-02 BMatP= 5.14D-01
 IDIUse=3 WtCom= 9.44D-01 WtEn= 5.63D-02
 Coeff-Com: -0.884D-01 0.109D+01
 Coeff-En:   0.000D+00 0.100D+01
 Coeff:     -0.834D-01 0.108D+01
 Gap=     0.410 Goal=   None    Shift=    0.000
 RMSDP=6.81D-04 MaxDP=4.88D-02 DE=-2.14D-01 OVMax= 1.90D-01

 Cycle   3  Pass 0  IDiag  1:
 RMSU=  4.80D-04    CP:  9.15D-01  4.65D-01
 E= -157.462934099619     Delta-E=       -0.218632542862 Rises=F Damp=F
 DIIS: error= 4.42D-03 at cycle   3 NSaved=   3.
 NSaved= 3 IEnMin= 3 EnMin= -157.462934099619     IErMin= 3 ErrMin= 4.42D-03
 ErrMax= 4.42D-03  0.00D+00 EMaxC= 1.00D-01 BMatC= 6.58D-03 BMatP= 3.76D-02
 IDIUse=3 WtCom= 9.56D-01 WtEn= 4.42D-02
 Coeff-Com: -0.948D-01 0.252D+00 0.843D+00
 Coeff-En:   0.000D+00 0.000D+00 0.100D+01
 Coeff:     -0.906D-01 0.240D+00 0.850D+00
 Gap=     0.370 Goal=   None    Shift=    0.000
 RMSDP=1.17D-04 MaxDP=8.57D-03 DE=-2.19D-01 OVMax= 3.11D-02

 Cycle   4  Pass 0  IDiag  1:
 RMSU=  1.08D-04    CP:  9.08D-01  4.93D-01  1.07D+00
 E= -157.469650958445     Delta-E=       -0.006716858826 Rises=F Damp=F
 DIIS: error= 1.42D-03 at cycle   4 NSaved=   4.
 NSaved= 4 IEnMin= 4 EnMin= -157.469650958445     IErMin= 4 ErrMin= 1.42D-03
 ErrMax= 1.42D-03  0.00D+00 EMaxC= 1.00D-01 BMatC= 8.30D-04 BMatP= 6.58D-03
 IDIUse=3 WtCom= 9.86D-01 WtEn= 1.42D-02
 Coeff-Com: -0.312D-01 0.472D-01 0.344D+00 0.640D+00
 Coeff-En:   0.000D+00 0.000D+00 0.000D+00 0.100D+01
 Coeff:     -0.307D-01 0.466D-01 0.339D+00 0.645D+00
 Gap=     0.362 Goal=   None    Shift=    0.000
 RMSDP=3.88D-05 MaxDP=3.03D-03 DE=-6.72D-03 OVMax= 7.68D-03

 Cycle   5  Pass 0  IDiag  1:
 RMSU=  2.88D-05    CP:  9.08D-01  4.72D-01  1.10D+00  8.86D-01
 E= -157.470459133653     Delta-E=       -0.000808175208 Rises=F Damp=F
 DIIS: error= 2.70D-04 at cycle   5 NSaved=   5.
 NSaved= 5 IEnMin= 5 EnMin= -157.470459133653     IErMin= 5 ErrMin= 2.70D-04
 ErrMax= 2.70D-04  0.00D+00 EMaxC= 1.00D-01 BMatC= 3.29D-05 BMatP= 8.30D-04
 IDIUse=3 WtCom= 9.97D-01 WtEn= 2.70D-03
 Coeff-Com: -0.245D-04-0.877D-02 0.296D-01 0.176D+00 0.803D+00
 Coeff-En:   0.000D+00 0.000D+00 0.000D+00 0.000D+00 0.100D+01
 Coeff:     -0.244D-04-0.875D-02 0.295D-01 0.176D+00 0.803D+00
 Gap=     0.363 Goal=   None    Shift=    0.000
 RMSDP=1.37D-05 MaxDP=9.83D-04 DE=-8.08D-04 OVMax= 1.61D-03

 Cycle   6  Pass 0  IDiag  1:
 RMSU=  8.37D-06    CP:  9.08D-01  4.65D-01  1.11D+00  9.39D-01  1.09D+00
 E= -157.470495500357     Delta-E=       -0.000036366704 Rises=F Damp=F
 DIIS: error= 4.99D-05 at cycle   6 NSaved=   6.
 NSaved= 6 IEnMin= 6 EnMin= -157.470495500357     IErMin= 6 ErrMin= 4.99D-05
 ErrMax= 4.99D-05  0.00D+00 EMaxC= 1.00D-01 BMatC= 1.17D-06 BMatP= 3.29D-05
 IDIUse=1 WtCom= 1.00D+00 WtEn= 0.00D+00
 Coeff-Com:  0.207D-02-0.394D-02-0.159D-01-0.260D-01 0.667D-01 0.977D+00
 Coeff:      0.207D-02-0.394D-02-0.159D-01-0.260D-01 0.667D-01 0.977D+00
 Gap=     0.363 Goal=   None    Shift=    0.000
 RMSDP=4.68D-06 MaxDP=3.37D-04 DE=-3.64D-05 OVMax= 6.14D-04

 Initial convergence to 1.0D-05 achieved.  Increase integral accuracy.
 Cycle   7  Pass 1  IDiag  1:
 E= -157.470532675344     Delta-E=       -0.000037174987 Rises=F Damp=F
 DIIS: error= 5.48D-05 at cycle   1 NSaved=   1.
 NSaved= 1 IEnMin= 1 EnMin= -157.470532675344     IErMin= 1 ErrMin= 5.48D-05
 ErrMax= 5.48D-05  0.00D+00 EMaxC= 1.00D-01 BMatC= 9.03D-07 BMatP= 9.03D-07
 IDIUse=1 WtCom= 1.00D+00 WtEn= 0.00D+00
 Coeff-Com:  0.100D+01
 Coeff:      0.100D+01
 Gap=     0.363 Goal=   None    Shift=    0.000
 RMSDP=4.68D-06 MaxDP=3.37D-04 DE=-3.72D-05 OVMax= 2.26D-04

 Cycle   8  Pass 1  IDiag  1:
 RMSU=  3.67D-05    CP:  1.00D+00
 E= -157.470533018342     Delta-E=       -0.000000342997 Rises=F Damp=F
 DIIS: error= 1.92D-05 at cycle   2 NSaved=   2.
 NSaved= 2 IEnMin= 2 EnMin= -157.470533018342     IErMin= 2 ErrMin= 1.92D-05
 ErrMax= 1.92D-05  0.00D+00 EMaxC= 1.00D-01 BMatC= 2.09D-07 BMatP= 9.03D-07
 IDIUse=1 WtCom= 1.00D+00 WtEn= 0.00D+00
 Coeff-Com:  0.267D+00 0.733D+00
 Coeff:      0.267D+00 0.733D+00
 Gap=     0.363 Goal=   None    Shift=    0.000
 RMSDP=1.01D-06 MaxDP=7.06D-05 DE=-3.43D-07 OVMax= 1.46D-04

 Cycle   9  Pass 1  IDiag  1:
 RMSU=  6.26D-07    CP:  1.00D+00  1.02D+00
 E= -157.470533179272     Delta-E=       -0.000000160930 Rises=F Damp=F
 DIIS: error= 8.30D-06 at cycle   3 NSaved=   3.
 NSaved= 3 IEnMin= 3 EnMin= -157.470533179272     IErMin= 3 ErrMin= 8.30D-06
 ErrMax= 8.30D-06  0.00D+00 EMaxC= 1.00D-01 BMatC= 4.36D-08 BMatP= 2.09D-07
 IDIUse=1 WtCom= 1.00D+00 WtEn= 0.00D+00
 Coeff-Com: -0.110D-01 0.308D+00 0.703D+00
 Coeff:     -0.110D-01 0.308D+00 0.703D+00
 Gap=     0.363 Goal=   None    Shift=    0.000
 RMSDP=4.37D-07 MaxDP=3.27D-05 DE=-1.61D-07 OVMax= 5.13D-05

 Cycle  10  Pass 1  IDiag  1:
 RMSU=  2.05D-07    CP:  1.00D+00  1.03D+00  8.10D-01
 E= -157.470533222462     Delta-E=       -0.000000043190 Rises=F Damp=F
 DIIS: error= 8.46D-07 at cycle   4 NSaved=   4.
 NSaved= 4 IEnMin= 4 EnMin= -157.470533222462     IErMin= 4 ErrMin= 8.46D-07
 ErrMax= 8.46D-07  0.00D+00 EMaxC= 1.00D-01 BMatC= 2.88D-10 BMatP= 4.36D-08
 IDIUse=1 WtCom= 1.00D+00 WtEn= 0.00D+00
 Coeff-Com: -0.494D-02 0.790D-01 0.194D+00 0.732D+00
 Coeff:     -0.494D-02 0.790D-01 0.194D+00 0.732D+00
 Gap=     0.363 Goal=   None    Shift=    0.000
 RMSDP=3.30D-08 MaxDP=2.13D-06 DE=-4.32D-08 OVMax= 8.77D-06

 Cycle  11  Pass 1  IDiag  1:
 RMSU=  2.63D-08    CP:  1.00D+00  1.03D+00  8.23D-01  1.07D+00
 E= -157.470533222838     Delta-E=       -0.000000000375 Rises=F Damp=F
 DIIS: error= 3.04D-07 at cycle   5 NSaved=   5.
 NSaved= 5 IEnMin= 5 EnMin= -157.470533222838     IErMin= 5 ErrMin= 3.04D-07
 ErrMax= 3.04D-07  0.00D+00 EMaxC= 1.00D-01 BMatC= 5.15D-11 BMatP= 2.88D-10
 IDIUse=1 WtCom= 1.00D+00 WtEn= 0.00D+00
 Coeff-Com:  0.106D-02-0.472D-01-0.102D+00 0.202D+00 0.946D+00
 Coeff:      0.106D-02-0.472D-01-0.102D+00 0.202D+00 0.946D+00
 Gap=     0.363 Goal=   None    Shift=    0.000
 RMSDP=2.37D-08 MaxDP=1.17D-06 DE=-3.75D-10 OVMax= 7.20D-06

 Cycle  12  Pass 1  IDiag  1:
 RMSU=  1.49D-08    CP:  1.00D+00  1.03D+00  8.29D-01  1.14D+00  1.28D+00
 E= -157.470533222944     Delta-E=       -0.000000000106 Rises=F Damp=F
 DIIS: error= 7.28D-08 at cycle   6 NSaved=   6.
 NSaved= 6 IEnMin= 6 EnMin= -157.470533222944     IErMin= 6 ErrMin= 7.28D-08
 ErrMax= 7.28D-08  0.00D+00 EMaxC= 1.00D-01 BMatC= 2.15D-12 BMatP= 5.15D-11
 IDIUse=1 WtCom= 1.00D+00 WtEn= 0.00D+00
 Coeff-Com:  0.519D-03-0.147D-01-0.331D-01-0.519D-02 0.198D+00 0.855D+00
 Coeff:      0.519D-03-0.147D-01-0.331D-01-0.519D-02 0.198D+00 0.855D+00
 Gap=     0.363 Goal=   None    Shift=    0.000
 RMSDP=4.78D-09 MaxDP=2.37D-07 DE=-1.06D-10 OVMax= 1.15D-06

 SCF Done:  E(RB2PLYPD3) =  -157.470533223     A.U. after   12 cycles
            NFock= 12  Conv=0.48D-08     -V/T= 1.9964
 KE= 1.580356120699D+02 PE=-6.213026472878D+02 EE= 1.776238565848D+02
 Leave Link  502 at Wed Aug 26 15:00:42 2020, MaxMem=  2097152000 cpu:      2900.6
 (Enter /opt/cluster/programs/g09/g09_d.01/g09/l801.exe)
 DoSCS=T DFT=T ScalE2(SS,OS)=  0.270000  0.270000
 ExpMin= 7.60D-02 ExpMax= 6.70D+04 ExpMxC= 6.47D+02 IAcc=3 IRadAn=         5 AccDes= 0.00D+00
 HarFok:  IExCor=  205 AccDes= 0.00D+00 IRadAn=         5 IDoV=-2 UseB2=F ITyADJ=14
 ICtDFT= 12500011 ScaDFX=  1.000000  1.000000  1.000000  1.000000
 Largest valence mixing into a core orbital is  1.16D-04
 Largest core mixing into a valence orbital is  1.61D-05
 Range of M.O.s used for correlation:     5   528
 NBasis=   528 NAE=    17 NBE=    17 NFC=     4 NFV=     0
 NROrb=    524 NOA=    13 NOB=    13 NVA=   511 NVB=   511

 **** Warning!!: The largest alpha MO coefficient is  0.45091359D+02

 Leave Link  801 at Wed Aug 26 15:00:42 2020, MaxMem=  2097152000 cpu:         1.1
 (Enter /opt/cluster/programs/g09/g09_d.01/g09/l906.exe)
 DoSCS=T DFT=T ScalE2(SS,OS)=  0.270000  0.270000
 FulOut=F Deriv=F AODrv=F NAtomX=    14
   MMem=         463  MDisk=          13 MDiskD=          13
  W3Min=     4238234 MinDsk=     6904766 NBas6D=         638
 NBas2D=      205689    NTT=      203841    LW2=     4508827
    MDV=  2095910988 MDiskM=        7293 NBas2p=      187874
 Fully direct method using O(OVN) memory.
 IMap=   1   2   3   4   5   6   7   8   9  10  11  12  13
 JobTyp=1 Pass  1:  I=   1 to  13 NPSUse=  8 ParTrn=T ParDer=T DoDerP=F.
 Spin components of T(2) and E(2):
     alpha-alpha T2 =       0.4397210879D-01 E2=     -0.2704548811D-01
     alpha-beta  T2 =       0.3083936964D+00 E2=     -0.2022627504D+00
     beta-beta   T2 =       0.4397210879D-01 E2=     -0.2704548811D-01
 The integrals were generated   1 times.
 E2(B2PLYPD3) =    -0.2563537267D+00 E(B2PLYPD3) =    -0.15772688694961D+03
 Leave Link  906 at Wed Aug 26 15:04:55 2020, MaxMem=  2097152000 cpu:      2018.4
 (Enter /opt/cluster/programs/g09/g09_d.01/g09/l601.exe)
 Copying SCF densities to generalized density rwf, IOpCl= 0 IROHF=0.

 **********************************************************************

            Population analysis using the SCF density.

 **********************************************************************

 Orbital symmetries:
       Occupied  (A) (A) (A) (A) (A) (A) (A) (A) (A) (A) (A) (A)
                 (A) (A) (A) (A) (A)
       Virtual   (A) (A) (A) (A) (A) (A) (A) (A) (A) (A) (A) (A)
                 (A) (A) (A) (A) (A) (A) (A) (A) (A) (A) (A) (A)
                 (A) (A) (A) (A) (A) (A) (A) (A) (A) (A) (A) (A)
                 (A) (A) (A) (A) (A) (A) (A) (A) (A) (A) (A) (A)
                 (A) (A) (A) (A) (A) (A) (A) (A) (A) (A) (A) (A)
                 (A) (A) (A) (A) (A) (A) (A) (A) (A) (A) (A) (A)
                 (A) (A) (A) (A) (A) (A) (A) (A) (A) (A) (A) (A)
                 (A) (A) (A) (A) (A) (A) (A) (A) (A) (A) (A) (A)
                 (A) (A) (A) (A) (A) (A) (A) (A) (A) (A) (A) (A)
                 (A) (A) (A) (A) (A) (A) (A) (A) (A) (A) (A) (A)
                 (A) (A) (A) (A) (A) (A) (A) (A) (A) (A) (A) (A)
                 (A) (A) (A) (A) (A) (A) (A) (A) (A) (A) (A) (A)
                 (A) (A) (A) (A) (A) (A) (A) (A) (A) (A) (A) (A)
                 (A) (A) (A) (A) (A) (A) (A) (A) (A) (A) (A) (A)
                 (A) (A) (A) (A) (A) (A) (A) (A) (A) (A) (A) (A)
                 (A) (A) (A) (A) (A) (A) (A) (A) (A) (A) (A) (A)
                 (A) (A) (A) (A) (A) (A) (A) (A) (A) (A) (A) (A)
                 (A) (A) (A) (A) (A) (A) (A) (A) (A) (A) (A) (A)
                 (A) (A) (A) (A) (A) (A) (A) (A) (A) (A) (A) (A)
                 (A) (A) (A) (A) (A) (A) (A) (A) (A) (A) (A) (A)
                 (A) (A) (A) (A) (A) (A) (A) (A) (A) (A) (A) (A)
                 (A) (A) (A) (A) (A) (A) (A) (A) (A) (A) (A) (A)
                 (A) (A) (A) (A) (A) (A) (A) (A) (A) (A) (A) (A)
                 (A) (A) (A) (A) (A) (A) (A) (A) (A) (A) (A) (A)
                 (A) (A) (A) (A) (A) (A) (A) (A) (A) (A) (A) (A)
                 (A) (A) (A) (A) (A) (A) (A) (A) (A) (A) (A) (A)
                 (A) (A) (A) (A) (A) (A) (A) (A) (A) (A) (A) (A)
                 (A) (A) (A) (A) (A) (A) (A) (A) (A) (A) (A) (A)
                 (A) (A) (A) (A) (A) (A) (A) (A) (A) (A) (A) (A)
                 (A) (A) (A) (A) (A) (A) (A) (A) (A) (A) (A) (A)
                 (A) (A) (A) (A) (A) (A) (A) (A) (A) (A) (A) (A)
                 (A) (A) (A) (A) (A) (A) (A) (A) (A) (A) (A) (A)
                 (A) (A) (A) (A) (A) (A) (A) (A) (A) (A) (A) (A)
                 (A) (A) (A) (A) (A) (A) (A) (A) (A) (A) (A) (A)
                 (A) (A) (A) (A) (A) (A) (A) (A) (A) (A) (A) (A)
                 (A) (A) (A) (A) (A) (A) (A) (A) (A) (A) (A) (A)
                 (A) (A) (A) (A) (A) (A) (A) (A) (A) (A) (A) (A)
                 (A) (A) (A) (A) (A) (A) (A) (A) (A) (A) (A) (A)
                 (A) (A) (A) (A) (A) (A) (A) (A) (A) (A) (A) (A)
                 (A) (A) (A) (A) (A) (A) (A) (A) (A) (A) (A) (A)
                 (A) (A) (A) (A) (A) (A) (A) (A) (A) (A) (A) (A)
                 (A) (A) (A) (A) (A) (A) (A) (A) (A) (A) (A) (A)
                 (A) (A) (A) (A) (A) (A) (A)
 The electronic state is 1-A.
 Alpha  occ. eigenvalues --  -10.64547 -10.62947 -10.61237 -10.60946  -0.97590
 Alpha  occ. eigenvalues --   -0.84821  -0.75257  -0.69464  -0.53305  -0.50705
 Alpha  occ. eigenvalues --   -0.48148  -0.44664  -0.42637  -0.39394  -0.37720
 Alpha  occ. eigenvalues --   -0.35641  -0.33870
 Alpha virt. eigenvalues --    0.02417   0.04938   0.06535   0.06609   0.10006
 Alpha virt. eigenvalues --    0.10238   0.11650   0.13043   0.14064   0.14891
 Alpha virt. eigenvalues --    0.16344   0.17139   0.18498   0.19292   0.19616
 Alpha virt. eigenvalues --    0.21229   0.21335   0.24176   0.25368   0.26864
 Alpha virt. eigenvalues --    0.27763   0.29152   0.30103   0.31611   0.33407
 Alpha virt. eigenvalues --    0.34740   0.36386   0.37124   0.38586   0.38965
 Alpha virt. eigenvalues --    0.40325   0.41310   0.42967   0.43531   0.45586
 Alpha virt. eigenvalues --    0.48762   0.50446   0.51775   0.54453   0.56049
 Alpha virt. eigenvalues --    0.56990   0.60310   0.62013   0.64590   0.65699
 Alpha virt. eigenvalues --    0.66348   0.67884   0.68730   0.69899   0.71639
 Alpha virt. eigenvalues --    0.72816   0.74453   0.74895   0.76507   0.77667
 Alpha virt. eigenvalues --    0.79932   0.81667   0.82945   0.85442   0.85978
 Alpha virt. eigenvalues --    0.86378   0.87057   0.88341   0.89650   0.90149
 Alpha virt. eigenvalues --    0.91416   0.92427   0.93503   0.94576   0.96527
 Alpha virt. eigenvalues --    0.96611   0.97982   0.99150   1.01214   1.01289
 Alpha virt. eigenvalues --    1.03568   1.04014   1.07007   1.08527   1.09142
 Alpha virt. eigenvalues --    1.09940   1.11759   1.13626   1.14993   1.18293
 Alpha virt. eigenvalues --    1.18813   1.20821   1.21756   1.23766   1.25868
 Alpha virt. eigenvalues --    1.27485   1.29197   1.30266   1.33129   1.34162
 Alpha virt. eigenvalues --    1.35302   1.36939   1.39574   1.42310   1.42756
 Alpha virt. eigenvalues --    1.48552   1.50379   1.53694   1.55616   1.57107
 Alpha virt. eigenvalues --    1.60067   1.66775   1.69149   1.71326   1.72886
 Alpha virt. eigenvalues --    1.79078   1.80584   1.83235   1.87430   1.88473
 Alpha virt. eigenvalues --    1.88916   1.90011   1.92383   1.94292   1.95162
 Alpha virt. eigenvalues --    1.96924   1.97758   1.99501   1.99850   2.01193
 Alpha virt. eigenvalues --    2.02620   2.03391   2.05367   2.06538   2.08758
 Alpha virt. eigenvalues --    2.10173   2.10987   2.11215   2.13434   2.14350
 Alpha virt. eigenvalues --    2.16402   2.18123   2.19352   2.19904   2.21006
 Alpha virt. eigenvalues --    2.22212   2.23498   2.24079   2.25037   2.26340
 Alpha virt. eigenvalues --    2.28241   2.29500   2.30734   2.33232   2.36531
 Alpha virt. eigenvalues --    2.37416   2.38484   2.40158   2.42308   2.43940
 Alpha virt. eigenvalues --    2.44562   2.45825   2.47123   2.47932   2.50888
 Alpha virt. eigenvalues --    2.51736   2.52538   2.55036   2.55628   2.57373
 Alpha virt. eigenvalues --    2.57479   2.58500   2.59533   2.61254   2.63602
 Alpha virt. eigenvalues --    2.64342   2.65391   2.67824   2.68653   2.69908
 Alpha virt. eigenvalues --    2.71265   2.73963   2.74588   2.76614   2.79612
 Alpha virt. eigenvalues --    2.81386   2.82581   2.83470   2.85993   2.87611
 Alpha virt. eigenvalues --    2.88033   2.90024   2.91514   2.93660   2.97051
 Alpha virt. eigenvalues --    2.98445   2.99278   2.99929   3.01960   3.05841
 Alpha virt. eigenvalues --    3.09150   3.09248   3.13038   3.14565   3.16011
 Alpha virt. eigenvalues --    3.16951   3.18750   3.19667   3.23597   3.25404
 Alpha virt. eigenvalues --    3.27361   3.30494   3.31584   3.33510   3.35405
 Alpha virt. eigenvalues --    3.37111   3.40493   3.41408   3.43031   3.45037
 Alpha virt. eigenvalues --    3.46960   3.49013   3.50564   3.51736   3.54348
 Alpha virt. eigenvalues --    3.57445   3.58436   3.59607   3.64006   3.67690
 Alpha virt. eigenvalues --    3.71534   3.73072   3.77106   3.78203   3.79797
 Alpha virt. eigenvalues --    3.80686   3.86984   3.88652   3.93609   3.97772
 Alpha virt. eigenvalues --    4.01906   4.05162   4.06955   4.11191   4.16362
 Alpha virt. eigenvalues --    4.19010   4.22176   4.23095   4.27010   4.29589
 Alpha virt. eigenvalues --    4.36810   4.37030   4.42196   4.44903   4.49581
 Alpha virt. eigenvalues --    4.54080   4.55949   4.63390   4.81216   4.90914
 Alpha virt. eigenvalues --    5.03400   5.10063   5.15542   5.21112   5.23343
 Alpha virt. eigenvalues --    5.25053   5.32727   5.37478   5.38292   5.47428
 Alpha virt. eigenvalues --    5.49084   5.49405   5.52643   5.55684   5.56631
 Alpha virt. eigenvalues --    5.59295   5.61269   5.67092   5.68024   5.70697
 Alpha virt. eigenvalues --    5.71682   5.73713   5.75646   5.77348   5.79410
 Alpha virt. eigenvalues --    5.82118   5.85358   5.86574   5.88769   5.89517
 Alpha virt. eigenvalues --    5.91124   5.91839   5.94369   5.95238   5.95717
 Alpha virt. eigenvalues --    5.97685   5.99631   6.01471   6.03076   6.04548
 Alpha virt. eigenvalues --    6.05249   6.05855   6.07113   6.07462   6.11305
 Alpha virt. eigenvalues --    6.12482   6.15618   6.16290   6.16544   6.18507
 Alpha virt. eigenvalues --    6.20453   6.22225   6.23529   6.25833   6.27951
 Alpha virt. eigenvalues --    6.29406   6.30831   6.33605   6.34963   6.35984
 Alpha virt. eigenvalues --    6.38869   6.40994   6.41926   6.43901   6.44852
 Alpha virt. eigenvalues --    6.46838   6.50246   6.50590   6.54016   6.55017
 Alpha virt. eigenvalues --    6.57143   6.59528   6.62935   6.64295   6.66452
 Alpha virt. eigenvalues --    6.66851   6.69995   6.71679   6.75748   6.76947
 Alpha virt. eigenvalues --    6.78444   6.79686   6.80367   6.81452   6.86716
 Alpha virt. eigenvalues --    6.87793   6.90982   6.92152   6.93261   6.96459
 Alpha virt. eigenvalues --    6.97048   7.00140   7.02864   7.05414   7.06817
 Alpha virt. eigenvalues --    7.09008   7.09950   7.10934   7.14469   7.15578
 Alpha virt. eigenvalues --    7.16948   7.20220   7.23560   7.27982   7.28522
 Alpha virt. eigenvalues --    7.34476   7.37276   7.37800   7.39429   7.42699
 Alpha virt. eigenvalues --    7.44476   7.47728   7.49702   7.50438   7.53989
 Alpha virt. eigenvalues --    7.55548   7.60000   7.62069   7.63238   7.65664
 Alpha virt. eigenvalues --    7.66696   7.68966   7.71782   7.72835   7.74369
 Alpha virt. eigenvalues --    7.79612   7.82899   7.83567   7.85954   7.86882
 Alpha virt. eigenvalues --    7.90323   7.90973   7.92759   7.94671   7.96851
 Alpha virt. eigenvalues --    7.96920   7.99214   8.00340   8.02236   8.04292
 Alpha virt. eigenvalues --    8.07355   8.07880   8.09639   8.12851   8.13341
 Alpha virt. eigenvalues --    8.14129   8.17260   8.17844   8.20388   8.21220
 Alpha virt. eigenvalues --    8.22733   8.25118   8.26147   8.27017   8.28958
 Alpha virt. eigenvalues --    8.31505   8.31642   8.36050   8.37701   8.39969
 Alpha virt. eigenvalues --    8.40689   8.41585   8.43539   8.44916   8.45847
 Alpha virt. eigenvalues --    8.48137   8.49045   8.51837   8.53620   8.55810
 Alpha virt. eigenvalues --    8.57546   8.58895   8.59973   8.61085   8.63464
 Alpha virt. eigenvalues --    8.63967   8.67368   8.70528   8.73485   8.75718
 Alpha virt. eigenvalues --    8.79358   8.83589   8.86156   8.87782   8.91071
 Alpha virt. eigenvalues --    8.92494   8.95360   8.97956   9.03668   9.04935
 Alpha virt. eigenvalues --    9.06663   9.08933   9.10426   9.11104   9.16866
 Alpha virt. eigenvalues --    9.19399   9.21937   9.24361   9.28477   9.32928
 Alpha virt. eigenvalues --    9.35675   9.39233   9.42662   9.46479   9.51406
 Alpha virt. eigenvalues --    9.57760   9.62430   9.63466   9.65709   9.71501
 Alpha virt. eigenvalues --    9.73770   9.74274   9.75978   9.82699   9.90556
 Alpha virt. eigenvalues --    9.92450   9.96909   9.99128  10.12843  10.16468
 Alpha virt. eigenvalues --   10.18955  10.26378  10.41693  10.43045  10.52732
 Alpha virt. eigenvalues --   10.62770  10.71235  10.72576  10.79902  10.85085
 Alpha virt. eigenvalues --   10.93752  10.96351  11.00650  11.29530  11.42960
 Alpha virt. eigenvalues --   11.52713  11.66865  11.68585  11.77369  11.88618
 Alpha virt. eigenvalues --   11.98087  12.02449  12.23607  12.32055  12.43277
 Alpha virt. eigenvalues --   13.06949  13.15770  16.17440  29.18022  29.27178
 Alpha virt. eigenvalues --   29.39838  29.88307 148.87442 148.94055 149.03722
 Alpha virt. eigenvalues --  149.62800
          Condensed to atoms (all electrons):
               1          2          3          4          5          6
     1  C    4.740610   0.356830   0.378894   0.385915   0.399418  -0.045569
     2  C    0.356830   4.854841  -0.036295  -0.044712  -0.014211   0.376539
     3  H    0.378894  -0.036295   0.715919  -0.010742  -0.076565   0.006669
     4  H    0.385915  -0.044712  -0.010742   0.651459  -0.039226   0.000817
     5  H    0.399418  -0.014211  -0.076565  -0.039226   0.687642  -0.005691
     6  C   -0.045569   0.376539   0.006669   0.000817  -0.005691   4.755004
     7  H   -0.024238   0.374489  -0.005241  -0.001762   0.004907  -0.032016
     8  H   -0.038996   0.409407   0.001201   0.005454  -0.003476  -0.024169
     9  C    0.008159  -0.068760  -0.000627  -0.000356   0.000073   0.332555
    10  H    0.001551  -0.032937  -0.000315   0.000192   0.001009   0.384423
    11  H   -0.010374  -0.042344   0.000495   0.002926  -0.000087   0.393146
    12  H    0.000403  -0.002732   0.000018   0.000009  -0.000009  -0.036636
    13  H   -0.001151   0.014419   0.000058  -0.000007   0.000000  -0.013018
    14  H    0.000159  -0.010302   0.000054   0.000205  -0.000102  -0.076714
               7          8          9         10         11         12
     1  C   -0.024238  -0.038996   0.008159   0.001551  -0.010374   0.000403
     2  C    0.374489   0.409407  -0.068760  -0.032937  -0.042344  -0.002732
     3  H   -0.005241   0.001201  -0.000627  -0.000315   0.000495   0.000018
     4  H   -0.001762   0.005454  -0.000356   0.000192   0.002926   0.000009
     5  H    0.004907  -0.003476   0.000073   0.001009  -0.000087  -0.000009
     6  C   -0.032016  -0.024169   0.332555   0.384423   0.393146  -0.036636
     7  H    0.699557  -0.029314  -0.003177   0.004274  -0.003693  -0.000396
     8  H   -0.029314   0.543747  -0.001399  -0.002198   0.007858   0.003304
     9  C   -0.003177  -0.001399   5.767099  -0.040042  -0.074545   0.304120
    10  H    0.004274  -0.002198  -0.040042   0.687890  -0.043070  -0.001157
    11  H   -0.003693   0.007858  -0.074545  -0.043070   0.712317   0.008508
    12  H   -0.000396   0.003304   0.304120  -0.001157   0.008508   0.665206
    13  H    0.000399  -0.000565   0.370538  -0.009342  -0.007818  -0.022001
    14  H    0.002576   0.002064   0.231318   0.016969   0.000982   0.032651
              13         14
     1  C   -0.001151   0.000159
     2  C    0.014419  -0.010302
     3  H    0.000058   0.000054
     4  H   -0.000007   0.000205
     5  H    0.000000  -0.000102
     6  C   -0.013018  -0.076714
     7  H    0.000399   0.002576
     8  H   -0.000565   0.002064
     9  C    0.370538   0.231318
    10  H   -0.009342   0.016969
    11  H   -0.007818   0.000982
    12  H   -0.022001   0.032651
    13  H    0.711802  -0.085314
    14  H   -0.085314   0.201808
 Mulliken charges:
               1
     1  C   -0.151613
     2  C   -0.134233
     3  H    0.026477
     4  H    0.049827
     5  H    0.046317
     6  C   -0.015340
     7  H    0.013634
     8  H    0.127081
     9  C   -0.824956
    10  H    0.032752
    11  H    0.055698
    12  H    0.048711
    13  H    0.042000
    14  H    0.683645
 Sum of Mulliken charges =   0.00000
 Mulliken charges with hydrogens summed into heavy atoms:
               1
     1  C   -0.028992
     2  C    0.006482
     6  C    0.073110
     9  C   -0.050601
 Electronic spatial extent (au):  <R**2>=            452.1898
 Charge=              0.0000 electrons
 Dipole moment (field-independent basis, Debye):
    X=              0.5223    Y=             -0.1953    Z=             -0.1105  Tot=              0.5684
 Quadrupole moment (field-independent basis, Debye-Ang):
   XX=            -30.9228   YY=            -29.3954   ZZ=            -27.9453
   XY=              0.4759   XZ=              1.8813   YZ=              1.6158
 Traceless Quadrupole moment (field-independent basis, Debye-Ang):
   XX=             -1.5016   YY=              0.0258   ZZ=              1.4759
   XY=              0.4759   XZ=              1.8813   YZ=              1.6158
 Octapole moment (field-independent basis, Debye-Ang**2):
  XXX=             12.0912  YYY=             -2.1747  ZZZ=             -0.9841  XYY=              1.2837
  XXY=             -0.1897  XXZ=              2.4796  XZZ=             -2.5108  YZZ=             -0.0173
  YYZ=              0.3574  XYZ=             -1.3252
 Hexadecapole moment (field-independent basis, Debye-Ang**3):
 XXXX=           -510.8795 YYYY=           -108.1488 ZZZZ=            -67.7922 XXXY=              0.4805
 XXXZ=             19.1754 YYYX=              4.2409 YYYZ=              2.1631 ZZZX=              5.4190
 ZZZY=              2.8489 XXYY=           -101.1134 XXZZ=            -87.6997 YYZZ=            -25.3108
 XXYZ=              8.5261 YYXZ=             -1.0424 ZZXY=             -0.6985
 N-N= 1.281726454102D+02 E-N=-6.213026604962D+02  KE= 1.580356120699D+02
 Leave Link  601 at Wed Aug 26 15:04:55 2020, MaxMem=  2097152000 cpu:         1.1
 (Enter /opt/cluster/programs/g09/g09_d.01/g09/l9999.exe)
 1\1\GINC-NODE39\SP\RB2PLYPD3-FC\def2QZVP\C4H10\BOITTIER\26-Aug-2020\0\
 \#p B2PLYPD3/Def2QZVP\\butane_opt\\0,1\C,0,-4.018483,0.327888,-0.08673
 1\C,0,-2.66355,-0.709476,0.128118\H,0,-4.954261,-0.289817,0.012493\H,0
 ,-3.88061,0.985147,-1.002256\H,0,-4.439026,0.90207,0.658777\C,0,-1.319
 485,0.189979,0.209264\H,0,-2.650758,-1.618088,-0.978996\H,0,-2.943096,
 -1.13872,0.859278\C,0,-0.170074,-0.687149,-0.091706\H,0,-1.138287,1.05
 3708,1.067867\H,0,-1.290034,0.760421,-0.622363\H,0,0.170455,-1.733748,
 1.110663\H,0,0.609367,-0.187304,-0.804976\H,0,-0.420027,-0.678745,-0.6
 85064\\Version=ES64L-G09RevD.01\State=1-A\HF=-157.4705332\MP2=-157.726
 8869\RMSD=4.779e-09\PG=C01 [X(C4H10)]\\@


            THE IRISH PIG
 'TWAS AN EVENING IN NOVEMBER,
 AS I VERY WELL REMEMBER
 I WAS STROLLING DOWN THE STREET IN DRUNKEN PRIDE,
 BUT MY KNEES WERE ALL A'FLUTTER
 SO I LANDED IN THE GUTTER,
 AND A PIG CAME UP AND LAY DOWN BY MY SIDE.

 YES, I LAY THERE IN THE GUTTER
 THINKING THOUGHTS I COULD NOT UTTER
 WHEN A COLLEEN PASSING BY DID SOFTLY SAY,
 'YE CAN TELL A MAN THAT BOOZES
 BY THE COMPANY THAT HE CHOOSES.' -
 AT THAT, THE PIG GOT UP AND WALKED AWAY!
     -- THE ECONOMIST, AUGUST 23, 1986
 Job cpu time:       0 days  1 hours 22 minutes 22.5 seconds.
 File lengths (MBytes):  RWF=    152 Int=      0 D2E=      0 Chk=     14 Scr=      1
 Normal termination of Gaussian 09 at Wed Aug 26 15:04:55 2020.
