 Entering Gaussian System, Link 0=/opt/cluster/programs/g09/g09_d.01/g09//g09
 Input=/home/boittier/MDCM/nms_sampling/butane_geom.xyz.dir/energies/butane_opt_1769_energy.com
 Output=/scratch/boittier/butane_opt_1769_energy/butane_opt_1769_energy.out
 Initial command:
 /opt/cluster/programs/g09/g09_d.01/g09/l1.exe "/scratch/boittier/butane_opt_1769_energy/Gau-25782.inp" -scrdir="/scratch/boittier/butane_opt_1769_energy/"
 Entering Link 1 = /opt/cluster/programs/g09/g09_d.01/g09/l1.exe PID=     25783.
  
 Copyright (c) 1988,1990,1992,1993,1995,1998,2003,2009,2013,
            Gaussian, Inc.  All Rights Reserved.
  
 This is part of the Gaussian(R) 09 program.  It is based on
 the Gaussian(R) 03 system (copyright 2003, Gaussian, Inc.),
 the Gaussian(R) 98 system (copyright 1998, Gaussian, Inc.),
 the Gaussian(R) 94 system (copyright 1995, Gaussian, Inc.),
 the Gaussian 92(TM) system (copyright 1992, Gaussian, Inc.),
 the Gaussian 90(TM) system (copyright 1990, Gaussian, Inc.),
 the Gaussian 88(TM) system (copyright 1988, Gaussian, Inc.),
 the Gaussian 86(TM) system (copyright 1986, Carnegie Mellon
 University), and the Gaussian 82(TM) system (copyright 1983,
 Carnegie Mellon University). Gaussian is a federally registered
 trademark of Gaussian, Inc.
  
 This software contains proprietary and confidential information,
 including trade secrets, belonging to Gaussian, Inc.
  
 This software is provided under written license and may be
 used, copied, transmitted, or stored only in accord with that
 written license.
  
 The following legend is applicable only to US Government
 contracts under FAR:
  
                    RESTRICTED RIGHTS LEGEND
  
 Use, reproduction and disclosure by the US Government is
 subject to restrictions as set forth in subparagraphs (a)
 and (c) of the Commercial Computer Software - Restricted
 Rights clause in FAR 52.227-19.
  
 Gaussian, Inc.
 340 Quinnipiac St., Bldg. 40, Wallingford CT 06492
  
  
 ---------------------------------------------------------------
 Warning -- This program may not be used in any manner that
 competes with the business of Gaussian, Inc. or will provide
 assistance to any competitor of Gaussian, Inc.  The licensee
 of this program is prohibited from giving any competitor of
 Gaussian, Inc. access to this program.  By using this program,
 the user acknowledges that Gaussian, Inc. is engaged in the
 business of creating and licensing software in the field of
 computational chemistry and represents and warrants to the
 licensee that it is not a competitor of Gaussian, Inc. and that
 it will not use this program in any manner prohibited above.
 ---------------------------------------------------------------
  

 Cite this work as:
 Gaussian 09, Revision D.01,
 M. J. Frisch, G. W. Trucks, H. B. Schlegel, G. E. Scuseria, 
 M. A. Robb, J. R. Cheeseman, G. Scalmani, V. Barone, B. Mennucci, 
 G. A. Petersson, H. Nakatsuji, M. Caricato, X. Li, H. P. Hratchian, 
 A. F. Izmaylov, J. Bloino, G. Zheng, J. L. Sonnenberg, M. Hada, 
 M. Ehara, K. Toyota, R. Fukuda, J. Hasegawa, M. Ishida, T. Nakajima, 
 Y. Honda, O. Kitao, H. Nakai, T. Vreven, J. A. Montgomery, Jr., 
 J. E. Peralta, F. Ogliaro, M. Bearpark, J. J. Heyd, E. Brothers, 
 K. N. Kudin, V. N. Staroverov, T. Keith, R. Kobayashi, J. Normand, 
 K. Raghavachari, A. Rendell, J. C. Burant, S. S. Iyengar, J. Tomasi, 
 M. Cossi, N. Rega, J. M. Millam, M. Klene, J. E. Knox, J. B. Cross, 
 V. Bakken, C. Adamo, J. Jaramillo, R. Gomperts, R. E. Stratmann, 
 O. Yazyev, A. J. Austin, R. Cammi, C. Pomelli, J. W. Ochterski, 
 R. L. Martin, K. Morokuma, V. G. Zakrzewski, G. A. Voth, 
 P. Salvador, J. J. Dannenberg, S. Dapprich, A. D. Daniels, 
 O. Farkas, J. B. Foresman, J. V. Ortiz, J. Cioslowski, 
 and D. J. Fox, Gaussian, Inc., Wallingford CT, 2013.
 
 ******************************************
 Gaussian 09:  ES64L-G09RevD.01 24-Apr-2013
                26-Aug-2020 
 ******************************************
 %chk=/home/boittier/MDCM/nms_sampling/butane_geom.xyz.dir/butane_opt_1769.chk
 %nproc=8
 Will use up to    8 processors via shared memory.
 %mem=16000MB
 --------------------
 #p B2PLYPD3/Def2QZVP
 --------------------
 1/38=1/1;
 2/12=2,17=6,18=5,40=1/2;
 3/5=45,7=101,11=9,16=1,25=1,30=1,74=-60/1,2,3;
 4//1;
 5/5=2,38=5/2;
 8/10=1/1;
 9/16=-3/6;
 6/7=2,8=2,9=2,10=2/1;
 99/5=1,9=1/99;
 Leave Link    1 at Wed Aug 26 13:08:15 2020, MaxMem=  2097152000 cpu:         0.5
 (Enter /opt/cluster/programs/g09/g09_d.01/g09/l101.exe)
 ----------
 butane_opt
 ----------
 Symbolic Z-matrix:
 Charge =  0 Multiplicity = 1
 C                    -3.89428   0.18783   0.12844 
 C                    -2.71175  -0.58895  -0.03005 
 H                    -4.89897  -0.51425   0.16746 
 H                    -3.90016   0.7737   -0.6522 
 H                    -4.06048   1.0733    1.10219 
 C                    -1.44325   0.28356  -0.19126 
 H                    -3.02988  -1.07335  -0.82628 
 H                    -2.61494  -1.383     0.94678 
 C                    -0.10792  -0.75458   0.13149 
 H                    -1.86199   1.1737    0.67227 
 H                    -1.36283   1.08587  -1.14486 
 H                    -0.56563  -1.15853   0.80443 
 H                     0.80266  -0.26131   0.79203 
 H                     0.40678  -1.78898  -0.9214 
 
 NAtoms=     14 NQM=       14 NQMF=       0 NMMI=      0 NMMIF=      0
                NMic=       0 NMicF=      0.
                    Isotopes and Nuclear Properties:
 (Nuclear quadrupole moments (NQMom) in fm**2, nuclear magnetic moments (NMagM)
  in nuclear magnetons)

  Atom         1           2           3           4           5           6           7           8           9          10
 IAtWgt=          12          12           1           1           1          12           1           1          12           1
 AtmWgt=  12.0000000  12.0000000   1.0078250   1.0078250   1.0078250  12.0000000   1.0078250   1.0078250  12.0000000   1.0078250
 NucSpn=           0           0           1           1           1           0           1           1           0           1
 AtZEff=   0.0000000   0.0000000   0.0000000   0.0000000   0.0000000   0.0000000   0.0000000   0.0000000   0.0000000   0.0000000
 NQMom=    0.0000000   0.0000000   0.0000000   0.0000000   0.0000000   0.0000000   0.0000000   0.0000000   0.0000000   0.0000000
 NMagM=    0.0000000   0.0000000   2.7928460   2.7928460   2.7928460   0.0000000   2.7928460   2.7928460   0.0000000   2.7928460
 AtZNuc=   6.0000000   6.0000000   1.0000000   1.0000000   1.0000000   6.0000000   1.0000000   1.0000000   6.0000000   1.0000000

  Atom        11          12          13          14
 IAtWgt=           1           1           1           1
 AtmWgt=   1.0078250   1.0078250   1.0078250   1.0078250
 NucSpn=           1           1           1           1
 AtZEff=   0.0000000   0.0000000   0.0000000   0.0000000
 NQMom=    0.0000000   0.0000000   0.0000000   0.0000000
 NMagM=    2.7928460   2.7928460   2.7928460   2.7928460
 AtZNuc=   1.0000000   1.0000000   1.0000000   1.0000000
 Leave Link  101 at Wed Aug 26 13:08:16 2020, MaxMem=  2097152000 cpu:         0.5
 (Enter /opt/cluster/programs/g09/g09_d.01/g09/l202.exe)
                          Input orientation:                          
 ---------------------------------------------------------------------
 Center     Atomic      Atomic             Coordinates (Angstroms)
 Number     Number       Type             X           Y           Z
 ---------------------------------------------------------------------
      1          6           0       -3.894281    0.187831    0.128442
      2          6           0       -2.711746   -0.588945   -0.030045
      3          1           0       -4.898971   -0.514253    0.167461
      4          1           0       -3.900161    0.773699   -0.652199
      5          1           0       -4.060484    1.073295    1.102188
      6          6           0       -1.443254    0.283563   -0.191259
      7          1           0       -3.029882   -1.073346   -0.826280
      8          1           0       -2.614941   -1.382997    0.946775
      9          6           0       -0.107923   -0.754580    0.131489
     10          1           0       -1.861985    1.173696    0.672267
     11          1           0       -1.362826    1.085871   -1.144855
     12          1           0       -0.565631   -1.158533    0.804432
     13          1           0        0.802662   -0.261313    0.792027
     14          1           0        0.406782   -1.788983   -0.921398
 ---------------------------------------------------------------------
                    Distance matrix (angstroms):
                    1          2          3          4          5
     1  C    0.000000
     2  C    1.423688   0.000000
     3  H    1.226314   2.197394   0.000000
     4  H    0.976051   1.912120   1.824359   0.000000
     5  H    1.326594   2.421588   2.024125   1.786990   0.000000
     6  C    2.473642   1.548009   3.564712   2.547369   3.024330
     7  H    1.802567   0.984807   2.189429   2.049211   3.064180
     8  H    2.184921   1.262564   2.564925   2.976549   2.854316
     9  C    3.901878   2.614082   4.797207   4.163036   4.461628
    10  H    2.323339   2.079000   3.511023   2.463406   2.242389
    11  H    2.972545   2.422271   4.097181   2.603503   3.510943
    12  H    3.653706   2.372044   4.427038   4.119998   4.157368
    13  H    4.764803   3.624115   5.741313   5.027284   5.052481
    14  H    4.848618   3.458297   5.564312   5.018921   5.678380
                    6          7          8          9         10
     6  C    0.000000
     7  H    2.182165   0.000000
     8  H    2.333537   1.847101   0.000000
     9  C    1.721922   3.091404   2.710118   0.000000
    10  H    1.308950   2.942588   2.679361   2.662221   0.000000
    11  H    1.248804   2.746413   3.469585   2.567313   1.886480
    12  H    1.959914   2.956182   2.066475   0.908585   2.671571
    13  H    2.511549   4.238715   3.600296   1.228327   3.028851
    14  H    2.872487   3.511672   3.575710   1.563164   4.057652
                   11         12         13         14
    11  H    0.000000
    12  H    3.077757   0.000000
    13  H    3.202461   1.636271   0.000000
    14  H    3.383228   2.078832   2.329447   0.000000
 Stoichiometry    C4H10
 Framework group  C1[X(C4H10)]
 Deg. of freedom    36
 Full point group                 C1      NOp   1
 Largest Abelian subgroup         C1      NOp   1
 Largest concise Abelian subgroup C1      NOp   1
                         Standard orientation:                         
 ---------------------------------------------------------------------
 Center     Atomic      Atomic             Coordinates (Angstroms)
 Number     Number       Type             X           Y           Z
 ---------------------------------------------------------------------
      1          6           0        1.879203    0.024350   -0.069367
      2          6           0        0.563404   -0.491076    0.103541
      3          1           0        2.724126   -0.863975   -0.040568
      4          1           0        1.990897    0.645405    0.675274
      5          1           0        2.232267    0.796188   -1.088908
      6          6           0       -0.507713    0.623929    0.179717
      7          1           0        0.767372   -0.977798    0.935012
      8          1           0        0.323843   -1.310096   -0.826988
      9          6           0       -2.018622   -0.147171   -0.116213
     10          1           0        0.092171    1.357223   -0.723483
     11          1           0       -0.439835    1.484690    1.081933
     12          1           0       -1.641312   -0.675392   -0.751939
     13          1           0       -2.803206    0.474195   -0.828337
     14          1           0       -2.743963   -0.990633    0.981938
 ---------------------------------------------------------------------
 Rotational constants (GHZ):     19.4627246      3.5668079      3.3269128
 Leave Link  202 at Wed Aug 26 13:08:16 2020, MaxMem=  2097152000 cpu:         0.0
 (Enter /opt/cluster/programs/g09/g09_d.01/g09/l301.exe)
 Standard basis: def2QZVP (5D, 7F)
 Ernie: Thresh=  0.10000D-02 Tol=  0.10000D-05 Strict=F.
 There are   638 symmetry adapted cartesian basis functions of A   symmetry.
 There are   528 symmetry adapted basis functions of A   symmetry.
   528 basis functions,   748 primitive gaussians,   638 cartesian basis functions
    17 alpha electrons       17 beta electrons
       nuclear repulsion energy       126.9007583128 Hartrees.
 IExCor=  419 DFT=T Ex+Corr=B2PLYPD3 ExCW=0 ScaHFX=  0.530000
 ScaDFX=  0.470000  0.470000  0.730000  0.730000 ScalE2=  0.270000  0.270000
 IRadAn=      0 IRanWt=     -1 IRanGd=            0 ICorTp=0 IEmpDi=141
 NAtoms=   14 NActive=   14 NUniq=   14 SFac= 1.00D+00 NAtFMM=   60 NAOKFM=F Big=F
 Integral buffers will be    131072 words long.
 Regular integral format.
 Two-electron integral symmetry is turned on.
 R6Disp:  Grimme-D3(BJ) Dispersion energy=       -0.0068100124 Hartrees.
 Nuclear repulsion after empirical dispersion term =      126.8939483004 Hartrees.
 Leave Link  301 at Wed Aug 26 13:08:16 2020, MaxMem=  2097152000 cpu:         0.4
 (Enter /opt/cluster/programs/g09/g09_d.01/g09/l302.exe)
 NPDir=0 NMtPBC=     1 NCelOv=     1 NCel=       1 NClECP=     1 NCelD=      1
         NCelK=      1 NCelE2=     1 NClLst=     1 CellRange=     0.0.
 One-electron integrals computed using PRISM.
   1 Symmetry operations used in ECPInt.
 ECPInt:  NShTT=   14196 NPrTT=   30597 LenC2=   13826 LenP2D=   25730.
 LDataN:  DoStor=T MaxTD1= 8 Len=  415
 NBasis=   528 RedAO= T EigKep=  4.40D-05  NBF=   528
 NBsUse=   528 1.00D-06 EigRej= -1.00D+00 NBFU=   528
 Precomputing XC quadrature grid using
 IXCGrd= 4 IRadAn=           0 IRanWt=          -1 IRanGd=           0 AccXCQ= 0.00D+00.
 Generated NRdTot=       0 NPtTot=           0 NUsed=           0 NTot=          32
 NSgBfM=   638   638   638   638   638 MxSgAt=    14 MxSgA2=    14.
 Leave Link  302 at Wed Aug 26 13:08:17 2020, MaxMem=  2097152000 cpu:         5.5
 (Enter /opt/cluster/programs/g09/g09_d.01/g09/l303.exe)
 DipDrv:  MaxL=1.
 Leave Link  303 at Wed Aug 26 13:08:17 2020, MaxMem=  2097152000 cpu:         0.5
 (Enter /opt/cluster/programs/g09/g09_d.01/g09/l401.exe)
 ExpMin= 7.60D-02 ExpMax= 6.70D+04 ExpMxC= 6.47D+02 IAcc=2 IRadAn=         4 AccDes= 0.00D+00
 Harris functional with IExCor=  419 and IRadAn=       4 diagonalized for initial guess.
 HarFok:  IExCor=  419 AccDes= 0.00D+00 IRadAn=         4 IDoV= 1 UseB2=F ITyADJ=14
 ICtDFT=  3500011 ScaDFX=  1.000000  1.000000  1.000000  1.000000
 FoFCou: FMM=F IPFlag=           0 FMFlag=      100000 FMFlg1=           0
         NFxFlg=           0 DoJE=T BraDBF=F KetDBF=T FulRan=T
         wScrn=  0.000000 ICntrl=     500 IOpCl=  0 I1Cent=   200000004 NGrid=           0
         NMat0=    1 NMatS0=      1 NMatT0=    0 NMatD0=    1 NMtDS0=    0 NMtDT0=    0
 Petite list used in FoFCou.
 Harris En= -158.341295183210    
 JPrj=0 DoOrth=F DoCkMO=F.
 Leave Link  401 at Wed Aug 26 13:08:19 2020, MaxMem=  2097152000 cpu:        16.6
 (Enter /opt/cluster/programs/g09/g09_d.01/g09/l502.exe)
 Closed shell SCF:
 Using DIIS extrapolation, IDIIS=  1040.
 Integral symmetry usage will be decided dynamically.
 IVT=     1249338 IEndB=     1249338 NGot=  2097152000 MDV=  2096326985
 LenX=  2096326985 LenY=  2095919303
 Requested convergence on RMS density matrix=1.00D-08 within 128 cycles.
 Requested convergence on MAX density matrix=1.00D-06.
 Requested convergence on             energy=1.00D-06.
 No special actions if energy rises.
 Fock matrices will be formed incrementally for  20 cycles.
 Integral accuracy reduced to 1.0D-05 until final iterations.

 Cycle   1  Pass 0  IDiag  1:
 FoFJK:  IHMeth= 1 ICntrl=       0 DoSepK=F KAlg= 0 I1Cent=   0 FoldK=F
 IRaf= 930000000 NMat=   1 IRICut=       1 DoRegI=T DoRafI=F ISym2E= 0.
 FoFCou: FMM=F IPFlag=           0 FMFlag=      100000 FMFlg1=           0
         NFxFlg=           0 DoJE=F BraDBF=F KetDBF=F FulRan=T
         wScrn=  0.000000 ICntrl=       0 IOpCl=  0 I1Cent=           0 NGrid=           0
         NMat0=    1 NMatS0=      1 NMatT0=    0 NMatD0=    1 NMtDS0=    0 NMtDT0=    0
 Symmetry not used in FoFCou.
 E= -157.588950048852    
 DIIS: error= 2.17D-02 at cycle   1 NSaved=   1.
 NSaved= 1 IEnMin= 1 EnMin= -157.588950048852     IErMin= 1 ErrMin= 2.17D-02
 ErrMax= 2.17D-02  0.00D+00 EMaxC= 1.00D-01 BMatC= 3.27D-01 BMatP= 3.27D-01
 IDIUse=3 WtCom= 7.83D-01 WtEn= 2.17D-01
 Coeff-Com:  0.100D+01
 Coeff-En:   0.100D+01
 Coeff:      0.100D+01
 Gap=     0.353 Goal=   None    Shift=    0.000
 GapD=    0.353 DampG=1.000 DampE=0.500 DampFc=0.5000 IDamp=-1.
 Damping current iteration by 5.00D-01
 RMSDP=1.02D-03 MaxDP=7.24D-02              OVMax= 2.35D-01

 Cycle   2  Pass 0  IDiag  1:
 RMSU=  4.88D-04    CP:  9.49D-01
 E= -157.719925046396     Delta-E=       -0.130974997543 Rises=F Damp=T
 DIIS: error= 5.21D-03 at cycle   2 NSaved=   2.
 NSaved= 2 IEnMin= 2 EnMin= -157.719925046396     IErMin= 2 ErrMin= 5.21D-03
 ErrMax= 5.21D-03  0.00D+00 EMaxC= 1.00D-01 BMatC= 3.08D-02 BMatP= 3.27D-01
 IDIUse=3 WtCom= 9.48D-01 WtEn= 5.21D-02
 Coeff-Com: -0.112D+00 0.111D+01
 Coeff-En:   0.000D+00 0.100D+01
 Coeff:     -0.106D+00 0.111D+01
 Gap=     0.435 Goal=   None    Shift=    0.000
 RMSDP=2.71D-04 MaxDP=1.75D-02 DE=-1.31D-01 OVMax= 1.22D-01

 Cycle   3  Pass 0  IDiag  1:
 RMSU=  2.48D-04    CP:  9.41D-01  7.82D-01
 E= -157.851418596273     Delta-E=       -0.131493549877 Rises=F Damp=F
 DIIS: error= 3.79D-03 at cycle   3 NSaved=   3.
 NSaved= 3 IEnMin= 3 EnMin= -157.851418596273     IErMin= 3 ErrMin= 3.79D-03
 ErrMax= 3.79D-03  0.00D+00 EMaxC= 1.00D-01 BMatC= 3.82D-03 BMatP= 3.08D-02
 IDIUse=3 WtCom= 9.62D-01 WtEn= 3.79D-02
 Coeff-Com: -0.106D+00 0.216D+00 0.890D+00
 Coeff-En:   0.000D+00 0.000D+00 0.100D+01
 Coeff:     -0.102D+00 0.208D+00 0.894D+00
 Gap=     0.379 Goal=   None    Shift=    0.000
 RMSDP=7.46D-05 MaxDP=6.93D-03 DE=-1.31D-01 OVMax= 1.78D-02

 Cycle   4  Pass 0  IDiag  1:
 RMSU=  5.50D-05    CP:  9.35D-01  8.78D-01  1.02D+00
 E= -157.855352458120     Delta-E=       -0.003933861848 Rises=F Damp=F
 DIIS: error= 9.63D-04 at cycle   4 NSaved=   4.
 NSaved= 4 IEnMin= 4 EnMin= -157.855352458120     IErMin= 4 ErrMin= 9.63D-04
 ErrMax= 9.63D-04  0.00D+00 EMaxC= 1.00D-01 BMatC= 3.90D-04 BMatP= 3.82D-03
 IDIUse=3 WtCom= 9.90D-01 WtEn= 9.63D-03
 Coeff-Com: -0.383D-01 0.590D-01 0.372D+00 0.608D+00
 Coeff-En:   0.000D+00 0.000D+00 0.000D+00 0.100D+01
 Coeff:     -0.379D-01 0.584D-01 0.368D+00 0.611D+00
 Gap=     0.382 Goal=   None    Shift=    0.000
 RMSDP=2.25D-05 MaxDP=2.50D-03 DE=-3.93D-03 OVMax= 5.07D-03

 Cycle   5  Pass 0  IDiag  1:
 RMSU=  1.67D-05    CP:  9.36D-01  8.63D-01  1.05D+00  8.29D-01
 E= -157.855732667271     Delta-E=       -0.000380209150 Rises=F Damp=F
 DIIS: error= 1.59D-04 at cycle   5 NSaved=   5.
 NSaved= 5 IEnMin= 5 EnMin= -157.855732667271     IErMin= 5 ErrMin= 1.59D-04
 ErrMax= 1.59D-04  0.00D+00 EMaxC= 1.00D-01 BMatC= 1.91D-05 BMatP= 3.90D-04
 IDIUse=3 WtCom= 9.98D-01 WtEn= 1.59D-03
 Coeff-Com: -0.211D-02-0.167D-02 0.421D-01 0.202D+00 0.760D+00
 Coeff-En:   0.000D+00 0.000D+00 0.000D+00 0.000D+00 0.100D+01
 Coeff:     -0.211D-02-0.166D-02 0.421D-01 0.202D+00 0.760D+00
 Gap=     0.381 Goal=   None    Shift=    0.000
 RMSDP=6.02D-06 MaxDP=4.27D-04 DE=-3.80D-04 OVMax= 1.04D-03

 Initial convergence to 1.0D-05 achieved.  Increase integral accuracy.
 Cycle   6  Pass 1  IDiag  1:
 E= -157.855763163090     Delta-E=       -0.000030495819 Rises=F Damp=F
 DIIS: error= 4.87D-05 at cycle   1 NSaved=   1.
 NSaved= 1 IEnMin= 1 EnMin= -157.855763163090     IErMin= 1 ErrMin= 4.87D-05
 ErrMax= 4.87D-05  0.00D+00 EMaxC= 1.00D-01 BMatC= 9.12D-07 BMatP= 9.12D-07
 IDIUse=1 WtCom= 1.00D+00 WtEn= 0.00D+00
 Coeff-Com:  0.100D+01
 Coeff:      0.100D+01
 Gap=     0.382 Goal=   None    Shift=    0.000
 RMSDP=6.02D-06 MaxDP=4.27D-04 DE=-3.05D-05 OVMax= 2.88D-04

 Cycle   7  Pass 1  IDiag  1:
 RMSU=  2.40D-05    CP:  1.00D+00
 E= -157.855763837482     Delta-E=       -0.000000674392 Rises=F Damp=F
 DIIS: error= 2.20D-05 at cycle   2 NSaved=   2.
 NSaved= 2 IEnMin= 2 EnMin= -157.855763837482     IErMin= 2 ErrMin= 2.20D-05
 ErrMax= 2.20D-05  0.00D+00 EMaxC= 1.00D-01 BMatC= 2.33D-07 BMatP= 9.12D-07
 IDIUse=1 WtCom= 1.00D+00 WtEn= 0.00D+00
 Coeff-Com:  0.280D+00 0.720D+00
 Coeff:      0.280D+00 0.720D+00
 Gap=     0.382 Goal=   None    Shift=    0.000
 RMSDP=8.72D-07 MaxDP=6.31D-05 DE=-6.74D-07 OVMax= 1.52D-04

 Cycle   8  Pass 1  IDiag  1:
 RMSU=  6.79D-07    CP:  1.00D+00  1.02D+00
 E= -157.855764042156     Delta-E=       -0.000000204675 Rises=F Damp=F
 DIIS: error= 1.03D-05 at cycle   3 NSaved=   3.
 NSaved= 3 IEnMin= 3 EnMin= -157.855764042156     IErMin= 3 ErrMin= 1.03D-05
 ErrMax= 1.03D-05  0.00D+00 EMaxC= 1.00D-01 BMatC= 4.54D-08 BMatP= 2.33D-07
 IDIUse=1 WtCom= 1.00D+00 WtEn= 0.00D+00
 Coeff-Com: -0.257D-01 0.285D+00 0.741D+00
 Coeff:     -0.257D-01 0.285D+00 0.741D+00
 Gap=     0.382 Goal=   None    Shift=    0.000
 RMSDP=3.79D-07 MaxDP=2.96D-05 DE=-2.05D-07 OVMax= 5.47D-05

 Cycle   9  Pass 1  IDiag  1:
 RMSU=  2.58D-07    CP:  1.00D+00  1.03D+00  8.73D-01
 E= -157.855764090372     Delta-E=       -0.000000048216 Rises=F Damp=F
 DIIS: error= 1.99D-06 at cycle   4 NSaved=   4.
 NSaved= 4 IEnMin= 4 EnMin= -157.855764090372     IErMin= 4 ErrMin= 1.99D-06
 ErrMax= 1.99D-06  0.00D+00 EMaxC= 1.00D-01 BMatC= 1.44D-09 BMatP= 4.54D-08
 IDIUse=1 WtCom= 1.00D+00 WtEn= 0.00D+00
 Coeff-Com: -0.190D-01 0.537D-01 0.208D+00 0.757D+00
 Coeff:     -0.190D-01 0.537D-01 0.208D+00 0.757D+00
 Gap=     0.382 Goal=   None    Shift=    0.000
 RMSDP=6.69D-08 MaxDP=3.53D-06 DE=-4.82D-08 OVMax= 1.16D-05

 Cycle  10  Pass 1  IDiag  1:
 RMSU=  5.56D-08    CP:  1.00D+00  1.03D+00  9.08D-01  1.10D+00
 E= -157.855764092113     Delta-E=       -0.000000001741 Rises=F Damp=F
 DIIS: error= 6.83D-07 at cycle   5 NSaved=   5.
 NSaved= 5 IEnMin= 5 EnMin= -157.855764092113     IErMin= 5 ErrMin= 6.83D-07
 ErrMax= 6.83D-07  0.00D+00 EMaxC= 1.00D-01 BMatC= 2.03D-10 BMatP= 1.44D-09
 IDIUse=1 WtCom= 1.00D+00 WtEn= 0.00D+00
 Coeff-Com: -0.164D-02-0.274D-01-0.543D-01 0.225D+00 0.858D+00
 Coeff:     -0.164D-02-0.274D-01-0.543D-01 0.225D+00 0.858D+00
 Gap=     0.382 Goal=   None    Shift=    0.000
 RMSDP=3.34D-08 MaxDP=1.73D-06 DE=-1.74D-09 OVMax= 5.41D-06

 Cycle  11  Pass 1  IDiag  1:
 RMSU=  1.96D-08    CP:  1.00D+00  1.03D+00  9.16D-01  1.20D+00  1.09D+00
 E= -157.855764092370     Delta-E=       -0.000000000258 Rises=F Damp=F
 DIIS: error= 1.19D-07 at cycle   6 NSaved=   6.
 NSaved= 6 IEnMin= 6 EnMin= -157.855764092370     IErMin= 6 ErrMin= 1.19D-07
 ErrMax= 1.19D-07  0.00D+00 EMaxC= 1.00D-01 BMatC= 5.95D-12 BMatP= 2.03D-10
 IDIUse=1 WtCom= 1.00D+00 WtEn= 0.00D+00
 Coeff-Com:  0.614D-03-0.988D-02-0.252D-01 0.197D-01 0.213D+00 0.801D+00
 Coeff:      0.614D-03-0.988D-02-0.252D-01 0.197D-01 0.213D+00 0.801D+00
 Gap=     0.382 Goal=   None    Shift=    0.000
 RMSDP=5.71D-09 MaxDP=2.19D-07 DE=-2.58D-10 OVMax= 8.77D-07

 SCF Done:  E(RB2PLYPD3) =  -157.855764092     A.U. after   11 cycles
            NFock= 11  Conv=0.57D-08     -V/T= 2.0074
 KE= 1.567039671892D+02 PE=-6.184491999243D+02 EE= 1.769955203423D+02
 Leave Link  502 at Wed Aug 26 13:15:42 2020, MaxMem=  2097152000 cpu:      3536.6
 (Enter /opt/cluster/programs/g09/g09_d.01/g09/l801.exe)
 DoSCS=T DFT=T ScalE2(SS,OS)=  0.270000  0.270000
 ExpMin= 7.60D-02 ExpMax= 6.70D+04 ExpMxC= 6.47D+02 IAcc=3 IRadAn=         5 AccDes= 0.00D+00
 HarFok:  IExCor=  205 AccDes= 0.00D+00 IRadAn=         5 IDoV=-2 UseB2=F ITyADJ=14
 ICtDFT= 12500011 ScaDFX=  1.000000  1.000000  1.000000  1.000000
 Largest valence mixing into a core orbital is  1.27D-04
 Largest core mixing into a valence orbital is  1.80D-05
 Range of M.O.s used for correlation:     5   528
 NBasis=   528 NAE=    17 NBE=    17 NFC=     4 NFV=     0
 NROrb=    524 NOA=    13 NOB=    13 NVA=   511 NVB=   511

 **** Warning!!: The largest alpha MO coefficient is  0.26336857D+02

 Leave Link  801 at Wed Aug 26 13:15:43 2020, MaxMem=  2097152000 cpu:         1.4
 (Enter /opt/cluster/programs/g09/g09_d.01/g09/l906.exe)
 DoSCS=T DFT=T ScalE2(SS,OS)=  0.270000  0.270000
 FulOut=F Deriv=F AODrv=F NAtomX=    14
   MMem=         463  MDisk=          13 MDiskD=          13
  W3Min=     4238234 MinDsk=     6904766 NBas6D=         638
 NBas2D=      205689    NTT=      203841    LW2=     4508827
    MDV=  2095909498 MDiskM=        7293 NBas2p=      188007
 Fully direct method using O(OVN) memory.
 IMap=   1   2   3   4   5   6   7   8   9  10  11  12  13
 JobTyp=1 Pass  1:  I=   1 to  13 NPSUse=  8 ParTrn=T ParDer=T DoDerP=F.
 Spin components of T(2) and E(2):
     alpha-alpha T2 =       0.4532042765D-01 E2=     -0.2700626234D-01
     alpha-beta  T2 =       0.3155706434D+00 E2=     -0.2024807354D+00
     beta-beta   T2 =       0.4532042765D-01 E2=     -0.2700626234D-01
 The integrals were generated   1 times.
 E2(B2PLYPD3) =    -0.2564932601D+00 E(B2PLYPD3) =    -0.15811225735246D+03
 Leave Link  906 at Wed Aug 26 13:21:51 2020, MaxMem=  2097152000 cpu:      2944.2
 (Enter /opt/cluster/programs/g09/g09_d.01/g09/l601.exe)
 Copying SCF densities to generalized density rwf, IOpCl= 0 IROHF=0.

 **********************************************************************

            Population analysis using the SCF density.

 **********************************************************************

 Orbital symmetries:
       Occupied  (A) (A) (A) (A) (A) (A) (A) (A) (A) (A) (A) (A)
                 (A) (A) (A) (A) (A)
       Virtual   (A) (A) (A) (A) (A) (A) (A) (A) (A) (A) (A) (A)
                 (A) (A) (A) (A) (A) (A) (A) (A) (A) (A) (A) (A)
                 (A) (A) (A) (A) (A) (A) (A) (A) (A) (A) (A) (A)
                 (A) (A) (A) (A) (A) (A) (A) (A) (A) (A) (A) (A)
                 (A) (A) (A) (A) (A) (A) (A) (A) (A) (A) (A) (A)
                 (A) (A) (A) (A) (A) (A) (A) (A) (A) (A) (A) (A)
                 (A) (A) (A) (A) (A) (A) (A) (A) (A) (A) (A) (A)
                 (A) (A) (A) (A) (A) (A) (A) (A) (A) (A) (A) (A)
                 (A) (A) (A) (A) (A) (A) (A) (A) (A) (A) (A) (A)
                 (A) (A) (A) (A) (A) (A) (A) (A) (A) (A) (A) (A)
                 (A) (A) (A) (A) (A) (A) (A) (A) (A) (A) (A) (A)
                 (A) (A) (A) (A) (A) (A) (A) (A) (A) (A) (A) (A)
                 (A) (A) (A) (A) (A) (A) (A) (A) (A) (A) (A) (A)
                 (A) (A) (A) (A) (A) (A) (A) (A) (A) (A) (A) (A)
                 (A) (A) (A) (A) (A) (A) (A) (A) (A) (A) (A) (A)
                 (A) (A) (A) (A) (A) (A) (A) (A) (A) (A) (A) (A)
                 (A) (A) (A) (A) (A) (A) (A) (A) (A) (A) (A) (A)
                 (A) (A) (A) (A) (A) (A) (A) (A) (A) (A) (A) (A)
                 (A) (A) (A) (A) (A) (A) (A) (A) (A) (A) (A) (A)
                 (A) (A) (A) (A) (A) (A) (A) (A) (A) (A) (A) (A)
                 (A) (A) (A) (A) (A) (A) (A) (A) (A) (A) (A) (A)
                 (A) (A) (A) (A) (A) (A) (A) (A) (A) (A) (A) (A)
                 (A) (A) (A) (A) (A) (A) (A) (A) (A) (A) (A) (A)
                 (A) (A) (A) (A) (A) (A) (A) (A) (A) (A) (A) (A)
                 (A) (A) (A) (A) (A) (A) (A) (A) (A) (A) (A) (A)
                 (A) (A) (A) (A) (A) (A) (A) (A) (A) (A) (A) (A)
                 (A) (A) (A) (A) (A) (A) (A) (A) (A) (A) (A) (A)
                 (A) (A) (A) (A) (A) (A) (A) (A) (A) (A) (A) (A)
                 (A) (A) (A) (A) (A) (A) (A) (A) (A) (A) (A) (A)
                 (A) (A) (A) (A) (A) (A) (A) (A) (A) (A) (A) (A)
                 (A) (A) (A) (A) (A) (A) (A) (A) (A) (A) (A) (A)
                 (A) (A) (A) (A) (A) (A) (A) (A) (A) (A) (A) (A)
                 (A) (A) (A) (A) (A) (A) (A) (A) (A) (A) (A) (A)
                 (A) (A) (A) (A) (A) (A) (A) (A) (A) (A) (A) (A)
                 (A) (A) (A) (A) (A) (A) (A) (A) (A) (A) (A) (A)
                 (A) (A) (A) (A) (A) (A) (A) (A) (A) (A) (A) (A)
                 (A) (A) (A) (A) (A) (A) (A) (A) (A) (A) (A) (A)
                 (A) (A) (A) (A) (A) (A) (A) (A) (A) (A) (A) (A)
                 (A) (A) (A) (A) (A) (A) (A) (A) (A) (A) (A) (A)
                 (A) (A) (A) (A) (A) (A) (A) (A) (A) (A) (A) (A)
                 (A) (A) (A) (A) (A) (A) (A) (A) (A) (A) (A) (A)
                 (A) (A) (A) (A) (A) (A) (A) (A) (A) (A) (A) (A)
                 (A) (A) (A) (A) (A) (A) (A)
 The electronic state is 1-A.
 Alpha  occ. eigenvalues --  -10.66766 -10.65159 -10.62017 -10.61730  -0.93009
 Alpha  occ. eigenvalues --   -0.82600  -0.71547  -0.66077  -0.53827  -0.49934
 Alpha  occ. eigenvalues --   -0.48164  -0.43093  -0.40794  -0.39194  -0.38470
 Alpha  occ. eigenvalues --   -0.36607  -0.35208
 Alpha virt. eigenvalues --    0.02958   0.05081   0.06771   0.07955   0.08878
 Alpha virt. eigenvalues --    0.10523   0.11736   0.12282   0.13800   0.15117
 Alpha virt. eigenvalues --    0.15761   0.16089   0.16984   0.19210   0.19281
 Alpha virt. eigenvalues --    0.21694   0.22937   0.24017   0.26036   0.26157
 Alpha virt. eigenvalues --    0.29084   0.29457   0.30167   0.30398   0.31916
 Alpha virt. eigenvalues --    0.34031   0.34220   0.35527   0.36537   0.37797
 Alpha virt. eigenvalues --    0.39882   0.40625   0.42550   0.44109   0.46557
 Alpha virt. eigenvalues --    0.47698   0.49462   0.51490   0.52941   0.57065
 Alpha virt. eigenvalues --    0.58530   0.59860   0.62917   0.64448   0.66134
 Alpha virt. eigenvalues --    0.67391   0.67490   0.68262   0.69001   0.70975
 Alpha virt. eigenvalues --    0.72164   0.73613   0.74988   0.75975   0.78209
 Alpha virt. eigenvalues --    0.78801   0.80452   0.82249   0.83663   0.85220
 Alpha virt. eigenvalues --    0.86645   0.88062   0.88367   0.89314   0.90941
 Alpha virt. eigenvalues --    0.92461   0.92677   0.93316   0.94908   0.95674
 Alpha virt. eigenvalues --    0.97200   0.98153   0.99603   1.00106   1.01678
 Alpha virt. eigenvalues --    1.02921   1.05897   1.06517   1.08242   1.10355
 Alpha virt. eigenvalues --    1.11247   1.12326   1.14089   1.16054   1.17326
 Alpha virt. eigenvalues --    1.18855   1.20608   1.23368   1.23571   1.25672
 Alpha virt. eigenvalues --    1.26270   1.29153   1.30154   1.32219   1.33437
 Alpha virt. eigenvalues --    1.35307   1.36357   1.39185   1.41196   1.41712
 Alpha virt. eigenvalues --    1.45412   1.46984   1.49201   1.50731   1.51473
 Alpha virt. eigenvalues --    1.56333   1.60863   1.64058   1.64789   1.67987
 Alpha virt. eigenvalues --    1.78812   1.81058   1.82078   1.84230   1.86993
 Alpha virt. eigenvalues --    1.88209   1.90556   1.92018   1.92934   1.95714
 Alpha virt. eigenvalues --    1.98655   1.99883   2.00574   2.01626   2.02535
 Alpha virt. eigenvalues --    2.03700   2.04577   2.06532   2.08381   2.09836
 Alpha virt. eigenvalues --    2.11807   2.12630   2.14156   2.14538   2.14977
 Alpha virt. eigenvalues --    2.16652   2.17176   2.18069   2.19384   2.20322
 Alpha virt. eigenvalues --    2.23139   2.23346   2.23955   2.26302   2.26927
 Alpha virt. eigenvalues --    2.28206   2.29840   2.30873   2.31390   2.33269
 Alpha virt. eigenvalues --    2.35520   2.38084   2.39938   2.40735   2.41640
 Alpha virt. eigenvalues --    2.43428   2.45622   2.47521   2.49643   2.50400
 Alpha virt. eigenvalues --    2.51498   2.53146   2.53922   2.54718   2.55626
 Alpha virt. eigenvalues --    2.56373   2.58955   2.60687   2.61966   2.64332
 Alpha virt. eigenvalues --    2.64721   2.66412   2.68875   2.69599   2.71105
 Alpha virt. eigenvalues --    2.71869   2.74313   2.77105   2.77491   2.79735
 Alpha virt. eigenvalues --    2.80537   2.80912   2.83568   2.84023   2.87340
 Alpha virt. eigenvalues --    2.88285   2.90877   2.91498   2.93388   2.97295
 Alpha virt. eigenvalues --    2.97875   2.98625   3.00693   3.03037   3.03368
 Alpha virt. eigenvalues --    3.06133   3.07242   3.09277   3.10602   3.13171
 Alpha virt. eigenvalues --    3.14301   3.15364   3.17996   3.18713   3.20298
 Alpha virt. eigenvalues --    3.22481   3.22807   3.25167   3.26261   3.27120
 Alpha virt. eigenvalues --    3.31092   3.31356   3.35177   3.35296   3.37955
 Alpha virt. eigenvalues --    3.41522   3.42819   3.44300   3.45647   3.49785
 Alpha virt. eigenvalues --    3.52567   3.53981   3.55518   3.56591   3.60909
 Alpha virt. eigenvalues --    3.62568   3.65546   3.66210   3.72207   3.76296
 Alpha virt. eigenvalues --    3.78959   3.80650   3.83840   3.85778   3.88191
 Alpha virt. eigenvalues --    3.92138   3.96102   3.97658   4.00917   4.04773
 Alpha virt. eigenvalues --    4.05523   4.09861   4.11521   4.14744   4.17113
 Alpha virt. eigenvalues --    4.19224   4.25052   4.28523   4.32306   4.41314
 Alpha virt. eigenvalues --    4.43907   4.52004   4.61380   4.75654   4.95969
 Alpha virt. eigenvalues --    4.99160   5.00187   5.07025   5.11433   5.20424
 Alpha virt. eigenvalues --    5.26158   5.28504   5.29562   5.35647   5.37291
 Alpha virt. eigenvalues --    5.40848   5.43422   5.45299   5.50468   5.52956
 Alpha virt. eigenvalues --    5.56722   5.59665   5.62728   5.66170   5.67137
 Alpha virt. eigenvalues --    5.71035   5.74231   5.75699   5.76691   5.77584
 Alpha virt. eigenvalues --    5.79960   5.82082   5.83109   5.85888   5.87156
 Alpha virt. eigenvalues --    5.89867   5.90320   5.91910   5.92923   5.94169
 Alpha virt. eigenvalues --    5.94488   5.95381   5.97705   5.99309   6.01355
 Alpha virt. eigenvalues --    6.02322   6.03083   6.03340   6.04945   6.06839
 Alpha virt. eigenvalues --    6.07626   6.08277   6.10013   6.11694   6.13226
 Alpha virt. eigenvalues --    6.13946   6.15808   6.17694   6.18818   6.20093
 Alpha virt. eigenvalues --    6.21357   6.25261   6.26885   6.28026   6.29662
 Alpha virt. eigenvalues --    6.30756   6.31664   6.34243   6.35839   6.38043
 Alpha virt. eigenvalues --    6.42021   6.44262   6.46853   6.48456   6.49596
 Alpha virt. eigenvalues --    6.51540   6.54203   6.57023   6.58487   6.60037
 Alpha virt. eigenvalues --    6.61359   6.66089   6.66926   6.69391   6.70725
 Alpha virt. eigenvalues --    6.72668   6.74209   6.76953   6.78327   6.81585
 Alpha virt. eigenvalues --    6.82003   6.85570   6.87096   6.89486   6.91911
 Alpha virt. eigenvalues --    6.93374   6.93741   6.98003   6.99660   7.01359
 Alpha virt. eigenvalues --    7.03126   7.04112   7.05985   7.08369   7.09761
 Alpha virt. eigenvalues --    7.12142   7.13214   7.16845   7.18796   7.19407
 Alpha virt. eigenvalues --    7.22168   7.24114   7.26478   7.28481   7.32126
 Alpha virt. eigenvalues --    7.33660   7.34637   7.35856   7.37415   7.43879
 Alpha virt. eigenvalues --    7.46978   7.47606   7.50927   7.52411   7.56149
 Alpha virt. eigenvalues --    7.59047   7.60790   7.61259   7.64994   7.66112
 Alpha virt. eigenvalues --    7.68127   7.69374   7.70605   7.71320   7.73488
 Alpha virt. eigenvalues --    7.75964   7.78039   7.79779   7.82352   7.84146
 Alpha virt. eigenvalues --    7.84406   7.87597   7.90480   7.91399   7.94861
 Alpha virt. eigenvalues --    7.95042   7.96292   7.99714   8.00233   8.02507
 Alpha virt. eigenvalues --    8.08130   8.10164   8.11839   8.12660   8.12731
 Alpha virt. eigenvalues --    8.15309   8.15878   8.17227   8.19307   8.21445
 Alpha virt. eigenvalues --    8.22765   8.25299   8.26298   8.27337   8.28707
 Alpha virt. eigenvalues --    8.31714   8.33103   8.34671   8.36342   8.40156
 Alpha virt. eigenvalues --    8.41686   8.43824   8.44273   8.46027   8.48402
 Alpha virt. eigenvalues --    8.50045   8.51175   8.54240   8.56523   8.59515
 Alpha virt. eigenvalues --    8.61036   8.62379   8.63658   8.65773   8.67782
 Alpha virt. eigenvalues --    8.68786   8.71978   8.76143   8.76603   8.80846
 Alpha virt. eigenvalues --    8.81868   8.83020   8.85102   8.86155   8.88147
 Alpha virt. eigenvalues --    8.92796   8.95441   8.96336   8.98576   8.99944
 Alpha virt. eigenvalues --    9.03313   9.07727   9.08960   9.11418   9.12118
 Alpha virt. eigenvalues --    9.13465   9.15761   9.18437   9.20264   9.20609
 Alpha virt. eigenvalues --    9.22109   9.23706   9.27575   9.31809   9.33526
 Alpha virt. eigenvalues --    9.35440   9.36900   9.40124   9.41898   9.46849
 Alpha virt. eigenvalues --    9.50859   9.53722   9.57163   9.59064   9.62261
 Alpha virt. eigenvalues --    9.67202   9.71587   9.75446   9.81296   9.84669
 Alpha virt. eigenvalues --    9.87221   9.93200   9.98092  10.10988  10.23813
 Alpha virt. eigenvalues --   10.40944  10.66220  10.70270  10.95347  11.01473
 Alpha virt. eigenvalues --   11.04981  11.10106  11.16297  11.19060  11.31505
 Alpha virt. eigenvalues --   11.33099  11.40657  11.53749  11.66710  11.73044
 Alpha virt. eigenvalues --   11.92828  12.11383  12.34695  28.75357  28.97020
 Alpha virt. eigenvalues --   29.17852  29.41804 148.34108 148.62232 148.88265
 Alpha virt. eigenvalues --  149.07966
          Condensed to atoms (all electrons):
               1          2          3          4          5          6
     1  C    4.808536   0.344309   0.410789   0.411467   0.386434  -0.058543
     2  C    0.344309   4.801221  -0.051864  -0.063910  -0.024980   0.350447
     3  H    0.410789  -0.051864   0.666351  -0.028157  -0.030031   0.010006
     4  H    0.411467  -0.063910  -0.028157   0.639304  -0.043815  -0.005910
     5  H    0.386434  -0.024980  -0.030031  -0.043815   0.704592  -0.009843
     6  C   -0.058543   0.350447   0.010006  -0.005910  -0.009843   4.877162
     7  H   -0.072018   0.405387  -0.007144  -0.019128   0.011925  -0.043814
     8  H   -0.043891   0.395590  -0.006610   0.014365  -0.007355  -0.036418
     9  C    0.005478  -0.053645  -0.000793  -0.000380   0.000777   0.360532
    10  H   -0.017936  -0.071493   0.000714  -0.003118   0.007774   0.370538
    11  H   -0.000449  -0.021365  -0.000394   0.003939  -0.000172   0.374524
    12  H    0.000623  -0.014339  -0.000082  -0.000155   0.000101  -0.057517
    13  H   -0.000609   0.006299   0.000033   0.000040  -0.000032  -0.023042
    14  H    0.000136   0.002199   0.000051   0.000019  -0.000027  -0.016236
               7          8          9         10         11         12
     1  C   -0.072018  -0.043891   0.005478  -0.017936  -0.000449   0.000623
     2  C    0.405387   0.395590  -0.053645  -0.071493  -0.021365  -0.014339
     3  H   -0.007144  -0.006610  -0.000793   0.000714  -0.000394  -0.000082
     4  H   -0.019128   0.014365  -0.000380  -0.003118   0.003939  -0.000155
     5  H    0.011925  -0.007355   0.000777   0.007774  -0.000172   0.000101
     6  C   -0.043814  -0.036418   0.360532   0.370538   0.374524  -0.057517
     7  H    0.691189  -0.042435   0.002966   0.014902  -0.007992   0.000306
     8  H   -0.042435   0.724923  -0.013000  -0.002982   0.005924   0.001054
     9  C    0.002966  -0.013000   4.863368  -0.015403  -0.032773   0.408533
    10  H    0.014902  -0.002982  -0.015403   0.739513  -0.046712  -0.000823
    11  H   -0.007992   0.005924  -0.032773  -0.046712   0.687513   0.006314
    12  H    0.000306   0.001054   0.408533  -0.000823   0.006314   0.542344
    13  H   -0.000244   0.001169   0.384543  -0.003670   0.000795  -0.041156
    14  H    0.000765   0.000831   0.346318   0.002640  -0.001701  -0.015727
              13         14
     1  C   -0.000609   0.000136
     2  C    0.006299   0.002199
     3  H    0.000033   0.000051
     4  H    0.000040   0.000019
     5  H   -0.000032  -0.000027
     6  C   -0.023042  -0.016236
     7  H   -0.000244   0.000765
     8  H    0.001169   0.000831
     9  C    0.384543   0.346318
    10  H   -0.003670   0.002640
    11  H    0.000795  -0.001701
    12  H   -0.041156  -0.015727
    13  H    0.649711  -0.022305
    14  H   -0.022305   0.665447
 Mulliken charges:
               1
     1  C   -0.174324
     2  C   -0.003857
     3  H    0.037133
     4  H    0.095438
     5  H    0.004652
     6  C   -0.091885
     7  H    0.065336
     8  H    0.008836
     9  C   -0.256520
    10  H    0.026057
    11  H    0.032549
    12  H    0.170524
    13  H    0.048469
    14  H    0.037591
 Sum of Mulliken charges =   0.00000
 Mulliken charges with hydrogens summed into heavy atoms:
               1
     1  C   -0.037100
     2  C    0.070315
     6  C   -0.033279
     9  C    0.000064
 Electronic spatial extent (au):  <R**2>=            445.5254
 Charge=              0.0000 electrons
 Dipole moment (field-independent basis, Debye):
    X=              0.3596    Y=             -0.2423    Z=              0.1428  Tot=              0.4566
 Quadrupole moment (field-independent basis, Debye-Ang):
   XX=            -30.9783   YY=            -29.7283   ZZ=            -29.3689
   XY=              0.2135   XZ=              1.1859   YZ=              0.0904
 Traceless Quadrupole moment (field-independent basis, Debye-Ang):
   XX=             -0.9531   YY=              0.2968   ZZ=              0.6563
   XY=              0.2135   XZ=              1.1859   YZ=              0.0904
 Octapole moment (field-independent basis, Debye-Ang**2):
  XXX=              1.4908  YYY=             -0.3928  ZZZ=              0.7400  XYY=              2.2014
  XXY=             -2.7038  XXZ=             -0.0434  XZZ=             -0.4239  YZZ=             -0.6049
  YYZ=              1.1643  XYZ=              1.0547
 Hexadecapole moment (field-independent basis, Debye-Ang**3):
 XXXX=           -501.0144 YYYY=           -111.2634 ZZZZ=            -72.8707 XXXY=             -2.3541
 XXXZ=              7.6428 YYYX=             -2.0550 YYYZ=              3.1164 ZZZX=              5.7040
 ZZZY=              0.9492 XXYY=            -97.2450 XXZZ=            -90.3082 YYZZ=            -27.5368
 XXYZ=             -5.6971 YYXZ=             -0.2375 ZZXY=              1.4929
 N-N= 1.268939483004D+02 E-N=-6.184491916667D+02  KE= 1.567039671892D+02
 Leave Link  601 at Wed Aug 26 13:21:52 2020, MaxMem=  2097152000 cpu:         1.2
 (Enter /opt/cluster/programs/g09/g09_d.01/g09/l9999.exe)
 1\1\GINC-NODE20\SP\RB2PLYPD3-FC\def2QZVP\C4H10\BOITTIER\26-Aug-2020\0\
 \#p B2PLYPD3/Def2QZVP\\butane_opt\\0,1\C,0,-3.894281,0.187831,0.128442
 \C,0,-2.711746,-0.588945,-0.030045\H,0,-4.898971,-0.514253,0.167461\H,
 0,-3.900161,0.773699,-0.652199\H,0,-4.060484,1.073295,1.102188\C,0,-1.
 443254,0.283563,-0.191259\H,0,-3.029882,-1.073346,-0.82628\H,0,-2.6149
 41,-1.382997,0.946775\C,0,-0.107923,-0.75458,0.131489\H,0,-1.861985,1.
 173696,0.672267\H,0,-1.362826,1.085871,-1.144855\H,0,-0.565631,-1.1585
 33,0.804432\H,0,0.802662,-0.261313,0.792027\H,0,0.406782,-1.788983,-0.
 921398\\Version=ES64L-G09RevD.01\State=1-A\HF=-157.8557641\MP2=-158.11
 22574\RMSD=5.714e-09\PG=C01 [X(C4H10)]\\@


 ERWIN WITH HIS PSI CAN DO
 CALCULATIONS QUITE A FEW.
 BUT ONE THING HAS NOT BEEN SEEN
 JUST WHAT DOES PSI REALLY MEAN.
 -- WALTER HUCKEL, TRANS. BY FELIX BLOCH
 Job cpu time:       0 days  1 hours 48 minutes 28.7 seconds.
 File lengths (MBytes):  RWF=    152 Int=      0 D2E=      0 Chk=     14 Scr=      1
 Normal termination of Gaussian 09 at Wed Aug 26 13:21:52 2020.
