 Entering Gaussian System, Link 0=/opt/cluster/programs/g09/g09_d.01/g09//g09
 Input=/home/boittier/MDCM/nms_sampling/butane_geom.xyz.dir/energies/butane_opt_200_energy.com
 Output=/scratch/boittier/butane_opt_200_energy/butane_opt_200_energy.out
 Initial command:
 /opt/cluster/programs/g09/g09_d.01/g09/l1.exe "/scratch/boittier/butane_opt_200_energy/Gau-121775.inp" -scrdir="/scratch/boittier/butane_opt_200_energy/"
 Entering Link 1 = /opt/cluster/programs/g09/g09_d.01/g09/l1.exe PID=    121776.
  
 Copyright (c) 1988,1990,1992,1993,1995,1998,2003,2009,2013,
            Gaussian, Inc.  All Rights Reserved.
  
 This is part of the Gaussian(R) 09 program.  It is based on
 the Gaussian(R) 03 system (copyright 2003, Gaussian, Inc.),
 the Gaussian(R) 98 system (copyright 1998, Gaussian, Inc.),
 the Gaussian(R) 94 system (copyright 1995, Gaussian, Inc.),
 the Gaussian 92(TM) system (copyright 1992, Gaussian, Inc.),
 the Gaussian 90(TM) system (copyright 1990, Gaussian, Inc.),
 the Gaussian 88(TM) system (copyright 1988, Gaussian, Inc.),
 the Gaussian 86(TM) system (copyright 1986, Carnegie Mellon
 University), and the Gaussian 82(TM) system (copyright 1983,
 Carnegie Mellon University). Gaussian is a federally registered
 trademark of Gaussian, Inc.
  
 This software contains proprietary and confidential information,
 including trade secrets, belonging to Gaussian, Inc.
  
 This software is provided under written license and may be
 used, copied, transmitted, or stored only in accord with that
 written license.
  
 The following legend is applicable only to US Government
 contracts under FAR:
  
                    RESTRICTED RIGHTS LEGEND
  
 Use, reproduction and disclosure by the US Government is
 subject to restrictions as set forth in subparagraphs (a)
 and (c) of the Commercial Computer Software - Restricted
 Rights clause in FAR 52.227-19.
  
 Gaussian, Inc.
 340 Quinnipiac St., Bldg. 40, Wallingford CT 06492
  
  
 ---------------------------------------------------------------
 Warning -- This program may not be used in any manner that
 competes with the business of Gaussian, Inc. or will provide
 assistance to any competitor of Gaussian, Inc.  The licensee
 of this program is prohibited from giving any competitor of
 Gaussian, Inc. access to this program.  By using this program,
 the user acknowledges that Gaussian, Inc. is engaged in the
 business of creating and licensing software in the field of
 computational chemistry and represents and warrants to the
 licensee that it is not a competitor of Gaussian, Inc. and that
 it will not use this program in any manner prohibited above.
 ---------------------------------------------------------------
  

 Cite this work as:
 Gaussian 09, Revision D.01,
 M. J. Frisch, G. W. Trucks, H. B. Schlegel, G. E. Scuseria, 
 M. A. Robb, J. R. Cheeseman, G. Scalmani, V. Barone, B. Mennucci, 
 G. A. Petersson, H. Nakatsuji, M. Caricato, X. Li, H. P. Hratchian, 
 A. F. Izmaylov, J. Bloino, G. Zheng, J. L. Sonnenberg, M. Hada, 
 M. Ehara, K. Toyota, R. Fukuda, J. Hasegawa, M. Ishida, T. Nakajima, 
 Y. Honda, O. Kitao, H. Nakai, T. Vreven, J. A. Montgomery, Jr., 
 J. E. Peralta, F. Ogliaro, M. Bearpark, J. J. Heyd, E. Brothers, 
 K. N. Kudin, V. N. Staroverov, T. Keith, R. Kobayashi, J. Normand, 
 K. Raghavachari, A. Rendell, J. C. Burant, S. S. Iyengar, J. Tomasi, 
 M. Cossi, N. Rega, J. M. Millam, M. Klene, J. E. Knox, J. B. Cross, 
 V. Bakken, C. Adamo, J. Jaramillo, R. Gomperts, R. E. Stratmann, 
 O. Yazyev, A. J. Austin, R. Cammi, C. Pomelli, J. W. Ochterski, 
 R. L. Martin, K. Morokuma, V. G. Zakrzewski, G. A. Voth, 
 P. Salvador, J. J. Dannenberg, S. Dapprich, A. D. Daniels, 
 O. Farkas, J. B. Foresman, J. V. Ortiz, J. Cioslowski, 
 and D. J. Fox, Gaussian, Inc., Wallingford CT, 2013.
 
 ******************************************
 Gaussian 09:  ES64L-G09RevD.01 24-Apr-2013
                26-Aug-2020 
 ******************************************
 %chk=/home/boittier/MDCM/nms_sampling/butane_geom.xyz.dir/butane_opt_200.chk
 %nproc=8
 Will use up to    8 processors via shared memory.
 %mem=16000MB
 --------------------
 #p B2PLYPD3/Def2QZVP
 --------------------
 1/38=1/1;
 2/12=2,17=6,18=5,40=1/2;
 3/5=45,7=101,11=9,16=1,25=1,30=1,74=-60/1,2,3;
 4//1;
 5/5=2,38=5/2;
 8/10=1/1;
 9/16=-3/6;
 6/7=2,8=2,9=2,10=2/1;
 99/5=1,9=1/99;
 Leave Link    1 at Wed Aug 26 14:24:38 2020, MaxMem=  2097152000 cpu:         0.2
 (Enter /opt/cluster/programs/g09/g09_d.01/g09/l101.exe)
 ----------
 butane_opt
 ----------
 Symbolic Z-matrix:
 Charge =  0 Multiplicity = 1
 C                    -3.96404   0.27187  -0.12253 
 C                    -2.72615  -0.64303   0.23368 
 H                    -4.90301  -0.22106  -0.70478 
 H                    -3.75154   0.61308  -0.77777 
 H                    -4.32647   1.00473   0.7132 
 C                    -1.33925   0.25552   0.14814 
 H                    -2.63034  -1.21579  -0.3571 
 H                    -2.92469  -1.52393   1.33369 
 C                    -0.15998  -0.71439  -0.12195 
 H                    -1.20975   0.81571   0.90577 
 H                    -1.58734   1.07166  -0.81945 
 H                     0.11233  -1.17325   0.5603 
 H                     0.65947  -0.14813   0.10994 
 H                    -0.19657  -1.76173  -1.17588 
 
 NAtoms=     14 NQM=       14 NQMF=       0 NMMI=      0 NMMIF=      0
                NMic=       0 NMicF=      0.
                    Isotopes and Nuclear Properties:
 (Nuclear quadrupole moments (NQMom) in fm**2, nuclear magnetic moments (NMagM)
  in nuclear magnetons)

  Atom         1           2           3           4           5           6           7           8           9          10
 IAtWgt=          12          12           1           1           1          12           1           1          12           1
 AtmWgt=  12.0000000  12.0000000   1.0078250   1.0078250   1.0078250  12.0000000   1.0078250   1.0078250  12.0000000   1.0078250
 NucSpn=           0           0           1           1           1           0           1           1           0           1
 AtZEff=   0.0000000   0.0000000   0.0000000   0.0000000   0.0000000   0.0000000   0.0000000   0.0000000   0.0000000   0.0000000
 NQMom=    0.0000000   0.0000000   0.0000000   0.0000000   0.0000000   0.0000000   0.0000000   0.0000000   0.0000000   0.0000000
 NMagM=    0.0000000   0.0000000   2.7928460   2.7928460   2.7928460   0.0000000   2.7928460   2.7928460   0.0000000   2.7928460
 AtZNuc=   6.0000000   6.0000000   1.0000000   1.0000000   1.0000000   6.0000000   1.0000000   1.0000000   6.0000000   1.0000000

  Atom        11          12          13          14
 IAtWgt=           1           1           1           1
 AtmWgt=   1.0078250   1.0078250   1.0078250   1.0078250
 NucSpn=           1           1           1           1
 AtZEff=   0.0000000   0.0000000   0.0000000   0.0000000
 NQMom=    0.0000000   0.0000000   0.0000000   0.0000000
 NMagM=    2.7928460   2.7928460   2.7928460   2.7928460
 AtZNuc=   1.0000000   1.0000000   1.0000000   1.0000000
 Leave Link  101 at Wed Aug 26 14:24:38 2020, MaxMem=  2097152000 cpu:         0.5
 (Enter /opt/cluster/programs/g09/g09_d.01/g09/l202.exe)
                          Input orientation:                          
 ---------------------------------------------------------------------
 Center     Atomic      Atomic             Coordinates (Angstroms)
 Number     Number       Type             X           Y           Z
 ---------------------------------------------------------------------
      1          6           0       -3.964043    0.271865   -0.122533
      2          6           0       -2.726146   -0.643029    0.233683
      3          1           0       -4.903009   -0.221056   -0.704783
      4          1           0       -3.751544    0.613079   -0.777771
      5          1           0       -4.326470    1.004729    0.713198
      6          6           0       -1.339250    0.255521    0.148137
      7          1           0       -2.630338   -1.215786   -0.357101
      8          1           0       -2.924687   -1.523928    1.333694
      9          6           0       -0.159983   -0.714389   -0.121945
     10          1           0       -1.209751    0.815714    0.905765
     11          1           0       -1.587342    1.071657   -0.819448
     12          1           0        0.112331   -1.173254    0.560299
     13          1           0        0.659470   -0.148126    0.109942
     14          1           0       -0.196573   -1.761734   -1.175879
 ---------------------------------------------------------------------
                    Distance matrix (angstroms):
                    1          2          3          4          5
     1  C    0.000000
     2  C    1.579971   0.000000
     3  H    1.209811   2.407802   0.000000
     4  H    0.768713   1.911096   1.423721   0.000000
     5  H    1.169140   2.346503   1.961024   1.645271   0.000000
     6  C    2.638763   1.654748   3.695264   2.608508   3.131148
     7  H    2.011690   0.828405   2.505076   2.186050   2.992172
     8  H    2.534902   1.423175   3.125159   3.115891   2.957045
     9  C    3.929831   2.591671   4.804100   3.884789   4.583933
    10  H    2.989865   2.208864   4.160398   3.055498   3.128378
    11  H    2.602703   2.312165   3.560604   2.212646   3.139475
    12  H    4.378522   2.905988   5.259349   4.462168   4.946710
    13  H    4.648366   3.423834   5.622301   4.563388   5.152921
    14  H    4.408956   3.104369   4.974551   4.293722   5.317704
                    6          7          8          9         10
     6  C    0.000000
     7  H    2.021613   0.000000
     8  H    2.661878   1.743669   0.000000
     9  C    1.550594   2.531670   3.227666   0.000000
    10  H    0.951097   2.782066   2.932244   2.121183   0.000000
    11  H    1.289902   2.556169   3.627888   2.390361   1.784500
    12  H    2.078067   2.892346   3.153504   0.866123   2.413139
    13  H    2.039429   3.490109   4.029464   1.022707   2.248624
    14  H    2.669840   2.625199   3.714447   1.486286   3.464536
                   11         12         13         14
    11  H    0.000000
    12  H    3.135636   0.000000
    13  H    2.720257   1.246222   0.000000
    14  H    3.176379   1.859044   2.233803   0.000000
 Stoichiometry    C4H10
 Framework group  C1[X(C4H10)]
 Deg. of freedom    36
 Full point group                 C1      NOp   1
 Largest Abelian subgroup         C1      NOp   1
 Largest concise Abelian subgroup C1      NOp   1
                         Standard orientation:                         
 ---------------------------------------------------------------------
 Center     Atomic      Atomic             Coordinates (Angstroms)
 Number     Number       Type             X           Y           Z
 ---------------------------------------------------------------------
      1          6           0        1.967366   -0.127653   -0.132978
      2          6           0        0.578483    0.544665    0.206583
      3          1           0        2.798281    0.521728   -0.725877
      4          1           0        1.824579   -0.515495   -0.781137
      5          1           0        2.459086   -0.762736    0.716591
      6          6           0       -0.614286   -0.600368    0.140302
      7          1           0        0.378116    1.077503   -0.395242
      8          1           0        0.604837    1.468500    1.288830
      9          6           0       -1.954322    0.124776   -0.147462
     10          1           0       -0.637995   -1.160019    0.908947
     11          1           0       -0.214522   -1.373957   -0.811327
     12          1           0       -2.309896    0.537418    0.525935
     13          1           0       -2.653151   -0.580968    0.096448
     14          1           0       -2.112782    1.139502   -1.221831
 ---------------------------------------------------------------------
 Rotational constants (GHZ):     19.4924929      3.5067969      3.2807658
 Leave Link  202 at Wed Aug 26 14:24:38 2020, MaxMem=  2097152000 cpu:         0.0
 (Enter /opt/cluster/programs/g09/g09_d.01/g09/l301.exe)
 Standard basis: def2QZVP (5D, 7F)
 Ernie: Thresh=  0.10000D-02 Tol=  0.10000D-05 Strict=F.
 There are   638 symmetry adapted cartesian basis functions of A   symmetry.
 There are   528 symmetry adapted basis functions of A   symmetry.
   528 basis functions,   748 primitive gaussians,   638 cartesian basis functions
    17 alpha electrons       17 beta electrons
       nuclear repulsion energy       128.7934549729 Hartrees.
 IExCor=  419 DFT=T Ex+Corr=B2PLYPD3 ExCW=0 ScaHFX=  0.530000
 ScaDFX=  0.470000  0.470000  0.730000  0.730000 ScalE2=  0.270000  0.270000
 IRadAn=      0 IRanWt=     -1 IRanGd=            0 ICorTp=0 IEmpDi=141
 NAtoms=   14 NActive=   14 NUniq=   14 SFac= 1.00D+00 NAtFMM=   60 NAOKFM=F Big=F
 Integral buffers will be    131072 words long.
 Regular integral format.
 Two-electron integral symmetry is turned on.
 R6Disp:  Grimme-D3(BJ) Dispersion energy=       -0.0069168351 Hartrees.
 Nuclear repulsion after empirical dispersion term =      128.7865381377 Hartrees.
 Leave Link  301 at Wed Aug 26 14:24:38 2020, MaxMem=  2097152000 cpu:         0.4
 (Enter /opt/cluster/programs/g09/g09_d.01/g09/l302.exe)
 NPDir=0 NMtPBC=     1 NCelOv=     1 NCel=       1 NClECP=     1 NCelD=      1
         NCelK=      1 NCelE2=     1 NClLst=     1 CellRange=     0.0.
 One-electron integrals computed using PRISM.
   1 Symmetry operations used in ECPInt.
 ECPInt:  NShTT=   14196 NPrTT=   30597 LenC2=   13835 LenP2D=   25750.
 LDataN:  DoStor=T MaxTD1= 8 Len=  415
 NBasis=   528 RedAO= T EigKep=  2.60D-05  NBF=   528
 NBsUse=   528 1.00D-06 EigRej= -1.00D+00 NBFU=   528
 Precomputing XC quadrature grid using
 IXCGrd= 4 IRadAn=           0 IRanWt=          -1 IRanGd=           0 AccXCQ= 0.00D+00.
 Generated NRdTot=       0 NPtTot=           0 NUsed=           0 NTot=          32
 NSgBfM=   638   638   638   638   638 MxSgAt=    14 MxSgA2=    14.
 Leave Link  302 at Wed Aug 26 14:24:39 2020, MaxMem=  2097152000 cpu:         5.5
 (Enter /opt/cluster/programs/g09/g09_d.01/g09/l303.exe)
 DipDrv:  MaxL=1.
 Leave Link  303 at Wed Aug 26 14:24:39 2020, MaxMem=  2097152000 cpu:         0.6
 (Enter /opt/cluster/programs/g09/g09_d.01/g09/l401.exe)
 ExpMin= 7.60D-02 ExpMax= 6.70D+04 ExpMxC= 6.47D+02 IAcc=2 IRadAn=         4 AccDes= 0.00D+00
 Harris functional with IExCor=  419 and IRadAn=       4 diagonalized for initial guess.
 HarFok:  IExCor=  419 AccDes= 0.00D+00 IRadAn=         4 IDoV= 1 UseB2=F ITyADJ=14
 ICtDFT=  3500011 ScaDFX=  1.000000  1.000000  1.000000  1.000000
 FoFCou: FMM=F IPFlag=           0 FMFlag=      100000 FMFlg1=           0
         NFxFlg=           0 DoJE=T BraDBF=F KetDBF=T FulRan=T
         wScrn=  0.000000 ICntrl=     500 IOpCl=  0 I1Cent=   200000004 NGrid=           0
         NMat0=    1 NMatS0=      1 NMatT0=    0 NMatD0=    1 NMtDS0=    0 NMtDT0=    0
 Petite list used in FoFCou.
 Harris En= -158.276929935424    
 JPrj=0 DoOrth=F DoCkMO=F.
 Leave Link  401 at Wed Aug 26 14:24:41 2020, MaxMem=  2097152000 cpu:        16.7
 (Enter /opt/cluster/programs/g09/g09_d.01/g09/l502.exe)
 Closed shell SCF:
 Using DIIS extrapolation, IDIIS=  1040.
 Integral symmetry usage will be decided dynamically.
 IVT=     1249338 IEndB=     1249338 NGot=  2097152000 MDV=  2096326985
 LenX=  2096326985 LenY=  2095919303
 Requested convergence on RMS density matrix=1.00D-08 within 128 cycles.
 Requested convergence on MAX density matrix=1.00D-06.
 Requested convergence on             energy=1.00D-06.
 No special actions if energy rises.
 Fock matrices will be formed incrementally for  20 cycles.
 Integral accuracy reduced to 1.0D-05 until final iterations.

 Cycle   1  Pass 0  IDiag  1:
 FoFJK:  IHMeth= 1 ICntrl=       0 DoSepK=F KAlg= 0 I1Cent=   0 FoldK=F
 IRaf= 930000000 NMat=   1 IRICut=       1 DoRegI=T DoRafI=F ISym2E= 0.
 FoFCou: FMM=F IPFlag=           0 FMFlag=      100000 FMFlg1=           0
         NFxFlg=           0 DoJE=F BraDBF=F KetDBF=F FulRan=T
         wScrn=  0.000000 ICntrl=       0 IOpCl=  0 I1Cent=           0 NGrid=           0
         NMat0=    1 NMatS0=      1 NMatT0=    0 NMatD0=    1 NMtDS0=    0 NMtDT0=    0
 Symmetry not used in FoFCou.
 E= -157.316643021823    
 DIIS: error= 3.29D-02 at cycle   1 NSaved=   1.
 NSaved= 1 IEnMin= 1 EnMin= -157.316643021823     IErMin= 1 ErrMin= 3.29D-02
 ErrMax= 3.29D-02  0.00D+00 EMaxC= 1.00D-01 BMatC= 4.40D-01 BMatP= 4.40D-01
 IDIUse=3 WtCom= 6.71D-01 WtEn= 3.29D-01
 Coeff-Com:  0.100D+01
 Coeff-En:   0.100D+01
 Coeff:      0.100D+01
 Gap=     0.354 Goal=   None    Shift=    0.000
 GapD=    0.354 DampG=1.000 DampE=0.500 DampFc=0.5000 IDamp=-1.
 Damping current iteration by 5.00D-01
 RMSDP=1.17D-03 MaxDP=6.50D-02              OVMax= 2.21D-01

 Cycle   2  Pass 0  IDiag  1:
 RMSU=  5.58D-04    CP:  9.42D-01
 E= -157.504196033832     Delta-E=       -0.187553012009 Rises=F Damp=T
 DIIS: error= 4.88D-03 at cycle   2 NSaved=   2.
 NSaved= 2 IEnMin= 2 EnMin= -157.504196033832     IErMin= 2 ErrMin= 4.88D-03
 ErrMax= 4.88D-03  0.00D+00 EMaxC= 1.00D-01 BMatC= 3.66D-02 BMatP= 4.40D-01
 IDIUse=3 WtCom= 9.51D-01 WtEn= 4.88D-02
 Coeff-Com: -0.153D+00 0.115D+01
 Coeff-En:   0.000D+00 0.100D+01
 Coeff:     -0.145D+00 0.115D+01
 Gap=     0.426 Goal=   None    Shift=    0.000
 RMSDP=3.13D-04 MaxDP=1.47D-02 DE=-1.88D-01 OVMax= 1.34D-01

 Cycle   3  Pass 0  IDiag  1:
 RMSU=  2.94D-04    CP:  9.33D-01  8.13D-01
 E= -157.680056677376     Delta-E=       -0.175860643544 Rises=F Damp=F
 DIIS: error= 4.80D-03 at cycle   3 NSaved=   3.
 NSaved= 3 IEnMin= 3 EnMin= -157.680056677376     IErMin= 3 ErrMin= 4.80D-03
 ErrMax= 4.80D-03  0.00D+00 EMaxC= 1.00D-01 BMatC= 4.16D-03 BMatP= 3.66D-02
 IDIUse=3 WtCom= 9.52D-01 WtEn= 4.80D-02
 Coeff-Com: -0.954D-01 0.237D+00 0.859D+00
 Coeff-En:   0.000D+00 0.000D+00 0.100D+01
 Coeff:     -0.908D-01 0.225D+00 0.865D+00
 Gap=     0.387 Goal=   None    Shift=    0.000
 RMSDP=8.25D-05 MaxDP=7.07D-03 DE=-1.76D-01 OVMax= 1.92D-02

 Cycle   4  Pass 0  IDiag  1:
 RMSU=  6.96D-05    CP:  9.28D-01  8.85D-01  1.02D+00
 E= -157.684235188350     Delta-E=       -0.004178510973 Rises=F Damp=F
 DIIS: error= 8.72D-04 at cycle   4 NSaved=   4.
 NSaved= 4 IEnMin= 4 EnMin= -157.684235188350     IErMin= 4 ErrMin= 8.72D-04
 ErrMax= 8.72D-04  0.00D+00 EMaxC= 1.00D-01 BMatC= 3.92D-04 BMatP= 4.16D-03
 IDIUse=3 WtCom= 9.91D-01 WtEn= 8.72D-03
 Coeff-Com: -0.250D-01 0.378D-01 0.305D+00 0.682D+00
 Coeff-En:   0.000D+00 0.000D+00 0.000D+00 0.100D+01
 Coeff:     -0.247D-01 0.374D-01 0.302D+00 0.685D+00
 Gap=     0.389 Goal=   None    Shift=    0.000
 RMSDP=2.46D-05 MaxDP=1.81D-03 DE=-4.18D-03 OVMax= 4.90D-03

 Cycle   5  Pass 0  IDiag  1:
 RMSU=  1.75D-05    CP:  9.28D-01  8.68D-01  1.06D+00  8.80D-01
 E= -157.684601511177     Delta-E=       -0.000366322828 Rises=F Damp=F
 DIIS: error= 2.19D-04 at cycle   5 NSaved=   5.
 NSaved= 5 IEnMin= 5 EnMin= -157.684601511177     IErMin= 5 ErrMin= 2.19D-04
 ErrMax= 2.19D-04  0.00D+00 EMaxC= 1.00D-01 BMatC= 2.33D-05 BMatP= 3.92D-04
 IDIUse=3 WtCom= 9.98D-01 WtEn= 2.19D-03
 Coeff-Com: -0.797D-03-0.533D-02 0.419D-01 0.228D+00 0.736D+00
 Coeff-En:   0.000D+00 0.000D+00 0.000D+00 0.000D+00 0.100D+01
 Coeff:     -0.796D-03-0.532D-02 0.418D-01 0.228D+00 0.736D+00
 Gap=     0.388 Goal=   None    Shift=    0.000
 RMSDP=6.37D-06 MaxDP=4.05D-04 DE=-3.66D-04 OVMax= 1.22D-03

 Initial convergence to 1.0D-05 achieved.  Increase integral accuracy.
 Cycle   6  Pass 1  IDiag  1:
 E= -157.684567914814     Delta-E=        0.000033596364 Rises=F Damp=F
 DIIS: error= 4.65D-05 at cycle   1 NSaved=   1.
 NSaved= 1 IEnMin= 1 EnMin= -157.684567914814     IErMin= 1 ErrMin= 4.65D-05
 ErrMax= 4.65D-05  0.00D+00 EMaxC= 1.00D-01 BMatC= 9.71D-07 BMatP= 9.71D-07
 IDIUse=1 WtCom= 1.00D+00 WtEn= 0.00D+00
 Coeff-Com:  0.100D+01
 Coeff:      0.100D+01
 Gap=     0.389 Goal=   None    Shift=    0.000
 RMSDP=6.37D-06 MaxDP=4.05D-04 DE= 3.36D-05 OVMax= 2.85D-04

 Cycle   7  Pass 1  IDiag  1:
 RMSU=  2.15D-05    CP:  1.00D+00
 E= -157.684568716841     Delta-E=       -0.000000802027 Rises=F Damp=F
 DIIS: error= 1.69D-05 at cycle   2 NSaved=   2.
 NSaved= 2 IEnMin= 2 EnMin= -157.684568716841     IErMin= 2 ErrMin= 1.69D-05
 ErrMax= 1.69D-05  0.00D+00 EMaxC= 1.00D-01 BMatC= 1.57D-07 BMatP= 9.71D-07
 IDIUse=1 WtCom= 1.00D+00 WtEn= 0.00D+00
 Coeff-Com:  0.205D+00 0.795D+00
 Coeff:      0.205D+00 0.795D+00
 Gap=     0.388 Goal=   None    Shift=    0.000
 RMSDP=8.35D-07 MaxDP=4.37D-05 DE=-8.02D-07 OVMax= 1.67D-04

 Cycle   8  Pass 1  IDiag  1:
 RMSU=  6.48D-07    CP:  1.00D+00  1.02D+00
 E= -157.684568855164     Delta-E=       -0.000000138323 Rises=F Damp=F
 DIIS: error= 8.97D-06 at cycle   3 NSaved=   3.
 NSaved= 3 IEnMin= 3 EnMin= -157.684568855164     IErMin= 3 ErrMin= 8.97D-06
 ErrMax= 8.97D-06  0.00D+00 EMaxC= 1.00D-01 BMatC= 4.54D-08 BMatP= 1.57D-07
 IDIUse=1 WtCom= 1.00D+00 WtEn= 0.00D+00
 Coeff-Com: -0.308D-01 0.327D+00 0.704D+00
 Coeff:     -0.308D-01 0.327D+00 0.704D+00
 Gap=     0.389 Goal=   None    Shift=    0.000
 RMSDP=3.38D-07 MaxDP=2.74D-05 DE=-1.38D-07 OVMax= 5.68D-05

 Cycle   9  Pass 1  IDiag  1:
 RMSU=  2.70D-07    CP:  1.00D+00  1.03D+00  9.03D-01
 E= -157.684568903174     Delta-E=       -0.000000048010 Rises=F Damp=F
 DIIS: error= 1.45D-06 at cycle   4 NSaved=   4.
 NSaved= 4 IEnMin= 4 EnMin= -157.684568903174     IErMin= 4 ErrMin= 1.45D-06
 ErrMax= 1.45D-06  0.00D+00 EMaxC= 1.00D-01 BMatC= 7.60D-10 BMatP= 4.54D-08
 IDIUse=1 WtCom= 1.00D+00 WtEn= 0.00D+00
 Coeff-Com: -0.158D-01 0.186D-01 0.111D+00 0.886D+00
 Coeff:     -0.158D-01 0.186D-01 0.111D+00 0.886D+00
 Gap=     0.389 Goal=   None    Shift=    0.000
 RMSDP=7.63D-08 MaxDP=4.81D-06 DE=-4.80D-08 OVMax= 1.14D-05

 Cycle  10  Pass 1  IDiag  1:
 RMSU=  5.44D-08    CP:  1.00D+00  1.03D+00  9.55D-01  1.15D+00
 E= -157.684568904359     Delta-E=       -0.000000001185 Rises=F Damp=F
 DIIS: error= 4.48D-07 at cycle   5 NSaved=   5.
 NSaved= 5 IEnMin= 5 EnMin= -157.684568904359     IErMin= 5 ErrMin= 4.48D-07
 ErrMax= 4.48D-07  0.00D+00 EMaxC= 1.00D-01 BMatC= 6.14D-11 BMatP= 7.60D-10
 IDIUse=1 WtCom= 1.00D+00 WtEn= 0.00D+00
 Coeff-Com:  0.224D-03-0.247D-01-0.478D-01 0.133D+00 0.939D+00
 Coeff:      0.224D-03-0.247D-01-0.478D-01 0.133D+00 0.939D+00
 Gap=     0.389 Goal=   None    Shift=    0.000
 RMSDP=2.46D-08 MaxDP=1.01D-06 DE=-1.19D-09 OVMax= 3.49D-06

 Cycle  11  Pass 1  IDiag  1:
 RMSU=  1.45D-08    CP:  1.00D+00  1.03D+00  9.66D-01  1.21D+00  1.08D+00
 E= -157.684568904449     Delta-E=       -0.000000000090 Rises=F Damp=F
 DIIS: error= 1.10D-07 at cycle   6 NSaved=   6.
 NSaved= 6 IEnMin= 6 EnMin= -157.684568904449     IErMin= 6 ErrMin= 1.10D-07
 ErrMax= 1.10D-07  0.00D+00 EMaxC= 1.00D-01 BMatC= 5.51D-12 BMatP= 6.14D-11
 IDIUse=1 WtCom= 1.00D+00 WtEn= 0.00D+00
 Coeff-Com:  0.515D-03-0.975D-02-0.212D-01 0.274D-01 0.361D+00 0.642D+00
 Coeff:      0.515D-03-0.975D-02-0.212D-01 0.274D-01 0.361D+00 0.642D+00
 Gap=     0.389 Goal=   None    Shift=    0.000
 RMSDP=3.25D-09 MaxDP=1.61D-07 DE=-8.96D-11 OVMax= 6.45D-07

 SCF Done:  E(RB2PLYPD3) =  -157.684568904     A.U. after   11 cycles
            NFock= 11  Conv=0.32D-08     -V/T= 1.9968
 KE= 1.581923657670D+02 PE=-6.230625534400D+02 EE= 1.783990806308D+02
 Leave Link  502 at Wed Aug 26 14:31:49 2020, MaxMem=  2097152000 cpu:      3413.7
 (Enter /opt/cluster/programs/g09/g09_d.01/g09/l801.exe)
 DoSCS=T DFT=T ScalE2(SS,OS)=  0.270000  0.270000
 ExpMin= 7.60D-02 ExpMax= 6.70D+04 ExpMxC= 6.47D+02 IAcc=3 IRadAn=         5 AccDes= 0.00D+00
 HarFok:  IExCor=  205 AccDes= 0.00D+00 IRadAn=         5 IDoV=-2 UseB2=F ITyADJ=14
 ICtDFT= 12500011 ScaDFX=  1.000000  1.000000  1.000000  1.000000
 Largest valence mixing into a core orbital is  1.15D-04
 Largest core mixing into a valence orbital is  1.56D-05
 Range of M.O.s used for correlation:     5   528
 NBasis=   528 NAE=    17 NBE=    17 NFC=     4 NFV=     0
 NROrb=    524 NOA=    13 NOB=    13 NVA=   511 NVB=   511

 **** Warning!!: The largest alpha MO coefficient is  0.32893852D+02

 Leave Link  801 at Wed Aug 26 14:31:49 2020, MaxMem=  2097152000 cpu:         1.5
 (Enter /opt/cluster/programs/g09/g09_d.01/g09/l906.exe)
 DoSCS=T DFT=T ScalE2(SS,OS)=  0.270000  0.270000
 FulOut=F Deriv=F AODrv=F NAtomX=    14
   MMem=         463  MDisk=          13 MDiskD=          13
  W3Min=     4238234 MinDsk=     6904766 NBas6D=         638
 NBas2D=      205689    NTT=      203841    LW2=     4508827
    MDV=  2095907820 MDiskM=        7293 NBas2p=      188608
 Fully direct method using O(OVN) memory.
 IMap=   1   2   3   4   5   6   7   8   9  10  11  12  13
 JobTyp=1 Pass  1:  I=   1 to  13 NPSUse=  8 ParTrn=T ParDer=T DoDerP=F.
 Spin components of T(2) and E(2):
     alpha-alpha T2 =       0.4169637600D-01 E2=     -0.2636121882D-01
     alpha-beta  T2 =       0.2885567452D+00 E2=     -0.1982950366D+00
     beta-beta   T2 =       0.4169637600D-01 E2=     -0.2636121882D-01
 The integrals were generated   1 times.
 E2(B2PLYPD3) =    -0.2510174743D+00 E(B2PLYPD3) =    -0.15793558637872D+03
 Leave Link  906 at Wed Aug 26 14:38:37 2020, MaxMem=  2097152000 cpu:      3262.1
 (Enter /opt/cluster/programs/g09/g09_d.01/g09/l601.exe)
 Copying SCF densities to generalized density rwf, IOpCl= 0 IROHF=0.

 **********************************************************************

            Population analysis using the SCF density.

 **********************************************************************

 Orbital symmetries:
       Occupied  (A) (A) (A) (A) (A) (A) (A) (A) (A) (A) (A) (A)
                 (A) (A) (A) (A) (A)
       Virtual   (A) (A) (A) (A) (A) (A) (A) (A) (A) (A) (A) (A)
                 (A) (A) (A) (A) (A) (A) (A) (A) (A) (A) (A) (A)
                 (A) (A) (A) (A) (A) (A) (A) (A) (A) (A) (A) (A)
                 (A) (A) (A) (A) (A) (A) (A) (A) (A) (A) (A) (A)
                 (A) (A) (A) (A) (A) (A) (A) (A) (A) (A) (A) (A)
                 (A) (A) (A) (A) (A) (A) (A) (A) (A) (A) (A) (A)
                 (A) (A) (A) (A) (A) (A) (A) (A) (A) (A) (A) (A)
                 (A) (A) (A) (A) (A) (A) (A) (A) (A) (A) (A) (A)
                 (A) (A) (A) (A) (A) (A) (A) (A) (A) (A) (A) (A)
                 (A) (A) (A) (A) (A) (A) (A) (A) (A) (A) (A) (A)
                 (A) (A) (A) (A) (A) (A) (A) (A) (A) (A) (A) (A)
                 (A) (A) (A) (A) (A) (A) (A) (A) (A) (A) (A) (A)
                 (A) (A) (A) (A) (A) (A) (A) (A) (A) (A) (A) (A)
                 (A) (A) (A) (A) (A) (A) (A) (A) (A) (A) (A) (A)
                 (A) (A) (A) (A) (A) (A) (A) (A) (A) (A) (A) (A)
                 (A) (A) (A) (A) (A) (A) (A) (A) (A) (A) (A) (A)
                 (A) (A) (A) (A) (A) (A) (A) (A) (A) (A) (A) (A)
                 (A) (A) (A) (A) (A) (A) (A) (A) (A) (A) (A) (A)
                 (A) (A) (A) (A) (A) (A) (A) (A) (A) (A) (A) (A)
                 (A) (A) (A) (A) (A) (A) (A) (A) (A) (A) (A) (A)
                 (A) (A) (A) (A) (A) (A) (A) (A) (A) (A) (A) (A)
                 (A) (A) (A) (A) (A) (A) (A) (A) (A) (A) (A) (A)
                 (A) (A) (A) (A) (A) (A) (A) (A) (A) (A) (A) (A)
                 (A) (A) (A) (A) (A) (A) (A) (A) (A) (A) (A) (A)
                 (A) (A) (A) (A) (A) (A) (A) (A) (A) (A) (A) (A)
                 (A) (A) (A) (A) (A) (A) (A) (A) (A) (A) (A) (A)
                 (A) (A) (A) (A) (A) (A) (A) (A) (A) (A) (A) (A)
                 (A) (A) (A) (A) (A) (A) (A) (A) (A) (A) (A) (A)
                 (A) (A) (A) (A) (A) (A) (A) (A) (A) (A) (A) (A)
                 (A) (A) (A) (A) (A) (A) (A) (A) (A) (A) (A) (A)
                 (A) (A) (A) (A) (A) (A) (A) (A) (A) (A) (A) (A)
                 (A) (A) (A) (A) (A) (A) (A) (A) (A) (A) (A) (A)
                 (A) (A) (A) (A) (A) (A) (A) (A) (A) (A) (A) (A)
                 (A) (A) (A) (A) (A) (A) (A) (A) (A) (A) (A) (A)
                 (A) (A) (A) (A) (A) (A) (A) (A) (A) (A) (A) (A)
                 (A) (A) (A) (A) (A) (A) (A) (A) (A) (A) (A) (A)
                 (A) (A) (A) (A) (A) (A) (A) (A) (A) (A) (A) (A)
                 (A) (A) (A) (A) (A) (A) (A) (A) (A) (A) (A) (A)
                 (A) (A) (A) (A) (A) (A) (A) (A) (A) (A) (A) (A)
                 (A) (A) (A) (A) (A) (A) (A) (A) (A) (A) (A) (A)
                 (A) (A) (A) (A) (A) (A) (A) (A) (A) (A) (A) (A)
                 (A) (A) (A) (A) (A) (A) (A) (A) (A) (A) (A) (A)
                 (A) (A) (A) (A) (A) (A) (A)
 The electronic state is 1-A.
 Alpha  occ. eigenvalues --  -10.63353 -10.61735 -10.60876 -10.58722  -0.91665
 Alpha  occ. eigenvalues --   -0.86759  -0.77025  -0.71309  -0.53606  -0.49794
 Alpha  occ. eigenvalues --   -0.48454  -0.46995  -0.42145  -0.41055  -0.38703
 Alpha  occ. eigenvalues --   -0.37115  -0.34744
 Alpha virt. eigenvalues --    0.04108   0.06057   0.06504   0.07950   0.10429
 Alpha virt. eigenvalues --    0.11276   0.11901   0.13727   0.14289   0.15521
 Alpha virt. eigenvalues --    0.16027   0.16401   0.18198   0.18993   0.20053
 Alpha virt. eigenvalues --    0.22365   0.22911   0.24127   0.25232   0.27931
 Alpha virt. eigenvalues --    0.29377   0.29620   0.30684   0.32340   0.33833
 Alpha virt. eigenvalues --    0.34140   0.36502   0.37332   0.38161   0.38534
 Alpha virt. eigenvalues --    0.40981   0.43239   0.43722   0.46527   0.47123
 Alpha virt. eigenvalues --    0.49392   0.49883   0.53966   0.54936   0.57090
 Alpha virt. eigenvalues --    0.59489   0.60102   0.62011   0.65150   0.65627
 Alpha virt. eigenvalues --    0.67481   0.67860   0.69036   0.70760   0.70931
 Alpha virt. eigenvalues --    0.73579   0.74177   0.75603   0.76968   0.78721
 Alpha virt. eigenvalues --    0.80626   0.82280   0.82943   0.83998   0.86591
 Alpha virt. eigenvalues --    0.87184   0.87572   0.88687   0.89108   0.91008
 Alpha virt. eigenvalues --    0.92355   0.93979   0.95264   0.96092   0.96691
 Alpha virt. eigenvalues --    0.98052   0.98540   1.01501   1.02154   1.02966
 Alpha virt. eigenvalues --    1.03941   1.06825   1.07501   1.07865   1.09505
 Alpha virt. eigenvalues --    1.10626   1.12768   1.14753   1.16330   1.17535
 Alpha virt. eigenvalues --    1.20798   1.21384   1.22928   1.24396   1.25914
 Alpha virt. eigenvalues --    1.28076   1.31861   1.32585   1.34983   1.35460
 Alpha virt. eigenvalues --    1.37199   1.39480   1.41645   1.42389   1.43148
 Alpha virt. eigenvalues --    1.46785   1.50392   1.53911   1.55377   1.58452
 Alpha virt. eigenvalues --    1.61953   1.65145   1.69141   1.76424   1.77257
 Alpha virt. eigenvalues --    1.78777   1.81164   1.83356   1.85063   1.86019
 Alpha virt. eigenvalues --    1.87928   1.90365   1.92290   1.93549   1.95259
 Alpha virt. eigenvalues --    1.95876   1.98817   1.99916   2.01533   2.03275
 Alpha virt. eigenvalues --    2.03450   2.05775   2.06533   2.07763   2.09040
 Alpha virt. eigenvalues --    2.11028   2.12518   2.13123   2.14733   2.16710
 Alpha virt. eigenvalues --    2.17298   2.18980   2.20389   2.20973   2.21493
 Alpha virt. eigenvalues --    2.22724   2.23696   2.24027   2.26004   2.27912
 Alpha virt. eigenvalues --    2.28631   2.29425   2.30968   2.33983   2.35689
 Alpha virt. eigenvalues --    2.35988   2.38996   2.42225   2.42427   2.43929
 Alpha virt. eigenvalues --    2.46548   2.47718   2.49257   2.50358   2.51662
 Alpha virt. eigenvalues --    2.53510   2.55726   2.57037   2.58870   2.61255
 Alpha virt. eigenvalues --    2.62223   2.62844   2.64578   2.66149   2.66854
 Alpha virt. eigenvalues --    2.68603   2.69262   2.70807   2.71575   2.72915
 Alpha virt. eigenvalues --    2.73867   2.76431   2.76889   2.77136   2.80837
 Alpha virt. eigenvalues --    2.81627   2.82973   2.84925   2.85911   2.88436
 Alpha virt. eigenvalues --    2.90010   2.91680   2.95593   2.96081   2.96934
 Alpha virt. eigenvalues --    2.99341   3.01112   3.03137   3.05337   3.05948
 Alpha virt. eigenvalues --    3.07183   3.09837   3.11191   3.11929   3.14305
 Alpha virt. eigenvalues --    3.18037   3.18514   3.22230   3.23362   3.25679
 Alpha virt. eigenvalues --    3.27604   3.30943   3.32361   3.34607   3.35665
 Alpha virt. eigenvalues --    3.37475   3.40431   3.41718   3.41968   3.46983
 Alpha virt. eigenvalues --    3.50207   3.53702   3.55094   3.57588   3.61511
 Alpha virt. eigenvalues --    3.62519   3.66088   3.69370   3.70887   3.73008
 Alpha virt. eigenvalues --    3.74949   3.77400   3.78011   3.82891   3.86120
 Alpha virt. eigenvalues --    3.87952   3.92245   3.94253   3.96023   3.99875
 Alpha virt. eigenvalues --    4.05835   4.06711   4.11298   4.15126   4.19214
 Alpha virt. eigenvalues --    4.20035   4.22387   4.22825   4.30072   4.31045
 Alpha virt. eigenvalues --    4.33490   4.37403   4.41156   4.43323   4.52678
 Alpha virt. eigenvalues --    4.55338   4.63658   4.76641   4.82203   4.93063
 Alpha virt. eigenvalues --    5.05426   5.15341   5.20654   5.22323   5.22752
 Alpha virt. eigenvalues --    5.27451   5.30957   5.36583   5.41648   5.43836
 Alpha virt. eigenvalues --    5.45759   5.49875   5.51200   5.55087   5.56653
 Alpha virt. eigenvalues --    5.60585   5.64525   5.66770   5.68538   5.70072
 Alpha virt. eigenvalues --    5.72739   5.74815   5.76248   5.77225   5.79287
 Alpha virt. eigenvalues --    5.81057   5.82454   5.85017   5.87483   5.88023
 Alpha virt. eigenvalues --    5.88518   5.91718   5.92963   5.93830   5.94688
 Alpha virt. eigenvalues --    5.95895   5.99109   6.00463   6.01684   6.03015
 Alpha virt. eigenvalues --    6.03427   6.04055   6.06126   6.07091   6.08647
 Alpha virt. eigenvalues --    6.10780   6.13352   6.15668   6.17581   6.19655
 Alpha virt. eigenvalues --    6.21156   6.23766   6.24718   6.27532   6.28942
 Alpha virt. eigenvalues --    6.30221   6.31719   6.33402   6.34671   6.36954
 Alpha virt. eigenvalues --    6.38129   6.42839   6.46649   6.47602   6.48609
 Alpha virt. eigenvalues --    6.49609   6.51225   6.53369   6.56948   6.60660
 Alpha virt. eigenvalues --    6.61659   6.64408   6.65097   6.70905   6.71816
 Alpha virt. eigenvalues --    6.72469   6.73788   6.74823   6.77525   6.80374
 Alpha virt. eigenvalues --    6.81046   6.83716   6.85271   6.89170   6.90971
 Alpha virt. eigenvalues --    6.93203   6.94026   6.95251   6.97631   6.98414
 Alpha virt. eigenvalues --    7.01854   7.02758   7.06338   7.10163   7.10994
 Alpha virt. eigenvalues --    7.14413   7.14597   7.16889   7.19418   7.25598
 Alpha virt. eigenvalues --    7.26904   7.28587   7.32074   7.32406   7.34363
 Alpha virt. eigenvalues --    7.38304   7.38920   7.39964   7.42275   7.45148
 Alpha virt. eigenvalues --    7.46720   7.50659   7.53488   7.55164   7.57509
 Alpha virt. eigenvalues --    7.61078   7.61700   7.64881   7.65315   7.67424
 Alpha virt. eigenvalues --    7.70167   7.71830   7.73069   7.75215   7.79415
 Alpha virt. eigenvalues --    7.80633   7.81764   7.83939   7.85181   7.88616
 Alpha virt. eigenvalues --    7.90506   7.92187   7.96031   7.97217   7.99943
 Alpha virt. eigenvalues --    8.01717   8.06498   8.08297   8.11539   8.12376
 Alpha virt. eigenvalues --    8.15078   8.16609   8.16918   8.17906   8.21327
 Alpha virt. eigenvalues --    8.22868   8.23268   8.25484   8.27834   8.29096
 Alpha virt. eigenvalues --    8.31110   8.31289   8.34639   8.35731   8.37444
 Alpha virt. eigenvalues --    8.38716   8.41282   8.42963   8.44725   8.45936
 Alpha virt. eigenvalues --    8.46966   8.50021   8.50437   8.52104   8.54018
 Alpha virt. eigenvalues --    8.54642   8.58557   8.61390   8.62212   8.62676
 Alpha virt. eigenvalues --    8.65707   8.69299   8.70163   8.72106   8.74764
 Alpha virt. eigenvalues --    8.79586   8.79727   8.83642   8.84658   8.86875
 Alpha virt. eigenvalues --    8.87387   8.91305   8.93784   8.95025   8.96869
 Alpha virt. eigenvalues --    8.98838   9.01300   9.04237   9.04979   9.07376
 Alpha virt. eigenvalues --    9.08848   9.11778   9.15949   9.16598   9.17437
 Alpha virt. eigenvalues --    9.20391   9.22482   9.28184   9.32802   9.36439
 Alpha virt. eigenvalues --    9.41271   9.41840   9.46650   9.48151   9.51747
 Alpha virt. eigenvalues --    9.56591   9.57620   9.58491   9.65903   9.67184
 Alpha virt. eigenvalues --    9.71632   9.72937   9.77394   9.79385   9.88882
 Alpha virt. eigenvalues --    9.93532   9.96513  10.08003  10.09356  10.14038
 Alpha virt. eigenvalues --   10.21413  10.30600  10.33184  10.43578  10.46556
 Alpha virt. eigenvalues --   10.65254  10.72499  10.76890  10.87368  10.97359
 Alpha virt. eigenvalues --   11.13961  11.16887  11.27004  11.28673  11.42095
 Alpha virt. eigenvalues --   11.53012  11.67649  11.70048  11.73718  11.85096
 Alpha virt. eigenvalues --   11.90537  11.92706  11.99611  12.06496  12.39515
 Alpha virt. eigenvalues --   12.59892  12.65514  13.65028  29.22153  29.31278
 Alpha virt. eigenvalues --   29.56549  29.70497 148.91754 148.99258 149.27745
 Alpha virt. eigenvalues --  149.40263
          Condensed to atoms (all electrons):
               1          2          3          4          5          6
     1  C    5.025333   0.340289   0.376503   0.426651   0.395716  -0.061411
     2  C    0.340289   4.909862  -0.022927  -0.023856  -0.035557   0.356118
     3  H    0.376503  -0.022927   0.686408  -0.042592  -0.023631   0.008945
     4  H    0.426651  -0.023856  -0.042592   0.339522  -0.020932  -0.015053
     5  H    0.395716  -0.035557  -0.023631  -0.020932   0.617044   0.000517
     6  C   -0.061411   0.356118   0.008945  -0.015053   0.000517   4.723825
     7  H   -0.027824   0.452898  -0.003623  -0.005618   0.004611  -0.017944
     8  H   -0.029961   0.353534  -0.002037   0.008012  -0.003501  -0.021703
     9  C    0.006332  -0.056964  -0.000666   0.001086  -0.000063   0.360887
    10  H    0.002366  -0.026978  -0.000309   0.000302   0.000595   0.394634
    11  H   -0.010167  -0.041986   0.000283   0.003874   0.000758   0.385763
    12  H    0.000221  -0.010940  -0.000027   0.000020   0.000005  -0.022122
    13  H   -0.000850   0.010879   0.000055  -0.000064   0.000015  -0.049042
    14  H    0.000536   0.001154   0.000004   0.000034  -0.000018  -0.022322
               7          8          9         10         11         12
     1  C   -0.027824  -0.029961   0.006332   0.002366  -0.010167   0.000221
     2  C    0.452898   0.353534  -0.056964  -0.026978  -0.041986  -0.010940
     3  H   -0.003623  -0.002037  -0.000666  -0.000309   0.000283  -0.000027
     4  H   -0.005618   0.008012   0.001086   0.000302   0.003874   0.000020
     5  H    0.004611  -0.003501  -0.000063   0.000595   0.000758   0.000005
     6  C   -0.017944  -0.021703   0.360887   0.394634   0.385763  -0.022122
     7  H    0.424414  -0.027906  -0.013539   0.007310  -0.004933  -0.001962
     8  H   -0.027906   0.730403   0.000925  -0.005208   0.005856   0.003303
     9  C   -0.013539   0.000925   4.784946  -0.035901  -0.022767   0.462106
    10  H    0.007310  -0.005208  -0.035901   0.641682  -0.047688  -0.007590
    11  H   -0.004933   0.005856  -0.022767  -0.047688   0.729053   0.009162
    12  H   -0.001962   0.003303   0.462106  -0.007590   0.009162   0.540108
    13  H    0.000682  -0.000328   0.386012  -0.001408  -0.008663  -0.080918
    14  H    0.002341  -0.000302   0.349773   0.004350  -0.004228  -0.020308
              13         14
     1  C   -0.000850   0.000536
     2  C    0.010879   0.001154
     3  H    0.000055   0.000004
     4  H   -0.000064   0.000034
     5  H    0.000015  -0.000018
     6  C   -0.049042  -0.022322
     7  H    0.000682   0.002341
     8  H   -0.000328  -0.000302
     9  C    0.386012   0.349773
    10  H   -0.001408   0.004350
    11  H   -0.008663  -0.004228
    12  H   -0.080918  -0.020308
    13  H    0.711190  -0.004255
    14  H   -0.004255   0.662557
 Mulliken charges:
               1
     1  C   -0.443733
     2  C   -0.205529
     3  H    0.023614
     4  H    0.328612
     5  H    0.064442
     6  C   -0.021092
     7  H    0.211093
     8  H   -0.011090
     9  C   -0.222166
    10  H    0.073844
    11  H    0.005682
    12  H    0.128943
    13  H    0.036696
    14  H    0.030683
 Sum of Mulliken charges =   0.00000
 Mulliken charges with hydrogens summed into heavy atoms:
               1
     1  C   -0.027066
     2  C   -0.005525
     6  C    0.058435
     9  C   -0.025844
 Electronic spatial extent (au):  <R**2>=            444.9184
 Charge=              0.0000 electrons
 Dipole moment (field-independent basis, Debye):
    X=             -0.4840    Y=             -0.4095    Z=              0.0683  Tot=              0.6377
 Quadrupole moment (field-independent basis, Debye-Ang):
   XX=            -29.3250   YY=            -28.8844   ZZ=            -28.7302
   XY=             -0.8080   XZ=             -2.4538   YZ=             -1.4449
 Traceless Quadrupole moment (field-independent basis, Debye-Ang):
   XX=             -0.3452   YY=              0.0955   ZZ=              0.2497
   XY=             -0.8080   XZ=             -2.4538   YZ=             -1.4449
 Octapole moment (field-independent basis, Debye-Ang**2):
  XXX=             -3.9777  YYY=             -1.3029  ZZZ=             -0.0283  XYY=             -1.0930
  XXY=             -1.6758  XXZ=              3.6262  XZZ=              1.2873  YZZ=             -0.5953
  YYZ=             -0.2170  XYZ=              0.9232
 Hexadecapole moment (field-independent basis, Debye-Ang**3):
 XXXX=           -477.4227 YYYY=           -105.3787 ZZZZ=            -71.3186 XXXY=             -5.0826
 XXXZ=            -21.7772 YYYX=             -1.2445 YYYZ=             -3.2130 ZZZX=             -7.4114
 ZZZY=             -3.1928 XXYY=            -95.7107 XXZZ=            -88.0680 YYZZ=            -25.9202
 XXYZ=             -6.4127 YYXZ=             -0.4759 ZZXY=             -2.2889
 N-N= 1.287865381377D+02 E-N=-6.230625401700D+02  KE= 1.581923657670D+02
 Leave Link  601 at Wed Aug 26 14:38:38 2020, MaxMem=  2097152000 cpu:         1.2
 (Enter /opt/cluster/programs/g09/g09_d.01/g09/l9999.exe)
 1\1\GINC-NODE14\SP\RB2PLYPD3-FC\def2QZVP\C4H10\BOITTIER\26-Aug-2020\0\
 \#p B2PLYPD3/Def2QZVP\\butane_opt\\0,1\C,0,-3.964043,0.271865,-0.12253
 3\C,0,-2.726146,-0.643029,0.233683\H,0,-4.903009,-0.221056,-0.704783\H
 ,0,-3.751544,0.613079,-0.777771\H,0,-4.32647,1.004729,0.713198\C,0,-1.
 33925,0.255521,0.148137\H,0,-2.630338,-1.215786,-0.357101\H,0,-2.92468
 7,-1.523928,1.333694\C,0,-0.159983,-0.714389,-0.121945\H,0,-1.209751,0
 .815714,0.905765\H,0,-1.587342,1.071657,-0.819448\H,0,0.112331,-1.1732
 54,0.560299\H,0,0.65947,-0.148126,0.109942\H,0,-0.196573,-1.761734,-1.
 175879\\Version=ES64L-G09RevD.01\State=1-A\HF=-157.6845689\MP2=-157.93
 55864\RMSD=3.245e-09\PG=C01 [X(C4H10)]\\@


 IF YOU DON'T HAVE THE LAW - ARGUE THE FACTS.
 IF YOU DON'T HAVE THE FACTS - ARGUE THE LAW.
 IF YOU DON'T HAVE EITHER - POUND THE TABLE.
 Job cpu time:       0 days  1 hours 51 minutes 43.5 seconds.
 File lengths (MBytes):  RWF=    152 Int=      0 D2E=      0 Chk=     14 Scr=      1
 Normal termination of Gaussian 09 at Wed Aug 26 14:38:38 2020.
