 Entering Gaussian System, Link 0=/opt/cluster/programs/g09/g09_d.01/g09//g09
 Input=/home/boittier/MDCM/nms_sampling/butane_geom.xyz.dir/energies/butane_opt_978_energy.com
 Output=/scratch/boittier/butane_opt_978_energy/butane_opt_978_energy.out
 Initial command:
 /opt/cluster/programs/g09/g09_d.01/g09/l1.exe "/scratch/boittier/butane_opt_978_energy/Gau-104972.inp" -scrdir="/scratch/boittier/butane_opt_978_energy/"
 Entering Link 1 = /opt/cluster/programs/g09/g09_d.01/g09/l1.exe PID=    104973.
  
 Copyright (c) 1988,1990,1992,1993,1995,1998,2003,2009,2013,
            Gaussian, Inc.  All Rights Reserved.
  
 This is part of the Gaussian(R) 09 program.  It is based on
 the Gaussian(R) 03 system (copyright 2003, Gaussian, Inc.),
 the Gaussian(R) 98 system (copyright 1998, Gaussian, Inc.),
 the Gaussian(R) 94 system (copyright 1995, Gaussian, Inc.),
 the Gaussian 92(TM) system (copyright 1992, Gaussian, Inc.),
 the Gaussian 90(TM) system (copyright 1990, Gaussian, Inc.),
 the Gaussian 88(TM) system (copyright 1988, Gaussian, Inc.),
 the Gaussian 86(TM) system (copyright 1986, Carnegie Mellon
 University), and the Gaussian 82(TM) system (copyright 1983,
 Carnegie Mellon University). Gaussian is a federally registered
 trademark of Gaussian, Inc.
  
 This software contains proprietary and confidential information,
 including trade secrets, belonging to Gaussian, Inc.
  
 This software is provided under written license and may be
 used, copied, transmitted, or stored only in accord with that
 written license.
  
 The following legend is applicable only to US Government
 contracts under FAR:
  
                    RESTRICTED RIGHTS LEGEND
  
 Use, reproduction and disclosure by the US Government is
 subject to restrictions as set forth in subparagraphs (a)
 and (c) of the Commercial Computer Software - Restricted
 Rights clause in FAR 52.227-19.
  
 Gaussian, Inc.
 340 Quinnipiac St., Bldg. 40, Wallingford CT 06492
  
  
 ---------------------------------------------------------------
 Warning -- This program may not be used in any manner that
 competes with the business of Gaussian, Inc. or will provide
 assistance to any competitor of Gaussian, Inc.  The licensee
 of this program is prohibited from giving any competitor of
 Gaussian, Inc. access to this program.  By using this program,
 the user acknowledges that Gaussian, Inc. is engaged in the
 business of creating and licensing software in the field of
 computational chemistry and represents and warrants to the
 licensee that it is not a competitor of Gaussian, Inc. and that
 it will not use this program in any manner prohibited above.
 ---------------------------------------------------------------
  

 Cite this work as:
 Gaussian 09, Revision D.01,
 M. J. Frisch, G. W. Trucks, H. B. Schlegel, G. E. Scuseria, 
 M. A. Robb, J. R. Cheeseman, G. Scalmani, V. Barone, B. Mennucci, 
 G. A. Petersson, H. Nakatsuji, M. Caricato, X. Li, H. P. Hratchian, 
 A. F. Izmaylov, J. Bloino, G. Zheng, J. L. Sonnenberg, M. Hada, 
 M. Ehara, K. Toyota, R. Fukuda, J. Hasegawa, M. Ishida, T. Nakajima, 
 Y. Honda, O. Kitao, H. Nakai, T. Vreven, J. A. Montgomery, Jr., 
 J. E. Peralta, F. Ogliaro, M. Bearpark, J. J. Heyd, E. Brothers, 
 K. N. Kudin, V. N. Staroverov, T. Keith, R. Kobayashi, J. Normand, 
 K. Raghavachari, A. Rendell, J. C. Burant, S. S. Iyengar, J. Tomasi, 
 M. Cossi, N. Rega, J. M. Millam, M. Klene, J. E. Knox, J. B. Cross, 
 V. Bakken, C. Adamo, J. Jaramillo, R. Gomperts, R. E. Stratmann, 
 O. Yazyev, A. J. Austin, R. Cammi, C. Pomelli, J. W. Ochterski, 
 R. L. Martin, K. Morokuma, V. G. Zakrzewski, G. A. Voth, 
 P. Salvador, J. J. Dannenberg, S. Dapprich, A. D. Daniels, 
 O. Farkas, J. B. Foresman, J. V. Ortiz, J. Cioslowski, 
 and D. J. Fox, Gaussian, Inc., Wallingford CT, 2013.
 
 ******************************************
 Gaussian 09:  ES64L-G09RevD.01 24-Apr-2013
                26-Aug-2020 
 ******************************************
 %chk=/home/boittier/MDCM/nms_sampling/butane_geom.xyz.dir/butane_opt_978.chk
 %nproc=8
 Will use up to    8 processors via shared memory.
 %mem=16000MB
 --------------------
 #p B2PLYPD3/Def2QZVP
 --------------------
 1/38=1/1;
 2/12=2,17=6,18=5,40=1/2;
 3/5=45,7=101,11=9,16=1,25=1,30=1,74=-60/1,2,3;
 4//1;
 5/5=2,38=5/2;
 8/10=1/1;
 9/16=-3/6;
 6/7=2,8=2,9=2,10=2/1;
 99/5=1,9=1/99;
 Leave Link    1 at Wed Aug 26 23:39:41 2020, MaxMem=  2097152000 cpu:         0.3
 (Enter /opt/cluster/programs/g09/g09_d.01/g09/l101.exe)
 ----------
 butane_opt
 ----------
 Symbolic Z-matrix:
 Charge =  0 Multiplicity = 1
 C                    -3.93932   0.30655   0.0246 
 C                    -2.70158  -0.64103   0.02422 
 H                    -4.85598  -0.30651   0.37183 
 H                    -4.05996   1.24228  -1.16713 
 H                    -4.03409   0.73975   0.81141 
 C                    -1.40972   0.07868   0.00445 
 H                    -2.86122  -1.37804  -0.94311 
 H                    -2.27694  -1.225     0.89234 
 C                    -0.15582  -0.61952   0.06289 
 H                    -1.43152   0.82991   1.00435 
 H                    -1.33907   0.79186  -0.88041 
 H                    -0.40472  -1.20327   0.79749 
 H                     0.85659   0.09046   0.10314 
 H                    -0.14901  -1.53051  -1.02247 
 
 NAtoms=     14 NQM=       14 NQMF=       0 NMMI=      0 NMMIF=      0
                NMic=       0 NMicF=      0.
                    Isotopes and Nuclear Properties:
 (Nuclear quadrupole moments (NQMom) in fm**2, nuclear magnetic moments (NMagM)
  in nuclear magnetons)

  Atom         1           2           3           4           5           6           7           8           9          10
 IAtWgt=          12          12           1           1           1          12           1           1          12           1
 AtmWgt=  12.0000000  12.0000000   1.0078250   1.0078250   1.0078250  12.0000000   1.0078250   1.0078250  12.0000000   1.0078250
 NucSpn=           0           0           1           1           1           0           1           1           0           1
 AtZEff=   0.0000000   0.0000000   0.0000000   0.0000000   0.0000000   0.0000000   0.0000000   0.0000000   0.0000000   0.0000000
 NQMom=    0.0000000   0.0000000   0.0000000   0.0000000   0.0000000   0.0000000   0.0000000   0.0000000   0.0000000   0.0000000
 NMagM=    0.0000000   0.0000000   2.7928460   2.7928460   2.7928460   0.0000000   2.7928460   2.7928460   0.0000000   2.7928460
 AtZNuc=   6.0000000   6.0000000   1.0000000   1.0000000   1.0000000   6.0000000   1.0000000   1.0000000   6.0000000   1.0000000

  Atom        11          12          13          14
 IAtWgt=           1           1           1           1
 AtmWgt=   1.0078250   1.0078250   1.0078250   1.0078250
 NucSpn=           1           1           1           1
 AtZEff=   0.0000000   0.0000000   0.0000000   0.0000000
 NQMom=    0.0000000   0.0000000   0.0000000   0.0000000
 NMagM=    2.7928460   2.7928460   2.7928460   2.7928460
 AtZNuc=   1.0000000   1.0000000   1.0000000   1.0000000
 Leave Link  101 at Wed Aug 26 23:39:41 2020, MaxMem=  2097152000 cpu:         0.5
 (Enter /opt/cluster/programs/g09/g09_d.01/g09/l202.exe)
                          Input orientation:                          
 ---------------------------------------------------------------------
 Center     Atomic      Atomic             Coordinates (Angstroms)
 Number     Number       Type             X           Y           Z
 ---------------------------------------------------------------------
      1          6           0       -3.939324    0.306547    0.024602
      2          6           0       -2.701578   -0.641032    0.024219
      3          1           0       -4.855983   -0.306510    0.371833
      4          1           0       -4.059963    1.242283   -1.167129
      5          1           0       -4.034093    0.739747    0.811412
      6          6           0       -1.409723    0.078683    0.004454
      7          1           0       -2.861221   -1.378039   -0.943113
      8          1           0       -2.276941   -1.225002    0.892337
      9          6           0       -0.155821   -0.619515    0.062885
     10          1           0       -1.431523    0.829907    1.004349
     11          1           0       -1.339072    0.791858   -0.880410
     12          1           0       -0.404719   -1.203270    0.797490
     13          1           0        0.856590    0.090456    0.103144
     14          1           0       -0.149011   -1.530509   -1.022466
 ---------------------------------------------------------------------
                    Distance matrix (angstroms):
                    1          2          3          4          5
     1  C    0.000000
     2  C    1.558820   0.000000
     3  H    1.156145   2.207759   0.000000
     4  H    1.519993   2.609865   2.323965   0.000000
     5  H    0.903169   2.074083   1.401209   2.041528   0.000000
     6  C    2.539923   1.478942   3.487126   3.122554   2.824094
     7  H    2.221848   1.226538   2.618460   2.890199   2.989817
     8  H    2.421182   1.129144   2.786756   3.675332   2.637114
     9  C    3.895376   2.546142   4.720693   4.496838   4.177186
    10  H    2.742786   2.176547   3.663120   3.434249   2.611269
    11  H    2.795690   2.174385   3.891425   2.772785   3.182470
    12  H    3.920502   2.487895   4.560605   4.816769   4.116778
    13  H    4.801422   3.633437   5.732649   5.206995   4.984175
    14  H    4.340230   2.898675   5.059430   4.796337   4.859119
                    6          7          8          9         10
     6  C    0.000000
     7  H    2.264237   0.000000
     8  H    1.799999   1.932273   0.000000
     9  C    1.436372   2.984389   2.356641   0.000000
    10  H    1.250841   3.272869   2.224844   2.148161   0.000000
    11  H    1.138681   2.651287   2.844285   2.069266   1.887409
    12  H    1.811724   3.015733   1.874749   0.970755   2.287122
    13  H    2.268491   4.131979   3.488878   1.237197   2.567960
    14  H    2.287675   2.717651   2.878870   1.417019   3.365172
                   11         12         13         14
    11  H    0.000000
    12  H    2.769278   0.000000
    13  H    2.506048   1.935651   0.000000
    14  H    2.613391   1.866738   2.214895   0.000000
 Stoichiometry    C4H10
 Framework group  C1[X(C4H10)]
 Deg. of freedom    36
 Full point group                 C1      NOp   1
 Largest Abelian subgroup         C1      NOp   1
 Largest concise Abelian subgroup C1      NOp   1
                         Standard orientation:                         
 ---------------------------------------------------------------------
 Center     Atomic      Atomic             Coordinates (Angstroms)
 Number     Number       Type             X           Y           Z
 ---------------------------------------------------------------------
      1          6           0       -1.950207   -0.155508   -0.015820
      2          6           0       -0.556884    0.543205    0.003450
      3          1           0       -2.734410    0.624941   -0.351374
      4          1           0       -2.248751   -1.074611    1.157423
      5          1           0       -2.121299   -0.548206   -0.810949
      6          6           0        0.577201   -0.406050    0.009657
      7          1           0       -0.579511    1.278499    0.984892
      8          1           0       -0.026910    1.053711   -0.852983
      9          6           0        1.939916    0.045839   -0.034725
     10          1           0        0.419065   -1.120691   -1.004682
     11          1           0        0.509475   -1.136565    0.880493
     12          1           0        1.807708    0.679782   -0.757913
     13          1           0        2.801569   -0.840346   -0.088440
     14          1           0        2.112912    0.918571    1.068160
 ---------------------------------------------------------------------
 Rotational constants (GHZ):     22.5101067      3.6208740      3.4327499
 Leave Link  202 at Wed Aug 26 23:39:41 2020, MaxMem=  2097152000 cpu:         0.0
 (Enter /opt/cluster/programs/g09/g09_d.01/g09/l301.exe)
 Standard basis: def2QZVP (5D, 7F)
 Ernie: Thresh=  0.10000D-02 Tol=  0.10000D-05 Strict=F.
 There are   638 symmetry adapted cartesian basis functions of A   symmetry.
 There are   528 symmetry adapted basis functions of A   symmetry.
   528 basis functions,   748 primitive gaussians,   638 cartesian basis functions
    17 alpha electrons       17 beta electrons
       nuclear repulsion energy       129.6845384164 Hartrees.
 IExCor=  419 DFT=T Ex+Corr=B2PLYPD3 ExCW=0 ScaHFX=  0.530000
 ScaDFX=  0.470000  0.470000  0.730000  0.730000 ScalE2=  0.270000  0.270000
 IRadAn=      0 IRanWt=     -1 IRanGd=            0 ICorTp=0 IEmpDi=141
 NAtoms=   14 NActive=   14 NUniq=   14 SFac= 1.00D+00 NAtFMM=   60 NAOKFM=F Big=F
 Integral buffers will be    131072 words long.
 Regular integral format.
 Two-electron integral symmetry is turned on.
 R6Disp:  Grimme-D3(BJ) Dispersion energy=       -0.0070743567 Hartrees.
 Nuclear repulsion after empirical dispersion term =      129.6774640597 Hartrees.
 Leave Link  301 at Wed Aug 26 23:39:41 2020, MaxMem=  2097152000 cpu:         0.4
 (Enter /opt/cluster/programs/g09/g09_d.01/g09/l302.exe)
 NPDir=0 NMtPBC=     1 NCelOv=     1 NCel=       1 NClECP=     1 NCelD=      1
         NCelK=      1 NCelE2=     1 NClLst=     1 CellRange=     0.0.
 One-electron integrals computed using PRISM.
   1 Symmetry operations used in ECPInt.
 ECPInt:  NShTT=   14196 NPrTT=   30597 LenC2=   13861 LenP2D=   25924.
 LDataN:  DoStor=T MaxTD1= 8 Len=  415
 NBasis=   528 RedAO= T EigKep=  3.91D-05  NBF=   528
 NBsUse=   528 1.00D-06 EigRej= -1.00D+00 NBFU=   528
 Precomputing XC quadrature grid using
 IXCGrd= 4 IRadAn=           0 IRanWt=          -1 IRanGd=           0 AccXCQ= 0.00D+00.
 Generated NRdTot=       0 NPtTot=           0 NUsed=           0 NTot=          32
 NSgBfM=   638   638   638   638   638 MxSgAt=    14 MxSgA2=    14.
 Leave Link  302 at Wed Aug 26 23:39:42 2020, MaxMem=  2097152000 cpu:         4.7
 (Enter /opt/cluster/programs/g09/g09_d.01/g09/l303.exe)
 DipDrv:  MaxL=1.
 Leave Link  303 at Wed Aug 26 23:39:42 2020, MaxMem=  2097152000 cpu:         0.5
 (Enter /opt/cluster/programs/g09/g09_d.01/g09/l401.exe)
 ExpMin= 7.60D-02 ExpMax= 6.70D+04 ExpMxC= 6.47D+02 IAcc=2 IRadAn=         4 AccDes= 0.00D+00
 Harris functional with IExCor=  419 and IRadAn=       4 diagonalized for initial guess.
 HarFok:  IExCor=  419 AccDes= 0.00D+00 IRadAn=         4 IDoV= 1 UseB2=F ITyADJ=14
 ICtDFT=  3500011 ScaDFX=  1.000000  1.000000  1.000000  1.000000
 FoFCou: FMM=F IPFlag=           0 FMFlag=      100000 FMFlg1=           0
         NFxFlg=           0 DoJE=T BraDBF=F KetDBF=T FulRan=T
         wScrn=  0.000000 ICntrl=     500 IOpCl=  0 I1Cent=   200000004 NGrid=           0
         NMat0=    1 NMatS0=      1 NMatT0=    0 NMatD0=    1 NMtDS0=    0 NMtDT0=    0
 Petite list used in FoFCou.
 Harris En= -158.377084522774    
 JPrj=0 DoOrth=F DoCkMO=F.
 Leave Link  401 at Wed Aug 26 23:39:44 2020, MaxMem=  2097152000 cpu:        14.6
 (Enter /opt/cluster/programs/g09/g09_d.01/g09/l502.exe)
 Closed shell SCF:
 Using DIIS extrapolation, IDIIS=  1040.
 Integral symmetry usage will be decided dynamically.
 IVT=     1249338 IEndB=     1249338 NGot=  2097152000 MDV=  2096326985
 LenX=  2096326985 LenY=  2095919303
 Requested convergence on RMS density matrix=1.00D-08 within 128 cycles.
 Requested convergence on MAX density matrix=1.00D-06.
 Requested convergence on             energy=1.00D-06.
 No special actions if energy rises.
 Fock matrices will be formed incrementally for  20 cycles.
 Integral accuracy reduced to 1.0D-05 until final iterations.

 Cycle   1  Pass 0  IDiag  1:
 FoFJK:  IHMeth= 1 ICntrl=       0 DoSepK=F KAlg= 0 I1Cent=   0 FoldK=F
 IRaf= 940000000 NMat=   1 IRICut=       1 DoRegI=T DoRafI=F ISym2E= 0.
 FoFCou: FMM=F IPFlag=           0 FMFlag=      100000 FMFlg1=           0
         NFxFlg=           0 DoJE=F BraDBF=F KetDBF=F FulRan=T
         wScrn=  0.000000 ICntrl=       0 IOpCl=  0 I1Cent=           0 NGrid=           0
         NMat0=    1 NMatS0=      1 NMatT0=    0 NMatD0=    1 NMtDS0=    0 NMtDT0=    0
 Symmetry not used in FoFCou.
 E= -157.603935234770    
 DIIS: error= 2.57D-02 at cycle   1 NSaved=   1.
 NSaved= 1 IEnMin= 1 EnMin= -157.603935234770     IErMin= 1 ErrMin= 2.57D-02
 ErrMax= 2.57D-02  0.00D+00 EMaxC= 1.00D-01 BMatC= 3.42D-01 BMatP= 3.42D-01
 IDIUse=3 WtCom= 7.43D-01 WtEn= 2.57D-01
 Coeff-Com:  0.100D+01
 Coeff-En:   0.100D+01
 Coeff:      0.100D+01
 Gap=     0.334 Goal=   None    Shift=    0.000
 GapD=    0.334 DampG=1.000 DampE=0.500 DampFc=0.5000 IDamp=-1.
 Damping current iteration by 5.00D-01
 RMSDP=1.11D-03 MaxDP=7.74D-02              OVMax= 2.13D-01

 Cycle   2  Pass 0  IDiag  1:
 RMSU=  5.33D-04    CP:  9.47D-01
 E= -157.743352088104     Delta-E=       -0.139416853333 Rises=F Damp=T
 DIIS: error= 5.85D-03 at cycle   2 NSaved=   2.
 NSaved= 2 IEnMin= 2 EnMin= -157.743352088104     IErMin= 2 ErrMin= 5.85D-03
 ErrMax= 5.85D-03  0.00D+00 EMaxC= 1.00D-01 BMatC= 3.09D-02 BMatP= 3.42D-01
 IDIUse=3 WtCom= 9.42D-01 WtEn= 5.85D-02
 Coeff-Com: -0.108D+00 0.111D+01
 Coeff-En:   0.000D+00 0.100D+01
 Coeff:     -0.102D+00 0.110D+01
 Gap=     0.451 Goal=   None    Shift=    0.000
 RMSDP=2.99D-04 MaxDP=1.69D-02 DE=-1.39D-01 OVMax= 1.25D-01

 Cycle   3  Pass 0  IDiag  1:
 RMSU=  2.68D-04    CP:  9.37D-01  7.58D-01
 E= -157.883541631045     Delta-E=       -0.140189542941 Rises=F Damp=F
 DIIS: error= 4.59D-03 at cycle   3 NSaved=   3.
 NSaved= 3 IEnMin= 3 EnMin= -157.883541631045     IErMin= 3 ErrMin= 4.59D-03
 ErrMax= 4.59D-03  0.00D+00 EMaxC= 1.00D-01 BMatC= 3.53D-03 BMatP= 3.09D-02
 IDIUse=3 WtCom= 9.54D-01 WtEn= 4.59D-02
 Coeff-Com: -0.100D+00 0.199D+00 0.901D+00
 Coeff-En:   0.000D+00 0.000D+00 0.100D+01
 Coeff:     -0.958D-01 0.190D+00 0.906D+00
 Gap=     0.378 Goal=   None    Shift=    0.000
 RMSDP=7.08D-05 MaxDP=5.55D-03 DE=-1.40D-01 OVMax= 1.54D-02

 Cycle   4  Pass 0  IDiag  1:
 RMSU=  5.27D-05    CP:  9.31D-01  8.39D-01  1.04D+00
 E= -157.887183171969     Delta-E=       -0.003641540924 Rises=F Damp=F
 DIIS: error= 8.93D-04 at cycle   4 NSaved=   4.
 NSaved= 4 IEnMin= 4 EnMin= -157.887183171969     IErMin= 4 ErrMin= 8.93D-04
 ErrMax= 8.93D-04  0.00D+00 EMaxC= 1.00D-01 BMatC= 2.81D-04 BMatP= 3.53D-03
 IDIUse=3 WtCom= 9.91D-01 WtEn= 8.93D-03
 Coeff-Com: -0.319D-01 0.459D-01 0.342D+00 0.644D+00
 Coeff-En:   0.000D+00 0.000D+00 0.000D+00 0.100D+01
 Coeff:     -0.317D-01 0.455D-01 0.339D+00 0.647D+00
 Gap=     0.380 Goal=   None    Shift=    0.000
 RMSDP=2.03D-05 MaxDP=1.47D-03 DE=-3.64D-03 OVMax= 3.83D-03

 Cycle   5  Pass 0  IDiag  1:
 RMSU=  1.53D-05    CP:  9.32D-01  8.23D-01  1.07D+00  8.81D-01
 E= -157.887446762486     Delta-E=       -0.000263590517 Rises=F Damp=F
 DIIS: error= 1.93D-04 at cycle   5 NSaved=   5.
 NSaved= 5 IEnMin= 5 EnMin= -157.887446762486     IErMin= 5 ErrMin= 1.93D-04
 ErrMax= 1.93D-04  0.00D+00 EMaxC= 1.00D-01 BMatC= 1.40D-05 BMatP= 2.81D-04
 IDIUse=3 WtCom= 9.98D-01 WtEn= 1.93D-03
 Coeff-Com: -0.734D-03-0.371D-02 0.318D-01 0.199D+00 0.774D+00
 Coeff-En:   0.000D+00 0.000D+00 0.000D+00 0.000D+00 0.100D+01
 Coeff:     -0.732D-03-0.370D-02 0.318D-01 0.198D+00 0.774D+00
 Gap=     0.380 Goal=   None    Shift=    0.000
 RMSDP=5.65D-06 MaxDP=3.82D-04 DE=-2.64D-04 OVMax= 9.12D-04

 Initial convergence to 1.0D-05 achieved.  Increase integral accuracy.
 Cycle   6  Pass 1  IDiag  1:
 E= -157.887519174183     Delta-E=       -0.000072411697 Rises=F Damp=F
 DIIS: error= 5.51D-05 at cycle   1 NSaved=   1.
 NSaved= 1 IEnMin= 1 EnMin= -157.887519174183     IErMin= 1 ErrMin= 5.51D-05
 ErrMax= 5.51D-05  0.00D+00 EMaxC= 1.00D-01 BMatC= 7.67D-07 BMatP= 7.67D-07
 IDIUse=1 WtCom= 1.00D+00 WtEn= 0.00D+00
 Coeff-Com:  0.100D+01
 Coeff:      0.100D+01
 Gap=     0.380 Goal=   None    Shift=    0.000
 RMSDP=5.65D-06 MaxDP=3.82D-04 DE=-7.24D-05 OVMax= 2.40D-04

 Cycle   7  Pass 1  IDiag  1:
 RMSU=  2.34D-05    CP:  1.00D+00
 E= -157.887519752797     Delta-E=       -0.000000578613 Rises=F Damp=F
 DIIS: error= 1.79D-05 at cycle   2 NSaved=   2.
 NSaved= 2 IEnMin= 2 EnMin= -157.887519752797     IErMin= 2 ErrMin= 1.79D-05
 ErrMax= 1.79D-05  0.00D+00 EMaxC= 1.00D-01 BMatC= 1.04D-07 BMatP= 7.67D-07
 IDIUse=1 WtCom= 1.00D+00 WtEn= 0.00D+00
 Coeff-Com:  0.178D+00 0.822D+00
 Coeff:      0.178D+00 0.822D+00
 Gap=     0.380 Goal=   None    Shift=    0.000
 RMSDP=8.65D-07 MaxDP=4.21D-05 DE=-5.79D-07 OVMax= 1.16D-04

 Cycle   8  Pass 1  IDiag  1:
 RMSU=  5.74D-07    CP:  1.00D+00  1.03D+00
 E= -157.887519836228     Delta-E=       -0.000000083432 Rises=F Damp=F
 DIIS: error= 7.60D-06 at cycle   3 NSaved=   3.
 NSaved= 3 IEnMin= 3 EnMin= -157.887519836228     IErMin= 3 ErrMin= 7.60D-06
 ErrMax= 7.60D-06  0.00D+00 EMaxC= 1.00D-01 BMatC= 3.39D-08 BMatP= 1.04D-07
 IDIUse=1 WtCom= 1.00D+00 WtEn= 0.00D+00
 Coeff-Com: -0.221D-01 0.348D+00 0.674D+00
 Coeff:     -0.221D-01 0.348D+00 0.674D+00
 Gap=     0.380 Goal=   None    Shift=    0.000
 RMSDP=3.04D-07 MaxDP=1.55D-05 DE=-8.34D-08 OVMax= 4.23D-05

 Cycle   9  Pass 1  IDiag  1:
 RMSU=  2.29D-07    CP:  1.00D+00  1.04D+00  8.77D-01
 E= -157.887519871414     Delta-E=       -0.000000035185 Rises=F Damp=F
 DIIS: error= 1.54D-06 at cycle   4 NSaved=   4.
 NSaved= 4 IEnMin= 4 EnMin= -157.887519871414     IErMin= 4 ErrMin= 1.54D-06
 ErrMax= 1.54D-06  0.00D+00 EMaxC= 1.00D-01 BMatC= 6.55D-10 BMatP= 3.39D-08
 IDIUse=1 WtCom= 1.00D+00 WtEn= 0.00D+00
 Coeff-Com: -0.129D-01 0.334D-01 0.135D+00 0.845D+00
 Coeff:     -0.129D-01 0.334D-01 0.135D+00 0.845D+00
 Gap=     0.380 Goal=   None    Shift=    0.000
 RMSDP=6.07D-08 MaxDP=3.05D-06 DE=-3.52D-08 OVMax= 1.10D-05

 Cycle  10  Pass 1  IDiag  1:
 RMSU=  4.76D-08    CP:  1.00D+00  1.04D+00  9.15D-01  1.12D+00
 E= -157.887519872347     Delta-E=       -0.000000000933 Rises=F Damp=F
 DIIS: error= 5.16D-07 at cycle   5 NSaved=   5.
 NSaved= 5 IEnMin= 5 EnMin= -157.887519872347     IErMin= 5 ErrMin= 5.16D-07
 ErrMax= 5.16D-07  0.00D+00 EMaxC= 1.00D-01 BMatC= 8.58D-11 BMatP= 6.55D-10
 IDIUse=1 WtCom= 1.00D+00 WtEn= 0.00D+00
 Coeff-Com: -0.694D-03-0.305D-01-0.435D-01 0.214D+00 0.861D+00
 Coeff:     -0.694D-03-0.305D-01-0.435D-01 0.214D+00 0.861D+00
 Gap=     0.380 Goal=   None    Shift=    0.000
 RMSDP=2.37D-08 MaxDP=1.30D-06 DE=-9.33D-10 OVMax= 3.70D-06

 Cycle  11  Pass 1  IDiag  1:
 RMSU=  1.40D-08    CP:  1.00D+00  1.04D+00  9.27D-01  1.20D+00  1.06D+00
 E= -157.887519872459     Delta-E=       -0.000000000112 Rises=F Damp=F
 DIIS: error= 1.21D-07 at cycle   6 NSaved=   6.
 NSaved= 6 IEnMin= 6 EnMin= -157.887519872459     IErMin= 6 ErrMin= 1.21D-07
 ErrMax= 1.21D-07  0.00D+00 EMaxC= 1.00D-01 BMatC= 8.69D-12 BMatP= 8.58D-11
 IDIUse=1 WtCom= 1.00D+00 WtEn= 0.00D+00
 Coeff-Com:  0.545D-03-0.140D-01-0.257D-01 0.329D-01 0.333D+00 0.673D+00
 Coeff:      0.545D-03-0.140D-01-0.257D-01 0.329D-01 0.333D+00 0.673D+00
 Gap=     0.380 Goal=   None    Shift=    0.000
 RMSDP=4.40D-09 MaxDP=2.54D-07 DE=-1.12D-10 OVMax= 7.24D-07

 SCF Done:  E(RB2PLYPD3) =  -157.887519872     A.U. after   11 cycles
            NFock= 11  Conv=0.44D-08     -V/T= 2.0058
 KE= 1.569829960180D+02 PE=-6.242649106142D+02 EE= 1.797169306641D+02
 Leave Link  502 at Wed Aug 26 23:45:29 2020, MaxMem=  2097152000 cpu:      2746.9
 (Enter /opt/cluster/programs/g09/g09_d.01/g09/l801.exe)
 DoSCS=T DFT=T ScalE2(SS,OS)=  0.270000  0.270000
 ExpMin= 7.60D-02 ExpMax= 6.70D+04 ExpMxC= 6.47D+02 IAcc=3 IRadAn=         5 AccDes= 0.00D+00
 HarFok:  IExCor=  205 AccDes= 0.00D+00 IRadAn=         5 IDoV=-2 UseB2=F ITyADJ=14
 ICtDFT= 12500011 ScaDFX=  1.000000  1.000000  1.000000  1.000000
 DSYEVD-2 returned Info=         115 IAlg= 4 N=    57 NDim=    57 NE2=    36777324 trying  DSYEV.
 Largest valence mixing into a core orbital is  1.16D-04
 Largest core mixing into a valence orbital is  1.85D-05
 Range of M.O.s used for correlation:     5   528
 NBasis=   528 NAE=    17 NBE=    17 NFC=     4 NFV=     0
 NROrb=    524 NOA=    13 NOB=    13 NVA=   511 NVB=   511

 **** Warning!!: The largest alpha MO coefficient is  0.25908577D+02

 Leave Link  801 at Wed Aug 26 23:45:29 2020, MaxMem=  2097152000 cpu:         1.0
 (Enter /opt/cluster/programs/g09/g09_d.01/g09/l906.exe)
 DoSCS=T DFT=T ScalE2(SS,OS)=  0.270000  0.270000
 FulOut=F Deriv=F AODrv=F NAtomX=    14
   MMem=         463  MDisk=          13 MDiskD=          13
  W3Min=     4238234 MinDsk=     6904766 NBas6D=         638
 NBas2D=      205689    NTT=      203841    LW2=     4508827
    MDV=  2095903408 MDiskM=        7293 NBas2p=      189128
 Fully direct method using O(OVN) memory.
 IMap=   1   2   3   4   5   6   7   8   9  10  11  12  13
 JobTyp=1 Pass  1:  I=   1 to  13 NPSUse=  8 ParTrn=T ParDer=T DoDerP=F.
 Spin components of T(2) and E(2):
     alpha-alpha T2 =       0.4382074071D-01 E2=     -0.2702257510D-01
     alpha-beta  T2 =       0.3018226502D+00 E2=     -0.2006310941D+00
     beta-beta   T2 =       0.4382074071D-01 E2=     -0.2702257510D-01
 The integrals were generated   1 times.
 E2(B2PLYPD3) =    -0.2546762443D+00 E(B2PLYPD3) =    -0.15814219611674D+03
 Leave Link  906 at Wed Aug 26 23:51:21 2020, MaxMem=  2097152000 cpu:      2804.3
 (Enter /opt/cluster/programs/g09/g09_d.01/g09/l601.exe)
 Copying SCF densities to generalized density rwf, IOpCl= 0 IROHF=0.

 **********************************************************************

            Population analysis using the SCF density.

 **********************************************************************

 Orbital symmetries:
       Occupied  (A) (A) (A) (A) (A) (A) (A) (A) (A) (A) (A) (A)
                 (A) (A) (A) (A) (A)
       Virtual   (A) (A) (A) (A) (A) (A) (A) (A) (A) (A) (A) (A)
                 (A) (A) (A) (A) (A) (A) (A) (A) (A) (A) (A) (A)
                 (A) (A) (A) (A) (A) (A) (A) (A) (A) (A) (A) (A)
                 (A) (A) (A) (A) (A) (A) (A) (A) (A) (A) (A) (A)
                 (A) (A) (A) (A) (A) (A) (A) (A) (A) (A) (A) (A)
                 (A) (A) (A) (A) (A) (A) (A) (A) (A) (A) (A) (A)
                 (A) (A) (A) (A) (A) (A) (A) (A) (A) (A) (A) (A)
                 (A) (A) (A) (A) (A) (A) (A) (A) (A) (A) (A) (A)
                 (A) (A) (A) (A) (A) (A) (A) (A) (A) (A) (A) (A)
                 (A) (A) (A) (A) (A) (A) (A) (A) (A) (A) (A) (A)
                 (A) (A) (A) (A) (A) (A) (A) (A) (A) (A) (A) (A)
                 (A) (A) (A) (A) (A) (A) (A) (A) (A) (A) (A) (A)
                 (A) (A) (A) (A) (A) (A) (A) (A) (A) (A) (A) (A)
                 (A) (A) (A) (A) (A) (A) (A) (A) (A) (A) (A) (A)
                 (A) (A) (A) (A) (A) (A) (A) (A) (A) (A) (A) (A)
                 (A) (A) (A) (A) (A) (A) (A) (A) (A) (A) (A) (A)
                 (A) (A) (A) (A) (A) (A) (A) (A) (A) (A) (A) (A)
                 (A) (A) (A) (A) (A) (A) (A) (A) (A) (A) (A) (A)
                 (A) (A) (A) (A) (A) (A) (A) (A) (A) (A) (A) (A)
                 (A) (A) (A) (A) (A) (A) (A) (A) (A) (A) (A) (A)
                 (A) (A) (A) (A) (A) (A) (A) (A) (A) (A) (A) (A)
                 (A) (A) (A) (A) (A) (A) (A) (A) (A) (A) (A) (A)
                 (A) (A) (A) (A) (A) (A) (A) (A) (A) (A) (A) (A)
                 (A) (A) (A) (A) (A) (A) (A) (A) (A) (A) (A) (A)
                 (A) (A) (A) (A) (A) (A) (A) (A) (A) (A) (A) (A)
                 (A) (A) (A) (A) (A) (A) (A) (A) (A) (A) (A) (A)
                 (A) (A) (A) (A) (A) (A) (A) (A) (A) (A) (A) (A)
                 (A) (A) (A) (A) (A) (A) (A) (A) (A) (A) (A) (A)
                 (A) (A) (A) (A) (A) (A) (A) (A) (A) (A) (A) (A)
                 (A) (A) (A) (A) (A) (A) (A) (A) (A) (A) (A) (A)
                 (A) (A) (A) (A) (A) (A) (A) (A) (A) (A) (A) (A)
                 (A) (A) (A) (A) (A) (A) (A) (A) (A) (A) (A) (A)
                 (A) (A) (A) (A) (A) (A) (A) (A) (A) (A) (A) (A)
                 (A) (A) (A) (A) (A) (A) (A) (A) (A) (A) (A) (A)
                 (A) (A) (A) (A) (A) (A) (A) (A) (A) (A) (A) (A)
                 (A) (A) (A) (A) (A) (A) (A) (A) (A) (A) (A) (A)
                 (A) (A) (A) (A) (A) (A) (A) (A) (A) (A) (A) (A)
                 (A) (A) (A) (A) (A) (A) (A) (A) (A) (A) (A) (A)
                 (A) (A) (A) (A) (A) (A) (A) (A) (A) (A) (A) (A)
                 (A) (A) (A) (A) (A) (A) (A) (A) (A) (A) (A) (A)
                 (A) (A) (A) (A) (A) (A) (A) (A) (A) (A) (A) (A)
                 (A) (A) (A) (A) (A) (A) (A) (A) (A) (A) (A) (A)
                 (A) (A) (A) (A) (A) (A) (A)
 The electronic state is 1-A.
 Alpha  occ. eigenvalues --  -10.63426 -10.63276 -10.63062 -10.62058  -0.93586
 Alpha  occ. eigenvalues --   -0.84679  -0.74185  -0.64232  -0.55718  -0.49425
 Alpha  occ. eigenvalues --   -0.48080  -0.46564  -0.40555  -0.39629  -0.38904
 Alpha  occ. eigenvalues --   -0.35776  -0.34300
 Alpha virt. eigenvalues --    0.03717   0.05081   0.06777   0.07528   0.10022
 Alpha virt. eigenvalues --    0.10294   0.11115   0.12818   0.13354   0.15020
 Alpha virt. eigenvalues --    0.15483   0.16162   0.18560   0.20023   0.20632
 Alpha virt. eigenvalues --    0.21738   0.22554   0.24474   0.26544   0.26931
 Alpha virt. eigenvalues --    0.28595   0.29202   0.29802   0.31372   0.32339
 Alpha virt. eigenvalues --    0.33854   0.35383   0.36288   0.36568   0.38236
 Alpha virt. eigenvalues --    0.38623   0.42838   0.44019   0.44413   0.45712
 Alpha virt. eigenvalues --    0.47225   0.49785   0.53015   0.55554   0.57014
 Alpha virt. eigenvalues --    0.58859   0.60450   0.62273   0.63881   0.65069
 Alpha virt. eigenvalues --    0.66115   0.67974   0.68636   0.69998   0.70529
 Alpha virt. eigenvalues --    0.73707   0.74633   0.75034   0.76909   0.78089
 Alpha virt. eigenvalues --    0.78860   0.81202   0.82431   0.83333   0.85934
 Alpha virt. eigenvalues --    0.86876   0.87729   0.89085   0.89774   0.91126
 Alpha virt. eigenvalues --    0.92567   0.93621   0.95115   0.95855   0.98040
 Alpha virt. eigenvalues --    0.98278   0.98745   0.99653   1.01074   1.01586
 Alpha virt. eigenvalues --    1.02647   1.03772   1.05580   1.06798   1.08779
 Alpha virt. eigenvalues --    1.10901   1.12726   1.14671   1.15457   1.16568
 Alpha virt. eigenvalues --    1.19024   1.20729   1.21310   1.23090   1.24848
 Alpha virt. eigenvalues --    1.28301   1.30298   1.33951   1.34230   1.36598
 Alpha virt. eigenvalues --    1.36971   1.38296   1.40114   1.41830   1.44462
 Alpha virt. eigenvalues --    1.45171   1.49484   1.52243   1.53297   1.55632
 Alpha virt. eigenvalues --    1.57694   1.60774   1.65788   1.68980   1.70874
 Alpha virt. eigenvalues --    1.77695   1.80571   1.84287   1.86375   1.86995
 Alpha virt. eigenvalues --    1.89062   1.90422   1.92489   1.93950   1.95889
 Alpha virt. eigenvalues --    1.98719   2.00269   2.01514   2.01938   2.02767
 Alpha virt. eigenvalues --    2.05036   2.05780   2.06827   2.09361   2.10381
 Alpha virt. eigenvalues --    2.11834   2.13345   2.13903   2.15661   2.16540
 Alpha virt. eigenvalues --    2.17315   2.17925   2.19204   2.22475   2.23273
 Alpha virt. eigenvalues --    2.24246   2.25109   2.25591   2.27434   2.28123
 Alpha virt. eigenvalues --    2.29178   2.32184   2.33139   2.34948   2.37089
 Alpha virt. eigenvalues --    2.37933   2.38937   2.40986   2.42467   2.44723
 Alpha virt. eigenvalues --    2.47701   2.48681   2.48919   2.49763   2.51612
 Alpha virt. eigenvalues --    2.53236   2.53645   2.54921   2.57141   2.58004
 Alpha virt. eigenvalues --    2.58439   2.60891   2.62319   2.63314   2.65689
 Alpha virt. eigenvalues --    2.66899   2.68019   2.68900   2.71063   2.71932
 Alpha virt. eigenvalues --    2.74448   2.75259   2.77670   2.79420   2.82029
 Alpha virt. eigenvalues --    2.83325   2.84726   2.86096   2.87266   2.88048
 Alpha virt. eigenvalues --    2.89505   2.93355   2.93758   2.96424   2.97024
 Alpha virt. eigenvalues --    2.99685   3.01314   3.03017   3.05016   3.05408
 Alpha virt. eigenvalues --    3.07583   3.09513   3.11177   3.11431   3.15910
 Alpha virt. eigenvalues --    3.17054   3.19632   3.21245   3.21847   3.26968
 Alpha virt. eigenvalues --    3.27135   3.29447   3.30316   3.32486   3.34158
 Alpha virt. eigenvalues --    3.38733   3.41477   3.43134   3.44179   3.47910
 Alpha virt. eigenvalues --    3.49427   3.49929   3.52275   3.53983   3.54729
 Alpha virt. eigenvalues --    3.57882   3.58923   3.61299   3.63983   3.65545
 Alpha virt. eigenvalues --    3.67479   3.71298   3.73140   3.77508   3.81296
 Alpha virt. eigenvalues --    3.83364   3.84148   3.86920   3.87415   3.93385
 Alpha virt. eigenvalues --    3.95155   3.95880   3.97038   3.97798   4.01886
 Alpha virt. eigenvalues --    4.04551   4.06670   4.14022   4.16841   4.21084
 Alpha virt. eigenvalues --    4.24231   4.28144   4.34390   4.40836   4.42153
 Alpha virt. eigenvalues --    4.50665   4.54768   4.79209   4.81829   5.06145
 Alpha virt. eigenvalues --    5.07478   5.10347   5.16157   5.18503   5.21811
 Alpha virt. eigenvalues --    5.26882   5.29799   5.31869   5.35633   5.39077
 Alpha virt. eigenvalues --    5.45159   5.48457   5.51785   5.56503   5.58737
 Alpha virt. eigenvalues --    5.61787   5.64393   5.67889   5.69087   5.69884
 Alpha virt. eigenvalues --    5.73746   5.74691   5.77220   5.79181   5.80943
 Alpha virt. eigenvalues --    5.83011   5.83859   5.86244   5.87159   5.88577
 Alpha virt. eigenvalues --    5.91101   5.91893   5.93231   5.94086   5.96288
 Alpha virt. eigenvalues --    5.97545   5.99071   6.01307   6.01780   6.02838
 Alpha virt. eigenvalues --    6.04391   6.07595   6.07812   6.09607   6.11422
 Alpha virt. eigenvalues --    6.12552   6.14030   6.14699   6.17569   6.17979
 Alpha virt. eigenvalues --    6.20723   6.21632   6.22087   6.23932   6.27344
 Alpha virt. eigenvalues --    6.27767   6.29565   6.31458   6.33249   6.34859
 Alpha virt. eigenvalues --    6.35405   6.38066   6.39665   6.40676   6.43562
 Alpha virt. eigenvalues --    6.44716   6.48603   6.49208   6.52355   6.54229
 Alpha virt. eigenvalues --    6.56865   6.58046   6.60969   6.63089   6.63885
 Alpha virt. eigenvalues --    6.65022   6.69616   6.70960   6.74509   6.75094
 Alpha virt. eigenvalues --    6.75563   6.79086   6.80343   6.82655   6.84249
 Alpha virt. eigenvalues --    6.86900   6.90329   6.92306   6.93028   6.94679
 Alpha virt. eigenvalues --    6.97108   6.98570   7.03138   7.04079   7.04750
 Alpha virt. eigenvalues --    7.05517   7.07494   7.10592   7.11592   7.16218
 Alpha virt. eigenvalues --    7.17638   7.20734   7.23356   7.25351   7.26897
 Alpha virt. eigenvalues --    7.28804   7.32938   7.34984   7.35982   7.38164
 Alpha virt. eigenvalues --    7.41142   7.43366   7.44453   7.47510   7.48208
 Alpha virt. eigenvalues --    7.51909   7.55945   7.58641   7.59563   7.60969
 Alpha virt. eigenvalues --    7.61627   7.63573   7.66745   7.67927   7.69275
 Alpha virt. eigenvalues --    7.70625   7.73577   7.76788   7.77579   7.78994
 Alpha virt. eigenvalues --    7.81352   7.84473   7.85587   7.88018   7.90385
 Alpha virt. eigenvalues --    7.92662   7.93395   7.94015   7.96115   7.98516
 Alpha virt. eigenvalues --    8.01957   8.02629   8.04709   8.07508   8.08081
 Alpha virt. eigenvalues --    8.09796   8.11081   8.13033   8.14587   8.16958
 Alpha virt. eigenvalues --    8.19595   8.21872   8.23006   8.24726   8.25707
 Alpha virt. eigenvalues --    8.28511   8.31040   8.32220   8.33429   8.34683
 Alpha virt. eigenvalues --    8.36310   8.37832   8.38449   8.41028   8.43589
 Alpha virt. eigenvalues --    8.43901   8.44990   8.46838   8.47560   8.48469
 Alpha virt. eigenvalues --    8.52426   8.53428   8.54644   8.58176   8.60166
 Alpha virt. eigenvalues --    8.65211   8.66606   8.68560   8.69816   8.75066
 Alpha virt. eigenvalues --    8.75277   8.76872   8.78593   8.79740   8.82533
 Alpha virt. eigenvalues --    8.85523   8.87454   8.88812   8.94934   8.95340
 Alpha virt. eigenvalues --    8.99497   9.00364   9.03129   9.07882   9.09220
 Alpha virt. eigenvalues --    9.09841   9.14724   9.17332   9.18475   9.20968
 Alpha virt. eigenvalues --    9.22179   9.24599   9.27246   9.31022   9.31959
 Alpha virt. eigenvalues --    9.34128   9.35515   9.44211   9.47121   9.47506
 Alpha virt. eigenvalues --    9.48060   9.51717   9.53682   9.56805   9.58698
 Alpha virt. eigenvalues --    9.62089   9.67797   9.68740   9.73060   9.75349
 Alpha virt. eigenvalues --    9.81090   9.86309   9.91870   9.98189  10.00327
 Alpha virt. eigenvalues --   10.08922  10.11485  10.14800  10.19163  10.23451
 Alpha virt. eigenvalues --   10.26801  10.32057  10.38358  10.40187  10.64798
 Alpha virt. eigenvalues --   10.77358  11.00542  11.10871  11.43197  11.43987
 Alpha virt. eigenvalues --   11.58698  11.68872  11.81146  11.90646  11.95934
 Alpha virt. eigenvalues --   12.43716  12.71644  12.79654  29.09691  29.16542
 Alpha virt. eigenvalues --   29.32461  29.32913 148.77508 148.78905 148.94863
 Alpha virt. eigenvalues --  149.01497
          Condensed to atoms (all electrons):
               1          2          3          4          5          6
     1  C    4.777148   0.381162   0.390641   0.357424   0.428373  -0.060073
     2  C    0.381162   4.826585  -0.044767  -0.029556  -0.035358   0.342534
     3  H    0.390641  -0.044767   0.695721  -0.012195  -0.064453   0.011123
     4  H    0.357424  -0.029556  -0.012195   0.644902  -0.014194  -0.002531
     5  H    0.428373  -0.035358  -0.064453  -0.014194   0.581478  -0.010573
     6  C   -0.060073   0.342534   0.011123  -0.002531  -0.010573   4.912905
     7  H   -0.049034   0.393354  -0.007100  -0.001622   0.010074  -0.040666
     8  H   -0.024323   0.383499  -0.003529   0.004801  -0.004194  -0.103571
     9  C    0.005698  -0.041382  -0.000621   0.000133   0.000194   0.341229
    10  H   -0.008274  -0.051262   0.000305   0.000298   0.004953   0.395102
    11  H   -0.005554  -0.062752  -0.000181   0.004700  -0.000575   0.375086
    12  H   -0.000147  -0.012927  -0.000004  -0.000030  -0.000023  -0.081179
    13  H   -0.000630   0.006527   0.000030   0.000007  -0.000026  -0.038753
    14  H    0.000291  -0.003287   0.000046   0.000091   0.000009  -0.037853
               7          8          9         10         11         12
     1  C   -0.049034  -0.024323   0.005698  -0.008274  -0.005554  -0.000147
     2  C    0.393354   0.383499  -0.041382  -0.051262  -0.062752  -0.012927
     3  H   -0.007100  -0.003529  -0.000621   0.000305  -0.000181  -0.000004
     4  H   -0.001622   0.004801   0.000133   0.000298   0.004700  -0.000030
     5  H    0.010074  -0.004194   0.000194   0.004953  -0.000575  -0.000023
     6  C   -0.040666  -0.103571   0.341229   0.395102   0.375086  -0.081179
     7  H    0.695204  -0.035613  -0.003198   0.011682  -0.005767  -0.000931
     8  H   -0.035613   0.732920  -0.008961  -0.015988   0.020685   0.014817
     9  C   -0.003198  -0.008961   4.827544  -0.059972  -0.066880   0.402729
    10  H    0.011682  -0.015988  -0.059972   0.756011  -0.034419  -0.014010
    11  H   -0.005767   0.020685  -0.066880  -0.034419   0.761405   0.018801
    12  H   -0.000931   0.014817   0.402729  -0.014010   0.018801   0.654423
    13  H   -0.000226  -0.000226   0.417523  -0.007092  -0.005199  -0.026927
    14  H    0.006777  -0.001335   0.366244   0.012965  -0.008879  -0.032766
              13         14
     1  C   -0.000630   0.000291
     2  C    0.006527  -0.003287
     3  H    0.000030   0.000046
     4  H    0.000007   0.000091
     5  H   -0.000026   0.000009
     6  C   -0.038753  -0.037853
     7  H   -0.000226   0.006777
     8  H   -0.000226  -0.001335
     9  C    0.417523   0.366244
    10  H   -0.007092   0.012965
    11  H   -0.005199  -0.008879
    12  H   -0.026927  -0.032766
    13  H    0.601054  -0.024055
    14  H   -0.024055   0.724172
 Mulliken charges:
               1
     1  C   -0.192703
     2  C   -0.052369
     3  H    0.034984
     4  H    0.047772
     5  H    0.104315
     6  C   -0.002780
     7  H    0.027066
     8  H    0.041019
     9  C   -0.180281
    10  H    0.009703
    11  H    0.009531
    12  H    0.078174
    13  H    0.077992
    14  H   -0.002420
 Sum of Mulliken charges =   0.00000
 Mulliken charges with hydrogens summed into heavy atoms:
               1
     1  C   -0.005633
     2  C    0.015716
     6  C    0.016453
     9  C   -0.026536
 Electronic spatial extent (au):  <R**2>=            431.1999
 Charge=              0.0000 electrons
 Dipole moment (field-independent basis, Debye):
    X=             -0.1257    Y=             -0.2335    Z=             -0.6769  Tot=              0.7269
 Quadrupole moment (field-independent basis, Debye-Ang):
   XX=            -30.3867   YY=            -30.3611   ZZ=            -29.0679
   XY=             -0.8123   XZ=              0.2560   YZ=             -0.4726
 Traceless Quadrupole moment (field-independent basis, Debye-Ang):
   XX=             -0.4482   YY=             -0.4225   ZZ=              0.8707
   XY=             -0.8123   XZ=              0.2560   YZ=             -0.4726
 Octapole moment (field-independent basis, Debye-Ang**2):
  XXX=             -1.4405  YYY=             -0.7437  ZZZ=             -2.1137  XYY=              0.7916
  XXY=             -4.5897  XXZ=             -4.7573  XZZ=             -2.1494  YZZ=             -0.3349
  YYZ=              0.1907  XYZ=              0.8843
 Hexadecapole moment (field-independent basis, Debye-Ang**3):
 XXXX=           -483.6498 YYYY=           -104.0355 ZZZZ=            -71.4314 XXXY=            -15.7699
 XXXZ=              8.5103 YYYX=             -3.1480 YYYZ=             -0.6333 ZZZX=              0.3106
 ZZZY=             -0.8400 XXYY=            -92.2105 XXZZ=            -90.2762 YYZZ=            -26.2457
 XXYZ=             -3.5555 YYXZ=             -1.5384 ZZXY=              2.3348
 N-N= 1.296774640597D+02 E-N=-6.242649015381D+02  KE= 1.569829960180D+02
 Leave Link  601 at Wed Aug 26 23:51:22 2020, MaxMem=  2097152000 cpu:         1.1
 (Enter /opt/cluster/programs/g09/g09_d.01/g09/l9999.exe)
 1\1\GINC-NODE28\SP\RB2PLYPD3-FC\def2QZVP\C4H10\BOITTIER\26-Aug-2020\0\
 \#p B2PLYPD3/Def2QZVP\\butane_opt\\0,1\C,0,-3.939324,0.306547,0.024602
 \C,0,-2.701578,-0.641032,0.024219\H,0,-4.855983,-0.30651,0.371833\H,0,
 -4.059963,1.242283,-1.167129\H,0,-4.034093,0.739747,0.811412\C,0,-1.40
 9723,0.078683,0.004454\H,0,-2.861221,-1.378039,-0.943113\H,0,-2.276941
 ,-1.225002,0.892337\C,0,-0.155821,-0.619515,0.062885\H,0,-1.431523,0.8
 29907,1.004349\H,0,-1.339072,0.791858,-0.88041\H,0,-0.404719,-1.20327,
 0.79749\H,0,0.85659,0.090456,0.103144\H,0,-0.149011,-1.530509,-1.02246
 6\\Version=ES64L-G09RevD.01\State=1-A\HF=-157.8875199\MP2=-158.1421961
 \RMSD=4.403e-09\PG=C01 [X(C4H10)]\\@


 KNOWLEDGE IS CHIMERA - FOR BEYOND IT LIES OTHER KNOWLEDGE,
 AND THE INCOMPLETENESS OF WHAT IS KNOWN RENDERS THE KNOWING FALSE.
     -- THE THOMAS COVENANT CHRONICLES
 Job cpu time:       0 days  1 hours 32 minutes 57.6 seconds.
 File lengths (MBytes):  RWF=    152 Int=      0 D2E=      0 Chk=     14 Scr=      1
 Normal termination of Gaussian 09 at Wed Aug 26 23:51:27 2020.
