 Entering Gaussian System, Link 0=/opt/cluster/programs/g09/g09_d.01/g09//g09
 Input=/home/boittier/MDCM/nms_sampling/butane_geom.xyz.dir/energies/butane_opt_1945_energy.com
 Output=/scratch/boittier/butane_opt_1945_energy/butane_opt_1945_energy.out
 Initial command:
 /opt/cluster/programs/g09/g09_d.01/g09/l1.exe "/scratch/boittier/butane_opt_1945_energy/Gau-204061.inp" -scrdir="/scratch/boittier/butane_opt_1945_energy/"
 Entering Link 1 = /opt/cluster/programs/g09/g09_d.01/g09/l1.exe PID=    204062.
  
 Copyright (c) 1988,1990,1992,1993,1995,1998,2003,2009,2013,
            Gaussian, Inc.  All Rights Reserved.
  
 This is part of the Gaussian(R) 09 program.  It is based on
 the Gaussian(R) 03 system (copyright 2003, Gaussian, Inc.),
 the Gaussian(R) 98 system (copyright 1998, Gaussian, Inc.),
 the Gaussian(R) 94 system (copyright 1995, Gaussian, Inc.),
 the Gaussian 92(TM) system (copyright 1992, Gaussian, Inc.),
 the Gaussian 90(TM) system (copyright 1990, Gaussian, Inc.),
 the Gaussian 88(TM) system (copyright 1988, Gaussian, Inc.),
 the Gaussian 86(TM) system (copyright 1986, Carnegie Mellon
 University), and the Gaussian 82(TM) system (copyright 1983,
 Carnegie Mellon University). Gaussian is a federally registered
 trademark of Gaussian, Inc.
  
 This software contains proprietary and confidential information,
 including trade secrets, belonging to Gaussian, Inc.
  
 This software is provided under written license and may be
 used, copied, transmitted, or stored only in accord with that
 written license.
  
 The following legend is applicable only to US Government
 contracts under FAR:
  
                    RESTRICTED RIGHTS LEGEND
  
 Use, reproduction and disclosure by the US Government is
 subject to restrictions as set forth in subparagraphs (a)
 and (c) of the Commercial Computer Software - Restricted
 Rights clause in FAR 52.227-19.
  
 Gaussian, Inc.
 340 Quinnipiac St., Bldg. 40, Wallingford CT 06492
  
  
 ---------------------------------------------------------------
 Warning -- This program may not be used in any manner that
 competes with the business of Gaussian, Inc. or will provide
 assistance to any competitor of Gaussian, Inc.  The licensee
 of this program is prohibited from giving any competitor of
 Gaussian, Inc. access to this program.  By using this program,
 the user acknowledges that Gaussian, Inc. is engaged in the
 business of creating and licensing software in the field of
 computational chemistry and represents and warrants to the
 licensee that it is not a competitor of Gaussian, Inc. and that
 it will not use this program in any manner prohibited above.
 ---------------------------------------------------------------
  

 Cite this work as:
 Gaussian 09, Revision D.01,
 M. J. Frisch, G. W. Trucks, H. B. Schlegel, G. E. Scuseria, 
 M. A. Robb, J. R. Cheeseman, G. Scalmani, V. Barone, B. Mennucci, 
 G. A. Petersson, H. Nakatsuji, M. Caricato, X. Li, H. P. Hratchian, 
 A. F. Izmaylov, J. Bloino, G. Zheng, J. L. Sonnenberg, M. Hada, 
 M. Ehara, K. Toyota, R. Fukuda, J. Hasegawa, M. Ishida, T. Nakajima, 
 Y. Honda, O. Kitao, H. Nakai, T. Vreven, J. A. Montgomery, Jr., 
 J. E. Peralta, F. Ogliaro, M. Bearpark, J. J. Heyd, E. Brothers, 
 K. N. Kudin, V. N. Staroverov, T. Keith, R. Kobayashi, J. Normand, 
 K. Raghavachari, A. Rendell, J. C. Burant, S. S. Iyengar, J. Tomasi, 
 M. Cossi, N. Rega, J. M. Millam, M. Klene, J. E. Knox, J. B. Cross, 
 V. Bakken, C. Adamo, J. Jaramillo, R. Gomperts, R. E. Stratmann, 
 O. Yazyev, A. J. Austin, R. Cammi, C. Pomelli, J. W. Ochterski, 
 R. L. Martin, K. Morokuma, V. G. Zakrzewski, G. A. Voth, 
 P. Salvador, J. J. Dannenberg, S. Dapprich, A. D. Daniels, 
 O. Farkas, J. B. Foresman, J. V. Ortiz, J. Cioslowski, 
 and D. J. Fox, Gaussian, Inc., Wallingford CT, 2013.
 
 ******************************************
 Gaussian 09:  ES64L-G09RevD.01 24-Apr-2013
                26-Aug-2020 
 ******************************************
 %chk=/home/boittier/MDCM/nms_sampling/butane_geom.xyz.dir/butane_opt_1945.chk
 %nproc=8
 Will use up to    8 processors via shared memory.
 %mem=16000MB
 --------------------
 #p B2PLYPD3/Def2QZVP
 --------------------
 1/38=1/1;
 2/12=2,17=6,18=5,40=1/2;
 3/5=45,7=101,11=9,16=1,25=1,30=1,74=-60/1,2,3;
 4//1;
 5/5=2,38=5/2;
 8/10=1/1;
 9/16=-3/6;
 6/7=2,8=2,9=2,10=2/1;
 99/5=1,9=1/99;
 Leave Link    1 at Wed Aug 26 14:03:59 2020, MaxMem=  2097152000 cpu:         0.2
 (Enter /opt/cluster/programs/g09/g09_d.01/g09/l101.exe)
 ----------
 butane_opt
 ----------
 Symbolic Z-matrix:
 Charge =  0 Multiplicity = 1
 C                    -3.98062   0.1969    0.1436 
 C                    -2.69545  -0.54321  -0.03088 
 H                    -4.9337   -0.46509   0.08926 
 H                    -3.91422   0.59627  -0.7684 
 H                    -4.08522   0.93145   1.07228 
 C                    -1.39279   0.28431  -0.15053 
 H                    -3.12155  -1.28185  -0.88582 
 H                    -2.49992  -1.29551   0.80124 
 C                    -0.14962  -0.72947   0.13931 
 H                    -1.55886   0.87301   0.50104 
 H                    -1.41838   1.12756  -1.30997 
 H                    -0.20747  -1.25355   0.9673 
 H                     0.72426  -0.24547   0.71416 
 H                     0.60204  -1.97428  -0.98059 
 
 NAtoms=     14 NQM=       14 NQMF=       0 NMMI=      0 NMMIF=      0
                NMic=       0 NMicF=      0.
                    Isotopes and Nuclear Properties:
 (Nuclear quadrupole moments (NQMom) in fm**2, nuclear magnetic moments (NMagM)
  in nuclear magnetons)

  Atom         1           2           3           4           5           6           7           8           9          10
 IAtWgt=          12          12           1           1           1          12           1           1          12           1
 AtmWgt=  12.0000000  12.0000000   1.0078250   1.0078250   1.0078250  12.0000000   1.0078250   1.0078250  12.0000000   1.0078250
 NucSpn=           0           0           1           1           1           0           1           1           0           1
 AtZEff=   0.0000000   0.0000000   0.0000000   0.0000000   0.0000000   0.0000000   0.0000000   0.0000000   0.0000000   0.0000000
 NQMom=    0.0000000   0.0000000   0.0000000   0.0000000   0.0000000   0.0000000   0.0000000   0.0000000   0.0000000   0.0000000
 NMagM=    0.0000000   0.0000000   2.7928460   2.7928460   2.7928460   0.0000000   2.7928460   2.7928460   0.0000000   2.7928460
 AtZNuc=   6.0000000   6.0000000   1.0000000   1.0000000   1.0000000   6.0000000   1.0000000   1.0000000   6.0000000   1.0000000

  Atom        11          12          13          14
 IAtWgt=           1           1           1           1
 AtmWgt=   1.0078250   1.0078250   1.0078250   1.0078250
 NucSpn=           1           1           1           1
 AtZEff=   0.0000000   0.0000000   0.0000000   0.0000000
 NQMom=    0.0000000   0.0000000   0.0000000   0.0000000
 NMagM=    2.7928460   2.7928460   2.7928460   2.7928460
 AtZNuc=   1.0000000   1.0000000   1.0000000   1.0000000
 Leave Link  101 at Wed Aug 26 14:03:59 2020, MaxMem=  2097152000 cpu:         0.5
 (Enter /opt/cluster/programs/g09/g09_d.01/g09/l202.exe)
                          Input orientation:                          
 ---------------------------------------------------------------------
 Center     Atomic      Atomic             Coordinates (Angstroms)
 Number     Number       Type             X           Y           Z
 ---------------------------------------------------------------------
      1          6           0       -3.980620    0.196899    0.143603
      2          6           0       -2.695447   -0.543211   -0.030883
      3          1           0       -4.933703   -0.465090    0.089261
      4          1           0       -3.914224    0.596270   -0.768402
      5          1           0       -4.085217    0.931454    1.072281
      6          6           0       -1.392790    0.284308   -0.150530
      7          1           0       -3.121555   -1.281852   -0.885823
      8          1           0       -2.499923   -1.295509    0.801242
      9          6           0       -0.149619   -0.729470    0.139310
     10          1           0       -1.558864    0.873005    0.501042
     11          1           0       -1.418381    1.127558   -1.309974
     12          1           0       -0.207470   -1.253551    0.967301
     13          1           0        0.724258   -0.245470    0.714164
     14          1           0        0.602039   -1.974280   -0.980591
 ---------------------------------------------------------------------
                    Distance matrix (angstroms):
                    1          2          3          4          5
     1  C    0.000000
     2  C    1.493278   0.000000
     3  H    1.161701   2.242839   0.000000
     4  H    0.997827   1.824217   1.703352   0.000000
     5  H    1.188678   2.307178   1.906985   1.878750   0.000000
     6  C    2.605958   1.547908   3.627280   2.614711   3.027082
     7  H    1.996100   1.207510   2.213994   2.041924   3.108302
     8  H    2.202779   1.138690   2.668295   2.835993   2.746995
     9  C    3.941414   2.558300   4.791645   4.093138   4.372418
    10  H    2.539643   1.892203   3.653710   2.689943   2.590789
    11  H    3.089350   2.461390   4.105104   2.608601   3.581286
    12  H    4.125402   2.773262   4.871335   4.491606   4.452212
    13  H    4.759948   3.512567   5.696601   4.941866   4.964317
    14  H    5.194092   3.717972   5.836667   5.200902   5.884551
                    6          7          8          9         10
     6  C    0.000000
     7  H    2.445842   0.000000
     8  H    2.151147   1.797999   0.000000
     9  C    1.630100   3.191932   2.506488   0.000000
    10  H    0.893695   3.001467   2.382890   2.164428   0.000000
    11  H    1.433888   2.980933   3.390903   2.675581   1.834206
    12  H    2.240433   3.453514   2.298842   0.981619   2.562402
    13  H    2.347393   4.292356   3.391977   1.152551   2.551285
    14  H    3.125630   3.788613   3.641130   1.835407   3.869337
                   11         12         13         14
    11  H    0.000000
    12  H    3.510266   0.000000
    13  H    3.251652   1.395859   0.000000
    14  H    3.716448   2.229134   2.424029   0.000000
 Stoichiometry    C4H10
 Framework group  C1[X(C4H10)]
 Deg. of freedom    36
 Full point group                 C1      NOp   1
 Largest Abelian subgroup         C1      NOp   1
 Largest concise Abelian subgroup C1      NOp   1
                         Standard orientation:                         
 ---------------------------------------------------------------------
 Center     Atomic      Atomic             Coordinates (Angstroms)
 Number     Number       Type             X           Y           Z
 ---------------------------------------------------------------------
      1          6           0        1.976047    0.034640   -0.114533
      2          6           0        0.571103   -0.429830    0.086161
      3          1           0        2.782509   -0.793757   -0.000831
      4          1           0        1.984697    0.499920    0.768132
      5          1           0        2.224739    0.670799   -1.087368
      6          6           0       -0.546906    0.639850    0.129288
      7          1           0        0.842546   -1.177462    0.994701
      8          1           0        0.236773   -1.184596   -0.698163
      9          6           0       -1.961846   -0.131939   -0.114665
     10          1           0       -0.267278    1.140060   -0.556488
     11          1           0       -0.362957    1.538550    1.231349
     12          1           0       -2.003387   -0.711973   -0.905495
     13          1           0       -2.723036    0.471817   -0.734700
     14          1           0       -2.944990   -1.129688    1.071355
 ---------------------------------------------------------------------
 Rotational constants (GHZ):     19.8656435      3.4427068      3.2444114
 Leave Link  202 at Wed Aug 26 14:03:59 2020, MaxMem=  2097152000 cpu:         0.0
 (Enter /opt/cluster/programs/g09/g09_d.01/g09/l301.exe)
 Standard basis: def2QZVP (5D, 7F)
 Ernie: Thresh=  0.10000D-02 Tol=  0.10000D-05 Strict=F.
 There are   638 symmetry adapted cartesian basis functions of A   symmetry.
 There are   528 symmetry adapted basis functions of A   symmetry.
   528 basis functions,   748 primitive gaussians,   638 cartesian basis functions
    17 alpha electrons       17 beta electrons
       nuclear repulsion energy       126.5496046243 Hartrees.
 IExCor=  419 DFT=T Ex+Corr=B2PLYPD3 ExCW=0 ScaHFX=  0.530000
 ScaDFX=  0.470000  0.470000  0.730000  0.730000 ScalE2=  0.270000  0.270000
 IRadAn=      0 IRanWt=     -1 IRanGd=            0 ICorTp=0 IEmpDi=141
 NAtoms=   14 NActive=   14 NUniq=   14 SFac= 1.00D+00 NAtFMM=   60 NAOKFM=F Big=F
 Integral buffers will be    131072 words long.
 Regular integral format.
 Two-electron integral symmetry is turned on.
 R6Disp:  Grimme-D3(BJ) Dispersion energy=       -0.0069025594 Hartrees.
 Nuclear repulsion after empirical dispersion term =      126.5427020648 Hartrees.
 Leave Link  301 at Wed Aug 26 14:03:59 2020, MaxMem=  2097152000 cpu:         0.4
 (Enter /opt/cluster/programs/g09/g09_d.01/g09/l302.exe)
 NPDir=0 NMtPBC=     1 NCelOv=     1 NCel=       1 NClECP=     1 NCelD=      1
         NCelK=      1 NCelE2=     1 NClLst=     1 CellRange=     0.0.
 One-electron integrals computed using PRISM.
   1 Symmetry operations used in ECPInt.
 ECPInt:  NShTT=   14196 NPrTT=   30597 LenC2=   13779 LenP2D=   25596.
 LDataN:  DoStor=T MaxTD1= 8 Len=  415
 NBasis=   528 RedAO= T EigKep=  3.31D-05  NBF=   528
 NBsUse=   528 1.00D-06 EigRej= -1.00D+00 NBFU=   528
 Precomputing XC quadrature grid using
 IXCGrd= 4 IRadAn=           0 IRanWt=          -1 IRanGd=           0 AccXCQ= 0.00D+00.
 Generated NRdTot=       0 NPtTot=           0 NUsed=           0 NTot=          32
 NSgBfM=   638   638   638   638   638 MxSgAt=    14 MxSgA2=    14.
 Leave Link  302 at Wed Aug 26 14:04:00 2020, MaxMem=  2097152000 cpu:         4.7
 (Enter /opt/cluster/programs/g09/g09_d.01/g09/l303.exe)
 DipDrv:  MaxL=1.
 Leave Link  303 at Wed Aug 26 14:04:00 2020, MaxMem=  2097152000 cpu:         0.5
 (Enter /opt/cluster/programs/g09/g09_d.01/g09/l401.exe)
 ExpMin= 7.60D-02 ExpMax= 6.70D+04 ExpMxC= 6.47D+02 IAcc=2 IRadAn=         4 AccDes= 0.00D+00
 Harris functional with IExCor=  419 and IRadAn=       4 diagonalized for initial guess.
 HarFok:  IExCor=  419 AccDes= 0.00D+00 IRadAn=         4 IDoV= 1 UseB2=F ITyADJ=14
 ICtDFT=  3500011 ScaDFX=  1.000000  1.000000  1.000000  1.000000
 FoFCou: FMM=F IPFlag=           0 FMFlag=      100000 FMFlg1=           0
         NFxFlg=           0 DoJE=T BraDBF=F KetDBF=T FulRan=T
         wScrn=  0.000000 ICntrl=     500 IOpCl=  0 I1Cent=   200000004 NGrid=           0
         NMat0=    1 NMatS0=      1 NMatT0=    0 NMatD0=    1 NMtDS0=    0 NMtDT0=    0
 Petite list used in FoFCou.
 Harris En= -158.334709801670    
 JPrj=0 DoOrth=F DoCkMO=F.
 Leave Link  401 at Wed Aug 26 14:04:02 2020, MaxMem=  2097152000 cpu:        14.2
 (Enter /opt/cluster/programs/g09/g09_d.01/g09/l502.exe)
 Closed shell SCF:
 Using DIIS extrapolation, IDIIS=  1040.
 Integral symmetry usage will be decided dynamically.
 IVT=     1249338 IEndB=     1249338 NGot=  2097152000 MDV=  2096326985
 LenX=  2096326985 LenY=  2095919303
 Requested convergence on RMS density matrix=1.00D-08 within 128 cycles.
 Requested convergence on MAX density matrix=1.00D-06.
 Requested convergence on             energy=1.00D-06.
 No special actions if energy rises.
 Fock matrices will be formed incrementally for  20 cycles.
 Integral accuracy reduced to 1.0D-05 until final iterations.

 Cycle   1  Pass 0  IDiag  1:
 FoFJK:  IHMeth= 1 ICntrl=       0 DoSepK=F KAlg= 0 I1Cent=   0 FoldK=F
 IRaf= 920000000 NMat=   1 IRICut=       1 DoRegI=T DoRafI=F ISym2E= 0.
 FoFCou: FMM=F IPFlag=           0 FMFlag=      100000 FMFlg1=           0
         NFxFlg=           0 DoJE=F BraDBF=F KetDBF=F FulRan=T
         wScrn=  0.000000 ICntrl=       0 IOpCl=  0 I1Cent=           0 NGrid=           0
         NMat0=    1 NMatS0=      1 NMatT0=    0 NMatD0=    1 NMtDS0=    0 NMtDT0=    0
 Symmetry not used in FoFCou.
 E= -157.549710185653    
 DIIS: error= 1.95D-02 at cycle   1 NSaved=   1.
 NSaved= 1 IEnMin= 1 EnMin= -157.549710185653     IErMin= 1 ErrMin= 1.95D-02
 ErrMax= 1.95D-02  0.00D+00 EMaxC= 1.00D-01 BMatC= 3.35D-01 BMatP= 3.35D-01
 IDIUse=3 WtCom= 8.05D-01 WtEn= 1.95D-01
 Coeff-Com:  0.100D+01
 Coeff-En:   0.100D+01
 Coeff:      0.100D+01
 Gap=     0.275 Goal=   None    Shift=    0.000
 GapD=    0.275 DampG=1.000 DampE=0.500 DampFc=0.5000 IDamp=-1.
 Damping current iteration by 5.00D-01
 RMSDP=1.10D-03 MaxDP=7.90D-02              OVMax= 3.29D-01

 Cycle   2  Pass 0  IDiag  1:
 RMSU=  5.24D-04    CP:  9.47D-01
 E= -157.686183483312     Delta-E=       -0.136473297658 Rises=F Damp=T
 DIIS: error= 6.01D-03 at cycle   2 NSaved=   2.
 NSaved= 2 IEnMin= 2 EnMin= -157.686183483312     IErMin= 2 ErrMin= 6.01D-03
 ErrMax= 6.01D-03  0.00D+00 EMaxC= 1.00D-01 BMatC= 3.30D-02 BMatP= 3.35D-01
 IDIUse=3 WtCom= 9.40D-01 WtEn= 6.01D-02
 Coeff-Com: -0.860D-01 0.109D+01
 Coeff-En:   0.000D+00 0.100D+01
 Coeff:     -0.809D-01 0.108D+01
 Gap=     0.393 Goal=   None    Shift=    0.000
 RMSDP=3.13D-04 MaxDP=1.50D-02 DE=-1.36D-01 OVMax= 2.20D-01

 Cycle   3  Pass 0  IDiag  1:
 RMSU=  2.81D-04    CP:  9.38D-01  7.45D-01
 E= -157.828165490810     Delta-E=       -0.141982007498 Rises=F Damp=F
 DIIS: error= 3.54D-03 at cycle   3 NSaved=   3.
 NSaved= 3 IEnMin= 3 EnMin= -157.828165490810     IErMin= 3 ErrMin= 3.54D-03
 ErrMax= 3.54D-03  0.00D+00 EMaxC= 1.00D-01 BMatC= 6.58D-03 BMatP= 3.30D-02
 IDIUse=3 WtCom= 9.65D-01 WtEn= 3.54D-02
 Coeff-Com: -0.114D+00 0.287D+00 0.828D+00
 Coeff-En:   0.000D+00 0.000D+00 0.100D+01
 Coeff:     -0.110D+00 0.276D+00 0.834D+00
 Gap=     0.334 Goal=   None    Shift=    0.000
 RMSDP=1.06D-04 MaxDP=9.05D-03 DE=-1.42D-01 OVMax= 5.02D-02

 Cycle   4  Pass 0  IDiag  1:
 RMSU=  8.51D-05    CP:  9.32D-01  8.60D-01  9.63D-01
 E= -157.835023266070     Delta-E=       -0.006857775260 Rises=F Damp=F
 DIIS: error= 1.40D-03 at cycle   4 NSaved=   4.
 NSaved= 4 IEnMin= 4 EnMin= -157.835023266070     IErMin= 4 ErrMin= 1.40D-03
 ErrMax= 1.40D-03  0.00D+00 EMaxC= 1.00D-01 BMatC= 1.08D-03 BMatP= 6.58D-03
 IDIUse=3 WtCom= 9.86D-01 WtEn= 1.40D-02
 Coeff-Com: -0.438D-01 0.691D-01 0.384D+00 0.591D+00
 Coeff-En:   0.000D+00 0.000D+00 0.680D-04 0.100D+01
 Coeff:     -0.432D-01 0.681D-01 0.378D+00 0.597D+00
 Gap=     0.336 Goal=   None    Shift=    0.000
 RMSDP=3.41D-05 MaxDP=2.52D-03 DE=-6.86D-03 OVMax= 1.03D-02

 Cycle   5  Pass 0  IDiag  1:
 RMSU=  2.32D-05    CP:  9.32D-01  8.43D-01  1.01D+00  7.74D-01
 E= -157.836114225620     Delta-E=       -0.001090959550 Rises=F Damp=F
 DIIS: error= 2.17D-04 at cycle   5 NSaved=   5.
 NSaved= 5 IEnMin= 5 EnMin= -157.836114225620     IErMin= 5 ErrMin= 2.17D-04
 ErrMax= 2.17D-04  0.00D+00 EMaxC= 1.00D-01 BMatC= 2.11D-05 BMatP= 1.08D-03
 IDIUse=3 WtCom= 9.98D-01 WtEn= 2.17D-03
 Coeff-Com: -0.356D-02-0.310D-03 0.513D-01 0.151D+00 0.802D+00
 Coeff-En:   0.000D+00 0.000D+00 0.000D+00 0.000D+00 0.100D+01
 Coeff:     -0.355D-02-0.310D-03 0.512D-01 0.151D+00 0.802D+00
 Gap=     0.336 Goal=   None    Shift=    0.000
 RMSDP=8.71D-06 MaxDP=4.61D-04 DE=-1.09D-03 OVMax= 2.23D-03

 Initial convergence to 1.0D-05 achieved.  Increase integral accuracy.
 Cycle   6  Pass 1  IDiag  1:
 E= -157.836149311823     Delta-E=       -0.000035086203 Rises=F Damp=F
 DIIS: error= 6.95D-05 at cycle   1 NSaved=   1.
 NSaved= 1 IEnMin= 1 EnMin= -157.836149311823     IErMin= 1 ErrMin= 6.95D-05
 ErrMax= 6.95D-05  0.00D+00 EMaxC= 1.00D-01 BMatC= 3.25D-06 BMatP= 3.25D-06
 IDIUse=1 WtCom= 1.00D+00 WtEn= 0.00D+00
 Coeff-Com:  0.100D+01
 Coeff:      0.100D+01
 Gap=     0.336 Goal=   None    Shift=    0.000
 RMSDP=8.71D-06 MaxDP=4.61D-04 DE=-3.51D-05 OVMax= 9.38D-04

 Cycle   7  Pass 1  IDiag  1:
 RMSU=  2.66D-05    CP:  1.00D+00
 E= -157.836150079045     Delta-E=       -0.000000767222 Rises=F Damp=F
 DIIS: error= 6.11D-05 at cycle   2 NSaved=   2.
 NSaved= 2 IEnMin= 2 EnMin= -157.836150079045     IErMin= 2 ErrMin= 6.11D-05
 ErrMax= 6.11D-05  0.00D+00 EMaxC= 1.00D-01 BMatC= 2.51D-06 BMatP= 3.25D-06
 IDIUse=1 WtCom= 1.00D+00 WtEn= 0.00D+00
 Coeff-Com:  0.464D+00 0.536D+00
 Coeff:      0.464D+00 0.536D+00
 Gap=     0.336 Goal=   None    Shift=    0.000
 RMSDP=1.72D-06 MaxDP=1.82D-04 DE=-7.67D-07 OVMax= 7.31D-04

 Cycle   8  Pass 1  IDiag  1:
 RMSU=  1.69D-06    CP:  1.00D+00  1.01D+00
 E= -157.836152699480     Delta-E=       -0.000002620434 Rises=F Damp=F
 DIIS: error= 1.23D-05 at cycle   3 NSaved=   3.
 NSaved= 3 IEnMin= 3 EnMin= -157.836152699480     IErMin= 3 ErrMin= 1.23D-05
 ErrMax= 1.23D-05  0.00D+00 EMaxC= 1.00D-01 BMatC= 6.35D-08 BMatP= 2.51D-06
 IDIUse=1 WtCom= 1.00D+00 WtEn= 0.00D+00
 Coeff-Com: -0.496D-02 0.111D+00 0.894D+00
 Coeff:     -0.496D-02 0.111D+00 0.894D+00
 Gap=     0.336 Goal=   None    Shift=    0.000
 RMSDP=6.80D-07 MaxDP=3.40D-05 DE=-2.62D-06 OVMax= 1.07D-04

 Cycle   9  Pass 1  IDiag  1:
 RMSU=  4.60D-07    CP:  1.00D+00  1.03D+00  9.57D-01
 E= -157.836152769539     Delta-E=       -0.000000070059 Rises=F Damp=F
 DIIS: error= 4.49D-06 at cycle   4 NSaved=   4.
 NSaved= 4 IEnMin= 4 EnMin= -157.836152769539     IErMin= 4 ErrMin= 4.49D-06
 ErrMax= 4.49D-06  0.00D+00 EMaxC= 1.00D-01 BMatC= 1.18D-08 BMatP= 6.35D-08
 IDIUse=1 WtCom= 1.00D+00 WtEn= 0.00D+00
 Coeff-Com: -0.351D-01 0.154D-01 0.392D+00 0.628D+00
 Coeff:     -0.351D-01 0.154D-01 0.392D+00 0.628D+00
 Gap=     0.336 Goal=   None    Shift=    0.000
 RMSDP=1.57D-07 MaxDP=8.69D-06 DE=-7.01D-08 OVMax= 5.12D-05

 Cycle  10  Pass 1  IDiag  1:
 RMSU=  1.37D-07    CP:  1.00D+00  1.03D+00  9.86D-01  1.05D+00
 E= -157.836152783058     Delta-E=       -0.000000013520 Rises=F Damp=F
 DIIS: error= 9.59D-07 at cycle   5 NSaved=   5.
 NSaved= 5 IEnMin= 5 EnMin= -157.836152783058     IErMin= 5 ErrMin= 9.59D-07
 ErrMax= 9.59D-07  0.00D+00 EMaxC= 1.00D-01 BMatC= 5.16D-10 BMatP= 1.18D-08
 IDIUse=1 WtCom= 1.00D+00 WtEn= 0.00D+00
 Coeff-Com: -0.453D-02-0.887D-02-0.540D-01 0.103D+00 0.964D+00
 Coeff:     -0.453D-02-0.887D-02-0.540D-01 0.103D+00 0.964D+00
 Gap=     0.336 Goal=   None    Shift=    0.000
 RMSDP=6.58D-08 MaxDP=3.08D-06 DE=-1.35D-08 OVMax= 1.22D-05

 Cycle  11  Pass 1  IDiag  1:
 RMSU=  3.36D-08    CP:  1.00D+00  1.03D+00  9.90D-01  1.17D+00  1.08D+00
 E= -157.836152783865     Delta-E=       -0.000000000807 Rises=F Damp=F
 DIIS: error= 2.92D-07 at cycle   6 NSaved=   6.
 NSaved= 6 IEnMin= 6 EnMin= -157.836152783865     IErMin= 6 ErrMin= 2.92D-07
 ErrMax= 2.92D-07  0.00D+00 EMaxC= 1.00D-01 BMatC= 5.71D-11 BMatP= 5.16D-10
 IDIUse=1 WtCom= 1.00D+00 WtEn= 0.00D+00
 Coeff-Com:  0.652D-03-0.427D-02-0.460D-01-0.113D-02 0.369D+00 0.682D+00
 Coeff:      0.652D-03-0.427D-02-0.460D-01-0.113D-02 0.369D+00 0.682D+00
 Gap=     0.336 Goal=   None    Shift=    0.000
 RMSDP=1.19D-08 MaxDP=5.77D-07 DE=-8.07D-10 OVMax= 2.43D-06

 Cycle  12  Pass 1  IDiag  1:
 RMSU=  8.76D-09    CP:  1.00D+00  1.03D+00  9.90D-01  1.18D+00  1.12D+00
                    CP:  1.01D+00
 E= -157.836152783934     Delta-E=       -0.000000000069 Rises=F Damp=F
 DIIS: error= 7.50D-08 at cycle   7 NSaved=   7.
 NSaved= 7 IEnMin= 7 EnMin= -157.836152783934     IErMin= 7 ErrMin= 7.50D-08
 ErrMax= 7.50D-08  0.00D+00 EMaxC= 1.00D-01 BMatC= 2.48D-12 BMatP= 5.71D-11
 IDIUse=1 WtCom= 1.00D+00 WtEn= 0.00D+00
 Coeff-Com:  0.464D-03-0.739D-03-0.968D-02-0.690D-02 0.451D-01 0.184D+00
 Coeff-Com:  0.788D+00
 Coeff:      0.464D-03-0.739D-03-0.968D-02-0.690D-02 0.451D-01 0.184D+00
 Coeff:      0.788D+00
 Gap=     0.336 Goal=   None    Shift=    0.000
 RMSDP=3.09D-09 MaxDP=1.30D-07 DE=-6.87D-11 OVMax= 9.07D-07

 SCF Done:  E(RB2PLYPD3) =  -157.836152784     A.U. after   12 cycles
            NFock= 12  Conv=0.31D-08     -V/T= 2.0060
 KE= 1.568967079656D+02 PE=-6.177632209294D+02 EE= 1.764876581151D+02
 Leave Link  502 at Wed Aug 26 14:11:01 2020, MaxMem=  2097152000 cpu:      3341.9
 (Enter /opt/cluster/programs/g09/g09_d.01/g09/l801.exe)
 DoSCS=T DFT=T ScalE2(SS,OS)=  0.270000  0.270000
 ExpMin= 7.60D-02 ExpMax= 6.70D+04 ExpMxC= 6.47D+02 IAcc=3 IRadAn=         5 AccDes= 0.00D+00
 HarFok:  IExCor=  205 AccDes= 0.00D+00 IRadAn=         5 IDoV=-2 UseB2=F ITyADJ=14
 ICtDFT= 12500011 ScaDFX=  1.000000  1.000000  1.000000  1.000000
 Largest valence mixing into a core orbital is  1.21D-04
 Largest core mixing into a valence orbital is  1.85D-05
 Range of M.O.s used for correlation:     5   528
 NBasis=   528 NAE=    17 NBE=    17 NFC=     4 NFV=     0
 NROrb=    524 NOA=    13 NOB=    13 NVA=   511 NVB=   511

 **** Warning!!: The largest alpha MO coefficient is  0.25546610D+02

 Leave Link  801 at Wed Aug 26 14:11:02 2020, MaxMem=  2097152000 cpu:         1.1
 (Enter /opt/cluster/programs/g09/g09_d.01/g09/l906.exe)
 DoSCS=T DFT=T ScalE2(SS,OS)=  0.270000  0.270000
 FulOut=F Deriv=F AODrv=F NAtomX=    14
   MMem=         463  MDisk=          13 MDiskD=          13
  W3Min=     4238234 MinDsk=     6904766 NBas6D=         638
 NBas2D=      205689    NTT=      203841    LW2=     4508827
    MDV=  2095917042 MDiskM=        7293 NBas2p=      186072
 Fully direct method using O(OVN) memory.
 IMap=   1   2   3   4   5   6   7   8   9  10  11  12  13
 JobTyp=1 Pass  1:  I=   1 to  13 NPSUse=  8 ParTrn=T ParDer=T DoDerP=F.
 Spin components of T(2) and E(2):
     alpha-alpha T2 =       0.4461717551D-01 E2=     -0.2681884083D-01
     alpha-beta  T2 =       0.3249024742D+00 E2=     -0.2030596896D+00
     beta-beta   T2 =       0.4461717551D-01 E2=     -0.2681884083D-01
 The integrals were generated   1 times.
 E2(B2PLYPD3) =    -0.2566973713D+00 E(B2PLYPD3) =    -0.15809285015524D+03
 Leave Link  906 at Wed Aug 26 14:15:45 2020, MaxMem=  2097152000 cpu:      2258.7
 (Enter /opt/cluster/programs/g09/g09_d.01/g09/l601.exe)
 Copying SCF densities to generalized density rwf, IOpCl= 0 IROHF=0.

 **********************************************************************

            Population analysis using the SCF density.

 **********************************************************************

 Orbital symmetries:
       Occupied  (A) (A) (A) (A) (A) (A) (A) (A) (A) (A) (A) (A)
                 (A) (A) (A) (A) (A)
       Virtual   (A) (A) (A) (A) (A) (A) (A) (A) (A) (A) (A) (A)
                 (A) (A) (A) (A) (A) (A) (A) (A) (A) (A) (A) (A)
                 (A) (A) (A) (A) (A) (A) (A) (A) (A) (A) (A) (A)
                 (A) (A) (A) (A) (A) (A) (A) (A) (A) (A) (A) (A)
                 (A) (A) (A) (A) (A) (A) (A) (A) (A) (A) (A) (A)
                 (A) (A) (A) (A) (A) (A) (A) (A) (A) (A) (A) (A)
                 (A) (A) (A) (A) (A) (A) (A) (A) (A) (A) (A) (A)
                 (A) (A) (A) (A) (A) (A) (A) (A) (A) (A) (A) (A)
                 (A) (A) (A) (A) (A) (A) (A) (A) (A) (A) (A) (A)
                 (A) (A) (A) (A) (A) (A) (A) (A) (A) (A) (A) (A)
                 (A) (A) (A) (A) (A) (A) (A) (A) (A) (A) (A) (A)
                 (A) (A) (A) (A) (A) (A) (A) (A) (A) (A) (A) (A)
                 (A) (A) (A) (A) (A) (A) (A) (A) (A) (A) (A) (A)
                 (A) (A) (A) (A) (A) (A) (A) (A) (A) (A) (A) (A)
                 (A) (A) (A) (A) (A) (A) (A) (A) (A) (A) (A) (A)
                 (A) (A) (A) (A) (A) (A) (A) (A) (A) (A) (A) (A)
                 (A) (A) (A) (A) (A) (A) (A) (A) (A) (A) (A) (A)
                 (A) (A) (A) (A) (A) (A) (A) (A) (A) (A) (A) (A)
                 (A) (A) (A) (A) (A) (A) (A) (A) (A) (A) (A) (A)
                 (A) (A) (A) (A) (A) (A) (A) (A) (A) (A) (A) (A)
                 (A) (A) (A) (A) (A) (A) (A) (A) (A) (A) (A) (A)
                 (A) (A) (A) (A) (A) (A) (A) (A) (A) (A) (A) (A)
                 (A) (A) (A) (A) (A) (A) (A) (A) (A) (A) (A) (A)
                 (A) (A) (A) (A) (A) (A) (A) (A) (A) (A) (A) (A)
                 (A) (A) (A) (A) (A) (A) (A) (A) (A) (A) (A) (A)
                 (A) (A) (A) (A) (A) (A) (A) (A) (A) (A) (A) (A)
                 (A) (A) (A) (A) (A) (A) (A) (A) (A) (A) (A) (A)
                 (A) (A) (A) (A) (A) (A) (A) (A) (A) (A) (A) (A)
                 (A) (A) (A) (A) (A) (A) (A) (A) (A) (A) (A) (A)
                 (A) (A) (A) (A) (A) (A) (A) (A) (A) (A) (A) (A)
                 (A) (A) (A) (A) (A) (A) (A) (A) (A) (A) (A) (A)
                 (A) (A) (A) (A) (A) (A) (A) (A) (A) (A) (A) (A)
                 (A) (A) (A) (A) (A) (A) (A) (A) (A) (A) (A) (A)
                 (A) (A) (A) (A) (A) (A) (A) (A) (A) (A) (A) (A)
                 (A) (A) (A) (A) (A) (A) (A) (A) (A) (A) (A) (A)
                 (A) (A) (A) (A) (A) (A) (A) (A) (A) (A) (A) (A)
                 (A) (A) (A) (A) (A) (A) (A) (A) (A) (A) (A) (A)
                 (A) (A) (A) (A) (A) (A) (A) (A) (A) (A) (A) (A)
                 (A) (A) (A) (A) (A) (A) (A) (A) (A) (A) (A) (A)
                 (A) (A) (A) (A) (A) (A) (A) (A) (A) (A) (A) (A)
                 (A) (A) (A) (A) (A) (A) (A) (A) (A) (A) (A) (A)
                 (A) (A) (A) (A) (A) (A) (A) (A) (A) (A) (A) (A)
                 (A) (A) (A) (A) (A) (A) (A)
 The electronic state is 1-A.
 Alpha  occ. eigenvalues --  -10.66488 -10.65109 -10.62776 -10.60834  -0.92351
 Alpha  occ. eigenvalues --   -0.83959  -0.75067  -0.66422  -0.53257  -0.51657
 Alpha  occ. eigenvalues --   -0.48637  -0.44773  -0.42318  -0.38540  -0.37584
 Alpha  occ. eigenvalues --   -0.36126  -0.34330
 Alpha virt. eigenvalues --   -0.00696   0.04835   0.06631   0.07768   0.08641
 Alpha virt. eigenvalues --    0.10834   0.12352   0.12553   0.14296   0.14960
 Alpha virt. eigenvalues --    0.15499   0.16260   0.18158   0.18777   0.19463
 Alpha virt. eigenvalues --    0.21274   0.22603   0.22809   0.24719   0.26451
 Alpha virt. eigenvalues --    0.28395   0.29337   0.30242   0.31394   0.33524
 Alpha virt. eigenvalues --    0.34024   0.35270   0.35993   0.37616   0.38975
 Alpha virt. eigenvalues --    0.40160   0.41778   0.42785   0.44275   0.44419
 Alpha virt. eigenvalues --    0.47808   0.49767   0.50830   0.52292   0.54368
 Alpha virt. eigenvalues --    0.58677   0.59853   0.61993   0.63820   0.64688
 Alpha virt. eigenvalues --    0.66280   0.67070   0.67693   0.69553   0.70298
 Alpha virt. eigenvalues --    0.71991   0.74059   0.75607   0.75940   0.78202
 Alpha virt. eigenvalues --    0.79189   0.80655   0.81268   0.84154   0.84502
 Alpha virt. eigenvalues --    0.87132   0.87503   0.87612   0.88452   0.89021
 Alpha virt. eigenvalues --    0.91092   0.92068   0.92324   0.94591   0.95398
 Alpha virt. eigenvalues --    0.95733   0.97026   0.98277   0.98700   1.00673
 Alpha virt. eigenvalues --    1.01742   1.03917   1.05126   1.05490   1.08289
 Alpha virt. eigenvalues --    1.10209   1.11195   1.12552   1.15557   1.16788
 Alpha virt. eigenvalues --    1.18902   1.20435   1.21537   1.22942   1.25662
 Alpha virt. eigenvalues --    1.26179   1.30170   1.30546   1.32250   1.33945
 Alpha virt. eigenvalues --    1.34622   1.37126   1.40425   1.41136   1.43023
 Alpha virt. eigenvalues --    1.43770   1.45415   1.48668   1.49910   1.55671
 Alpha virt. eigenvalues --    1.58435   1.59554   1.65619   1.66202   1.72726
 Alpha virt. eigenvalues --    1.74584   1.77760   1.81885   1.85000   1.86768
 Alpha virt. eigenvalues --    1.88296   1.89999   1.91434   1.92856   1.94132
 Alpha virt. eigenvalues --    1.96117   1.96582   1.98875   1.99912   2.00354
 Alpha virt. eigenvalues --    2.00944   2.03915   2.05213   2.05685   2.08266
 Alpha virt. eigenvalues --    2.09992   2.11767   2.12697   2.13244   2.15666
 Alpha virt. eigenvalues --    2.16263   2.16955   2.17679   2.18436   2.20658
 Alpha virt. eigenvalues --    2.21294   2.22262   2.22767   2.24709   2.27875
 Alpha virt. eigenvalues --    2.28444   2.28981   2.31820   2.33382   2.34077
 Alpha virt. eigenvalues --    2.35774   2.36383   2.38741   2.39793   2.41022
 Alpha virt. eigenvalues --    2.42085   2.42583   2.44630   2.45181   2.46736
 Alpha virt. eigenvalues --    2.48401   2.49865   2.53940   2.56106   2.56623
 Alpha virt. eigenvalues --    2.57119   2.58179   2.58652   2.61402   2.64030
 Alpha virt. eigenvalues --    2.65256   2.65843   2.66970   2.68618   2.70474
 Alpha virt. eigenvalues --    2.72423   2.74374   2.75004   2.76054   2.78422
 Alpha virt. eigenvalues --    2.79688   2.81860   2.83971   2.85118   2.85686
 Alpha virt. eigenvalues --    2.88105   2.89296   2.90276   2.91596   2.93187
 Alpha virt. eigenvalues --    2.94915   2.96140   2.99398   3.00453   3.01614
 Alpha virt. eigenvalues --    3.04910   3.05787   3.07545   3.10033   3.12329
 Alpha virt. eigenvalues --    3.13147   3.15200   3.16151   3.17174   3.18200
 Alpha virt. eigenvalues --    3.20494   3.25015   3.27303   3.28903   3.30578
 Alpha virt. eigenvalues --    3.32140   3.33394   3.36974   3.39382   3.42623
 Alpha virt. eigenvalues --    3.43516   3.46288   3.47241   3.48675   3.51232
 Alpha virt. eigenvalues --    3.53477   3.58096   3.59742   3.60913   3.63325
 Alpha virt. eigenvalues --    3.64614   3.66778   3.70676   3.73577   3.76929
 Alpha virt. eigenvalues --    3.77876   3.82332   3.83476   3.84444   3.88704
 Alpha virt. eigenvalues --    3.91964   3.95179   3.97824   4.00849   4.03089
 Alpha virt. eigenvalues --    4.10054   4.12990   4.15588   4.19516   4.21254
 Alpha virt. eigenvalues --    4.25422   4.29406   4.32677   4.36721   4.39334
 Alpha virt. eigenvalues --    4.41809   4.52759   4.57229   4.82180   4.90347
 Alpha virt. eigenvalues --    5.04506   5.07403   5.08815   5.13577   5.17709
 Alpha virt. eigenvalues --    5.18637   5.23727   5.27099   5.34902   5.35929
 Alpha virt. eigenvalues --    5.41033   5.42456   5.47807   5.50067   5.54227
 Alpha virt. eigenvalues --    5.61499   5.61812   5.63676   5.67779   5.70670
 Alpha virt. eigenvalues --    5.72113   5.73509   5.75881   5.78717   5.79883
 Alpha virt. eigenvalues --    5.83212   5.85427   5.85671   5.86910   5.87402
 Alpha virt. eigenvalues --    5.88855   5.90409   5.91253   5.93248   5.93796
 Alpha virt. eigenvalues --    5.94978   5.96386   5.97942   5.99411   6.00396
 Alpha virt. eigenvalues --    6.00829   6.01804   6.02902   6.04404   6.05419
 Alpha virt. eigenvalues --    6.06961   6.09358   6.11574   6.12387   6.15007
 Alpha virt. eigenvalues --    6.17009   6.18181   6.19186   6.21174   6.23269
 Alpha virt. eigenvalues --    6.24203   6.24630   6.26803   6.27499   6.30415
 Alpha virt. eigenvalues --    6.32011   6.33855   6.36040   6.37964   6.40405
 Alpha virt. eigenvalues --    6.44389   6.46413   6.46971   6.48989   6.49618
 Alpha virt. eigenvalues --    6.52039   6.53243   6.54569   6.58325   6.59485
 Alpha virt. eigenvalues --    6.62137   6.64398   6.67641   6.68621   6.71429
 Alpha virt. eigenvalues --    6.72144   6.73224   6.75351   6.80009   6.82352
 Alpha virt. eigenvalues --    6.82960   6.86564   6.87632   6.88784   6.91248
 Alpha virt. eigenvalues --    6.91409   6.94628   6.96167   6.97739   7.00984
 Alpha virt. eigenvalues --    7.02759   7.05543   7.07694   7.11266   7.13275
 Alpha virt. eigenvalues --    7.13857   7.16991   7.19105   7.20623   7.23102
 Alpha virt. eigenvalues --    7.25445   7.27490   7.29464   7.31575   7.34711
 Alpha virt. eigenvalues --    7.37533   7.39290   7.42898   7.44626   7.45770
 Alpha virt. eigenvalues --    7.46258   7.49590   7.53477   7.55494   7.58584
 Alpha virt. eigenvalues --    7.59191   7.62290   7.65571   7.67352   7.69589
 Alpha virt. eigenvalues --    7.72837   7.73989   7.74508   7.75355   7.78118
 Alpha virt. eigenvalues --    7.80456   7.81882   7.82252   7.84390   7.87639
 Alpha virt. eigenvalues --    7.89481   7.90502   7.91853   7.93016   7.95633
 Alpha virt. eigenvalues --    7.99180   8.00202   8.02078   8.03109   8.03974
 Alpha virt. eigenvalues --    8.05722   8.06859   8.08981   8.10440   8.13136
 Alpha virt. eigenvalues --    8.13457   8.15709   8.19250   8.19980   8.21585
 Alpha virt. eigenvalues --    8.23247   8.25915   8.27462   8.28674   8.30562
 Alpha virt. eigenvalues --    8.32250   8.33898   8.36445   8.39112   8.40077
 Alpha virt. eigenvalues --    8.41475   8.44873   8.46286   8.47845   8.48023
 Alpha virt. eigenvalues --    8.49915   8.50797   8.53142   8.54763   8.55922
 Alpha virt. eigenvalues --    8.58920   8.59806   8.61014   8.62952   8.66952
 Alpha virt. eigenvalues --    8.68897   8.72551   8.73548   8.75848   8.79369
 Alpha virt. eigenvalues --    8.80790   8.83032   8.84046   8.87490   8.90327
 Alpha virt. eigenvalues --    8.92129   8.93897   8.99612   9.02343   9.02898
 Alpha virt. eigenvalues --    9.05035   9.07096   9.09279   9.10319   9.13311
 Alpha virt. eigenvalues --    9.16269   9.20032   9.22837   9.23033   9.26412
 Alpha virt. eigenvalues --    9.29996   9.34501   9.36985   9.39431   9.46209
 Alpha virt. eigenvalues --    9.49034   9.54191   9.57418   9.62202   9.66091
 Alpha virt. eigenvalues --    9.66819   9.69831   9.74924   9.78051   9.79501
 Alpha virt. eigenvalues --    9.81576   9.88096   9.92827   9.96213  10.02600
 Alpha virt. eigenvalues --   10.03872  10.14100  10.17727  10.24074  10.33553
 Alpha virt. eigenvalues --   10.51252  10.57562  10.63215  10.70921  10.91054
 Alpha virt. eigenvalues --   10.94291  10.96448  11.00523  11.43018  11.46327
 Alpha virt. eigenvalues --   11.54219  11.63697  11.71348  12.09244  12.17783
 Alpha virt. eigenvalues --   12.39923  12.66002  12.80224  29.00964  29.10911
 Alpha virt. eigenvalues --   29.22876  29.39059 148.63234 148.73008 148.91058
 Alpha virt. eigenvalues --  149.06221
          Condensed to atoms (all electrons):
               1          2          3          4          5          6
     1  C    4.766404   0.349437   0.416938   0.404935   0.397568  -0.042159
     2  C    0.349437   4.832869  -0.034677  -0.087947  -0.038527   0.357438
     3  H    0.416938  -0.034677   0.662017  -0.038467  -0.038459   0.007017
     4  H    0.404935  -0.087947  -0.038467   0.666578  -0.027189  -0.006959
     5  H    0.397568  -0.038527  -0.038459  -0.027189   0.672108  -0.004440
     6  C   -0.042159   0.357438   0.007017  -0.006959  -0.004440   4.817964
     7  H   -0.075758   0.391447  -0.012507  -0.015788   0.013253  -0.026568
     8  H   -0.045919   0.384309  -0.004964   0.017251  -0.005325  -0.057092
     9  C    0.004537  -0.063761  -0.000660  -0.000774   0.000478   0.387147
    10  H   -0.006614  -0.046871  -0.000270  -0.002341   0.007308   0.423267
    11  H   -0.000865  -0.030295  -0.000186   0.006277  -0.001042   0.366987
    12  H    0.000546  -0.014249  -0.000062  -0.000071   0.000001  -0.037009
    13  H   -0.000773   0.009140   0.000031   0.000072  -0.000010  -0.033451
    14  H    0.000161   0.003451   0.000023   0.000027  -0.000008  -0.008365
               7          8          9         10         11         12
     1  C   -0.075758  -0.045919   0.004537  -0.006614  -0.000865   0.000546
     2  C    0.391447   0.384309  -0.063761  -0.046871  -0.030295  -0.014249
     3  H   -0.012507  -0.004964  -0.000660  -0.000270  -0.000186  -0.000062
     4  H   -0.015788   0.017251  -0.000774  -0.002341   0.006277  -0.000071
     5  H    0.013253  -0.005325   0.000478   0.007308  -0.001042   0.000001
     6  C   -0.026568  -0.057092   0.387147   0.423267   0.366987  -0.037009
     7  H    0.739524  -0.038143   0.001940   0.010442  -0.006786   0.000183
     8  H   -0.038143   0.749048  -0.016243  -0.008846   0.008082   0.001405
     9  C    0.001940  -0.016243   4.804919  -0.029243  -0.015791   0.411003
    10  H    0.010442  -0.008846  -0.029243   0.532916  -0.040800  -0.001141
    11  H   -0.006786   0.008082  -0.015791  -0.040800   0.702421   0.004503
    12  H    0.000183   0.001405   0.411003  -0.001141   0.004503   0.640009
    13  H   -0.000252   0.000752   0.378374  -0.003634  -0.001332  -0.079720
    14  H    0.000577   0.001253   0.301044   0.002278  -0.001909  -0.018517
              13         14
     1  C   -0.000773   0.000161
     2  C    0.009140   0.003451
     3  H    0.000031   0.000023
     4  H    0.000072   0.000027
     5  H   -0.000010  -0.000008
     6  C   -0.033451  -0.008365
     7  H   -0.000252   0.000577
     8  H    0.000752   0.001253
     9  C    0.378374   0.301044
    10  H   -0.003634   0.002278
    11  H   -0.001332  -0.001909
    12  H   -0.079720  -0.018517
    13  H    0.711011  -0.013370
    14  H   -0.013370   0.732746
 Mulliken charges:
               1
     1  C   -0.168436
     2  C   -0.011764
     3  H    0.044225
     4  H    0.084396
     5  H    0.024285
     6  C   -0.143776
     7  H    0.018435
     8  H    0.014432
     9  C   -0.162970
    10  H    0.163548
    11  H    0.010735
    12  H    0.093120
    13  H    0.033161
    14  H    0.000610
 Sum of Mulliken charges =   0.00000
 Mulliken charges with hydrogens summed into heavy atoms:
               1
     1  C   -0.015531
     2  C    0.021103
     6  C    0.030507
     9  C   -0.036079
 Electronic spatial extent (au):  <R**2>=            457.7181
 Charge=              0.0000 electrons
 Dipole moment (field-independent basis, Debye):
    X=              0.5298    Y=              0.1422    Z=             -1.0023  Tot=              1.1426
 Quadrupole moment (field-independent basis, Debye-Ang):
   XX=            -31.3612   YY=            -30.1902   ZZ=            -28.9679
   XY=             -0.2556   XZ=              2.6103   YZ=             -0.2922
 Traceless Quadrupole moment (field-independent basis, Debye-Ang):
   XX=             -1.1881   YY=             -0.0171   ZZ=              1.2052
   XY=             -0.2556   XZ=              2.6103   YZ=             -0.2922
 Octapole moment (field-independent basis, Debye-Ang**2):
  XXX=              7.6005  YYY=              1.1713  ZZZ=             -4.1635  XYY=              2.5771
  XXY=             -3.6991  XXZ=             -5.2342  XZZ=              0.9997  YZZ=              0.8893
  YYZ=             -0.7365  XYZ=             -0.0988
 Hexadecapole moment (field-independent basis, Debye-Ang**3):
 XXXX=           -530.7411 YYYY=           -110.0439 ZZZZ=            -75.0578 XXXY=             -4.5172
 XXXZ=             17.4464 YYYX=             -4.9898 YYYZ=              0.8447 ZZZX=              9.0085
 ZZZY=              0.8016 XXYY=           -103.6872 XXZZ=            -92.5595 YYZZ=            -27.6438
 XXYZ=             -5.3150 YYXZ=              1.9648 ZZXY=              1.5822
 N-N= 1.265427020648D+02 E-N=-6.177632332673D+02  KE= 1.568967079656D+02
 Leave Link  601 at Wed Aug 26 14:15:45 2020, MaxMem=  2097152000 cpu:         1.2
 (Enter /opt/cluster/programs/g09/g09_d.01/g09/l9999.exe)
 1\1\GINC-NODE34\SP\RB2PLYPD3-FC\def2QZVP\C4H10\BOITTIER\26-Aug-2020\0\
 \#p B2PLYPD3/Def2QZVP\\butane_opt\\0,1\C,0,-3.98062,0.196899,0.143603\
 C,0,-2.695447,-0.543211,-0.030883\H,0,-4.933703,-0.46509,0.089261\H,0,
 -3.914224,0.59627,-0.768402\H,0,-4.085217,0.931454,1.072281\C,0,-1.392
 79,0.284308,-0.15053\H,0,-3.121555,-1.281852,-0.885823\H,0,-2.499923,-
 1.295509,0.801242\C,0,-0.149619,-0.72947,0.13931\H,0,-1.558864,0.87300
 5,0.501042\H,0,-1.418381,1.127558,-1.309974\H,0,-0.20747,-1.253551,0.9
 67301\H,0,0.724258,-0.24547,0.714164\H,0,0.602039,-1.97428,-0.980591\\
 Version=ES64L-G09RevD.01\State=1-A\HF=-157.8361528\MP2=-158.0928502\RM
 SD=3.092e-09\PG=C01 [X(C4H10)]\\@


 A people that values its privileges above its principles soon loses both.
 -- Dwight D. Eisenhower
 Job cpu time:       0 days  1 hours 33 minutes 44.0 seconds.
 File lengths (MBytes):  RWF=    152 Int=      0 D2E=      0 Chk=     14 Scr=      1
 Normal termination of Gaussian 09 at Wed Aug 26 14:15:47 2020.
