 Entering Gaussian System, Link 0=/opt/cluster/programs/g09/g09_d.01/g09//g09
 Input=/home/boittier/MDCM/nms_sampling/butane_geom.xyz.dir/energies/butane_opt_1018_energy.com
 Output=/scratch/boittier/butane_opt_1018_energy/butane_opt_1018_energy.out
 Initial command:
 /opt/cluster/programs/g09/g09_d.01/g09/l1.exe "/scratch/boittier/butane_opt_1018_energy/Gau-95421.inp" -scrdir="/scratch/boittier/butane_opt_1018_energy/"
 Entering Link 1 = /opt/cluster/programs/g09/g09_d.01/g09/l1.exe PID=     95422.
  
 Copyright (c) 1988,1990,1992,1993,1995,1998,2003,2009,2013,
            Gaussian, Inc.  All Rights Reserved.
  
 This is part of the Gaussian(R) 09 program.  It is based on
 the Gaussian(R) 03 system (copyright 2003, Gaussian, Inc.),
 the Gaussian(R) 98 system (copyright 1998, Gaussian, Inc.),
 the Gaussian(R) 94 system (copyright 1995, Gaussian, Inc.),
 the Gaussian 92(TM) system (copyright 1992, Gaussian, Inc.),
 the Gaussian 90(TM) system (copyright 1990, Gaussian, Inc.),
 the Gaussian 88(TM) system (copyright 1988, Gaussian, Inc.),
 the Gaussian 86(TM) system (copyright 1986, Carnegie Mellon
 University), and the Gaussian 82(TM) system (copyright 1983,
 Carnegie Mellon University). Gaussian is a federally registered
 trademark of Gaussian, Inc.
  
 This software contains proprietary and confidential information,
 including trade secrets, belonging to Gaussian, Inc.
  
 This software is provided under written license and may be
 used, copied, transmitted, or stored only in accord with that
 written license.
  
 The following legend is applicable only to US Government
 contracts under FAR:
  
                    RESTRICTED RIGHTS LEGEND
  
 Use, reproduction and disclosure by the US Government is
 subject to restrictions as set forth in subparagraphs (a)
 and (c) of the Commercial Computer Software - Restricted
 Rights clause in FAR 52.227-19.
  
 Gaussian, Inc.
 340 Quinnipiac St., Bldg. 40, Wallingford CT 06492
  
  
 ---------------------------------------------------------------
 Warning -- This program may not be used in any manner that
 competes with the business of Gaussian, Inc. or will provide
 assistance to any competitor of Gaussian, Inc.  The licensee
 of this program is prohibited from giving any competitor of
 Gaussian, Inc. access to this program.  By using this program,
 the user acknowledges that Gaussian, Inc. is engaged in the
 business of creating and licensing software in the field of
 computational chemistry and represents and warrants to the
 licensee that it is not a competitor of Gaussian, Inc. and that
 it will not use this program in any manner prohibited above.
 ---------------------------------------------------------------
  

 Cite this work as:
 Gaussian 09, Revision D.01,
 M. J. Frisch, G. W. Trucks, H. B. Schlegel, G. E. Scuseria, 
 M. A. Robb, J. R. Cheeseman, G. Scalmani, V. Barone, B. Mennucci, 
 G. A. Petersson, H. Nakatsuji, M. Caricato, X. Li, H. P. Hratchian, 
 A. F. Izmaylov, J. Bloino, G. Zheng, J. L. Sonnenberg, M. Hada, 
 M. Ehara, K. Toyota, R. Fukuda, J. Hasegawa, M. Ishida, T. Nakajima, 
 Y. Honda, O. Kitao, H. Nakai, T. Vreven, J. A. Montgomery, Jr., 
 J. E. Peralta, F. Ogliaro, M. Bearpark, J. J. Heyd, E. Brothers, 
 K. N. Kudin, V. N. Staroverov, T. Keith, R. Kobayashi, J. Normand, 
 K. Raghavachari, A. Rendell, J. C. Burant, S. S. Iyengar, J. Tomasi, 
 M. Cossi, N. Rega, J. M. Millam, M. Klene, J. E. Knox, J. B. Cross, 
 V. Bakken, C. Adamo, J. Jaramillo, R. Gomperts, R. E. Stratmann, 
 O. Yazyev, A. J. Austin, R. Cammi, C. Pomelli, J. W. Ochterski, 
 R. L. Martin, K. Morokuma, V. G. Zakrzewski, G. A. Voth, 
 P. Salvador, J. J. Dannenberg, S. Dapprich, A. D. Daniels, 
 O. Farkas, J. B. Foresman, J. V. Ortiz, J. Cioslowski, 
 and D. J. Fox, Gaussian, Inc., Wallingford CT, 2013.
 
 ******************************************
 Gaussian 09:  ES64L-G09RevD.01 24-Apr-2013
                26-Aug-2020 
 ******************************************
 %chk=/home/boittier/MDCM/nms_sampling/butane_geom.xyz.dir/butane_opt_1018.chk
 %nproc=8
 Will use up to    8 processors via shared memory.
 %mem=16000MB
 --------------------
 #p B2PLYPD3/Def2QZVP
 --------------------
 1/38=1/1;
 2/12=2,17=6,18=5,40=1/2;
 3/5=45,7=101,11=9,16=1,25=1,30=1,74=-60/1,2,3;
 4//1;
 5/5=2,38=5/2;
 8/10=1/1;
 9/16=-3/6;
 6/7=2,8=2,9=2,10=2/1;
 99/5=1,9=1/99;
 Leave Link    1 at Wed Aug 26 09:29:13 2020, MaxMem=  2097152000 cpu:         0.2
 (Enter /opt/cluster/programs/g09/g09_d.01/g09/l101.exe)
 ----------
 butane_opt
 ----------
 Symbolic Z-matrix:
 Charge =  0 Multiplicity = 1
 C                    -4.06236   0.3159    0.12103 
 C                    -2.72573  -0.67804  -0.14242 
 H                    -4.84839  -0.16688   0.62444 
 H                    -4.38827   1.18594  -0.9371 
 H                    -3.66161   0.84862   0.76987 
 C                    -1.30767   0.14601  -0.09915 
 H                    -2.73721  -1.29493  -0.89388 
 H                    -2.40873  -1.34336   0.80095 
 C                    -0.14387  -0.66297   0.16223 
 H                    -1.28576   0.94963   0.77875 
 H                    -1.21701   0.58591  -0.75249 
 H                    -0.21077  -1.36295   1.10453 
 H                     0.96708   0.15317   0.17885 
 H                    -0.37702  -1.44496  -0.75889 
 
 NAtoms=     14 NQM=       14 NQMF=       0 NMMI=      0 NMMIF=      0
                NMic=       0 NMicF=      0.
                    Isotopes and Nuclear Properties:
 (Nuclear quadrupole moments (NQMom) in fm**2, nuclear magnetic moments (NMagM)
  in nuclear magnetons)

  Atom         1           2           3           4           5           6           7           8           9          10
 IAtWgt=          12          12           1           1           1          12           1           1          12           1
 AtmWgt=  12.0000000  12.0000000   1.0078250   1.0078250   1.0078250  12.0000000   1.0078250   1.0078250  12.0000000   1.0078250
 NucSpn=           0           0           1           1           1           0           1           1           0           1
 AtZEff=   0.0000000   0.0000000   0.0000000   0.0000000   0.0000000   0.0000000   0.0000000   0.0000000   0.0000000   0.0000000
 NQMom=    0.0000000   0.0000000   0.0000000   0.0000000   0.0000000   0.0000000   0.0000000   0.0000000   0.0000000   0.0000000
 NMagM=    0.0000000   0.0000000   2.7928460   2.7928460   2.7928460   0.0000000   2.7928460   2.7928460   0.0000000   2.7928460
 AtZNuc=   6.0000000   6.0000000   1.0000000   1.0000000   1.0000000   6.0000000   1.0000000   1.0000000   6.0000000   1.0000000

  Atom        11          12          13          14
 IAtWgt=           1           1           1           1
 AtmWgt=   1.0078250   1.0078250   1.0078250   1.0078250
 NucSpn=           1           1           1           1
 AtZEff=   0.0000000   0.0000000   0.0000000   0.0000000
 NQMom=    0.0000000   0.0000000   0.0000000   0.0000000
 NMagM=    2.7928460   2.7928460   2.7928460   2.7928460
 AtZNuc=   1.0000000   1.0000000   1.0000000   1.0000000
 Leave Link  101 at Wed Aug 26 09:29:13 2020, MaxMem=  2097152000 cpu:         0.5
 (Enter /opt/cluster/programs/g09/g09_d.01/g09/l202.exe)
                          Input orientation:                          
 ---------------------------------------------------------------------
 Center     Atomic      Atomic             Coordinates (Angstroms)
 Number     Number       Type             X           Y           Z
 ---------------------------------------------------------------------
      1          6           0       -4.062358    0.315901    0.121028
      2          6           0       -2.725726   -0.678039   -0.142423
      3          1           0       -4.848391   -0.166884    0.624443
      4          1           0       -4.388266    1.185935   -0.937102
      5          1           0       -3.661609    0.848615    0.769870
      6          6           0       -1.307670    0.146008   -0.099152
      7          1           0       -2.737207   -1.294930   -0.893875
      8          1           0       -2.408726   -1.343362    0.800954
      9          6           0       -0.143868   -0.662971    0.162232
     10          1           0       -1.285764    0.949630    0.778746
     11          1           0       -1.217012    0.585914   -0.752486
     12          1           0       -0.210766   -1.362954    1.104534
     13          1           0        0.967079    0.153165    0.178846
     14          1           0       -0.377021   -1.444964   -0.758887
 ---------------------------------------------------------------------
                    Distance matrix (angstroms):
                    1          2          3          4          5
     1  C    0.000000
     2  C    1.686389   0.000000
     3  H    1.050883   2.314102   0.000000
     4  H    1.408124   2.621060   2.116662   0.000000
     5  H    0.930258   2.009684   1.568706   1.885622   0.000000
     6  C    2.768691   1.640673   3.627423   3.357630   2.605741
     7  H    2.319662   0.972300   2.834586   2.980362   2.866592
     8  H    2.439252   1.197123   2.714263   3.651953   2.524964
     9  C    4.039115   2.599814   4.753133   4.758351   3.876676
    10  H    2.922957   2.360371   3.736673   3.553237   2.378008
    11  H    2.988633   2.060576   3.955951   3.232794   2.891822
    12  H    4.315159   2.889470   4.813381   5.302511   4.112342
    13  H    5.032401   3.798805   5.841291   5.567017   4.717808
    14  H    4.178110   2.546491   4.851829   4.800362   4.287904
                    6          7          8          9         10
     6  C    0.000000
     7  H    2.179785   0.000000
     8  H    2.059305   1.727047   0.000000
     9  C    1.441251   2.870565   2.449588   0.000000
    10  H    1.190375   3.153157   2.553302   2.069903   0.000000
    11  H    0.792831   2.422511   2.748720   1.883630   1.575337
    12  H    2.220141   3.221982   2.218913   1.175749   2.570954
    13  H    2.291684   4.119399   3.744686   1.378607   2.463643
    14  H    1.957690   2.368799   2.563445   1.230583   2.987342
                   11         12         13         14
    11  H    0.000000
    12  H    2.873872   0.000000
    13  H    2.413484   2.131392   0.000000
    14  H    2.197747   1.872620   2.289097   0.000000
 Stoichiometry    C4H10
 Framework group  C1[X(C4H10)]
 Deg. of freedom    36
 Full point group                 C1      NOp   1
 Largest Abelian subgroup         C1      NOp   1
 Largest concise Abelian subgroup C1      NOp   1
                         Standard orientation:                         
 ---------------------------------------------------------------------
 Center     Atomic      Atomic             Coordinates (Angstroms)
 Number     Number       Type             X           Y           Z
 ---------------------------------------------------------------------
      1          6           0       -2.075899   -0.147021   -0.121137
      2          6           0       -0.583807    0.584353    0.166377
      3          1           0       -2.751227    0.471580   -0.636521
      4          1           0       -2.573839   -0.941110    0.929716
      5          1           0       -1.769249   -0.745065   -0.764323
      6          6           0        0.658984   -0.486542    0.144924
      7          1           0       -0.494108    1.193639    0.918767
      8          1           0       -0.134187    1.178988   -0.770295
      9          6           0        1.955923    0.094255   -0.095553
     10          1           0        0.547284   -1.281426   -0.734095
     11          1           0        0.656297   -0.934913    0.798788
     12          1           0        2.034608    0.793581   -1.037432
     13          1           0        2.897901   -0.912340   -0.095417
     14          1           0        1.855314    0.906787    0.823143
 ---------------------------------------------------------------------
 Rotational constants (GHZ):     21.2442564      3.4001977      3.1956842
 Leave Link  202 at Wed Aug 26 09:29:13 2020, MaxMem=  2097152000 cpu:         0.0
 (Enter /opt/cluster/programs/g09/g09_d.01/g09/l301.exe)
 Standard basis: def2QZVP (5D, 7F)
 Ernie: Thresh=  0.10000D-02 Tol=  0.10000D-05 Strict=F.
 There are   638 symmetry adapted cartesian basis functions of A   symmetry.
 There are   528 symmetry adapted basis functions of A   symmetry.
   528 basis functions,   748 primitive gaussians,   638 cartesian basis functions
    17 alpha electrons       17 beta electrons
       nuclear repulsion energy       127.8143832232 Hartrees.
 IExCor=  419 DFT=T Ex+Corr=B2PLYPD3 ExCW=0 ScaHFX=  0.530000
 ScaDFX=  0.470000  0.470000  0.730000  0.730000 ScalE2=  0.270000  0.270000
 IRadAn=      0 IRanWt=     -1 IRanGd=            0 ICorTp=0 IEmpDi=141
 NAtoms=   14 NActive=   14 NUniq=   14 SFac= 1.00D+00 NAtFMM=   60 NAOKFM=F Big=F
 Integral buffers will be    131072 words long.
 Regular integral format.
 Two-electron integral symmetry is turned on.
 R6Disp:  Grimme-D3(BJ) Dispersion energy=       -0.0066423401 Hartrees.
 Nuclear repulsion after empirical dispersion term =      127.8077408831 Hartrees.
 Leave Link  301 at Wed Aug 26 09:29:13 2020, MaxMem=  2097152000 cpu:         0.4
 (Enter /opt/cluster/programs/g09/g09_d.01/g09/l302.exe)
 NPDir=0 NMtPBC=     1 NCelOv=     1 NCel=       1 NClECP=     1 NCelD=      1
         NCelK=      1 NCelE2=     1 NClLst=     1 CellRange=     0.0.
 One-electron integrals computed using PRISM.
   1 Symmetry operations used in ECPInt.
 ECPInt:  NShTT=   14196 NPrTT=   30597 LenC2=   13826 LenP2D=   25832.
 LDataN:  DoStor=T MaxTD1= 8 Len=  415
 NBasis=   528 RedAO= T EigKep=  2.76D-05  NBF=   528
 NBsUse=   528 1.00D-06 EigRej= -1.00D+00 NBFU=   528
 Precomputing XC quadrature grid using
 IXCGrd= 4 IRadAn=           0 IRanWt=          -1 IRanGd=           0 AccXCQ= 0.00D+00.
 Generated NRdTot=       0 NPtTot=           0 NUsed=           0 NTot=          32
 NSgBfM=   638   638   638   638   638 MxSgAt=    14 MxSgA2=    14.
 Leave Link  302 at Wed Aug 26 09:29:14 2020, MaxMem=  2097152000 cpu:         5.5
 (Enter /opt/cluster/programs/g09/g09_d.01/g09/l303.exe)
 DipDrv:  MaxL=1.
 Leave Link  303 at Wed Aug 26 09:29:14 2020, MaxMem=  2097152000 cpu:         0.5
 (Enter /opt/cluster/programs/g09/g09_d.01/g09/l401.exe)
 ExpMin= 7.60D-02 ExpMax= 6.70D+04 ExpMxC= 6.47D+02 IAcc=2 IRadAn=         4 AccDes= 0.00D+00
 Harris functional with IExCor=  419 and IRadAn=       4 diagonalized for initial guess.
 HarFok:  IExCor=  419 AccDes= 0.00D+00 IRadAn=         4 IDoV= 1 UseB2=F ITyADJ=14
 ICtDFT=  3500011 ScaDFX=  1.000000  1.000000  1.000000  1.000000
 FoFCou: FMM=F IPFlag=           0 FMFlag=      100000 FMFlg1=           0
         NFxFlg=           0 DoJE=T BraDBF=F KetDBF=T FulRan=T
         wScrn=  0.000000 ICntrl=     500 IOpCl=  0 I1Cent=   200000004 NGrid=           0
         NMat0=    1 NMatS0=      1 NMatT0=    0 NMatD0=    1 NMtDS0=    0 NMtDT0=    0
 Petite list used in FoFCou.
 Harris En= -158.373192733939    
 JPrj=0 DoOrth=F DoCkMO=F.
 Leave Link  401 at Wed Aug 26 09:29:16 2020, MaxMem=  2097152000 cpu:        16.5
 (Enter /opt/cluster/programs/g09/g09_d.01/g09/l502.exe)
 Closed shell SCF:
 Using DIIS extrapolation, IDIIS=  1040.
 Integral symmetry usage will be decided dynamically.
 IVT=     1249338 IEndB=     1249338 NGot=  2097152000 MDV=  2096326985
 LenX=  2096326985 LenY=  2095919303
 Requested convergence on RMS density matrix=1.00D-08 within 128 cycles.
 Requested convergence on MAX density matrix=1.00D-06.
 Requested convergence on             energy=1.00D-06.
 No special actions if energy rises.
 Fock matrices will be formed incrementally for  20 cycles.
 Integral accuracy reduced to 1.0D-05 until final iterations.

 Cycle   1  Pass 0  IDiag  1:
 FoFJK:  IHMeth= 1 ICntrl=       0 DoSepK=F KAlg= 0 I1Cent=   0 FoldK=F
 IRaf= 930000000 NMat=   1 IRICut=       1 DoRegI=T DoRafI=F ISym2E= 0.
 FoFCou: FMM=F IPFlag=           0 FMFlag=      100000 FMFlg1=           0
         NFxFlg=           0 DoJE=F BraDBF=F KetDBF=F FulRan=T
         wScrn=  0.000000 ICntrl=       0 IOpCl=  0 I1Cent=           0 NGrid=           0
         NMat0=    1 NMatS0=      1 NMatT0=    0 NMatD0=    1 NMtDS0=    0 NMtDT0=    0
 Symmetry not used in FoFCou.
 E= -157.559962128829    
 DIIS: error= 2.31D-02 at cycle   1 NSaved=   1.
 NSaved= 1 IEnMin= 1 EnMin= -157.559962128829     IErMin= 1 ErrMin= 2.31D-02
 ErrMax= 2.31D-02  0.00D+00 EMaxC= 1.00D-01 BMatC= 3.56D-01 BMatP= 3.56D-01
 IDIUse=3 WtCom= 7.69D-01 WtEn= 2.31D-01
 Coeff-Com:  0.100D+01
 Coeff-En:   0.100D+01
 Coeff:      0.100D+01
 Gap=     0.362 Goal=   None    Shift=    0.000
 GapD=    0.362 DampG=1.000 DampE=0.500 DampFc=0.5000 IDamp=-1.
 Damping current iteration by 5.00D-01
 RMSDP=1.05D-03 MaxDP=6.79D-02              OVMax= 2.11D-01

 Cycle   2  Pass 0  IDiag  1:
 RMSU=  5.00D-04    CP:  9.46D-01
 E= -157.706091449227     Delta-E=       -0.146129320397 Rises=F Damp=T
 DIIS: error= 5.96D-03 at cycle   2 NSaved=   2.
 NSaved= 2 IEnMin= 2 EnMin= -157.706091449227     IErMin= 2 ErrMin= 5.96D-03
 ErrMax= 5.96D-03  0.00D+00 EMaxC= 1.00D-01 BMatC= 3.35D-02 BMatP= 3.56D-01
 IDIUse=3 WtCom= 9.40D-01 WtEn= 5.96D-02
 Coeff-Com: -0.171D+00 0.117D+01
 Coeff-En:   0.000D+00 0.100D+01
 Coeff:     -0.161D+00 0.116D+01
 Gap=     0.435 Goal=   None    Shift=    0.000
 RMSDP=2.59D-04 MaxDP=1.32D-02 DE=-1.46D-01 OVMax= 1.11D-01

 Cycle   3  Pass 0  IDiag  1:
 RMSU=  2.48D-04    CP:  9.36D-01  8.66D-01
 E= -157.842507952397     Delta-E=       -0.136416503171 Rises=F Damp=F
 DIIS: error= 2.97D-03 at cycle   3 NSaved=   3.
 NSaved= 3 IEnMin= 3 EnMin= -157.842507952397     IErMin= 3 ErrMin= 2.97D-03
 ErrMax= 2.97D-03  0.00D+00 EMaxC= 1.00D-01 BMatC= 3.31D-03 BMatP= 3.35D-02
 IDIUse=3 WtCom= 9.70D-01 WtEn= 2.97D-02
 Coeff-Com: -0.103D+00 0.224D+00 0.879D+00
 Coeff-En:   0.000D+00 0.000D+00 0.100D+01
 Coeff:     -0.100D+00 0.218D+00 0.883D+00
 Gap=     0.394 Goal=   None    Shift=    0.000
 RMSDP=6.84D-05 MaxDP=6.49D-03 DE=-1.36D-01 OVMax= 1.60D-02

 Cycle   4  Pass 0  IDiag  1:
 RMSU=  5.38D-05    CP:  9.30D-01  9.44D-01  1.01D+00
 E= -157.845848220091     Delta-E=       -0.003340267694 Rises=F Damp=F
 DIIS: error= 6.43D-04 at cycle   4 NSaved=   4.
 NSaved= 4 IEnMin= 4 EnMin= -157.845848220091     IErMin= 4 ErrMin= 6.43D-04
 ErrMax= 6.43D-04  0.00D+00 EMaxC= 1.00D-01 BMatC= 2.25D-04 BMatP= 3.31D-03
 IDIUse=3 WtCom= 9.94D-01 WtEn= 6.43D-03
 Coeff-Com: -0.282D-01 0.437D-01 0.297D+00 0.687D+00
 Coeff-En:   0.000D+00 0.000D+00 0.000D+00 0.100D+01
 Coeff:     -0.280D-01 0.434D-01 0.295D+00 0.689D+00
 Gap=     0.397 Goal=   None    Shift=    0.000
 RMSDP=1.92D-05 MaxDP=1.57D-03 DE=-3.34D-03 OVMax= 4.10D-03

 Cycle   5  Pass 0  IDiag  1:
 RMSU=  1.55D-05    CP:  9.31D-01  9.32D-01  1.04D+00  8.81D-01
 E= -157.846056257596     Delta-E=       -0.000208037504 Rises=F Damp=F
 DIIS: error= 2.09D-04 at cycle   5 NSaved=   5.
 NSaved= 5 IEnMin= 5 EnMin= -157.846056257596     IErMin= 5 ErrMin= 2.09D-04
 ErrMax= 2.09D-04  0.00D+00 EMaxC= 1.00D-01 BMatC= 2.13D-05 BMatP= 2.25D-04
 IDIUse=3 WtCom= 9.98D-01 WtEn= 2.09D-03
 Coeff-Com: -0.230D-02-0.142D-02 0.457D-01 0.265D+00 0.693D+00
 Coeff-En:   0.000D+00 0.000D+00 0.000D+00 0.000D+00 0.100D+01
 Coeff:     -0.229D-02-0.141D-02 0.456D-01 0.265D+00 0.693D+00
 Gap=     0.397 Goal=   None    Shift=    0.000
 RMSDP=5.75D-06 MaxDP=4.93D-04 DE=-2.08D-04 OVMax= 1.23D-03

 Initial convergence to 1.0D-05 achieved.  Increase integral accuracy.
 Cycle   6  Pass 1  IDiag  1:
 E= -157.846089308833     Delta-E=       -0.000033051237 Rises=F Damp=F
 DIIS: error= 6.15D-05 at cycle   1 NSaved=   1.
 NSaved= 1 IEnMin= 1 EnMin= -157.846089308833     IErMin= 1 ErrMin= 6.15D-05
 ErrMax= 6.15D-05  0.00D+00 EMaxC= 1.00D-01 BMatC= 1.10D-06 BMatP= 1.10D-06
 IDIUse=1 WtCom= 1.00D+00 WtEn= 0.00D+00
 Coeff-Com:  0.100D+01
 Coeff:      0.100D+01
 Gap=     0.397 Goal=   None    Shift=    0.000
 RMSDP=5.75D-06 MaxDP=4.93D-04 DE=-3.31D-05 OVMax= 2.75D-04

 Cycle   7  Pass 1  IDiag  1:
 RMSU=  2.43D-05    CP:  1.00D+00
 E= -157.846089992667     Delta-E=       -0.000000683834 Rises=F Damp=F
 DIIS: error= 1.93D-05 at cycle   2 NSaved=   2.
 NSaved= 2 IEnMin= 2 EnMin= -157.846089992667     IErMin= 2 ErrMin= 1.93D-05
 ErrMax= 1.93D-05  0.00D+00 EMaxC= 1.00D-01 BMatC= 1.43D-07 BMatP= 1.10D-06
 IDIUse=1 WtCom= 1.00D+00 WtEn= 0.00D+00
 Coeff-Com:  0.169D+00 0.831D+00
 Coeff:      0.169D+00 0.831D+00
 Gap=     0.397 Goal=   None    Shift=    0.000
 RMSDP=8.77D-07 MaxDP=4.37D-05 DE=-6.84D-07 OVMax= 1.39D-04

 Cycle   8  Pass 1  IDiag  1:
 RMSU=  6.43D-07    CP:  1.00D+00  1.02D+00
 E= -157.846090092095     Delta-E=       -0.000000099428 Rises=F Damp=F
 DIIS: error= 1.02D-05 at cycle   3 NSaved=   3.
 NSaved= 3 IEnMin= 3 EnMin= -157.846090092095     IErMin= 3 ErrMin= 1.02D-05
 ErrMax= 1.02D-05  0.00D+00 EMaxC= 1.00D-01 BMatC= 6.06D-08 BMatP= 1.43D-07
 IDIUse=1 WtCom= 1.00D+00 WtEn= 0.00D+00
 Coeff-Com: -0.222D-01 0.385D+00 0.637D+00
 Coeff:     -0.222D-01 0.385D+00 0.637D+00
 Gap=     0.397 Goal=   None    Shift=    0.000
 RMSDP=3.05D-07 MaxDP=2.25D-05 DE=-9.94D-08 OVMax= 5.75D-05

 Cycle   9  Pass 1  IDiag  1:
 RMSU=  2.29D-07    CP:  1.00D+00  1.03D+00  8.21D-01
 E= -157.846090154458     Delta-E=       -0.000000062363 Rises=F Damp=F
 DIIS: error= 1.13D-06 at cycle   4 NSaved=   4.
 NSaved= 4 IEnMin= 4 EnMin= -157.846090154458     IErMin= 4 ErrMin= 1.13D-06
 ErrMax= 1.13D-06  0.00D+00 EMaxC= 1.00D-01 BMatC= 4.75D-10 BMatP= 6.06D-08
 IDIUse=1 WtCom= 1.00D+00 WtEn= 0.00D+00
 Coeff-Com: -0.817D-02 0.328D-02 0.489D-01 0.956D+00
 Coeff:     -0.817D-02 0.328D-02 0.489D-01 0.956D+00
 Gap=     0.397 Goal=   None    Shift=    0.000
 RMSDP=5.74D-08 MaxDP=3.55D-06 DE=-6.24D-08 OVMax= 9.50D-06

 Cycle  10  Pass 1  IDiag  1:
 RMSU=  4.11D-08    CP:  1.00D+00  1.03D+00  8.63D-01  1.13D+00
 E= -157.846090155278     Delta-E=       -0.000000000821 Rises=F Damp=F
 DIIS: error= 3.68D-07 at cycle   5 NSaved=   5.
 NSaved= 5 IEnMin= 5 EnMin= -157.846090155278     IErMin= 5 ErrMin= 3.68D-07
 ErrMax= 3.68D-07  0.00D+00 EMaxC= 1.00D-01 BMatC= 6.58D-11 BMatP= 4.75D-10
 IDIUse=1 WtCom= 1.00D+00 WtEn= 0.00D+00
 Coeff-Com:  0.236D-03-0.359D-01-0.522D-01 0.212D+00 0.876D+00
 Coeff:      0.236D-03-0.359D-01-0.522D-01 0.212D+00 0.876D+00
 Gap=     0.397 Goal=   None    Shift=    0.000
 RMSDP=1.90D-08 MaxDP=1.24D-06 DE=-8.21D-10 OVMax= 3.32D-06

 Cycle  11  Pass 1  IDiag  1:
 RMSU=  1.25D-08    CP:  1.00D+00  1.03D+00  8.71D-01  1.18D+00  1.12D+00
 E= -157.846090155365     Delta-E=       -0.000000000087 Rises=F Damp=F
 DIIS: error= 1.30D-07 at cycle   6 NSaved=   6.
 NSaved= 6 IEnMin= 6 EnMin= -157.846090155365     IErMin= 6 ErrMin= 1.30D-07
 ErrMax= 1.30D-07  0.00D+00 EMaxC= 1.00D-01 BMatC= 7.55D-12 BMatP= 6.58D-11
 IDIUse=1 WtCom= 1.00D+00 WtEn= 0.00D+00
 Coeff-Com:  0.423D-03-0.147D-01-0.233D-01 0.541D-01 0.376D+00 0.607D+00
 Coeff:      0.423D-03-0.147D-01-0.233D-01 0.541D-01 0.376D+00 0.607D+00
 Gap=     0.397 Goal=   None    Shift=    0.000
 RMSDP=3.16D-09 MaxDP=1.87D-07 DE=-8.66D-11 OVMax= 6.76D-07

 SCF Done:  E(RB2PLYPD3) =  -157.846090155     A.U. after   11 cycles
            NFock= 11  Conv=0.32D-08     -V/T= 2.0023
 KE= 1.574800604087D+02 PE=-6.208973793082D+02 EE= 1.777634878611D+02
 Leave Link  502 at Wed Aug 26 09:35:57 2020, MaxMem=  2097152000 cpu:      3200.5
 (Enter /opt/cluster/programs/g09/g09_d.01/g09/l801.exe)
 DoSCS=T DFT=T ScalE2(SS,OS)=  0.270000  0.270000
 ExpMin= 7.60D-02 ExpMax= 6.70D+04 ExpMxC= 6.47D+02 IAcc=3 IRadAn=         5 AccDes= 0.00D+00
 HarFok:  IExCor=  205 AccDes= 0.00D+00 IRadAn=         5 IDoV=-2 UseB2=F ITyADJ=14
 ICtDFT= 12500011 ScaDFX=  1.000000  1.000000  1.000000  1.000000
 Largest valence mixing into a core orbital is  1.21D-04
 Largest core mixing into a valence orbital is  1.67D-05
 Range of M.O.s used for correlation:     5   528
 NBasis=   528 NAE=    17 NBE=    17 NFC=     4 NFV=     0
 NROrb=    524 NOA=    13 NOB=    13 NVA=   511 NVB=   511

 **** Warning!!: The largest alpha MO coefficient is  0.30765624D+02

 Leave Link  801 at Wed Aug 26 09:35:57 2020, MaxMem=  2097152000 cpu:         1.2
 (Enter /opt/cluster/programs/g09/g09_d.01/g09/l906.exe)
 DoSCS=T DFT=T ScalE2(SS,OS)=  0.270000  0.270000
 FulOut=F Deriv=F AODrv=F NAtomX=    14
   MMem=         463  MDisk=          13 MDiskD=          13
  W3Min=     4238234 MinDsk=     6904766 NBas6D=         638
 NBas2D=      205689    NTT=      203841    LW2=     4508827
    MDV=  2095907016 MDiskM=        7293 NBas2p=      188290
 Fully direct method using O(OVN) memory.
 IMap=   1   2   3   4   5   6   7   8   9  10  11  12  13
 JobTyp=1 Pass  1:  I=   1 to  13 NPSUse=  8 ParTrn=T ParDer=T DoDerP=F.
 Spin components of T(2) and E(2):
     alpha-alpha T2 =       0.4267405849D-01 E2=     -0.2650406869D-01
     alpha-beta  T2 =       0.2919256049D+00 E2=     -0.1988062058D+00
     beta-beta   T2 =       0.4267405849D-01 E2=     -0.2650406869D-01
 The integrals were generated   1 times.
 E2(B2PLYPD3) =    -0.2518143432D+00 E(B2PLYPD3) =    -0.15809790449854D+03
 Leave Link  906 at Wed Aug 26 09:42:49 2020, MaxMem=  2097152000 cpu:      3292.6
 (Enter /opt/cluster/programs/g09/g09_d.01/g09/l601.exe)
 Copying SCF densities to generalized density rwf, IOpCl= 0 IROHF=0.

 **********************************************************************

            Population analysis using the SCF density.

 **********************************************************************

 Orbital symmetries:
       Occupied  (A) (A) (A) (A) (A) (A) (A) (A) (A) (A) (A) (A)
                 (A) (A) (A) (A) (A)
       Virtual   (A) (A) (A) (A) (A) (A) (A) (A) (A) (A) (A) (A)
                 (A) (A) (A) (A) (A) (A) (A) (A) (A) (A) (A) (A)
                 (A) (A) (A) (A) (A) (A) (A) (A) (A) (A) (A) (A)
                 (A) (A) (A) (A) (A) (A) (A) (A) (A) (A) (A) (A)
                 (A) (A) (A) (A) (A) (A) (A) (A) (A) (A) (A) (A)
                 (A) (A) (A) (A) (A) (A) (A) (A) (A) (A) (A) (A)
                 (A) (A) (A) (A) (A) (A) (A) (A) (A) (A) (A) (A)
                 (A) (A) (A) (A) (A) (A) (A) (A) (A) (A) (A) (A)
                 (A) (A) (A) (A) (A) (A) (A) (A) (A) (A) (A) (A)
                 (A) (A) (A) (A) (A) (A) (A) (A) (A) (A) (A) (A)
                 (A) (A) (A) (A) (A) (A) (A) (A) (A) (A) (A) (A)
                 (A) (A) (A) (A) (A) (A) (A) (A) (A) (A) (A) (A)
                 (A) (A) (A) (A) (A) (A) (A) (A) (A) (A) (A) (A)
                 (A) (A) (A) (A) (A) (A) (A) (A) (A) (A) (A) (A)
                 (A) (A) (A) (A) (A) (A) (A) (A) (A) (A) (A) (A)
                 (A) (A) (A) (A) (A) (A) (A) (A) (A) (A) (A) (A)
                 (A) (A) (A) (A) (A) (A) (A) (A) (A) (A) (A) (A)
                 (A) (A) (A) (A) (A) (A) (A) (A) (A) (A) (A) (A)
                 (A) (A) (A) (A) (A) (A) (A) (A) (A) (A) (A) (A)
                 (A) (A) (A) (A) (A) (A) (A) (A) (A) (A) (A) (A)
                 (A) (A) (A) (A) (A) (A) (A) (A) (A) (A) (A) (A)
                 (A) (A) (A) (A) (A) (A) (A) (A) (A) (A) (A) (A)
                 (A) (A) (A) (A) (A) (A) (A) (A) (A) (A) (A) (A)
                 (A) (A) (A) (A) (A) (A) (A) (A) (A) (A) (A) (A)
                 (A) (A) (A) (A) (A) (A) (A) (A) (A) (A) (A) (A)
                 (A) (A) (A) (A) (A) (A) (A) (A) (A) (A) (A) (A)
                 (A) (A) (A) (A) (A) (A) (A) (A) (A) (A) (A) (A)
                 (A) (A) (A) (A) (A) (A) (A) (A) (A) (A) (A) (A)
                 (A) (A) (A) (A) (A) (A) (A) (A) (A) (A) (A) (A)
                 (A) (A) (A) (A) (A) (A) (A) (A) (A) (A) (A) (A)
                 (A) (A) (A) (A) (A) (A) (A) (A) (A) (A) (A) (A)
                 (A) (A) (A) (A) (A) (A) (A) (A) (A) (A) (A) (A)
                 (A) (A) (A) (A) (A) (A) (A) (A) (A) (A) (A) (A)
                 (A) (A) (A) (A) (A) (A) (A) (A) (A) (A) (A) (A)
                 (A) (A) (A) (A) (A) (A) (A) (A) (A) (A) (A) (A)
                 (A) (A) (A) (A) (A) (A) (A) (A) (A) (A) (A) (A)
                 (A) (A) (A) (A) (A) (A) (A) (A) (A) (A) (A) (A)
                 (A) (A) (A) (A) (A) (A) (A) (A) (A) (A) (A) (A)
                 (A) (A) (A) (A) (A) (A) (A) (A) (A) (A) (A) (A)
                 (A) (A) (A) (A) (A) (A) (A) (A) (A) (A) (A) (A)
                 (A) (A) (A) (A) (A) (A) (A) (A) (A) (A) (A) (A)
                 (A) (A) (A) (A) (A) (A) (A) (A) (A) (A) (A) (A)
                 (A) (A) (A) (A) (A) (A) (A)
 The electronic state is 1-A.
 Alpha  occ. eigenvalues --  -10.64737 -10.62562 -10.62243 -10.58543  -0.92033
 Alpha  occ. eigenvalues --   -0.83136  -0.72830  -0.69536  -0.54443  -0.49410
 Alpha  occ. eigenvalues --   -0.48287  -0.44917  -0.43927  -0.41522  -0.38130
 Alpha  occ. eigenvalues --   -0.35954  -0.35236
 Alpha virt. eigenvalues --    0.04425   0.05414   0.07921   0.08894   0.10231
 Alpha virt. eigenvalues --    0.10614   0.12127   0.12434   0.14048   0.15463
 Alpha virt. eigenvalues --    0.15483   0.15826   0.18696   0.19746   0.20220
 Alpha virt. eigenvalues --    0.20591   0.23377   0.24665   0.26335   0.27852
 Alpha virt. eigenvalues --    0.27867   0.29095   0.31251   0.31790   0.32408
 Alpha virt. eigenvalues --    0.34363   0.34526   0.36567   0.37659   0.38306
 Alpha virt. eigenvalues --    0.41247   0.41766   0.44470   0.45115   0.47099
 Alpha virt. eigenvalues --    0.47922   0.49242   0.52216   0.53359   0.57429
 Alpha virt. eigenvalues --    0.59753   0.61307   0.63007   0.65263   0.65511
 Alpha virt. eigenvalues --    0.66680   0.68718   0.69138   0.69180   0.71926
 Alpha virt. eigenvalues --    0.73351   0.73531   0.74794   0.76581   0.79010
 Alpha virt. eigenvalues --    0.79655   0.81016   0.82146   0.84235   0.85760
 Alpha virt. eigenvalues --    0.87140   0.88976   0.89870   0.90315   0.90864
 Alpha virt. eigenvalues --    0.93388   0.94124   0.95242   0.95508   0.96452
 Alpha virt. eigenvalues --    0.98101   0.98585   1.00750   1.03142   1.03826
 Alpha virt. eigenvalues --    1.04957   1.05854   1.07639   1.07674   1.10439
 Alpha virt. eigenvalues --    1.10731   1.11551   1.14016   1.15954   1.16914
 Alpha virt. eigenvalues --    1.19687   1.20154   1.22950   1.23892   1.25810
 Alpha virt. eigenvalues --    1.28387   1.30147   1.31983   1.32474   1.36193
 Alpha virt. eigenvalues --    1.36806   1.37769   1.41084   1.43483   1.45037
 Alpha virt. eigenvalues --    1.47587   1.50398   1.50621   1.55548   1.57138
 Alpha virt. eigenvalues --    1.58648   1.60936   1.64332   1.66458   1.71745
 Alpha virt. eigenvalues --    1.77806   1.81348   1.84325   1.85379   1.88697
 Alpha virt. eigenvalues --    1.89122   1.91405   1.91901   1.92612   1.95915
 Alpha virt. eigenvalues --    1.97527   1.99009   2.00893   2.02054   2.02956
 Alpha virt. eigenvalues --    2.05141   2.06271   2.07344   2.08897   2.09179
 Alpha virt. eigenvalues --    2.11166   2.12066   2.13220   2.13786   2.15627
 Alpha virt. eigenvalues --    2.16699   2.17928   2.19654   2.19961   2.21139
 Alpha virt. eigenvalues --    2.21422   2.23139   2.24174   2.26197   2.26304
 Alpha virt. eigenvalues --    2.27933   2.30629   2.32745   2.34589   2.36153
 Alpha virt. eigenvalues --    2.38049   2.40667   2.41854   2.43765   2.44599
 Alpha virt. eigenvalues --    2.46721   2.47706   2.48396   2.48926   2.53282
 Alpha virt. eigenvalues --    2.55070   2.56102   2.56791   2.58284   2.59796
 Alpha virt. eigenvalues --    2.61294   2.62339   2.63842   2.64754   2.66040
 Alpha virt. eigenvalues --    2.67648   2.69001   2.71725   2.72453   2.74362
 Alpha virt. eigenvalues --    2.75920   2.78347   2.80248   2.81349   2.83638
 Alpha virt. eigenvalues --    2.84395   2.85754   2.88089   2.88593   2.89699
 Alpha virt. eigenvalues --    2.92442   2.93015   2.94900   2.97924   2.98886
 Alpha virt. eigenvalues --    3.00356   3.02396   3.03128   3.05189   3.06316
 Alpha virt. eigenvalues --    3.08756   3.09679   3.13039   3.14666   3.16394
 Alpha virt. eigenvalues --    3.19142   3.20571   3.23315   3.25642   3.27517
 Alpha virt. eigenvalues --    3.30003   3.31748   3.33170   3.34686   3.35814
 Alpha virt. eigenvalues --    3.37161   3.39267   3.40885   3.42108   3.43651
 Alpha virt. eigenvalues --    3.46145   3.47926   3.51946   3.52600   3.56300
 Alpha virt. eigenvalues --    3.57849   3.60122   3.62181   3.65638   3.67066
 Alpha virt. eigenvalues --    3.67632   3.70368   3.73571   3.75260   3.78814
 Alpha virt. eigenvalues --    3.83089   3.84030   3.87074   3.89839   3.94788
 Alpha virt. eigenvalues --    3.99114   4.01304   4.03913   4.08800   4.11259
 Alpha virt. eigenvalues --    4.12536   4.17639   4.19874   4.22007   4.25903
 Alpha virt. eigenvalues --    4.27871   4.31371   4.35779   4.40959   4.50687
 Alpha virt. eigenvalues --    4.53990   4.57263   4.62850   4.81763   4.96316
 Alpha virt. eigenvalues --    5.06712   5.11115   5.18142   5.19010   5.26373
 Alpha virt. eigenvalues --    5.30040   5.34100   5.36851   5.40476   5.42580
 Alpha virt. eigenvalues --    5.44620   5.46428   5.52535   5.55536   5.57246
 Alpha virt. eigenvalues --    5.61424   5.64673   5.65987   5.69127   5.71295
 Alpha virt. eigenvalues --    5.72155   5.75133   5.77590   5.78563   5.82349
 Alpha virt. eigenvalues --    5.85149   5.87119   5.87433   5.91518   5.92233
 Alpha virt. eigenvalues --    5.93239   5.94002   5.96127   5.96615   5.99160
 Alpha virt. eigenvalues --    6.00110   6.01084   6.03355   6.05479   6.07040
 Alpha virt. eigenvalues --    6.07920   6.09522   6.11966   6.13779   6.14686
 Alpha virt. eigenvalues --    6.16040   6.16797   6.18637   6.20511   6.21566
 Alpha virt. eigenvalues --    6.23276   6.24545   6.27276   6.27595   6.28276
 Alpha virt. eigenvalues --    6.30350   6.30597   6.32948   6.35652   6.37774
 Alpha virt. eigenvalues --    6.38939   6.40556   6.43703   6.45724   6.46970
 Alpha virt. eigenvalues --    6.49535   6.50979   6.52610   6.54538   6.57103
 Alpha virt. eigenvalues --    6.57690   6.58746   6.62179   6.64723   6.66748
 Alpha virt. eigenvalues --    6.69858   6.69960   6.74284   6.75645   6.77649
 Alpha virt. eigenvalues --    6.79051   6.80775   6.83006   6.84507   6.85656
 Alpha virt. eigenvalues --    6.87148   6.90018   6.91976   6.94397   6.95759
 Alpha virt. eigenvalues --    6.98371   7.03130   7.03742   7.06294   7.06944
 Alpha virt. eigenvalues --    7.11051   7.12247   7.14374   7.15360   7.17044
 Alpha virt. eigenvalues --    7.18238   7.22440   7.26698   7.28912   7.30254
 Alpha virt. eigenvalues --    7.33355   7.35683   7.38955   7.40740   7.42183
 Alpha virt. eigenvalues --    7.44715   7.47315   7.50576   7.51590   7.54392
 Alpha virt. eigenvalues --    7.56169   7.57465   7.62004   7.64163   7.66056
 Alpha virt. eigenvalues --    7.68193   7.70074   7.72448   7.75482   7.77713
 Alpha virt. eigenvalues --    7.79601   7.79791   7.81977   7.83542   7.86095
 Alpha virt. eigenvalues --    7.86481   7.87678   7.89768   7.92005   7.93753
 Alpha virt. eigenvalues --    7.96080   7.97508   7.98414   7.99157   8.01986
 Alpha virt. eigenvalues --    8.03613   8.06304   8.08368   8.10450   8.11933
 Alpha virt. eigenvalues --    8.13560   8.16259   8.17589   8.18808   8.21758
 Alpha virt. eigenvalues --    8.22212   8.23742   8.26040   8.27381   8.30166
 Alpha virt. eigenvalues --    8.32173   8.34409   8.35411   8.39127   8.40979
 Alpha virt. eigenvalues --    8.41840   8.45029   8.46177   8.47618   8.50398
 Alpha virt. eigenvalues --    8.52692   8.54107   8.57179   8.58745   8.59634
 Alpha virt. eigenvalues --    8.61892   8.64632   8.65855   8.68627   8.71768
 Alpha virt. eigenvalues --    8.75088   8.75581   8.76509   8.78542   8.80372
 Alpha virt. eigenvalues --    8.82146   8.83849   8.85133   8.87221   8.89936
 Alpha virt. eigenvalues --    8.90837   8.94177   8.94650   8.97152   8.99395
 Alpha virt. eigenvalues --    9.02748   9.04114   9.06904   9.09050   9.12344
 Alpha virt. eigenvalues --    9.13906   9.17286   9.21653   9.22401   9.26563
 Alpha virt. eigenvalues --    9.32019   9.34453   9.36198   9.40679   9.41408
 Alpha virt. eigenvalues --    9.45246   9.46127   9.48787   9.51268   9.52801
 Alpha virt. eigenvalues --    9.53840   9.56874   9.60362   9.65792   9.72877
 Alpha virt. eigenvalues --    9.75441   9.79362   9.85429   9.90174   9.95201
 Alpha virt. eigenvalues --    9.97136  10.00666  10.08269  10.16923  10.22955
 Alpha virt. eigenvalues --   10.33674  10.38531  10.51615  10.57662  10.58057
 Alpha virt. eigenvalues --   10.62300  10.74729  10.76056  11.00562  11.16712
 Alpha virt. eigenvalues --   11.18710  11.24109  11.30810  11.37488  11.73461
 Alpha virt. eigenvalues --   11.76649  11.82312  11.87197  12.28225  12.28847
 Alpha virt. eigenvalues --   12.49849  12.81357  13.29793  28.91335  29.20054
 Alpha virt. eigenvalues --   29.34754  29.77037 148.50449 148.88172 149.01806
 Alpha virt. eigenvalues --  149.49930
          Condensed to atoms (all electrons):
               1          2          3          4          5          6
     1  C    4.752640   0.364805   0.410008   0.371497   0.416693  -0.042785
     2  C    0.364805   4.810322  -0.030777  -0.022603  -0.046109   0.348621
     3  H    0.410008  -0.030777   0.625553  -0.020914  -0.049600   0.006192
     4  H    0.371497  -0.022603  -0.020914   0.664267  -0.023030  -0.000191
     5  H    0.416693  -0.046109  -0.049600  -0.023030   0.588139  -0.010407
     6  C   -0.042785   0.348621   0.006192  -0.000191  -0.010407   5.001542
     7  H   -0.033406   0.388510  -0.001057  -0.001306   0.006879  -0.030637
     8  H   -0.027450   0.381509  -0.003909   0.004521  -0.000703  -0.067829
     9  C    0.004692  -0.052704  -0.000490  -0.000022   0.000206   0.319424
    10  H   -0.007141  -0.031956   0.000626   0.000548   0.002062   0.374025
    11  H    0.000719  -0.020496  -0.000245   0.001109   0.000372   0.457810
    12  H    0.000444  -0.007276  -0.000060  -0.000028   0.000157  -0.036493
    13  H   -0.000615   0.008745   0.000033   0.000028  -0.000105  -0.041766
    14  H   -0.000025  -0.006935   0.000043   0.000059  -0.000058  -0.084446
               7          8          9         10         11         12
     1  C   -0.033406  -0.027450   0.004692  -0.007141   0.000719   0.000444
     2  C    0.388510   0.381509  -0.052704  -0.031956  -0.020496  -0.007276
     3  H   -0.001057  -0.003909  -0.000490   0.000626  -0.000245  -0.000060
     4  H   -0.001306   0.004521  -0.000022   0.000548   0.001109  -0.000028
     5  H    0.006879  -0.000703   0.000206   0.002062   0.000372   0.000157
     6  C   -0.030637  -0.067829   0.319424   0.374025   0.457810  -0.036493
     7  H    0.639377  -0.044127  -0.001237   0.006511  -0.006549   0.000101
     8  H   -0.044127   0.735488  -0.007042  -0.002478   0.009989   0.004162
     9  C   -0.001237  -0.007042   4.802612  -0.071613  -0.016703   0.409449
    10  H    0.006511  -0.002478  -0.071613   0.774119  -0.046098  -0.010412
    11  H   -0.006549   0.009989  -0.016703  -0.046098   0.410540   0.008187
    12  H    0.000101   0.004162   0.409449  -0.010412   0.008187   0.649031
    13  H   -0.000372   0.000147   0.387107  -0.005326  -0.005829  -0.028778
    14  H    0.004298  -0.000253   0.380285   0.021178  -0.015705  -0.040259
              13         14
     1  C   -0.000615  -0.000025
     2  C    0.008745  -0.006935
     3  H    0.000033   0.000043
     4  H    0.000028   0.000059
     5  H   -0.000105  -0.000058
     6  C   -0.041766  -0.084446
     7  H   -0.000372   0.004298
     8  H    0.000147  -0.000253
     9  C    0.387107   0.380285
    10  H   -0.005326   0.021178
    11  H   -0.005829  -0.015705
    12  H   -0.028778  -0.040259
    13  H    0.655016  -0.011906
    14  H   -0.011906   0.724373
 Mulliken charges:
               1
     1  C   -0.210075
     2  C   -0.083655
     3  H    0.064596
     4  H    0.026065
     5  H    0.115503
     6  C   -0.193060
     7  H    0.073014
     8  H    0.017975
     9  C   -0.153964
    10  H   -0.004045
    11  H    0.222898
    12  H    0.051775
    13  H    0.043621
    14  H    0.029352
 Sum of Mulliken charges =   0.00000
 Mulliken charges with hydrogens summed into heavy atoms:
               1
     1  C   -0.003910
     2  C    0.007334
     6  C    0.025793
     9  C   -0.029217
 Electronic spatial extent (au):  <R**2>=            449.5088
 Charge=              0.0000 electrons
 Dipole moment (field-independent basis, Debye):
    X=             -0.1142    Y=             -0.1073    Z=             -0.1561  Tot=              0.2211
 Quadrupole moment (field-independent basis, Debye-Ang):
   XX=            -31.3186   YY=            -29.0847   ZZ=            -28.5613
   XY=             -0.7232   XZ=              0.0750   YZ=             -0.3659
 Traceless Quadrupole moment (field-independent basis, Debye-Ang):
   XX=             -1.6638   YY=              0.5702   ZZ=              1.0936
   XY=             -0.7232   XZ=              0.0750   YZ=             -0.3659
 Octapole moment (field-independent basis, Debye-Ang**2):
  XXX=             -5.8696  YYY=             -0.7545  ZZZ=              0.2074  XYY=              0.7461
  XXY=             -2.9302  XXZ=             -3.7015  XZZ=             -1.4611  YZZ=              0.3023
  YYZ=              0.7023  XYZ=              0.3803
 Hexadecapole moment (field-independent basis, Debye-Ang**3):
 XXXX=           -527.1263 YYYY=           -101.2363 ZZZZ=            -63.2699 XXXY=            -14.6443
 XXXZ=              2.4227 YYYX=             -3.0233 YYYZ=              0.2772 ZZZX=              1.6749
 ZZZY=             -0.6672 XXYY=            -96.4507 XXZZ=            -94.0336 YYZZ=            -24.7388
 XXYZ=             -5.0162 YYXZ=             -1.0279 ZZXY=              1.5240
 N-N= 1.278077408831D+02 E-N=-6.208973628603D+02  KE= 1.574800604087D+02
 Leave Link  601 at Wed Aug 26 09:42:50 2020, MaxMem=  2097152000 cpu:         1.7
 (Enter /opt/cluster/programs/g09/g09_d.01/g09/l9999.exe)
 1\1\GINC-NODE14\SP\RB2PLYPD3-FC\def2QZVP\C4H10\BOITTIER\26-Aug-2020\0\
 \#p B2PLYPD3/Def2QZVP\\butane_opt\\0,1\C,0,-4.062358,0.315901,0.121028
 \C,0,-2.725726,-0.678039,-0.142423\H,0,-4.848391,-0.166884,0.624443\H,
 0,-4.388266,1.185935,-0.937102\H,0,-3.661609,0.848615,0.76987\C,0,-1.3
 0767,0.146008,-0.099152\H,0,-2.737207,-1.29493,-0.893875\H,0,-2.408726
 ,-1.343362,0.800954\C,0,-0.143868,-0.662971,0.162232\H,0,-1.285764,0.9
 4963,0.778746\H,0,-1.217012,0.585914,-0.752486\H,0,-0.210766,-1.362954
 ,1.104534\H,0,0.967079,0.153165,0.178846\H,0,-0.377021,-1.444964,-0.75
 8887\\Version=ES64L-G09RevD.01\State=1-A\HF=-157.8460902\MP2=-158.0979
 045\RMSD=3.159e-09\PG=C01 [X(C4H10)]\\@


 IF YOU DON'T HAVE THE LAW - ARGUE THE FACTS.
 IF YOU DON'T HAVE THE FACTS - ARGUE THE LAW.
 IF YOU DON'T HAVE EITHER - POUND THE TABLE.
 Job cpu time:       0 days  1 hours 48 minutes 40.6 seconds.
 File lengths (MBytes):  RWF=    152 Int=      0 D2E=      0 Chk=     14 Scr=      1
 Normal termination of Gaussian 09 at Wed Aug 26 09:42:50 2020.
