 Entering Gaussian System, Link 0=/opt/cluster/programs/g09/g09_d.01/g09//g09
 Input=/home/boittier/MDCM/nms_sampling/butane_geom.xyz.dir/energies/butane_opt_1774_energy.com
 Output=/scratch/boittier/butane_opt_1774_energy/butane_opt_1774_energy.out
 Initial command:
 /opt/cluster/programs/g09/g09_d.01/g09/l1.exe "/scratch/boittier/butane_opt_1774_energy/Gau-61891.inp" -scrdir="/scratch/boittier/butane_opt_1774_energy/"
 Entering Link 1 = /opt/cluster/programs/g09/g09_d.01/g09/l1.exe PID=     61892.
  
 Copyright (c) 1988,1990,1992,1993,1995,1998,2003,2009,2013,
            Gaussian, Inc.  All Rights Reserved.
  
 This is part of the Gaussian(R) 09 program.  It is based on
 the Gaussian(R) 03 system (copyright 2003, Gaussian, Inc.),
 the Gaussian(R) 98 system (copyright 1998, Gaussian, Inc.),
 the Gaussian(R) 94 system (copyright 1995, Gaussian, Inc.),
 the Gaussian 92(TM) system (copyright 1992, Gaussian, Inc.),
 the Gaussian 90(TM) system (copyright 1990, Gaussian, Inc.),
 the Gaussian 88(TM) system (copyright 1988, Gaussian, Inc.),
 the Gaussian 86(TM) system (copyright 1986, Carnegie Mellon
 University), and the Gaussian 82(TM) system (copyright 1983,
 Carnegie Mellon University). Gaussian is a federally registered
 trademark of Gaussian, Inc.
  
 This software contains proprietary and confidential information,
 including trade secrets, belonging to Gaussian, Inc.
  
 This software is provided under written license and may be
 used, copied, transmitted, or stored only in accord with that
 written license.
  
 The following legend is applicable only to US Government
 contracts under FAR:
  
                    RESTRICTED RIGHTS LEGEND
  
 Use, reproduction and disclosure by the US Government is
 subject to restrictions as set forth in subparagraphs (a)
 and (c) of the Commercial Computer Software - Restricted
 Rights clause in FAR 52.227-19.
  
 Gaussian, Inc.
 340 Quinnipiac St., Bldg. 40, Wallingford CT 06492
  
  
 ---------------------------------------------------------------
 Warning -- This program may not be used in any manner that
 competes with the business of Gaussian, Inc. or will provide
 assistance to any competitor of Gaussian, Inc.  The licensee
 of this program is prohibited from giving any competitor of
 Gaussian, Inc. access to this program.  By using this program,
 the user acknowledges that Gaussian, Inc. is engaged in the
 business of creating and licensing software in the field of
 computational chemistry and represents and warrants to the
 licensee that it is not a competitor of Gaussian, Inc. and that
 it will not use this program in any manner prohibited above.
 ---------------------------------------------------------------
  

 Cite this work as:
 Gaussian 09, Revision D.01,
 M. J. Frisch, G. W. Trucks, H. B. Schlegel, G. E. Scuseria, 
 M. A. Robb, J. R. Cheeseman, G. Scalmani, V. Barone, B. Mennucci, 
 G. A. Petersson, H. Nakatsuji, M. Caricato, X. Li, H. P. Hratchian, 
 A. F. Izmaylov, J. Bloino, G. Zheng, J. L. Sonnenberg, M. Hada, 
 M. Ehara, K. Toyota, R. Fukuda, J. Hasegawa, M. Ishida, T. Nakajima, 
 Y. Honda, O. Kitao, H. Nakai, T. Vreven, J. A. Montgomery, Jr., 
 J. E. Peralta, F. Ogliaro, M. Bearpark, J. J. Heyd, E. Brothers, 
 K. N. Kudin, V. N. Staroverov, T. Keith, R. Kobayashi, J. Normand, 
 K. Raghavachari, A. Rendell, J. C. Burant, S. S. Iyengar, J. Tomasi, 
 M. Cossi, N. Rega, J. M. Millam, M. Klene, J. E. Knox, J. B. Cross, 
 V. Bakken, C. Adamo, J. Jaramillo, R. Gomperts, R. E. Stratmann, 
 O. Yazyev, A. J. Austin, R. Cammi, C. Pomelli, J. W. Ochterski, 
 R. L. Martin, K. Morokuma, V. G. Zakrzewski, G. A. Voth, 
 P. Salvador, J. J. Dannenberg, S. Dapprich, A. D. Daniels, 
 O. Farkas, J. B. Foresman, J. V. Ortiz, J. Cioslowski, 
 and D. J. Fox, Gaussian, Inc., Wallingford CT, 2013.
 
 ******************************************
 Gaussian 09:  ES64L-G09RevD.01 24-Apr-2013
                26-Aug-2020 
 ******************************************
 %chk=/home/boittier/MDCM/nms_sampling/butane_geom.xyz.dir/butane_opt_1774.chk
 %nproc=8
 Will use up to    8 processors via shared memory.
 %mem=16000MB
 --------------------
 #p B2PLYPD3/Def2QZVP
 --------------------
 1/38=1/1;
 2/12=2,17=6,18=5,40=1/2;
 3/5=45,7=101,11=9,16=1,25=1,30=1,74=-60/1,2,3;
 4//1;
 5/5=2,38=5/2;
 8/10=1/1;
 9/16=-3/6;
 6/7=2,8=2,9=2,10=2/1;
 99/5=1,9=1/99;
 Leave Link    1 at Wed Aug 26 13:09:51 2020, MaxMem=  2097152000 cpu:         0.2
 (Enter /opt/cluster/programs/g09/g09_d.01/g09/l101.exe)
 ----------
 butane_opt
 ----------
 Symbolic Z-matrix:
 Charge =  0 Multiplicity = 1
 C                    -3.88257   0.16778  -0.08608 
 C                    -2.67536  -0.53496   0.14931 
 H                    -4.74701  -0.37758  -0.54393 
 H                    -3.60872   0.73184  -1.06168 
 H                    -4.05077   1.08272   0.81531 
 C                    -1.44251   0.25983   0.16392 
 H                    -2.80275  -0.95362  -0.55183 
 H                    -2.81166  -1.6295    1.32089 
 C                    -0.1626   -0.7381   -0.08565 
 H                    -1.54542   1.14319   0.96528 
 H                    -1.76848   0.75236  -0.59062 
 H                     0.05322  -1.4502    0.82926 
 H                     0.54597  -0.14647  -0.46029 
 H                    -0.30376  -1.50004  -0.99177 
 
 NAtoms=     14 NQM=       14 NQMF=       0 NMMI=      0 NMMIF=      0
                NMic=       0 NMicF=      0.
                    Isotopes and Nuclear Properties:
 (Nuclear quadrupole moments (NQMom) in fm**2, nuclear magnetic moments (NMagM)
  in nuclear magnetons)

  Atom         1           2           3           4           5           6           7           8           9          10
 IAtWgt=          12          12           1           1           1          12           1           1          12           1
 AtmWgt=  12.0000000  12.0000000   1.0078250   1.0078250   1.0078250  12.0000000   1.0078250   1.0078250  12.0000000   1.0078250
 NucSpn=           0           0           1           1           1           0           1           1           0           1
 AtZEff=   0.0000000   0.0000000   0.0000000   0.0000000   0.0000000   0.0000000   0.0000000   0.0000000   0.0000000   0.0000000
 NQMom=    0.0000000   0.0000000   0.0000000   0.0000000   0.0000000   0.0000000   0.0000000   0.0000000   0.0000000   0.0000000
 NMagM=    0.0000000   0.0000000   2.7928460   2.7928460   2.7928460   0.0000000   2.7928460   2.7928460   0.0000000   2.7928460
 AtZNuc=   6.0000000   6.0000000   1.0000000   1.0000000   1.0000000   6.0000000   1.0000000   1.0000000   6.0000000   1.0000000

  Atom        11          12          13          14
 IAtWgt=           1           1           1           1
 AtmWgt=   1.0078250   1.0078250   1.0078250   1.0078250
 NucSpn=           1           1           1           1
 AtZEff=   0.0000000   0.0000000   0.0000000   0.0000000
 NQMom=    0.0000000   0.0000000   0.0000000   0.0000000
 NMagM=    2.7928460   2.7928460   2.7928460   2.7928460
 AtZNuc=   1.0000000   1.0000000   1.0000000   1.0000000
 Leave Link  101 at Wed Aug 26 13:09:51 2020, MaxMem=  2097152000 cpu:         0.5
 (Enter /opt/cluster/programs/g09/g09_d.01/g09/l202.exe)
                          Input orientation:                          
 ---------------------------------------------------------------------
 Center     Atomic      Atomic             Coordinates (Angstroms)
 Number     Number       Type             X           Y           Z
 ---------------------------------------------------------------------
      1          6           0       -3.882569    0.167776   -0.086076
      2          6           0       -2.675363   -0.534960    0.149312
      3          1           0       -4.747006   -0.377582   -0.543932
      4          1           0       -3.608716    0.731837   -1.061681
      5          1           0       -4.050766    1.082722    0.815306
      6          6           0       -1.442513    0.259827    0.163918
      7          1           0       -2.802745   -0.953617   -0.551825
      8          1           0       -2.811661   -1.629498    1.320889
      9          6           0       -0.162597   -0.738103   -0.085651
     10          1           0       -1.545421    1.143190    0.965284
     11          1           0       -1.768477    0.752355   -0.590624
     12          1           0        0.053221   -1.450200    0.829262
     13          1           0        0.545965   -0.146465   -0.460294
     14          1           0       -0.303755   -1.500036   -0.991769
 ---------------------------------------------------------------------
                    Distance matrix (angstroms):
                    1          2          3          4          5
     1  C    0.000000
     2  C    1.416542   0.000000
     3  H    1.119955   2.190219   0.000000
     4  H    1.159726   1.985554   1.671699   0.000000
     5  H    1.295340   2.225349   2.112999   1.960002   0.000000
     6  C    2.454556   1.466908   3.439043   2.533243   2.811485
     7  H    1.624951   0.826494   2.027814   1.936569   2.751959
     8  H    2.521228   1.609094   2.964863   3.447875   3.024423
     9  C    3.828682   2.531890   4.621342   3.871575   4.386911
    10  H    2.742089   2.181460   3.852353   2.921470   2.510558
    11  H    2.250708   1.739864   3.185996   1.899683   2.700856
    12  H    4.352716   2.957223   5.106697   4.663339   4.822717
    13  H    4.455412   3.301439   5.298675   4.288876   4.926255
    14  H    4.050899   2.803206   4.604665   3.988598   4.896555
                    6          7          8          9         10
     6  C    0.000000
     7  H    1.958307   0.000000
     8  H    2.604361   1.990968   0.000000
     9  C    1.642052   2.689637   3.128974   0.000000
    10  H    1.197125   2.877340   3.068814   2.560455   0.000000
    11  H    0.958212   1.995384   3.227280   2.248402   1.619678
    12  H    2.367297   3.211003   2.912283   1.179290   3.049562
    13  H    2.123384   3.445828   4.079908   0.996219   2.840665
    14  H    2.393637   2.595588   3.413904   1.192274   3.515457
                   11         12         13         14
    11  H    0.000000
    12  H    3.191537   0.000000
    13  H    2.486263   1.898809   0.000000
    14  H    2.716541   1.856359   1.684234   0.000000
 Stoichiometry    C4H10
 Framework group  C1[X(C4H10)]
 Deg. of freedom    36
 Full point group                 C1      NOp   1
 Largest Abelian subgroup         C1      NOp   1
 Largest concise Abelian subgroup C1      NOp   1
                         Standard orientation:                         
 ---------------------------------------------------------------------
 Center     Atomic      Atomic             Coordinates (Angstroms)
 Number     Number       Type             X           Y           Z
 ---------------------------------------------------------------------
      1          6           0        1.863731   -0.011285   -0.100881
      2          6           0        0.539132    0.437017    0.125070
      3          1           0        2.600584    0.689279   -0.570516
      4          1           0        1.710634   -0.636399   -1.065639
      5          1           0        2.212416   -0.857090    0.816147
      6          6           0       -0.507616   -0.590176    0.156880
      7          1           0        0.580027    0.860184   -0.583697
      8          1           0        0.450063    1.557268    1.276716
      9          6           0       -1.962562    0.123815   -0.107096
     10          1           0       -0.229147   -1.420040    0.973513
     11          1           0       -0.087985   -1.020051   -0.589637
     12          1           0       -2.318884    0.793820    0.795596
     13          1           0       -2.536482   -0.605434   -0.469400
     14          1           0       -1.977341    0.882237   -1.026930
 ---------------------------------------------------------------------
 Rotational constants (GHZ):     20.6979050      3.7789350      3.5595411
 Leave Link  202 at Wed Aug 26 13:09:51 2020, MaxMem=  2097152000 cpu:         0.0
 (Enter /opt/cluster/programs/g09/g09_d.01/g09/l301.exe)
 Standard basis: def2QZVP (5D, 7F)
 Ernie: Thresh=  0.10000D-02 Tol=  0.10000D-05 Strict=F.
 There are   638 symmetry adapted cartesian basis functions of A   symmetry.
 There are   528 symmetry adapted basis functions of A   symmetry.
   528 basis functions,   748 primitive gaussians,   638 cartesian basis functions
    17 alpha electrons       17 beta electrons
       nuclear repulsion energy       131.5460680373 Hartrees.
 IExCor=  419 DFT=T Ex+Corr=B2PLYPD3 ExCW=0 ScaHFX=  0.530000
 ScaDFX=  0.470000  0.470000  0.730000  0.730000 ScalE2=  0.270000  0.270000
 IRadAn=      0 IRanWt=     -1 IRanGd=            0 ICorTp=0 IEmpDi=141
 NAtoms=   14 NActive=   14 NUniq=   14 SFac= 1.00D+00 NAtFMM=   60 NAOKFM=F Big=F
 Integral buffers will be    131072 words long.
 Regular integral format.
 Two-electron integral symmetry is turned on.
 R6Disp:  Grimme-D3(BJ) Dispersion energy=       -0.0070548382 Hartrees.
 Nuclear repulsion after empirical dispersion term =      131.5390131991 Hartrees.
 Leave Link  301 at Wed Aug 26 13:09:51 2020, MaxMem=  2097152000 cpu:         0.4
 (Enter /opt/cluster/programs/g09/g09_d.01/g09/l302.exe)
 NPDir=0 NMtPBC=     1 NCelOv=     1 NCel=       1 NClECP=     1 NCelD=      1
         NCelK=      1 NCelE2=     1 NClLst=     1 CellRange=     0.0.
 One-electron integrals computed using PRISM.
   1 Symmetry operations used in ECPInt.
 ECPInt:  NShTT=   14196 NPrTT=   30597 LenC2=   13896 LenP2D=   26020.
 LDataN:  DoStor=T MaxTD1= 8 Len=  415
 NBasis=   528 RedAO= T EigKep=  2.42D-05  NBF=   528
 NBsUse=   528 1.00D-06 EigRej= -1.00D+00 NBFU=   528
 Precomputing XC quadrature grid using
 IXCGrd= 4 IRadAn=           0 IRanWt=          -1 IRanGd=           0 AccXCQ= 0.00D+00.
 Generated NRdTot=       0 NPtTot=           0 NUsed=           0 NTot=          32
 NSgBfM=   638   638   638   638   638 MxSgAt=    14 MxSgA2=    14.
 Leave Link  302 at Wed Aug 26 13:09:52 2020, MaxMem=  2097152000 cpu:         5.4
 (Enter /opt/cluster/programs/g09/g09_d.01/g09/l303.exe)
 DipDrv:  MaxL=1.
 Leave Link  303 at Wed Aug 26 13:09:52 2020, MaxMem=  2097152000 cpu:         0.5
 (Enter /opt/cluster/programs/g09/g09_d.01/g09/l401.exe)
 ExpMin= 7.60D-02 ExpMax= 6.70D+04 ExpMxC= 6.47D+02 IAcc=2 IRadAn=         4 AccDes= 0.00D+00
 Harris functional with IExCor=  419 and IRadAn=       4 diagonalized for initial guess.
 HarFok:  IExCor=  419 AccDes= 0.00D+00 IRadAn=         4 IDoV= 1 UseB2=F ITyADJ=14
 ICtDFT=  3500011 ScaDFX=  1.000000  1.000000  1.000000  1.000000
 FoFCou: FMM=F IPFlag=           0 FMFlag=      100000 FMFlg1=           0
         NFxFlg=           0 DoJE=T BraDBF=F KetDBF=T FulRan=T
         wScrn=  0.000000 ICntrl=     500 IOpCl=  0 I1Cent=   200000004 NGrid=           0
         NMat0=    1 NMatS0=      1 NMatT0=    0 NMatD0=    1 NMtDS0=    0 NMtDT0=    0
 Petite list used in FoFCou.
 Harris En= -158.371205256695    
 JPrj=0 DoOrth=F DoCkMO=F.
 Leave Link  401 at Wed Aug 26 13:09:54 2020, MaxMem=  2097152000 cpu:        16.2
 (Enter /opt/cluster/programs/g09/g09_d.01/g09/l502.exe)
 Closed shell SCF:
 Using DIIS extrapolation, IDIIS=  1040.
 Integral symmetry usage will be decided dynamically.
 IVT=     1249338 IEndB=     1249338 NGot=  2097152000 MDV=  2096326985
 LenX=  2096326985 LenY=  2095919303
 Requested convergence on RMS density matrix=1.00D-08 within 128 cycles.
 Requested convergence on MAX density matrix=1.00D-06.
 Requested convergence on             energy=1.00D-06.
 No special actions if energy rises.
 Fock matrices will be formed incrementally for  20 cycles.
 Integral accuracy reduced to 1.0D-05 until final iterations.

 Cycle   1  Pass 0  IDiag  1:
 FoFJK:  IHMeth= 1 ICntrl=       0 DoSepK=F KAlg= 0 I1Cent=   0 FoldK=F
 IRaf= 940000000 NMat=   1 IRICut=       1 DoRegI=T DoRafI=F ISym2E= 0.
 FoFCou: FMM=F IPFlag=           0 FMFlag=      100000 FMFlg1=           0
         NFxFlg=           0 DoJE=F BraDBF=F KetDBF=F FulRan=T
         wScrn=  0.000000 ICntrl=       0 IOpCl=  0 I1Cent=           0 NGrid=           0
         NMat0=    1 NMatS0=      1 NMatT0=    0 NMatD0=    1 NMtDS0=    0 NMtDT0=    0
 Symmetry not used in FoFCou.
 E= -157.536605036680    
 DIIS: error= 2.36D-02 at cycle   1 NSaved=   1.
 NSaved= 1 IEnMin= 1 EnMin= -157.536605036680     IErMin= 1 ErrMin= 2.36D-02
 ErrMax= 2.36D-02  0.00D+00 EMaxC= 1.00D-01 BMatC= 3.80D-01 BMatP= 3.80D-01
 IDIUse=3 WtCom= 7.64D-01 WtEn= 2.36D-01
 Coeff-Com:  0.100D+01
 Coeff-En:   0.100D+01
 Coeff:      0.100D+01
 Gap=     0.331 Goal=   None    Shift=    0.000
 GapD=    0.331 DampG=1.000 DampE=0.500 DampFc=0.5000 IDamp=-1.
 Damping current iteration by 5.00D-01
 RMSDP=1.26D-03 MaxDP=7.68D-02              OVMax= 2.80D-01

 Cycle   2  Pass 0  IDiag  1:
 RMSU=  6.01D-04    CP:  9.40D-01
 E= -157.690971092119     Delta-E=       -0.154366055439 Rises=F Damp=T
 DIIS: error= 5.59D-03 at cycle   2 NSaved=   2.
 NSaved= 2 IEnMin= 2 EnMin= -157.690971092119     IErMin= 2 ErrMin= 5.59D-03
 ErrMax= 5.59D-03  0.00D+00 EMaxC= 1.00D-01 BMatC= 3.32D-02 BMatP= 3.80D-01
 IDIUse=3 WtCom= 9.44D-01 WtEn= 5.59D-02
 Coeff-Com: -0.957D-01 0.110D+01
 Coeff-En:   0.000D+00 0.100D+01
 Coeff:     -0.903D-01 0.109D+01
 Gap=     0.474 Goal=   None    Shift=    0.000
 RMSDP=3.67D-04 MaxDP=2.98D-02 DE=-1.54D-01 OVMax= 1.83D-01

 Cycle   3  Pass 0  IDiag  1:
 RMSU=  3.24D-04    CP:  9.29D-01  7.18D-01
 E= -157.848879104001     Delta-E=       -0.157908011882 Rises=F Damp=F
 DIIS: error= 3.80D-03 at cycle   3 NSaved=   3.
 NSaved= 3 IEnMin= 3 EnMin= -157.848879104001     IErMin= 3 ErrMin= 3.80D-03
 ErrMax= 3.80D-03  0.00D+00 EMaxC= 1.00D-01 BMatC= 4.85D-03 BMatP= 3.32D-02
 IDIUse=3 WtCom= 9.62D-01 WtEn= 3.80D-02
 Coeff-Com: -0.102D+00 0.232D+00 0.871D+00
 Coeff-En:   0.000D+00 0.000D+00 0.100D+01
 Coeff:     -0.982D-01 0.223D+00 0.875D+00
 Gap=     0.367 Goal=   None    Shift=    0.000
 RMSDP=8.81D-05 MaxDP=1.01D-02 DE=-1.58D-01 OVMax= 3.17D-02

 Cycle   4  Pass 0  IDiag  1:
 RMSU=  7.08D-05    CP:  9.22D-01  7.98D-01  1.03D+00
 E= -157.853755128615     Delta-E=       -0.004876024614 Rises=F Damp=F
 DIIS: error= 1.13D-03 at cycle   4 NSaved=   4.
 NSaved= 4 IEnMin= 4 EnMin= -157.853755128615     IErMin= 4 ErrMin= 1.13D-03
 ErrMax= 1.13D-03  0.00D+00 EMaxC= 1.00D-01 BMatC= 5.11D-04 BMatP= 4.85D-03
 IDIUse=3 WtCom= 9.89D-01 WtEn= 1.13D-02
 Coeff-Com: -0.334D-01 0.491D-01 0.346D+00 0.638D+00
 Coeff-En:   0.000D+00 0.000D+00 0.000D+00 0.100D+01
 Coeff:     -0.330D-01 0.485D-01 0.342D+00 0.643D+00
 Gap=     0.368 Goal=   None    Shift=    0.000
 RMSDP=2.75D-05 MaxDP=1.95D-03 DE=-4.88D-03 OVMax= 4.87D-03

 Cycle   5  Pass 0  IDiag  1:
 RMSU=  2.04D-05    CP:  9.22D-01  7.80D-01  1.06D+00  8.50D-01
 E= -157.854238574711     Delta-E=       -0.000483446096 Rises=F Damp=F
 DIIS: error= 1.83D-04 at cycle   5 NSaved=   5.
 NSaved= 5 IEnMin= 5 EnMin= -157.854238574711     IErMin= 5 ErrMin= 1.83D-04
 ErrMax= 1.83D-04  0.00D+00 EMaxC= 1.00D-01 BMatC= 1.70D-05 BMatP= 5.11D-04
 IDIUse=3 WtCom= 9.98D-01 WtEn= 1.83D-03
 Coeff-Com: -0.423D-03-0.531D-02 0.279D-01 0.165D+00 0.813D+00
 Coeff-En:   0.000D+00 0.000D+00 0.000D+00 0.000D+00 0.100D+01
 Coeff:     -0.422D-03-0.530D-02 0.278D-01 0.165D+00 0.813D+00
 Gap=     0.368 Goal=   None    Shift=    0.000
 RMSDP=7.61D-06 MaxDP=4.27D-04 DE=-4.83D-04 OVMax= 1.40D-03

 Initial convergence to 1.0D-05 achieved.  Increase integral accuracy.
 Cycle   6  Pass 1  IDiag  1:
 E= -157.854237248903     Delta-E=        0.000001325808 Rises=F Damp=F
 DIIS: error= 3.17D-05 at cycle   1 NSaved=   1.
 NSaved= 1 IEnMin= 1 EnMin= -157.854237248903     IErMin= 1 ErrMin= 3.17D-05
 ErrMax= 3.17D-05  0.00D+00 EMaxC= 1.00D-01 BMatC= 9.34D-07 BMatP= 9.34D-07
 IDIUse=1 WtCom= 1.00D+00 WtEn= 0.00D+00
 Coeff-Com:  0.100D+01
 Coeff:      0.100D+01
 Gap=     0.368 Goal=   None    Shift=    0.000
 RMSDP=7.61D-06 MaxDP=4.27D-04 DE= 1.33D-06 OVMax= 3.67D-04

 Cycle   7  Pass 1  IDiag  1:
 RMSU=  1.71D-05    CP:  1.00D+00
 E= -157.854238025651     Delta-E=       -0.000000776748 Rises=F Damp=F
 DIIS: error= 2.35D-05 at cycle   2 NSaved=   2.
 NSaved= 2 IEnMin= 2 EnMin= -157.854238025651     IErMin= 2 ErrMin= 2.35D-05
 ErrMax= 2.35D-05  0.00D+00 EMaxC= 1.00D-01 BMatC= 2.49D-07 BMatP= 9.34D-07
 IDIUse=1 WtCom= 1.00D+00 WtEn= 0.00D+00
 Coeff-Com:  0.288D+00 0.712D+00
 Coeff:      0.288D+00 0.712D+00
 Gap=     0.368 Goal=   None    Shift=    0.000
 RMSDP=8.22D-07 MaxDP=4.10D-05 DE=-7.77D-07 OVMax= 2.24D-04

 Cycle   8  Pass 1  IDiag  1:
 RMSU=  7.16D-07    CP:  1.00D+00  1.02D+00
 E= -157.854238261286     Delta-E=       -0.000000235635 Rises=F Damp=F
 DIIS: error= 9.23D-06 at cycle   3 NSaved=   3.
 NSaved= 3 IEnMin= 3 EnMin= -157.854238261286     IErMin= 3 ErrMin= 9.23D-06
 ErrMax= 9.23D-06  0.00D+00 EMaxC= 1.00D-01 BMatC= 4.54D-08 BMatP= 2.49D-07
 IDIUse=1 WtCom= 1.00D+00 WtEn= 0.00D+00
 Coeff-Com: -0.362D-01 0.269D+00 0.768D+00
 Coeff:     -0.362D-01 0.269D+00 0.768D+00
 Gap=     0.368 Goal=   None    Shift=    0.000
 RMSDP=4.02D-07 MaxDP=2.76D-05 DE=-2.36D-07 OVMax= 6.48D-05

 Cycle   9  Pass 1  IDiag  1:
 RMSU=  3.13D-07    CP:  1.00D+00  1.04D+00  9.08D-01
 E= -157.854238311069     Delta-E=       -0.000000049783 Rises=F Damp=F
 DIIS: error= 1.62D-06 at cycle   4 NSaved=   4.
 NSaved= 4 IEnMin= 4 EnMin= -157.854238311069     IErMin= 4 ErrMin= 1.62D-06
 ErrMax= 1.62D-06  0.00D+00 EMaxC= 1.00D-01 BMatC= 1.17D-09 BMatP= 4.54D-08
 IDIUse=1 WtCom= 1.00D+00 WtEn= 0.00D+00
 Coeff-Com: -0.221D-01 0.338D-01 0.171D+00 0.817D+00
 Coeff:     -0.221D-01 0.338D-01 0.171D+00 0.817D+00
 Gap=     0.368 Goal=   None    Shift=    0.000
 RMSDP=1.01D-07 MaxDP=6.67D-06 DE=-4.98D-08 OVMax= 2.48D-05

 Cycle  10  Pass 1  IDiag  1:
 RMSU=  7.37D-08    CP:  1.00D+00  1.04D+00  9.63D-01  1.18D+00
 E= -157.854238312672     Delta-E=       -0.000000001604 Rises=F Damp=F
 DIIS: error= 6.49D-07 at cycle   5 NSaved=   5.
 NSaved= 5 IEnMin= 5 EnMin= -157.854238312672     IErMin= 5 ErrMin= 6.49D-07
 ErrMax= 6.49D-07  0.00D+00 EMaxC= 1.00D-01 BMatC= 2.24D-10 BMatP= 1.17D-09
 IDIUse=1 WtCom= 1.00D+00 WtEn= 0.00D+00
 Coeff-Com: -0.361D-02-0.194D-01-0.361D-01 0.267D+00 0.792D+00
 Coeff:     -0.361D-02-0.194D-01-0.361D-01 0.267D+00 0.792D+00
 Gap=     0.368 Goal=   None    Shift=    0.000
 RMSDP=3.44D-08 MaxDP=1.70D-06 DE=-1.60D-09 OVMax= 5.33D-06

 Cycle  11  Pass 1  IDiag  1:
 RMSU=  1.77D-08    CP:  1.00D+00  1.04D+00  9.73D-01  1.27D+00  1.03D+00
 E= -157.854238312935     Delta-E=       -0.000000000263 Rises=F Damp=F
 DIIS: error= 1.32D-07 at cycle   6 NSaved=   6.
 NSaved= 6 IEnMin= 6 EnMin= -157.854238312935     IErMin= 6 ErrMin= 1.32D-07
 ErrMax= 1.32D-07  0.00D+00 EMaxC= 1.00D-01 BMatC= 1.24D-11 BMatP= 2.24D-10
 IDIUse=1 WtCom= 1.00D+00 WtEn= 0.00D+00
 Coeff-Com:  0.741D-03-0.801D-02-0.246D-01 0.209D-01 0.249D+00 0.762D+00
 Coeff:      0.741D-03-0.801D-02-0.246D-01 0.209D-01 0.249D+00 0.762D+00
 Gap=     0.368 Goal=   None    Shift=    0.000
 RMSDP=8.30D-09 MaxDP=6.26D-07 DE=-2.63D-10 OVMax= 2.36D-06

 SCF Done:  E(RB2PLYPD3) =  -157.854238313     A.U. after   11 cycles
            NFock= 11  Conv=0.83D-08     -V/T= 2.0017
 KE= 1.575833226897D+02 PE=-6.282864052013D+02 EE= 1.813098309995D+02
 Leave Link  502 at Wed Aug 26 13:16:36 2020, MaxMem=  2097152000 cpu:      3195.5
 (Enter /opt/cluster/programs/g09/g09_d.01/g09/l801.exe)
 DoSCS=T DFT=T ScalE2(SS,OS)=  0.270000  0.270000
 ExpMin= 7.60D-02 ExpMax= 6.70D+04 ExpMxC= 6.47D+02 IAcc=3 IRadAn=         5 AccDes= 0.00D+00
 HarFok:  IExCor=  205 AccDes= 0.00D+00 IRadAn=         5 IDoV=-2 UseB2=F ITyADJ=14
 ICtDFT= 12500011 ScaDFX=  1.000000  1.000000  1.000000  1.000000
 Largest valence mixing into a core orbital is  1.15D-04
 Largest core mixing into a valence orbital is  1.65D-05
 Range of M.O.s used for correlation:     5   528
 NBasis=   528 NAE=    17 NBE=    17 NFC=     4 NFV=     0
 NROrb=    524 NOA=    13 NOB=    13 NVA=   511 NVB=   511

 **** Warning!!: The largest alpha MO coefficient is  0.35439831D+02

 Leave Link  801 at Wed Aug 26 13:16:37 2020, MaxMem=  2097152000 cpu:         1.2
 (Enter /opt/cluster/programs/g09/g09_d.01/g09/l906.exe)
 DoSCS=T DFT=T ScalE2(SS,OS)=  0.270000  0.270000
 FulOut=F Deriv=F AODrv=F NAtomX=    14
   MMem=         463  MDisk=          13 MDiskD=          13
  W3Min=     4238234 MinDsk=     6904766 NBas6D=         638
 NBas2D=      205689    NTT=      203841    LW2=     4508827
    MDV=  2095896618 MDiskM=        7293 NBas2p=      190856
 Fully direct method using O(OVN) memory.
 IMap=   1   2   3   4   5   6   7   8   9  10  11  12  13
 JobTyp=1 Pass  1:  I=   1 to  13 NPSUse=  8 ParTrn=T ParDer=T DoDerP=F.
 Spin components of T(2) and E(2):
     alpha-alpha T2 =       0.4268742427D-01 E2=     -0.2687158937D-01
     alpha-beta  T2 =       0.2921302037D+00 E2=     -0.1990067569D+00
     beta-beta   T2 =       0.4268742427D-01 E2=     -0.2687158937D-01
 The integrals were generated   1 times.
 E2(B2PLYPD3) =    -0.2527499357D+00 E(B2PLYPD3) =    -0.15810698824860D+03
 Leave Link  906 at Wed Aug 26 13:23:30 2020, MaxMem=  2097152000 cpu:      3286.7
 (Enter /opt/cluster/programs/g09/g09_d.01/g09/l601.exe)
 Copying SCF densities to generalized density rwf, IOpCl= 0 IROHF=0.

 **********************************************************************

            Population analysis using the SCF density.

 **********************************************************************

 Orbital symmetries:
       Occupied  (A) (A) (A) (A) (A) (A) (A) (A) (A) (A) (A) (A)
                 (A) (A) (A) (A) (A)
       Virtual   (A) (A) (A) (A) (A) (A) (A) (A) (A) (A) (A) (A)
                 (A) (A) (A) (A) (A) (A) (A) (A) (A) (A) (A) (A)
                 (A) (A) (A) (A) (A) (A) (A) (A) (A) (A) (A) (A)
                 (A) (A) (A) (A) (A) (A) (A) (A) (A) (A) (A) (A)
                 (A) (A) (A) (A) (A) (A) (A) (A) (A) (A) (A) (A)
                 (A) (A) (A) (A) (A) (A) (A) (A) (A) (A) (A) (A)
                 (A) (A) (A) (A) (A) (A) (A) (A) (A) (A) (A) (A)
                 (A) (A) (A) (A) (A) (A) (A) (A) (A) (A) (A) (A)
                 (A) (A) (A) (A) (A) (A) (A) (A) (A) (A) (A) (A)
                 (A) (A) (A) (A) (A) (A) (A) (A) (A) (A) (A) (A)
                 (A) (A) (A) (A) (A) (A) (A) (A) (A) (A) (A) (A)
                 (A) (A) (A) (A) (A) (A) (A) (A) (A) (A) (A) (A)
                 (A) (A) (A) (A) (A) (A) (A) (A) (A) (A) (A) (A)
                 (A) (A) (A) (A) (A) (A) (A) (A) (A) (A) (A) (A)
                 (A) (A) (A) (A) (A) (A) (A) (A) (A) (A) (A) (A)
                 (A) (A) (A) (A) (A) (A) (A) (A) (A) (A) (A) (A)
                 (A) (A) (A) (A) (A) (A) (A) (A) (A) (A) (A) (A)
                 (A) (A) (A) (A) (A) (A) (A) (A) (A) (A) (A) (A)
                 (A) (A) (A) (A) (A) (A) (A) (A) (A) (A) (A) (A)
                 (A) (A) (A) (A) (A) (A) (A) (A) (A) (A) (A) (A)
                 (A) (A) (A) (A) (A) (A) (A) (A) (A) (A) (A) (A)
                 (A) (A) (A) (A) (A) (A) (A) (A) (A) (A) (A) (A)
                 (A) (A) (A) (A) (A) (A) (A) (A) (A) (A) (A) (A)
                 (A) (A) (A) (A) (A) (A) (A) (A) (A) (A) (A) (A)
                 (A) (A) (A) (A) (A) (A) (A) (A) (A) (A) (A) (A)
                 (A) (A) (A) (A) (A) (A) (A) (A) (A) (A) (A) (A)
                 (A) (A) (A) (A) (A) (A) (A) (A) (A) (A) (A) (A)
                 (A) (A) (A) (A) (A) (A) (A) (A) (A) (A) (A) (A)
                 (A) (A) (A) (A) (A) (A) (A) (A) (A) (A) (A) (A)
                 (A) (A) (A) (A) (A) (A) (A) (A) (A) (A) (A) (A)
                 (A) (A) (A) (A) (A) (A) (A) (A) (A) (A) (A) (A)
                 (A) (A) (A) (A) (A) (A) (A) (A) (A) (A) (A) (A)
                 (A) (A) (A) (A) (A) (A) (A) (A) (A) (A) (A) (A)
                 (A) (A) (A) (A) (A) (A) (A) (A) (A) (A) (A) (A)
                 (A) (A) (A) (A) (A) (A) (A) (A) (A) (A) (A) (A)
                 (A) (A) (A) (A) (A) (A) (A) (A) (A) (A) (A) (A)
                 (A) (A) (A) (A) (A) (A) (A) (A) (A) (A) (A) (A)
                 (A) (A) (A) (A) (A) (A) (A) (A) (A) (A) (A) (A)
                 (A) (A) (A) (A) (A) (A) (A) (A) (A) (A) (A) (A)
                 (A) (A) (A) (A) (A) (A) (A) (A) (A) (A) (A) (A)
                 (A) (A) (A) (A) (A) (A) (A) (A) (A) (A) (A) (A)
                 (A) (A) (A) (A) (A) (A) (A) (A) (A) (A) (A) (A)
                 (A) (A) (A) (A) (A) (A) (A)
 The electronic state is 1-A.
 Alpha  occ. eigenvalues --  -10.63395 -10.62665 -10.61639 -10.61011  -0.96903
 Alpha  occ. eigenvalues --   -0.83880  -0.74583  -0.67826  -0.54548  -0.51558
 Alpha  occ. eigenvalues --   -0.49581  -0.45877  -0.43491  -0.40808  -0.39114
 Alpha  occ. eigenvalues --   -0.37842  -0.32029
 Alpha virt. eigenvalues --    0.04775   0.05582   0.06203   0.08045   0.11028
 Alpha virt. eigenvalues --    0.11483   0.11923   0.12376   0.14118   0.14878
 Alpha virt. eigenvalues --    0.15497   0.17459   0.18368   0.19254   0.19417
 Alpha virt. eigenvalues --    0.22031   0.22981   0.23614   0.25212   0.27707
 Alpha virt. eigenvalues --    0.30034   0.30869   0.31898   0.32499   0.33215
 Alpha virt. eigenvalues --    0.34425   0.35312   0.37344   0.37836   0.38167
 Alpha virt. eigenvalues --    0.40694   0.42496   0.43585   0.44528   0.46978
 Alpha virt. eigenvalues --    0.48676   0.51137   0.51829   0.54692   0.55660
 Alpha virt. eigenvalues --    0.57385   0.59723   0.63643   0.65766   0.67825
 Alpha virt. eigenvalues --    0.68221   0.69282   0.69963   0.71177   0.72147
 Alpha virt. eigenvalues --    0.73996   0.74999   0.76250   0.77600   0.78892
 Alpha virt. eigenvalues --    0.80281   0.82501   0.82778   0.83893   0.84709
 Alpha virt. eigenvalues --    0.86417   0.88183   0.89119   0.89526   0.90556
 Alpha virt. eigenvalues --    0.92269   0.92994   0.96220   0.96500   0.98047
 Alpha virt. eigenvalues --    0.98940   0.99526   1.00877   1.01189   1.03242
 Alpha virt. eigenvalues --    1.04708   1.06512   1.06593   1.09402   1.10303
 Alpha virt. eigenvalues --    1.12430   1.13715   1.15016   1.16594   1.18524
 Alpha virt. eigenvalues --    1.19658   1.20625   1.22790   1.24739   1.27691
 Alpha virt. eigenvalues --    1.28950   1.30243   1.32637   1.34518   1.35809
 Alpha virt. eigenvalues --    1.37680   1.39222   1.41817   1.44564   1.46552
 Alpha virt. eigenvalues --    1.47209   1.49002   1.51354   1.53589   1.58318
 Alpha virt. eigenvalues --    1.59286   1.65629   1.66905   1.69413   1.73108
 Alpha virt. eigenvalues --    1.78236   1.83100   1.85229   1.87667   1.89770
 Alpha virt. eigenvalues --    1.90637   1.91882   1.92348   1.93862   1.95800
 Alpha virt. eigenvalues --    1.97475   1.98263   2.00985   2.02363   2.02609
 Alpha virt. eigenvalues --    2.03805   2.04689   2.06173   2.07308   2.09817
 Alpha virt. eigenvalues --    2.11246   2.11974   2.12553   2.14862   2.15775
 Alpha virt. eigenvalues --    2.18446   2.18953   2.20113   2.20284   2.21746
 Alpha virt. eigenvalues --    2.23768   2.25020   2.27123   2.28766   2.30279
 Alpha virt. eigenvalues --    2.30919   2.33123   2.35144   2.36063   2.39132
 Alpha virt. eigenvalues --    2.41200   2.41336   2.42530   2.43749   2.45287
 Alpha virt. eigenvalues --    2.45386   2.48274   2.49723   2.51753   2.52493
 Alpha virt. eigenvalues --    2.53159   2.54320   2.56204   2.58605   2.58980
 Alpha virt. eigenvalues --    2.59854   2.62823   2.64200   2.66920   2.67551
 Alpha virt. eigenvalues --    2.69961   2.70933   2.72901   2.74265   2.77142
 Alpha virt. eigenvalues --    2.77432   2.79122   2.81322   2.82156   2.83275
 Alpha virt. eigenvalues --    2.85900   2.86639   2.87703   2.89290   2.91532
 Alpha virt. eigenvalues --    2.92563   2.93352   2.95438   2.97960   2.99652
 Alpha virt. eigenvalues --    3.00480   3.03658   3.05702   3.07324   3.10179
 Alpha virt. eigenvalues --    3.11485   3.13488   3.13812   3.14881   3.17144
 Alpha virt. eigenvalues --    3.19381   3.20885   3.23645   3.25651   3.26753
 Alpha virt. eigenvalues --    3.29198   3.32722   3.33696   3.36791   3.37842
 Alpha virt. eigenvalues --    3.41457   3.42999   3.43881   3.44941   3.49871
 Alpha virt. eigenvalues --    3.51582   3.51610   3.53498   3.55649   3.58038
 Alpha virt. eigenvalues --    3.59130   3.62728   3.66463   3.67222   3.69784
 Alpha virt. eigenvalues --    3.73576   3.75302   3.76163   3.78964   3.84850
 Alpha virt. eigenvalues --    3.85710   3.88150   3.90271   3.91721   3.93080
 Alpha virt. eigenvalues --    4.00332   4.04147   4.06491   4.08320   4.09773
 Alpha virt. eigenvalues --    4.13973   4.15373   4.22120   4.24483   4.28387
 Alpha virt. eigenvalues --    4.31203   4.31847   4.32263   4.43047   4.47237
 Alpha virt. eigenvalues --    4.51470   4.58270   4.69964   4.96904   5.05318
 Alpha virt. eigenvalues --    5.09672   5.15396   5.18593   5.21528   5.23283
 Alpha virt. eigenvalues --    5.34190   5.35385   5.41956   5.45830   5.49373
 Alpha virt. eigenvalues --    5.52100   5.55795   5.58290   5.60359   5.62151
 Alpha virt. eigenvalues --    5.64945   5.70814   5.72112   5.74825   5.77279
 Alpha virt. eigenvalues --    5.78560   5.79602   5.81252   5.82314   5.83532
 Alpha virt. eigenvalues --    5.85428   5.87117   5.89320   5.91563   5.93221
 Alpha virt. eigenvalues --    5.95300   5.95599   5.97593   5.98077   6.00571
 Alpha virt. eigenvalues --    6.01200   6.02536   6.03642   6.05207   6.06362
 Alpha virt. eigenvalues --    6.08385   6.09141   6.09537   6.11315   6.12462
 Alpha virt. eigenvalues --    6.14009   6.15901   6.17049   6.18884   6.19816
 Alpha virt. eigenvalues --    6.21681   6.23434   6.25741   6.28514   6.29156
 Alpha virt. eigenvalues --    6.31847   6.32020   6.34503   6.35494   6.37752
 Alpha virt. eigenvalues --    6.39601   6.40446   6.44139   6.44909   6.47284
 Alpha virt. eigenvalues --    6.48433   6.50542   6.52863   6.54714   6.55757
 Alpha virt. eigenvalues --    6.57584   6.61961   6.63918   6.65587   6.67224
 Alpha virt. eigenvalues --    6.69794   6.70191   6.72185   6.77072   6.77998
 Alpha virt. eigenvalues --    6.82298   6.83227   6.85236   6.87270   6.89362
 Alpha virt. eigenvalues --    6.94572   6.95278   6.96042   7.00295   7.02120
 Alpha virt. eigenvalues --    7.04304   7.07465   7.08833   7.09656   7.12519
 Alpha virt. eigenvalues --    7.14049   7.16522   7.18217   7.22146   7.22898
 Alpha virt. eigenvalues --    7.26068   7.26558   7.30790   7.33438   7.34307
 Alpha virt. eigenvalues --    7.35763   7.37337   7.38145   7.41437   7.43982
 Alpha virt. eigenvalues --    7.46230   7.49540   7.51734   7.53907   7.54693
 Alpha virt. eigenvalues --    7.59863   7.62133   7.65893   7.66835   7.68166
 Alpha virt. eigenvalues --    7.68899   7.72496   7.74472   7.75934   7.77677
 Alpha virt. eigenvalues --    7.78742   7.82239   7.83728   7.84085   7.85084
 Alpha virt. eigenvalues --    7.86600   7.91922   7.92657   7.95676   7.96317
 Alpha virt. eigenvalues --    7.97704   7.98748   8.00883   8.01597   8.03579
 Alpha virt. eigenvalues --    8.05160   8.07144   8.08340   8.12157   8.14771
 Alpha virt. eigenvalues --    8.17322   8.19083   8.21161   8.23085   8.24979
 Alpha virt. eigenvalues --    8.26757   8.27907   8.29475   8.32218   8.34262
 Alpha virt. eigenvalues --    8.37123   8.39541   8.40436   8.41850   8.43495
 Alpha virt. eigenvalues --    8.44085   8.44914   8.47642   8.48962   8.51967
 Alpha virt. eigenvalues --    8.53422   8.53943   8.54849   8.56985   8.59347
 Alpha virt. eigenvalues --    8.60205   8.61988   8.65892   8.69875   8.70760
 Alpha virt. eigenvalues --    8.72625   8.74814   8.75474   8.77144   8.78037
 Alpha virt. eigenvalues --    8.82701   8.84284   8.86148   8.90861   8.92177
 Alpha virt. eigenvalues --    8.94454   8.97449   8.99769   9.01496   9.05900
 Alpha virt. eigenvalues --    9.07417   9.08547   9.10550   9.13262   9.16489
 Alpha virt. eigenvalues --    9.16691   9.20224   9.22961   9.25493   9.30795
 Alpha virt. eigenvalues --    9.33149   9.36907   9.40782   9.42455   9.47865
 Alpha virt. eigenvalues --    9.51728   9.54447   9.57351   9.59220   9.64435
 Alpha virt. eigenvalues --    9.65426   9.68422   9.70023   9.75470   9.77453
 Alpha virt. eigenvalues --    9.80349   9.83344   9.86160   9.88830   9.96915
 Alpha virt. eigenvalues --   10.01548  10.02433  10.03321  10.07061  10.12498
 Alpha virt. eigenvalues --   10.20560  10.22210  10.29204  10.32296  10.58318
 Alpha virt. eigenvalues --   10.71287  10.90147  10.91339  10.96200  10.97916
 Alpha virt. eigenvalues --   11.19720  11.24604  11.26531  11.61495  11.67185
 Alpha virt. eigenvalues --   11.84609  12.00063  12.02473  12.18467  12.39660
 Alpha virt. eigenvalues --   12.67667  12.71977  12.78580  29.17092  29.26668
 Alpha virt. eigenvalues --   29.40194  29.53176 148.79936 148.93055 149.07805
 Alpha virt. eigenvalues --  149.22529
          Condensed to atoms (all electrons):
               1          2          3          4          5          6
     1  C    4.815225   0.340069   0.419836   0.369793   0.394720  -0.048181
     2  C    0.340069   5.090896  -0.036841  -0.057696  -0.056963   0.329756
     3  H    0.419836  -0.036841   0.628091  -0.051774  -0.022040   0.007007
     4  H    0.369793  -0.057696  -0.051774   0.764552  -0.030850  -0.020838
     5  H    0.394720  -0.056963  -0.022040  -0.030850   0.670830   0.003946
     6  C   -0.048181   0.329756   0.007007  -0.020838   0.003946   4.828246
     7  H   -0.086414   0.450065  -0.004433  -0.018209   0.014433  -0.027523
     8  H   -0.036208   0.331391  -0.005961   0.013938  -0.006411  -0.040180
     9  C    0.008045  -0.059192  -0.000972   0.001261  -0.000209   0.386759
    10  H   -0.002663  -0.036033  -0.000254   0.000216   0.006325   0.399919
    11  H   -0.019973  -0.071785  -0.000216   0.008741  -0.000973   0.386846
    12  H   -0.000608  -0.001991   0.000021  -0.000068   0.000047  -0.034406
    13  H   -0.000767   0.009011   0.000043   0.000128   0.000054  -0.050728
    14  H    0.000640  -0.006020  -0.000031   0.000283  -0.000063  -0.027280
               7          8          9         10         11         12
     1  C   -0.086414  -0.036208   0.008045  -0.002663  -0.019973  -0.000608
     2  C    0.450065   0.331391  -0.059192  -0.036033  -0.071785  -0.001991
     3  H   -0.004433  -0.005961  -0.000972  -0.000254  -0.000216   0.000021
     4  H   -0.018209   0.013938   0.001261   0.000216   0.008741  -0.000068
     5  H    0.014433  -0.006411  -0.000209   0.006325  -0.000973   0.000047
     6  C   -0.027523  -0.040180   0.386759   0.399919   0.386846  -0.034406
     7  H    0.434997  -0.014166  -0.011389   0.009627  -0.016391   0.000882
     8  H   -0.014166   0.820696  -0.001405  -0.004954   0.014776   0.003745
     9  C   -0.011389  -0.001405   4.687812  -0.025473  -0.030873   0.401909
    10  H    0.009627  -0.004954  -0.025473   0.670035  -0.062253  -0.001435
    11  H   -0.016391   0.014776  -0.030873  -0.062253   0.691386   0.005969
    12  H    0.000882   0.003745   0.401909  -0.001435   0.005969   0.602358
    13  H    0.000729   0.000401   0.400494  -0.001343  -0.001590  -0.018901
    14  H    0.000109   0.000227   0.391838   0.004038  -0.003282  -0.032498
              13         14
     1  C   -0.000767   0.000640
     2  C    0.009011  -0.006020
     3  H    0.000043  -0.000031
     4  H    0.000128   0.000283
     5  H    0.000054  -0.000063
     6  C   -0.050728  -0.027280
     7  H    0.000729   0.000109
     8  H    0.000401   0.000227
     9  C    0.400494   0.391838
    10  H   -0.001343   0.004038
    11  H   -0.001590  -0.003282
    12  H   -0.018901  -0.032498
    13  H    0.636514  -0.046102
    14  H   -0.046102   0.695905
 Mulliken charges:
               1
     1  C   -0.153513
     2  C   -0.224666
     3  H    0.067524
     4  H    0.020522
     5  H    0.027154
     6  C   -0.093344
     7  H    0.267682
     8  H   -0.075887
     9  C   -0.148605
    10  H    0.044248
    11  H    0.099616
    12  H    0.074976
    13  H    0.072057
    14  H    0.022236
 Sum of Mulliken charges =   0.00000
 Mulliken charges with hydrogens summed into heavy atoms:
               1
     1  C   -0.038314
     2  C   -0.032871
     6  C    0.050521
     9  C    0.020664
 Electronic spatial extent (au):  <R**2>=            418.8440
 Charge=              0.0000 electrons
 Dipole moment (field-independent basis, Debye):
    X=             -0.1070    Y=             -0.5407    Z=             -1.2954  Tot=              1.4078
 Quadrupole moment (field-independent basis, Debye-Ang):
   XX=            -29.5634   YY=            -30.1710   ZZ=            -29.2707
   XY=             -0.0432   XZ=             -0.9939   YZ=             -1.3094
 Traceless Quadrupole moment (field-independent basis, Debye-Ang):
   XX=              0.1049   YY=             -0.5026   ZZ=              0.3976
   XY=             -0.0432   XZ=             -0.9939   YZ=             -1.3094
 Octapole moment (field-independent basis, Debye-Ang**2):
  XXX=             -3.1335  YYY=             -3.7715  ZZZ=             -4.5716  XYY=             -1.3512
  XXY=              2.2642  XXZ=             -4.6040  XZZ=             -0.4085  YZZ=             -1.0623
  YYZ=             -1.6970  XYZ=             -2.6380
 Hexadecapole moment (field-independent basis, Debye-Ang**3):
 XXXX=           -449.8527 YYYY=           -109.6120 ZZZZ=            -76.1956 XXXY=              6.8227
 XXXZ=             -6.2185 YYYX=              0.8540 YYYZ=             -5.6508 ZZZX=             -2.5444
 ZZZY=             -4.2981 XXYY=            -88.6240 XXZZ=            -82.7890 YYZZ=            -28.5147
 XXYZ=             -2.3082 YYXZ=             -0.9844 ZZXY=             -1.7153
 N-N= 1.315390131991D+02 E-N=-6.282863717498D+02  KE= 1.575833226897D+02
 Leave Link  601 at Wed Aug 26 13:23:31 2020, MaxMem=  2097152000 cpu:         1.2
 (Enter /opt/cluster/programs/g09/g09_d.01/g09/l9999.exe)
 1\1\GINC-NODE01\SP\RB2PLYPD3-FC\def2QZVP\C4H10\BOITTIER\26-Aug-2020\0\
 \#p B2PLYPD3/Def2QZVP\\butane_opt\\0,1\C,0,-3.882569,0.167776,-0.08607
 6\C,0,-2.675363,-0.53496,0.149312\H,0,-4.747006,-0.377582,-0.543932\H,
 0,-3.608716,0.731837,-1.061681\H,0,-4.050766,1.082722,0.815306\C,0,-1.
 442513,0.259827,0.163918\H,0,-2.802745,-0.953617,-0.551825\H,0,-2.8116
 61,-1.629498,1.320889\C,0,-0.162597,-0.738103,-0.085651\H,0,-1.545421,
 1.14319,0.965284\H,0,-1.768477,0.752355,-0.590624\H,0,0.053221,-1.4502
 ,0.829262\H,0,0.545965,-0.146465,-0.460294\H,0,-0.303755,-1.500036,-0.
 991769\\Version=ES64L-G09RevD.01\State=1-A\HF=-157.8542383\MP2=-158.10
 69882\RMSD=8.297e-09\PG=C01 [X(C4H10)]\\@


 NEVER LOSE YOUR IGNORANCE, IT CAN'T BE REPLACED.
   -- ANDY CAPP
 Job cpu time:       0 days  1 hours 48 minutes 28.5 seconds.
 File lengths (MBytes):  RWF=    152 Int=      0 D2E=      0 Chk=     14 Scr=      1
 Normal termination of Gaussian 09 at Wed Aug 26 13:23:32 2020.
