 Entering Gaussian System, Link 0=/opt/cluster/programs/g09/g09_d.01/g09//g09
 Input=/home/boittier/MDCM/nms_sampling/butane_geom.xyz.dir/energies/butane_opt_1585_energy.com
 Output=/scratch/boittier/butane_opt_1585_energy/butane_opt_1585_energy.out
 Initial command:
 /opt/cluster/programs/g09/g09_d.01/g09/l1.exe "/scratch/boittier/butane_opt_1585_energy/Gau-53155.inp" -scrdir="/scratch/boittier/butane_opt_1585_energy/"
 Entering Link 1 = /opt/cluster/programs/g09/g09_d.01/g09/l1.exe PID=     53156.
  
 Copyright (c) 1988,1990,1992,1993,1995,1998,2003,2009,2013,
            Gaussian, Inc.  All Rights Reserved.
  
 This is part of the Gaussian(R) 09 program.  It is based on
 the Gaussian(R) 03 system (copyright 2003, Gaussian, Inc.),
 the Gaussian(R) 98 system (copyright 1998, Gaussian, Inc.),
 the Gaussian(R) 94 system (copyright 1995, Gaussian, Inc.),
 the Gaussian 92(TM) system (copyright 1992, Gaussian, Inc.),
 the Gaussian 90(TM) system (copyright 1990, Gaussian, Inc.),
 the Gaussian 88(TM) system (copyright 1988, Gaussian, Inc.),
 the Gaussian 86(TM) system (copyright 1986, Carnegie Mellon
 University), and the Gaussian 82(TM) system (copyright 1983,
 Carnegie Mellon University). Gaussian is a federally registered
 trademark of Gaussian, Inc.
  
 This software contains proprietary and confidential information,
 including trade secrets, belonging to Gaussian, Inc.
  
 This software is provided under written license and may be
 used, copied, transmitted, or stored only in accord with that
 written license.
  
 The following legend is applicable only to US Government
 contracts under FAR:
  
                    RESTRICTED RIGHTS LEGEND
  
 Use, reproduction and disclosure by the US Government is
 subject to restrictions as set forth in subparagraphs (a)
 and (c) of the Commercial Computer Software - Restricted
 Rights clause in FAR 52.227-19.
  
 Gaussian, Inc.
 340 Quinnipiac St., Bldg. 40, Wallingford CT 06492
  
  
 ---------------------------------------------------------------
 Warning -- This program may not be used in any manner that
 competes with the business of Gaussian, Inc. or will provide
 assistance to any competitor of Gaussian, Inc.  The licensee
 of this program is prohibited from giving any competitor of
 Gaussian, Inc. access to this program.  By using this program,
 the user acknowledges that Gaussian, Inc. is engaged in the
 business of creating and licensing software in the field of
 computational chemistry and represents and warrants to the
 licensee that it is not a competitor of Gaussian, Inc. and that
 it will not use this program in any manner prohibited above.
 ---------------------------------------------------------------
  

 Cite this work as:
 Gaussian 09, Revision D.01,
 M. J. Frisch, G. W. Trucks, H. B. Schlegel, G. E. Scuseria, 
 M. A. Robb, J. R. Cheeseman, G. Scalmani, V. Barone, B. Mennucci, 
 G. A. Petersson, H. Nakatsuji, M. Caricato, X. Li, H. P. Hratchian, 
 A. F. Izmaylov, J. Bloino, G. Zheng, J. L. Sonnenberg, M. Hada, 
 M. Ehara, K. Toyota, R. Fukuda, J. Hasegawa, M. Ishida, T. Nakajima, 
 Y. Honda, O. Kitao, H. Nakai, T. Vreven, J. A. Montgomery, Jr., 
 J. E. Peralta, F. Ogliaro, M. Bearpark, J. J. Heyd, E. Brothers, 
 K. N. Kudin, V. N. Staroverov, T. Keith, R. Kobayashi, J. Normand, 
 K. Raghavachari, A. Rendell, J. C. Burant, S. S. Iyengar, J. Tomasi, 
 M. Cossi, N. Rega, J. M. Millam, M. Klene, J. E. Knox, J. B. Cross, 
 V. Bakken, C. Adamo, J. Jaramillo, R. Gomperts, R. E. Stratmann, 
 O. Yazyev, A. J. Austin, R. Cammi, C. Pomelli, J. W. Ochterski, 
 R. L. Martin, K. Morokuma, V. G. Zakrzewski, G. A. Voth, 
 P. Salvador, J. J. Dannenberg, S. Dapprich, A. D. Daniels, 
 O. Farkas, J. B. Foresman, J. V. Ortiz, J. Cioslowski, 
 and D. J. Fox, Gaussian, Inc., Wallingford CT, 2013.
 
 ******************************************
 Gaussian 09:  ES64L-G09RevD.01 24-Apr-2013
                26-Aug-2020 
 ******************************************
 %chk=/home/boittier/MDCM/nms_sampling/butane_geom.xyz.dir/butane_opt_1585.chk
 %nproc=8
 Will use up to    8 processors via shared memory.
 %mem=16000MB
 --------------------
 #p B2PLYPD3/Def2QZVP
 --------------------
 1/38=1/1;
 2/12=2,17=6,18=5,40=1/2;
 3/5=45,7=101,11=9,16=1,25=1,30=1,74=-60/1,2,3;
 4//1;
 5/5=2,38=5/2;
 8/10=1/1;
 9/16=-3/6;
 6/7=2,8=2,9=2,10=2/1;
 99/5=1,9=1/99;
 Leave Link    1 at Wed Aug 26 12:10:10 2020, MaxMem=  2097152000 cpu:         0.2
 (Enter /opt/cluster/programs/g09/g09_d.01/g09/l101.exe)
 ----------
 butane_opt
 ----------
 Symbolic Z-matrix:
 Charge =  0 Multiplicity = 1
 C                    -3.99968   0.28697  -0.16594 
 C                    -2.71359  -0.61037   0.21146 
 H                    -4.741    -0.24325  -0.15116 
 H                    -4.06044   1.05943  -1.18424 
 H                    -4.28586   1.06529   0.74971 
 C                    -1.36668   0.1237    0.20182 
 H                    -2.66299  -1.35071  -0.59999 
 H                    -2.91771  -1.47202   1.24486 
 C                    -0.11223  -0.67259  -0.13556 
 H                    -1.14385   1.16759   1.22174 
 H                    -1.34907   0.33456  -0.45164 
 H                    -0.20397  -1.49377   0.92951 
 H                     0.99824   0.05735  -0.63062 
 H                    -0.34473  -1.07456  -1.0334 
 
 NAtoms=     14 NQM=       14 NQMF=       0 NMMI=      0 NMMIF=      0
                NMic=       0 NMicF=      0.
                    Isotopes and Nuclear Properties:
 (Nuclear quadrupole moments (NQMom) in fm**2, nuclear magnetic moments (NMagM)
  in nuclear magnetons)

  Atom         1           2           3           4           5           6           7           8           9          10
 IAtWgt=          12          12           1           1           1          12           1           1          12           1
 AtmWgt=  12.0000000  12.0000000   1.0078250   1.0078250   1.0078250  12.0000000   1.0078250   1.0078250  12.0000000   1.0078250
 NucSpn=           0           0           1           1           1           0           1           1           0           1
 AtZEff=   0.0000000   0.0000000   0.0000000   0.0000000   0.0000000   0.0000000   0.0000000   0.0000000   0.0000000   0.0000000
 NQMom=    0.0000000   0.0000000   0.0000000   0.0000000   0.0000000   0.0000000   0.0000000   0.0000000   0.0000000   0.0000000
 NMagM=    0.0000000   0.0000000   2.7928460   2.7928460   2.7928460   0.0000000   2.7928460   2.7928460   0.0000000   2.7928460
 AtZNuc=   6.0000000   6.0000000   1.0000000   1.0000000   1.0000000   6.0000000   1.0000000   1.0000000   6.0000000   1.0000000

  Atom        11          12          13          14
 IAtWgt=           1           1           1           1
 AtmWgt=   1.0078250   1.0078250   1.0078250   1.0078250
 NucSpn=           1           1           1           1
 AtZEff=   0.0000000   0.0000000   0.0000000   0.0000000
 NQMom=    0.0000000   0.0000000   0.0000000   0.0000000
 NMagM=    2.7928460   2.7928460   2.7928460   2.7928460
 AtZNuc=   1.0000000   1.0000000   1.0000000   1.0000000
 Leave Link  101 at Wed Aug 26 12:10:10 2020, MaxMem=  2097152000 cpu:         0.5
 (Enter /opt/cluster/programs/g09/g09_d.01/g09/l202.exe)
                          Input orientation:                          
 ---------------------------------------------------------------------
 Center     Atomic      Atomic             Coordinates (Angstroms)
 Number     Number       Type             X           Y           Z
 ---------------------------------------------------------------------
      1          6           0       -3.999684    0.286966   -0.165939
      2          6           0       -2.713593   -0.610370    0.211460
      3          1           0       -4.741000   -0.243250   -0.151156
      4          1           0       -4.060442    1.059432   -1.184238
      5          1           0       -4.285858    1.065294    0.749707
      6          6           0       -1.366683    0.123698    0.201815
      7          1           0       -2.662990   -1.350707   -0.599985
      8          1           0       -2.917705   -1.472018    1.244859
      9          6           0       -0.112233   -0.672594   -0.135558
     10          1           0       -1.143853    1.167585    1.221735
     11          1           0       -1.349070    0.334563   -0.451641
     12          1           0       -0.203969   -1.493767    0.929506
     13          1           0        0.998244    0.057354   -0.630615
     14          1           0       -0.344726   -1.074561   -1.033403
 ---------------------------------------------------------------------
                    Distance matrix (angstroms):
                    1          2          3          4          5
     1  C    0.000000
     2  C    1.612970   0.000000
     3  H    0.911535   2.092044   0.000000
     4  H    1.279581   2.559339   1.796496   0.000000
     5  H    1.235353   2.359995   1.652572   1.947046   0.000000
     6  C    2.663568   1.533987   3.412514   3.170659   3.115826
     7  H    2.158036   1.099592   2.397089   2.846576   3.208182
     8  H    2.501011   1.360887   2.604445   3.689797   2.924888
     9  C    4.004242   2.625141   4.648663   4.437116   4.606853
    10  H    3.294981   2.577957   4.100579   3.782446   3.178910
    11  H    2.666392   1.787323   3.453889   2.900633   3.256060
    12  H    4.333412   2.755756   4.828693   5.085187   4.821093
    13  H    5.024732   3.864283   5.767076   5.186614   5.553644
    14  H    3.995619   2.716006   4.560336   4.287566   4.826073
                    6          7          8          9         10
     6  C    0.000000
     7  H    2.120652   0.000000
     8  H    2.457625   1.866292   0.000000
     9  C    1.523662   2.679905   3.227275   0.000000
    10  H    1.476343   3.459514   3.180344   2.508534   0.000000
    11  H    0.686862   2.142085   2.932996   1.626050   1.880486
    12  H    2.120762   2.899413   2.732084   1.347999   2.837530
    13  H    2.508031   3.922781   4.603372   1.418120   3.041775
    14  H    2.001496   2.374543   3.459577   1.010820   3.278943
                   11         12         13         14
    11  H    0.000000
    12  H    2.561565   0.000000
    13  H    2.370392   2.507044   0.000000
    14  H    1.825592   2.012103   1.801954   0.000000
 Stoichiometry    C4H10
 Framework group  C1[X(C4H10)]
 Deg. of freedom    36
 Full point group                 C1      NOp   1
 Largest Abelian subgroup         C1      NOp   1
 Largest concise Abelian subgroup C1      NOp   1
                         Standard orientation:                         
 ---------------------------------------------------------------------
 Center     Atomic      Atomic             Coordinates (Angstroms)
 Number     Number       Type             X           Y           Z
 ---------------------------------------------------------------------
      1          6           0        2.001880   -0.174204   -0.168299
      2          6           0        0.577455    0.535138    0.095368
      3          1           0        2.636456    0.472283   -0.269616
      4          1           0        2.195998   -1.088805   -1.041885
      5          1           0        2.426091   -0.719346    0.855890
      6          6           0       -0.616463   -0.414291    0.257412
      7          1           0        0.392201    1.102890   -0.827909
      8          1           0        0.628040    1.585269    0.959474
      9          6           0       -1.994370    0.078659   -0.166758
     10          1           0       -0.645154   -1.288019    1.447104
     11          1           0       -0.598531   -0.735112   -0.349656
     12          1           0       -2.046990    1.075339    0.739312
     13          1           0       -2.958230   -0.909509   -0.491658
     14          1           0       -1.840898    0.353203   -1.127397
 ---------------------------------------------------------------------
 Rotational constants (GHZ):     19.9108627      3.3833185      3.2405082
 Leave Link  202 at Wed Aug 26 12:10:10 2020, MaxMem=  2097152000 cpu:         0.0
 (Enter /opt/cluster/programs/g09/g09_d.01/g09/l301.exe)
 Standard basis: def2QZVP (5D, 7F)
 Ernie: Thresh=  0.10000D-02 Tol=  0.10000D-05 Strict=F.
 There are   638 symmetry adapted cartesian basis functions of A   symmetry.
 There are   528 symmetry adapted basis functions of A   symmetry.
   528 basis functions,   748 primitive gaussians,   638 cartesian basis functions
    17 alpha electrons       17 beta electrons
       nuclear repulsion energy       127.2399018247 Hartrees.
 IExCor=  419 DFT=T Ex+Corr=B2PLYPD3 ExCW=0 ScaHFX=  0.530000
 ScaDFX=  0.470000  0.470000  0.730000  0.730000 ScalE2=  0.270000  0.270000
 IRadAn=      0 IRanWt=     -1 IRanGd=            0 ICorTp=0 IEmpDi=141
 NAtoms=   14 NActive=   14 NUniq=   14 SFac= 1.00D+00 NAtFMM=   60 NAOKFM=F Big=F
 Integral buffers will be    131072 words long.
 Regular integral format.
 Two-electron integral symmetry is turned on.
 R6Disp:  Grimme-D3(BJ) Dispersion energy=       -0.0070217287 Hartrees.
 Nuclear repulsion after empirical dispersion term =      127.2328800961 Hartrees.
 Leave Link  301 at Wed Aug 26 12:10:10 2020, MaxMem=  2097152000 cpu:         0.4
 (Enter /opt/cluster/programs/g09/g09_d.01/g09/l302.exe)
 NPDir=0 NMtPBC=     1 NCelOv=     1 NCel=       1 NClECP=     1 NCelD=      1
         NCelK=      1 NCelE2=     1 NClLst=     1 CellRange=     0.0.
 One-electron integrals computed using PRISM.
   1 Symmetry operations used in ECPInt.
 ECPInt:  NShTT=   14196 NPrTT=   30597 LenC2=   13799 LenP2D=   25664.
 LDataN:  DoStor=T MaxTD1= 8 Len=  415
 NBasis=   528 RedAO= T EigKep=  1.58D-05  NBF=   528
 NBsUse=   528 1.00D-06 EigRej= -1.00D+00 NBFU=   528
 Precomputing XC quadrature grid using
 IXCGrd= 4 IRadAn=           0 IRanWt=          -1 IRanGd=           0 AccXCQ= 0.00D+00.
 Generated NRdTot=       0 NPtTot=           0 NUsed=           0 NTot=          32
 NSgBfM=   637   637   637   637   637 MxSgAt=    14 MxSgA2=    14.
 Leave Link  302 at Wed Aug 26 12:10:11 2020, MaxMem=  2097152000 cpu:         4.7
 (Enter /opt/cluster/programs/g09/g09_d.01/g09/l303.exe)
 DipDrv:  MaxL=1.
 Leave Link  303 at Wed Aug 26 12:10:11 2020, MaxMem=  2097152000 cpu:         0.5
 (Enter /opt/cluster/programs/g09/g09_d.01/g09/l401.exe)
 ExpMin= 7.60D-02 ExpMax= 6.70D+04 ExpMxC= 6.47D+02 IAcc=2 IRadAn=         4 AccDes= 0.00D+00
 Harris functional with IExCor=  419 and IRadAn=       4 diagonalized for initial guess.
 HarFok:  IExCor=  419 AccDes= 0.00D+00 IRadAn=         4 IDoV= 1 UseB2=F ITyADJ=14
 ICtDFT=  3500011 ScaDFX=  1.000000  1.000000  1.000000  1.000000
 FoFCou: FMM=F IPFlag=           0 FMFlag=      100000 FMFlg1=           0
         NFxFlg=           0 DoJE=T BraDBF=F KetDBF=T FulRan=T
         wScrn=  0.000000 ICntrl=     500 IOpCl=  0 I1Cent=   200000004 NGrid=           0
         NMat0=    1 NMatS0=      1 NMatT0=    0 NMatD0=    1 NMtDS0=    0 NMtDT0=    0
 Petite list used in FoFCou.
 Harris En= -158.167775622868    
 JPrj=0 DoOrth=F DoCkMO=F.
 Leave Link  401 at Wed Aug 26 12:10:13 2020, MaxMem=  2097152000 cpu:        14.4
 (Enter /opt/cluster/programs/g09/g09_d.01/g09/l502.exe)
 Closed shell SCF:
 Using DIIS extrapolation, IDIIS=  1040.
 Integral symmetry usage will be decided dynamically.
 IVT=     1249338 IEndB=     1249338 NGot=  2097152000 MDV=  2096326985
 LenX=  2096326985 LenY=  2095919303
 Requested convergence on RMS density matrix=1.00D-08 within 128 cycles.
 Requested convergence on MAX density matrix=1.00D-06.
 Requested convergence on             energy=1.00D-06.
 No special actions if energy rises.
 Fock matrices will be formed incrementally for  20 cycles.
 Integral accuracy reduced to 1.0D-05 until final iterations.

 Cycle   1  Pass 0  IDiag  1:
 FoFJK:  IHMeth= 1 ICntrl=       0 DoSepK=F KAlg= 0 I1Cent=   0 FoldK=F
 IRaf= 930000000 NMat=   1 IRICut=       1 DoRegI=T DoRafI=F ISym2E= 0.
 FoFCou: FMM=F IPFlag=           0 FMFlag=      100000 FMFlg1=           0
         NFxFlg=           0 DoJE=F BraDBF=F KetDBF=F FulRan=T
         wScrn=  0.000000 ICntrl=       0 IOpCl=  0 I1Cent=           0 NGrid=           0
         NMat0=    1 NMatS0=      1 NMatT0=    0 NMatD0=    1 NMtDS0=    0 NMtDT0=    0
 Symmetry not used in FoFCou.
 E= -157.265916443332    
 DIIS: error= 2.40D-02 at cycle   1 NSaved=   1.
 NSaved= 1 IEnMin= 1 EnMin= -157.265916443332     IErMin= 1 ErrMin= 2.40D-02
 ErrMax= 2.40D-02  0.00D+00 EMaxC= 1.00D-01 BMatC= 4.20D-01 BMatP= 4.20D-01
 IDIUse=3 WtCom= 7.60D-01 WtEn= 2.40D-01
 Coeff-Com:  0.100D+01
 Coeff-En:   0.100D+01
 Coeff:      0.100D+01
 Gap=     0.362 Goal=   None    Shift=    0.000
 GapD=    0.362 DampG=1.000 DampE=0.500 DampFc=0.5000 IDamp=-1.
 Damping current iteration by 5.00D-01
 RMSDP=1.47D-03 MaxDP=8.48D-02              OVMax= 2.68D-01

 Cycle   2  Pass 0  IDiag  1:
 RMSU=  7.02D-04    CP:  9.32D-01
 E= -157.434836404117     Delta-E=       -0.168919960785 Rises=F Damp=T
 DIIS: error= 4.95D-03 at cycle   2 NSaved=   2.
 NSaved= 2 IEnMin= 2 EnMin= -157.434836404117     IErMin= 2 ErrMin= 4.95D-03
 ErrMax= 4.95D-03  0.00D+00 EMaxC= 1.00D-01 BMatC= 3.48D-02 BMatP= 4.20D-01
 IDIUse=3 WtCom= 9.51D-01 WtEn= 4.95D-02
 Coeff-Com: -0.969D-01 0.110D+01
 Coeff-En:   0.000D+00 0.100D+01
 Coeff:     -0.921D-01 0.109D+01
 Gap=     0.418 Goal=   None    Shift=    0.000
 RMSDP=4.70D-04 MaxDP=4.22D-02 DE=-1.69D-01 OVMax= 1.69D-01

 Cycle   3  Pass 0  IDiag  1:
 RMSU=  3.91D-04    CP:  9.15D-01  6.36D-01
 E= -157.609392993737     Delta-E=       -0.174556589620 Rises=F Damp=F
 DIIS: error= 3.95D-03 at cycle   3 NSaved=   3.
 NSaved= 3 IEnMin= 3 EnMin= -157.609392993737     IErMin= 3 ErrMin= 3.95D-03
 ErrMax= 3.95D-03  0.00D+00 EMaxC= 1.00D-01 BMatC= 5.51D-03 BMatP= 3.48D-02
 IDIUse=3 WtCom= 9.61D-01 WtEn= 3.95D-02
 Coeff-Com: -0.103D+00 0.243D+00 0.859D+00
 Coeff-En:   0.000D+00 0.000D+00 0.100D+01
 Coeff:     -0.987D-01 0.234D+00 0.865D+00
 Gap=     0.375 Goal=   None    Shift=    0.000
 RMSDP=1.00D-04 MaxDP=9.86D-03 DE=-1.75D-01 OVMax= 2.15D-02

 Cycle   4  Pass 0  IDiag  1:
 RMSU=  8.41D-05    CP:  9.06D-01  7.02D-01  1.03D+00
 E= -157.615295974702     Delta-E=       -0.005902980965 Rises=F Damp=F
 DIIS: error= 1.05D-03 at cycle   4 NSaved=   4.
 NSaved= 4 IEnMin= 4 EnMin= -157.615295974702     IErMin= 4 ErrMin= 1.05D-03
 ErrMax= 1.05D-03  0.00D+00 EMaxC= 1.00D-01 BMatC= 5.04D-04 BMatP= 5.51D-03
 IDIUse=3 WtCom= 9.90D-01 WtEn= 1.05D-02
 Coeff-Com: -0.324D-01 0.493D-01 0.326D+00 0.657D+00
 Coeff-En:   0.000D+00 0.000D+00 0.000D+00 0.100D+01
 Coeff:     -0.321D-01 0.488D-01 0.323D+00 0.660D+00
 Gap=     0.377 Goal=   None    Shift=    0.000
 RMSDP=3.05D-05 MaxDP=1.99D-03 DE=-5.90D-03 OVMax= 5.46D-03

 Cycle   5  Pass 0  IDiag  1:
 RMSU=  2.27D-05    CP:  9.07D-01  6.81D-01  1.05D+00  8.88D-01
 E= -157.615781603200     Delta-E=       -0.000485628498 Rises=F Damp=F
 DIIS: error= 2.36D-04 at cycle   5 NSaved=   5.
 NSaved= 5 IEnMin= 5 EnMin= -157.615781603200     IErMin= 5 ErrMin= 2.36D-04
 ErrMax= 2.36D-04  0.00D+00 EMaxC= 1.00D-01 BMatC= 2.59D-05 BMatP= 5.04D-04
 IDIUse=3 WtCom= 9.98D-01 WtEn= 2.36D-03
 Coeff-Com: -0.949D-03-0.546D-02 0.317D-01 0.202D+00 0.772D+00
 Coeff-En:   0.000D+00 0.000D+00 0.000D+00 0.000D+00 0.100D+01
 Coeff:     -0.947D-03-0.545D-02 0.316D-01 0.202D+00 0.773D+00
 Gap=     0.377 Goal=   None    Shift=    0.000
 RMSDP=9.10D-06 MaxDP=5.12D-04 DE=-4.86D-04 OVMax= 1.14D-03

 Initial convergence to 1.0D-05 achieved.  Increase integral accuracy.
 Cycle   6  Pass 1  IDiag  1:
 E= -157.615801830188     Delta-E=       -0.000020226989 Rises=F Damp=F
 DIIS: error= 7.13D-05 at cycle   1 NSaved=   1.
 NSaved= 1 IEnMin= 1 EnMin= -157.615801830188     IErMin= 1 ErrMin= 7.13D-05
 ErrMax= 7.13D-05  0.00D+00 EMaxC= 1.00D-01 BMatC= 1.21D-06 BMatP= 1.21D-06
 IDIUse=1 WtCom= 1.00D+00 WtEn= 0.00D+00
 Coeff-Com:  0.100D+01
 Coeff:      0.100D+01
 Gap=     0.378 Goal=   None    Shift=    0.000
 RMSDP=9.10D-06 MaxDP=5.12D-04 DE=-2.02D-05 OVMax= 3.89D-04

 Cycle   7  Pass 1  IDiag  1:
 RMSU=  2.53D-05    CP:  1.00D+00
 E= -157.615802817904     Delta-E=       -0.000000987716 Rises=F Damp=F
 DIIS: error= 1.54D-05 at cycle   2 NSaved=   2.
 NSaved= 2 IEnMin= 2 EnMin= -157.615802817904     IErMin= 2 ErrMin= 1.54D-05
 ErrMax= 1.54D-05  0.00D+00 EMaxC= 1.00D-01 BMatC= 1.85D-07 BMatP= 1.21D-06
 IDIUse=1 WtCom= 1.00D+00 WtEn= 0.00D+00
 Coeff-Com:  0.192D+00 0.808D+00
 Coeff:      0.192D+00 0.808D+00
 Gap=     0.378 Goal=   None    Shift=    0.000
 RMSDP=9.20D-07 MaxDP=6.65D-05 DE=-9.88D-07 OVMax= 1.48D-04

 Cycle   8  Pass 1  IDiag  1:
 RMSU=  7.02D-07    CP:  1.00D+00  1.02D+00
 E= -157.615802970147     Delta-E=       -0.000000152242 Rises=F Damp=F
 DIIS: error= 1.23D-05 at cycle   3 NSaved=   3.
 NSaved= 3 IEnMin= 3 EnMin= -157.615802970147     IErMin= 3 ErrMin= 1.23D-05
 ErrMax= 1.23D-05  0.00D+00 EMaxC= 1.00D-01 BMatC= 6.11D-08 BMatP= 1.85D-07
 IDIUse=1 WtCom= 1.00D+00 WtEn= 0.00D+00
 Coeff-Com: -0.284D-01 0.346D+00 0.682D+00
 Coeff:     -0.284D-01 0.346D+00 0.682D+00
 Gap=     0.378 Goal=   None    Shift=    0.000
 RMSDP=4.09D-07 MaxDP=2.04D-05 DE=-1.52D-07 OVMax= 6.42D-05

 Cycle   9  Pass 1  IDiag  1:
 RMSU=  3.52D-07    CP:  1.00D+00  1.03D+00  9.27D-01
 E= -157.615803034680     Delta-E=       -0.000000064533 Rises=F Damp=F
 DIIS: error= 1.91D-06 at cycle   4 NSaved=   4.
 NSaved= 4 IEnMin= 4 EnMin= -157.615803034680     IErMin= 4 ErrMin= 1.91D-06
 ErrMax= 1.91D-06  0.00D+00 EMaxC= 1.00D-01 BMatC= 1.08D-09 BMatP= 6.11D-08
 IDIUse=1 WtCom= 1.00D+00 WtEn= 0.00D+00
 Coeff-Com: -0.149D-01 0.100D-01 0.102D+00 0.903D+00
 Coeff:     -0.149D-01 0.100D-01 0.102D+00 0.903D+00
 Gap=     0.378 Goal=   None    Shift=    0.000
 RMSDP=8.48D-08 MaxDP=4.54D-06 DE=-6.45D-08 OVMax= 1.77D-05

 Cycle  10  Pass 1  IDiag  1:
 RMSU=  6.46D-08    CP:  1.00D+00  1.03D+00  9.84D-01  1.10D+00
 E= -157.615803036464     Delta-E=       -0.000000001784 Rises=F Damp=F
 DIIS: error= 5.50D-07 at cycle   5 NSaved=   5.
 NSaved= 5 IEnMin= 5 EnMin= -157.615803036464     IErMin= 5 ErrMin= 5.50D-07
 ErrMax= 5.50D-07  0.00D+00 EMaxC= 1.00D-01 BMatC= 1.40D-10 BMatP= 1.08D-09
 IDIUse=1 WtCom= 1.00D+00 WtEn= 0.00D+00
 Coeff-Com: -0.108D-02-0.288D-01-0.394D-01 0.222D+00 0.848D+00
 Coeff:     -0.108D-02-0.288D-01-0.394D-01 0.222D+00 0.848D+00
 Gap=     0.378 Goal=   None    Shift=    0.000
 RMSDP=3.23D-08 MaxDP=1.80D-06 DE=-1.78D-09 OVMax= 6.21D-06

 Cycle  11  Pass 1  IDiag  1:
 RMSU=  1.88D-08    CP:  1.00D+00  1.03D+00  9.95D-01  1.17D+00  1.07D+00
 E= -157.615803036647     Delta-E=       -0.000000000183 Rises=F Damp=F
 DIIS: error= 2.50D-07 at cycle   6 NSaved=   6.
 NSaved= 6 IEnMin= 6 EnMin= -157.615803036647     IErMin= 6 ErrMin= 2.50D-07
 ErrMax= 2.50D-07  0.00D+00 EMaxC= 1.00D-01 BMatC= 2.21D-11 BMatP= 1.40D-10
 IDIUse=1 WtCom= 1.00D+00 WtEn= 0.00D+00
 Coeff-Com:  0.620D-03-0.125D-01-0.236D-01 0.299D-01 0.366D+00 0.639D+00
 Coeff:      0.620D-03-0.125D-01-0.236D-01 0.299D-01 0.366D+00 0.639D+00
 Gap=     0.378 Goal=   None    Shift=    0.000
 RMSDP=5.88D-09 MaxDP=3.16D-07 DE=-1.83D-10 OVMax= 1.40D-06

 SCF Done:  E(RB2PLYPD3) =  -157.615803037     A.U. after   11 cycles
            NFock= 11  Conv=0.59D-08     -V/T= 2.0014
 KE= 1.573893384467D+02 PE=-6.191539446627D+02 EE= 1.769159230833D+02
 Leave Link  502 at Wed Aug 26 12:16:12 2020, MaxMem=  2097152000 cpu:      2859.0
 (Enter /opt/cluster/programs/g09/g09_d.01/g09/l801.exe)
 DoSCS=T DFT=T ScalE2(SS,OS)=  0.270000  0.270000
 ExpMin= 7.60D-02 ExpMax= 6.70D+04 ExpMxC= 6.47D+02 IAcc=3 IRadAn=         5 AccDes= 0.00D+00
 HarFok:  IExCor=  205 AccDes= 0.00D+00 IRadAn=         5 IDoV=-2 UseB2=F ITyADJ=14
 ICtDFT= 12500011 ScaDFX=  1.000000  1.000000  1.000000  1.000000
 Largest valence mixing into a core orbital is  1.22D-04
 Largest core mixing into a valence orbital is  1.72D-05
 Range of M.O.s used for correlation:     5   528
 NBasis=   528 NAE=    17 NBE=    17 NFC=     4 NFV=     0
 NROrb=    524 NOA=    13 NOB=    13 NVA=   511 NVB=   511

 **** Warning!!: The largest alpha MO coefficient is  0.31449656D+02

 Leave Link  801 at Wed Aug 26 12:16:14 2020, MaxMem=  2097152000 cpu:         1.2
 (Enter /opt/cluster/programs/g09/g09_d.01/g09/l906.exe)
 DoSCS=T DFT=T ScalE2(SS,OS)=  0.270000  0.270000
 FulOut=F Deriv=F AODrv=F NAtomX=    14
   MMem=         463  MDisk=          13 MDiskD=          13
  W3Min=     4238234 MinDsk=     6904766 NBas6D=         638
 NBas2D=      205689    NTT=      203841    LW2=     4508827
    MDV=  2095912984 MDiskM=        7293 NBas2p=      187303
 Fully direct method using O(OVN) memory.
 IMap=   1   2   3   4   5   6   7   8   9  10  11  12  13
 JobTyp=1 Pass  1:  I=   1 to  13 NPSUse=  8 ParTrn=T ParDer=T DoDerP=F.
 Spin components of T(2) and E(2):
     alpha-alpha T2 =       0.4421068003D-01 E2=     -0.2679102225D-01
     alpha-beta  T2 =       0.3115886988D+00 E2=     -0.2020447281D+00
     beta-beta   T2 =       0.4421068003D-01 E2=     -0.2679102225D-01
 The integrals were generated   1 times.
 E2(B2PLYPD3) =    -0.2556267726D+00 E(B2PLYPD3) =    -0.15787142980927D+03
 Leave Link  906 at Wed Aug 26 12:20:35 2020, MaxMem=  2097152000 cpu:      2090.4
 (Enter /opt/cluster/programs/g09/g09_d.01/g09/l601.exe)
 Copying SCF densities to generalized density rwf, IOpCl= 0 IROHF=0.

 **********************************************************************

            Population analysis using the SCF density.

 **********************************************************************

 Orbital symmetries:
       Occupied  (A) (A) (A) (A) (A) (A) (A) (A) (A) (A) (A) (A)
                 (A) (A) (A) (A) (A)
       Virtual   (A) (A) (A) (A) (A) (A) (A) (A) (A) (A) (A) (A)
                 (A) (A) (A) (A) (A) (A) (A) (A) (A) (A) (A) (A)
                 (A) (A) (A) (A) (A) (A) (A) (A) (A) (A) (A) (A)
                 (A) (A) (A) (A) (A) (A) (A) (A) (A) (A) (A) (A)
                 (A) (A) (A) (A) (A) (A) (A) (A) (A) (A) (A) (A)
                 (A) (A) (A) (A) (A) (A) (A) (A) (A) (A) (A) (A)
                 (A) (A) (A) (A) (A) (A) (A) (A) (A) (A) (A) (A)
                 (A) (A) (A) (A) (A) (A) (A) (A) (A) (A) (A) (A)
                 (A) (A) (A) (A) (A) (A) (A) (A) (A) (A) (A) (A)
                 (A) (A) (A) (A) (A) (A) (A) (A) (A) (A) (A) (A)
                 (A) (A) (A) (A) (A) (A) (A) (A) (A) (A) (A) (A)
                 (A) (A) (A) (A) (A) (A) (A) (A) (A) (A) (A) (A)
                 (A) (A) (A) (A) (A) (A) (A) (A) (A) (A) (A) (A)
                 (A) (A) (A) (A) (A) (A) (A) (A) (A) (A) (A) (A)
                 (A) (A) (A) (A) (A) (A) (A) (A) (A) (A) (A) (A)
                 (A) (A) (A) (A) (A) (A) (A) (A) (A) (A) (A) (A)
                 (A) (A) (A) (A) (A) (A) (A) (A) (A) (A) (A) (A)
                 (A) (A) (A) (A) (A) (A) (A) (A) (A) (A) (A) (A)
                 (A) (A) (A) (A) (A) (A) (A) (A) (A) (A) (A) (A)
                 (A) (A) (A) (A) (A) (A) (A) (A) (A) (A) (A) (A)
                 (A) (A) (A) (A) (A) (A) (A) (A) (A) (A) (A) (A)
                 (A) (A) (A) (A) (A) (A) (A) (A) (A) (A) (A) (A)
                 (A) (A) (A) (A) (A) (A) (A) (A) (A) (A) (A) (A)
                 (A) (A) (A) (A) (A) (A) (A) (A) (A) (A) (A) (A)
                 (A) (A) (A) (A) (A) (A) (A) (A) (A) (A) (A) (A)
                 (A) (A) (A) (A) (A) (A) (A) (A) (A) (A) (A) (A)
                 (A) (A) (A) (A) (A) (A) (A) (A) (A) (A) (A) (A)
                 (A) (A) (A) (A) (A) (A) (A) (A) (A) (A) (A) (A)
                 (A) (A) (A) (A) (A) (A) (A) (A) (A) (A) (A) (A)
                 (A) (A) (A) (A) (A) (A) (A) (A) (A) (A) (A) (A)
                 (A) (A) (A) (A) (A) (A) (A) (A) (A) (A) (A) (A)
                 (A) (A) (A) (A) (A) (A) (A) (A) (A) (A) (A) (A)
                 (A) (A) (A) (A) (A) (A) (A) (A) (A) (A) (A) (A)
                 (A) (A) (A) (A) (A) (A) (A) (A) (A) (A) (A) (A)
                 (A) (A) (A) (A) (A) (A) (A) (A) (A) (A) (A) (A)
                 (A) (A) (A) (A) (A) (A) (A) (A) (A) (A) (A) (A)
                 (A) (A) (A) (A) (A) (A) (A) (A) (A) (A) (A) (A)
                 (A) (A) (A) (A) (A) (A) (A) (A) (A) (A) (A) (A)
                 (A) (A) (A) (A) (A) (A) (A) (A) (A) (A) (A) (A)
                 (A) (A) (A) (A) (A) (A) (A) (A) (A) (A) (A) (A)
                 (A) (A) (A) (A) (A) (A) (A) (A) (A) (A) (A) (A)
                 (A) (A) (A) (A) (A) (A) (A) (A) (A) (A) (A) (A)
                 (A) (A) (A) (A) (A) (A) (A)
 The electronic state is 1-A.
 Alpha  occ. eigenvalues --  -10.65599 -10.65347 -10.62704 -10.60501  -0.95391
 Alpha  occ. eigenvalues --   -0.83920  -0.73023  -0.67567  -0.54152  -0.50225
 Alpha  occ. eigenvalues --   -0.46753  -0.45220  -0.41762  -0.40867  -0.37460
 Alpha  occ. eigenvalues --   -0.36047  -0.34521
 Alpha virt. eigenvalues --    0.03235   0.05723   0.06377   0.06778   0.09691
 Alpha virt. eigenvalues --    0.10495   0.11488   0.12457   0.12918   0.14113
 Alpha virt. eigenvalues --    0.15072   0.16650   0.17886   0.19105   0.19915
 Alpha virt. eigenvalues --    0.21675   0.22393   0.23260   0.24269   0.28142
 Alpha virt. eigenvalues --    0.28557   0.29279   0.29804   0.31068   0.31999
 Alpha virt. eigenvalues --    0.32711   0.33807   0.34698   0.35905   0.37678
 Alpha virt. eigenvalues --    0.39333   0.41169   0.42716   0.45040   0.46762
 Alpha virt. eigenvalues --    0.49617   0.50880   0.51200   0.53520   0.54407
 Alpha virt. eigenvalues --    0.58354   0.59151   0.61750   0.64071   0.65880
 Alpha virt. eigenvalues --    0.66908   0.67108   0.69303   0.69817   0.71850
 Alpha virt. eigenvalues --    0.72586   0.73450   0.74239   0.77178   0.77872
 Alpha virt. eigenvalues --    0.78979   0.80811   0.81879   0.82962   0.85155
 Alpha virt. eigenvalues --    0.86121   0.87249   0.88619   0.89340   0.91094
 Alpha virt. eigenvalues --    0.92418   0.93386   0.94485   0.95374   0.96067
 Alpha virt. eigenvalues --    0.96456   0.98431   0.99513   0.99805   1.00839
 Alpha virt. eigenvalues --    1.03028   1.04172   1.05182   1.06807   1.08629
 Alpha virt. eigenvalues --    1.09397   1.10710   1.11532   1.15074   1.15984
 Alpha virt. eigenvalues --    1.17831   1.18159   1.22454   1.23697   1.25515
 Alpha virt. eigenvalues --    1.27301   1.28066   1.28959   1.32216   1.34032
 Alpha virt. eigenvalues --    1.34799   1.37240   1.39060   1.40419   1.42132
 Alpha virt. eigenvalues --    1.43306   1.47456   1.49195   1.50557   1.55119
 Alpha virt. eigenvalues --    1.59519   1.60975   1.65369   1.69714   1.73834
 Alpha virt. eigenvalues --    1.78498   1.79677   1.85955   1.87330   1.88143
 Alpha virt. eigenvalues --    1.89809   1.91028   1.91434   1.93815   1.95256
 Alpha virt. eigenvalues --    1.96225   1.98715   1.99002   1.99812   2.02653
 Alpha virt. eigenvalues --    2.02973   2.04553   2.06407   2.07949   2.09379
 Alpha virt. eigenvalues --    2.10836   2.11432   2.12400   2.14041   2.15187
 Alpha virt. eigenvalues --    2.15727   2.17111   2.17537   2.19422   2.19836
 Alpha virt. eigenvalues --    2.20732   2.22932   2.24476   2.25714   2.27863
 Alpha virt. eigenvalues --    2.28684   2.29078   2.31490   2.32942   2.33796
 Alpha virt. eigenvalues --    2.35051   2.37420   2.37646   2.39972   2.41251
 Alpha virt. eigenvalues --    2.41583   2.42625   2.44522   2.46286   2.47622
 Alpha virt. eigenvalues --    2.48168   2.50207   2.50870   2.52098   2.54736
 Alpha virt. eigenvalues --    2.55065   2.57194   2.58950   2.60144   2.62829
 Alpha virt. eigenvalues --    2.63785   2.66494   2.66586   2.68619   2.69140
 Alpha virt. eigenvalues --    2.70158   2.72217   2.74439   2.76687   2.77731
 Alpha virt. eigenvalues --    2.79562   2.80622   2.84408   2.85512   2.86466
 Alpha virt. eigenvalues --    2.88006   2.88897   2.93375   2.94364   2.96278
 Alpha virt. eigenvalues --    2.96439   2.99157   3.00134   3.00556   3.02894
 Alpha virt. eigenvalues --    3.05350   3.07531   3.08775   3.09358   3.11607
 Alpha virt. eigenvalues --    3.14263   3.16190   3.18585   3.19186   3.19523
 Alpha virt. eigenvalues --    3.21213   3.23211   3.24347   3.24966   3.29494
 Alpha virt. eigenvalues --    3.32598   3.33974   3.34938   3.36129   3.40044
 Alpha virt. eigenvalues --    3.42411   3.43609   3.45785   3.48169   3.50670
 Alpha virt. eigenvalues --    3.51989   3.55474   3.57403   3.59781   3.64268
 Alpha virt. eigenvalues --    3.65901   3.68291   3.71404   3.72441   3.74783
 Alpha virt. eigenvalues --    3.78081   3.78658   3.81971   3.85090   3.89335
 Alpha virt. eigenvalues --    3.92788   3.96532   3.98420   4.03237   4.06997
 Alpha virt. eigenvalues --    4.09158   4.10473   4.16397   4.16745   4.23088
 Alpha virt. eigenvalues --    4.24165   4.26571   4.29331   4.41695   4.45811
 Alpha virt. eigenvalues --    4.49219   4.58224   4.69736   4.84968   4.96093
 Alpha virt. eigenvalues --    5.06488   5.08528   5.09963   5.16111   5.20639
 Alpha virt. eigenvalues --    5.24621   5.26215   5.30033   5.32573   5.34611
 Alpha virt. eigenvalues --    5.39020   5.44678   5.48047   5.51455   5.53399
 Alpha virt. eigenvalues --    5.55713   5.58450   5.61786   5.65135   5.66975
 Alpha virt. eigenvalues --    5.69527   5.71912   5.72841   5.74323   5.77078
 Alpha virt. eigenvalues --    5.77973   5.81610   5.82745   5.84525   5.86778
 Alpha virt. eigenvalues --    5.87659   5.88405   5.90094   5.92577   5.93153
 Alpha virt. eigenvalues --    5.95038   5.96234   5.97503   5.98227   5.99662
 Alpha virt. eigenvalues --    6.00400   6.02718   6.03029   6.04694   6.05827
 Alpha virt. eigenvalues --    6.07285   6.09557   6.10611   6.11050   6.13148
 Alpha virt. eigenvalues --    6.15410   6.17238   6.17908   6.19621   6.22735
 Alpha virt. eigenvalues --    6.23513   6.25172   6.26739   6.29100   6.31666
 Alpha virt. eigenvalues --    6.32785   6.36269   6.37721   6.40504   6.41138
 Alpha virt. eigenvalues --    6.42234   6.43587   6.46992   6.49163   6.50136
 Alpha virt. eigenvalues --    6.52042   6.54057   6.56406   6.58395   6.59209
 Alpha virt. eigenvalues --    6.63816   6.65298   6.66439   6.68576   6.72495
 Alpha virt. eigenvalues --    6.74090   6.74619   6.78637   6.79199   6.83589
 Alpha virt. eigenvalues --    6.84312   6.87908   6.88781   6.90274   6.91598
 Alpha virt. eigenvalues --    6.95824   6.96438   6.97219   6.98459   6.98899
 Alpha virt. eigenvalues --    7.00646   7.04910   7.06373   7.08072   7.09579
 Alpha virt. eigenvalues --    7.13728   7.16569   7.18234   7.19521   7.22418
 Alpha virt. eigenvalues --    7.23313   7.26949   7.30842   7.31355   7.31782
 Alpha virt. eigenvalues --    7.35891   7.40750   7.42699   7.43904   7.45040
 Alpha virt. eigenvalues --    7.49372   7.49731   7.51047   7.55369   7.56512
 Alpha virt. eigenvalues --    7.58271   7.58688   7.60039   7.63263   7.65563
 Alpha virt. eigenvalues --    7.67269   7.71279   7.75672   7.76435   7.77392
 Alpha virt. eigenvalues --    7.79722   7.80803   7.81333   7.83678   7.86951
 Alpha virt. eigenvalues --    7.87397   7.88857   7.90485   7.94032   7.96367
 Alpha virt. eigenvalues --    7.97755   8.01811   8.03423   8.04262   8.06766
 Alpha virt. eigenvalues --    8.10202   8.12381   8.13272   8.14076   8.17444
 Alpha virt. eigenvalues --    8.18124   8.19058   8.20027   8.23891   8.24455
 Alpha virt. eigenvalues --    8.25796   8.26664   8.29535   8.30217   8.31549
 Alpha virt. eigenvalues --    8.32456   8.34497   8.36076   8.36629   8.40545
 Alpha virt. eigenvalues --    8.44398   8.45680   8.46433   8.50675   8.51774
 Alpha virt. eigenvalues --    8.54272   8.55479   8.58461   8.59294   8.61913
 Alpha virt. eigenvalues --    8.63186   8.65733   8.66474   8.69456   8.72950
 Alpha virt. eigenvalues --    8.75161   8.78494   8.79869   8.80873   8.82635
 Alpha virt. eigenvalues --    8.84133   8.86662   8.87600   8.89154   8.90372
 Alpha virt. eigenvalues --    8.91819   8.96385   8.97844   8.99023   9.00885
 Alpha virt. eigenvalues --    9.02662   9.05314   9.07215   9.10553   9.12739
 Alpha virt. eigenvalues --    9.14495   9.16092   9.18066   9.20194   9.24197
 Alpha virt. eigenvalues --    9.26336   9.27809   9.31253   9.37475   9.39197
 Alpha virt. eigenvalues --    9.43600   9.45352   9.50731   9.55432   9.63960
 Alpha virt. eigenvalues --    9.66595   9.72518   9.75078   9.80144   9.93588
 Alpha virt. eigenvalues --    9.98627  10.02082  10.13232  10.17601  10.19563
 Alpha virt. eigenvalues --   10.22576  10.29607  10.36685  10.43751  10.49193
 Alpha virt. eigenvalues --   10.63939  10.66953  10.70064  10.73997  10.77281
 Alpha virt. eigenvalues --   10.83341  10.92616  11.22262  11.30152  11.35614
 Alpha virt. eigenvalues --   11.51234  11.88474  12.04248  12.06559  12.09843
 Alpha virt. eigenvalues --   12.49352  12.63844  15.33735  28.90673  28.97398
 Alpha virt. eigenvalues --   29.23783  29.67342 148.53239 148.58187 148.91971
 Alpha virt. eigenvalues --  149.41072
          Condensed to atoms (all electrons):
               1          2          3          4          5          6
     1  C    4.740783   0.372788   0.419531   0.387547   0.382066  -0.044376
     2  C    0.372788   4.770929  -0.034317  -0.025297  -0.039128   0.331196
     3  H    0.419531  -0.034317   0.570936  -0.028783  -0.033360   0.005533
     4  H    0.387547  -0.025297  -0.028783   0.658869  -0.029060  -0.000171
     5  H    0.382066  -0.039128  -0.033360  -0.029060   0.691056  -0.003666
     6  C   -0.044376   0.331196   0.005533  -0.000171  -0.003666   5.752068
     7  H   -0.053198   0.362214  -0.003706  -0.003981   0.009023  -0.051026
     8  H   -0.026316   0.370136  -0.002515   0.004619  -0.003408  -0.031467
     9  C    0.005656  -0.041185  -0.000512   0.000087  -0.000312   0.339815
    10  H   -0.001789  -0.030697   0.000105  -0.000050   0.002833   0.327425
    11  H   -0.008262  -0.027524   0.000504   0.001774   0.000660   0.234818
    12  H   -0.000183  -0.004367   0.000055   0.000012   0.000039  -0.075520
    13  H   -0.000529   0.006944   0.000022  -0.000013   0.000006  -0.024892
    14  H    0.000026  -0.008238   0.000063   0.000069  -0.000029  -0.058765
               7          8          9         10         11         12
     1  C   -0.053198  -0.026316   0.005656  -0.001789  -0.008262  -0.000183
     2  C    0.362214   0.370136  -0.041185  -0.030697  -0.027524  -0.004367
     3  H   -0.003706  -0.002515  -0.000512   0.000105   0.000504   0.000055
     4  H   -0.003981   0.004619   0.000087  -0.000050   0.001774   0.000012
     5  H    0.009023  -0.003408  -0.000312   0.002833   0.000660   0.000039
     6  C   -0.051026  -0.031467   0.339815   0.327425   0.234818  -0.075520
     7  H    0.739274  -0.041771  -0.006125   0.007714  -0.005877   0.001147
     8  H   -0.041771   0.715311  -0.002177  -0.002164   0.008404   0.007264
     9  C   -0.006125  -0.002177   4.830077  -0.033218  -0.078108   0.370662
    10  H    0.007714  -0.002164  -0.033218   0.684110   0.022436   0.000215
    11  H   -0.005877   0.008404  -0.078108   0.022436   0.198524   0.015351
    12  H    0.001147   0.007264   0.370662   0.000215   0.015351   0.673121
    13  H   -0.000006  -0.000217   0.377823  -0.007360   0.002742  -0.011542
    14  H    0.004439  -0.000090   0.387687   0.009194  -0.008548  -0.020790
              13         14
     1  C   -0.000529   0.000026
     2  C    0.006944  -0.008238
     3  H    0.000022   0.000063
     4  H   -0.000013   0.000069
     5  H    0.000006  -0.000029
     6  C   -0.024892  -0.058765
     7  H   -0.000006   0.004439
     8  H   -0.000217  -0.000090
     9  C    0.377823   0.387687
    10  H   -0.007360   0.009194
    11  H    0.002742  -0.008548
    12  H   -0.011542  -0.020790
    13  H    0.672040  -0.052879
    14  H   -0.052879   0.676645
 Mulliken charges:
               1
     1  C   -0.173743
     2  C   -0.003455
     3  H    0.106444
     4  H    0.034379
     5  H    0.023280
     6  C   -0.700971
     7  H    0.041879
     8  H    0.004391
     9  C   -0.150171
    10  H    0.021247
    11  H    0.643107
    12  H    0.044536
    13  H    0.037861
    14  H    0.071217
 Sum of Mulliken charges =   0.00000
 Mulliken charges with hydrogens summed into heavy atoms:
               1
     1  C   -0.009641
     2  C    0.042816
     6  C   -0.036618
     9  C    0.003443
 Electronic spatial extent (au):  <R**2>=            455.8973
 Charge=              0.0000 electrons
 Dipole moment (field-independent basis, Debye):
    X=              0.5132    Y=              0.0864    Z=             -0.9577  Tot=              1.0900
 Quadrupole moment (field-independent basis, Debye-Ang):
   XX=            -30.8302   YY=            -29.8714   ZZ=            -28.9702
   XY=              1.2184   XZ=              0.9200   YZ=              0.7312
 Traceless Quadrupole moment (field-independent basis, Debye-Ang):
   XX=             -0.9396   YY=              0.0192   ZZ=              0.9204
   XY=              1.2184   XZ=              0.9200   YZ=              0.7312
 Octapole moment (field-independent basis, Debye-Ang**2):
  XXX=             11.2484  YYY=              0.6578  ZZZ=             -3.0976  XYY=              1.4966
  XXY=             -3.6197  XXZ=             -4.8070  XZZ=             -0.3914  YZZ=             -0.4059
  YYZ=             -0.8029  XYZ=             -0.9662
 Hexadecapole moment (field-independent basis, Debye-Ang**3):
 XXXX=           -516.0704 YYYY=           -107.5496 ZZZZ=            -78.3585 XXXY=             16.3284
 XXXZ=             10.2376 YYYX=              3.2941 YYYZ=              2.6144 ZZZX=              2.1839
 ZZZY=             -0.7783 XXYY=            -99.1993 XXZZ=            -95.0273 YYZZ=            -27.3743
 XXYZ=              4.4767 YYXZ=             -1.0822 ZZXY=             -0.9030
 N-N= 1.272328800961D+02 E-N=-6.191538846361D+02  KE= 1.573893384467D+02
 Leave Link  601 at Wed Aug 26 12:20:36 2020, MaxMem=  2097152000 cpu:         1.1
 (Enter /opt/cluster/programs/g09/g09_d.01/g09/l9999.exe)
 1\1\GINC-NODE29\SP\RB2PLYPD3-FC\def2QZVP\C4H10\BOITTIER\26-Aug-2020\0\
 \#p B2PLYPD3/Def2QZVP\\butane_opt\\0,1\C,0,-3.999684,0.286966,-0.16593
 9\C,0,-2.713593,-0.61037,0.21146\H,0,-4.741,-0.24325,-0.151156\H,0,-4.
 060442,1.059432,-1.184238\H,0,-4.285858,1.065294,0.749707\C,0,-1.36668
 3,0.123698,0.201815\H,0,-2.66299,-1.350707,-0.599985\H,0,-2.917705,-1.
 472018,1.244859\C,0,-0.112233,-0.672594,-0.135558\H,0,-1.143853,1.1675
 85,1.221735\H,0,-1.34907,0.334563,-0.451641\H,0,-0.203969,-1.493767,0.
 929506\H,0,0.998244,0.057354,-0.630615\H,0,-0.344726,-1.074561,-1.0334
 03\\Version=ES64L-G09RevD.01\State=1-A\HF=-157.615803\MP2=-157.8714298
 \RMSD=5.880e-09\PG=C01 [X(C4H10)]\\@


      TO SUSPECT YOUR OWN MORTALITY IS TO KNOW THE BEGINNING OF TERROR.
      TO LEARN IRREFUTABLY THAT YOU ARE MORTAL IS TO KNOW THE END
      OF TERROR.

                                                  -- JESSICA
                                                     CHILDREN OF DUNE
                                                     BY FRANK HERBERT
 Job cpu time:       0 days  1 hours 22 minutes 53.3 seconds.
 File lengths (MBytes):  RWF=    152 Int=      0 D2E=      0 Chk=     14 Scr=      1
 Normal termination of Gaussian 09 at Wed Aug 26 12:20:40 2020.
