 Entering Gaussian System, Link 0=/opt/cluster/programs/g09/g09_d.01/g09//g09
 Input=/home/boittier/MDCM/nms_sampling/butane_geom.xyz.dir/energies/butane_opt_433_energy.com
 Output=/scratch/boittier/butane_opt_433_energy/butane_opt_433_energy.out
 Initial command:
 /opt/cluster/programs/g09/g09_d.01/g09/l1.exe "/scratch/boittier/butane_opt_433_energy/Gau-73116.inp" -scrdir="/scratch/boittier/butane_opt_433_energy/"
 Entering Link 1 = /opt/cluster/programs/g09/g09_d.01/g09/l1.exe PID=     73117.
  
 Copyright (c) 1988,1990,1992,1993,1995,1998,2003,2009,2013,
            Gaussian, Inc.  All Rights Reserved.
  
 This is part of the Gaussian(R) 09 program.  It is based on
 the Gaussian(R) 03 system (copyright 2003, Gaussian, Inc.),
 the Gaussian(R) 98 system (copyright 1998, Gaussian, Inc.),
 the Gaussian(R) 94 system (copyright 1995, Gaussian, Inc.),
 the Gaussian 92(TM) system (copyright 1992, Gaussian, Inc.),
 the Gaussian 90(TM) system (copyright 1990, Gaussian, Inc.),
 the Gaussian 88(TM) system (copyright 1988, Gaussian, Inc.),
 the Gaussian 86(TM) system (copyright 1986, Carnegie Mellon
 University), and the Gaussian 82(TM) system (copyright 1983,
 Carnegie Mellon University). Gaussian is a federally registered
 trademark of Gaussian, Inc.
  
 This software contains proprietary and confidential information,
 including trade secrets, belonging to Gaussian, Inc.
  
 This software is provided under written license and may be
 used, copied, transmitted, or stored only in accord with that
 written license.
  
 The following legend is applicable only to US Government
 contracts under FAR:
  
                    RESTRICTED RIGHTS LEGEND
  
 Use, reproduction and disclosure by the US Government is
 subject to restrictions as set forth in subparagraphs (a)
 and (c) of the Commercial Computer Software - Restricted
 Rights clause in FAR 52.227-19.
  
 Gaussian, Inc.
 340 Quinnipiac St., Bldg. 40, Wallingford CT 06492
  
  
 ---------------------------------------------------------------
 Warning -- This program may not be used in any manner that
 competes with the business of Gaussian, Inc. or will provide
 assistance to any competitor of Gaussian, Inc.  The licensee
 of this program is prohibited from giving any competitor of
 Gaussian, Inc. access to this program.  By using this program,
 the user acknowledges that Gaussian, Inc. is engaged in the
 business of creating and licensing software in the field of
 computational chemistry and represents and warrants to the
 licensee that it is not a competitor of Gaussian, Inc. and that
 it will not use this program in any manner prohibited above.
 ---------------------------------------------------------------
  

 Cite this work as:
 Gaussian 09, Revision D.01,
 M. J. Frisch, G. W. Trucks, H. B. Schlegel, G. E. Scuseria, 
 M. A. Robb, J. R. Cheeseman, G. Scalmani, V. Barone, B. Mennucci, 
 G. A. Petersson, H. Nakatsuji, M. Caricato, X. Li, H. P. Hratchian, 
 A. F. Izmaylov, J. Bloino, G. Zheng, J. L. Sonnenberg, M. Hada, 
 M. Ehara, K. Toyota, R. Fukuda, J. Hasegawa, M. Ishida, T. Nakajima, 
 Y. Honda, O. Kitao, H. Nakai, T. Vreven, J. A. Montgomery, Jr., 
 J. E. Peralta, F. Ogliaro, M. Bearpark, J. J. Heyd, E. Brothers, 
 K. N. Kudin, V. N. Staroverov, T. Keith, R. Kobayashi, J. Normand, 
 K. Raghavachari, A. Rendell, J. C. Burant, S. S. Iyengar, J. Tomasi, 
 M. Cossi, N. Rega, J. M. Millam, M. Klene, J. E. Knox, J. B. Cross, 
 V. Bakken, C. Adamo, J. Jaramillo, R. Gomperts, R. E. Stratmann, 
 O. Yazyev, A. J. Austin, R. Cammi, C. Pomelli, J. W. Ochterski, 
 R. L. Martin, K. Morokuma, V. G. Zakrzewski, G. A. Voth, 
 P. Salvador, J. J. Dannenberg, S. Dapprich, A. D. Daniels, 
 O. Farkas, J. B. Foresman, J. V. Ortiz, J. Cioslowski, 
 and D. J. Fox, Gaussian, Inc., Wallingford CT, 2013.
 
 ******************************************
 Gaussian 09:  ES64L-G09RevD.01 24-Apr-2013
                26-Aug-2020 
 ******************************************
 %chk=/home/boittier/MDCM/nms_sampling/butane_geom.xyz.dir/butane_opt_433.chk
 %nproc=8
 Will use up to    8 processors via shared memory.
 %mem=16000MB
 --------------------
 #p B2PLYPD3/Def2QZVP
 --------------------
 1/38=1/1;
 2/12=2,17=6,18=5,40=1/2;
 3/5=45,7=101,11=9,16=1,25=1,30=1,74=-60/1,2,3;
 4//1;
 5/5=2,38=5/2;
 8/10=1/1;
 9/16=-3/6;
 6/7=2,8=2,9=2,10=2/1;
 99/5=1,9=1/99;
 Leave Link    1 at Wed Aug 26 21:38:19 2020, MaxMem=  2097152000 cpu:         0.2
 (Enter /opt/cluster/programs/g09/g09_d.01/g09/l101.exe)
 ----------
 butane_opt
 ----------
 Symbolic Z-matrix:
 Charge =  0 Multiplicity = 1
 C                    -3.97704   0.22134  -0.09072 
 C                    -2.69796  -0.59113   0.11267 
 H                    -4.91503  -0.41516  -0.12183 
 H                    -3.9325    0.90173  -1.01603 
 H                    -4.04202   0.92034   0.71863 
 C                    -1.41702   0.21752   0.1662 
 H                    -2.70045  -1.07866  -0.58109 
 H                    -2.90201  -1.20706   1.0812 
 C                    -0.11312  -0.73239  -0.09065 
 H                    -1.40665   1.10681   1.1303 
 H                    -1.43833   0.76426  -0.58985 
 H                     0.1488   -1.55984   0.95269 
 H                     0.83407  -0.08661  -0.49776 
 H                    -0.19674  -1.22115  -0.81205 
 
 NAtoms=     14 NQM=       14 NQMF=       0 NMMI=      0 NMMIF=      0
                NMic=       0 NMicF=      0.
                    Isotopes and Nuclear Properties:
 (Nuclear quadrupole moments (NQMom) in fm**2, nuclear magnetic moments (NMagM)
  in nuclear magnetons)

  Atom         1           2           3           4           5           6           7           8           9          10
 IAtWgt=          12          12           1           1           1          12           1           1          12           1
 AtmWgt=  12.0000000  12.0000000   1.0078250   1.0078250   1.0078250  12.0000000   1.0078250   1.0078250  12.0000000   1.0078250
 NucSpn=           0           0           1           1           1           0           1           1           0           1
 AtZEff=   0.0000000   0.0000000   0.0000000   0.0000000   0.0000000   0.0000000   0.0000000   0.0000000   0.0000000   0.0000000
 NQMom=    0.0000000   0.0000000   0.0000000   0.0000000   0.0000000   0.0000000   0.0000000   0.0000000   0.0000000   0.0000000
 NMagM=    0.0000000   0.0000000   2.7928460   2.7928460   2.7928460   0.0000000   2.7928460   2.7928460   0.0000000   2.7928460
 AtZNuc=   6.0000000   6.0000000   1.0000000   1.0000000   1.0000000   6.0000000   1.0000000   1.0000000   6.0000000   1.0000000

  Atom        11          12          13          14
 IAtWgt=           1           1           1           1
 AtmWgt=   1.0078250   1.0078250   1.0078250   1.0078250
 NucSpn=           1           1           1           1
 AtZEff=   0.0000000   0.0000000   0.0000000   0.0000000
 NQMom=    0.0000000   0.0000000   0.0000000   0.0000000
 NMagM=    2.7928460   2.7928460   2.7928460   2.7928460
 AtZNuc=   1.0000000   1.0000000   1.0000000   1.0000000
 Leave Link  101 at Wed Aug 26 21:38:19 2020, MaxMem=  2097152000 cpu:         0.5
 (Enter /opt/cluster/programs/g09/g09_d.01/g09/l202.exe)
                          Input orientation:                          
 ---------------------------------------------------------------------
 Center     Atomic      Atomic             Coordinates (Angstroms)
 Number     Number       Type             X           Y           Z
 ---------------------------------------------------------------------
      1          6           0       -3.977037    0.221338   -0.090722
      2          6           0       -2.697962   -0.591128    0.112667
      3          1           0       -4.915027   -0.415157   -0.121830
      4          1           0       -3.932497    0.901729   -1.016032
      5          1           0       -4.042017    0.920339    0.718630
      6          6           0       -1.417021    0.217515    0.166200
      7          1           0       -2.700453   -1.078657   -0.581094
      8          1           0       -2.902007   -1.207063    1.081205
      9          6           0       -0.113118   -0.732392   -0.090654
     10          1           0       -1.406651    1.106809    1.130300
     11          1           0       -1.438334    0.764256   -0.589852
     12          1           0        0.148798   -1.559843    0.952690
     13          1           0        0.834073   -0.086614   -0.497762
     14          1           0       -0.196744   -1.221147   -0.812053
 ---------------------------------------------------------------------
                    Distance matrix (angstroms):
                    1          2          3          4          5
     1  C    0.000000
     2  C    1.528889   0.000000
     3  H    1.133984   2.236366   0.000000
     4  H    1.149397   2.242021   1.870602   0.000000
     5  H    1.071389   2.111447   1.803349   1.738216   0.000000
     6  C    2.572879   1.515777   3.566410   2.862419   2.773039
     7  H    1.886828   0.847936   2.357009   2.372558   2.735884
     8  H    2.137623   1.165794   2.475209   3.147589   2.440681
     9  C    3.979883   2.596674   4.812478   4.256093   4.338514
    10  H    2.980241   2.363483   4.024042   3.320948   2.673836
    11  H    2.643653   1.979207   3.701007   2.534044   2.918159
    12  H    4.613440   3.122193   5.301625   5.156760   4.875348
    13  H    4.838109   3.619728   5.770738   4.895469   5.125409
    14  H    4.109951   2.740095   4.836137   4.301635   4.659944
                    6          7          8          9         10
     6  C    0.000000
     7  H    1.971220   0.000000
     8  H    2.252075   1.679390   0.000000
     9  C    1.633542   2.656075   3.062102   0.000000
    10  H    1.311656   3.062524   2.755450   2.558636   0.000000
    11  H    0.933271   2.233685   2.969995   2.060425   1.754215
    12  H    2.495868   3.271432   3.073822   1.357145   3.092248
    13  H    2.366593   3.672052   4.207949   1.216527   3.015906
    14  H    2.125042   2.518373   3.301980   0.875381   3.264351
                   11         12         13         14
    11  H    0.000000
    12  H    3.209339   0.000000
    13  H    2.428229   2.178030   0.000000
    14  H    2.352179   1.829872   1.564777   0.000000
 Stoichiometry    C4H10
 Framework group  C1[X(C4H10)]
 Deg. of freedom    36
 Full point group                 C1      NOp   1
 Largest Abelian subgroup         C1      NOp   1
 Largest concise Abelian subgroup C1      NOp   1
                         Standard orientation:                         
 ---------------------------------------------------------------------
 Center     Atomic      Atomic             Coordinates (Angstroms)
 Number     Number       Type             X           Y           Z
 ---------------------------------------------------------------------
      1          6           0       -1.971329    0.079572   -0.110857
      2          6           0       -0.565351   -0.494956    0.064200
      3          1           0       -2.777434   -0.714997   -0.179936
      4          1           0       -2.052228    0.800538   -1.002361
      5          1           0       -2.162312    0.715120    0.730261
      6          6           0        0.546545    0.530110    0.166694
      7          1           0       -0.479230   -0.940706   -0.651960
      8          1           0       -0.653016   -1.183786    1.000632
      9          6           0        2.001751   -0.152652   -0.124288
     10          1           0        0.395008    1.358804    1.172051
     11          1           0        0.425384    1.099649   -0.562649
     12          1           0        2.410865   -0.967869    0.880645
     13          1           0        2.814958    0.673863   -0.492396
     14          1           0        2.008308   -0.613063   -0.868781
 ---------------------------------------------------------------------
 Rotational constants (GHZ):     22.2340746      3.4856419      3.2965616
 Leave Link  202 at Wed Aug 26 21:38:20 2020, MaxMem=  2097152000 cpu:         0.0
 (Enter /opt/cluster/programs/g09/g09_d.01/g09/l301.exe)
 Standard basis: def2QZVP (5D, 7F)
 Ernie: Thresh=  0.10000D-02 Tol=  0.10000D-05 Strict=F.
 There are   638 symmetry adapted cartesian basis functions of A   symmetry.
 There are   528 symmetry adapted basis functions of A   symmetry.
   528 basis functions,   748 primitive gaussians,   638 cartesian basis functions
    17 alpha electrons       17 beta electrons
       nuclear repulsion energy       129.3870608627 Hartrees.
 IExCor=  419 DFT=T Ex+Corr=B2PLYPD3 ExCW=0 ScaHFX=  0.530000
 ScaDFX=  0.470000  0.470000  0.730000  0.730000 ScalE2=  0.270000  0.270000
 IRadAn=      0 IRanWt=     -1 IRanGd=            0 ICorTp=0 IEmpDi=141
 NAtoms=   14 NActive=   14 NUniq=   14 SFac= 1.00D+00 NAtFMM=   60 NAOKFM=F Big=F
 Integral buffers will be    131072 words long.
 Regular integral format.
 Two-electron integral symmetry is turned on.
 R6Disp:  Grimme-D3(BJ) Dispersion energy=       -0.0064250064 Hartrees.
 Nuclear repulsion after empirical dispersion term =      129.3806358563 Hartrees.
 Leave Link  301 at Wed Aug 26 21:38:20 2020, MaxMem=  2097152000 cpu:         0.5
 (Enter /opt/cluster/programs/g09/g09_d.01/g09/l302.exe)
 NPDir=0 NMtPBC=     1 NCelOv=     1 NCel=       1 NClECP=     1 NCelD=      1
         NCelK=      1 NCelE2=     1 NClLst=     1 CellRange=     0.0.
 One-electron integrals computed using PRISM.
   1 Symmetry operations used in ECPInt.
 ECPInt:  NShTT=   14196 NPrTT=   30597 LenC2=   13830 LenP2D=   25826.
 LDataN:  DoStor=T MaxTD1= 8 Len=  415
 NBasis=   528 RedAO= T EigKep=  2.78D-05  NBF=   528
 NBsUse=   528 1.00D-06 EigRej= -1.00D+00 NBFU=   528
 Precomputing XC quadrature grid using
 IXCGrd= 4 IRadAn=           0 IRanWt=          -1 IRanGd=           0 AccXCQ= 0.00D+00.
 Generated NRdTot=       0 NPtTot=           0 NUsed=           0 NTot=          32
 NSgBfM=   638   638   638   638   638 MxSgAt=    14 MxSgA2=    14.
 Leave Link  302 at Wed Aug 26 21:38:20 2020, MaxMem=  2097152000 cpu:         4.8
 (Enter /opt/cluster/programs/g09/g09_d.01/g09/l303.exe)
 DipDrv:  MaxL=1.
 Leave Link  303 at Wed Aug 26 21:38:20 2020, MaxMem=  2097152000 cpu:         0.5
 (Enter /opt/cluster/programs/g09/g09_d.01/g09/l401.exe)
 ExpMin= 7.60D-02 ExpMax= 6.70D+04 ExpMxC= 6.47D+02 IAcc=2 IRadAn=         4 AccDes= 0.00D+00
 Harris functional with IExCor=  419 and IRadAn=       4 diagonalized for initial guess.
 HarFok:  IExCor=  419 AccDes= 0.00D+00 IRadAn=         4 IDoV= 1 UseB2=F ITyADJ=14
 ICtDFT=  3500011 ScaDFX=  1.000000  1.000000  1.000000  1.000000
 FoFCou: FMM=F IPFlag=           0 FMFlag=      100000 FMFlg1=           0
         NFxFlg=           0 DoJE=T BraDBF=F KetDBF=T FulRan=T
         wScrn=  0.000000 ICntrl=     500 IOpCl=  0 I1Cent=   200000004 NGrid=           0
         NMat0=    1 NMatS0=      1 NMatT0=    0 NMatD0=    1 NMtDS0=    0 NMtDT0=    0
 Petite list used in FoFCou.
 Harris En= -158.455057235399    
 JPrj=0 DoOrth=F DoCkMO=F.
 Leave Link  401 at Wed Aug 26 21:38:22 2020, MaxMem=  2097152000 cpu:        14.5
 (Enter /opt/cluster/programs/g09/g09_d.01/g09/l502.exe)
 Closed shell SCF:
 Using DIIS extrapolation, IDIIS=  1040.
 Integral symmetry usage will be decided dynamically.
 IVT=     1249338 IEndB=     1249338 NGot=  2097152000 MDV=  2096326985
 LenX=  2096326985 LenY=  2095919303
 Requested convergence on RMS density matrix=1.00D-08 within 128 cycles.
 Requested convergence on MAX density matrix=1.00D-06.
 Requested convergence on             energy=1.00D-06.
 No special actions if energy rises.
 Fock matrices will be formed incrementally for  20 cycles.
 Integral accuracy reduced to 1.0D-05 until final iterations.

 Cycle   1  Pass 0  IDiag  1:
 FoFJK:  IHMeth= 1 ICntrl=       0 DoSepK=F KAlg= 0 I1Cent=   0 FoldK=F
 IRaf= 930000000 NMat=   1 IRICut=       1 DoRegI=T DoRafI=F ISym2E= 0.
 FoFCou: FMM=F IPFlag=           0 FMFlag=      100000 FMFlg1=           0
         NFxFlg=           0 DoJE=F BraDBF=F KetDBF=F FulRan=T
         wScrn=  0.000000 ICntrl=       0 IOpCl=  0 I1Cent=           0 NGrid=           0
         NMat0=    1 NMatS0=      1 NMatT0=    0 NMatD0=    1 NMtDS0=    0 NMtDT0=    0
 Symmetry not used in FoFCou.
 E= -157.630046515627    
 DIIS: error= 2.56D-02 at cycle   1 NSaved=   1.
 NSaved= 1 IEnMin= 1 EnMin= -157.630046515627     IErMin= 1 ErrMin= 2.56D-02
 ErrMax= 2.56D-02  0.00D+00 EMaxC= 1.00D-01 BMatC= 3.64D-01 BMatP= 3.64D-01
 IDIUse=3 WtCom= 7.44D-01 WtEn= 2.56D-01
 Coeff-Com:  0.100D+01
 Coeff-En:   0.100D+01
 Coeff:      0.100D+01
 Gap=     0.393 Goal=   None    Shift=    0.000
 GapD=    0.393 DampG=1.000 DampE=0.500 DampFc=0.5000 IDamp=-1.
 Damping current iteration by 5.00D-01
 RMSDP=1.05D-03 MaxDP=4.94D-02              OVMax= 1.93D-01

 Cycle   2  Pass 0  IDiag  1:
 RMSU=  5.01D-04    CP:  9.50D-01
 E= -157.779644060305     Delta-E=       -0.149597544678 Rises=F Damp=T
 DIIS: error= 5.82D-03 at cycle   2 NSaved=   2.
 NSaved= 2 IEnMin= 2 EnMin= -157.779644060305     IErMin= 2 ErrMin= 5.82D-03
 ErrMax= 5.82D-03  0.00D+00 EMaxC= 1.00D-01 BMatC= 3.34D-02 BMatP= 3.64D-01
 IDIUse=3 WtCom= 9.42D-01 WtEn= 5.82D-02
 Coeff-Com: -0.169D+00 0.117D+01
 Coeff-En:   0.000D+00 0.100D+01
 Coeff:     -0.159D+00 0.116D+01
 Gap=     0.451 Goal=   None    Shift=    0.000
 RMSDP=2.89D-04 MaxDP=1.83D-02 DE=-1.50D-01 OVMax= 1.13D-01

 Cycle   3  Pass 0  IDiag  1:
 RMSU=  2.66D-04    CP:  9.40D-01  7.85D-01
 E= -157.920215403510     Delta-E=       -0.140571343205 Rises=F Damp=F
 DIIS: error= 4.24D-03 at cycle   3 NSaved=   3.
 NSaved= 3 IEnMin= 3 EnMin= -157.920215403510     IErMin= 3 ErrMin= 4.24D-03
 ErrMax= 4.24D-03  0.00D+00 EMaxC= 1.00D-01 BMatC= 3.32D-03 BMatP= 3.34D-02
 IDIUse=3 WtCom= 9.58D-01 WtEn= 4.24D-02
 Coeff-Com: -0.103D+00 0.220D+00 0.884D+00
 Coeff-En:   0.000D+00 0.000D+00 0.100D+01
 Coeff:     -0.991D-01 0.210D+00 0.889D+00
 Gap=     0.420 Goal=   None    Shift=    0.000
 RMSDP=6.61D-05 MaxDP=5.18D-03 DE=-1.41D-01 OVMax= 1.57D-02

 Cycle   4  Pass 0  IDiag  1:
 RMSU=  5.20D-05    CP:  9.35D-01  8.60D-01  1.02D+00
 E= -157.923611407663     Delta-E=       -0.003396004152 Rises=F Damp=F
 DIIS: error= 8.88D-04 at cycle   4 NSaved=   4.
 NSaved= 4 IEnMin= 4 EnMin= -157.923611407663     IErMin= 4 ErrMin= 8.88D-04
 ErrMax= 8.88D-04  0.00D+00 EMaxC= 1.00D-01 BMatC= 1.82D-04 BMatP= 3.32D-03
 IDIUse=3 WtCom= 9.91D-01 WtEn= 8.88D-03
 Coeff-Com: -0.257D-01 0.392D-01 0.279D+00 0.708D+00
 Coeff-En:   0.000D+00 0.000D+00 0.000D+00 0.100D+01
 Coeff:     -0.255D-01 0.389D-01 0.276D+00 0.710D+00
 Gap=     0.421 Goal=   None    Shift=    0.000
 RMSDP=1.83D-05 MaxDP=1.58D-03 DE=-3.40D-03 OVMax= 3.45D-03

 Cycle   5  Pass 0  IDiag  1:
 RMSU=  1.37D-05    CP:  9.35D-01  8.45D-01  1.05D+00  9.10D-01
 E= -157.923775698506     Delta-E=       -0.000164290844 Rises=F Damp=F
 DIIS: error= 2.18D-04 at cycle   5 NSaved=   5.
 NSaved= 5 IEnMin= 5 EnMin= -157.923775698506     IErMin= 5 ErrMin= 2.18D-04
 ErrMax= 2.18D-04  0.00D+00 EMaxC= 1.00D-01 BMatC= 1.82D-05 BMatP= 1.82D-04
 IDIUse=3 WtCom= 9.98D-01 WtEn= 2.18D-03
 Coeff-Com: -0.162D-02-0.206D-02 0.396D-01 0.270D+00 0.694D+00
 Coeff-En:   0.000D+00 0.000D+00 0.000D+00 0.000D+00 0.100D+01
 Coeff:     -0.162D-02-0.206D-02 0.395D-01 0.269D+00 0.695D+00
 Gap=     0.421 Goal=   None    Shift=    0.000
 RMSDP=5.11D-06 MaxDP=3.04D-04 DE=-1.64D-04 OVMax= 9.31D-04

 Initial convergence to 1.0D-05 achieved.  Increase integral accuracy.
 Cycle   6  Pass 1  IDiag  1:
 E= -157.923785068640     Delta-E=       -0.000009370134 Rises=F Damp=F
 DIIS: error= 6.88D-05 at cycle   1 NSaved=   1.
 NSaved= 1 IEnMin= 1 EnMin= -157.923785068640     IErMin= 1 ErrMin= 6.88D-05
 ErrMax= 6.88D-05  0.00D+00 EMaxC= 1.00D-01 BMatC= 9.32D-07 BMatP= 9.32D-07
 IDIUse=1 WtCom= 1.00D+00 WtEn= 0.00D+00
 Coeff-Com:  0.100D+01
 Coeff:      0.100D+01
 Gap=     0.421 Goal=   None    Shift=    0.000
 RMSDP=5.11D-06 MaxDP=3.04D-04 DE=-9.37D-06 OVMax= 2.00D-04

 Cycle   7  Pass 1  IDiag  1:
 RMSU=  2.89D-05    CP:  1.00D+00
 E= -157.923785655417     Delta-E=       -0.000000586777 Rises=F Damp=F
 DIIS: error= 1.01D-05 at cycle   2 NSaved=   2.
 NSaved= 2 IEnMin= 2 EnMin= -157.923785655417     IErMin= 2 ErrMin= 1.01D-05
 ErrMax= 1.01D-05  0.00D+00 EMaxC= 1.00D-01 BMatC= 6.28D-08 BMatP= 9.32D-07
 IDIUse=1 WtCom= 1.00D+00 WtEn= 0.00D+00
 Coeff-Com:  0.886D-01 0.911D+00
 Coeff:      0.886D-01 0.911D+00
 Gap=     0.421 Goal=   None    Shift=    0.000
 RMSDP=1.05D-06 MaxDP=7.51D-05 DE=-5.87D-07 OVMax= 1.03D-04

 Cycle   8  Pass 1  IDiag  1:
 RMSU=  5.63D-07    CP:  1.00D+00  1.03D+00
 E= -157.923785696783     Delta-E=       -0.000000041366 Rises=F Damp=F
 DIIS: error= 6.89D-06 at cycle   3 NSaved=   3.
 NSaved= 3 IEnMin= 3 EnMin= -157.923785696783     IErMin= 3 ErrMin= 6.89D-06
 ErrMax= 6.89D-06  0.00D+00 EMaxC= 1.00D-01 BMatC= 3.26D-08 BMatP= 6.28D-08
 IDIUse=1 WtCom= 1.00D+00 WtEn= 0.00D+00
 Coeff-Com: -0.212D-01 0.411D+00 0.610D+00
 Coeff:     -0.212D-01 0.411D+00 0.610D+00
 Gap=     0.421 Goal=   None    Shift=    0.000
 RMSDP=2.40D-07 MaxDP=2.27D-05 DE=-4.14D-08 OVMax= 4.06D-05

 Cycle   9  Pass 1  IDiag  1:
 RMSU=  1.93D-07    CP:  1.00D+00  1.04D+00  9.56D-01
 E= -157.923785729009     Delta-E=       -0.000000032226 Rises=F Damp=F
 DIIS: error= 9.82D-07 at cycle   4 NSaved=   4.
 NSaved= 4 IEnMin= 4 EnMin= -157.923785729009     IErMin= 4 ErrMin= 9.82D-07
 ErrMax= 9.82D-07  0.00D+00 EMaxC= 1.00D-01 BMatC= 2.75D-10 BMatP= 3.26D-08
 IDIUse=1 WtCom= 1.00D+00 WtEn= 0.00D+00
 Coeff-Com: -0.539D-02-0.189D-01 0.255D-01 0.999D+00
 Coeff:     -0.539D-02-0.189D-01 0.255D-01 0.999D+00
 Gap=     0.421 Goal=   None    Shift=    0.000
 RMSDP=5.27D-08 MaxDP=2.90D-06 DE=-3.22D-08 OVMax= 7.55D-06

 Cycle  10  Pass 1  IDiag  1:
 RMSU=  3.41D-08    CP:  1.00D+00  1.04D+00  1.01D+00  1.12D+00
 E= -157.923785729485     Delta-E=       -0.000000000476 Rises=F Damp=F
 DIIS: error= 3.63D-07 at cycle   5 NSaved=   5.
 NSaved= 5 IEnMin= 5 EnMin= -157.923785729485     IErMin= 5 ErrMin= 3.63D-07
 ErrMax= 3.63D-07  0.00D+00 EMaxC= 1.00D-01 BMatC= 2.91D-11 BMatP= 2.75D-10
 IDIUse=1 WtCom= 1.00D+00 WtEn= 0.00D+00
 Coeff-Com:  0.503D-03-0.350D-01-0.427D-01 0.210D+00 0.867D+00
 Coeff:      0.503D-03-0.350D-01-0.427D-01 0.210D+00 0.867D+00
 Gap=     0.421 Goal=   None    Shift=    0.000
 RMSDP=1.52D-08 MaxDP=7.60D-07 DE=-4.76D-10 OVMax= 2.27D-06

 Cycle  11  Pass 1  IDiag  1:
 RMSU=  9.78D-09    CP:  1.00D+00  1.04D+00  1.02D+00  1.16D+00  1.16D+00
 E= -157.923785729521     Delta-E=       -0.000000000035 Rises=F Damp=F
 DIIS: error= 6.65D-08 at cycle   6 NSaved=   6.
 NSaved= 6 IEnMin= 6 EnMin= -157.923785729521     IErMin= 6 ErrMin= 6.65D-08
 ErrMax= 6.65D-08  0.00D+00 EMaxC= 1.00D-01 BMatC= 2.62D-12 BMatP= 2.91D-11
 IDIUse=1 WtCom= 1.00D+00 WtEn= 0.00D+00
 Coeff-Com:  0.368D-03-0.129D-01-0.173D-01 0.535D-01 0.334D+00 0.642D+00
 Coeff:      0.368D-03-0.129D-01-0.173D-01 0.535D-01 0.334D+00 0.642D+00
 Gap=     0.421 Goal=   None    Shift=    0.000
 RMSDP=2.12D-09 MaxDP=1.16D-07 DE=-3.52D-11 OVMax= 4.11D-07

 SCF Done:  E(RB2PLYPD3) =  -157.923785730     A.U. after   11 cycles
            NFock= 11  Conv=0.21D-08     -V/T= 2.0011
 KE= 1.577504579025D+02 PE=-6.244160571730D+02 EE= 1.793611776847D+02
 Leave Link  502 at Wed Aug 26 21:44:07 2020, MaxMem=  2097152000 cpu:      2742.5
 (Enter /opt/cluster/programs/g09/g09_d.01/g09/l801.exe)
 DoSCS=T DFT=T ScalE2(SS,OS)=  0.270000  0.270000
 ExpMin= 7.60D-02 ExpMax= 6.70D+04 ExpMxC= 6.47D+02 IAcc=3 IRadAn=         5 AccDes= 0.00D+00
 HarFok:  IExCor=  205 AccDes= 0.00D+00 IRadAn=         5 IDoV=-2 UseB2=F ITyADJ=14
 ICtDFT= 12500011 ScaDFX=  1.000000  1.000000  1.000000  1.000000
 Largest valence mixing into a core orbital is  1.13D-04
 Largest core mixing into a valence orbital is  1.60D-05
 Range of M.O.s used for correlation:     5   528
 NBasis=   528 NAE=    17 NBE=    17 NFC=     4 NFV=     0
 NROrb=    524 NOA=    13 NOB=    13 NVA=   511 NVB=   511

 **** Warning!!: The largest alpha MO coefficient is  0.32910727D+02

 Leave Link  801 at Wed Aug 26 21:44:08 2020, MaxMem=  2097152000 cpu:         1.1
 (Enter /opt/cluster/programs/g09/g09_d.01/g09/l906.exe)
 DoSCS=T DFT=T ScalE2(SS,OS)=  0.270000  0.270000
 FulOut=F Deriv=F AODrv=F NAtomX=    14
   MMem=         463  MDisk=          13 MDiskD=          13
  W3Min=     4238234 MinDsk=     6904766 NBas6D=         638
 NBas2D=      205689    NTT=      203841    LW2=     4508827
    MDV=  2095906246 MDiskM=        7293 NBas2p=      188501
 Fully direct method using O(OVN) memory.
 IMap=   1   2   3   4   5   6   7   8   9  10  11  12  13
 JobTyp=1 Pass  1:  I=   1 to  13 NPSUse=  8 ParTrn=T ParDer=T DoDerP=F.
 Spin components of T(2) and E(2):
     alpha-alpha T2 =       0.4078391981D-01 E2=     -0.2614007111D-01
     alpha-beta  T2 =       0.2755622080D+00 E2=     -0.1959333764D+00
     beta-beta   T2 =       0.4078391981D-01 E2=     -0.2614007111D-01
 The integrals were generated   1 times.
 E2(B2PLYPD3) =    -0.2482135187D+00 E(B2PLYPD3) =    -0.15817199924817D+03
 Leave Link  906 at Wed Aug 26 21:50:09 2020, MaxMem=  2097152000 cpu:      2882.8
 (Enter /opt/cluster/programs/g09/g09_d.01/g09/l601.exe)
 Copying SCF densities to generalized density rwf, IOpCl= 0 IROHF=0.

 **********************************************************************

            Population analysis using the SCF density.

 **********************************************************************

 Orbital symmetries:
       Occupied  (A) (A) (A) (A) (A) (A) (A) (A) (A) (A) (A) (A)
                 (A) (A) (A) (A) (A)
       Virtual   (A) (A) (A) (A) (A) (A) (A) (A) (A) (A) (A) (A)
                 (A) (A) (A) (A) (A) (A) (A) (A) (A) (A) (A) (A)
                 (A) (A) (A) (A) (A) (A) (A) (A) (A) (A) (A) (A)
                 (A) (A) (A) (A) (A) (A) (A) (A) (A) (A) (A) (A)
                 (A) (A) (A) (A) (A) (A) (A) (A) (A) (A) (A) (A)
                 (A) (A) (A) (A) (A) (A) (A) (A) (A) (A) (A) (A)
                 (A) (A) (A) (A) (A) (A) (A) (A) (A) (A) (A) (A)
                 (A) (A) (A) (A) (A) (A) (A) (A) (A) (A) (A) (A)
                 (A) (A) (A) (A) (A) (A) (A) (A) (A) (A) (A) (A)
                 (A) (A) (A) (A) (A) (A) (A) (A) (A) (A) (A) (A)
                 (A) (A) (A) (A) (A) (A) (A) (A) (A) (A) (A) (A)
                 (A) (A) (A) (A) (A) (A) (A) (A) (A) (A) (A) (A)
                 (A) (A) (A) (A) (A) (A) (A) (A) (A) (A) (A) (A)
                 (A) (A) (A) (A) (A) (A) (A) (A) (A) (A) (A) (A)
                 (A) (A) (A) (A) (A) (A) (A) (A) (A) (A) (A) (A)
                 (A) (A) (A) (A) (A) (A) (A) (A) (A) (A) (A) (A)
                 (A) (A) (A) (A) (A) (A) (A) (A) (A) (A) (A) (A)
                 (A) (A) (A) (A) (A) (A) (A) (A) (A) (A) (A) (A)
                 (A) (A) (A) (A) (A) (A) (A) (A) (A) (A) (A) (A)
                 (A) (A) (A) (A) (A) (A) (A) (A) (A) (A) (A) (A)
                 (A) (A) (A) (A) (A) (A) (A) (A) (A) (A) (A) (A)
                 (A) (A) (A) (A) (A) (A) (A) (A) (A) (A) (A) (A)
                 (A) (A) (A) (A) (A) (A) (A) (A) (A) (A) (A) (A)
                 (A) (A) (A) (A) (A) (A) (A) (A) (A) (A) (A) (A)
                 (A) (A) (A) (A) (A) (A) (A) (A) (A) (A) (A) (A)
                 (A) (A) (A) (A) (A) (A) (A) (A) (A) (A) (A) (A)
                 (A) (A) (A) (A) (A) (A) (A) (A) (A) (A) (A) (A)
                 (A) (A) (A) (A) (A) (A) (A) (A) (A) (A) (A) (A)
                 (A) (A) (A) (A) (A) (A) (A) (A) (A) (A) (A) (A)
                 (A) (A) (A) (A) (A) (A) (A) (A) (A) (A) (A) (A)
                 (A) (A) (A) (A) (A) (A) (A) (A) (A) (A) (A) (A)
                 (A) (A) (A) (A) (A) (A) (A) (A) (A) (A) (A) (A)
                 (A) (A) (A) (A) (A) (A) (A) (A) (A) (A) (A) (A)
                 (A) (A) (A) (A) (A) (A) (A) (A) (A) (A) (A) (A)
                 (A) (A) (A) (A) (A) (A) (A) (A) (A) (A) (A) (A)
                 (A) (A) (A) (A) (A) (A) (A) (A) (A) (A) (A) (A)
                 (A) (A) (A) (A) (A) (A) (A) (A) (A) (A) (A) (A)
                 (A) (A) (A) (A) (A) (A) (A) (A) (A) (A) (A) (A)
                 (A) (A) (A) (A) (A) (A) (A) (A) (A) (A) (A) (A)
                 (A) (A) (A) (A) (A) (A) (A) (A) (A) (A) (A) (A)
                 (A) (A) (A) (A) (A) (A) (A) (A) (A) (A) (A) (A)
                 (A) (A) (A) (A) (A) (A) (A) (A) (A) (A) (A) (A)
                 (A) (A) (A) (A) (A) (A) (A)
 The electronic state is 1-A.
 Alpha  occ. eigenvalues --  -10.62388 -10.62013 -10.60557 -10.58599  -0.92308
 Alpha  occ. eigenvalues --   -0.83272  -0.74193  -0.69315  -0.54823  -0.49730
 Alpha  occ. eigenvalues --   -0.48149  -0.45793  -0.42754  -0.40377  -0.38985
 Alpha  occ. eigenvalues --   -0.38151  -0.37047
 Alpha virt. eigenvalues --    0.05021   0.06294   0.08284   0.08600   0.10959
 Alpha virt. eigenvalues --    0.11254   0.12508   0.12812   0.14526   0.15182
 Alpha virt. eigenvalues --    0.15608   0.16613   0.19199   0.19576   0.20554
 Alpha virt. eigenvalues --    0.22315   0.23277   0.23795   0.26071   0.29162
 Alpha virt. eigenvalues --    0.29521   0.31141   0.31674   0.32569   0.33591
 Alpha virt. eigenvalues --    0.35339   0.35699   0.37125   0.38062   0.39007
 Alpha virt. eigenvalues --    0.41063   0.42274   0.43647   0.44987   0.46314
 Alpha virt. eigenvalues --    0.49897   0.51548   0.54792   0.55343   0.56736
 Alpha virt. eigenvalues --    0.58355   0.61008   0.63449   0.64370   0.65797
 Alpha virt. eigenvalues --    0.67173   0.67712   0.68666   0.69763   0.71396
 Alpha virt. eigenvalues --    0.73893   0.74628   0.75970   0.77797   0.78542
 Alpha virt. eigenvalues --    0.80875   0.82331   0.83575   0.84676   0.86390
 Alpha virt. eigenvalues --    0.87512   0.89455   0.89614   0.90662   0.91940
 Alpha virt. eigenvalues --    0.92488   0.93902   0.96433   0.97022   0.98055
 Alpha virt. eigenvalues --    0.99433   0.99668   1.00633   1.01823   1.02481
 Alpha virt. eigenvalues --    1.04112   1.05915   1.06683   1.07497   1.09524
 Alpha virt. eigenvalues --    1.10947   1.12089   1.12565   1.14650   1.18802
 Alpha virt. eigenvalues --    1.21402   1.22578   1.23891   1.25877   1.28357
 Alpha virt. eigenvalues --    1.29651   1.30345   1.32208   1.33470   1.34805
 Alpha virt. eigenvalues --    1.36357   1.40625   1.41855   1.44070   1.45648
 Alpha virt. eigenvalues --    1.46082   1.49103   1.50974   1.52867   1.55333
 Alpha virt. eigenvalues --    1.62968   1.64366   1.66774   1.70522   1.72181
 Alpha virt. eigenvalues --    1.77122   1.83473   1.86996   1.88743   1.90009
 Alpha virt. eigenvalues --    1.90705   1.92528   1.93746   1.95711   1.98244
 Alpha virt. eigenvalues --    2.00268   2.00914   2.02648   2.03965   2.04256
 Alpha virt. eigenvalues --    2.06716   2.06800   2.07618   2.08352   2.10420
 Alpha virt. eigenvalues --    2.12221   2.13360   2.13715   2.14576   2.16274
 Alpha virt. eigenvalues --    2.17391   2.18330   2.18693   2.21082   2.21285
 Alpha virt. eigenvalues --    2.23249   2.24815   2.25721   2.27010   2.28352
 Alpha virt. eigenvalues --    2.30061   2.30899   2.32693   2.34132   2.37013
 Alpha virt. eigenvalues --    2.38441   2.40908   2.43792   2.44674   2.45906
 Alpha virt. eigenvalues --    2.47719   2.50402   2.51204   2.52584   2.52613
 Alpha virt. eigenvalues --    2.54060   2.56357   2.58610   2.59352   2.60008
 Alpha virt. eigenvalues --    2.61000   2.61418   2.64617   2.66467   2.67801
 Alpha virt. eigenvalues --    2.68659   2.69368   2.70145   2.72444   2.76631
 Alpha virt. eigenvalues --    2.79737   2.81539   2.82223   2.84173   2.85659
 Alpha virt. eigenvalues --    2.87112   2.88419   2.88722   2.90829   2.93771
 Alpha virt. eigenvalues --    2.95325   2.96118   2.98049   2.99758   3.00567
 Alpha virt. eigenvalues --    3.01957   3.02511   3.05098   3.06358   3.07514
 Alpha virt. eigenvalues --    3.09631   3.11673   3.13967   3.15201   3.16750
 Alpha virt. eigenvalues --    3.17461   3.21793   3.24295   3.25701   3.26422
 Alpha virt. eigenvalues --    3.28256   3.30270   3.31850   3.33420   3.35758
 Alpha virt. eigenvalues --    3.38948   3.41718   3.42745   3.45887   3.47311
 Alpha virt. eigenvalues --    3.49459   3.51747   3.54288   3.55621   3.57562
 Alpha virt. eigenvalues --    3.59895   3.61468   3.65421   3.70929   3.71709
 Alpha virt. eigenvalues --    3.74140   3.77401   3.79040   3.82734   3.88119
 Alpha virt. eigenvalues --    3.92550   3.93369   3.94026   3.97599   3.99993
 Alpha virt. eigenvalues --    4.03013   4.04279   4.06936   4.09687   4.10957
 Alpha virt. eigenvalues --    4.15786   4.19018   4.21424   4.25442   4.29949
 Alpha virt. eigenvalues --    4.32223   4.34458   4.36609   4.40576   4.45886
 Alpha virt. eigenvalues --    4.55873   4.62574   4.65564   4.85702   4.90988
 Alpha virt. eigenvalues --    5.06050   5.15334   5.18844   5.24437   5.30106
 Alpha virt. eigenvalues --    5.35383   5.38791   5.44575   5.48663   5.50853
 Alpha virt. eigenvalues --    5.54180   5.55616   5.57164   5.59540   5.63844
 Alpha virt. eigenvalues --    5.65464   5.66843   5.68459   5.71351   5.72732
 Alpha virt. eigenvalues --    5.76116   5.80130   5.80655   5.84510   5.87311
 Alpha virt. eigenvalues --    5.87733   5.91209   5.91463   5.93666   5.95168
 Alpha virt. eigenvalues --    5.96098   5.97122   5.99650   6.00344   6.01194
 Alpha virt. eigenvalues --    6.03291   6.04186   6.05677   6.07350   6.08199
 Alpha virt. eigenvalues --    6.08890   6.09486   6.10354   6.14841   6.15354
 Alpha virt. eigenvalues --    6.17499   6.18121   6.19737   6.20459   6.23707
 Alpha virt. eigenvalues --    6.25941   6.27881   6.28670   6.29564   6.31443
 Alpha virt. eigenvalues --    6.32942   6.35415   6.36843   6.37174   6.37926
 Alpha virt. eigenvalues --    6.39881   6.44353   6.46243   6.48899   6.50306
 Alpha virt. eigenvalues --    6.51880   6.52493   6.54035   6.58393   6.61898
 Alpha virt. eigenvalues --    6.63010   6.64435   6.65803   6.69204   6.72179
 Alpha virt. eigenvalues --    6.73927   6.77469   6.78860   6.83698   6.86341
 Alpha virt. eigenvalues --    6.86973   6.88939   6.90398   6.91844   6.95100
 Alpha virt. eigenvalues --    6.96042   6.97742   6.99871   7.02748   7.04336
 Alpha virt. eigenvalues --    7.07164   7.07291   7.08771   7.13582   7.14405
 Alpha virt. eigenvalues --    7.15093   7.18102   7.20861   7.24928   7.26376
 Alpha virt. eigenvalues --    7.28041   7.29750   7.33240   7.36580   7.39600
 Alpha virt. eigenvalues --    7.41800   7.42570   7.43593   7.48298   7.49711
 Alpha virt. eigenvalues --    7.52299   7.54197   7.56842   7.58878   7.60116
 Alpha virt. eigenvalues --    7.62488   7.65254   7.67819   7.69216   7.70185
 Alpha virt. eigenvalues --    7.70961   7.73610   7.74978   7.78742   7.79918
 Alpha virt. eigenvalues --    7.81047   7.83207   7.86058   7.87888   7.89509
 Alpha virt. eigenvalues --    7.90240   7.91812   7.93805   7.96100   7.97216
 Alpha virt. eigenvalues --    8.00178   8.01003   8.01193   8.04605   8.10929
 Alpha virt. eigenvalues --    8.12355   8.13910   8.15357   8.18025   8.19499
 Alpha virt. eigenvalues --    8.21176   8.24380   8.24803   8.27461   8.29843
 Alpha virt. eigenvalues --    8.31183   8.34266   8.34950   8.36108   8.38738
 Alpha virt. eigenvalues --    8.39134   8.40616   8.40674   8.45009   8.46155
 Alpha virt. eigenvalues --    8.46659   8.48309   8.49609   8.52428   8.53947
 Alpha virt. eigenvalues --    8.55026   8.57887   8.59153   8.61595   8.63199
 Alpha virt. eigenvalues --    8.63619   8.66416   8.68561   8.69357   8.72499
 Alpha virt. eigenvalues --    8.73973   8.76524   8.79414   8.82588   8.85696
 Alpha virt. eigenvalues --    8.85904   8.87088   8.91254   8.92631   8.94891
 Alpha virt. eigenvalues --    8.99462   9.02762   9.02896   9.03955   9.05877
 Alpha virt. eigenvalues --    9.08428   9.10321   9.12371   9.13313   9.17316
 Alpha virt. eigenvalues --    9.17798   9.20026   9.27187   9.27942   9.34451
 Alpha virt. eigenvalues --    9.35563   9.38917   9.43172   9.46565   9.46908
 Alpha virt. eigenvalues --    9.51414   9.55524   9.58304   9.61156   9.63212
 Alpha virt. eigenvalues --    9.70635   9.73851   9.75193   9.79015   9.83058
 Alpha virt. eigenvalues --    9.84650   9.85482   9.91545   9.94073  10.06630
 Alpha virt. eigenvalues --   10.10306  10.16060  10.20054  10.25859  10.31813
 Alpha virt. eigenvalues --   10.36187  10.40089  10.48995  10.50382  10.66146
 Alpha virt. eigenvalues --   10.75505  10.82240  11.02485  11.11735  11.30179
 Alpha virt. eigenvalues --   11.30984  11.48982  11.53892  11.57761  11.75126
 Alpha virt. eigenvalues --   11.78277  11.83260  12.05758  12.07249  12.20218
 Alpha virt. eigenvalues --   12.31216  12.61191  13.16388  29.14588  29.23800
 Alpha virt. eigenvalues --   29.42787  29.62618 148.82669 148.89361 149.07808
 Alpha virt. eigenvalues --  149.37360
          Condensed to atoms (all electrons):
               1          2          3          4          5          6
     1  C    4.718956   0.361924   0.409126   0.396152   0.398978  -0.046863
     2  C    0.361924   4.880832  -0.040570  -0.039066  -0.053846   0.350132
     3  H    0.409126  -0.040570   0.646039  -0.031553  -0.028339   0.007895
     4  H    0.396152  -0.039066  -0.031553   0.687743  -0.036743  -0.005153
     5  H    0.398978  -0.053846  -0.028339  -0.036743   0.664859  -0.004045
     6  C   -0.046863   0.350132   0.007895  -0.005153  -0.004045   4.769260
     7  H   -0.040251   0.446493  -0.004437  -0.008540   0.011317  -0.032578
     8  H   -0.052259   0.398109  -0.005335   0.010209  -0.005530  -0.043099
     9  C    0.007192  -0.053960  -0.000724   0.000024  -0.000197   0.375803
    10  H   -0.003126  -0.037627  -0.000126  -0.000264   0.003858   0.387186
    11  H   -0.008536  -0.043502   0.000133   0.004841  -0.000597   0.406683
    12  H   -0.000223   0.001005   0.000034  -0.000016   0.000025  -0.033573
    13  H   -0.000582   0.007936   0.000033   0.000003   0.000015  -0.036046
    14  H    0.000086  -0.008225  -0.000021   0.000069  -0.000036  -0.024414
               7          8          9         10         11         12
     1  C   -0.040251  -0.052259   0.007192  -0.003126  -0.008536  -0.000223
     2  C    0.446493   0.398109  -0.053960  -0.037627  -0.043502   0.001005
     3  H   -0.004437  -0.005335  -0.000724  -0.000126   0.000133   0.000034
     4  H   -0.008540   0.010209   0.000024  -0.000264   0.004841  -0.000016
     5  H    0.011317  -0.005530  -0.000197   0.003858  -0.000597   0.000025
     6  C   -0.032578  -0.043099   0.375803   0.387186   0.406683  -0.033573
     7  H    0.510148  -0.041123  -0.007775   0.008525  -0.010982   0.000723
     8  H   -0.041123   0.708315  -0.002506  -0.004758   0.011329   0.002314
     9  C   -0.007775  -0.002506   4.790236  -0.020459  -0.045388   0.370888
    10  H    0.008525  -0.004758  -0.020459   0.696392  -0.041369  -0.002587
    11  H   -0.010982   0.011329  -0.045388  -0.041369   0.634052   0.006599
    12  H    0.000723   0.002314   0.370888  -0.002587   0.006599   0.659670
    13  H    0.000154  -0.000137   0.390785  -0.002073  -0.002012  -0.013927
    14  H    0.002449   0.000011   0.432288   0.005128  -0.005546  -0.023149
              13         14
     1  C   -0.000582   0.000086
     2  C    0.007936  -0.008225
     3  H    0.000033  -0.000021
     4  H    0.000003   0.000069
     5  H    0.000015  -0.000036
     6  C   -0.036046  -0.024414
     7  H    0.000154   0.002449
     8  H   -0.000137   0.000011
     9  C    0.390785   0.432288
    10  H   -0.002073   0.005128
    11  H   -0.002012  -0.005546
    12  H   -0.013927  -0.023149
    13  H    0.678273  -0.052214
    14  H   -0.052214   0.534332
 Mulliken charges:
               1
     1  C   -0.140573
     2  C   -0.169635
     3  H    0.047846
     4  H    0.022293
     5  H    0.050283
     6  C   -0.071189
     7  H    0.165874
     8  H    0.024461
     9  C   -0.236207
    10  H    0.011300
    11  H    0.094296
    12  H    0.032218
    13  H    0.029791
    14  H    0.139241
 Sum of Mulliken charges =   0.00000
 Mulliken charges with hydrogens summed into heavy atoms:
               1
     1  C   -0.020151
     2  C    0.020700
     6  C    0.034407
     9  C   -0.034956
 Electronic spatial extent (au):  <R**2>=            441.4509
 Charge=              0.0000 electrons
 Dipole moment (field-independent basis, Debye):
    X=             -0.2227    Y=             -0.0863    Z=             -0.6713  Tot=              0.7125
 Quadrupole moment (field-independent basis, Debye-Ang):
   XX=            -30.6052   YY=            -28.8376   ZZ=            -28.2758
   XY=              0.2727   XZ=             -1.2571   YZ=             -0.2082
 Traceless Quadrupole moment (field-independent basis, Debye-Ang):
   XX=             -1.3656   YY=              0.4019   ZZ=              0.9637
   XY=              0.2727   XZ=             -1.2571   YZ=             -0.2082
 Octapole moment (field-independent basis, Debye-Ang**2):
  XXX=             -3.5724  YYY=             -0.1958  ZZZ=             -2.2152  XYY=             -1.0428
  XXY=             -1.8514  XXZ=             -3.1176  XZZ=              0.2694  YZZ=             -0.3723
  YYZ=             -0.5528  XYZ=             -0.9356
 Hexadecapole moment (field-independent basis, Debye-Ang**3):
 XXXX=           -503.8349 YYYY=            -95.2443 ZZZZ=            -64.1591 XXXY=              7.2370
 XXXZ=             -9.8149 YYYX=              1.5011 YYYZ=              0.4577 ZZZX=             -3.8110
 ZZZY=              0.2538 XXYY=            -93.9733 XXZZ=            -90.6870 YYZZ=            -23.7327
 XXYZ=             -2.2943 YYXZ=             -0.6537 ZZXY=             -1.7363
 N-N= 1.293806358563D+02 E-N=-6.244160439126D+02  KE= 1.577504579025D+02
 Leave Link  601 at Wed Aug 26 21:50:11 2020, MaxMem=  2097152000 cpu:         1.2
 (Enter /opt/cluster/programs/g09/g09_d.01/g09/l9999.exe)
 1\1\GINC-NODE33\SP\RB2PLYPD3-FC\def2QZVP\C4H10\BOITTIER\26-Aug-2020\0\
 \#p B2PLYPD3/Def2QZVP\\butane_opt\\0,1\C,0,-3.977037,0.221338,-0.09072
 2\C,0,-2.697962,-0.591128,0.112667\H,0,-4.915027,-0.415157,-0.12183\H,
 0,-3.932497,0.901729,-1.016032\H,0,-4.042017,0.920339,0.71863\C,0,-1.4
 17021,0.217515,0.1662\H,0,-2.700453,-1.078657,-0.581094\H,0,-2.902007,
 -1.207063,1.081205\C,0,-0.113118,-0.732392,-0.090654\H,0,-1.406651,1.1
 06809,1.1303\H,0,-1.438334,0.764256,-0.589852\H,0,0.148798,-1.559843,0
 .95269\H,0,0.834073,-0.086614,-0.497762\H,0,-0.196744,-1.221147,-0.812
 053\\Version=ES64L-G09RevD.01\State=1-A\HF=-157.9237857\MP2=-158.17199
 92\RMSD=2.121e-09\PG=C01 [X(C4H10)]\\@


 SCIENCE AND PEACE WILL TRIUMPH OVER IGNORANCE AND WAR

                          -- PASTEUR
 Job cpu time:       0 days  1 hours 34 minutes  9.4 seconds.
 File lengths (MBytes):  RWF=    152 Int=      0 D2E=      0 Chk=     14 Scr=      1
 Normal termination of Gaussian 09 at Wed Aug 26 21:50:12 2020.
