 Entering Gaussian System, Link 0=/opt/cluster/programs/g09/g09_d.01/g09//g09
 Input=/home/boittier/MDCM/nms_sampling/butane_geom.xyz.dir/energies/butane_opt_970_energy.com
 Output=/scratch/boittier/butane_opt_970_energy/butane_opt_970_energy.out
 Initial command:
 /opt/cluster/programs/g09/g09_d.01/g09/l1.exe "/scratch/boittier/butane_opt_970_energy/Gau-118908.inp" -scrdir="/scratch/boittier/butane_opt_970_energy/"
 Entering Link 1 = /opt/cluster/programs/g09/g09_d.01/g09/l1.exe PID=    118909.
  
 Copyright (c) 1988,1990,1992,1993,1995,1998,2003,2009,2013,
            Gaussian, Inc.  All Rights Reserved.
  
 This is part of the Gaussian(R) 09 program.  It is based on
 the Gaussian(R) 03 system (copyright 2003, Gaussian, Inc.),
 the Gaussian(R) 98 system (copyright 1998, Gaussian, Inc.),
 the Gaussian(R) 94 system (copyright 1995, Gaussian, Inc.),
 the Gaussian 92(TM) system (copyright 1992, Gaussian, Inc.),
 the Gaussian 90(TM) system (copyright 1990, Gaussian, Inc.),
 the Gaussian 88(TM) system (copyright 1988, Gaussian, Inc.),
 the Gaussian 86(TM) system (copyright 1986, Carnegie Mellon
 University), and the Gaussian 82(TM) system (copyright 1983,
 Carnegie Mellon University). Gaussian is a federally registered
 trademark of Gaussian, Inc.
  
 This software contains proprietary and confidential information,
 including trade secrets, belonging to Gaussian, Inc.
  
 This software is provided under written license and may be
 used, copied, transmitted, or stored only in accord with that
 written license.
  
 The following legend is applicable only to US Government
 contracts under FAR:
  
                    RESTRICTED RIGHTS LEGEND
  
 Use, reproduction and disclosure by the US Government is
 subject to restrictions as set forth in subparagraphs (a)
 and (c) of the Commercial Computer Software - Restricted
 Rights clause in FAR 52.227-19.
  
 Gaussian, Inc.
 340 Quinnipiac St., Bldg. 40, Wallingford CT 06492
  
  
 ---------------------------------------------------------------
 Warning -- This program may not be used in any manner that
 competes with the business of Gaussian, Inc. or will provide
 assistance to any competitor of Gaussian, Inc.  The licensee
 of this program is prohibited from giving any competitor of
 Gaussian, Inc. access to this program.  By using this program,
 the user acknowledges that Gaussian, Inc. is engaged in the
 business of creating and licensing software in the field of
 computational chemistry and represents and warrants to the
 licensee that it is not a competitor of Gaussian, Inc. and that
 it will not use this program in any manner prohibited above.
 ---------------------------------------------------------------
  

 Cite this work as:
 Gaussian 09, Revision D.01,
 M. J. Frisch, G. W. Trucks, H. B. Schlegel, G. E. Scuseria, 
 M. A. Robb, J. R. Cheeseman, G. Scalmani, V. Barone, B. Mennucci, 
 G. A. Petersson, H. Nakatsuji, M. Caricato, X. Li, H. P. Hratchian, 
 A. F. Izmaylov, J. Bloino, G. Zheng, J. L. Sonnenberg, M. Hada, 
 M. Ehara, K. Toyota, R. Fukuda, J. Hasegawa, M. Ishida, T. Nakajima, 
 Y. Honda, O. Kitao, H. Nakai, T. Vreven, J. A. Montgomery, Jr., 
 J. E. Peralta, F. Ogliaro, M. Bearpark, J. J. Heyd, E. Brothers, 
 K. N. Kudin, V. N. Staroverov, T. Keith, R. Kobayashi, J. Normand, 
 K. Raghavachari, A. Rendell, J. C. Burant, S. S. Iyengar, J. Tomasi, 
 M. Cossi, N. Rega, J. M. Millam, M. Klene, J. E. Knox, J. B. Cross, 
 V. Bakken, C. Adamo, J. Jaramillo, R. Gomperts, R. E. Stratmann, 
 O. Yazyev, A. J. Austin, R. Cammi, C. Pomelli, J. W. Ochterski, 
 R. L. Martin, K. Morokuma, V. G. Zakrzewski, G. A. Voth, 
 P. Salvador, J. J. Dannenberg, S. Dapprich, A. D. Daniels, 
 O. Farkas, J. B. Foresman, J. V. Ortiz, J. Cioslowski, 
 and D. J. Fox, Gaussian, Inc., Wallingford CT, 2013.
 
 ******************************************
 Gaussian 09:  ES64L-G09RevD.01 24-Apr-2013
                26-Aug-2020 
 ******************************************
 %chk=/home/boittier/MDCM/nms_sampling/butane_geom.xyz.dir/butane_opt_970.chk
 %nproc=8
 Will use up to    8 processors via shared memory.
 %mem=16000MB
 --------------------
 #p B2PLYPD3/Def2QZVP
 --------------------
 1/38=1/1;
 2/12=2,17=6,18=5,40=1/2;
 3/5=45,7=101,11=9,16=1,25=1,30=1,74=-60/1,2,3;
 4//1;
 5/5=2,38=5/2;
 8/10=1/1;
 9/16=-3/6;
 6/7=2,8=2,9=2,10=2/1;
 99/5=1,9=1/99;
 Leave Link    1 at Wed Aug 26 23:38:13 2020, MaxMem=  2097152000 cpu:         0.2
 (Enter /opt/cluster/programs/g09/g09_d.01/g09/l101.exe)
 ----------
 butane_opt
 ----------
 Symbolic Z-matrix:
 Charge =  0 Multiplicity = 1
 C                    -3.9956    0.30728  -0.16558 
 C                    -2.73359  -0.66018   0.27514 
 H                    -4.83155  -0.28529  -0.43963 
 H                    -3.55503   0.88566  -0.98003 
 H                    -4.50946   1.03956   0.72037 
 C                    -1.35965   0.15659   0.17112 
 H                    -2.778    -1.27821  -0.61345 
 H                    -2.49389  -1.25788   1.06077 
 C                    -0.12139  -0.66752  -0.12564 
 H                    -1.20532   0.89477   1.00066 
 H                    -1.54386   0.679    -0.47296 
 H                    -0.0728   -1.40161   0.81717 
 H                     1.03335   0.0645   -0.4273 
 H                    -0.5507   -1.43502  -1.08621 
 
 NAtoms=     14 NQM=       14 NQMF=       0 NMMI=      0 NMMIF=      0
                NMic=       0 NMicF=      0.
                    Isotopes and Nuclear Properties:
 (Nuclear quadrupole moments (NQMom) in fm**2, nuclear magnetic moments (NMagM)
  in nuclear magnetons)

  Atom         1           2           3           4           5           6           7           8           9          10
 IAtWgt=          12          12           1           1           1          12           1           1          12           1
 AtmWgt=  12.0000000  12.0000000   1.0078250   1.0078250   1.0078250  12.0000000   1.0078250   1.0078250  12.0000000   1.0078250
 NucSpn=           0           0           1           1           1           0           1           1           0           1
 AtZEff=   0.0000000   0.0000000   0.0000000   0.0000000   0.0000000   0.0000000   0.0000000   0.0000000   0.0000000   0.0000000
 NQMom=    0.0000000   0.0000000   0.0000000   0.0000000   0.0000000   0.0000000   0.0000000   0.0000000   0.0000000   0.0000000
 NMagM=    0.0000000   0.0000000   2.7928460   2.7928460   2.7928460   0.0000000   2.7928460   2.7928460   0.0000000   2.7928460
 AtZNuc=   6.0000000   6.0000000   1.0000000   1.0000000   1.0000000   6.0000000   1.0000000   1.0000000   6.0000000   1.0000000

  Atom        11          12          13          14
 IAtWgt=           1           1           1           1
 AtmWgt=   1.0078250   1.0078250   1.0078250   1.0078250
 NucSpn=           1           1           1           1
 AtZEff=   0.0000000   0.0000000   0.0000000   0.0000000
 NQMom=    0.0000000   0.0000000   0.0000000   0.0000000
 NMagM=    2.7928460   2.7928460   2.7928460   2.7928460
 AtZNuc=   1.0000000   1.0000000   1.0000000   1.0000000
 Leave Link  101 at Wed Aug 26 23:38:13 2020, MaxMem=  2097152000 cpu:         0.6
 (Enter /opt/cluster/programs/g09/g09_d.01/g09/l202.exe)
                          Input orientation:                          
 ---------------------------------------------------------------------
 Center     Atomic      Atomic             Coordinates (Angstroms)
 Number     Number       Type             X           Y           Z
 ---------------------------------------------------------------------
      1          6           0       -3.995598    0.307281   -0.165576
      2          6           0       -2.733591   -0.660183    0.275137
      3          1           0       -4.831548   -0.285292   -0.439628
      4          1           0       -3.555028    0.885660   -0.980031
      5          1           0       -4.509462    1.039556    0.720369
      6          6           0       -1.359651    0.156589    0.171120
      7          1           0       -2.777997   -1.278210   -0.613450
      8          1           0       -2.493893   -1.257884    1.060768
      9          6           0       -0.121387   -0.667522   -0.125644
     10          1           0       -1.205322    0.894767    1.000656
     11          1           0       -1.543857    0.679004   -0.472955
     12          1           0       -0.072796   -1.401608    0.817168
     13          1           0        1.033350    0.064503   -0.427302
     14          1           0       -0.550697   -1.435023   -1.086208
 ---------------------------------------------------------------------
                    Distance matrix (angstroms):
                    1          2          3          4          5
     1  C    0.000000
     2  C    1.650114   0.000000
     3  H    1.060688   2.247856   0.000000
     4  H    1.091770   2.154028   1.814571   0.000000
     5  H    1.259040   2.498212   1.790127   1.956013   0.000000
     6  C    2.661633   1.601764   3.552793   2.583868   3.317019
     7  H    2.048640   1.083289   2.287613   2.328195   3.185763
     8  H    2.491742   1.015833   2.943086   3.144145   3.075162
     9  C    3.995165   2.642781   4.736064   3.864226   4.783833
    10  H    3.080727   2.297793   4.076331   3.073162   3.319166
    11  H    2.498738   1.941270   3.426352   2.084380   3.216960
    12  H    4.390269   2.814843   5.046922   4.537341   5.064845
    13  H    5.041603   3.899799   5.875333   4.693934   5.743748
    14  H    3.968694   2.686757   4.479468   3.797742   5.005905
                    6          7          8          9         10
     6  C    0.000000
     7  H    2.164695   0.000000
     8  H    2.019582   1.698274   0.000000
     9  C    1.516748   2.769200   2.717515   0.000000
    10  H    1.121095   3.130571   2.509569   2.210026   0.000000
    11  H    0.849519   2.318087   2.646962   1.989266   1.527314
    12  H    2.121639   3.062680   2.437562   1.195884   2.567026
    13  H    2.468409   4.045231   4.050247   1.400098   2.782095
    14  H    2.183692   2.282314   2.901189   1.302324   3.195537
                   11         12         13         14
    11  H    0.000000
    12  H    2.856113   0.000000
    13  H    2.649847   2.218501   0.000000
    14  H    2.414862   1.962739   2.278583   0.000000
 Stoichiometry    C4H10
 Framework group  C1[X(C4H10)]
 Deg. of freedom    36
 Full point group                 C1      NOp   1
 Largest Abelian subgroup         C1      NOp   1
 Largest concise Abelian subgroup C1      NOp   1
                         Standard orientation:                         
 ---------------------------------------------------------------------
 Center     Atomic      Atomic             Coordinates (Angstroms)
 Number     Number       Type             X           Y           Z
 ---------------------------------------------------------------------
      1          6           0        2.006481   -0.165749   -0.168664
      2          6           0        0.588540    0.570101    0.244670
      3          1           0        2.722131    0.559770   -0.462820
      4          1           0        1.680813   -0.839277   -0.963812
      5          1           0        2.641512   -0.765039    0.738403
      6          6           0       -0.614263   -0.484982    0.169093
      7          1           0        0.523246    1.158193   -0.662744
      8          1           0        0.241806    1.138435    1.011931
      9          6           0       -1.980352    0.091482   -0.150304
     10          1           0       -0.635094   -1.212925    1.021454
     11          1           0       -0.336229   -0.984999   -0.458890
     12          1           0       -2.164400    0.833369    0.769407
     13          1           0       -2.982266   -0.846673   -0.426544
     14          1           0       -1.693961    0.894040   -1.135154
 ---------------------------------------------------------------------
 Rotational constants (GHZ):     20.7993705      3.4378267      3.2610433
 Leave Link  202 at Wed Aug 26 23:38:13 2020, MaxMem=  2097152000 cpu:         0.1
 (Enter /opt/cluster/programs/g09/g09_d.01/g09/l301.exe)
 Standard basis: def2QZVP (5D, 7F)
 Ernie: Thresh=  0.10000D-02 Tol=  0.10000D-05 Strict=F.
 There are   638 symmetry adapted cartesian basis functions of A   symmetry.
 There are   528 symmetry adapted basis functions of A   symmetry.
   528 basis functions,   748 primitive gaussians,   638 cartesian basis functions
    17 alpha electrons       17 beta electrons
       nuclear repulsion energy       127.4378221404 Hartrees.
 IExCor=  419 DFT=T Ex+Corr=B2PLYPD3 ExCW=0 ScaHFX=  0.530000
 ScaDFX=  0.470000  0.470000  0.730000  0.730000 ScalE2=  0.270000  0.270000
 IRadAn=      0 IRanWt=     -1 IRanGd=            0 ICorTp=0 IEmpDi=141
 NAtoms=   14 NActive=   14 NUniq=   14 SFac= 1.00D+00 NAtFMM=   60 NAOKFM=F Big=F
 Integral buffers will be    131072 words long.
 Regular integral format.
 Two-electron integral symmetry is turned on.
 R6Disp:  Grimme-D3(BJ) Dispersion energy=       -0.0066062790 Hartrees.
 Nuclear repulsion after empirical dispersion term =      127.4312158614 Hartrees.
 Leave Link  301 at Wed Aug 26 23:38:13 2020, MaxMem=  2097152000 cpu:         0.6
 (Enter /opt/cluster/programs/g09/g09_d.01/g09/l302.exe)
 NPDir=0 NMtPBC=     1 NCelOv=     1 NCel=       1 NClECP=     1 NCelD=      1
         NCelK=      1 NCelE2=     1 NClLst=     1 CellRange=     0.0.
 One-electron integrals computed using PRISM.
   1 Symmetry operations used in ECPInt.
 ECPInt:  NShTT=   14196 NPrTT=   30597 LenC2=   13825 LenP2D=   25837.
 LDataN:  DoStor=T MaxTD1= 8 Len=  415
 NBasis=   528 RedAO= T EigKep=  2.73D-05  NBF=   528
 NBsUse=   528 1.00D-06 EigRej= -1.00D+00 NBFU=   528
 Precomputing XC quadrature grid using
 IXCGrd= 4 IRadAn=           0 IRanWt=          -1 IRanGd=           0 AccXCQ= 0.00D+00.
 Generated NRdTot=       0 NPtTot=           0 NUsed=           0 NTot=          32
 NSgBfM=   638   638   638   638   638 MxSgAt=    14 MxSgA2=    14.
 Leave Link  302 at Wed Aug 26 23:38:14 2020, MaxMem=  2097152000 cpu:         5.5
 (Enter /opt/cluster/programs/g09/g09_d.01/g09/l303.exe)
 DipDrv:  MaxL=1.
 Leave Link  303 at Wed Aug 26 23:38:14 2020, MaxMem=  2097152000 cpu:         0.6
 (Enter /opt/cluster/programs/g09/g09_d.01/g09/l401.exe)
 ExpMin= 7.60D-02 ExpMax= 6.70D+04 ExpMxC= 6.47D+02 IAcc=2 IRadAn=         4 AccDes= 0.00D+00
 Harris functional with IExCor=  419 and IRadAn=       4 diagonalized for initial guess.
 HarFok:  IExCor=  419 AccDes= 0.00D+00 IRadAn=         4 IDoV= 1 UseB2=F ITyADJ=14
 ICtDFT=  3500011 ScaDFX=  1.000000  1.000000  1.000000  1.000000
 FoFCou: FMM=F IPFlag=           0 FMFlag=      100000 FMFlg1=           0
         NFxFlg=           0 DoJE=T BraDBF=F KetDBF=T FulRan=T
         wScrn=  0.000000 ICntrl=     500 IOpCl=  0 I1Cent=   200000004 NGrid=           0
         NMat0=    1 NMatS0=      1 NMatT0=    0 NMatD0=    1 NMtDS0=    0 NMtDT0=    0
 Petite list used in FoFCou.
 Harris En= -158.440723016851    
 JPrj=0 DoOrth=F DoCkMO=F.
 Leave Link  401 at Wed Aug 26 23:38:16 2020, MaxMem=  2097152000 cpu:        16.9
 (Enter /opt/cluster/programs/g09/g09_d.01/g09/l502.exe)
 Closed shell SCF:
 Using DIIS extrapolation, IDIIS=  1040.
 Integral symmetry usage will be decided dynamically.
 IVT=     1249338 IEndB=     1249338 NGot=  2097152000 MDV=  2096326985
 LenX=  2096326985 LenY=  2095919303
 Requested convergence on RMS density matrix=1.00D-08 within 128 cycles.
 Requested convergence on MAX density matrix=1.00D-06.
 Requested convergence on             energy=1.00D-06.
 No special actions if energy rises.
 Fock matrices will be formed incrementally for  20 cycles.
 Integral accuracy reduced to 1.0D-05 until final iterations.

 Cycle   1  Pass 0  IDiag  1:
 FoFJK:  IHMeth= 1 ICntrl=       0 DoSepK=F KAlg= 0 I1Cent=   0 FoldK=F
 IRaf= 940000000 NMat=   1 IRICut=       1 DoRegI=T DoRafI=F ISym2E= 0.
 FoFCou: FMM=F IPFlag=           0 FMFlag=      100000 FMFlg1=           0
         NFxFlg=           0 DoJE=F BraDBF=F KetDBF=F FulRan=T
         wScrn=  0.000000 ICntrl=       0 IOpCl=  0 I1Cent=           0 NGrid=           0
         NMat0=    1 NMatS0=      1 NMatT0=    0 NMatD0=    1 NMtDS0=    0 NMtDT0=    0
 Symmetry not used in FoFCou.
 E= -157.699951474915    
 DIIS: error= 2.09D-02 at cycle   1 NSaved=   1.
 NSaved= 1 IEnMin= 1 EnMin= -157.699951474915     IErMin= 1 ErrMin= 2.09D-02
 ErrMax= 2.09D-02  0.00D+00 EMaxC= 1.00D-01 BMatC= 3.11D-01 BMatP= 3.11D-01
 IDIUse=3 WtCom= 7.91D-01 WtEn= 2.09D-01
 Coeff-Com:  0.100D+01
 Coeff-En:   0.100D+01
 Coeff:      0.100D+01
 Gap=     0.396 Goal=   None    Shift=    0.000
 GapD=    0.396 DampG=1.000 DampE=0.500 DampFc=0.5000 IDamp=-1.
 Damping current iteration by 5.00D-01
 RMSDP=9.43D-04 MaxDP=6.03D-02              OVMax= 1.78D-01

 Cycle   2  Pass 0  IDiag  1:
 RMSU=  4.49D-04    CP:  9.52D-01
 E= -157.823833616886     Delta-E=       -0.123882141971 Rises=F Damp=T
 DIIS: error= 5.40D-03 at cycle   2 NSaved=   2.
 NSaved= 2 IEnMin= 2 EnMin= -157.823833616886     IErMin= 2 ErrMin= 5.40D-03
 ErrMax= 5.40D-03  0.00D+00 EMaxC= 1.00D-01 BMatC= 3.20D-02 BMatP= 3.11D-01
 IDIUse=3 WtCom= 9.46D-01 WtEn= 5.40D-02
 Coeff-Com: -0.187D+00 0.119D+01
 Coeff-En:   0.000D+00 0.100D+01
 Coeff:     -0.177D+00 0.118D+01
 Gap=     0.433 Goal=   None    Shift=    0.000
 RMSDP=2.40D-04 MaxDP=1.23D-02 DE=-1.24D-01 OVMax= 1.09D-01

 Cycle   3  Pass 0  IDiag  1:
 RMSU=  2.29D-04    CP:  9.41D-01  8.61D-01
 E= -157.939486408303     Delta-E=       -0.115652791417 Rises=F Damp=F
 DIIS: error= 2.74D-03 at cycle   3 NSaved=   3.
 NSaved= 3 IEnMin= 3 EnMin= -157.939486408303     IErMin= 3 ErrMin= 2.74D-03
 ErrMax= 2.74D-03  0.00D+00 EMaxC= 1.00D-01 BMatC= 3.48D-03 BMatP= 3.20D-02
 IDIUse=3 WtCom= 9.73D-01 WtEn= 2.74D-02
 Coeff-Com: -0.117D+00 0.247D+00 0.870D+00
 Coeff-En:   0.000D+00 0.000D+00 0.100D+01
 Coeff:     -0.114D+00 0.241D+00 0.874D+00
 Gap=     0.402 Goal=   None    Shift=    0.000
 RMSDP=6.61D-05 MaxDP=6.45D-03 DE=-1.16D-01 OVMax= 1.63D-02

 Cycle   4  Pass 0  IDiag  1:
 RMSU=  4.92D-05    CP:  9.36D-01  9.53D-01  9.93D-01
 E= -157.943034272817     Delta-E=       -0.003547864514 Rises=F Damp=F
 DIIS: error= 6.52D-04 at cycle   4 NSaved=   4.
 NSaved= 4 IEnMin= 4 EnMin= -157.943034272817     IErMin= 4 ErrMin= 6.52D-04
 ErrMax= 6.52D-04  0.00D+00 EMaxC= 1.00D-01 BMatC= 1.97D-04 BMatP= 3.48D-03
 IDIUse=3 WtCom= 9.93D-01 WtEn= 6.52D-03
 Coeff-Com: -0.335D-01 0.542D-01 0.295D+00 0.685D+00
 Coeff-En:   0.000D+00 0.000D+00 0.000D+00 0.100D+01
 Coeff:     -0.333D-01 0.538D-01 0.293D+00 0.687D+00
 Gap=     0.401 Goal=   None    Shift=    0.000
 RMSDP=1.70D-05 MaxDP=1.57D-03 DE=-3.55D-03 OVMax= 3.81D-03

 Cycle   5  Pass 0  IDiag  1:
 RMSU=  1.40D-05    CP:  9.37D-01  9.42D-01  1.02D+00  8.75D-01
 E= -157.943216066498     Delta-E=       -0.000181793681 Rises=F Damp=F
 DIIS: error= 2.16D-04 at cycle   5 NSaved=   5.
 NSaved= 5 IEnMin= 5 EnMin= -157.943216066498     IErMin= 5 ErrMin= 2.16D-04
 ErrMax= 2.16D-04  0.00D+00 EMaxC= 1.00D-01 BMatC= 1.88D-05 BMatP= 1.97D-04
 IDIUse=3 WtCom= 9.98D-01 WtEn= 2.16D-03
 Coeff-Com: -0.407D-02 0.258D-02 0.487D-01 0.267D+00 0.685D+00
 Coeff-En:   0.000D+00 0.000D+00 0.000D+00 0.000D+00 0.100D+01
 Coeff:     -0.406D-02 0.258D-02 0.486D-01 0.267D+00 0.686D+00
 Gap=     0.401 Goal=   None    Shift=    0.000
 RMSDP=5.18D-06 MaxDP=3.55D-04 DE=-1.82D-04 OVMax= 1.00D-03

 Initial convergence to 1.0D-05 achieved.  Increase integral accuracy.
 Cycle   6  Pass 1  IDiag  1:
 E= -157.943301315811     Delta-E=       -0.000085249313 Rises=F Damp=F
 DIIS: error= 5.21D-05 at cycle   1 NSaved=   1.
 NSaved= 1 IEnMin= 1 EnMin= -157.943301315811     IErMin= 1 ErrMin= 5.21D-05
 ErrMax= 5.21D-05  0.00D+00 EMaxC= 1.00D-01 BMatC= 9.78D-07 BMatP= 9.78D-07
 IDIUse=1 WtCom= 1.00D+00 WtEn= 0.00D+00
 Coeff-Com:  0.100D+01
 Coeff:      0.100D+01
 Gap=     0.401 Goal=   None    Shift=    0.000
 RMSDP=5.18D-06 MaxDP=3.55D-04 DE=-8.52D-05 OVMax= 2.88D-04

 Cycle   7  Pass 1  IDiag  1:
 RMSU=  2.38D-05    CP:  1.00D+00
 E= -157.943301916582     Delta-E=       -0.000000600772 Rises=F Damp=F
 DIIS: error= 2.18D-05 at cycle   2 NSaved=   2.
 NSaved= 2 IEnMin= 2 EnMin= -157.943301916582     IErMin= 2 ErrMin= 2.18D-05
 ErrMax= 2.18D-05  0.00D+00 EMaxC= 1.00D-01 BMatC= 1.59D-07 BMatP= 9.78D-07
 IDIUse=1 WtCom= 1.00D+00 WtEn= 0.00D+00
 Coeff-Com:  0.204D+00 0.796D+00
 Coeff:      0.204D+00 0.796D+00
 Gap=     0.401 Goal=   None    Shift=    0.000
 RMSDP=8.63D-07 MaxDP=5.26D-05 DE=-6.01D-07 OVMax= 1.39D-04

 Cycle   8  Pass 1  IDiag  1:
 RMSU=  6.30D-07    CP:  1.00D+00  1.02D+00
 E= -157.943302036186     Delta-E=       -0.000000119604 Rises=F Damp=F
 DIIS: error= 1.09D-05 at cycle   3 NSaved=   3.
 NSaved= 3 IEnMin= 3 EnMin= -157.943302036186     IErMin= 3 ErrMin= 1.09D-05
 ErrMax= 1.09D-05  0.00D+00 EMaxC= 1.00D-01 BMatC= 5.79D-08 BMatP= 1.59D-07
 IDIUse=1 WtCom= 1.00D+00 WtEn= 0.00D+00
 Coeff-Com: -0.246D-01 0.365D+00 0.659D+00
 Coeff:     -0.246D-01 0.365D+00 0.659D+00
 Gap=     0.401 Goal=   None    Shift=    0.000
 RMSDP=3.22D-07 MaxDP=2.31D-05 DE=-1.20D-07 OVMax= 5.60D-05

 Cycle   9  Pass 1  IDiag  1:
 RMSU=  2.18D-07    CP:  1.00D+00  1.03D+00  8.27D-01
 E= -157.943302096236     Delta-E=       -0.000000060050 Rises=F Damp=F
 DIIS: error= 9.38D-07 at cycle   4 NSaved=   4.
 NSaved= 4 IEnMin= 4 EnMin= -157.943302096236     IErMin= 4 ErrMin= 9.38D-07
 ErrMax= 9.38D-07  0.00D+00 EMaxC= 1.00D-01 BMatC= 4.60D-10 BMatP= 5.79D-08
 IDIUse=1 WtCom= 1.00D+00 WtEn= 0.00D+00
 Coeff-Com: -0.932D-02 0.523D-02 0.473D-01 0.957D+00
 Coeff:     -0.932D-02 0.523D-02 0.473D-01 0.957D+00
 Gap=     0.401 Goal=   None    Shift=    0.000
 RMSDP=5.32D-08 MaxDP=2.69D-06 DE=-6.01D-08 OVMax= 9.55D-06

 Cycle  10  Pass 1  IDiag  1:
 RMSU=  3.87D-08    CP:  1.00D+00  1.03D+00  8.63D-01  1.13D+00
 E= -157.943302097018     Delta-E=       -0.000000000782 Rises=F Damp=F
 DIIS: error= 3.73D-07 at cycle   5 NSaved=   5.
 NSaved= 5 IEnMin= 5 EnMin= -157.943302097018     IErMin= 5 ErrMin= 3.73D-07
 ErrMax= 3.73D-07  0.00D+00 EMaxC= 1.00D-01 BMatC= 8.18D-11 BMatP= 4.60D-10
 IDIUse=1 WtCom= 1.00D+00 WtEn= 0.00D+00
 Coeff-Com:  0.215D-03-0.364D-01-0.585D-01 0.250D+00 0.845D+00
 Coeff:      0.215D-03-0.364D-01-0.585D-01 0.250D+00 0.845D+00
 Gap=     0.401 Goal=   None    Shift=    0.000
 RMSDP=1.96D-08 MaxDP=1.01D-06 DE=-7.82D-10 OVMax= 3.87D-06

 Cycle  11  Pass 1  IDiag  1:
 RMSU=  1.37D-08    CP:  1.00D+00  1.03D+00  8.71D-01  1.18D+00  1.05D+00
 E= -157.943302097125     Delta-E=       -0.000000000107 Rises=F Damp=F
 DIIS: error= 1.25D-07 at cycle   6 NSaved=   6.
 NSaved= 6 IEnMin= 6 EnMin= -157.943302097125     IErMin= 6 ErrMin= 1.25D-07
 ErrMax= 1.25D-07  0.00D+00 EMaxC= 1.00D-01 BMatC= 7.70D-12 BMatP= 8.18D-11
 IDIUse=1 WtCom= 1.00D+00 WtEn= 0.00D+00
 Coeff-Com:  0.546D-03-0.145D-01-0.252D-01 0.545D-01 0.338D+00 0.647D+00
 Coeff:      0.546D-03-0.145D-01-0.252D-01 0.545D-01 0.338D+00 0.647D+00
 Gap=     0.401 Goal=   None    Shift=    0.000
 RMSDP=3.56D-09 MaxDP=2.28D-07 DE=-1.07D-10 OVMax= 6.48D-07

 SCF Done:  E(RB2PLYPD3) =  -157.943302097     A.U. after   11 cycles
            NFock= 11  Conv=0.36D-08     -V/T= 2.0054
 KE= 1.571008082586D+02 PE=-6.200911705659D+02 EE= 1.776158443488D+02
 Leave Link  502 at Wed Aug 26 23:44:50 2020, MaxMem=  2097152000 cpu:      3131.3
 (Enter /opt/cluster/programs/g09/g09_d.01/g09/l801.exe)
 DoSCS=T DFT=T ScalE2(SS,OS)=  0.270000  0.270000
 ExpMin= 7.60D-02 ExpMax= 6.70D+04 ExpMxC= 6.47D+02 IAcc=3 IRadAn=         5 AccDes= 0.00D+00
 HarFok:  IExCor=  205 AccDes= 0.00D+00 IRadAn=         5 IDoV=-2 UseB2=F ITyADJ=14
 ICtDFT= 12500011 ScaDFX=  1.000000  1.000000  1.000000  1.000000
 Largest valence mixing into a core orbital is  1.27D-04
 Largest core mixing into a valence orbital is  1.80D-05
 Range of M.O.s used for correlation:     5   528
 NBasis=   528 NAE=    17 NBE=    17 NFC=     4 NFV=     0
 NROrb=    524 NOA=    13 NOB=    13 NVA=   511 NVB=   511

 **** Warning!!: The largest alpha MO coefficient is  0.26808040D+02

 Leave Link  801 at Wed Aug 26 23:44:50 2020, MaxMem=  2097152000 cpu:         1.1
 (Enter /opt/cluster/programs/g09/g09_d.01/g09/l906.exe)
 DoSCS=T DFT=T ScalE2(SS,OS)=  0.270000  0.270000
 FulOut=F Deriv=F AODrv=F NAtomX=    14
   MMem=         463  MDisk=          13 MDiskD=          13
  W3Min=     4238234 MinDsk=     6904766 NBas6D=         638
 NBas2D=      205689    NTT=      203841    LW2=     4508827
    MDV=  2095905562 MDiskM=        7293 NBas2p=      188768
 Fully direct method using O(OVN) memory.
 IMap=   1   2   3   4   5   6   7   8   9  10  11  12  13
 JobTyp=1 Pass  1:  I=   1 to  13 NPSUse=  8 ParTrn=T ParDer=T DoDerP=F.
 Spin components of T(2) and E(2):
     alpha-alpha T2 =       0.4286372973D-01 E2=     -0.2653587572D-01
     alpha-beta  T2 =       0.2902640346D+00 E2=     -0.1985370139D+00
     beta-beta   T2 =       0.4286372973D-01 E2=     -0.2653587572D-01
 The integrals were generated   1 times.
 E2(B2PLYPD3) =    -0.2516087654D+00 E(B2PLYPD3) =    -0.15819491086249D+03
 Leave Link  906 at Wed Aug 26 23:49:11 2020, MaxMem=  2097152000 cpu:      2084.7
 (Enter /opt/cluster/programs/g09/g09_d.01/g09/l601.exe)
 Copying SCF densities to generalized density rwf, IOpCl= 0 IROHF=0.

 **********************************************************************

            Population analysis using the SCF density.

 **********************************************************************

 Orbital symmetries:
       Occupied  (A) (A) (A) (A) (A) (A) (A) (A) (A) (A) (A) (A)
                 (A) (A) (A) (A) (A)
       Virtual   (A) (A) (A) (A) (A) (A) (A) (A) (A) (A) (A) (A)
                 (A) (A) (A) (A) (A) (A) (A) (A) (A) (A) (A) (A)
                 (A) (A) (A) (A) (A) (A) (A) (A) (A) (A) (A) (A)
                 (A) (A) (A) (A) (A) (A) (A) (A) (A) (A) (A) (A)
                 (A) (A) (A) (A) (A) (A) (A) (A) (A) (A) (A) (A)
                 (A) (A) (A) (A) (A) (A) (A) (A) (A) (A) (A) (A)
                 (A) (A) (A) (A) (A) (A) (A) (A) (A) (A) (A) (A)
                 (A) (A) (A) (A) (A) (A) (A) (A) (A) (A) (A) (A)
                 (A) (A) (A) (A) (A) (A) (A) (A) (A) (A) (A) (A)
                 (A) (A) (A) (A) (A) (A) (A) (A) (A) (A) (A) (A)
                 (A) (A) (A) (A) (A) (A) (A) (A) (A) (A) (A) (A)
                 (A) (A) (A) (A) (A) (A) (A) (A) (A) (A) (A) (A)
                 (A) (A) (A) (A) (A) (A) (A) (A) (A) (A) (A) (A)
                 (A) (A) (A) (A) (A) (A) (A) (A) (A) (A) (A) (A)
                 (A) (A) (A) (A) (A) (A) (A) (A) (A) (A) (A) (A)
                 (A) (A) (A) (A) (A) (A) (A) (A) (A) (A) (A) (A)
                 (A) (A) (A) (A) (A) (A) (A) (A) (A) (A) (A) (A)
                 (A) (A) (A) (A) (A) (A) (A) (A) (A) (A) (A) (A)
                 (A) (A) (A) (A) (A) (A) (A) (A) (A) (A) (A) (A)
                 (A) (A) (A) (A) (A) (A) (A) (A) (A) (A) (A) (A)
                 (A) (A) (A) (A) (A) (A) (A) (A) (A) (A) (A) (A)
                 (A) (A) (A) (A) (A) (A) (A) (A) (A) (A) (A) (A)
                 (A) (A) (A) (A) (A) (A) (A) (A) (A) (A) (A) (A)
                 (A) (A) (A) (A) (A) (A) (A) (A) (A) (A) (A) (A)
                 (A) (A) (A) (A) (A) (A) (A) (A) (A) (A) (A) (A)
                 (A) (A) (A) (A) (A) (A) (A) (A) (A) (A) (A) (A)
                 (A) (A) (A) (A) (A) (A) (A) (A) (A) (A) (A) (A)
                 (A) (A) (A) (A) (A) (A) (A) (A) (A) (A) (A) (A)
                 (A) (A) (A) (A) (A) (A) (A) (A) (A) (A) (A) (A)
                 (A) (A) (A) (A) (A) (A) (A) (A) (A) (A) (A) (A)
                 (A) (A) (A) (A) (A) (A) (A) (A) (A) (A) (A) (A)
                 (A) (A) (A) (A) (A) (A) (A) (A) (A) (A) (A) (A)
                 (A) (A) (A) (A) (A) (A) (A) (A) (A) (A) (A) (A)
                 (A) (A) (A) (A) (A) (A) (A) (A) (A) (A) (A) (A)
                 (A) (A) (A) (A) (A) (A) (A) (A) (A) (A) (A) (A)
                 (A) (A) (A) (A) (A) (A) (A) (A) (A) (A) (A) (A)
                 (A) (A) (A) (A) (A) (A) (A) (A) (A) (A) (A) (A)
                 (A) (A) (A) (A) (A) (A) (A) (A) (A) (A) (A) (A)
                 (A) (A) (A) (A) (A) (A) (A) (A) (A) (A) (A) (A)
                 (A) (A) (A) (A) (A) (A) (A) (A) (A) (A) (A) (A)
                 (A) (A) (A) (A) (A) (A) (A) (A) (A) (A) (A) (A)
                 (A) (A) (A) (A) (A) (A) (A) (A) (A) (A) (A) (A)
                 (A) (A) (A) (A) (A) (A) (A)
 The electronic state is 1-A.
 Alpha  occ. eigenvalues --  -10.66064 -10.63267 -10.61257 -10.58099  -0.91109
 Alpha  occ. eigenvalues --   -0.81588  -0.71662  -0.68684  -0.54166  -0.49402
 Alpha  occ. eigenvalues --   -0.46410  -0.45551  -0.43010  -0.40783  -0.38097
 Alpha  occ. eigenvalues --   -0.37137  -0.35657
 Alpha virt. eigenvalues --    0.04491   0.05935   0.08062   0.09023   0.09999
 Alpha virt. eigenvalues --    0.11134   0.12225   0.12565   0.14614   0.15169
 Alpha virt. eigenvalues --    0.15592   0.16071   0.17909   0.19462   0.20771
 Alpha virt. eigenvalues --    0.21635   0.22282   0.24106   0.25955   0.28096
 Alpha virt. eigenvalues --    0.28882   0.30371   0.30901   0.32665   0.33281
 Alpha virt. eigenvalues --    0.34250   0.34950   0.36896   0.37700   0.38154
 Alpha virt. eigenvalues --    0.39567   0.41389   0.41826   0.45100   0.46449
 Alpha virt. eigenvalues --    0.47319   0.49294   0.51661   0.54032   0.57911
 Alpha virt. eigenvalues --    0.59084   0.61145   0.63351   0.64007   0.65182
 Alpha virt. eigenvalues --    0.67182   0.67753   0.69465   0.70908   0.71931
 Alpha virt. eigenvalues --    0.72783   0.74769   0.76085   0.77131   0.78730
 Alpha virt. eigenvalues --    0.79157   0.80530   0.81617   0.82790   0.85800
 Alpha virt. eigenvalues --    0.86402   0.88478   0.89125   0.90667   0.91537
 Alpha virt. eigenvalues --    0.92051   0.92471   0.95716   0.96182   0.96946
 Alpha virt. eigenvalues --    0.98044   0.98845   1.00292   1.02307   1.03649
 Alpha virt. eigenvalues --    1.05542   1.06474   1.06790   1.08087   1.09147
 Alpha virt. eigenvalues --    1.10822   1.11762   1.12526   1.15805   1.17329
 Alpha virt. eigenvalues --    1.20930   1.22425   1.22614   1.23645   1.25029
 Alpha virt. eigenvalues --    1.25752   1.29447   1.32649   1.34991   1.36406
 Alpha virt. eigenvalues --    1.38413   1.39330   1.40560   1.42699   1.44745
 Alpha virt. eigenvalues --    1.45605   1.48570   1.51563   1.53270   1.54703
 Alpha virt. eigenvalues --    1.60839   1.61855   1.66450   1.70549   1.71149
 Alpha virt. eigenvalues --    1.76784   1.80285   1.83328   1.85431   1.87955
 Alpha virt. eigenvalues --    1.88857   1.90463   1.93211   1.94608   1.95367
 Alpha virt. eigenvalues --    1.97758   1.99557   2.01102   2.02080   2.03549
 Alpha virt. eigenvalues --    2.05374   2.06916   2.07665   2.08879   2.10406
 Alpha virt. eigenvalues --    2.11067   2.11793   2.12762   2.14062   2.15402
 Alpha virt. eigenvalues --    2.16270   2.17118   2.19298   2.20514   2.22839
 Alpha virt. eigenvalues --    2.23267   2.25200   2.26816   2.27950   2.29340
 Alpha virt. eigenvalues --    2.30460   2.31539   2.33005   2.34036   2.36472
 Alpha virt. eigenvalues --    2.36820   2.38122   2.39450   2.43289   2.44663
 Alpha virt. eigenvalues --    2.45577   2.47891   2.48748   2.51016   2.52080
 Alpha virt. eigenvalues --    2.55381   2.56040   2.58001   2.59036   2.59846
 Alpha virt. eigenvalues --    2.60813   2.64575   2.64964   2.66006   2.68060
 Alpha virt. eigenvalues --    2.68698   2.69813   2.71056   2.73229   2.73780
 Alpha virt. eigenvalues --    2.75559   2.77702   2.77946   2.80432   2.83065
 Alpha virt. eigenvalues --    2.84348   2.85609   2.86322   2.89462   2.92113
 Alpha virt. eigenvalues --    2.92984   2.94029   2.95214   2.97396   2.99428
 Alpha virt. eigenvalues --    3.01166   3.01844   3.04040   3.04274   3.08459
 Alpha virt. eigenvalues --    3.10136   3.10964   3.11642   3.14290   3.15207
 Alpha virt. eigenvalues --    3.17466   3.19074   3.20971   3.23656   3.25094
 Alpha virt. eigenvalues --    3.27038   3.29417   3.30380   3.33571   3.34807
 Alpha virt. eigenvalues --    3.38357   3.39422   3.40943   3.41593   3.43860
 Alpha virt. eigenvalues --    3.46347   3.47015   3.48382   3.51916   3.54377
 Alpha virt. eigenvalues --    3.56888   3.58318   3.61212   3.62507   3.64457
 Alpha virt. eigenvalues --    3.68879   3.69921   3.71998   3.77402   3.79809
 Alpha virt. eigenvalues --    3.81289   3.85639   3.86690   3.87583   3.92215
 Alpha virt. eigenvalues --    3.98355   3.99665   4.00791   4.03991   4.07876
 Alpha virt. eigenvalues --    4.11664   4.15071   4.17334   4.19436   4.21969
 Alpha virt. eigenvalues --    4.24676   4.28179   4.31538   4.37745   4.45107
 Alpha virt. eigenvalues --    4.58447   4.67470   4.70783   4.80283   4.86711
 Alpha virt. eigenvalues --    5.04695   5.12313   5.17386   5.18128   5.25635
 Alpha virt. eigenvalues --    5.26314   5.30870   5.36397   5.40551   5.41680
 Alpha virt. eigenvalues --    5.45731   5.47428   5.55623   5.58583   5.59833
 Alpha virt. eigenvalues --    5.61800   5.64679   5.68330   5.70842   5.71917
 Alpha virt. eigenvalues --    5.76082   5.77748   5.79741   5.82395   5.83342
 Alpha virt. eigenvalues --    5.83929   5.85680   5.87572   5.89598   5.90990
 Alpha virt. eigenvalues --    5.94514   5.96175   5.97083   5.97871   5.99829
 Alpha virt. eigenvalues --    6.00824   6.02092   6.03664   6.05453   6.06705
 Alpha virt. eigenvalues --    6.08312   6.10637   6.11795   6.14797   6.15895
 Alpha virt. eigenvalues --    6.17404   6.19590   6.20035   6.21527   6.23479
 Alpha virt. eigenvalues --    6.25181   6.26394   6.27461   6.29187   6.30139
 Alpha virt. eigenvalues --    6.32824   6.34942   6.35304   6.35971   6.39075
 Alpha virt. eigenvalues --    6.40618   6.42844   6.43835   6.45885   6.46809
 Alpha virt. eigenvalues --    6.49018   6.50689   6.51919   6.54347   6.56521
 Alpha virt. eigenvalues --    6.57529   6.60362   6.62183   6.63907   6.66667
 Alpha virt. eigenvalues --    6.68493   6.71817   6.73413   6.74094   6.76574
 Alpha virt. eigenvalues --    6.79731   6.80971   6.82722   6.84125   6.87205
 Alpha virt. eigenvalues --    6.88922   6.89834   6.93335   6.96294   6.98995
 Alpha virt. eigenvalues --    6.99483   7.00235   7.01287   7.03240   7.06894
 Alpha virt. eigenvalues --    7.10552   7.13551   7.15363   7.16879   7.20008
 Alpha virt. eigenvalues --    7.21901   7.22741   7.26964   7.28214   7.33847
 Alpha virt. eigenvalues --    7.37590   7.38085   7.40642   7.42676   7.46360
 Alpha virt. eigenvalues --    7.46739   7.50317   7.51965   7.53042   7.56030
 Alpha virt. eigenvalues --    7.56458   7.57942   7.59046   7.61133   7.61992
 Alpha virt. eigenvalues --    7.63084   7.65903   7.68751   7.71053   7.73213
 Alpha virt. eigenvalues --    7.74937   7.76932   7.77798   7.80959   7.81111
 Alpha virt. eigenvalues --    7.83269   7.85816   7.86659   7.89414   7.89887
 Alpha virt. eigenvalues --    7.91698   7.94729   7.95602   7.97927   7.99804
 Alpha virt. eigenvalues --    8.00854   8.02216   8.04845   8.05743   8.07889
 Alpha virt. eigenvalues --    8.09991   8.13084   8.15979   8.17169   8.18996
 Alpha virt. eigenvalues --    8.23069   8.24366   8.28465   8.30143   8.34268
 Alpha virt. eigenvalues --    8.36307   8.36907   8.37406   8.39254   8.40467
 Alpha virt. eigenvalues --    8.43707   8.45710   8.47434   8.48800   8.49646
 Alpha virt. eigenvalues --    8.50211   8.53399   8.54260   8.56442   8.59608
 Alpha virt. eigenvalues --    8.60502   8.62777   8.63343   8.64819   8.66258
 Alpha virt. eigenvalues --    8.67110   8.68451   8.70671   8.75209   8.76895
 Alpha virt. eigenvalues --    8.78840   8.81949   8.82570   8.85175   8.86192
 Alpha virt. eigenvalues --    8.87891   8.90646   8.92459   8.94278   8.95362
 Alpha virt. eigenvalues --    9.00432   9.01005   9.02574   9.05286   9.05572
 Alpha virt. eigenvalues --    9.10029   9.12803   9.16890   9.18988   9.22600
 Alpha virt. eigenvalues --    9.24667   9.27412   9.30637   9.32227   9.33847
 Alpha virt. eigenvalues --    9.38710   9.41607   9.44235   9.47114   9.48295
 Alpha virt. eigenvalues --    9.53123   9.55510   9.58187   9.59947   9.61014
 Alpha virt. eigenvalues --    9.65308   9.73733   9.74544   9.86903   9.89630
 Alpha virt. eigenvalues --    9.95898   9.99945  10.10227  10.21689  10.26276
 Alpha virt. eigenvalues --   10.28746  10.30579  10.33315  10.37684  10.41528
 Alpha virt. eigenvalues --   10.45321  10.62674  10.68683  10.71677  10.79164
 Alpha virt. eigenvalues --   10.93530  11.08100  11.15343  11.57004  11.76550
 Alpha virt. eigenvalues --   11.80653  12.01860  12.06250  12.18986  12.28658
 Alpha virt. eigenvalues --   12.94582  13.05626  13.29487  28.77493  29.21580
 Alpha virt. eigenvalues --   29.46043  29.61645 148.35099 148.83932 149.11829
 Alpha virt. eigenvalues --  149.34514
          Condensed to atoms (all electrons):
               1          2          3          4          5          6
     1  C    4.713504   0.374272   0.408197   0.405034   0.380049  -0.040496
     2  C    0.374272   4.815331  -0.037576  -0.049806  -0.028811   0.344889
     3  H    0.408197  -0.037576   0.640619  -0.034732  -0.037263   0.006134
     4  H    0.405034  -0.049806  -0.034732   0.628177  -0.022932  -0.009617
     5  H    0.380049  -0.028811  -0.037263  -0.022932   0.673569   0.000773
     6  C   -0.040496   0.344889   0.006134  -0.009617   0.000773   4.895015
     7  H   -0.064985   0.389795  -0.008440  -0.001016   0.009175  -0.032880
     8  H   -0.015937   0.402955  -0.001157   0.005062  -0.001928  -0.062531
     9  C    0.005234  -0.057549  -0.000508   0.000531  -0.000169   0.334711
    10  H    0.000992  -0.031930  -0.000268   0.001097   0.001243   0.391862
    11  H   -0.008373  -0.032425   0.000616   0.001931  -0.000053   0.449152
    12  H    0.000026  -0.004507   0.000003  -0.000078   0.000024  -0.058739
    13  H   -0.000550   0.007292   0.000027  -0.000099   0.000020  -0.028817
    14  H    0.000687  -0.007950  -0.000013   0.000351  -0.000039  -0.052859
               7          8          9         10         11         12
     1  C   -0.064985  -0.015937   0.005234   0.000992  -0.008373   0.000026
     2  C    0.389795   0.402955  -0.057549  -0.031930  -0.032425  -0.004507
     3  H   -0.008440  -0.001157  -0.000508  -0.000268   0.000616   0.000003
     4  H   -0.001016   0.005062   0.000531   0.001097   0.001931  -0.000078
     5  H    0.009175  -0.001928  -0.000169   0.001243  -0.000053   0.000024
     6  C   -0.032880  -0.062531   0.334711   0.391862   0.449152  -0.058739
     7  H    0.730891  -0.052827  -0.008722   0.008381  -0.009219   0.000413
     8  H   -0.052827   0.653691   0.003642  -0.006735   0.010647   0.003560
     9  C   -0.008722   0.003642   4.833299  -0.049173  -0.030179   0.393266
    10  H    0.008381  -0.006735  -0.049173   0.718457  -0.052887  -0.006637
    11  H   -0.009219   0.010647  -0.030179  -0.052887   0.519777   0.011071
    12  H    0.000413   0.003560   0.393266  -0.006637   0.011071   0.667432
    13  H    0.000309  -0.000670   0.376478  -0.001900  -0.004635  -0.021236
    14  H    0.003085   0.000117   0.384760   0.010748  -0.009928  -0.030579
              13         14
     1  C   -0.000550   0.000687
     2  C    0.007292  -0.007950
     3  H    0.000027  -0.000013
     4  H   -0.000099   0.000351
     5  H    0.000020  -0.000039
     6  C   -0.028817  -0.052859
     7  H    0.000309   0.003085
     8  H   -0.000670   0.000117
     9  C    0.376478   0.384760
    10  H   -0.001900   0.010748
    11  H   -0.004635  -0.009928
    12  H   -0.021236  -0.030579
    13  H    0.642901  -0.021168
    14  H   -0.021168   0.693171
 Mulliken charges:
               1
     1  C   -0.157654
     2  C   -0.083982
     3  H    0.064361
     4  H    0.076097
     5  H    0.026343
     6  C   -0.136598
     7  H    0.036040
     8  H    0.062111
     9  C   -0.185622
    10  H    0.016749
    11  H    0.154506
    12  H    0.045982
    13  H    0.052049
    14  H    0.029618
 Sum of Mulliken charges =   0.00000
 Mulliken charges with hydrogens summed into heavy atoms:
               1
     1  C    0.009147
     2  C    0.014169
     6  C    0.034657
     9  C   -0.057973
 Electronic spatial extent (au):  <R**2>=            445.6512
 Charge=              0.0000 electrons
 Dipole moment (field-independent basis, Debye):
    X=              0.4212    Y=             -0.0608    Z=             -0.2061  Tot=              0.4728
 Quadrupole moment (field-independent basis, Debye-Ang):
   XX=            -30.5497   YY=            -29.1187   ZZ=            -29.1088
   XY=              1.0299   XZ=             -0.8776   YZ=              0.3673
 Traceless Quadrupole moment (field-independent basis, Debye-Ang):
   XX=             -0.9573   YY=              0.4737   ZZ=              0.4836
   XY=              1.0299   XZ=             -0.8776   YZ=              0.3673
 Octapole moment (field-independent basis, Debye-Ang**2):
  XXX=              7.9271  YYY=             -0.7660  ZZZ=              0.3859  XYY=             -0.0934
  XXY=             -2.0645  XXZ=              0.4197  XZZ=              1.3295  YZZ=              0.2421
  YYZ=             -0.1735  XYZ=             -1.5863
 Hexadecapole moment (field-independent basis, Debye-Ang**3):
 XXXX=           -502.3077 YYYY=            -97.4709 ZZZZ=            -69.3498 XXXY=             18.6266
 XXXZ=             -0.4620 YYYX=              3.4891 YYYZ=              1.2177 ZZZX=             -3.9409
 ZZZY=              1.1295 XXYY=            -96.5785 XXZZ=            -96.6530 YYZZ=            -25.1801
 XXYZ=              1.3990 YYXZ=             -1.6871 ZZXY=             -1.3572
 N-N= 1.274312158614D+02 E-N=-6.200911344072D+02  KE= 1.571008082586D+02
 Leave Link  601 at Wed Aug 26 23:49:12 2020, MaxMem=  2097152000 cpu:         1.1
 (Enter /opt/cluster/programs/g09/g09_d.01/g09/l9999.exe)
 1\1\GINC-NODE38\SP\RB2PLYPD3-FC\def2QZVP\C4H10\BOITTIER\26-Aug-2020\0\
 \#p B2PLYPD3/Def2QZVP\\butane_opt\\0,1\C,0,-3.995598,0.307281,-0.16557
 6\C,0,-2.733591,-0.660183,0.275137\H,0,-4.831548,-0.285292,-0.439628\H
 ,0,-3.555028,0.88566,-0.980031\H,0,-4.509462,1.039556,0.720369\C,0,-1.
 359651,0.156589,0.17112\H,0,-2.777997,-1.27821,-0.61345\H,0,-2.493893,
 -1.257884,1.060768\C,0,-0.121387,-0.667522,-0.125644\H,0,-1.205322,0.8
 94767,1.000656\H,0,-1.543857,0.679004,-0.472955\H,0,-0.072796,-1.40160
 8,0.817168\H,0,1.03335,0.064503,-0.427302\H,0,-0.550697,-1.435023,-1.0
 86208\\Version=ES64L-G09RevD.01\State=1-A\HF=-157.9433021\MP2=-158.194
 9109\RMSD=3.556e-09\PG=C01 [X(C4H10)]\\@


 ERWIN WITH HIS PSI CAN DO
 CALCULATIONS QUITE A FEW.
 BUT ONE THING HAS NOT BEEN SEEN
 JUST WHAT DOES PSI REALLY MEAN.
 -- WALTER HUCKEL, TRANS. BY FELIX BLOCH
 Job cpu time:       0 days  1 hours 27 minutes 26.5 seconds.
 File lengths (MBytes):  RWF=    152 Int=      0 D2E=      0 Chk=     14 Scr=      1
 Normal termination of Gaussian 09 at Wed Aug 26 23:49:16 2020.
