 Entering Gaussian System, Link 0=/opt/cluster/programs/g09/g09_d.01/g09//g09
 Input=/home/boittier/MDCM/nms_sampling/butane_geom.xyz.dir/energies/butane_opt_1921_energy.com
 Output=/scratch/boittier/butane_opt_1921_energy/butane_opt_1921_energy.out
 Initial command:
 /opt/cluster/programs/g09/g09_d.01/g09/l1.exe "/scratch/boittier/butane_opt_1921_energy/Gau-64521.inp" -scrdir="/scratch/boittier/butane_opt_1921_energy/"
 Entering Link 1 = /opt/cluster/programs/g09/g09_d.01/g09/l1.exe PID=     64522.
  
 Copyright (c) 1988,1990,1992,1993,1995,1998,2003,2009,2013,
            Gaussian, Inc.  All Rights Reserved.
  
 This is part of the Gaussian(R) 09 program.  It is based on
 the Gaussian(R) 03 system (copyright 2003, Gaussian, Inc.),
 the Gaussian(R) 98 system (copyright 1998, Gaussian, Inc.),
 the Gaussian(R) 94 system (copyright 1995, Gaussian, Inc.),
 the Gaussian 92(TM) system (copyright 1992, Gaussian, Inc.),
 the Gaussian 90(TM) system (copyright 1990, Gaussian, Inc.),
 the Gaussian 88(TM) system (copyright 1988, Gaussian, Inc.),
 the Gaussian 86(TM) system (copyright 1986, Carnegie Mellon
 University), and the Gaussian 82(TM) system (copyright 1983,
 Carnegie Mellon University). Gaussian is a federally registered
 trademark of Gaussian, Inc.
  
 This software contains proprietary and confidential information,
 including trade secrets, belonging to Gaussian, Inc.
  
 This software is provided under written license and may be
 used, copied, transmitted, or stored only in accord with that
 written license.
  
 The following legend is applicable only to US Government
 contracts under FAR:
  
                    RESTRICTED RIGHTS LEGEND
  
 Use, reproduction and disclosure by the US Government is
 subject to restrictions as set forth in subparagraphs (a)
 and (c) of the Commercial Computer Software - Restricted
 Rights clause in FAR 52.227-19.
  
 Gaussian, Inc.
 340 Quinnipiac St., Bldg. 40, Wallingford CT 06492
  
  
 ---------------------------------------------------------------
 Warning -- This program may not be used in any manner that
 competes with the business of Gaussian, Inc. or will provide
 assistance to any competitor of Gaussian, Inc.  The licensee
 of this program is prohibited from giving any competitor of
 Gaussian, Inc. access to this program.  By using this program,
 the user acknowledges that Gaussian, Inc. is engaged in the
 business of creating and licensing software in the field of
 computational chemistry and represents and warrants to the
 licensee that it is not a competitor of Gaussian, Inc. and that
 it will not use this program in any manner prohibited above.
 ---------------------------------------------------------------
  

 Cite this work as:
 Gaussian 09, Revision D.01,
 M. J. Frisch, G. W. Trucks, H. B. Schlegel, G. E. Scuseria, 
 M. A. Robb, J. R. Cheeseman, G. Scalmani, V. Barone, B. Mennucci, 
 G. A. Petersson, H. Nakatsuji, M. Caricato, X. Li, H. P. Hratchian, 
 A. F. Izmaylov, J. Bloino, G. Zheng, J. L. Sonnenberg, M. Hada, 
 M. Ehara, K. Toyota, R. Fukuda, J. Hasegawa, M. Ishida, T. Nakajima, 
 Y. Honda, O. Kitao, H. Nakai, T. Vreven, J. A. Montgomery, Jr., 
 J. E. Peralta, F. Ogliaro, M. Bearpark, J. J. Heyd, E. Brothers, 
 K. N. Kudin, V. N. Staroverov, T. Keith, R. Kobayashi, J. Normand, 
 K. Raghavachari, A. Rendell, J. C. Burant, S. S. Iyengar, J. Tomasi, 
 M. Cossi, N. Rega, J. M. Millam, M. Klene, J. E. Knox, J. B. Cross, 
 V. Bakken, C. Adamo, J. Jaramillo, R. Gomperts, R. E. Stratmann, 
 O. Yazyev, A. J. Austin, R. Cammi, C. Pomelli, J. W. Ochterski, 
 R. L. Martin, K. Morokuma, V. G. Zakrzewski, G. A. Voth, 
 P. Salvador, J. J. Dannenberg, S. Dapprich, A. D. Daniels, 
 O. Farkas, J. B. Foresman, J. V. Ortiz, J. Cioslowski, 
 and D. J. Fox, Gaussian, Inc., Wallingford CT, 2013.
 
 ******************************************
 Gaussian 09:  ES64L-G09RevD.01 24-Apr-2013
                26-Aug-2020 
 ******************************************
 %chk=/home/boittier/MDCM/nms_sampling/butane_geom.xyz.dir/butane_opt_1921.chk
 %nproc=8
 Will use up to    8 processors via shared memory.
 %mem=16000MB
 --------------------
 #p B2PLYPD3/Def2QZVP
 --------------------
 1/38=1/1;
 2/12=2,17=6,18=5,40=1/2;
 3/5=45,7=101,11=9,16=1,25=1,30=1,74=-60/1,2,3;
 4//1;
 5/5=2,38=5/2;
 8/10=1/1;
 9/16=-3/6;
 6/7=2,8=2,9=2,10=2/1;
 99/5=1,9=1/99;
 Leave Link    1 at Wed Aug 26 13:56:44 2020, MaxMem=  2097152000 cpu:         0.2
 (Enter /opt/cluster/programs/g09/g09_d.01/g09/l101.exe)
 ----------
 butane_opt
 ----------
 Symbolic Z-matrix:
 Charge =  0 Multiplicity = 1
 C                    -3.93366   0.31027   0.20391 
 C                    -2.65702  -0.62352  -0.07869 
 H                    -4.8522   -0.40893   0.0738 
 H                    -3.91851   0.61751  -0.49612 
 H                    -3.77083   1.02401   1.16792 
 C                    -1.37948   0.12349  -0.19594 
 H                    -2.81668  -1.46098  -1.17097 
 H                    -2.58038  -0.87558   0.47776 
 C                    -0.25276  -0.70588   0.17544 
 H                    -1.57028   0.59722   0.52871 
 H                    -1.29783   1.13365  -1.50221 
 H                    -0.6088   -1.2566    1.1313 
 H                     0.8383    0.02124   0.64406 
 H                     0.19004  -1.11953  -0.62444 
 
 NAtoms=     14 NQM=       14 NQMF=       0 NMMI=      0 NMMIF=      0
                NMic=       0 NMicF=      0.
                    Isotopes and Nuclear Properties:
 (Nuclear quadrupole moments (NQMom) in fm**2, nuclear magnetic moments (NMagM)
  in nuclear magnetons)

  Atom         1           2           3           4           5           6           7           8           9          10
 IAtWgt=          12          12           1           1           1          12           1           1          12           1
 AtmWgt=  12.0000000  12.0000000   1.0078250   1.0078250   1.0078250  12.0000000   1.0078250   1.0078250  12.0000000   1.0078250
 NucSpn=           0           0           1           1           1           0           1           1           0           1
 AtZEff=   0.0000000   0.0000000   0.0000000   0.0000000   0.0000000   0.0000000   0.0000000   0.0000000   0.0000000   0.0000000
 NQMom=    0.0000000   0.0000000   0.0000000   0.0000000   0.0000000   0.0000000   0.0000000   0.0000000   0.0000000   0.0000000
 NMagM=    0.0000000   0.0000000   2.7928460   2.7928460   2.7928460   0.0000000   2.7928460   2.7928460   0.0000000   2.7928460
 AtZNuc=   6.0000000   6.0000000   1.0000000   1.0000000   1.0000000   6.0000000   1.0000000   1.0000000   6.0000000   1.0000000

  Atom        11          12          13          14
 IAtWgt=           1           1           1           1
 AtmWgt=   1.0078250   1.0078250   1.0078250   1.0078250
 NucSpn=           1           1           1           1
 AtZEff=   0.0000000   0.0000000   0.0000000   0.0000000
 NQMom=    0.0000000   0.0000000   0.0000000   0.0000000
 NMagM=    2.7928460   2.7928460   2.7928460   2.7928460
 AtZNuc=   1.0000000   1.0000000   1.0000000   1.0000000
 Leave Link  101 at Wed Aug 26 13:56:44 2020, MaxMem=  2097152000 cpu:         0.5
 (Enter /opt/cluster/programs/g09/g09_d.01/g09/l202.exe)
                          Input orientation:                          
 ---------------------------------------------------------------------
 Center     Atomic      Atomic             Coordinates (Angstroms)
 Number     Number       Type             X           Y           Z
 ---------------------------------------------------------------------
      1          6           0       -3.933659    0.310274    0.203911
      2          6           0       -2.657022   -0.623520   -0.078688
      3          1           0       -4.852201   -0.408929    0.073803
      4          1           0       -3.918506    0.617513   -0.496120
      5          1           0       -3.770832    1.024012    1.167923
      6          6           0       -1.379478    0.123492   -0.195942
      7          1           0       -2.816681   -1.460983   -1.170972
      8          1           0       -2.580379   -0.875579    0.477763
      9          6           0       -0.252760   -0.705880    0.175441
     10          1           0       -1.570279    0.597221    0.528714
     11          1           0       -1.297831    1.133653   -1.502214
     12          1           0       -0.608800   -1.256601    1.131299
     13          1           0        0.838295    0.021243    0.644060
     14          1           0        0.190036   -1.119528   -0.624442
 ---------------------------------------------------------------------
                    Distance matrix (angstroms):
                    1          2          3          4          5
     1  C    0.000000
     2  C    1.606747   0.000000
     3  H    1.173840   2.210908   0.000000
     4  H    0.764636   1.818173   1.500061   0.000000
     5  H    1.210477   2.347120   2.102327   1.719328   0.000000
     6  C    2.592028   1.484552   3.523640   2.604002   2.896487
     7  H    2.505054   1.385612   2.607609   2.447364   3.543449
     8  H    1.820057   0.615667   2.354171   2.228981   2.345623
     9  C    3.818690   2.419058   4.610137   3.954751   4.044055
    10  H    2.402790   1.743604   3.462700   2.562200   2.330917
    11  H    3.245983   2.638462   4.182934   2.854218   3.641069
    12  H    3.790756   2.461722   4.454582   4.137022   3.898844
    13  H    4.800918   3.627027   5.735154   4.927748   4.745949
    14  H    4.442450   2.941022   5.139713   4.462499   4.847248
                    6          7          8          9         10
     6  C    0.000000
     7  H    2.350914   0.000000
     8  H    1.701230   1.765464   0.000000
     9  C    1.447507   2.992775   2.353297   0.000000
    10  H    0.886538   2.945956   1.786628   1.886460   0.000000
    11  H    1.653311   3.024692   3.098750   2.700108   2.118173
    12  H    2.064018   3.196398   2.111732   1.159191   2.173524
    13  H    2.373726   4.341680   3.538259   1.392377   2.479170
    14  H    2.047458   3.075001   2.991583   1.003487   2.715825
                   11         12         13         14
    11  H    0.000000
    12  H    3.622633   0.000000
    13  H    3.225985   1.991073   0.000000
    14  H    2.839200   1.933793   1.825019   0.000000
 Stoichiometry    C4H10
 Framework group  C1[X(C4H10)]
 Deg. of freedom    36
 Full point group                 C1      NOp   1
 Largest Abelian subgroup         C1      NOp   1
 Largest concise Abelian subgroup C1      NOp   1
                         Standard orientation:                         
 ---------------------------------------------------------------------
 Center     Atomic      Atomic             Coordinates (Angstroms)
 Number     Number       Type             X           Y           Z
 ---------------------------------------------------------------------
      1          6           0        1.945580    0.179186   -0.171715
      2          6           0        0.523839   -0.512870    0.113497
      3          1           0        2.723400   -0.687792   -0.025957
      4          1           0        1.981052    0.493888    0.524254
      5          1           0        1.914881    0.897142   -1.145805
      6          6           0       -0.603766    0.447686    0.212151
      7          1           0        0.529140   -1.350321    1.217385
      8          1           0        0.406953   -0.755223   -0.440262
      9          6           0       -1.856456   -0.176752   -0.156794
     10          1           0       -0.329475    0.870759   -0.517043
     11          1           0       -0.513650    1.474332    1.504945
     12          1           0       -1.597692   -0.794304   -1.103045
     13          1           0       -2.801097    0.723575   -0.642363
     14          1           0       -2.368695   -0.495555    0.645055
 ---------------------------------------------------------------------
 Rotational constants (GHZ):     21.1736383      3.7221099      3.5797918
 Leave Link  202 at Wed Aug 26 13:56:44 2020, MaxMem=  2097152000 cpu:         0.0
 (Enter /opt/cluster/programs/g09/g09_d.01/g09/l301.exe)
 Standard basis: def2QZVP (5D, 7F)
 Ernie: Thresh=  0.10000D-02 Tol=  0.10000D-05 Strict=F.
 There are   638 symmetry adapted cartesian basis functions of A   symmetry.
 There are   528 symmetry adapted basis functions of A   symmetry.
   528 basis functions,   748 primitive gaussians,   638 cartesian basis functions
    17 alpha electrons       17 beta electrons
       nuclear repulsion energy       134.0341762029 Hartrees.
 IExCor=  419 DFT=T Ex+Corr=B2PLYPD3 ExCW=0 ScaHFX=  0.530000
 ScaDFX=  0.470000  0.470000  0.730000  0.730000 ScalE2=  0.270000  0.270000
 IRadAn=      0 IRanWt=     -1 IRanGd=            0 ICorTp=0 IEmpDi=141
 NAtoms=   14 NActive=   14 NUniq=   14 SFac= 1.00D+00 NAtFMM=   60 NAOKFM=F Big=F
 Integral buffers will be    131072 words long.
 Regular integral format.
 Two-electron integral symmetry is turned on.
 R6Disp:  Grimme-D3(BJ) Dispersion energy=       -0.0072919256 Hartrees.
 Nuclear repulsion after empirical dispersion term =      134.0268842773 Hartrees.
 Leave Link  301 at Wed Aug 26 13:56:44 2020, MaxMem=  2097152000 cpu:         0.4
 (Enter /opt/cluster/programs/g09/g09_d.01/g09/l302.exe)
 NPDir=0 NMtPBC=     1 NCelOv=     1 NCel=       1 NClECP=     1 NCelD=      1
         NCelK=      1 NCelE2=     1 NClLst=     1 CellRange=     0.0.
 One-electron integrals computed using PRISM.
   1 Symmetry operations used in ECPInt.
 ECPInt:  NShTT=   14196 NPrTT=   30597 LenC2=   13877 LenP2D=   26021.
 LDataN:  DoStor=T MaxTD1= 8 Len=  415
 NBasis=   528 RedAO= T EigKep=  1.45D-05  NBF=   528
 NBsUse=   528 1.00D-06 EigRej= -1.00D+00 NBFU=   528
 Precomputing XC quadrature grid using
 IXCGrd= 4 IRadAn=           0 IRanWt=          -1 IRanGd=           0 AccXCQ= 0.00D+00.
 Generated NRdTot=       0 NPtTot=           0 NUsed=           0 NTot=          32
 NSgBfM=   638   638   638   638   638 MxSgAt=    14 MxSgA2=    14.
 Leave Link  302 at Wed Aug 26 13:56:45 2020, MaxMem=  2097152000 cpu:         4.5
 (Enter /opt/cluster/programs/g09/g09_d.01/g09/l303.exe)
 DipDrv:  MaxL=1.
 Leave Link  303 at Wed Aug 26 13:56:45 2020, MaxMem=  2097152000 cpu:         0.5
 (Enter /opt/cluster/programs/g09/g09_d.01/g09/l401.exe)
 ExpMin= 7.60D-02 ExpMax= 6.70D+04 ExpMxC= 6.47D+02 IAcc=2 IRadAn=         4 AccDes= 0.00D+00
 Harris functional with IExCor=  419 and IRadAn=       4 diagonalized for initial guess.
 HarFok:  IExCor=  419 AccDes= 0.00D+00 IRadAn=         4 IDoV= 1 UseB2=F ITyADJ=14
 ICtDFT=  3500011 ScaDFX=  1.000000  1.000000  1.000000  1.000000
 FoFCou: FMM=F IPFlag=           0 FMFlag=      100000 FMFlg1=           0
         NFxFlg=           0 DoJE=T BraDBF=F KetDBF=T FulRan=T
         wScrn=  0.000000 ICntrl=     500 IOpCl=  0 I1Cent=   200000004 NGrid=           0
         NMat0=    1 NMatS0=      1 NMatT0=    0 NMatD0=    1 NMtDS0=    0 NMtDT0=    0
 Petite list used in FoFCou.
 Harris En= -157.983190655022    
 JPrj=0 DoOrth=F DoCkMO=F.
 Leave Link  401 at Wed Aug 26 13:56:47 2020, MaxMem=  2097152000 cpu:        14.3
 (Enter /opt/cluster/programs/g09/g09_d.01/g09/l502.exe)
 Closed shell SCF:
 Using DIIS extrapolation, IDIIS=  1040.
 Integral symmetry usage will be decided dynamically.
 IVT=     1249338 IEndB=     1249338 NGot=  2097152000 MDV=  2096326985
 LenX=  2096326985 LenY=  2095919303
 Requested convergence on RMS density matrix=1.00D-08 within 128 cycles.
 Requested convergence on MAX density matrix=1.00D-06.
 Requested convergence on             energy=1.00D-06.
 No special actions if energy rises.
 Fock matrices will be formed incrementally for  20 cycles.
 Integral accuracy reduced to 1.0D-05 until final iterations.

 Cycle   1  Pass 0  IDiag  1:
 FoFJK:  IHMeth= 1 ICntrl=       0 DoSepK=F KAlg= 0 I1Cent=   0 FoldK=F
 IRaf= 940000000 NMat=   1 IRICut=       1 DoRegI=T DoRafI=F ISym2E= 0.
 FoFCou: FMM=F IPFlag=           0 FMFlag=      100000 FMFlg1=           0
         NFxFlg=           0 DoJE=F BraDBF=F KetDBF=F FulRan=T
         wScrn=  0.000000 ICntrl=       0 IOpCl=  0 I1Cent=           0 NGrid=           0
         NMat0=    1 NMatS0=      1 NMatT0=    0 NMatD0=    1 NMtDS0=    0 NMtDT0=    0
 Symmetry not used in FoFCou.
 E= -156.843860951637    
 DIIS: error= 4.58D-02 at cycle   1 NSaved=   1.
 NSaved= 1 IEnMin= 1 EnMin= -156.843860951637     IErMin= 1 ErrMin= 4.58D-02
 ErrMax= 4.58D-02  0.00D+00 EMaxC= 1.00D-01 BMatC= 5.63D-01 BMatP= 5.63D-01
 IDIUse=3 WtCom= 5.42D-01 WtEn= 4.58D-01
 Coeff-Com:  0.100D+01
 Coeff-En:   0.100D+01
 Coeff:      0.100D+01
 Gap=     0.317 Goal=   None    Shift=    0.000
 GapD=    0.317 DampG=1.000 DampE=0.500 DampFc=0.5000 IDamp=-1.
 Damping current iteration by 5.00D-01
 RMSDP=1.95D-03 MaxDP=1.23D-01              OVMax= 3.39D-01

 Cycle   2  Pass 0  IDiag  1:
 RMSU=  9.38D-04    CP:  9.16D-01
 E= -157.071925124632     Delta-E=       -0.228064172996 Rises=F Damp=T
 DIIS: error= 4.96D-03 at cycle   2 NSaved=   2.
 NSaved= 2 IEnMin= 2 EnMin= -157.071925124632     IErMin= 2 ErrMin= 4.96D-03
 ErrMax= 4.96D-03  0.00D+00 EMaxC= 1.00D-01 BMatC= 4.25D-02 BMatP= 5.63D-01
 IDIUse=3 WtCom= 9.50D-01 WtEn= 4.96D-02
 Coeff-Com: -0.741D-01 0.107D+01
 Coeff-En:   0.660D-02 0.993D+00
 Coeff:     -0.701D-01 0.107D+01
 Gap=     0.440 Goal=   None    Shift=    0.000
 RMSDP=7.18D-04 MaxDP=5.85D-02 DE=-2.28D-01 OVMax= 2.16D-01

 Cycle   3  Pass 0  IDiag  1:
 RMSU=  5.41D-04    CP:  8.87D-01  5.07D-01
 E= -157.318520918364     Delta-E=       -0.246595793732 Rises=F Damp=F
 DIIS: error= 5.75D-03 at cycle   3 NSaved=   3.
 NSaved= 3 IEnMin= 3 EnMin= -157.318520918364     IErMin= 2 ErrMin= 4.96D-03
 ErrMax= 5.75D-03  0.00D+00 EMaxC= 1.00D-01 BMatC= 9.95D-03 BMatP= 4.25D-02
 IDIUse=3 WtCom= 9.43D-01 WtEn= 5.75D-02
 Coeff-Com: -0.101D+00 0.297D+00 0.805D+00
 Coeff-En:   0.000D+00 0.000D+00 0.100D+01
 Coeff:     -0.954D-01 0.280D+00 0.816D+00
 Gap=     0.372 Goal=   None    Shift=    0.000
 RMSDP=1.36D-04 MaxDP=1.46D-02 DE=-2.47D-01 OVMax= 4.09D-02

 Cycle   4  Pass 0  IDiag  1:
 RMSU=  1.24D-04    CP:  8.76D-01  5.47D-01  1.03D+00
 E= -157.328672343370     Delta-E=       -0.010151425006 Rises=F Damp=F
 DIIS: error= 1.64D-03 at cycle   4 NSaved=   4.
 NSaved= 4 IEnMin= 4 EnMin= -157.328672343370     IErMin= 4 ErrMin= 1.64D-03
 ErrMax= 1.64D-03  0.00D+00 EMaxC= 1.00D-01 BMatC= 1.21D-03 BMatP= 9.95D-03
 IDIUse=3 WtCom= 9.84D-01 WtEn= 1.64D-02
 Coeff-Com: -0.337D-01 0.541D-01 0.331D+00 0.648D+00
 Coeff-En:   0.000D+00 0.000D+00 0.000D+00 0.100D+01
 Coeff:     -0.331D-01 0.532D-01 0.326D+00 0.654D+00
 Gap=     0.373 Goal=   None    Shift=    0.000
 RMSDP=4.63D-05 MaxDP=3.21D-03 DE=-1.02D-02 OVMax= 8.13D-03

 Cycle   5  Pass 0  IDiag  1:
 RMSU=  3.41D-05    CP:  8.76D-01  5.25D-01  1.07D+00  8.82D-01
 E= -157.329828340274     Delta-E=       -0.001155996904 Rises=F Damp=F
 DIIS: error= 3.01D-04 at cycle   5 NSaved=   5.
 NSaved= 5 IEnMin= 5 EnMin= -157.329828340274     IErMin= 5 ErrMin= 3.01D-04
 ErrMax= 3.01D-04  0.00D+00 EMaxC= 1.00D-01 BMatC= 4.06D-05 BMatP= 1.21D-03
 IDIUse=3 WtCom= 9.97D-01 WtEn= 3.01D-03
 Coeff-Com:  0.131D-03-0.969D-02 0.184D-01 0.163D+00 0.828D+00
 Coeff-En:   0.000D+00 0.000D+00 0.000D+00 0.000D+00 0.100D+01
 Coeff:      0.130D-03-0.966D-02 0.183D-01 0.163D+00 0.828D+00
 Gap=     0.374 Goal=   None    Shift=    0.000
 RMSDP=1.52D-05 MaxDP=7.37D-04 DE=-1.16D-03 OVMax= 2.01D-03

 Cycle   6  Pass 0  IDiag  1:
 RMSU=  1.09D-05    CP:  8.76D-01  5.17D-01  1.08D+00  9.21D-01  1.07D+00
 E= -157.329874174057     Delta-E=       -0.000045833783 Rises=F Damp=F
 DIIS: error= 6.69D-05 at cycle   6 NSaved=   6.
 NSaved= 6 IEnMin= 6 EnMin= -157.329874174057     IErMin= 6 ErrMin= 6.69D-05
 ErrMax= 6.69D-05  0.00D+00 EMaxC= 1.00D-01 BMatC= 1.63D-06 BMatP= 4.06D-05
 IDIUse=1 WtCom= 1.00D+00 WtEn= 0.00D+00
 Coeff-Com:  0.200D-02-0.443D-02-0.136D-01-0.175D-01 0.811D-01 0.952D+00
 Coeff:      0.200D-02-0.443D-02-0.136D-01-0.175D-01 0.811D-01 0.952D+00
 Gap=     0.374 Goal=   None    Shift=    0.000
 RMSDP=4.12D-06 MaxDP=1.68D-04 DE=-4.58D-05 OVMax= 5.21D-04

 Initial convergence to 1.0D-05 achieved.  Increase integral accuracy.
 Cycle   7  Pass 1  IDiag  1:
 E= -157.329852054648     Delta-E=        0.000022119409 Rises=F Damp=F
 DIIS: error= 4.90D-05 at cycle   1 NSaved=   1.
 NSaved= 1 IEnMin= 1 EnMin= -157.329852054648     IErMin= 1 ErrMin= 4.90D-05
 ErrMax= 4.90D-05  0.00D+00 EMaxC= 1.00D-01 BMatC= 8.94D-07 BMatP= 8.94D-07
 IDIUse=1 WtCom= 1.00D+00 WtEn= 0.00D+00
 Coeff-Com:  0.100D+01
 Coeff:      0.100D+01
 Gap=     0.374 Goal=   None    Shift=    0.000
 RMSDP=4.12D-06 MaxDP=1.68D-04 DE= 2.21D-05 OVMax= 2.64D-04

 Cycle   8  Pass 1  IDiag  1:
 RMSU=  3.45D-05    CP:  1.00D+00
 E= -157.329852341354     Delta-E=       -0.000000286706 Rises=F Damp=F
 DIIS: error= 2.91D-05 at cycle   2 NSaved=   2.
 NSaved= 2 IEnMin= 2 EnMin= -157.329852341354     IErMin= 2 ErrMin= 2.91D-05
 ErrMax= 2.91D-05  0.00D+00 EMaxC= 1.00D-01 BMatC= 3.79D-07 BMatP= 8.94D-07
 IDIUse=1 WtCom= 1.00D+00 WtEn= 0.00D+00
 Coeff-Com:  0.373D+00 0.627D+00
 Coeff:      0.373D+00 0.627D+00
 Gap=     0.374 Goal=   None    Shift=    0.000
 RMSDP=1.02D-06 MaxDP=7.32D-05 DE=-2.87D-07 OVMax= 1.50D-04

 Cycle   9  Pass 1  IDiag  1:
 RMSU=  7.03D-07    CP:  1.00D+00  1.02D+00
 E= -157.329852684776     Delta-E=       -0.000000343422 Rises=F Damp=F
 DIIS: error= 6.55D-06 at cycle   3 NSaved=   3.
 NSaved= 3 IEnMin= 3 EnMin= -157.329852684776     IErMin= 3 ErrMin= 6.55D-06
 ErrMax= 6.55D-06  0.00D+00 EMaxC= 1.00D-01 BMatC= 2.02D-08 BMatP= 3.79D-07
 IDIUse=1 WtCom= 1.00D+00 WtEn= 0.00D+00
 Coeff-Com: -0.109D-01 0.176D+00 0.835D+00
 Coeff:     -0.109D-01 0.176D+00 0.835D+00
 Gap=     0.374 Goal=   None    Shift=    0.000
 RMSDP=5.67D-07 MaxDP=4.87D-05 DE=-3.43D-07 OVMax= 3.90D-05

 Cycle  10  Pass 1  IDiag  1:
 RMSU=  2.17D-07    CP:  1.00D+00  1.04D+00  9.19D-01
 E= -157.329852704801     Delta-E=       -0.000000020025 Rises=F Damp=F
 DIIS: error= 1.16D-06 at cycle   4 NSaved=   4.
 NSaved= 4 IEnMin= 4 EnMin= -157.329852704801     IErMin= 4 ErrMin= 1.16D-06
 ErrMax= 1.16D-06  0.00D+00 EMaxC= 1.00D-01 BMatC= 4.72D-10 BMatP= 2.02D-08
 IDIUse=1 WtCom= 1.00D+00 WtEn= 0.00D+00
 Coeff-Com: -0.779D-02 0.580D-01 0.308D+00 0.642D+00
 Coeff:     -0.779D-02 0.580D-01 0.308D+00 0.642D+00
 Gap=     0.374 Goal=   None    Shift=    0.000
 RMSDP=3.71D-08 MaxDP=2.86D-06 DE=-2.00D-08 OVMax= 9.14D-06

 Cycle  11  Pass 1  IDiag  1:
 RMSU=  3.06D-08    CP:  1.00D+00  1.04D+00  9.27D-01  1.05D+00
 E= -157.329852705290     Delta-E=       -0.000000000488 Rises=F Damp=F
 DIIS: error= 3.05D-07 at cycle   5 NSaved=   5.
 NSaved= 5 IEnMin= 5 EnMin= -157.329852705290     IErMin= 5 ErrMin= 3.05D-07
 ErrMax= 3.05D-07  0.00D+00 EMaxC= 1.00D-01 BMatC= 4.12D-11 BMatP= 4.72D-10
 IDIUse=1 WtCom= 1.00D+00 WtEn= 0.00D+00
 Coeff-Com: -0.778D-04-0.149D-01-0.590D-01 0.151D+00 0.923D+00
 Coeff:     -0.778D-04-0.149D-01-0.590D-01 0.151D+00 0.923D+00
 Gap=     0.374 Goal=   None    Shift=    0.000
 RMSDP=2.06D-08 MaxDP=8.90D-07 DE=-4.88D-10 OVMax= 5.22D-06

 Cycle  12  Pass 1  IDiag  1:
 RMSU=  1.30D-08    CP:  1.00D+00  1.04D+00  9.30D-01  1.12D+00  1.08D+00
 E= -157.329852705346     Delta-E=       -0.000000000056 Rises=F Damp=F
 DIIS: error= 1.15D-07 at cycle   6 NSaved=   6.
 NSaved= 6 IEnMin= 6 EnMin= -157.329852705346     IErMin= 6 ErrMin= 1.15D-07
 ErrMax= 1.15D-07  0.00D+00 EMaxC= 1.00D-01 BMatC= 5.63D-12 BMatP= 4.12D-11
 IDIUse=1 WtCom= 1.00D+00 WtEn= 0.00D+00
 Coeff-Com:  0.672D-03-0.111D-01-0.504D-01-0.787D-02 0.343D+00 0.726D+00
 Coeff:      0.672D-03-0.111D-01-0.504D-01-0.787D-02 0.343D+00 0.726D+00
 Gap=     0.374 Goal=   None    Shift=    0.000
 RMSDP=4.93D-09 MaxDP=2.40D-07 DE=-5.63D-11 OVMax= 9.32D-07

 SCF Done:  E(RB2PLYPD3) =  -157.329852705     A.U. after   12 cycles
            NFock= 12  Conv=0.49D-08     -V/T= 1.9891
 KE= 1.590603494788D+02 PE=-6.333581523473D+02 EE= 1.829410658859D+02
 Leave Link  502 at Wed Aug 26 14:03:20 2020, MaxMem=  2097152000 cpu:      3139.9
 (Enter /opt/cluster/programs/g09/g09_d.01/g09/l801.exe)
 DoSCS=T DFT=T ScalE2(SS,OS)=  0.270000  0.270000
 ExpMin= 7.60D-02 ExpMax= 6.70D+04 ExpMxC= 6.47D+02 IAcc=3 IRadAn=         5 AccDes= 0.00D+00
 HarFok:  IExCor=  205 AccDes= 0.00D+00 IRadAn=         5 IDoV=-2 UseB2=F ITyADJ=14
 ICtDFT= 12500011 ScaDFX=  1.000000  1.000000  1.000000  1.000000
 Largest valence mixing into a core orbital is  1.13D-04
 Largest core mixing into a valence orbital is  1.31D-05
 Range of M.O.s used for correlation:     5   528
 NBasis=   528 NAE=    17 NBE=    17 NFC=     4 NFV=     0
 NROrb=    524 NOA=    13 NOB=    13 NVA=   511 NVB=   511

 **** Warning!!: The largest alpha MO coefficient is  0.34284401D+02

 Leave Link  801 at Wed Aug 26 14:03:21 2020, MaxMem=  2097152000 cpu:         1.0
 (Enter /opt/cluster/programs/g09/g09_d.01/g09/l906.exe)
 DoSCS=T DFT=T ScalE2(SS,OS)=  0.270000  0.270000
 FulOut=F Deriv=F AODrv=F NAtomX=    14
   MMem=         463  MDisk=          13 MDiskD=          13
  W3Min=     4238234 MinDsk=     6904766 NBas6D=         638
 NBas2D=      205689    NTT=      203841    LW2=     4508827
    MDV=  2095898050 MDiskM=        7293 NBas2p=      190205
 Fully direct method using O(OVN) memory.
 IMap=   1   2   3   4   5   6   7   8   9  10  11  12  13
 JobTyp=1 Pass  1:  I=   1 to  13 NPSUse=  8 ParTrn=T ParDer=T DoDerP=F.
 Spin components of T(2) and E(2):
     alpha-alpha T2 =       0.4190584385D-01 E2=     -0.2675344265D-01
     alpha-beta  T2 =       0.2949282762D+00 E2=     -0.1999061455D+00
     beta-beta   T2 =       0.4190584385D-01 E2=     -0.2675344265D-01
 The integrals were generated   1 times.
 E2(B2PLYPD3) =    -0.2534130308D+00 E(B2PLYPD3) =    -0.15758326573611D+03
 Leave Link  906 at Wed Aug 26 14:07:08 2020, MaxMem=  2097152000 cpu:      1815.9
 (Enter /opt/cluster/programs/g09/g09_d.01/g09/l601.exe)
 Copying SCF densities to generalized density rwf, IOpCl= 0 IROHF=0.

 **********************************************************************

            Population analysis using the SCF density.

 **********************************************************************

 Orbital symmetries:
       Occupied  (A) (A) (A) (A) (A) (A) (A) (A) (A) (A) (A) (A)
                 (A) (A) (A) (A) (A)
       Virtual   (A) (A) (A) (A) (A) (A) (A) (A) (A) (A) (A) (A)
                 (A) (A) (A) (A) (A) (A) (A) (A) (A) (A) (A) (A)
                 (A) (A) (A) (A) (A) (A) (A) (A) (A) (A) (A) (A)
                 (A) (A) (A) (A) (A) (A) (A) (A) (A) (A) (A) (A)
                 (A) (A) (A) (A) (A) (A) (A) (A) (A) (A) (A) (A)
                 (A) (A) (A) (A) (A) (A) (A) (A) (A) (A) (A) (A)
                 (A) (A) (A) (A) (A) (A) (A) (A) (A) (A) (A) (A)
                 (A) (A) (A) (A) (A) (A) (A) (A) (A) (A) (A) (A)
                 (A) (A) (A) (A) (A) (A) (A) (A) (A) (A) (A) (A)
                 (A) (A) (A) (A) (A) (A) (A) (A) (A) (A) (A) (A)
                 (A) (A) (A) (A) (A) (A) (A) (A) (A) (A) (A) (A)
                 (A) (A) (A) (A) (A) (A) (A) (A) (A) (A) (A) (A)
                 (A) (A) (A) (A) (A) (A) (A) (A) (A) (A) (A) (A)
                 (A) (A) (A) (A) (A) (A) (A) (A) (A) (A) (A) (A)
                 (A) (A) (A) (A) (A) (A) (A) (A) (A) (A) (A) (A)
                 (A) (A) (A) (A) (A) (A) (A) (A) (A) (A) (A) (A)
                 (A) (A) (A) (A) (A) (A) (A) (A) (A) (A) (A) (A)
                 (A) (A) (A) (A) (A) (A) (A) (A) (A) (A) (A) (A)
                 (A) (A) (A) (A) (A) (A) (A) (A) (A) (A) (A) (A)
                 (A) (A) (A) (A) (A) (A) (A) (A) (A) (A) (A) (A)
                 (A) (A) (A) (A) (A) (A) (A) (A) (A) (A) (A) (A)
                 (A) (A) (A) (A) (A) (A) (A) (A) (A) (A) (A) (A)
                 (A) (A) (A) (A) (A) (A) (A) (A) (A) (A) (A) (A)
                 (A) (A) (A) (A) (A) (A) (A) (A) (A) (A) (A) (A)
                 (A) (A) (A) (A) (A) (A) (A) (A) (A) (A) (A) (A)
                 (A) (A) (A) (A) (A) (A) (A) (A) (A) (A) (A) (A)
                 (A) (A) (A) (A) (A) (A) (A) (A) (A) (A) (A) (A)
                 (A) (A) (A) (A) (A) (A) (A) (A) (A) (A) (A) (A)
                 (A) (A) (A) (A) (A) (A) (A) (A) (A) (A) (A) (A)
                 (A) (A) (A) (A) (A) (A) (A) (A) (A) (A) (A) (A)
                 (A) (A) (A) (A) (A) (A) (A) (A) (A) (A) (A) (A)
                 (A) (A) (A) (A) (A) (A) (A) (A) (A) (A) (A) (A)
                 (A) (A) (A) (A) (A) (A) (A) (A) (A) (A) (A) (A)
                 (A) (A) (A) (A) (A) (A) (A) (A) (A) (A) (A) (A)
                 (A) (A) (A) (A) (A) (A) (A) (A) (A) (A) (A) (A)
                 (A) (A) (A) (A) (A) (A) (A) (A) (A) (A) (A) (A)
                 (A) (A) (A) (A) (A) (A) (A) (A) (A) (A) (A) (A)
                 (A) (A) (A) (A) (A) (A) (A) (A) (A) (A) (A) (A)
                 (A) (A) (A) (A) (A) (A) (A) (A) (A) (A) (A) (A)
                 (A) (A) (A) (A) (A) (A) (A) (A) (A) (A) (A) (A)
                 (A) (A) (A) (A) (A) (A) (A) (A) (A) (A) (A) (A)
                 (A) (A) (A) (A) (A) (A) (A) (A) (A) (A) (A) (A)
                 (A) (A) (A) (A) (A) (A) (A)
 The electronic state is 1-A.
 Alpha  occ. eigenvalues --  -10.63370 -10.62482 -10.60631 -10.59372  -0.98523
 Alpha  occ. eigenvalues --   -0.86528  -0.78630  -0.70163  -0.56319  -0.51642
 Alpha  occ. eigenvalues --   -0.49248  -0.47643  -0.45821  -0.41839  -0.37401
 Alpha  occ. eigenvalues --   -0.35394  -0.34221
 Alpha virt. eigenvalues --    0.03165   0.05294   0.06505   0.07327   0.09676
 Alpha virt. eigenvalues --    0.11222   0.11303   0.13397   0.13793   0.15064
 Alpha virt. eigenvalues --    0.15710   0.16212   0.17694   0.18976   0.20912
 Alpha virt. eigenvalues --    0.22505   0.22651   0.23528   0.25198   0.27355
 Alpha virt. eigenvalues --    0.28704   0.29120   0.30267   0.31911   0.32318
 Alpha virt. eigenvalues --    0.33544   0.34444   0.36410   0.36583   0.40488
 Alpha virt. eigenvalues --    0.41363   0.43211   0.43395   0.46916   0.48597
 Alpha virt. eigenvalues --    0.50157   0.51307   0.53670   0.56375   0.57983
 Alpha virt. eigenvalues --    0.60107   0.61599   0.63770   0.65731   0.66828
 Alpha virt. eigenvalues --    0.67058   0.68412   0.69580   0.70279   0.71823
 Alpha virt. eigenvalues --    0.73832   0.74351   0.75472   0.76280   0.78107
 Alpha virt. eigenvalues --    0.79960   0.81597   0.83622   0.85572   0.86976
 Alpha virt. eigenvalues --    0.87446   0.87965   0.90238   0.90790   0.91601
 Alpha virt. eigenvalues --    0.92651   0.93008   0.94378   0.96188   0.97148
 Alpha virt. eigenvalues --    0.97855   0.99118   1.01148   1.02066   1.02961
 Alpha virt. eigenvalues --    1.04152   1.04571   1.08068   1.08669   1.10589
 Alpha virt. eigenvalues --    1.12672   1.15374   1.16076   1.16914   1.18810
 Alpha virt. eigenvalues --    1.21819   1.22562   1.25153   1.26574   1.28143
 Alpha virt. eigenvalues --    1.28448   1.29731   1.31437   1.33520   1.35289
 Alpha virt. eigenvalues --    1.37867   1.39515   1.43580   1.44369   1.45944
 Alpha virt. eigenvalues --    1.47086   1.48423   1.49456   1.55358   1.61085
 Alpha virt. eigenvalues --    1.65160   1.69023   1.69691   1.70879   1.75683
 Alpha virt. eigenvalues --    1.80512   1.84233   1.87750   1.88129   1.88674
 Alpha virt. eigenvalues --    1.90092   1.91092   1.92640   1.94062   1.95103
 Alpha virt. eigenvalues --    1.96639   1.98678   1.99801   2.01122   2.02081
 Alpha virt. eigenvalues --    2.02692   2.05279   2.06931   2.07696   2.09954
 Alpha virt. eigenvalues --    2.10964   2.11453   2.12904   2.16024   2.17110
 Alpha virt. eigenvalues --    2.17370   2.18123   2.20451   2.22581   2.23270
 Alpha virt. eigenvalues --    2.25422   2.25689   2.26823   2.28342   2.31686
 Alpha virt. eigenvalues --    2.32500   2.33177   2.34590   2.36087   2.37361
 Alpha virt. eigenvalues --    2.38514   2.39678   2.41456   2.42016   2.43354
 Alpha virt. eigenvalues --    2.44098   2.46963   2.48569   2.50619   2.51486
 Alpha virt. eigenvalues --    2.53489   2.54718   2.56402   2.58215   2.60061
 Alpha virt. eigenvalues --    2.60983   2.63157   2.64738   2.65751   2.66668
 Alpha virt. eigenvalues --    2.67302   2.69527   2.71074   2.71244   2.73076
 Alpha virt. eigenvalues --    2.75463   2.77289   2.78622   2.80120   2.81929
 Alpha virt. eigenvalues --    2.83319   2.86265   2.88490   2.89446   2.91162
 Alpha virt. eigenvalues --    2.94397   2.95219   2.96559   2.98231   3.01470
 Alpha virt. eigenvalues --    3.02992   3.04034   3.06912   3.08515   3.10222
 Alpha virt. eigenvalues --    3.10807   3.11611   3.14365   3.16458   3.16975
 Alpha virt. eigenvalues --    3.20160   3.21336   3.25552   3.26169   3.26771
 Alpha virt. eigenvalues --    3.30212   3.33177   3.35204   3.37313   3.39759
 Alpha virt. eigenvalues --    3.40164   3.43813   3.44718   3.45860   3.48428
 Alpha virt. eigenvalues --    3.50406   3.53132   3.55234   3.58704   3.61658
 Alpha virt. eigenvalues --    3.62689   3.64372   3.68126   3.68968   3.73121
 Alpha virt. eigenvalues --    3.73883   3.76937   3.80513   3.83647   3.84542
 Alpha virt. eigenvalues --    3.87521   3.89873   3.91266   3.94436   3.99397
 Alpha virt. eigenvalues --    4.07218   4.10334   4.11042   4.13622   4.16182
 Alpha virt. eigenvalues --    4.18079   4.20141   4.25293   4.27530   4.30110
 Alpha virt. eigenvalues --    4.32583   4.40981   4.48177   4.55190   4.68451
 Alpha virt. eigenvalues --    4.75765   4.88300   4.90457   4.98573   5.10083
 Alpha virt. eigenvalues --    5.13421   5.17385   5.24369   5.29102   5.33234
 Alpha virt. eigenvalues --    5.34412   5.43265   5.44095   5.48491   5.50213
 Alpha virt. eigenvalues --    5.53225   5.53678   5.56106   5.59251   5.61374
 Alpha virt. eigenvalues --    5.64582   5.64767   5.68892   5.70425   5.73737
 Alpha virt. eigenvalues --    5.74248   5.76365   5.79180   5.80461   5.82325
 Alpha virt. eigenvalues --    5.83336   5.85945   5.87253   5.89794   5.90529
 Alpha virt. eigenvalues --    5.91034   5.93844   5.94654   5.95083   5.97471
 Alpha virt. eigenvalues --    5.98250   5.98744   5.99855   6.00890   6.03418
 Alpha virt. eigenvalues --    6.04525   6.06134   6.09092   6.10071   6.10781
 Alpha virt. eigenvalues --    6.13140   6.15709   6.17043   6.17411   6.20464
 Alpha virt. eigenvalues --    6.21463   6.23057   6.24123   6.27315   6.28192
 Alpha virt. eigenvalues --    6.30548   6.31647   6.34980   6.36344   6.38007
 Alpha virt. eigenvalues --    6.40339   6.42963   6.44411   6.45938   6.48732
 Alpha virt. eigenvalues --    6.49424   6.50890   6.54772   6.56901   6.59054
 Alpha virt. eigenvalues --    6.61221   6.61682   6.65608   6.66634   6.67931
 Alpha virt. eigenvalues --    6.71712   6.74214   6.77792   6.79453   6.79728
 Alpha virt. eigenvalues --    6.81965   6.82943   6.86281   6.89810   6.91108
 Alpha virt. eigenvalues --    6.93403   6.94190   6.96418   6.98729   7.01754
 Alpha virt. eigenvalues --    7.04950   7.09946   7.11217   7.13634   7.14719
 Alpha virt. eigenvalues --    7.16517   7.17825   7.18796   7.21320   7.24624
 Alpha virt. eigenvalues --    7.26445   7.30911   7.33297   7.34466   7.36371
 Alpha virt. eigenvalues --    7.38664   7.39929   7.42581   7.46362   7.49326
 Alpha virt. eigenvalues --    7.51038   7.52986   7.56060   7.60729   7.61639
 Alpha virt. eigenvalues --    7.62897   7.63764   7.65197   7.69586   7.69705
 Alpha virt. eigenvalues --    7.72591   7.74657   7.75771   7.78427   7.79990
 Alpha virt. eigenvalues --    7.81643   7.82350   7.86138   7.88831   7.90099
 Alpha virt. eigenvalues --    7.91804   7.92599   7.95238   7.99035   8.01799
 Alpha virt. eigenvalues --    8.02349   8.06156   8.07000   8.09563   8.10146
 Alpha virt. eigenvalues --    8.13531   8.15383   8.17733   8.19272   8.21351
 Alpha virt. eigenvalues --    8.23014   8.25047   8.26572   8.27365   8.28711
 Alpha virt. eigenvalues --    8.29916   8.32094   8.34545   8.35933   8.39392
 Alpha virt. eigenvalues --    8.40836   8.43649   8.46119   8.46748   8.48850
 Alpha virt. eigenvalues --    8.49977   8.51515   8.52939   8.54505   8.56143
 Alpha virt. eigenvalues --    8.58378   8.60118   8.62755   8.64296   8.64639
 Alpha virt. eigenvalues --    8.65918   8.68158   8.70364   8.72425   8.74241
 Alpha virt. eigenvalues --    8.77549   8.81024   8.82313   8.83002   8.84336
 Alpha virt. eigenvalues --    8.88083   8.91168   8.92229   8.94410   8.97749
 Alpha virt. eigenvalues --    9.00171   9.03090   9.06075   9.07020   9.09751
 Alpha virt. eigenvalues --    9.11907   9.14220   9.16908   9.19365   9.22856
 Alpha virt. eigenvalues --    9.26359   9.29888   9.32758   9.37313   9.42420
 Alpha virt. eigenvalues --    9.44270   9.45749   9.48582   9.50304   9.53809
 Alpha virt. eigenvalues --    9.60575   9.65715   9.72140   9.78356   9.79517
 Alpha virt. eigenvalues --    9.82197   9.87681   9.88045   9.96298  10.01036
 Alpha virt. eigenvalues --   10.01985  10.07150  10.24811  10.27005  10.37302
 Alpha virt. eigenvalues --   10.41564  10.43376  10.44041  10.58494  10.71101
 Alpha virt. eigenvalues --   10.73409  10.79789  10.82407  10.98495  11.02089
 Alpha virt. eigenvalues --   11.07296  11.28542  11.43342  11.56491  11.57526
 Alpha virt. eigenvalues --   11.68424  11.76824  11.81974  11.87684  12.02818
 Alpha virt. eigenvalues --   12.03864  12.19035  12.32315  12.43527  12.84700
 Alpha virt. eigenvalues --   13.74263  13.83619  16.95276  29.27071  29.34828
 Alpha virt. eigenvalues --   29.64655  29.79735 148.96661 149.00174 149.34692
 Alpha virt. eigenvalues --  149.56748
          Condensed to atoms (all electrons):
               1          2          3          4          5          6
     1  C    5.011978   0.339389   0.382452   0.415364   0.376898  -0.043178
     2  C    0.339389   6.056822  -0.046818  -0.038080  -0.037917   0.321755
     3  H    0.382452  -0.046818   0.646391  -0.017325  -0.021549   0.006778
     4  H    0.415364  -0.038080  -0.017325   0.292752   0.000230  -0.004443
     5  H    0.376898  -0.037917  -0.021549   0.000230   0.611968  -0.001364
     6  C   -0.043178   0.321755   0.006778  -0.004443  -0.001364   4.932815
     7  H   -0.023522   0.318815  -0.006272  -0.000270   0.005097  -0.041698
     8  H   -0.025620   0.110381  -0.001435   0.002299  -0.000700  -0.031696
     9  C    0.007689  -0.063081  -0.000663  -0.000442  -0.000191   0.354406
    10  H   -0.018516  -0.086428   0.000288  -0.000172   0.005486   0.428002
    11  H   -0.003199  -0.031389   0.000145   0.005267  -0.000203   0.333697
    12  H    0.000703  -0.014334  -0.000005   0.000111  -0.000004  -0.060336
    13  H   -0.000695   0.012935   0.000043   0.000012   0.000040  -0.034828
    14  H   -0.000518  -0.005657   0.000016   0.000009  -0.000009  -0.050230
               7          8          9         10         11         12
     1  C   -0.023522  -0.025620   0.007689  -0.018516  -0.003199   0.000703
     2  C    0.318815   0.110381  -0.063081  -0.086428  -0.031389  -0.014334
     3  H   -0.006272  -0.001435  -0.000663   0.000288   0.000145  -0.000005
     4  H   -0.000270   0.002299  -0.000442  -0.000172   0.005267   0.000111
     5  H    0.005097  -0.000700  -0.000191   0.005486  -0.000203  -0.000004
     6  C   -0.041698  -0.031696   0.354406   0.428002   0.333697  -0.060336
     7  H    0.686843   0.026557   0.001826   0.013687  -0.004296   0.000453
     8  H    0.026557   0.190672  -0.005007  -0.009529   0.008797   0.007735
     9  C    0.001826  -0.005007   4.743255  -0.056254  -0.026972   0.396338
    10  H    0.013687  -0.009529  -0.056254   0.542833  -0.004786   0.001174
    11  H   -0.004296   0.008797  -0.026972  -0.004786   0.755148   0.007212
    12  H    0.000453   0.007735   0.396338   0.001174   0.007212   0.651855
    13  H   -0.000583  -0.000882   0.381284  -0.013885  -0.002940  -0.031779
    14  H    0.003109   0.000942   0.412778   0.011141  -0.003161  -0.023607
              13         14
     1  C   -0.000695  -0.000518
     2  C    0.012935  -0.005657
     3  H    0.000043   0.000016
     4  H    0.000012   0.000009
     5  H    0.000040  -0.000009
     6  C   -0.034828  -0.050230
     7  H   -0.000583   0.003109
     8  H   -0.000882   0.000942
     9  C    0.381284   0.412778
    10  H   -0.013885   0.011141
    11  H   -0.002940  -0.003161
    12  H   -0.031779  -0.023607
    13  H    0.726739  -0.033255
    14  H   -0.033255   0.606685
 Mulliken charges:
               1
     1  C   -0.419225
     2  C   -0.836395
     3  H    0.057954
     4  H    0.344688
     5  H    0.062216
     6  C   -0.109681
     7  H    0.020254
     8  H    0.727485
     9  C   -0.144967
    10  H    0.186958
    11  H   -0.033320
    12  H    0.064483
    13  H   -0.002206
    14  H    0.081757
 Sum of Mulliken charges =   0.00000
 Mulliken charges with hydrogens summed into heavy atoms:
               1
     1  C    0.045633
     2  C   -0.088656
     6  C    0.043957
     9  C   -0.000934
 Electronic spatial extent (au):  <R**2>=            419.6573
 Charge=              0.0000 electrons
 Dipole moment (field-independent basis, Debye):
    X=              0.1761    Y=             -0.3909    Z=             -0.6445  Tot=              0.7741
 Quadrupole moment (field-independent basis, Debye-Ang):
   XX=            -30.2899   YY=            -30.5680   ZZ=            -28.1665
   XY=              0.6335   XZ=              0.0114   YZ=             -0.7441
 Traceless Quadrupole moment (field-independent basis, Debye-Ang):
   XX=             -0.6151   YY=             -0.8932   ZZ=              1.5083
   XY=              0.6335   XZ=              0.0114   YZ=             -0.7441
 Octapole moment (field-independent basis, Debye-Ang**2):
  XXX=              2.7415  YYY=             -1.9439  ZZZ=             -2.9847  XYY=              2.4097
  XXY=             -2.3399  XXZ=              2.5520  XZZ=              1.1860  YZZ=             -0.8857
  YYZ=             -1.6020  XYZ=             -0.5926
 Hexadecapole moment (field-independent basis, Debye-Ang**3):
 XXXX=           -457.8967 YYYY=           -103.6079 ZZZZ=            -77.5223 XXXY=             -1.5450
 XXXZ=             -1.0079 YYYX=              3.2610 YYYZ=             -1.8166 ZZZX=             -0.5463
 ZZZY=             -1.8747 XXYY=            -91.5062 XXZZ=            -86.8621 YYZZ=            -26.7233
 XXYZ=             -3.7672 YYXZ=             -0.0527 ZZXY=              3.7711
 N-N= 1.340268842773D+02 E-N=-6.333581808200D+02  KE= 1.590603494788D+02
 Leave Link  601 at Wed Aug 26 14:07:09 2020, MaxMem=  2097152000 cpu:         1.1
 (Enter /opt/cluster/programs/g09/g09_d.01/g09/l9999.exe)
 1\1\GINC-NODE28\SP\RB2PLYPD3-FC\def2QZVP\C4H10\BOITTIER\26-Aug-2020\0\
 \#p B2PLYPD3/Def2QZVP\\butane_opt\\0,1\C,0,-3.933659,0.310274,0.203911
 \C,0,-2.657022,-0.62352,-0.078688\H,0,-4.852201,-0.408929,0.073803\H,0
 ,-3.918506,0.617513,-0.49612\H,0,-3.770832,1.024012,1.167923\C,0,-1.37
 9478,0.123492,-0.195942\H,0,-2.816681,-1.460983,-1.170972\H,0,-2.58037
 9,-0.875579,0.477763\C,0,-0.25276,-0.70588,0.175441\H,0,-1.570279,0.59
 7221,0.528714\H,0,-1.297831,1.133653,-1.502214\H,0,-0.6088,-1.256601,1
 .131299\H,0,0.838295,0.021243,0.64406\H,0,0.190036,-1.119528,-0.624442
 \\Version=ES64L-G09RevD.01\State=1-A\HF=-157.3298527\MP2=-157.5832657\
 RMSD=4.930e-09\PG=C01 [X(C4H10)]\\@


 FESTINA LENTE!
     - IMPERATOR AUGUSTUS 
 Job cpu time:       0 days  1 hours 22 minutes 58.8 seconds.
 File lengths (MBytes):  RWF=    152 Int=      0 D2E=      0 Chk=     14 Scr=      1
 Normal termination of Gaussian 09 at Wed Aug 26 14:07:09 2020.
