 Entering Gaussian System, Link 0=/opt/cluster/programs/g09/g09_d.01/g09//g09
 Input=/home/boittier/MDCM/nms_sampling/butane_geom.xyz.dir/energies/butane_opt_109_energy.com
 Output=/scratch/boittier/butane_opt_109_energy/butane_opt_109_energy.out
 Initial command:
 /opt/cluster/programs/g09/g09_d.01/g09/l1.exe "/scratch/boittier/butane_opt_109_energy/Gau-36424.inp" -scrdir="/scratch/boittier/butane_opt_109_energy/"
 Entering Link 1 = /opt/cluster/programs/g09/g09_d.01/g09/l1.exe PID=     36425.
  
 Copyright (c) 1988,1990,1992,1993,1995,1998,2003,2009,2013,
            Gaussian, Inc.  All Rights Reserved.
  
 This is part of the Gaussian(R) 09 program.  It is based on
 the Gaussian(R) 03 system (copyright 2003, Gaussian, Inc.),
 the Gaussian(R) 98 system (copyright 1998, Gaussian, Inc.),
 the Gaussian(R) 94 system (copyright 1995, Gaussian, Inc.),
 the Gaussian 92(TM) system (copyright 1992, Gaussian, Inc.),
 the Gaussian 90(TM) system (copyright 1990, Gaussian, Inc.),
 the Gaussian 88(TM) system (copyright 1988, Gaussian, Inc.),
 the Gaussian 86(TM) system (copyright 1986, Carnegie Mellon
 University), and the Gaussian 82(TM) system (copyright 1983,
 Carnegie Mellon University). Gaussian is a federally registered
 trademark of Gaussian, Inc.
  
 This software contains proprietary and confidential information,
 including trade secrets, belonging to Gaussian, Inc.
  
 This software is provided under written license and may be
 used, copied, transmitted, or stored only in accord with that
 written license.
  
 The following legend is applicable only to US Government
 contracts under FAR:
  
                    RESTRICTED RIGHTS LEGEND
  
 Use, reproduction and disclosure by the US Government is
 subject to restrictions as set forth in subparagraphs (a)
 and (c) of the Commercial Computer Software - Restricted
 Rights clause in FAR 52.227-19.
  
 Gaussian, Inc.
 340 Quinnipiac St., Bldg. 40, Wallingford CT 06492
  
  
 ---------------------------------------------------------------
 Warning -- This program may not be used in any manner that
 competes with the business of Gaussian, Inc. or will provide
 assistance to any competitor of Gaussian, Inc.  The licensee
 of this program is prohibited from giving any competitor of
 Gaussian, Inc. access to this program.  By using this program,
 the user acknowledges that Gaussian, Inc. is engaged in the
 business of creating and licensing software in the field of
 computational chemistry and represents and warrants to the
 licensee that it is not a competitor of Gaussian, Inc. and that
 it will not use this program in any manner prohibited above.
 ---------------------------------------------------------------
  

 Cite this work as:
 Gaussian 09, Revision D.01,
 M. J. Frisch, G. W. Trucks, H. B. Schlegel, G. E. Scuseria, 
 M. A. Robb, J. R. Cheeseman, G. Scalmani, V. Barone, B. Mennucci, 
 G. A. Petersson, H. Nakatsuji, M. Caricato, X. Li, H. P. Hratchian, 
 A. F. Izmaylov, J. Bloino, G. Zheng, J. L. Sonnenberg, M. Hada, 
 M. Ehara, K. Toyota, R. Fukuda, J. Hasegawa, M. Ishida, T. Nakajima, 
 Y. Honda, O. Kitao, H. Nakai, T. Vreven, J. A. Montgomery, Jr., 
 J. E. Peralta, F. Ogliaro, M. Bearpark, J. J. Heyd, E. Brothers, 
 K. N. Kudin, V. N. Staroverov, T. Keith, R. Kobayashi, J. Normand, 
 K. Raghavachari, A. Rendell, J. C. Burant, S. S. Iyengar, J. Tomasi, 
 M. Cossi, N. Rega, J. M. Millam, M. Klene, J. E. Knox, J. B. Cross, 
 V. Bakken, C. Adamo, J. Jaramillo, R. Gomperts, R. E. Stratmann, 
 O. Yazyev, A. J. Austin, R. Cammi, C. Pomelli, J. W. Ochterski, 
 R. L. Martin, K. Morokuma, V. G. Zakrzewski, G. A. Voth, 
 P. Salvador, J. J. Dannenberg, S. Dapprich, A. D. Daniels, 
 O. Farkas, J. B. Foresman, J. V. Ortiz, J. Cioslowski, 
 and D. J. Fox, Gaussian, Inc., Wallingford CT, 2013.
 
 ******************************************
 Gaussian 09:  ES64L-G09RevD.01 24-Apr-2013
                26-Aug-2020 
 ******************************************
 %chk=/home/boittier/MDCM/nms_sampling/butane_geom.xyz.dir/butane_opt_109.chk
 %nproc=8
 Will use up to    8 processors via shared memory.
 %mem=16000MB
 --------------------
 #p B2PLYPD3/Def2QZVP
 --------------------
 1/38=1/1;
 2/12=2,17=6,18=5,40=1/2;
 3/5=45,7=101,11=9,16=1,25=1,30=1,74=-60/1,2,3;
 4//1;
 5/5=2,38=5/2;
 8/10=1/1;
 9/16=-3/6;
 6/7=2,8=2,9=2,10=2/1;
 99/5=1,9=1/99;
 Leave Link    1 at Wed Aug 26 09:51:02 2020, MaxMem=  2097152000 cpu:         0.2
 (Enter /opt/cluster/programs/g09/g09_d.01/g09/l101.exe)
 ----------
 butane_opt
 ----------
 Symbolic Z-matrix:
 Charge =  0 Multiplicity = 1
 C                    -3.91424   0.25327  -0.04237 
 C                    -2.69712  -0.5977    0.09801 
 H                    -4.86874  -0.38405  -0.09062 
 H                    -3.91437   0.87937  -0.97777 
 H                    -3.99872   0.85609   0.75343 
 C                    -1.41493   0.20586   0.0945 
 H                    -2.66825  -1.22532  -0.69273 
 H                    -2.74351  -1.23389   1.0178 
 C                    -0.18379  -0.70717  -0.04097 
 H                    -1.31693   0.9508    0.97616 
 H                    -1.38504   0.72715  -0.69732 
 H                    -0.06351  -1.45293   0.89147 
 H                     0.67004  -0.12617  -0.19325 
 H                    -0.19604  -1.32731  -0.86473 
 
 NAtoms=     14 NQM=       14 NQMF=       0 NMMI=      0 NMMIF=      0
                NMic=       0 NMicF=      0.
                    Isotopes and Nuclear Properties:
 (Nuclear quadrupole moments (NQMom) in fm**2, nuclear magnetic moments (NMagM)
  in nuclear magnetons)

  Atom         1           2           3           4           5           6           7           8           9          10
 IAtWgt=          12          12           1           1           1          12           1           1          12           1
 AtmWgt=  12.0000000  12.0000000   1.0078250   1.0078250   1.0078250  12.0000000   1.0078250   1.0078250  12.0000000   1.0078250
 NucSpn=           0           0           1           1           1           0           1           1           0           1
 AtZEff=   0.0000000   0.0000000   0.0000000   0.0000000   0.0000000   0.0000000   0.0000000   0.0000000   0.0000000   0.0000000
 NQMom=    0.0000000   0.0000000   0.0000000   0.0000000   0.0000000   0.0000000   0.0000000   0.0000000   0.0000000   0.0000000
 NMagM=    0.0000000   0.0000000   2.7928460   2.7928460   2.7928460   0.0000000   2.7928460   2.7928460   0.0000000   2.7928460
 AtZNuc=   6.0000000   6.0000000   1.0000000   1.0000000   1.0000000   6.0000000   1.0000000   1.0000000   6.0000000   1.0000000

  Atom        11          12          13          14
 IAtWgt=           1           1           1           1
 AtmWgt=   1.0078250   1.0078250   1.0078250   1.0078250
 NucSpn=           1           1           1           1
 AtZEff=   0.0000000   0.0000000   0.0000000   0.0000000
 NQMom=    0.0000000   0.0000000   0.0000000   0.0000000
 NMagM=    2.7928460   2.7928460   2.7928460   2.7928460
 AtZNuc=   1.0000000   1.0000000   1.0000000   1.0000000
 Leave Link  101 at Wed Aug 26 09:51:02 2020, MaxMem=  2097152000 cpu:         0.5
 (Enter /opt/cluster/programs/g09/g09_d.01/g09/l202.exe)
                          Input orientation:                          
 ---------------------------------------------------------------------
 Center     Atomic      Atomic             Coordinates (Angstroms)
 Number     Number       Type             X           Y           Z
 ---------------------------------------------------------------------
      1          6           0       -3.914237    0.253265   -0.042367
      2          6           0       -2.697121   -0.597697    0.098010
      3          1           0       -4.868736   -0.384053   -0.090624
      4          1           0       -3.914366    0.879372   -0.977768
      5          1           0       -3.998720    0.856091    0.753433
      6          6           0       -1.414926    0.205862    0.094502
      7          1           0       -2.668252   -1.225321   -0.692734
      8          1           0       -2.743507   -1.233886    1.017803
      9          6           0       -0.183786   -0.707165   -0.040969
     10          1           0       -1.316925    0.950803    0.976155
     11          1           0       -1.385044    0.727152   -0.697316
     12          1           0       -0.063512   -1.452933    0.891474
     13          1           0        0.670041   -0.126169   -0.193245
     14          1           0       -0.196038   -1.327305   -0.864731
 ---------------------------------------------------------------------
                    Distance matrix (angstroms):
                    1          2          3          4          5
     1  C    0.000000
     2  C    1.491715   0.000000
     3  H    1.148726   2.190237   0.000000
     4  H    1.125604   2.195613   1.814963   0.000000
     5  H    1.001915   2.058455   1.734162   1.733411   0.000000
     6  C    2.503505   1.513190   3.508714   2.801888   2.744627
     7  H    2.040018   1.009961   2.431542   2.462474   2.862485
     8  H    2.169375   1.119333   2.543113   3.133540   2.452235
     9  C    3.852102   2.519554   4.696342   4.160759   4.198639
    10  H    2.875757   2.252539   3.941474   3.251095   2.692694
    11  H    2.655248   2.027144   3.706611   2.549371   2.992090
    12  H    4.314076   2.880436   5.019681   4.874709   4.564703
    13  H    4.602428   3.412469   5.545727   4.758506   4.863986
    14  H    4.123044   2.777519   4.829397   4.325294   4.673977
                    6          7          8          9         10
     6  C    0.000000
     7  H    2.058847   0.000000
     8  H    2.165753   1.712213   0.000000
     9  C    1.538726   2.620278   2.819682   0.000000
    10  H    1.158384   3.057252   2.609547   2.251089   0.000000
    11  H    0.948479   2.336406   2.938150   1.982694   1.689723
    12  H    2.283218   3.057154   2.691898   1.200036   2.712225
    13  H    2.130758   3.549905   3.787609   1.043918   2.544681
    14  H    2.180921   2.480287   3.168952   1.031168   3.136084
                   11         12         13         14
    11  H    0.000000
    12  H    3.003909   0.000000
    13  H    2.281582   1.864140   0.000000
    14  H    2.379613   1.765673   1.625950   0.000000
 Stoichiometry    C4H10
 Framework group  C1[X(C4H10)]
 Deg. of freedom    36
 Full point group                 C1      NOp   1
 Largest Abelian subgroup         C1      NOp   1
 Largest concise Abelian subgroup C1      NOp   1
                         Standard orientation:                         
 ---------------------------------------------------------------------
 Center     Atomic      Atomic             Coordinates (Angstroms)
 Number     Number       Type             X           Y           Z
 ---------------------------------------------------------------------
      1          6           0       -1.918477    0.114852   -0.054378
      2          6           0       -0.562669   -0.496748    0.059389
      3          1           0       -2.736404   -0.688309   -0.128540
      4          1           0       -2.039543    0.762858   -0.966746
      5          1           0       -2.111901    0.662190    0.762226
      6          6           0        0.545700    0.533006    0.088842
      7          1           0       -0.419192   -1.079057   -0.753232
      8          1           0       -0.485451   -1.162831    0.955646
      9          6           0        1.925968   -0.127004   -0.075239
     10          1           0        0.505113    1.251048    0.996928
     11          1           0        0.474311    1.078630   -0.683693
     12          1           0        2.187510   -0.869784    0.830278
     13          1           0        2.654890    0.609137   -0.203825
     14          1           0        2.027534   -0.708511   -0.920722
 ---------------------------------------------------------------------
 Rotational constants (GHZ):     23.5139354      3.7271220      3.4995835
 Leave Link  202 at Wed Aug 26 09:51:02 2020, MaxMem=  2097152000 cpu:         0.1
 (Enter /opt/cluster/programs/g09/g09_d.01/g09/l301.exe)
 Standard basis: def2QZVP (5D, 7F)
 Ernie: Thresh=  0.10000D-02 Tol=  0.10000D-05 Strict=F.
 There are   638 symmetry adapted cartesian basis functions of A   symmetry.
 There are   528 symmetry adapted basis functions of A   symmetry.
   528 basis functions,   748 primitive gaussians,   638 cartesian basis functions
    17 alpha electrons       17 beta electrons
       nuclear repulsion energy       132.3142477665 Hartrees.
 IExCor=  419 DFT=T Ex+Corr=B2PLYPD3 ExCW=0 ScaHFX=  0.530000
 ScaDFX=  0.470000  0.470000  0.730000  0.730000 ScalE2=  0.270000  0.270000
 IRadAn=      0 IRanWt=     -1 IRanGd=            0 ICorTp=0 IEmpDi=141
 NAtoms=   14 NActive=   14 NUniq=   14 SFac= 1.00D+00 NAtFMM=   60 NAOKFM=F Big=F
 Integral buffers will be    131072 words long.
 Regular integral format.
 Two-electron integral symmetry is turned on.
 R6Disp:  Grimme-D3(BJ) Dispersion energy=       -0.0064687644 Hartrees.
 Nuclear repulsion after empirical dispersion term =      132.3077790020 Hartrees.
 Leave Link  301 at Wed Aug 26 09:51:02 2020, MaxMem=  2097152000 cpu:         0.5
 (Enter /opt/cluster/programs/g09/g09_d.01/g09/l302.exe)
 NPDir=0 NMtPBC=     1 NCelOv=     1 NCel=       1 NClECP=     1 NCelD=      1
         NCelK=      1 NCelE2=     1 NClLst=     1 CellRange=     0.0.
 One-electron integrals computed using PRISM.
   1 Symmetry operations used in ECPInt.
 ECPInt:  NShTT=   14196 NPrTT=   30597 LenC2=   13883 LenP2D=   26065.
 LDataN:  DoStor=T MaxTD1= 8 Len=  415
 NBasis=   528 RedAO= T EigKep=  3.28D-05  NBF=   528
 NBsUse=   528 1.00D-06 EigRej= -1.00D+00 NBFU=   528
 Precomputing XC quadrature grid using
 IXCGrd= 4 IRadAn=           0 IRanWt=          -1 IRanGd=           0 AccXCQ= 0.00D+00.
 Generated NRdTot=       0 NPtTot=           0 NUsed=           0 NTot=          32
 NSgBfM=   638   638   638   638   638 MxSgAt=    14 MxSgA2=    14.
 Leave Link  302 at Wed Aug 26 09:51:02 2020, MaxMem=  2097152000 cpu:         4.7
 (Enter /opt/cluster/programs/g09/g09_d.01/g09/l303.exe)
 DipDrv:  MaxL=1.
 Leave Link  303 at Wed Aug 26 09:51:02 2020, MaxMem=  2097152000 cpu:         0.5
 (Enter /opt/cluster/programs/g09/g09_d.01/g09/l401.exe)
 ExpMin= 7.60D-02 ExpMax= 6.70D+04 ExpMxC= 6.47D+02 IAcc=2 IRadAn=         4 AccDes= 0.00D+00
 Harris functional with IExCor=  419 and IRadAn=       4 diagonalized for initial guess.
 HarFok:  IExCor=  419 AccDes= 0.00D+00 IRadAn=         4 IDoV= 1 UseB2=F ITyADJ=14
 ICtDFT=  3500011 ScaDFX=  1.000000  1.000000  1.000000  1.000000
 FoFCou: FMM=F IPFlag=           0 FMFlag=      100000 FMFlg1=           0
         NFxFlg=           0 DoJE=T BraDBF=F KetDBF=T FulRan=T
         wScrn=  0.000000 ICntrl=     500 IOpCl=  0 I1Cent=   200000004 NGrid=           0
         NMat0=    1 NMatS0=      1 NMatT0=    0 NMatD0=    1 NMtDS0=    0 NMtDT0=    0
 Petite list used in FoFCou.
 Harris En= -158.606543681446    
 JPrj=0 DoOrth=F DoCkMO=F.
 Leave Link  401 at Wed Aug 26 09:51:04 2020, MaxMem=  2097152000 cpu:        14.8
 (Enter /opt/cluster/programs/g09/g09_d.01/g09/l502.exe)
 Closed shell SCF:
 Using DIIS extrapolation, IDIIS=  1040.
 Integral symmetry usage will be decided dynamically.
 IVT=     1249338 IEndB=     1249338 NGot=  2097152000 MDV=  2096326985
 LenX=  2096326985 LenY=  2095919303
 Requested convergence on RMS density matrix=1.00D-08 within 128 cycles.
 Requested convergence on MAX density matrix=1.00D-06.
 Requested convergence on             energy=1.00D-06.
 No special actions if energy rises.
 Fock matrices will be formed incrementally for  20 cycles.
 Integral accuracy reduced to 1.0D-05 until final iterations.

 Cycle   1  Pass 0  IDiag  1:
 FoFJK:  IHMeth= 1 ICntrl=       0 DoSepK=F KAlg= 0 I1Cent=   0 FoldK=F
 IRaf= 940000000 NMat=   1 IRICut=       1 DoRegI=T DoRafI=F ISym2E= 0.
 FoFCou: FMM=F IPFlag=           0 FMFlag=      100000 FMFlg1=           0
         NFxFlg=           0 DoJE=F BraDBF=F KetDBF=F FulRan=T
         wScrn=  0.000000 ICntrl=       0 IOpCl=  0 I1Cent=           0 NGrid=           0
         NMat0=    1 NMatS0=      1 NMatT0=    0 NMatD0=    1 NMtDS0=    0 NMtDT0=    0
 Symmetry not used in FoFCou.
 E= -157.803467526304    
 DIIS: error= 2.68D-02 at cycle   1 NSaved=   1.
 NSaved= 1 IEnMin= 1 EnMin= -157.803467526304     IErMin= 1 ErrMin= 2.68D-02
 ErrMax= 2.68D-02  0.00D+00 EMaxC= 1.00D-01 BMatC= 3.57D-01 BMatP= 3.57D-01
 IDIUse=3 WtCom= 7.32D-01 WtEn= 2.68D-01
 Coeff-Com:  0.100D+01
 Coeff-En:   0.100D+01
 Coeff:      0.100D+01
 Gap=     0.385 Goal=   None    Shift=    0.000
 GapD=    0.385 DampG=1.000 DampE=0.500 DampFc=0.5000 IDamp=-1.
 Damping current iteration by 5.00D-01
 RMSDP=9.86D-04 MaxDP=5.23D-02              OVMax= 1.83D-01

 Cycle   2  Pass 0  IDiag  1:
 RMSU=  4.70D-04    CP:  9.50D-01
 E= -157.949751209987     Delta-E=       -0.146283683683 Rises=F Damp=T
 DIIS: error= 9.50D-03 at cycle   2 NSaved=   2.
 NSaved= 2 IEnMin= 2 EnMin= -157.949751209987     IErMin= 2 ErrMin= 9.50D-03
 ErrMax= 9.50D-03  0.00D+00 EMaxC= 1.00D-01 BMatC= 3.29D-02 BMatP= 3.57D-01
 IDIUse=3 WtCom= 9.05D-01 WtEn= 9.50D-02
 Coeff-Com: -0.187D+00 0.119D+01
 Coeff-En:   0.000D+00 0.100D+01
 Coeff:     -0.169D+00 0.117D+01
 Gap=     0.457 Goal=   None    Shift=    0.000
 RMSDP=2.51D-04 MaxDP=1.27D-02 DE=-1.46D-01 OVMax= 9.92D-02

 Cycle   3  Pass 0  IDiag  1:
 RMSU=  2.38D-04    CP:  9.36D-01  8.56D-01
 E= -158.084108227407     Delta-E=       -0.134357017420 Rises=F Damp=F
 DIIS: error= 3.60D-03 at cycle   3 NSaved=   3.
 NSaved= 3 IEnMin= 3 EnMin= -158.084108227407     IErMin= 3 ErrMin= 3.60D-03
 ErrMax= 3.60D-03  0.00D+00 EMaxC= 1.00D-01 BMatC= 2.56D-03 BMatP= 3.29D-02
 IDIUse=3 WtCom= 9.64D-01 WtEn= 3.60D-02
 Coeff-Com: -0.935D-01 0.197D+00 0.897D+00
 Coeff-En:   0.000D+00 0.000D+00 0.100D+01
 Coeff:     -0.901D-01 0.190D+00 0.901D+00
 Gap=     0.432 Goal=   None    Shift=    0.000
 RMSDP=5.64D-05 MaxDP=3.92D-03 DE=-1.34D-01 OVMax= 1.14D-02

 Cycle   4  Pass 0  IDiag  1:
 RMSU=  4.67D-05    CP:  9.32D-01  9.20D-01  9.99D-01
 E= -158.086540651705     Delta-E=       -0.002432424298 Rises=F Damp=F
 DIIS: error= 8.92D-04 at cycle   4 NSaved=   4.
 NSaved= 4 IEnMin= 4 EnMin= -158.086540651705     IErMin= 4 ErrMin= 8.92D-04
 ErrMax= 8.92D-04  0.00D+00 EMaxC= 1.00D-01 BMatC= 1.75D-04 BMatP= 2.56D-03
 IDIUse=3 WtCom= 9.91D-01 WtEn= 8.92D-03
 Coeff-Com: -0.245D-01 0.359D-01 0.292D+00 0.696D+00
 Coeff-En:   0.000D+00 0.000D+00 0.000D+00 0.100D+01
 Coeff:     -0.242D-01 0.356D-01 0.290D+00 0.699D+00
 Gap=     0.432 Goal=   None    Shift=    0.000
 RMSDP=1.59D-05 MaxDP=1.04D-03 DE=-2.43D-03 OVMax= 3.23D-03

 Cycle   5  Pass 0  IDiag  1:
 RMSU=  1.22D-05    CP:  9.33D-01  9.08D-01  1.03D+00  9.02D-01
 E= -158.086697258751     Delta-E=       -0.000156607046 Rises=F Damp=F
 DIIS: error= 1.72D-04 at cycle   5 NSaved=   5.
 NSaved= 5 IEnMin= 5 EnMin= -158.086697258751     IErMin= 5 ErrMin= 1.72D-04
 ErrMax= 1.72D-04  0.00D+00 EMaxC= 1.00D-01 BMatC= 1.14D-05 BMatP= 1.75D-04
 IDIUse=3 WtCom= 9.98D-01 WtEn= 1.72D-03
 Coeff-Com: -0.204D-02-0.594D-03 0.418D-01 0.238D+00 0.723D+00
 Coeff-En:   0.000D+00 0.000D+00 0.000D+00 0.000D+00 0.100D+01
 Coeff:     -0.204D-02-0.593D-03 0.417D-01 0.237D+00 0.724D+00
 Gap=     0.432 Goal=   None    Shift=    0.000
 RMSDP=3.77D-06 MaxDP=2.25D-04 DE=-1.57D-04 OVMax= 6.98D-04

 Initial convergence to 1.0D-05 achieved.  Increase integral accuracy.
 Cycle   6  Pass 1  IDiag  1:
 E= -158.086703482663     Delta-E=       -0.000006223912 Rises=F Damp=F
 DIIS: error= 6.85D-05 at cycle   1 NSaved=   1.
 NSaved= 1 IEnMin= 1 EnMin= -158.086703482663     IErMin= 1 ErrMin= 6.85D-05
 ErrMax= 6.85D-05  0.00D+00 EMaxC= 1.00D-01 BMatC= 6.68D-07 BMatP= 6.68D-07
 IDIUse=1 WtCom= 1.00D+00 WtEn= 0.00D+00
 Coeff-Com:  0.100D+01
 Coeff:      0.100D+01
 Gap=     0.432 Goal=   None    Shift=    0.000
 RMSDP=3.77D-06 MaxDP=2.25D-04 DE=-6.22D-06 OVMax= 1.75D-04

 Cycle   7  Pass 1  IDiag  1:
 RMSU=  2.67D-05    CP:  1.00D+00
 E= -158.086703910133     Delta-E=       -0.000000427470 Rises=F Damp=F
 DIIS: error= 6.94D-06 at cycle   2 NSaved=   2.
 NSaved= 2 IEnMin= 2 EnMin= -158.086703910133     IErMin= 2 ErrMin= 6.94D-06
 ErrMax= 6.94D-06  0.00D+00 EMaxC= 1.00D-01 BMatC= 2.29D-08 BMatP= 6.68D-07
 IDIUse=1 WtCom= 1.00D+00 WtEn= 0.00D+00
 Coeff-Com:  0.347D-01 0.965D+00
 Coeff:      0.347D-01 0.965D+00
 Gap=     0.432 Goal=   None    Shift=    0.000
 RMSDP=8.94D-07 MaxDP=5.98D-05 DE=-4.27D-07 OVMax= 5.47D-05

 Cycle   8  Pass 1  IDiag  1:
 RMSU=  3.62D-07    CP:  1.00D+00  1.03D+00
 E= -158.086703927332     Delta-E=       -0.000000017199 Rises=F Damp=F
 DIIS: error= 4.27D-06 at cycle   3 NSaved=   3.
 NSaved= 3 IEnMin= 3 EnMin= -158.086703927332     IErMin= 3 ErrMin= 4.27D-06
 ErrMax= 4.27D-06  0.00D+00 EMaxC= 1.00D-01 BMatC= 1.06D-08 BMatP= 2.29D-08
 IDIUse=1 WtCom= 1.00D+00 WtEn= 0.00D+00
 Coeff-Com: -0.189D-01 0.395D+00 0.624D+00
 Coeff:     -0.189D-01 0.395D+00 0.624D+00
 Gap=     0.432 Goal=   None    Shift=    0.000
 RMSDP=1.27D-07 MaxDP=7.19D-06 DE=-1.72D-08 OVMax= 2.40D-05

 Cycle   9  Pass 1  IDiag  1:
 RMSU=  1.08D-07    CP:  1.00D+00  1.03D+00  9.64D-01
 E= -158.086703937324     Delta-E=       -0.000000009991 Rises=F Damp=F
 DIIS: error= 8.50D-07 at cycle   4 NSaved=   4.
 NSaved= 4 IEnMin= 4 EnMin= -158.086703937324     IErMin= 4 ErrMin= 8.50D-07
 ErrMax= 8.50D-07  0.00D+00 EMaxC= 1.00D-01 BMatC= 1.93D-10 BMatP= 1.06D-08
 IDIUse=1 WtCom= 1.00D+00 WtEn= 0.00D+00
 Coeff-Com: -0.498D-02-0.926D-03 0.842D-01 0.922D+00
 Coeff:     -0.498D-02-0.926D-03 0.842D-01 0.922D+00
 Gap=     0.432 Goal=   None    Shift=    0.000
 RMSDP=3.06D-08 MaxDP=2.27D-06 DE=-9.99D-09 OVMax= 4.58D-06

 Cycle  10  Pass 1  IDiag  1:
 RMSU=  2.24D-08    CP:  1.00D+00  1.03D+00  1.01D+00  1.08D+00
 E= -158.086703937575     Delta-E=       -0.000000000251 Rises=F Damp=F
 DIIS: error= 2.21D-07 at cycle   5 NSaved=   5.
 NSaved= 5 IEnMin= 5 EnMin= -158.086703937575     IErMin= 5 ErrMin= 2.21D-07
 ErrMax= 2.21D-07  0.00D+00 EMaxC= 1.00D-01 BMatC= 1.51D-11 BMatP= 1.93D-10
 IDIUse=1 WtCom= 1.00D+00 WtEn= 0.00D+00
 Coeff-Com:  0.643D-03-0.332D-01-0.372D-01 0.185D+00 0.885D+00
 Coeff:      0.643D-03-0.332D-01-0.372D-01 0.185D+00 0.885D+00
 Gap=     0.432 Goal=   None    Shift=    0.000
 RMSDP=1.00D-08 MaxDP=5.82D-07 DE=-2.51D-10 OVMax= 1.54D-06

 Cycle  11  Pass 1  IDiag  1:
 RMSU=  6.58D-09    CP:  1.00D+00  1.03D+00  1.02D+00  1.13D+00  1.12D+00
 E= -158.086703937591     Delta-E=       -0.000000000016 Rises=F Damp=F
 DIIS: error= 4.01D-08 at cycle   6 NSaved=   6.
 NSaved= 6 IEnMin= 6 EnMin= -158.086703937591     IErMin= 6 ErrMin= 4.01D-08
 ErrMax= 4.01D-08  0.00D+00 EMaxC= 1.00D-01 BMatC= 8.10D-13 BMatP= 1.51D-11
 IDIUse=1 WtCom= 1.00D+00 WtEn= 0.00D+00
 Coeff-Com:  0.331D-03-0.112D-01-0.145D-01 0.445D-01 0.303D+00 0.677D+00
 Coeff:      0.331D-03-0.112D-01-0.145D-01 0.445D-01 0.303D+00 0.677D+00
 Gap=     0.432 Goal=   None    Shift=    0.000
 RMSDP=1.40D-09 MaxDP=6.63D-08 DE=-1.56D-11 OVMax= 2.02D-07

 SCF Done:  E(RB2PLYPD3) =  -158.086703938     A.U. after   11 cycles
            NFock= 11  Conv=0.14D-08     -V/T= 2.0010
 KE= 1.579233125254D+02 PE=-6.308022326060D+02 EE= 1.824844371409D+02
 Leave Link  502 at Wed Aug 26 09:57:31 2020, MaxMem=  2097152000 cpu:      3084.6
 (Enter /opt/cluster/programs/g09/g09_d.01/g09/l801.exe)
 DoSCS=T DFT=T ScalE2(SS,OS)=  0.270000  0.270000
 ExpMin= 7.60D-02 ExpMax= 6.70D+04 ExpMxC= 6.47D+02 IAcc=3 IRadAn=         5 AccDes= 0.00D+00
 HarFok:  IExCor=  205 AccDes= 0.00D+00 IRadAn=         5 IDoV=-2 UseB2=F ITyADJ=14
 ICtDFT= 12500011 ScaDFX=  1.000000  1.000000  1.000000  1.000000
 Largest valence mixing into a core orbital is  1.10D-04
 Largest core mixing into a valence orbital is  1.67D-05
 Range of M.O.s used for correlation:     5   528
 NBasis=   528 NAE=    17 NBE=    17 NFC=     4 NFV=     0
 NROrb=    524 NOA=    13 NOB=    13 NVA=   511 NVB=   511

 **** Warning!!: The largest alpha MO coefficient is  0.40141539D+02

 Leave Link  801 at Wed Aug 26 09:57:32 2020, MaxMem=  2097152000 cpu:         1.0
 (Enter /opt/cluster/programs/g09/g09_d.01/g09/l906.exe)
 DoSCS=T DFT=T ScalE2(SS,OS)=  0.270000  0.270000
 FulOut=F Deriv=F AODrv=F NAtomX=    14
   MMem=         463  MDisk=          13 MDiskD=          13
  W3Min=     4238234 MinDsk=     6904766 NBas6D=         638
 NBas2D=      205689    NTT=      203841    LW2=     4508827
    MDV=  2095897262 MDiskM=        7293 NBas2p=      190142
 Fully direct method using O(OVN) memory.
 IMap=   1   2   3   4   5   6   7   8   9  10  11  12  13
 JobTyp=1 Pass  1:  I=   1 to  13 NPSUse=  8 ParTrn=T ParDer=T DoDerP=F.
 Spin components of T(2) and E(2):
     alpha-alpha T2 =       0.3927667957D-01 E2=     -0.2609212063D-01
     alpha-beta  T2 =       0.2571451997D+00 E2=     -0.1931422556D+00
     beta-beta   T2 =       0.3927667957D-01 E2=     -0.2609212063D-01
 The integrals were generated   1 times.
 E2(B2PLYPD3) =    -0.2453264968D+00 E(B2PLYPD3) =    -0.15833203043442D+03
 Leave Link  906 at Wed Aug 26 10:02:00 2020, MaxMem=  2097152000 cpu:      2141.1
 (Enter /opt/cluster/programs/g09/g09_d.01/g09/l601.exe)
 Copying SCF densities to generalized density rwf, IOpCl= 0 IROHF=0.

 **********************************************************************

            Population analysis using the SCF density.

 **********************************************************************

 Orbital symmetries:
       Occupied  (A) (A) (A) (A) (A) (A) (A) (A) (A) (A) (A) (A)
                 (A) (A) (A) (A) (A)
       Virtual   (A) (A) (A) (A) (A) (A) (A) (A) (A) (A) (A) (A)
                 (A) (A) (A) (A) (A) (A) (A) (A) (A) (A) (A) (A)
                 (A) (A) (A) (A) (A) (A) (A) (A) (A) (A) (A) (A)
                 (A) (A) (A) (A) (A) (A) (A) (A) (A) (A) (A) (A)
                 (A) (A) (A) (A) (A) (A) (A) (A) (A) (A) (A) (A)
                 (A) (A) (A) (A) (A) (A) (A) (A) (A) (A) (A) (A)
                 (A) (A) (A) (A) (A) (A) (A) (A) (A) (A) (A) (A)
                 (A) (A) (A) (A) (A) (A) (A) (A) (A) (A) (A) (A)
                 (A) (A) (A) (A) (A) (A) (A) (A) (A) (A) (A) (A)
                 (A) (A) (A) (A) (A) (A) (A) (A) (A) (A) (A) (A)
                 (A) (A) (A) (A) (A) (A) (A) (A) (A) (A) (A) (A)
                 (A) (A) (A) (A) (A) (A) (A) (A) (A) (A) (A) (A)
                 (A) (A) (A) (A) (A) (A) (A) (A) (A) (A) (A) (A)
                 (A) (A) (A) (A) (A) (A) (A) (A) (A) (A) (A) (A)
                 (A) (A) (A) (A) (A) (A) (A) (A) (A) (A) (A) (A)
                 (A) (A) (A) (A) (A) (A) (A) (A) (A) (A) (A) (A)
                 (A) (A) (A) (A) (A) (A) (A) (A) (A) (A) (A) (A)
                 (A) (A) (A) (A) (A) (A) (A) (A) (A) (A) (A) (A)
                 (A) (A) (A) (A) (A) (A) (A) (A) (A) (A) (A) (A)
                 (A) (A) (A) (A) (A) (A) (A) (A) (A) (A) (A) (A)
                 (A) (A) (A) (A) (A) (A) (A) (A) (A) (A) (A) (A)
                 (A) (A) (A) (A) (A) (A) (A) (A) (A) (A) (A) (A)
                 (A) (A) (A) (A) (A) (A) (A) (A) (A) (A) (A) (A)
                 (A) (A) (A) (A) (A) (A) (A) (A) (A) (A) (A) (A)
                 (A) (A) (A) (A) (A) (A) (A) (A) (A) (A) (A) (A)
                 (A) (A) (A) (A) (A) (A) (A) (A) (A) (A) (A) (A)
                 (A) (A) (A) (A) (A) (A) (A) (A) (A) (A) (A) (A)
                 (A) (A) (A) (A) (A) (A) (A) (A) (A) (A) (A) (A)
                 (A) (A) (A) (A) (A) (A) (A) (A) (A) (A) (A) (A)
                 (A) (A) (A) (A) (A) (A) (A) (A) (A) (A) (A) (A)
                 (A) (A) (A) (A) (A) (A) (A) (A) (A) (A) (A) (A)
                 (A) (A) (A) (A) (A) (A) (A) (A) (A) (A) (A) (A)
                 (A) (A) (A) (A) (A) (A) (A) (A) (A) (A) (A) (A)
                 (A) (A) (A) (A) (A) (A) (A) (A) (A) (A) (A) (A)
                 (A) (A) (A) (A) (A) (A) (A) (A) (A) (A) (A) (A)
                 (A) (A) (A) (A) (A) (A) (A) (A) (A) (A) (A) (A)
                 (A) (A) (A) (A) (A) (A) (A) (A) (A) (A) (A) (A)
                 (A) (A) (A) (A) (A) (A) (A) (A) (A) (A) (A) (A)
                 (A) (A) (A) (A) (A) (A) (A) (A) (A) (A) (A) (A)
                 (A) (A) (A) (A) (A) (A) (A) (A) (A) (A) (A) (A)
                 (A) (A) (A) (A) (A) (A) (A) (A) (A) (A) (A) (A)
                 (A) (A) (A) (A) (A) (A) (A) (A) (A) (A) (A) (A)
                 (A) (A) (A) (A) (A) (A) (A)
 The electronic state is 1-A.
 Alpha  occ. eigenvalues --  -10.59527 -10.59294 -10.59263 -10.59173  -0.92133
 Alpha  occ. eigenvalues --   -0.83757  -0.73202  -0.67928  -0.54952  -0.49852
 Alpha  occ. eigenvalues --   -0.48978  -0.47298  -0.43507  -0.41167  -0.39435
 Alpha  occ. eigenvalues --   -0.38400  -0.37329
 Alpha virt. eigenvalues --    0.05875   0.06899   0.08332   0.08867   0.11138
 Alpha virt. eigenvalues --    0.12034   0.12961   0.13850   0.14937   0.15282
 Alpha virt. eigenvalues --    0.15855   0.16590   0.19810   0.20450   0.22217
 Alpha virt. eigenvalues --    0.22752   0.23622   0.25835   0.26145   0.29348
 Alpha virt. eigenvalues --    0.29864   0.32173   0.33256   0.33675   0.36575
 Alpha virt. eigenvalues --    0.37080   0.38044   0.38881   0.39359   0.39892
 Alpha virt. eigenvalues --    0.41050   0.41776   0.42533   0.44123   0.45094
 Alpha virt. eigenvalues --    0.50279   0.53463   0.55967   0.57608   0.58733
 Alpha virt. eigenvalues --    0.59851   0.62020   0.63114   0.64817   0.65987
 Alpha virt. eigenvalues --    0.67682   0.68763   0.70353   0.71105   0.71573
 Alpha virt. eigenvalues --    0.74844   0.76053   0.77507   0.78465   0.79058
 Alpha virt. eigenvalues --    0.82404   0.83801   0.85642   0.86714   0.87544
 Alpha virt. eigenvalues --    0.87941   0.88812   0.89444   0.89762   0.91870
 Alpha virt. eigenvalues --    0.92503   0.93159   0.97248   0.97966   0.98919
 Alpha virt. eigenvalues --    0.99599   0.99723   1.00919   1.03554   1.03560
 Alpha virt. eigenvalues --    1.05165   1.06042   1.07453   1.08476   1.09662
 Alpha virt. eigenvalues --    1.11103   1.13263   1.15381   1.16425   1.19945
 Alpha virt. eigenvalues --    1.22628   1.23640   1.25777   1.26846   1.31123
 Alpha virt. eigenvalues --    1.32317   1.33281   1.33963   1.35267   1.37586
 Alpha virt. eigenvalues --    1.38566   1.42433   1.43793   1.44866   1.46940
 Alpha virt. eigenvalues --    1.50301   1.53238   1.53481   1.56772   1.58047
 Alpha virt. eigenvalues --    1.62977   1.64986   1.66019   1.68277   1.71989
 Alpha virt. eigenvalues --    1.76222   1.85071   1.88349   1.89690   1.91616
 Alpha virt. eigenvalues --    1.92049   1.94092   1.96669   1.97990   1.99692
 Alpha virt. eigenvalues --    2.00987   2.01752   2.06127   2.07696   2.08322
 Alpha virt. eigenvalues --    2.09402   2.10098   2.10612   2.11312   2.12731
 Alpha virt. eigenvalues --    2.12882   2.13312   2.14443   2.15401   2.17015
 Alpha virt. eigenvalues --    2.18491   2.19799   2.20803   2.21397   2.24034
 Alpha virt. eigenvalues --    2.24241   2.25516   2.27519   2.29058   2.31159
 Alpha virt. eigenvalues --    2.34136   2.35626   2.35972   2.37400   2.38081
 Alpha virt. eigenvalues --    2.43737   2.44493   2.46128   2.47675   2.48485
 Alpha virt. eigenvalues --    2.50169   2.50923   2.54060   2.57225   2.59668
 Alpha virt. eigenvalues --    2.60529   2.60899   2.61871   2.62728   2.65028
 Alpha virt. eigenvalues --    2.66079   2.67677   2.69819   2.71072   2.73107
 Alpha virt. eigenvalues --    2.74729   2.76640   2.79647   2.81089   2.81210
 Alpha virt. eigenvalues --    2.83797   2.85503   2.86174   2.90147   2.91148
 Alpha virt. eigenvalues --    2.93060   2.94875   2.95068   2.97679   2.98587
 Alpha virt. eigenvalues --    3.00500   3.01391   3.02369   3.03317   3.04988
 Alpha virt. eigenvalues --    3.05862   3.07945   3.12204   3.12460   3.13438
 Alpha virt. eigenvalues --    3.14568   3.15926   3.16442   3.20476   3.22514
 Alpha virt. eigenvalues --    3.23784   3.25214   3.26938   3.27856   3.31434
 Alpha virt. eigenvalues --    3.34611   3.37172   3.37885   3.42124   3.43285
 Alpha virt. eigenvalues --    3.45086   3.48887   3.50705   3.52716   3.53529
 Alpha virt. eigenvalues --    3.55583   3.56523   3.61149   3.62902   3.64940
 Alpha virt. eigenvalues --    3.66170   3.69842   3.75420   3.76286   3.82254
 Alpha virt. eigenvalues --    3.85349   3.85574   3.88112   3.92968   3.94285
 Alpha virt. eigenvalues --    3.94888   3.95639   3.98582   4.01589   4.05091
 Alpha virt. eigenvalues --    4.06016   4.07501   4.10729   4.15147   4.18952
 Alpha virt. eigenvalues --    4.20184   4.21092   4.25077   4.26826   4.28356
 Alpha virt. eigenvalues --    4.30798   4.33933   4.39552   4.42806   4.46204
 Alpha virt. eigenvalues --    4.50976   4.52699   4.83758   4.90551   4.93735
 Alpha virt. eigenvalues --    5.15515   5.24892   5.27450   5.34074   5.36035
 Alpha virt. eigenvalues --    5.47426   5.51391   5.51974   5.58107   5.59446
 Alpha virt. eigenvalues --    5.61434   5.64180   5.65429   5.68794   5.70964
 Alpha virt. eigenvalues --    5.71712   5.72349   5.76406   5.86153   5.87571
 Alpha virt. eigenvalues --    5.88005   5.90809   5.92243   5.94171   5.95152
 Alpha virt. eigenvalues --    5.96711   5.98709   6.00039   6.01898   6.02610
 Alpha virt. eigenvalues --    6.05160   6.05915   6.07171   6.08019   6.11071
 Alpha virt. eigenvalues --    6.11588   6.13094   6.13824   6.15662   6.16307
 Alpha virt. eigenvalues --    6.18798   6.20029   6.21938   6.23697   6.24254
 Alpha virt. eigenvalues --    6.26531   6.27573   6.31566   6.33080   6.34295
 Alpha virt. eigenvalues --    6.35748   6.36775   6.38527   6.39756   6.41312
 Alpha virt. eigenvalues --    6.42477   6.44637   6.47764   6.48588   6.49340
 Alpha virt. eigenvalues --    6.52554   6.53688   6.55155   6.61001   6.62197
 Alpha virt. eigenvalues --    6.64138   6.64807   6.70240   6.70734   6.72989
 Alpha virt. eigenvalues --    6.73505   6.75407   6.78199   6.81755   6.84257
 Alpha virt. eigenvalues --    6.86597   6.87779   6.88766   6.91736   6.94517
 Alpha virt. eigenvalues --    6.95637   6.97312   6.99623   7.00453   7.01761
 Alpha virt. eigenvalues --    7.02762   7.05954   7.07049   7.12071   7.13310
 Alpha virt. eigenvalues --    7.15013   7.16019   7.17458   7.20533   7.21181
 Alpha virt. eigenvalues --    7.25194   7.28268   7.29668   7.30998   7.34467
 Alpha virt. eigenvalues --    7.38607   7.38922   7.40935   7.46272   7.48775
 Alpha virt. eigenvalues --    7.51732   7.56325   7.58900   7.60006   7.62290
 Alpha virt. eigenvalues --    7.64490   7.65397   7.68294   7.70852   7.71784
 Alpha virt. eigenvalues --    7.73958   7.74539   7.76552   7.78183   7.81236
 Alpha virt. eigenvalues --    7.82695   7.83342   7.84346   7.86566   7.87566
 Alpha virt. eigenvalues --    7.89376   7.90333   7.91987   7.94209   7.94590
 Alpha virt. eigenvalues --    7.97269   7.97810   7.99102   8.00722   8.03026
 Alpha virt. eigenvalues --    8.03609   8.05925   8.07287   8.10740   8.13192
 Alpha virt. eigenvalues --    8.13565   8.15650   8.17026   8.19072   8.22719
 Alpha virt. eigenvalues --    8.26164   8.27858   8.30280   8.30609   8.34705
 Alpha virt. eigenvalues --    8.35791   8.39399   8.40426   8.43280   8.44650
 Alpha virt. eigenvalues --    8.47931   8.50304   8.51788   8.52424   8.56161
 Alpha virt. eigenvalues --    8.56531   8.57351   8.59799   8.62757   8.63034
 Alpha virt. eigenvalues --    8.64681   8.65521   8.66231   8.67030   8.70439
 Alpha virt. eigenvalues --    8.71505   8.72343   8.75238   8.77092   8.80298
 Alpha virt. eigenvalues --    8.80909   8.84029   8.85283   8.89465   8.91461
 Alpha virt. eigenvalues --    8.96142   8.98856   8.99718   9.03617   9.05145
 Alpha virt. eigenvalues --    9.07947   9.08101   9.10763   9.13282   9.14230
 Alpha virt. eigenvalues --    9.15984   9.19431   9.20250   9.24806   9.27638
 Alpha virt. eigenvalues --    9.30709   9.32146   9.33137   9.36427   9.39997
 Alpha virt. eigenvalues --    9.42617   9.45306   9.50434   9.55384   9.58008
 Alpha virt. eigenvalues --    9.62706   9.69942   9.74872   9.77815   9.81102
 Alpha virt. eigenvalues --    9.82017   9.87385   9.87537   9.94251  10.00391
 Alpha virt. eigenvalues --   10.01839  10.06224  10.11090  10.14177  10.16723
 Alpha virt. eigenvalues --   10.17323  10.24795  10.31076  10.39470  10.42583
 Alpha virt. eigenvalues --   10.53151  10.58466  10.61787  10.71998  10.79093
 Alpha virt. eigenvalues --   10.82060  10.95582  10.97892  11.01607  11.07041
 Alpha virt. eigenvalues --   11.14975  11.26382  11.35130  11.48709  11.61096
 Alpha virt. eigenvalues --   11.82804  11.95862  12.09333  12.30774  12.74580
 Alpha virt. eigenvalues --   13.12015  13.17771  13.27713  29.44095  29.47008
 Alpha virt. eigenvalues --   29.58800  29.61775 149.10862 149.14200 149.28169
 Alpha virt. eigenvalues --  149.32946
          Condensed to atoms (all electrons):
               1          2          3          4          5          6
     1  C    4.687633   0.380089   0.407021   0.406927   0.408906  -0.056938
     2  C    0.380089   4.759184  -0.044416  -0.041902  -0.050793   0.378473
     3  H    0.407021  -0.044416   0.676034  -0.033957  -0.032808   0.010927
     4  H    0.406927  -0.041902  -0.033957   0.676836  -0.038683  -0.007613
     5  H    0.408906  -0.050793  -0.032808  -0.038683   0.654280  -0.006914
     6  C   -0.056938   0.378473   0.010927  -0.007613  -0.006914   4.776337
     7  H   -0.049279   0.405594  -0.006280  -0.006180   0.011707  -0.047980
     8  H   -0.042585   0.404622  -0.005393   0.009462  -0.006277  -0.048748
     9  C    0.008904  -0.054986  -0.000886   0.000225  -0.000253   0.381757
    10  H   -0.002748  -0.042703  -0.000237  -0.000131   0.003594   0.403500
    11  H   -0.007102  -0.042853   0.000090   0.003962  -0.000466   0.413802
    12  H   -0.000066  -0.002968   0.000015  -0.000043   0.000062  -0.041994
    13  H   -0.000900   0.010118   0.000055  -0.000016   0.000012  -0.048390
    14  H    0.000162  -0.008299  -0.000027   0.000106  -0.000050  -0.035744
               7          8          9         10         11         12
     1  C   -0.049279  -0.042585   0.008904  -0.002748  -0.007102  -0.000066
     2  C    0.405594   0.404622  -0.054986  -0.042703  -0.042853  -0.002968
     3  H   -0.006280  -0.005393  -0.000886  -0.000237   0.000090   0.000015
     4  H   -0.006180   0.009462   0.000225  -0.000131   0.003962  -0.000043
     5  H    0.011707  -0.006277  -0.000253   0.003594  -0.000466   0.000062
     6  C   -0.047980  -0.048748   0.381757   0.403500   0.413802  -0.041994
     7  H    0.694059  -0.048449  -0.009542   0.009990  -0.009475   0.000258
     8  H   -0.048449   0.707617  -0.004686  -0.005515   0.011268   0.003266
     9  C   -0.009542  -0.004686   4.685539  -0.035500  -0.050394   0.396405
    10  H    0.009990  -0.005515  -0.035500   0.704395  -0.050773  -0.004118
    11  H   -0.009475   0.011268  -0.050394  -0.050773   0.665700   0.009761
    12  H    0.000258   0.003266   0.396405  -0.004118   0.009761   0.674588
    13  H    0.000256  -0.000148   0.407134  -0.004718  -0.004282  -0.022416
    14  H    0.002894  -0.000021   0.409266   0.008115  -0.007439  -0.037406
              13         14
     1  C   -0.000900   0.000162
     2  C    0.010118  -0.008299
     3  H    0.000055  -0.000027
     4  H   -0.000016   0.000106
     5  H    0.000012  -0.000050
     6  C   -0.048390  -0.035744
     7  H    0.000256   0.002894
     8  H   -0.000148  -0.000021
     9  C    0.407134   0.409266
    10  H   -0.004718   0.008115
    11  H   -0.004282  -0.007439
    12  H   -0.022416  -0.037406
    13  H    0.666724  -0.048462
    14  H   -0.048462   0.675568
 Mulliken charges:
               1
     1  C   -0.140023
     2  C   -0.049162
     3  H    0.029861
     4  H    0.031008
     5  H    0.057683
     6  C   -0.070477
     7  H    0.052428
     8  H    0.025586
     9  C   -0.132983
    10  H    0.016850
    11  H    0.068203
    12  H    0.024658
    13  H    0.045032
    14  H    0.041337
 Sum of Mulliken charges =   0.00000
 Mulliken charges with hydrogens summed into heavy atoms:
               1
     1  C   -0.021472
     2  C    0.028852
     6  C    0.014576
     9  C   -0.021956
 Electronic spatial extent (au):  <R**2>=            417.3247
 Charge=              0.0000 electrons
 Dipole moment (field-independent basis, Debye):
    X=              0.0163    Y=              0.1103    Z=             -0.2956  Tot=              0.3160
 Quadrupole moment (field-independent basis, Debye-Ang):
   XX=            -29.8952   YY=            -28.5473   ZZ=            -27.9691
   XY=              0.3602   XZ=             -0.6583   YZ=             -0.0442
 Traceless Quadrupole moment (field-independent basis, Debye-Ang):
   XX=             -1.0913   YY=              0.2566   ZZ=              0.8348
   XY=              0.3602   XZ=             -0.6583   YZ=             -0.0442
 Octapole moment (field-independent basis, Debye-Ang**2):
  XXX=              0.1628  YYY=              0.5056  ZZZ=             -0.8725  XYY=              0.2667
  XXY=              0.3879  XXZ=             -1.5140  XZZ=             -0.0853  YZZ=              0.2018
  YYZ=             -0.2159  XYZ=             -0.2892
 Hexadecapole moment (field-independent basis, Debye-Ang**3):
 XXXX=           -459.0654 YYYY=            -90.9754 ZZZZ=            -58.7731 XXXY=              5.9078
 XXXZ=             -5.8247 YYYX=              1.8207 YYYZ=              0.2568 ZZZX=             -2.1026
 ZZZY=              0.1401 XXYY=            -87.1211 XXZZ=            -84.0941 YYZZ=            -22.7038
 XXYZ=             -0.3101 YYXZ=             -0.3714 ZZXY=             -1.4928
 N-N= 1.323077790020D+02 E-N=-6.308022239010D+02  KE= 1.579233125254D+02
 Leave Link  601 at Wed Aug 26 10:02:03 2020, MaxMem=  2097152000 cpu:         1.2
 (Enter /opt/cluster/programs/g09/g09_d.01/g09/l9999.exe)
 1\1\GINC-NODE29\SP\RB2PLYPD3-FC\def2QZVP\C4H10\BOITTIER\26-Aug-2020\0\
 \#p B2PLYPD3/Def2QZVP\\butane_opt\\0,1\C,0,-3.914237,0.253265,-0.04236
 7\C,0,-2.697121,-0.597697,0.09801\H,0,-4.868736,-0.384053,-0.090624\H,
 0,-3.914366,0.879372,-0.977768\H,0,-3.99872,0.856091,0.753433\C,0,-1.4
 14926,0.205862,0.094502\H,0,-2.668252,-1.225321,-0.692734\H,0,-2.74350
 7,-1.233886,1.017803\C,0,-0.183786,-0.707165,-0.040969\H,0,-1.316925,0
 .950803,0.976155\H,0,-1.385044,0.727152,-0.697316\H,0,-0.063512,-1.452
 933,0.891474\H,0,0.670041,-0.126169,-0.193245\H,0,-0.196038,-1.327305,
 -0.864731\\Version=ES64L-G09RevD.01\State=1-A\HF=-158.0867039\MP2=-158
 .3320304\RMSD=1.402e-09\PG=C01 [X(C4H10)]\\@


 PATIENCE IS THE ABILITY TO IDLE YOUR MOTOR WHEN
 YOU FEEL LIKE STRIPPING YOUR GEARS.
 Job cpu time:       0 days  1 hours 27 minutes 29.7 seconds.
 File lengths (MBytes):  RWF=    152 Int=      0 D2E=      0 Chk=     14 Scr=      1
 Normal termination of Gaussian 09 at Wed Aug 26 10:02:03 2020.
