 Entering Gaussian System, Link 0=/opt/cluster/programs/g09/g09_d.01/g09//g09
 Input=/home/boittier/MDCM/nms_sampling/butane_geom.xyz.dir/energies/butane_opt_1023_energy.com
 Output=/scratch/boittier/butane_opt_1023_energy/butane_opt_1023_energy.out
 Initial command:
 /opt/cluster/programs/g09/g09_d.01/g09/l1.exe "/scratch/boittier/butane_opt_1023_energy/Gau-27322.inp" -scrdir="/scratch/boittier/butane_opt_1023_energy/"
 Entering Link 1 = /opt/cluster/programs/g09/g09_d.01/g09/l1.exe PID=     27323.
  
 Copyright (c) 1988,1990,1992,1993,1995,1998,2003,2009,2013,
            Gaussian, Inc.  All Rights Reserved.
  
 This is part of the Gaussian(R) 09 program.  It is based on
 the Gaussian(R) 03 system (copyright 2003, Gaussian, Inc.),
 the Gaussian(R) 98 system (copyright 1998, Gaussian, Inc.),
 the Gaussian(R) 94 system (copyright 1995, Gaussian, Inc.),
 the Gaussian 92(TM) system (copyright 1992, Gaussian, Inc.),
 the Gaussian 90(TM) system (copyright 1990, Gaussian, Inc.),
 the Gaussian 88(TM) system (copyright 1988, Gaussian, Inc.),
 the Gaussian 86(TM) system (copyright 1986, Carnegie Mellon
 University), and the Gaussian 82(TM) system (copyright 1983,
 Carnegie Mellon University). Gaussian is a federally registered
 trademark of Gaussian, Inc.
  
 This software contains proprietary and confidential information,
 including trade secrets, belonging to Gaussian, Inc.
  
 This software is provided under written license and may be
 used, copied, transmitted, or stored only in accord with that
 written license.
  
 The following legend is applicable only to US Government
 contracts under FAR:
  
                    RESTRICTED RIGHTS LEGEND
  
 Use, reproduction and disclosure by the US Government is
 subject to restrictions as set forth in subparagraphs (a)
 and (c) of the Commercial Computer Software - Restricted
 Rights clause in FAR 52.227-19.
  
 Gaussian, Inc.
 340 Quinnipiac St., Bldg. 40, Wallingford CT 06492
  
  
 ---------------------------------------------------------------
 Warning -- This program may not be used in any manner that
 competes with the business of Gaussian, Inc. or will provide
 assistance to any competitor of Gaussian, Inc.  The licensee
 of this program is prohibited from giving any competitor of
 Gaussian, Inc. access to this program.  By using this program,
 the user acknowledges that Gaussian, Inc. is engaged in the
 business of creating and licensing software in the field of
 computational chemistry and represents and warrants to the
 licensee that it is not a competitor of Gaussian, Inc. and that
 it will not use this program in any manner prohibited above.
 ---------------------------------------------------------------
  

 Cite this work as:
 Gaussian 09, Revision D.01,
 M. J. Frisch, G. W. Trucks, H. B. Schlegel, G. E. Scuseria, 
 M. A. Robb, J. R. Cheeseman, G. Scalmani, V. Barone, B. Mennucci, 
 G. A. Petersson, H. Nakatsuji, M. Caricato, X. Li, H. P. Hratchian, 
 A. F. Izmaylov, J. Bloino, G. Zheng, J. L. Sonnenberg, M. Hada, 
 M. Ehara, K. Toyota, R. Fukuda, J. Hasegawa, M. Ishida, T. Nakajima, 
 Y. Honda, O. Kitao, H. Nakai, T. Vreven, J. A. Montgomery, Jr., 
 J. E. Peralta, F. Ogliaro, M. Bearpark, J. J. Heyd, E. Brothers, 
 K. N. Kudin, V. N. Staroverov, T. Keith, R. Kobayashi, J. Normand, 
 K. Raghavachari, A. Rendell, J. C. Burant, S. S. Iyengar, J. Tomasi, 
 M. Cossi, N. Rega, J. M. Millam, M. Klene, J. E. Knox, J. B. Cross, 
 V. Bakken, C. Adamo, J. Jaramillo, R. Gomperts, R. E. Stratmann, 
 O. Yazyev, A. J. Austin, R. Cammi, C. Pomelli, J. W. Ochterski, 
 R. L. Martin, K. Morokuma, V. G. Zakrzewski, G. A. Voth, 
 P. Salvador, J. J. Dannenberg, S. Dapprich, A. D. Daniels, 
 O. Farkas, J. B. Foresman, J. V. Ortiz, J. Cioslowski, 
 and D. J. Fox, Gaussian, Inc., Wallingford CT, 2013.
 
 ******************************************
 Gaussian 09:  ES64L-G09RevD.01 24-Apr-2013
                26-Aug-2020 
 ******************************************
 %chk=/home/boittier/MDCM/nms_sampling/butane_geom.xyz.dir/butane_opt_1023.chk
 %nproc=8
 Will use up to    8 processors via shared memory.
 %mem=16000MB
 --------------------
 #p B2PLYPD3/Def2QZVP
 --------------------
 1/38=1/1;
 2/12=2,17=6,18=5,40=1/2;
 3/5=45,7=101,11=9,16=1,25=1,30=1,74=-60/1,2,3;
 4//1;
 5/5=2,38=5/2;
 8/10=1/1;
 9/16=-3/6;
 6/7=2,8=2,9=2,10=2/1;
 99/5=1,9=1/99;
 Leave Link    1 at Wed Aug 26 09:30:24 2020, MaxMem=  2097152000 cpu:         0.2
 (Enter /opt/cluster/programs/g09/g09_d.01/g09/l101.exe)
 ----------
 butane_opt
 ----------
 Symbolic Z-matrix:
 Charge =  0 Multiplicity = 1
 C                    -3.89411   0.27698   0.07292 
 C                    -2.67442  -0.64649  -0.01522 
 H                    -4.77469  -0.27217   0.18095 
 H                    -4.13218   0.91421  -0.79564 
 H                    -3.8908    0.99449   0.98712 
 C                    -1.44813   0.14652  -0.08481 
 H                    -2.62262  -1.11802  -0.71171 
 H                    -2.79095  -1.28461   0.90087 
 C                    -0.18403  -0.65621   0.08525 
 H                    -1.43041   0.71676   0.80721 
 H                    -1.32714   0.8342   -1.03649 
 H                    -0.52299  -1.01227   0.89537 
 H                     0.8211   -0.07361   0.42533 
 H                     0.04392  -1.62013  -0.94179 
 
 NAtoms=     14 NQM=       14 NQMF=       0 NMMI=      0 NMMIF=      0
                NMic=       0 NMicF=      0.
                    Isotopes and Nuclear Properties:
 (Nuclear quadrupole moments (NQMom) in fm**2, nuclear magnetic moments (NMagM)
  in nuclear magnetons)

  Atom         1           2           3           4           5           6           7           8           9          10
 IAtWgt=          12          12           1           1           1          12           1           1          12           1
 AtmWgt=  12.0000000  12.0000000   1.0078250   1.0078250   1.0078250  12.0000000   1.0078250   1.0078250  12.0000000   1.0078250
 NucSpn=           0           0           1           1           1           0           1           1           0           1
 AtZEff=   0.0000000   0.0000000   0.0000000   0.0000000   0.0000000   0.0000000   0.0000000   0.0000000   0.0000000   0.0000000
 NQMom=    0.0000000   0.0000000   0.0000000   0.0000000   0.0000000   0.0000000   0.0000000   0.0000000   0.0000000   0.0000000
 NMagM=    0.0000000   0.0000000   2.7928460   2.7928460   2.7928460   0.0000000   2.7928460   2.7928460   0.0000000   2.7928460
 AtZNuc=   6.0000000   6.0000000   1.0000000   1.0000000   1.0000000   6.0000000   1.0000000   1.0000000   6.0000000   1.0000000

  Atom        11          12          13          14
 IAtWgt=           1           1           1           1
 AtmWgt=   1.0078250   1.0078250   1.0078250   1.0078250
 NucSpn=           1           1           1           1
 AtZEff=   0.0000000   0.0000000   0.0000000   0.0000000
 NQMom=    0.0000000   0.0000000   0.0000000   0.0000000
 NMagM=    2.7928460   2.7928460   2.7928460   2.7928460
 AtZNuc=   1.0000000   1.0000000   1.0000000   1.0000000
 Leave Link  101 at Wed Aug 26 09:30:24 2020, MaxMem=  2097152000 cpu:         0.5
 (Enter /opt/cluster/programs/g09/g09_d.01/g09/l202.exe)
                          Input orientation:                          
 ---------------------------------------------------------------------
 Center     Atomic      Atomic             Coordinates (Angstroms)
 Number     Number       Type             X           Y           Z
 ---------------------------------------------------------------------
      1          6           0       -3.894107    0.276984    0.072924
      2          6           0       -2.674422   -0.646494   -0.015219
      3          1           0       -4.774693   -0.272172    0.180948
      4          1           0       -4.132180    0.914210   -0.795642
      5          1           0       -3.890804    0.994485    0.987118
      6          6           0       -1.448125    0.146524   -0.084809
      7          1           0       -2.622623   -1.118022   -0.711710
      8          1           0       -2.790950   -1.284607    0.900870
      9          6           0       -0.184029   -0.656210    0.085247
     10          1           0       -1.430412    0.716755    0.807213
     11          1           0       -1.327139    0.834196   -1.036486
     12          1           0       -0.522994   -1.012273    0.895365
     13          1           0        0.821096   -0.073610    0.425325
     14          1           0        0.043916   -1.620132   -0.941792
 ---------------------------------------------------------------------
                    Distance matrix (angstroms):
                    1          2          3          4          5
     1  C    0.000000
     2  C    1.532388   0.000000
     3  H    1.043395   2.142367   0.000000
     4  H    1.103242   2.273745   1.665549   0.000000
     5  H    1.162140   2.275319   1.742294   1.800816   0.000000
     6  C    2.454532   1.462028   3.363330   2.880760   2.799062
     7  H    2.044105   0.842687   2.478650   2.532938   2.992822
     8  H    2.083511   1.122491   2.340630   3.084128   2.532070
     9  C    3.825661   2.492438   4.607694   4.339364   4.156723
    10  H    2.608136   2.020496   3.543219   3.147647   2.482545
    11  H    2.851421   2.247354   3.819925   2.816498   3.270022
    12  H    3.701756   2.364656   4.374367   4.426857   3.921433
    13  H    4.741333   3.569443   5.604641   5.196296   4.863994
    14  H    4.487396   3.032469   5.128015   4.887129   5.102836
                    6          7          8          9         10
     6  C    0.000000
     7  H    1.836172   0.000000
     8  H    2.196105   1.629877   0.000000
     9  C    1.507063   2.606751   2.802884   0.000000
    10  H    1.058858   2.663625   2.421835   1.989909   0.000000
    11  H    1.180347   2.365357   3.222641   2.187760   1.850320
    12  H    1.777475   2.646189   2.284255   0.947612   1.954665
    13  H    2.336249   3.773969   3.839210   1.210517   2.416569
    14  H    2.466106   2.723138   3.397712   1.426854   3.270123
                   11         12         13         14
    11  H    0.000000
    12  H    2.790725   0.000000
    13  H    2.752438   1.705463   0.000000
    14  H    2.812914   2.016439   2.205617   0.000000
 Stoichiometry    C4H10
 Framework group  C1[X(C4H10)]
 Deg. of freedom    36
 Full point group                 C1      NOp   1
 Largest Abelian subgroup         C1      NOp   1
 Largest concise Abelian subgroup C1      NOp   1
                         Standard orientation:                         
 ---------------------------------------------------------------------
 Center     Atomic      Atomic             Coordinates (Angstroms)
 Number     Number       Type             X           Y           Z
 ---------------------------------------------------------------------
      1          6           0       -1.900131   -0.126377   -0.024367
      2          6           0       -0.525126    0.546023    0.049476
      3          1           0       -2.659862    0.581298   -0.127701
      4          1           0       -2.248309   -0.703459    0.849068
      5          1           0       -2.042794   -0.833879   -0.935222
      6          6           0        0.526721   -0.467461    0.112668
      7          1           0       -0.377550    1.000903    0.743325
      8          1           0       -0.525195    1.191912   -0.868573
      9          6           0        1.919822    0.077148   -0.071481
     10          1           0        0.426666   -1.033133   -0.776817
     11          1           0        0.521971   -1.162736    1.066497
     12          1           0        1.648271    0.489254   -0.880430
     13          1           0        2.791343   -0.688589   -0.417097
     14          1           0        2.337734    0.982426    0.949173
 ---------------------------------------------------------------------
 Rotational constants (GHZ):     23.6438705      3.7599258      3.5545064
 Leave Link  202 at Wed Aug 26 09:30:24 2020, MaxMem=  2097152000 cpu:         0.0
 (Enter /opt/cluster/programs/g09/g09_d.01/g09/l301.exe)
 Standard basis: def2QZVP (5D, 7F)
 Ernie: Thresh=  0.10000D-02 Tol=  0.10000D-05 Strict=F.
 There are   638 symmetry adapted cartesian basis functions of A   symmetry.
 There are   528 symmetry adapted basis functions of A   symmetry.
   528 basis functions,   748 primitive gaussians,   638 cartesian basis functions
    17 alpha electrons       17 beta electrons
       nuclear repulsion energy       132.8197911548 Hartrees.
 IExCor=  419 DFT=T Ex+Corr=B2PLYPD3 ExCW=0 ScaHFX=  0.530000
 ScaDFX=  0.470000  0.470000  0.730000  0.730000 ScalE2=  0.270000  0.270000
 IRadAn=      0 IRanWt=     -1 IRanGd=            0 ICorTp=0 IEmpDi=141
 NAtoms=   14 NActive=   14 NUniq=   14 SFac= 1.00D+00 NAtFMM=   60 NAOKFM=F Big=F
 Integral buffers will be    131072 words long.
 Regular integral format.
 Two-electron integral symmetry is turned on.
 R6Disp:  Grimme-D3(BJ) Dispersion energy=       -0.0067303185 Hartrees.
 Nuclear repulsion after empirical dispersion term =      132.8130608363 Hartrees.
 Leave Link  301 at Wed Aug 26 09:30:24 2020, MaxMem=  2097152000 cpu:         0.5
 (Enter /opt/cluster/programs/g09/g09_d.01/g09/l302.exe)
 NPDir=0 NMtPBC=     1 NCelOv=     1 NCel=       1 NClECP=     1 NCelD=      1
         NCelK=      1 NCelE2=     1 NClLst=     1 CellRange=     0.0.
 One-electron integrals computed using PRISM.
   1 Symmetry operations used in ECPInt.
 ECPInt:  NShTT=   14196 NPrTT=   30597 LenC2=   13901 LenP2D=   26076.
 LDataN:  DoStor=T MaxTD1= 8 Len=  415
 NBasis=   528 RedAO= T EigKep=  3.09D-05  NBF=   528
 NBsUse=   528 1.00D-06 EigRej= -1.00D+00 NBFU=   528
 Precomputing XC quadrature grid using
 IXCGrd= 4 IRadAn=           0 IRanWt=          -1 IRanGd=           0 AccXCQ= 0.00D+00.
 Generated NRdTot=       0 NPtTot=           0 NUsed=           0 NTot=          32
 NSgBfM=   638   638   638   638   638 MxSgAt=    14 MxSgA2=    14.
 Leave Link  302 at Wed Aug 26 09:30:25 2020, MaxMem=  2097152000 cpu:         4.9
 (Enter /opt/cluster/programs/g09/g09_d.01/g09/l303.exe)
 DipDrv:  MaxL=1.
 Leave Link  303 at Wed Aug 26 09:30:25 2020, MaxMem=  2097152000 cpu:         0.5
 (Enter /opt/cluster/programs/g09/g09_d.01/g09/l401.exe)
 ExpMin= 7.60D-02 ExpMax= 6.70D+04 ExpMxC= 6.47D+02 IAcc=2 IRadAn=         4 AccDes= 0.00D+00
 Harris functional with IExCor=  419 and IRadAn=       4 diagonalized for initial guess.
 HarFok:  IExCor=  419 AccDes= 0.00D+00 IRadAn=         4 IDoV= 1 UseB2=F ITyADJ=14
 ICtDFT=  3500011 ScaDFX=  1.000000  1.000000  1.000000  1.000000
 FoFCou: FMM=F IPFlag=           0 FMFlag=      100000 FMFlg1=           0
         NFxFlg=           0 DoJE=T BraDBF=F KetDBF=T FulRan=T
         wScrn=  0.000000 ICntrl=     500 IOpCl=  0 I1Cent=   200000004 NGrid=           0
         NMat0=    1 NMatS0=      1 NMatT0=    0 NMatD0=    1 NMtDS0=    0 NMtDT0=    0
 Petite list used in FoFCou.
 Harris En= -158.487318918786    
 JPrj=0 DoOrth=F DoCkMO=F.
 Leave Link  401 at Wed Aug 26 09:30:27 2020, MaxMem=  2097152000 cpu:        16.1
 (Enter /opt/cluster/programs/g09/g09_d.01/g09/l502.exe)
 Closed shell SCF:
 Using DIIS extrapolation, IDIIS=  1040.
 Integral symmetry usage will be decided dynamically.
 IVT=     1249338 IEndB=     1249338 NGot=  2097152000 MDV=  2096326985
 LenX=  2096326985 LenY=  2095919303
 Requested convergence on RMS density matrix=1.00D-08 within 128 cycles.
 Requested convergence on MAX density matrix=1.00D-06.
 Requested convergence on             energy=1.00D-06.
 No special actions if energy rises.
 Fock matrices will be formed incrementally for  20 cycles.
 Integral accuracy reduced to 1.0D-05 until final iterations.

 Cycle   1  Pass 0  IDiag  1:
 FoFJK:  IHMeth= 1 ICntrl=       0 DoSepK=F KAlg= 0 I1Cent=   0 FoldK=F
 IRaf= 940000000 NMat=   1 IRICut=       1 DoRegI=T DoRafI=F ISym2E= 0.
 FoFCou: FMM=F IPFlag=           0 FMFlag=      100000 FMFlg1=           0
         NFxFlg=           0 DoJE=F BraDBF=F KetDBF=F FulRan=T
         wScrn=  0.000000 ICntrl=       0 IOpCl=  0 I1Cent=           0 NGrid=           0
         NMat0=    1 NMatS0=      1 NMatT0=    0 NMatD0=    1 NMtDS0=    0 NMtDT0=    0
 Symmetry not used in FoFCou.
 E= -157.660726752123    
 DIIS: error= 2.52D-02 at cycle   1 NSaved=   1.
 NSaved= 1 IEnMin= 1 EnMin= -157.660726752123     IErMin= 1 ErrMin= 2.52D-02
 ErrMax= 2.52D-02  0.00D+00 EMaxC= 1.00D-01 BMatC= 3.72D-01 BMatP= 3.72D-01
 IDIUse=3 WtCom= 7.48D-01 WtEn= 2.52D-01
 Coeff-Com:  0.100D+01
 Coeff-En:   0.100D+01
 Coeff:      0.100D+01
 Gap=     0.386 Goal=   None    Shift=    0.000
 GapD=    0.386 DampG=1.000 DampE=0.500 DampFc=0.5000 IDamp=-1.
 Damping current iteration by 5.00D-01
 RMSDP=1.11D-03 MaxDP=7.35D-02              OVMax= 2.00D-01

 Cycle   2  Pass 0  IDiag  1:
 RMSU=  5.33D-04    CP:  9.47D-01
 E= -157.812884561234     Delta-E=       -0.152157809111 Rises=F Damp=T
 DIIS: error= 5.61D-03 at cycle   2 NSaved=   2.
 NSaved= 2 IEnMin= 2 EnMin= -157.812884561234     IErMin= 2 ErrMin= 5.61D-03
 ErrMax= 5.61D-03  0.00D+00 EMaxC= 1.00D-01 BMatC= 3.31D-02 BMatP= 3.72D-01
 IDIUse=3 WtCom= 9.44D-01 WtEn= 5.61D-02
 Coeff-Com: -0.155D+00 0.115D+01
 Coeff-En:   0.000D+00 0.100D+01
 Coeff:     -0.146D+00 0.115D+01
 Gap=     0.461 Goal=   None    Shift=    0.000
 RMSDP=2.99D-04 MaxDP=1.75D-02 DE=-1.52D-01 OVMax= 1.20D-01

 Cycle   3  Pass 0  IDiag  1:
 RMSU=  2.72D-04    CP:  9.35D-01  7.78D-01
 E= -157.957672973181     Delta-E=       -0.144788411947 Rises=F Damp=F
 DIIS: error= 3.45D-03 at cycle   3 NSaved=   3.
 NSaved= 3 IEnMin= 3 EnMin= -157.957672973181     IErMin= 3 ErrMin= 3.45D-03
 ErrMax= 3.45D-03  0.00D+00 EMaxC= 1.00D-01 BMatC= 3.64D-03 BMatP= 3.31D-02
 IDIUse=3 WtCom= 9.65D-01 WtEn= 3.45D-02
 Coeff-Com: -0.102D+00 0.224D+00 0.878D+00
 Coeff-En:   0.000D+00 0.000D+00 0.100D+01
 Coeff:     -0.986D-01 0.216D+00 0.882D+00
 Gap=     0.414 Goal=   None    Shift=    0.000
 RMSDP=7.07D-05 MaxDP=6.21D-03 DE=-1.45D-01 OVMax= 1.67D-02

 Cycle   4  Pass 0  IDiag  1:
 RMSU=  5.82D-05    CP:  9.30D-01  8.48D-01  1.02D+00
 E= -157.961232542478     Delta-E=       -0.003559569296 Rises=F Damp=F
 DIIS: error= 9.01D-04 at cycle   4 NSaved=   4.
 NSaved= 4 IEnMin= 4 EnMin= -157.961232542478     IErMin= 4 ErrMin= 9.01D-04
 ErrMax= 9.01D-04  0.00D+00 EMaxC= 1.00D-01 BMatC= 2.61D-04 BMatP= 3.64D-03
 IDIUse=3 WtCom= 9.91D-01 WtEn= 9.01D-03
 Coeff-Com: -0.291D-01 0.441D-01 0.304D+00 0.681D+00
 Coeff-En:   0.000D+00 0.000D+00 0.000D+00 0.100D+01
 Coeff:     -0.289D-01 0.437D-01 0.301D+00 0.684D+00
 Gap=     0.415 Goal=   None    Shift=    0.000
 RMSDP=1.97D-05 MaxDP=1.75D-03 DE=-3.56D-03 OVMax= 3.65D-03

 Cycle   5  Pass 0  IDiag  1:
 RMSU=  1.52D-05    CP:  9.30D-01  8.34D-01  1.05D+00  9.02D-01
 E= -157.961468625966     Delta-E=       -0.000236083489 Rises=F Damp=F
 DIIS: error= 1.82D-04 at cycle   5 NSaved=   5.
 NSaved= 5 IEnMin= 5 EnMin= -157.961468625966     IErMin= 5 ErrMin= 1.82D-04
 ErrMax= 1.82D-04  0.00D+00 EMaxC= 1.00D-01 BMatC= 1.57D-05 BMatP= 2.61D-04
 IDIUse=3 WtCom= 9.98D-01 WtEn= 1.82D-03
 Coeff-Com: -0.224D-02-0.111D-02 0.394D-01 0.226D+00 0.738D+00
 Coeff-En:   0.000D+00 0.000D+00 0.000D+00 0.000D+00 0.100D+01
 Coeff:     -0.223D-02-0.110D-02 0.394D-01 0.225D+00 0.739D+00
 Gap=     0.415 Goal=   None    Shift=    0.000
 RMSDP=5.31D-06 MaxDP=2.99D-04 DE=-2.36D-04 OVMax= 8.11D-04

 Initial convergence to 1.0D-05 achieved.  Increase integral accuracy.
 Cycle   6  Pass 1  IDiag  1:
 E= -157.961495093601     Delta-E=       -0.000026467635 Rises=F Damp=F
 DIIS: error= 3.74D-05 at cycle   1 NSaved=   1.
 NSaved= 1 IEnMin= 1 EnMin= -157.961495093601     IErMin= 1 ErrMin= 3.74D-05
 ErrMax= 3.74D-05  0.00D+00 EMaxC= 1.00D-01 BMatC= 7.27D-07 BMatP= 7.27D-07
 IDIUse=1 WtCom= 1.00D+00 WtEn= 0.00D+00
 Coeff-Com:  0.100D+01
 Coeff:      0.100D+01
 Gap=     0.415 Goal=   None    Shift=    0.000
 RMSDP=5.31D-06 MaxDP=2.99D-04 DE=-2.65D-05 OVMax= 2.21D-04

 Cycle   7  Pass 1  IDiag  1:
 RMSU=  2.21D-05    CP:  1.00D+00
 E= -157.961495659173     Delta-E=       -0.000000565572 Rises=F Damp=F
 DIIS: error= 1.43D-05 at cycle   2 NSaved=   2.
 NSaved= 2 IEnMin= 2 EnMin= -157.961495659173     IErMin= 2 ErrMin= 1.43D-05
 ErrMax= 1.43D-05  0.00D+00 EMaxC= 1.00D-01 BMatC= 7.89D-08 BMatP= 7.27D-07
 IDIUse=1 WtCom= 1.00D+00 WtEn= 0.00D+00
 Coeff-Com:  0.138D+00 0.862D+00
 Coeff:      0.138D+00 0.862D+00
 Gap=     0.415 Goal=   None    Shift=    0.000
 RMSDP=7.85D-07 MaxDP=4.14D-05 DE=-5.66D-07 OVMax= 1.16D-04

 Cycle   8  Pass 1  IDiag  1:
 RMSU=  5.09D-07    CP:  1.00D+00  1.03D+00
 E= -157.961495719706     Delta-E=       -0.000000060533 Rises=F Damp=F
 DIIS: error= 1.02D-05 at cycle   3 NSaved=   3.
 NSaved= 3 IEnMin= 3 EnMin= -157.961495719706     IErMin= 3 ErrMin= 1.02D-05
 ErrMax= 1.02D-05  0.00D+00 EMaxC= 1.00D-01 BMatC= 3.22D-08 BMatP= 7.89D-08
 IDIUse=1 WtCom= 1.00D+00 WtEn= 0.00D+00
 Coeff-Com: -0.308D-01 0.375D+00 0.656D+00
 Coeff:     -0.308D-01 0.375D+00 0.656D+00
 Gap=     0.415 Goal=   None    Shift=    0.000
 RMSDP=2.54D-07 MaxDP=1.86D-05 DE=-6.05D-08 OVMax= 3.84D-05

 Cycle   9  Pass 1  IDiag  1:
 RMSU=  2.06D-07    CP:  1.00D+00  1.03D+00  9.20D-01
 E= -157.961495752407     Delta-E=       -0.000000032702 Rises=F Damp=F
 DIIS: error= 1.09D-06 at cycle   4 NSaved=   4.
 NSaved= 4 IEnMin= 4 EnMin= -157.961495752407     IErMin= 4 ErrMin= 1.09D-06
 ErrMax= 1.09D-06  0.00D+00 EMaxC= 1.00D-01 BMatC= 3.86D-10 BMatP= 3.22D-08
 IDIUse=1 WtCom= 1.00D+00 WtEn= 0.00D+00
 Coeff-Com: -0.102D-01-0.335D-03 0.644D-01 0.946D+00
 Coeff:     -0.102D-01-0.335D-03 0.644D-01 0.946D+00
 Gap=     0.415 Goal=   None    Shift=    0.000
 RMSDP=5.51D-08 MaxDP=3.00D-06 DE=-3.27D-08 OVMax= 1.23D-05

 Cycle  10  Pass 1  IDiag  1:
 RMSU=  3.53D-08    CP:  1.00D+00  1.03D+00  9.82D-01  1.13D+00
 E= -157.961495753045     Delta-E=       -0.000000000638 Rises=F Damp=F
 DIIS: error= 2.84D-07 at cycle   5 NSaved=   5.
 NSaved= 5 IEnMin= 5 EnMin= -157.961495753045     IErMin= 5 ErrMin= 2.84D-07
 ErrMax= 2.84D-07  0.00D+00 EMaxC= 1.00D-01 BMatC= 5.08D-11 BMatP= 3.86D-10
 IDIUse=1 WtCom= 1.00D+00 WtEn= 0.00D+00
 Coeff-Com:  0.219D-03-0.322D-01-0.432D-01 0.224D+00 0.851D+00
 Coeff:      0.219D-03-0.322D-01-0.432D-01 0.224D+00 0.851D+00
 Gap=     0.415 Goal=   None    Shift=    0.000
 RMSDP=1.69D-08 MaxDP=1.05D-06 DE=-6.38D-10 OVMax= 2.46D-06

 Cycle  11  Pass 1  IDiag  1:
 RMSU=  1.07D-08    CP:  1.00D+00  1.03D+00  9.92D-01  1.18D+00  1.10D+00
 E= -157.961495753107     Delta-E=       -0.000000000061 Rises=F Damp=F
 DIIS: error= 1.06D-07 at cycle   6 NSaved=   6.
 NSaved= 6 IEnMin= 6 EnMin= -157.961495753107     IErMin= 6 ErrMin= 1.06D-07
 ErrMax= 1.06D-07  0.00D+00 EMaxC= 1.00D-01 BMatC= 4.91D-12 BMatP= 5.08D-11
 IDIUse=1 WtCom= 1.00D+00 WtEn= 0.00D+00
 Coeff-Com:  0.563D-03-0.121D-01-0.194D-01 0.439D-01 0.335D+00 0.653D+00
 Coeff:      0.563D-03-0.121D-01-0.194D-01 0.439D-01 0.335D+00 0.653D+00
 Gap=     0.415 Goal=   None    Shift=    0.000
 RMSDP=2.79D-09 MaxDP=1.71D-07 DE=-6.12D-11 OVMax= 7.10D-07

 SCF Done:  E(RB2PLYPD3) =  -157.961495753     A.U. after   11 cycles
            NFock= 11  Conv=0.28D-08     -V/T= 2.0005
 KE= 1.578902986767D+02 PE=-6.314518988439D+02 EE= 1.827870435778D+02
 Leave Link  502 at Wed Aug 26 09:37:01 2020, MaxMem=  2097152000 cpu:      3147.8
 (Enter /opt/cluster/programs/g09/g09_d.01/g09/l801.exe)
 DoSCS=T DFT=T ScalE2(SS,OS)=  0.270000  0.270000
 ExpMin= 7.60D-02 ExpMax= 6.70D+04 ExpMxC= 6.47D+02 IAcc=3 IRadAn=         5 AccDes= 0.00D+00
 HarFok:  IExCor=  205 AccDes= 0.00D+00 IRadAn=         5 IDoV=-2 UseB2=F ITyADJ=14
 ICtDFT= 12500011 ScaDFX=  1.000000  1.000000  1.000000  1.000000
 Largest valence mixing into a core orbital is  1.14D-04
 Largest core mixing into a valence orbital is  1.57D-05
 Range of M.O.s used for correlation:     5   528
 NBasis=   528 NAE=    17 NBE=    17 NFC=     4 NFV=     0
 NROrb=    524 NOA=    13 NOB=    13 NVA=   511 NVB=   511

 **** Warning!!: The largest alpha MO coefficient is  0.33631592D+02

 Leave Link  801 at Wed Aug 26 09:37:02 2020, MaxMem=  2097152000 cpu:         1.1
 (Enter /opt/cluster/programs/g09/g09_d.01/g09/l906.exe)
 DoSCS=T DFT=T ScalE2(SS,OS)=  0.270000  0.270000
 FulOut=F Deriv=F AODrv=F NAtomX=    14
   MMem=         463  MDisk=          13 MDiskD=          13
  W3Min=     4238234 MinDsk=     6904766 NBas6D=         638
 NBas2D=      205689    NTT=      203841    LW2=     4508827
    MDV=  2095896658 MDiskM=        7293 NBas2p=      190415
 Fully direct method using O(OVN) memory.
 IMap=   1   2   3   4   5   6   7   8   9  10  11  12  13
 JobTyp=1 Pass  1:  I=   1 to  13 NPSUse=  8 ParTrn=T ParDer=T DoDerP=F.
 Spin components of T(2) and E(2):
     alpha-alpha T2 =       0.4058741829D-01 E2=     -0.2645762603D-01
     alpha-beta  T2 =       0.2704530365D+00 E2=     -0.1956665517D+00
     beta-beta   T2 =       0.4058741829D-01 E2=     -0.2645762603D-01
 The integrals were generated   1 times.
 E2(B2PLYPD3) =    -0.2485818037D+00 E(B2PLYPD3) =    -0.15821007755682D+03
 Leave Link  906 at Wed Aug 26 09:41:06 2020, MaxMem=  2097152000 cpu:      1952.3
 (Enter /opt/cluster/programs/g09/g09_d.01/g09/l601.exe)
 Copying SCF densities to generalized density rwf, IOpCl= 0 IROHF=0.

 **********************************************************************

            Population analysis using the SCF density.

 **********************************************************************

 Orbital symmetries:
       Occupied  (A) (A) (A) (A) (A) (A) (A) (A) (A) (A) (A) (A)
                 (A) (A) (A) (A) (A)
       Virtual   (A) (A) (A) (A) (A) (A) (A) (A) (A) (A) (A) (A)
                 (A) (A) (A) (A) (A) (A) (A) (A) (A) (A) (A) (A)
                 (A) (A) (A) (A) (A) (A) (A) (A) (A) (A) (A) (A)
                 (A) (A) (A) (A) (A) (A) (A) (A) (A) (A) (A) (A)
                 (A) (A) (A) (A) (A) (A) (A) (A) (A) (A) (A) (A)
                 (A) (A) (A) (A) (A) (A) (A) (A) (A) (A) (A) (A)
                 (A) (A) (A) (A) (A) (A) (A) (A) (A) (A) (A) (A)
                 (A) (A) (A) (A) (A) (A) (A) (A) (A) (A) (A) (A)
                 (A) (A) (A) (A) (A) (A) (A) (A) (A) (A) (A) (A)
                 (A) (A) (A) (A) (A) (A) (A) (A) (A) (A) (A) (A)
                 (A) (A) (A) (A) (A) (A) (A) (A) (A) (A) (A) (A)
                 (A) (A) (A) (A) (A) (A) (A) (A) (A) (A) (A) (A)
                 (A) (A) (A) (A) (A) (A) (A) (A) (A) (A) (A) (A)
                 (A) (A) (A) (A) (A) (A) (A) (A) (A) (A) (A) (A)
                 (A) (A) (A) (A) (A) (A) (A) (A) (A) (A) (A) (A)
                 (A) (A) (A) (A) (A) (A) (A) (A) (A) (A) (A) (A)
                 (A) (A) (A) (A) (A) (A) (A) (A) (A) (A) (A) (A)
                 (A) (A) (A) (A) (A) (A) (A) (A) (A) (A) (A) (A)
                 (A) (A) (A) (A) (A) (A) (A) (A) (A) (A) (A) (A)
                 (A) (A) (A) (A) (A) (A) (A) (A) (A) (A) (A) (A)
                 (A) (A) (A) (A) (A) (A) (A) (A) (A) (A) (A) (A)
                 (A) (A) (A) (A) (A) (A) (A) (A) (A) (A) (A) (A)
                 (A) (A) (A) (A) (A) (A) (A) (A) (A) (A) (A) (A)
                 (A) (A) (A) (A) (A) (A) (A) (A) (A) (A) (A) (A)
                 (A) (A) (A) (A) (A) (A) (A) (A) (A) (A) (A) (A)
                 (A) (A) (A) (A) (A) (A) (A) (A) (A) (A) (A) (A)
                 (A) (A) (A) (A) (A) (A) (A) (A) (A) (A) (A) (A)
                 (A) (A) (A) (A) (A) (A) (A) (A) (A) (A) (A) (A)
                 (A) (A) (A) (A) (A) (A) (A) (A) (A) (A) (A) (A)
                 (A) (A) (A) (A) (A) (A) (A) (A) (A) (A) (A) (A)
                 (A) (A) (A) (A) (A) (A) (A) (A) (A) (A) (A) (A)
                 (A) (A) (A) (A) (A) (A) (A) (A) (A) (A) (A) (A)
                 (A) (A) (A) (A) (A) (A) (A) (A) (A) (A) (A) (A)
                 (A) (A) (A) (A) (A) (A) (A) (A) (A) (A) (A) (A)
                 (A) (A) (A) (A) (A) (A) (A) (A) (A) (A) (A) (A)
                 (A) (A) (A) (A) (A) (A) (A) (A) (A) (A) (A) (A)
                 (A) (A) (A) (A) (A) (A) (A) (A) (A) (A) (A) (A)
                 (A) (A) (A) (A) (A) (A) (A) (A) (A) (A) (A) (A)
                 (A) (A) (A) (A) (A) (A) (A) (A) (A) (A) (A) (A)
                 (A) (A) (A) (A) (A) (A) (A) (A) (A) (A) (A) (A)
                 (A) (A) (A) (A) (A) (A) (A) (A) (A) (A) (A) (A)
                 (A) (A) (A) (A) (A) (A) (A) (A) (A) (A) (A) (A)
                 (A) (A) (A) (A) (A) (A) (A)
 The electronic state is 1-A.
 Alpha  occ. eigenvalues --  -10.62128 -10.60701 -10.60198 -10.58200  -0.94365
 Alpha  occ. eigenvalues --   -0.84198  -0.74113  -0.66941  -0.56783  -0.49965
 Alpha  occ. eigenvalues --   -0.49004  -0.46754  -0.42659  -0.40887  -0.39594
 Alpha  occ. eigenvalues --   -0.37222  -0.36229
 Alpha virt. eigenvalues --    0.05281   0.06305   0.07943   0.08539   0.10565
 Alpha virt. eigenvalues --    0.11268   0.12717   0.13199   0.14565   0.15030
 Alpha virt. eigenvalues --    0.15881   0.16785   0.19247   0.19990   0.21725
 Alpha virt. eigenvalues --    0.22484   0.23798   0.24866   0.26454   0.28632
 Alpha virt. eigenvalues --    0.29233   0.31485   0.32135   0.33032   0.33965
 Alpha virt. eigenvalues --    0.36327   0.37182   0.38088   0.38898   0.39522
 Alpha virt. eigenvalues --    0.39855   0.43057   0.43819   0.44940   0.46157
 Alpha virt. eigenvalues --    0.49424   0.51002   0.54344   0.56346   0.59313
 Alpha virt. eigenvalues --    0.59784   0.62308   0.63147   0.65488   0.66949
 Alpha virt. eigenvalues --    0.67852   0.69231   0.69427   0.70494   0.72056
 Alpha virt. eigenvalues --    0.72879   0.73915   0.76396   0.77371   0.78627
 Alpha virt. eigenvalues --    0.81393   0.82762   0.84302   0.86603   0.86949
 Alpha virt. eigenvalues --    0.88343   0.89136   0.89813   0.90152   0.92351
 Alpha virt. eigenvalues --    0.92999   0.94446   0.96034   0.97457   0.98313
 Alpha virt. eigenvalues --    0.98865   1.00256   1.01415   1.02352   1.02787
 Alpha virt. eigenvalues --    1.04711   1.06450   1.07166   1.09780   1.11563
 Alpha virt. eigenvalues --    1.12325   1.13543   1.16585   1.18712   1.19986
 Alpha virt. eigenvalues --    1.21373   1.23056   1.24109   1.27003   1.28255
 Alpha virt. eigenvalues --    1.28733   1.31743   1.33375   1.35159   1.37330
 Alpha virt. eigenvalues --    1.39485   1.40135   1.41607   1.43404   1.47509
 Alpha virt. eigenvalues --    1.48857   1.51941   1.53934   1.54227   1.58375
 Alpha virt. eigenvalues --    1.60379   1.64478   1.69308   1.70494   1.75328
 Alpha virt. eigenvalues --    1.77896   1.83914   1.87386   1.87725   1.89516
 Alpha virt. eigenvalues --    1.93151   1.93236   1.94231   1.95629   1.97463
 Alpha virt. eigenvalues --    2.00027   2.01052   2.01831   2.03289   2.05230
 Alpha virt. eigenvalues --    2.06628   2.08646   2.09228   2.11166   2.11665
 Alpha virt. eigenvalues --    2.12598   2.13358   2.14063   2.15114   2.17149
 Alpha virt. eigenvalues --    2.17641   2.19605   2.20669   2.22120   2.24125
 Alpha virt. eigenvalues --    2.26425   2.29007   2.29926   2.30686   2.31235
 Alpha virt. eigenvalues --    2.32805   2.34095   2.35793   2.38969   2.39241
 Alpha virt. eigenvalues --    2.41393   2.42393   2.45036   2.45830   2.46678
 Alpha virt. eigenvalues --    2.49783   2.50633   2.53370   2.55065   2.55465
 Alpha virt. eigenvalues --    2.55959   2.56882   2.60004   2.61109   2.61969
 Alpha virt. eigenvalues --    2.63624   2.66534   2.67500   2.69594   2.70806
 Alpha virt. eigenvalues --    2.72281   2.73945   2.74922   2.78195   2.79676
 Alpha virt. eigenvalues --    2.81415   2.84150   2.84940   2.87427   2.89071
 Alpha virt. eigenvalues --    2.89954   2.90506   2.92541   2.94273   2.95383
 Alpha virt. eigenvalues --    2.97388   2.99489   3.00957   3.02452   3.04418
 Alpha virt. eigenvalues --    3.05470   3.07310   3.09201   3.10997   3.14456
 Alpha virt. eigenvalues --    3.15725   3.17717   3.19196   3.19548   3.22003
 Alpha virt. eigenvalues --    3.25091   3.26279   3.27796   3.30910   3.32400
 Alpha virt. eigenvalues --    3.34336   3.36245   3.37423   3.41071   3.42951
 Alpha virt. eigenvalues --    3.44790   3.45237   3.47059   3.47784   3.51994
 Alpha virt. eigenvalues --    3.54335   3.55049   3.57377   3.59111   3.61519
 Alpha virt. eigenvalues --    3.63837   3.64717   3.69331   3.71078   3.74575
 Alpha virt. eigenvalues --    3.77346   3.81683   3.83731   3.86516   3.89679
 Alpha virt. eigenvalues --    3.92151   3.96899   3.98214   3.99637   4.00502
 Alpha virt. eigenvalues --    4.04685   4.07287   4.09441   4.12455   4.14989
 Alpha virt. eigenvalues --    4.18697   4.18971   4.22990   4.25960   4.27097
 Alpha virt. eigenvalues --    4.31576   4.36978   4.40404   4.43388   4.48593
 Alpha virt. eigenvalues --    4.60332   4.70824   4.80378   4.91538   5.02898
 Alpha virt. eigenvalues --    5.09860   5.20628   5.24339   5.32780   5.35039
 Alpha virt. eigenvalues --    5.37273   5.42801   5.45153   5.47488   5.54826
 Alpha virt. eigenvalues --    5.56040   5.59861   5.63888   5.65771   5.68059
 Alpha virt. eigenvalues --    5.69914   5.73574   5.75235   5.77309   5.80044
 Alpha virt. eigenvalues --    5.82937   5.84754   5.86627   5.89877   5.91267
 Alpha virt. eigenvalues --    5.93092   5.94717   5.95540   5.96539   5.98742
 Alpha virt. eigenvalues --    5.99461   6.02440   6.03296   6.04117   6.05271
 Alpha virt. eigenvalues --    6.05972   6.06337   6.09258   6.11422   6.12472
 Alpha virt. eigenvalues --    6.13489   6.14412   6.16505   6.19060   6.19177
 Alpha virt. eigenvalues --    6.20177   6.23651   6.25576   6.28722   6.29410
 Alpha virt. eigenvalues --    6.31256   6.31648   6.33057   6.33730   6.35480
 Alpha virt. eigenvalues --    6.36538   6.38270   6.39713   6.42770   6.43359
 Alpha virt. eigenvalues --    6.46729   6.47101   6.50453   6.51702   6.53603
 Alpha virt. eigenvalues --    6.56859   6.59353   6.61315   6.63731   6.65829
 Alpha virt. eigenvalues --    6.65893   6.70057   6.71695   6.73527   6.77097
 Alpha virt. eigenvalues --    6.79578   6.80766   6.84663   6.86754   6.88399
 Alpha virt. eigenvalues --    6.89546   6.91096   6.92192   6.95372   6.96390
 Alpha virt. eigenvalues --    6.98073   6.99172   7.01152   7.02291   7.04044
 Alpha virt. eigenvalues --    7.08991   7.12672   7.14305   7.15385   7.18088
 Alpha virt. eigenvalues --    7.21506   7.22264   7.22920   7.29673   7.31747
 Alpha virt. eigenvalues --    7.33789   7.34681   7.39346   7.42145   7.45374
 Alpha virt. eigenvalues --    7.46081   7.49190   7.52622   7.54052   7.54716
 Alpha virt. eigenvalues --    7.58410   7.59282   7.62022   7.65885   7.66817
 Alpha virt. eigenvalues --    7.67826   7.70614   7.73330   7.74681   7.75039
 Alpha virt. eigenvalues --    7.78210   7.79028   7.81740   7.83265   7.83786
 Alpha virt. eigenvalues --    7.85296   7.87154   7.89354   7.91184   7.94352
 Alpha virt. eigenvalues --    7.95872   7.97321   7.98249   7.99744   8.01302
 Alpha virt. eigenvalues --    8.02968   8.05978   8.07735   8.09393   8.10943
 Alpha virt. eigenvalues --    8.12054   8.14939   8.17357   8.19844   8.20637
 Alpha virt. eigenvalues --    8.22835   8.25485   8.25515   8.28237   8.31467
 Alpha virt. eigenvalues --    8.34672   8.35838   8.36287   8.40310   8.41041
 Alpha virt. eigenvalues --    8.42718   8.46648   8.48630   8.49527   8.51332
 Alpha virt. eigenvalues --    8.53101   8.54344   8.56326   8.58224   8.59320
 Alpha virt. eigenvalues --    8.60485   8.61780   8.66712   8.68224   8.69616
 Alpha virt. eigenvalues --    8.71056   8.72387   8.73676   8.75522   8.77070
 Alpha virt. eigenvalues --    8.80600   8.81596   8.82118   8.85250   8.86682
 Alpha virt. eigenvalues --    8.88035   8.90612   8.93207   8.96247   8.99906
 Alpha virt. eigenvalues --    9.02573   9.03279   9.05800   9.08577   9.09512
 Alpha virt. eigenvalues --    9.12343   9.14345   9.16827   9.18483   9.22475
 Alpha virt. eigenvalues --    9.22948   9.26787   9.29352   9.32574   9.36766
 Alpha virt. eigenvalues --    9.40022   9.45731   9.48736   9.54101   9.56779
 Alpha virt. eigenvalues --    9.58500   9.64005   9.67677   9.70530   9.72704
 Alpha virt. eigenvalues --    9.77287   9.80144   9.81968   9.86965   9.89423
 Alpha virt. eigenvalues --    9.90325   9.96086  10.01629  10.05148  10.12020
 Alpha virt. eigenvalues --   10.19268  10.26397  10.28191  10.31886  10.34768
 Alpha virt. eigenvalues --   10.42304  10.49041  10.52410  10.55871  10.61886
 Alpha virt. eigenvalues --   10.70558  10.75435  10.81232  10.85641  10.89146
 Alpha virt. eigenvalues --   11.14911  11.21956  11.36907  11.81721  11.89451
 Alpha virt. eigenvalues --   12.10816  12.14110  12.22886  12.26556  12.42108
 Alpha virt. eigenvalues --   12.93926  12.96475  13.19184  29.14373  29.40443
 Alpha virt. eigenvalues --   29.49536  29.77104 148.80691 149.07002 149.14833
 Alpha virt. eigenvalues --  149.53131
          Condensed to atoms (all electrons):
               1          2          3          4          5          6
     1  C    4.667922   0.377415   0.401953   0.400804   0.402090  -0.061701
     2  C    0.377415   4.860589  -0.050477  -0.036163  -0.036702   0.360361
     3  H    0.401953  -0.050477   0.683185  -0.040352  -0.035498   0.010880
     4  H    0.400804  -0.036163  -0.040352   0.668976  -0.032362  -0.003954
     5  H    0.402090  -0.036702  -0.035498  -0.032362   0.677835  -0.007783
     6  C   -0.061701   0.360361   0.010880  -0.003954  -0.007783   4.831844
     7  H   -0.012996   0.449757  -0.004479  -0.004457   0.005888  -0.046532
     8  H   -0.057349   0.404061  -0.006593   0.009519  -0.003393  -0.038126
     9  C    0.008982  -0.044566  -0.000810  -0.000151   0.000253   0.352115
    10  H   -0.009693  -0.071083   0.000460  -0.000168   0.002794   0.396777
    11  H   -0.007494  -0.041713   0.000092   0.002463   0.000458   0.402566
    12  H   -0.000538  -0.017495   0.000033  -0.000079   0.000207  -0.084890
    13  H   -0.000780   0.008346   0.000036   0.000018  -0.000059  -0.030751
    14  H    0.000290  -0.004048   0.000041   0.000016  -0.000012  -0.033846
               7          8          9         10         11         12
     1  C   -0.012996  -0.057349   0.008982  -0.009693  -0.007494  -0.000538
     2  C    0.449757   0.404061  -0.044566  -0.071083  -0.041713  -0.017495
     3  H   -0.004479  -0.006593  -0.000810   0.000460   0.000092   0.000033
     4  H   -0.004457   0.009519  -0.000151  -0.000168   0.002463  -0.000079
     5  H    0.005888  -0.003393   0.000253   0.002794   0.000458   0.000207
     6  C   -0.046532  -0.038126   0.352115   0.396777   0.402566  -0.084890
     7  H    0.499143  -0.046295  -0.004070   0.015597  -0.008531  -0.001398
     8  H   -0.046295   0.712568  -0.008073  -0.007047   0.009199   0.005037
     9  C   -0.004070  -0.008073   4.831457  -0.060470  -0.057937   0.400993
    10  H    0.015597  -0.007047  -0.060470   0.721850  -0.032776  -0.013113
    11  H   -0.008531   0.009199  -0.057937  -0.032776   0.698330   0.016903
    12  H   -0.001398   0.005037   0.400993  -0.013113   0.016903   0.655930
    13  H   -0.000544   0.000452   0.410561  -0.007440  -0.003555  -0.045176
    14  H    0.006551  -0.000353   0.370047   0.010634  -0.003229  -0.017500
              13         14
     1  C   -0.000780   0.000290
     2  C    0.008346  -0.004048
     3  H    0.000036   0.000041
     4  H    0.000018   0.000016
     5  H   -0.000059  -0.000012
     6  C   -0.030751  -0.033846
     7  H   -0.000544   0.006551
     8  H    0.000452  -0.000353
     9  C    0.410561   0.370047
    10  H   -0.007440   0.010634
    11  H   -0.003555  -0.003229
    12  H   -0.045176  -0.017500
    13  H    0.651037  -0.027314
    14  H   -0.027314   0.693860
 Mulliken charges:
               1
     1  C   -0.108905
     2  C   -0.158282
     3  H    0.041528
     4  H    0.035892
     5  H    0.026284
     6  C   -0.046960
     7  H    0.152364
     8  H    0.026393
     9  C   -0.198331
    10  H    0.053677
    11  H    0.025223
    12  H    0.101087
    13  H    0.045167
    14  H    0.004863
 Sum of Mulliken charges =   0.00000
 Mulliken charges with hydrogens summed into heavy atoms:
               1
     1  C   -0.005201
     2  C    0.020475
     6  C    0.031940
     9  C   -0.047214
 Electronic spatial extent (au):  <R**2>=            415.8416
 Charge=              0.0000 electrons
 Dipole moment (field-independent basis, Debye):
    X=             -0.4436    Y=              0.0324    Z=             -0.3117  Tot=              0.5432
 Quadrupole moment (field-independent basis, Debye-Ang):
   XX=            -30.4031   YY=            -29.4361   ZZ=            -27.9976
   XY=             -1.0211   XZ=             -0.4712   YZ=              0.3668
 Traceless Quadrupole moment (field-independent basis, Debye-Ang):
   XX=             -1.1241   YY=             -0.1572   ZZ=              1.2813
   XY=             -1.0211   XZ=             -0.4712   YZ=              0.3668
 Octapole moment (field-independent basis, Debye-Ang**2):
  XXX=             -6.6001  YYY=              0.7457  ZZZ=             -0.6389  XYY=             -1.4467
  XXY=             -1.9848  XXZ=             -1.1044  XZZ=             -0.7146  YZZ=              0.0579
  YYZ=             -0.1021  XYZ=              1.1701
 Hexadecapole moment (field-independent basis, Debye-Ang**3):
 XXXX=           -462.3085 YYYY=            -92.6466 ZZZZ=            -62.3278 XXXY=            -10.9462
 XXXZ=             -6.8496 YYYX=             -4.2866 YYYZ=              0.2765 ZZZX=             -2.0114
 ZZZY=              0.1750 XXYY=            -89.7422 XXZZ=            -85.5177 YYZZ=            -23.3240
 XXYZ=              2.7775 YYXZ=              0.4894 ZZXY=              0.3892
 N-N= 1.328130608363D+02 E-N=-6.314518793183D+02  KE= 1.578902986767D+02
 Leave Link  601 at Wed Aug 26 09:41:07 2020, MaxMem=  2097152000 cpu:         1.1
 (Enter /opt/cluster/programs/g09/g09_d.01/g09/l9999.exe)
 1\1\GINC-NODE25\SP\RB2PLYPD3-FC\def2QZVP\C4H10\BOITTIER\26-Aug-2020\0\
 \#p B2PLYPD3/Def2QZVP\\butane_opt\\0,1\C,0,-3.894107,0.276984,0.072924
 \C,0,-2.674422,-0.646494,-0.015219\H,0,-4.774693,-0.272172,0.180948\H,
 0,-4.13218,0.91421,-0.795642\H,0,-3.890804,0.994485,0.987118\C,0,-1.44
 8125,0.146524,-0.084809\H,0,-2.622623,-1.118022,-0.71171\H,0,-2.79095,
 -1.284607,0.90087\C,0,-0.184029,-0.65621,0.085247\H,0,-1.430412,0.7167
 55,0.807213\H,0,-1.327139,0.834196,-1.036486\H,0,-0.522994,-1.012273,0
 .895365\H,0,0.821096,-0.07361,0.425325\H,0,0.043916,-1.620132,-0.94179
 2\\Version=ES64L-G09RevD.01\State=1-A\HF=-157.9614958\MP2=-158.2100776
 \RMSD=2.788e-09\PG=C01 [X(C4H10)]\\@


 THE REASON MAN'S BEST FRIEND IS A DOG IS BECAUSE
 HE WAGS HIS TAIL INSTEAD OF HIS TONGUE.
 Job cpu time:       0 days  1 hours 25 minutes 25.9 seconds.
 File lengths (MBytes):  RWF=    152 Int=      0 D2E=      0 Chk=     14 Scr=      1
 Normal termination of Gaussian 09 at Wed Aug 26 09:41:07 2020.
