 Entering Gaussian System, Link 0=/opt/cluster/programs/g09/g09_d.01/g09//g09
 Input=/home/boittier/MDCM/nms_sampling/butane_geom.xyz.dir/energies/butane_opt_491_energy.com
 Output=/scratch/boittier/butane_opt_491_energy/butane_opt_491_energy.out
 Initial command:
 /opt/cluster/programs/g09/g09_d.01/g09/l1.exe "/scratch/boittier/butane_opt_491_energy/Gau-140744.inp" -scrdir="/scratch/boittier/butane_opt_491_energy/"
 Entering Link 1 = /opt/cluster/programs/g09/g09_d.01/g09/l1.exe PID=    140745.
  
 Copyright (c) 1988,1990,1992,1993,1995,1998,2003,2009,2013,
            Gaussian, Inc.  All Rights Reserved.
  
 This is part of the Gaussian(R) 09 program.  It is based on
 the Gaussian(R) 03 system (copyright 2003, Gaussian, Inc.),
 the Gaussian(R) 98 system (copyright 1998, Gaussian, Inc.),
 the Gaussian(R) 94 system (copyright 1995, Gaussian, Inc.),
 the Gaussian 92(TM) system (copyright 1992, Gaussian, Inc.),
 the Gaussian 90(TM) system (copyright 1990, Gaussian, Inc.),
 the Gaussian 88(TM) system (copyright 1988, Gaussian, Inc.),
 the Gaussian 86(TM) system (copyright 1986, Carnegie Mellon
 University), and the Gaussian 82(TM) system (copyright 1983,
 Carnegie Mellon University). Gaussian is a federally registered
 trademark of Gaussian, Inc.
  
 This software contains proprietary and confidential information,
 including trade secrets, belonging to Gaussian, Inc.
  
 This software is provided under written license and may be
 used, copied, transmitted, or stored only in accord with that
 written license.
  
 The following legend is applicable only to US Government
 contracts under FAR:
  
                    RESTRICTED RIGHTS LEGEND
  
 Use, reproduction and disclosure by the US Government is
 subject to restrictions as set forth in subparagraphs (a)
 and (c) of the Commercial Computer Software - Restricted
 Rights clause in FAR 52.227-19.
  
 Gaussian, Inc.
 340 Quinnipiac St., Bldg. 40, Wallingford CT 06492
  
  
 ---------------------------------------------------------------
 Warning -- This program may not be used in any manner that
 competes with the business of Gaussian, Inc. or will provide
 assistance to any competitor of Gaussian, Inc.  The licensee
 of this program is prohibited from giving any competitor of
 Gaussian, Inc. access to this program.  By using this program,
 the user acknowledges that Gaussian, Inc. is engaged in the
 business of creating and licensing software in the field of
 computational chemistry and represents and warrants to the
 licensee that it is not a competitor of Gaussian, Inc. and that
 it will not use this program in any manner prohibited above.
 ---------------------------------------------------------------
  

 Cite this work as:
 Gaussian 09, Revision D.01,
 M. J. Frisch, G. W. Trucks, H. B. Schlegel, G. E. Scuseria, 
 M. A. Robb, J. R. Cheeseman, G. Scalmani, V. Barone, B. Mennucci, 
 G. A. Petersson, H. Nakatsuji, M. Caricato, X. Li, H. P. Hratchian, 
 A. F. Izmaylov, J. Bloino, G. Zheng, J. L. Sonnenberg, M. Hada, 
 M. Ehara, K. Toyota, R. Fukuda, J. Hasegawa, M. Ishida, T. Nakajima, 
 Y. Honda, O. Kitao, H. Nakai, T. Vreven, J. A. Montgomery, Jr., 
 J. E. Peralta, F. Ogliaro, M. Bearpark, J. J. Heyd, E. Brothers, 
 K. N. Kudin, V. N. Staroverov, T. Keith, R. Kobayashi, J. Normand, 
 K. Raghavachari, A. Rendell, J. C. Burant, S. S. Iyengar, J. Tomasi, 
 M. Cossi, N. Rega, J. M. Millam, M. Klene, J. E. Knox, J. B. Cross, 
 V. Bakken, C. Adamo, J. Jaramillo, R. Gomperts, R. E. Stratmann, 
 O. Yazyev, A. J. Austin, R. Cammi, C. Pomelli, J. W. Ochterski, 
 R. L. Martin, K. Morokuma, V. G. Zakrzewski, G. A. Voth, 
 P. Salvador, J. J. Dannenberg, S. Dapprich, A. D. Daniels, 
 O. Farkas, J. B. Foresman, J. V. Ortiz, J. Cioslowski, 
 and D. J. Fox, Gaussian, Inc., Wallingford CT, 2013.
 
 ******************************************
 Gaussian 09:  ES64L-G09RevD.01 24-Apr-2013
                26-Aug-2020 
 ******************************************
 %chk=/home/boittier/MDCM/nms_sampling/butane_geom.xyz.dir/butane_opt_491.chk
 %nproc=8
 Will use up to    8 processors via shared memory.
 %mem=16000MB
 --------------------
 #p B2PLYPD3/Def2QZVP
 --------------------
 1/38=1/1;
 2/12=2,17=6,18=5,40=1/2;
 3/5=45,7=101,11=9,16=1,25=1,30=1,74=-60/1,2,3;
 4//1;
 5/5=2,38=5/2;
 8/10=1/1;
 9/16=-3/6;
 6/7=2,8=2,9=2,10=2/1;
 99/5=1,9=1/99;
 Leave Link    1 at Wed Aug 26 21:54:14 2020, MaxMem=  2097152000 cpu:         0.4
 (Enter /opt/cluster/programs/g09/g09_d.01/g09/l101.exe)
 ----------
 butane_opt
 ----------
 Symbolic Z-matrix:
 Charge =  0 Multiplicity = 1
 C                    -3.97182   0.3668    0.15862 
 C                    -2.73322  -0.72937  -0.23091 
 H                    -4.88991  -0.19575   0.82917 
 H                    -4.81151   1.16532  -0.82541 
 H                    -3.53008   0.9171    1.11568 
 C                    -1.33101   0.10966  -0.09539 
 H                    -2.96609  -1.48067  -1.12878 
 H                    -2.61325  -1.39743   0.63872 
 C                    -0.11947  -0.64877   0.20098 
 H                    -1.55554   0.84709   0.73808 
 H                    -1.2102    0.76736  -1.22856 
 H                    -0.37047  -1.31747   1.18928 
 H                     0.82247   0.07547   0.21145 
 H                    -0.06147  -0.98188  -0.51107 
 
 NAtoms=     14 NQM=       14 NQMF=       0 NMMI=      0 NMMIF=      0
                NMic=       0 NMicF=      0.
                    Isotopes and Nuclear Properties:
 (Nuclear quadrupole moments (NQMom) in fm**2, nuclear magnetic moments (NMagM)
  in nuclear magnetons)

  Atom         1           2           3           4           5           6           7           8           9          10
 IAtWgt=          12          12           1           1           1          12           1           1          12           1
 AtmWgt=  12.0000000  12.0000000   1.0078250   1.0078250   1.0078250  12.0000000   1.0078250   1.0078250  12.0000000   1.0078250
 NucSpn=           0           0           1           1           1           0           1           1           0           1
 AtZEff=   0.0000000   0.0000000   0.0000000   0.0000000   0.0000000   0.0000000   0.0000000   0.0000000   0.0000000   0.0000000
 NQMom=    0.0000000   0.0000000   0.0000000   0.0000000   0.0000000   0.0000000   0.0000000   0.0000000   0.0000000   0.0000000
 NMagM=    0.0000000   0.0000000   2.7928460   2.7928460   2.7928460   0.0000000   2.7928460   2.7928460   0.0000000   2.7928460
 AtZNuc=   6.0000000   6.0000000   1.0000000   1.0000000   1.0000000   6.0000000   1.0000000   1.0000000   6.0000000   1.0000000

  Atom        11          12          13          14
 IAtWgt=           1           1           1           1
 AtmWgt=   1.0078250   1.0078250   1.0078250   1.0078250
 NucSpn=           1           1           1           1
 AtZEff=   0.0000000   0.0000000   0.0000000   0.0000000
 NQMom=    0.0000000   0.0000000   0.0000000   0.0000000
 NMagM=    2.7928460   2.7928460   2.7928460   2.7928460
 AtZNuc=   1.0000000   1.0000000   1.0000000   1.0000000
 Leave Link  101 at Wed Aug 26 21:54:14 2020, MaxMem=  2097152000 cpu:         0.5
 (Enter /opt/cluster/programs/g09/g09_d.01/g09/l202.exe)
                          Input orientation:                          
 ---------------------------------------------------------------------
 Center     Atomic      Atomic             Coordinates (Angstroms)
 Number     Number       Type             X           Y           Z
 ---------------------------------------------------------------------
      1          6           0       -3.971823    0.366803    0.158620
      2          6           0       -2.733223   -0.729366   -0.230905
      3          1           0       -4.889914   -0.195754    0.829168
      4          1           0       -4.811512    1.165317   -0.825412
      5          1           0       -3.530078    0.917096    1.115683
      6          6           0       -1.331008    0.109658   -0.095389
      7          1           0       -2.966089   -1.480666   -1.128782
      8          1           0       -2.613247   -1.397427    0.638721
      9          6           0       -0.119473   -0.648765    0.200977
     10          1           0       -1.555540    0.847091    0.738078
     11          1           0       -1.210197    0.767364   -1.228563
     12          1           0       -0.370472   -1.317470    1.189281
     13          1           0        0.822465    0.075469    0.211449
     14          1           0       -0.061467   -0.981884   -0.511065
 ---------------------------------------------------------------------
                    Distance matrix (angstroms):
                    1          2          3          4          5
     1  C    0.000000
     2  C    1.699249   0.000000
     3  H    1.268462   2.461669   0.000000
     4  H    1.520204   2.874465   2.143897   0.000000
     5  H    1.189088   2.271368   1.780359   2.339132   0.000000
     6  C    2.665436   1.639675   3.689701   3.709617   2.637150
     7  H    2.466181   1.193676   3.030787   3.240192   3.332412
     8  H    2.277879   1.103154   2.581376   3.680178   2.534776
     9  C    3.984190   2.650417   4.832903   5.134160   3.862750
    10  H    2.530785   2.193418   3.494835   3.625896   2.011538
    11  H    3.116297   2.356932   4.324601   3.645596   3.301478
    12  H    4.107160   2.818756   4.670469   5.472299   3.870635
    13  H    4.803422   3.672377   5.752079   5.831342   4.524445
    14  H    4.190265   2.698247   5.072290   5.222281   4.275944
                    6          7          8          9         10
     6  C    0.000000
     7  H    2.504101   0.000000
     8  H    2.110535   1.804298   0.000000
     9  C    1.459745   3.250160   2.640270   0.000000
    10  H    1.135293   3.300495   2.483239   2.142044   0.000000
    11  H    1.315772   2.854252   3.184591   2.288817   1.998323
    12  H    2.147021   3.483859   2.310746   1.219390   2.508644
    13  H    2.175492   4.309399   3.762459   1.188222   2.554926
    14  H    1.725104   3.011177   2.829534   0.788249   2.671659
                   11         12         13         14
    11  H    0.000000
    12  H    3.301157   0.000000
    13  H    2.585356   2.078349   0.000000
    14  H    2.212296   1.760477   1.556071   0.000000
 Stoichiometry    C4H10
 Framework group  C1[X(C4H10)]
 Deg. of freedom    36
 Full point group                 C1      NOp   1
 Largest Abelian subgroup         C1      NOp   1
 Largest concise Abelian subgroup C1      NOp   1
                         Standard orientation:                         
 ---------------------------------------------------------------------
 Center     Atomic      Atomic             Coordinates (Angstroms)
 Number     Number       Type             X           Y           Z
 ---------------------------------------------------------------------
      1          6           0       -1.979648   -0.230189   -0.132320
      2          6           0       -0.569577    0.648004    0.225339
      3          1           0       -2.774837    0.448910   -0.850301
      4          1           0       -2.959528   -0.811317    0.874232
      5          1           0       -1.632599   -0.902053   -1.049972
      6          6           0        0.661585   -0.433149    0.163044
      7          1           0       -0.674539    1.476966    1.077786
      8          1           0       -0.322379    1.235229   -0.675222
      9          6           0        1.992399    0.080289   -0.147072
     10          1           0        0.318293   -1.163610   -0.635371
     11          1           0        0.650168   -1.038520    1.331227
     12          1           0        1.876066    0.727584   -1.173905
     13          1           0        2.789825   -0.799358   -0.100115
     14          1           0        2.100977    0.436434    0.547700
 ---------------------------------------------------------------------
 Rotational constants (GHZ):     18.8795400      3.3806132      3.2129867
 Leave Link  202 at Wed Aug 26 21:54:14 2020, MaxMem=  2097152000 cpu:         0.0
 (Enter /opt/cluster/programs/g09/g09_d.01/g09/l301.exe)
 Standard basis: def2QZVP (5D, 7F)
 Ernie: Thresh=  0.10000D-02 Tol=  0.10000D-05 Strict=F.
 There are   638 symmetry adapted cartesian basis functions of A   symmetry.
 There are   528 symmetry adapted basis functions of A   symmetry.
   528 basis functions,   748 primitive gaussians,   638 cartesian basis functions
    17 alpha electrons       17 beta electrons
       nuclear repulsion energy       125.0232384561 Hartrees.
 IExCor=  419 DFT=T Ex+Corr=B2PLYPD3 ExCW=0 ScaHFX=  0.530000
 ScaDFX=  0.470000  0.470000  0.730000  0.730000 ScalE2=  0.270000  0.270000
 IRadAn=      0 IRanWt=     -1 IRanGd=            0 ICorTp=0 IEmpDi=141
 NAtoms=   14 NActive=   14 NUniq=   14 SFac= 1.00D+00 NAtFMM=   60 NAOKFM=F Big=F
 Integral buffers will be    131072 words long.
 Regular integral format.
 Two-electron integral symmetry is turned on.
 R6Disp:  Grimme-D3(BJ) Dispersion energy=       -0.0066388355 Hartrees.
 Nuclear repulsion after empirical dispersion term =      125.0165996206 Hartrees.
 Leave Link  301 at Wed Aug 26 21:54:14 2020, MaxMem=  2097152000 cpu:         0.4
 (Enter /opt/cluster/programs/g09/g09_d.01/g09/l302.exe)
 NPDir=0 NMtPBC=     1 NCelOv=     1 NCel=       1 NClECP=     1 NCelD=      1
         NCelK=      1 NCelE2=     1 NClLst=     1 CellRange=     0.0.
 One-electron integrals computed using PRISM.
   1 Symmetry operations used in ECPInt.
 ECPInt:  NShTT=   14196 NPrTT=   30597 LenC2=   13800 LenP2D=   25660.
 LDataN:  DoStor=T MaxTD1= 8 Len=  415
 NBasis=   528 RedAO= T EigKep=  3.31D-05  NBF=   528
 NBsUse=   528 1.00D-06 EigRej= -1.00D+00 NBFU=   528
 Precomputing XC quadrature grid using
 IXCGrd= 4 IRadAn=           0 IRanWt=          -1 IRanGd=           0 AccXCQ= 0.00D+00.
 Generated NRdTot=       0 NPtTot=           0 NUsed=           0 NTot=          32
 NSgBfM=   638   638   638   638   638 MxSgAt=    14 MxSgA2=    14.
 Leave Link  302 at Wed Aug 26 21:54:15 2020, MaxMem=  2097152000 cpu:         5.6
 (Enter /opt/cluster/programs/g09/g09_d.01/g09/l303.exe)
 DipDrv:  MaxL=1.
 Leave Link  303 at Wed Aug 26 21:54:15 2020, MaxMem=  2097152000 cpu:         0.6
 (Enter /opt/cluster/programs/g09/g09_d.01/g09/l401.exe)
 ExpMin= 7.60D-02 ExpMax= 6.70D+04 ExpMxC= 6.47D+02 IAcc=2 IRadAn=         4 AccDes= 0.00D+00
 Harris functional with IExCor=  419 and IRadAn=       4 diagonalized for initial guess.
 HarFok:  IExCor=  419 AccDes= 0.00D+00 IRadAn=         4 IDoV= 1 UseB2=F ITyADJ=14
 ICtDFT=  3500011 ScaDFX=  1.000000  1.000000  1.000000  1.000000
 FoFCou: FMM=F IPFlag=           0 FMFlag=      100000 FMFlg1=           0
         NFxFlg=           0 DoJE=T BraDBF=F KetDBF=T FulRan=T
         wScrn=  0.000000 ICntrl=     500 IOpCl=  0 I1Cent=   200000004 NGrid=           0
         NMat0=    1 NMatS0=      1 NMatT0=    0 NMatD0=    1 NMtDS0=    0 NMtDT0=    0
 Petite list used in FoFCou.
 Harris En= -158.331745827151    
 JPrj=0 DoOrth=F DoCkMO=F.
 Leave Link  401 at Wed Aug 26 21:54:18 2020, MaxMem=  2097152000 cpu:        17.0
 (Enter /opt/cluster/programs/g09/g09_d.01/g09/l502.exe)
 Closed shell SCF:
 Using DIIS extrapolation, IDIIS=  1040.
 Integral symmetry usage will be decided dynamically.
 IVT=     1249338 IEndB=     1249338 NGot=  2097152000 MDV=  2096326985
 LenX=  2096326985 LenY=  2095919303
 Requested convergence on RMS density matrix=1.00D-08 within 128 cycles.
 Requested convergence on MAX density matrix=1.00D-06.
 Requested convergence on             energy=1.00D-06.
 No special actions if energy rises.
 Fock matrices will be formed incrementally for  20 cycles.
 Integral accuracy reduced to 1.0D-05 until final iterations.

 Cycle   1  Pass 0  IDiag  1:
 FoFJK:  IHMeth= 1 ICntrl=       0 DoSepK=F KAlg= 0 I1Cent=   0 FoldK=F
 IRaf= 930000000 NMat=   1 IRICut=       1 DoRegI=T DoRafI=F ISym2E= 0.
 FoFCou: FMM=F IPFlag=           0 FMFlag=      100000 FMFlg1=           0
         NFxFlg=           0 DoJE=F BraDBF=F KetDBF=F FulRan=T
         wScrn=  0.000000 ICntrl=       0 IOpCl=  0 I1Cent=           0 NGrid=           0
         NMat0=    1 NMatS0=      1 NMatT0=    0 NMatD0=    1 NMtDS0=    0 NMtDT0=    0
 Symmetry not used in FoFCou.
 E= -157.583900440579    
 DIIS: error= 2.48D-02 at cycle   1 NSaved=   1.
 NSaved= 1 IEnMin= 1 EnMin= -157.583900440579     IErMin= 1 ErrMin= 2.48D-02
 ErrMax= 2.48D-02  0.00D+00 EMaxC= 1.00D-01 BMatC= 3.23D-01 BMatP= 3.23D-01
 IDIUse=3 WtCom= 7.52D-01 WtEn= 2.48D-01
 Coeff-Com:  0.100D+01
 Coeff-En:   0.100D+01
 Coeff:      0.100D+01
 Gap=     0.362 Goal=   None    Shift=    0.000
 GapD=    0.362 DampG=1.000 DampE=0.500 DampFc=0.5000 IDamp=-1.
 Damping current iteration by 5.00D-01
 RMSDP=9.64D-04 MaxDP=5.77D-02              OVMax= 1.89D-01

 Cycle   2  Pass 0  IDiag  1:
 RMSU=  4.61D-04    CP:  9.53D-01
 E= -157.712063918029     Delta-E=       -0.128163477450 Rises=F Damp=T
 DIIS: error= 5.03D-03 at cycle   2 NSaved=   2.
 NSaved= 2 IEnMin= 2 EnMin= -157.712063918029     IErMin= 2 ErrMin= 5.03D-03
 ErrMax= 5.03D-03  0.00D+00 EMaxC= 1.00D-01 BMatC= 3.13D-02 BMatP= 3.23D-01
 IDIUse=3 WtCom= 9.50D-01 WtEn= 5.03D-02
 Coeff-Com: -0.157D+00 0.116D+01
 Coeff-En:   0.000D+00 0.100D+01
 Coeff:     -0.149D+00 0.115D+01
 Gap=     0.450 Goal=   None    Shift=    0.000
 RMSDP=2.61D-04 MaxDP=1.11D-02 DE=-1.28D-01 OVMax= 1.04D-01

 Cycle   3  Pass 0  IDiag  1:
 RMSU=  2.44D-04    CP:  9.41D-01  8.17D-01
 E= -157.833415314073     Delta-E=       -0.121351396044 Rises=F Damp=F
 DIIS: error= 3.72D-03 at cycle   3 NSaved=   3.
 NSaved= 3 IEnMin= 3 EnMin= -157.833415314073     IErMin= 3 ErrMin= 3.72D-03
 ErrMax= 3.72D-03  0.00D+00 EMaxC= 1.00D-01 BMatC= 4.14D-03 BMatP= 3.13D-02
 IDIUse=3 WtCom= 9.63D-01 WtEn= 3.72D-02
 Coeff-Com: -0.111D+00 0.256D+00 0.855D+00
 Coeff-En:   0.000D+00 0.000D+00 0.100D+01
 Coeff:     -0.107D+00 0.247D+00 0.860D+00
 Gap=     0.379 Goal=   None    Shift=    0.000
 RMSDP=7.92D-05 MaxDP=7.09D-03 DE=-1.21D-01 OVMax= 1.99D-02

 Cycle   4  Pass 0  IDiag  1:
 RMSU=  5.98D-05    CP:  9.36D-01  9.23D-01  9.76D-01
 E= -157.837466826585     Delta-E=       -0.004051512512 Rises=F Damp=F
 DIIS: error= 1.32D-03 at cycle   4 NSaved=   4.
 NSaved= 4 IEnMin= 4 EnMin= -157.837466826585     IErMin= 4 ErrMin= 1.32D-03
 ErrMax= 1.32D-03  0.00D+00 EMaxC= 1.00D-01 BMatC= 5.63D-04 BMatP= 4.14D-03
 IDIUse=3 WtCom= 9.87D-01 WtEn= 1.32D-02
 Coeff-Com: -0.387D-01 0.594D-01 0.366D+00 0.613D+00
 Coeff-En:   0.000D+00 0.000D+00 0.000D+00 0.100D+01
 Coeff:     -0.382D-01 0.586D-01 0.361D+00 0.618D+00
 Gap=     0.380 Goal=   None    Shift=    0.000
 RMSDP=2.44D-05 MaxDP=1.80D-03 DE=-4.05D-03 OVMax= 5.65D-03

 Cycle   5  Pass 0  IDiag  1:
 RMSU=  1.58D-05    CP:  9.36D-01  9.05D-01  1.02D+00  7.93D-01
 E= -157.838008196701     Delta-E=       -0.000541370116 Rises=F Damp=F
 DIIS: error= 1.20D-04 at cycle   5 NSaved=   5.
 NSaved= 5 IEnMin= 5 EnMin= -157.838008196701     IErMin= 5 ErrMin= 1.20D-04
 ErrMax= 1.20D-04  0.00D+00 EMaxC= 1.00D-01 BMatC= 8.98D-06 BMatP= 5.63D-04
 IDIUse=3 WtCom= 9.99D-01 WtEn= 1.20D-03
 Coeff-Com: -0.244D-02-0.115D-03 0.387D-01 0.139D+00 0.824D+00
 Coeff-En:   0.000D+00 0.000D+00 0.000D+00 0.000D+00 0.100D+01
 Coeff:     -0.244D-02-0.114D-03 0.386D-01 0.139D+00 0.825D+00
 Gap=     0.380 Goal=   None    Shift=    0.000
 RMSDP=5.61D-06 MaxDP=3.91D-04 DE=-5.41D-04 OVMax= 9.78D-04

 Initial convergence to 1.0D-05 achieved.  Increase integral accuracy.
 Cycle   6  Pass 1  IDiag  1:
 E= -157.837977528858     Delta-E=        0.000030667843 Rises=F Damp=F
 DIIS: error= 4.56D-05 at cycle   1 NSaved=   1.
 NSaved= 1 IEnMin= 1 EnMin= -157.837977528858     IErMin= 1 ErrMin= 4.56D-05
 ErrMax= 4.56D-05  0.00D+00 EMaxC= 1.00D-01 BMatC= 1.38D-06 BMatP= 1.38D-06
 IDIUse=1 WtCom= 1.00D+00 WtEn= 0.00D+00
 Coeff-Com:  0.100D+01
 Coeff:      0.100D+01
 Gap=     0.380 Goal=   None    Shift=    0.000
 RMSDP=5.61D-06 MaxDP=3.91D-04 DE= 3.07D-05 OVMax= 4.45D-04

 Cycle   7  Pass 1  IDiag  1:
 RMSU=  2.58D-05    CP:  1.00D+00
 E= -157.837977970153     Delta-E=       -0.000000441295 Rises=F Damp=F
 DIIS: error= 4.35D-05 at cycle   2 NSaved=   2.
 NSaved= 2 IEnMin= 2 EnMin= -157.837977970153     IErMin= 2 ErrMin= 4.35D-05
 ErrMax= 4.35D-05  0.00D+00 EMaxC= 1.00D-01 BMatC= 7.52D-07 BMatP= 1.38D-06
 IDIUse=1 WtCom= 1.00D+00 WtEn= 0.00D+00
 Coeff-Com:  0.409D+00 0.591D+00
 Coeff:      0.409D+00 0.591D+00
 Gap=     0.380 Goal=   None    Shift=    0.000
 RMSDP=1.18D-06 MaxDP=1.15D-04 DE=-4.41D-07 OVMax= 3.22D-04

 Cycle   8  Pass 1  IDiag  1:
 RMSU=  1.05D-06    CP:  1.00D+00  1.02D+00
 E= -157.837978733447     Delta-E=       -0.000000763294 Rises=F Damp=F
 DIIS: error= 1.15D-05 at cycle   3 NSaved=   3.
 NSaved= 3 IEnMin= 3 EnMin= -157.837978733447     IErMin= 3 ErrMin= 1.15D-05
 ErrMax= 1.15D-05  0.00D+00 EMaxC= 1.00D-01 BMatC= 5.07D-08 BMatP= 7.52D-07
 IDIUse=1 WtCom= 1.00D+00 WtEn= 0.00D+00
 Coeff-Com: -0.222D-01 0.187D+00 0.835D+00
 Coeff:     -0.222D-01 0.187D+00 0.835D+00
 Gap=     0.380 Goal=   None    Shift=    0.000
 RMSDP=5.35D-07 MaxDP=3.09D-05 DE=-7.63D-07 OVMax= 6.17D-05

 Cycle   9  Pass 1  IDiag  1:
 RMSU=  2.94D-07    CP:  1.00D+00  1.04D+00  9.32D-01
 E= -157.837978791190     Delta-E=       -0.000000057742 Rises=F Damp=F
 DIIS: error= 1.51D-06 at cycle   4 NSaved=   4.
 NSaved= 4 IEnMin= 4 EnMin= -157.837978791190     IErMin= 4 ErrMin= 1.51D-06
 ErrMax= 1.51D-06  0.00D+00 EMaxC= 1.00D-01 BMatC= 6.71D-10 BMatP= 5.07D-08
 IDIUse=1 WtCom= 1.00D+00 WtEn= 0.00D+00
 Coeff-Com: -0.130D-01 0.150D-01 0.118D+00 0.880D+00
 Coeff:     -0.130D-01 0.150D-01 0.118D+00 0.880D+00
 Gap=     0.380 Goal=   None    Shift=    0.000
 RMSDP=6.36D-08 MaxDP=2.93D-06 DE=-5.77D-08 OVMax= 1.25D-05

 Cycle  10  Pass 1  IDiag  1:
 RMSU=  4.62D-08    CP:  1.00D+00  1.04D+00  9.50D-01  1.12D+00
 E= -157.837978792205     Delta-E=       -0.000000001016 Rises=F Damp=F
 DIIS: error= 5.40D-07 at cycle   5 NSaved=   5.
 NSaved= 5 IEnMin= 5 EnMin= -157.837978792205     IErMin= 5 ErrMin= 5.40D-07
 ErrMax= 5.40D-07  0.00D+00 EMaxC= 1.00D-01 BMatC= 1.25D-10 BMatP= 6.71D-10
 IDIUse=1 WtCom= 1.00D+00 WtEn= 0.00D+00
 Coeff-Com: -0.814D-03-0.175D-01-0.681D-01 0.229D+00 0.857D+00
 Coeff:     -0.814D-03-0.175D-01-0.681D-01 0.229D+00 0.857D+00
 Gap=     0.380 Goal=   None    Shift=    0.000
 RMSDP=2.70D-08 MaxDP=1.61D-06 DE=-1.02D-09 OVMax= 5.37D-06

 Cycle  11  Pass 1  IDiag  1:
 RMSU=  1.95D-08    CP:  1.00D+00  1.04D+00  9.55D-01  1.17D+00  1.09D+00
 E= -157.837978792365     Delta-E=       -0.000000000160 Rises=F Damp=F
 DIIS: error= 1.79D-07 at cycle   6 NSaved=   6.
 NSaved= 6 IEnMin= 6 EnMin= -157.837978792365     IErMin= 6 ErrMin= 1.79D-07
 ErrMax= 1.79D-07  0.00D+00 EMaxC= 1.00D-01 BMatC= 1.69D-11 BMatP= 1.25D-10
 IDIUse=1 WtCom= 1.00D+00 WtEn= 0.00D+00
 Coeff-Com:  0.614D-03-0.817D-02-0.362D-01 0.338D-01 0.360D+00 0.650D+00
 Coeff:      0.614D-03-0.817D-02-0.362D-01 0.338D-01 0.360D+00 0.650D+00
 Gap=     0.380 Goal=   None    Shift=    0.000
 RMSDP=5.58D-09 MaxDP=3.57D-07 DE=-1.60D-10 OVMax= 1.29D-06

 SCF Done:  E(RB2PLYPD3) =  -157.837978792     A.U. after   11 cycles
            NFock= 11  Conv=0.56D-08     -V/T= 2.0077
 KE= 1.566334080696D+02 PE=-6.146846924260D+02 EE= 1.751967059434D+02
 Leave Link  502 at Wed Aug 26 22:01:43 2020, MaxMem=  2097152000 cpu:      3547.8
 (Enter /opt/cluster/programs/g09/g09_d.01/g09/l801.exe)
 DoSCS=T DFT=T ScalE2(SS,OS)=  0.270000  0.270000
 ExpMin= 7.60D-02 ExpMax= 6.70D+04 ExpMxC= 6.47D+02 IAcc=3 IRadAn=         5 AccDes= 0.00D+00
 HarFok:  IExCor=  205 AccDes= 0.00D+00 IRadAn=         5 IDoV=-2 UseB2=F ITyADJ=14
 ICtDFT= 12500011 ScaDFX=  1.000000  1.000000  1.000000  1.000000
 Largest valence mixing into a core orbital is  1.32D-04
 Largest core mixing into a valence orbital is  1.85D-05
 Range of M.O.s used for correlation:     5   528
 NBasis=   528 NAE=    17 NBE=    17 NFC=     4 NFV=     0
 NROrb=    524 NOA=    13 NOB=    13 NVA=   511 NVB=   511

 **** Warning!!: The largest alpha MO coefficient is  0.28809887D+02

 Leave Link  801 at Wed Aug 26 22:01:43 2020, MaxMem=  2097152000 cpu:         1.2
 (Enter /opt/cluster/programs/g09/g09_d.01/g09/l906.exe)
 DoSCS=T DFT=T ScalE2(SS,OS)=  0.270000  0.270000
 FulOut=F Deriv=F AODrv=F NAtomX=    14
   MMem=         463  MDisk=          13 MDiskD=          13
  W3Min=     4238234 MinDsk=     6904766 NBas6D=         638
 NBas2D=      205689    NTT=      203841    LW2=     4508827
    MDV=  2095913784 MDiskM=        7293 NBas2p=      187286
 Fully direct method using O(OVN) memory.
 IMap=   1   2   3   4   5   6   7   8   9  10  11  12  13
 JobTyp=1 Pass  1:  I=   1 to  13 NPSUse=  8 ParTrn=T ParDer=T DoDerP=F.
 Spin components of T(2) and E(2):
     alpha-alpha T2 =       0.4526973672D-01 E2=     -0.2685555517D-01
     alpha-beta  T2 =       0.3134862859D+00 E2=     -0.2021088817D+00
     beta-beta   T2 =       0.4526973672D-01 E2=     -0.2685555517D-01
 The integrals were generated   1 times.
 E2(B2PLYPD3) =    -0.2558199921D+00 E(B2PLYPD3) =    -0.15809379878444D+03
 Leave Link  906 at Wed Aug 26 22:06:24 2020, MaxMem=  2097152000 cpu:      2250.1
 (Enter /opt/cluster/programs/g09/g09_d.01/g09/l601.exe)
 Copying SCF densities to generalized density rwf, IOpCl= 0 IROHF=0.

 **********************************************************************

            Population analysis using the SCF density.

 **********************************************************************

 Orbital symmetries:
       Occupied  (A) (A) (A) (A) (A) (A) (A) (A) (A) (A) (A) (A)
                 (A) (A) (A) (A) (A)
       Virtual   (A) (A) (A) (A) (A) (A) (A) (A) (A) (A) (A) (A)
                 (A) (A) (A) (A) (A) (A) (A) (A) (A) (A) (A) (A)
                 (A) (A) (A) (A) (A) (A) (A) (A) (A) (A) (A) (A)
                 (A) (A) (A) (A) (A) (A) (A) (A) (A) (A) (A) (A)
                 (A) (A) (A) (A) (A) (A) (A) (A) (A) (A) (A) (A)
                 (A) (A) (A) (A) (A) (A) (A) (A) (A) (A) (A) (A)
                 (A) (A) (A) (A) (A) (A) (A) (A) (A) (A) (A) (A)
                 (A) (A) (A) (A) (A) (A) (A) (A) (A) (A) (A) (A)
                 (A) (A) (A) (A) (A) (A) (A) (A) (A) (A) (A) (A)
                 (A) (A) (A) (A) (A) (A) (A) (A) (A) (A) (A) (A)
                 (A) (A) (A) (A) (A) (A) (A) (A) (A) (A) (A) (A)
                 (A) (A) (A) (A) (A) (A) (A) (A) (A) (A) (A) (A)
                 (A) (A) (A) (A) (A) (A) (A) (A) (A) (A) (A) (A)
                 (A) (A) (A) (A) (A) (A) (A) (A) (A) (A) (A) (A)
                 (A) (A) (A) (A) (A) (A) (A) (A) (A) (A) (A) (A)
                 (A) (A) (A) (A) (A) (A) (A) (A) (A) (A) (A) (A)
                 (A) (A) (A) (A) (A) (A) (A) (A) (A) (A) (A) (A)
                 (A) (A) (A) (A) (A) (A) (A) (A) (A) (A) (A) (A)
                 (A) (A) (A) (A) (A) (A) (A) (A) (A) (A) (A) (A)
                 (A) (A) (A) (A) (A) (A) (A) (A) (A) (A) (A) (A)
                 (A) (A) (A) (A) (A) (A) (A) (A) (A) (A) (A) (A)
                 (A) (A) (A) (A) (A) (A) (A) (A) (A) (A) (A) (A)
                 (A) (A) (A) (A) (A) (A) (A) (A) (A) (A) (A) (A)
                 (A) (A) (A) (A) (A) (A) (A) (A) (A) (A) (A) (A)
                 (A) (A) (A) (A) (A) (A) (A) (A) (A) (A) (A) (A)
                 (A) (A) (A) (A) (A) (A) (A) (A) (A) (A) (A) (A)
                 (A) (A) (A) (A) (A) (A) (A) (A) (A) (A) (A) (A)
                 (A) (A) (A) (A) (A) (A) (A) (A) (A) (A) (A) (A)
                 (A) (A) (A) (A) (A) (A) (A) (A) (A) (A) (A) (A)
                 (A) (A) (A) (A) (A) (A) (A) (A) (A) (A) (A) (A)
                 (A) (A) (A) (A) (A) (A) (A) (A) (A) (A) (A) (A)
                 (A) (A) (A) (A) (A) (A) (A) (A) (A) (A) (A) (A)
                 (A) (A) (A) (A) (A) (A) (A) (A) (A) (A) (A) (A)
                 (A) (A) (A) (A) (A) (A) (A) (A) (A) (A) (A) (A)
                 (A) (A) (A) (A) (A) (A) (A) (A) (A) (A) (A) (A)
                 (A) (A) (A) (A) (A) (A) (A) (A) (A) (A) (A) (A)
                 (A) (A) (A) (A) (A) (A) (A) (A) (A) (A) (A) (A)
                 (A) (A) (A) (A) (A) (A) (A) (A) (A) (A) (A) (A)
                 (A) (A) (A) (A) (A) (A) (A) (A) (A) (A) (A) (A)
                 (A) (A) (A) (A) (A) (A) (A) (A) (A) (A) (A) (A)
                 (A) (A) (A) (A) (A) (A) (A) (A) (A) (A) (A) (A)
                 (A) (A) (A) (A) (A) (A) (A) (A) (A) (A) (A) (A)
                 (A) (A) (A) (A) (A) (A) (A)
 The electronic state is 1-A.
 Alpha  occ. eigenvalues --  -10.67677 -10.64997 -10.63952 -10.59107  -0.91855
 Alpha  occ. eigenvalues --   -0.81997  -0.70029  -0.65271  -0.54167  -0.49086
 Alpha  occ. eigenvalues --   -0.46915  -0.45249  -0.39958  -0.39050  -0.38449
 Alpha  occ. eigenvalues --   -0.37460  -0.34411
 Alpha virt. eigenvalues --    0.03621   0.05442   0.07394   0.07721   0.08746
 Alpha virt. eigenvalues --    0.10341   0.11432   0.12936   0.14205   0.14748
 Alpha virt. eigenvalues --    0.15552   0.16028   0.17812   0.18697   0.20577
 Alpha virt. eigenvalues --    0.21390   0.21718   0.23524   0.25609   0.26114
 Alpha virt. eigenvalues --    0.27999   0.29817   0.31326   0.31943   0.32334
 Alpha virt. eigenvalues --    0.33373   0.33935   0.35113   0.36070   0.37136
 Alpha virt. eigenvalues --    0.39514   0.40221   0.41671   0.42668   0.46293
 Alpha virt. eigenvalues --    0.47175   0.49495   0.51475   0.53247   0.54938
 Alpha virt. eigenvalues --    0.56974   0.60008   0.63357   0.64157   0.65709
 Alpha virt. eigenvalues --    0.65892   0.67249   0.68544   0.70288   0.72165
 Alpha virt. eigenvalues --    0.72865   0.73025   0.74164   0.75477   0.77859
 Alpha virt. eigenvalues --    0.79176   0.79425   0.81740   0.83677   0.85723
 Alpha virt. eigenvalues --    0.86970   0.87442   0.88247   0.89408   0.90102
 Alpha virt. eigenvalues --    0.91808   0.93540   0.93974   0.94885   0.96914
 Alpha virt. eigenvalues --    0.97585   0.98478   0.99740   1.00968   1.02117
 Alpha virt. eigenvalues --    1.02664   1.02825   1.05459   1.06287   1.07564
 Alpha virt. eigenvalues --    1.10224   1.11701   1.12479   1.16242   1.17988
 Alpha virt. eigenvalues --    1.18065   1.20152   1.22161   1.23487   1.24566
 Alpha virt. eigenvalues --    1.25874   1.29026   1.30064   1.32848   1.33693
 Alpha virt. eigenvalues --    1.34570   1.36908   1.39077   1.40432   1.42165
 Alpha virt. eigenvalues --    1.44387   1.47488   1.48176   1.48631   1.50970
 Alpha virt. eigenvalues --    1.53094   1.60149   1.61559   1.63730   1.71453
 Alpha virt. eigenvalues --    1.75217   1.77237   1.79895   1.84431   1.86388
 Alpha virt. eigenvalues --    1.88313   1.89794   1.92352   1.94010   1.94548
 Alpha virt. eigenvalues --    1.97205   1.98253   1.99344   2.02664   2.03546
 Alpha virt. eigenvalues --    2.04326   2.05732   2.06771   2.07870   2.08466
 Alpha virt. eigenvalues --    2.10262   2.11655   2.13367   2.14522   2.14876
 Alpha virt. eigenvalues --    2.16060   2.16724   2.18807   2.20243   2.20682
 Alpha virt. eigenvalues --    2.22792   2.24117   2.24436   2.27190   2.27759
 Alpha virt. eigenvalues --    2.29659   2.30268   2.31406   2.33655   2.34212
 Alpha virt. eigenvalues --    2.35792   2.36616   2.38359   2.39707   2.41459
 Alpha virt. eigenvalues --    2.42631   2.44602   2.46991   2.47965   2.49871
 Alpha virt. eigenvalues --    2.51267   2.52771   2.53473   2.55062   2.56328
 Alpha virt. eigenvalues --    2.57994   2.59375   2.61321   2.63065   2.63959
 Alpha virt. eigenvalues --    2.64783   2.65537   2.67189   2.69352   2.70229
 Alpha virt. eigenvalues --    2.71667   2.74631   2.75953   2.77605   2.79397
 Alpha virt. eigenvalues --    2.80570   2.83106   2.83754   2.84953   2.86261
 Alpha virt. eigenvalues --    2.87599   2.90196   2.90399   2.93002   2.94377
 Alpha virt. eigenvalues --    2.95939   2.97595   2.99207   3.00219   3.01426
 Alpha virt. eigenvalues --    3.03578   3.04771   3.05449   3.08418   3.10055
 Alpha virt. eigenvalues --    3.13391   3.15198   3.16529   3.18801   3.20168
 Alpha virt. eigenvalues --    3.21583   3.22140   3.23622   3.26663   3.29440
 Alpha virt. eigenvalues --    3.31409   3.32341   3.34975   3.37902   3.39099
 Alpha virt. eigenvalues --    3.40514   3.42709   3.43412   3.45127   3.48451
 Alpha virt. eigenvalues --    3.51353   3.52811   3.54188   3.55063   3.60460
 Alpha virt. eigenvalues --    3.62863   3.64281   3.65117   3.65523   3.70123
 Alpha virt. eigenvalues --    3.70573   3.73179   3.76865   3.79093   3.80456
 Alpha virt. eigenvalues --    3.84480   3.86676   3.94140   3.97510   3.99033
 Alpha virt. eigenvalues --    4.02863   4.04281   4.09413   4.14058   4.16812
 Alpha virt. eigenvalues --    4.20118   4.28407   4.30273   4.33563   4.35560
 Alpha virt. eigenvalues --    4.38475   4.46381   4.62337   4.76746   4.91360
 Alpha virt. eigenvalues --    4.95208   4.95800   5.01106   5.11717   5.14708
 Alpha virt. eigenvalues --    5.16997   5.18090   5.28749   5.30475   5.36654
 Alpha virt. eigenvalues --    5.42781   5.43300   5.48731   5.53319   5.57606
 Alpha virt. eigenvalues --    5.59417   5.60464   5.62994   5.64231   5.69352
 Alpha virt. eigenvalues --    5.70854   5.71508   5.73489   5.77569   5.78898
 Alpha virt. eigenvalues --    5.80160   5.82418   5.83075   5.86320   5.87494
 Alpha virt. eigenvalues --    5.90344   5.92168   5.92938   5.93572   5.95102
 Alpha virt. eigenvalues --    5.95726   5.96575   5.98037   5.99603   6.01079
 Alpha virt. eigenvalues --    6.01329   6.03656   6.05815   6.07792   6.08285
 Alpha virt. eigenvalues --    6.09695   6.10828   6.11669   6.13473   6.14160
 Alpha virt. eigenvalues --    6.15414   6.17893   6.20355   6.22403   6.23892
 Alpha virt. eigenvalues --    6.25739   6.27458   6.27685   6.30371   6.32338
 Alpha virt. eigenvalues --    6.32904   6.34544   6.35165   6.36662   6.38129
 Alpha virt. eigenvalues --    6.39576   6.42927   6.43718   6.45907   6.48148
 Alpha virt. eigenvalues --    6.49126   6.50536   6.51850   6.52802   6.57969
 Alpha virt. eigenvalues --    6.59719   6.61187   6.62853   6.63711   6.65595
 Alpha virt. eigenvalues --    6.70395   6.71749   6.73155   6.75743   6.76917
 Alpha virt. eigenvalues --    6.78802   6.80705   6.81834   6.84694   6.88038
 Alpha virt. eigenvalues --    6.89579   6.93069   6.94007   6.96910   6.99208
 Alpha virt. eigenvalues --    7.00101   7.01905   7.04057   7.05632   7.06976
 Alpha virt. eigenvalues --    7.10480   7.11754   7.14492   7.16881   7.19685
 Alpha virt. eigenvalues --    7.21964   7.25526   7.26630   7.28899   7.31886
 Alpha virt. eigenvalues --    7.32349   7.34748   7.37474   7.40794   7.44578
 Alpha virt. eigenvalues --    7.48230   7.49119   7.51333   7.52951   7.56396
 Alpha virt. eigenvalues --    7.57007   7.58810   7.61172   7.63850   7.65423
 Alpha virt. eigenvalues --    7.66332   7.68229   7.70313   7.71829   7.72013
 Alpha virt. eigenvalues --    7.74115   7.74824   7.75747   7.78400   7.80845
 Alpha virt. eigenvalues --    7.81275   7.83006   7.87385   7.87717   7.89077
 Alpha virt. eigenvalues --    7.93694   7.96208   7.96912   7.98782   8.01220
 Alpha virt. eigenvalues --    8.02850   8.03552   8.05834   8.06601   8.09828
 Alpha virt. eigenvalues --    8.11510   8.12601   8.12677   8.14685   8.15531
 Alpha virt. eigenvalues --    8.17046   8.19496   8.21833   8.25971   8.27534
 Alpha virt. eigenvalues --    8.31065   8.32243   8.35261   8.35912   8.37044
 Alpha virt. eigenvalues --    8.38882   8.39922   8.41455   8.44255   8.46935
 Alpha virt. eigenvalues --    8.49114   8.50228   8.51706   8.54714   8.55970
 Alpha virt. eigenvalues --    8.58104   8.59213   8.62903   8.63380   8.66945
 Alpha virt. eigenvalues --    8.68579   8.71963   8.74202   8.75587   8.77631
 Alpha virt. eigenvalues --    8.79664   8.81671   8.84780   8.87047   8.89187
 Alpha virt. eigenvalues --    8.92641   8.94659   8.98133   8.99321   9.01697
 Alpha virt. eigenvalues --    9.04658   9.04829   9.07569   9.08402   9.11461
 Alpha virt. eigenvalues --    9.13512   9.17536   9.18680   9.21958   9.23374
 Alpha virt. eigenvalues --    9.24615   9.27094   9.27979   9.33057   9.34404
 Alpha virt. eigenvalues --    9.39307   9.41551   9.44509   9.50512   9.53261
 Alpha virt. eigenvalues --    9.56640   9.60671   9.66771   9.69234   9.71134
 Alpha virt. eigenvalues --    9.72827   9.76616   9.79171   9.81058   9.87377
 Alpha virt. eigenvalues --    9.91479  10.01675  10.04277  10.06499  10.08920
 Alpha virt. eigenvalues --   10.14509  10.23019  10.35237  10.38987  10.47875
 Alpha virt. eigenvalues --   10.66758  11.12962  11.27681  11.42750  11.70100
 Alpha virt. eigenvalues --   11.94764  12.01882  12.04138  12.15992  12.25808
 Alpha virt. eigenvalues --   12.57950  12.60929  13.31913  28.60405  29.01030
 Alpha virt. eigenvalues --   29.04733  29.70157 148.16594 148.63012 148.65525
 Alpha virt. eigenvalues --  149.40189
          Condensed to atoms (all electrons):
               1          2          3          4          5          6
     1  C    4.858880   0.373755   0.366966   0.350056   0.378345  -0.060360
     2  C    0.373755   4.804147  -0.028487  -0.018900  -0.048730   0.371152
     3  H    0.366966  -0.028487   0.705848  -0.030113  -0.041077   0.008154
     4  H    0.350056  -0.018900  -0.030113   0.657556  -0.014412   0.001220
     5  H    0.378345  -0.048730  -0.041077  -0.014412   0.679297  -0.015134
     6  C   -0.060360   0.371152   0.008154   0.001220  -0.015134   4.877033
     7  H   -0.030886   0.384218   0.000732  -0.001162   0.004864  -0.023758
     8  H   -0.034560   0.363495  -0.008780   0.003978   0.002132  -0.064103
     9  C    0.005404  -0.044151  -0.000535  -0.000031   0.000471   0.321956
    10  H   -0.019225  -0.046647   0.000821   0.000872  -0.001639   0.391324
    11  H    0.005504  -0.047416  -0.000482   0.000561   0.001420   0.374792
    12  H    0.000781  -0.007658  -0.000084  -0.000012   0.000290  -0.053946
    13  H   -0.000626   0.008856   0.000033   0.000014  -0.000034  -0.038313
    14  H   -0.000760  -0.007175   0.000086   0.000005  -0.000209  -0.056024
               7          8          9         10         11         12
     1  C   -0.030886  -0.034560   0.005404  -0.019225   0.005504   0.000781
     2  C    0.384218   0.363495  -0.044151  -0.046647  -0.047416  -0.007658
     3  H    0.000732  -0.008780  -0.000535   0.000821  -0.000482  -0.000084
     4  H   -0.001162   0.003978  -0.000031   0.000872   0.000561  -0.000012
     5  H    0.004864   0.002132   0.000471  -0.001639   0.001420   0.000290
     6  C   -0.023758  -0.064103   0.321956   0.391324   0.374792  -0.053946
     7  H    0.655748  -0.040205   0.001152   0.005588  -0.003470   0.000115
     8  H   -0.040205   0.722676  -0.007216  -0.002529   0.010699   0.007505
     9  C    0.001152  -0.007216   4.966030  -0.060385  -0.046502   0.384864
    10  H    0.005588  -0.002529  -0.060385   0.698434  -0.020054  -0.002192
    11  H   -0.003470   0.010699  -0.046502  -0.020054   0.728041   0.010442
    12  H    0.000115   0.007505   0.384864  -0.002192   0.010442   0.641494
    13  H   -0.000323  -0.000263   0.401733  -0.009666  -0.006539  -0.024860
    14  H    0.002077  -0.000418   0.441357   0.014586  -0.007446  -0.007603
              13         14
     1  C   -0.000626  -0.000760
     2  C    0.008856  -0.007175
     3  H    0.000033   0.000086
     4  H    0.000014   0.000005
     5  H   -0.000034  -0.000209
     6  C   -0.038313  -0.056024
     7  H   -0.000323   0.002077
     8  H   -0.000263  -0.000418
     9  C    0.401733   0.441357
    10  H   -0.009666   0.014586
    11  H   -0.006539  -0.007446
    12  H   -0.024860  -0.007603
    13  H    0.646481  -0.028818
    14  H   -0.028818   0.381418
 Mulliken charges:
               1
     1  C   -0.193274
     2  C   -0.056460
     3  H    0.026916
     4  H    0.050367
     5  H    0.054416
     6  C   -0.033992
     7  H    0.045309
     8  H    0.047589
     9  C   -0.364146
    10  H    0.050713
    11  H    0.000452
    12  H    0.050862
    13  H    0.052323
    14  H    0.268924
 Sum of Mulliken charges =   0.00000
 Mulliken charges with hydrogens summed into heavy atoms:
               1
     1  C   -0.061575
     2  C    0.036438
     6  C    0.017173
     9  C    0.007964
 Electronic spatial extent (au):  <R**2>=            458.7576
 Charge=              0.0000 electrons
 Dipole moment (field-independent basis, Debye):
    X=              0.4178    Y=              0.3722    Z=             -0.2911  Tot=              0.6308
 Quadrupole moment (field-independent basis, Debye-Ang):
   XX=            -30.8394   YY=            -30.2838   ZZ=            -28.6626
   XY=             -0.3582   XZ=              0.4765   YZ=              0.3200
 Traceless Quadrupole moment (field-independent basis, Debye-Ang):
   XX=             -0.9109   YY=             -0.3552   ZZ=              1.2660
   XY=             -0.3582   XZ=              0.4765   YZ=              0.3200
 Octapole moment (field-independent basis, Debye-Ang**2):
  XXX=              4.4209  YYY=              3.2215  ZZZ=             -1.1734  XYY=              2.6500
  XXY=             -2.2657  XXZ=              2.8253  XZZ=              0.9140  YZZ=              0.9620
  YYZ=             -0.1182  XYZ=              0.0517
 Hexadecapole moment (field-independent basis, Debye-Ang**3):
 XXXX=           -507.9506 YYYY=           -106.6089 ZZZZ=            -77.3336 XXXY=             -3.9096
 XXXZ=              1.8900 YYYX=             -3.9562 YYYZ=              3.9942 ZZZX=              2.1987
 ZZZY=              1.3083 XXYY=           -103.0772 XXZZ=            -93.9345 YYZZ=            -27.7055
 XXYZ=             -3.3957 YYXZ=             -0.4890 ZZXY=              1.4154
 N-N= 1.250165996206D+02 E-N=-6.146846568568D+02  KE= 1.566334080696D+02
 Leave Link  601 at Wed Aug 26 22:06:25 2020, MaxMem=  2097152000 cpu:         1.2
 (Enter /opt/cluster/programs/g09/g09_d.01/g09/l9999.exe)
 1\1\GINC-NODE15\SP\RB2PLYPD3-FC\def2QZVP\C4H10\BOITTIER\26-Aug-2020\0\
 \#p B2PLYPD3/Def2QZVP\\butane_opt\\0,1\C,0,-3.971823,0.366803,0.15862\
 C,0,-2.733223,-0.729366,-0.230905\H,0,-4.889914,-0.195754,0.829168\H,0
 ,-4.811512,1.165317,-0.825412\H,0,-3.530078,0.917096,1.115683\C,0,-1.3
 31008,0.109658,-0.095389\H,0,-2.966089,-1.480666,-1.128782\H,0,-2.6132
 47,-1.397427,0.638721\C,0,-0.119473,-0.648765,0.200977\H,0,-1.55554,0.
 847091,0.738078\H,0,-1.210197,0.767364,-1.228563\H,0,-0.370472,-1.3174
 7,1.189281\H,0,0.822465,0.075469,0.211449\H,0,-0.061467,-0.981884,-0.5
 11065\\Version=ES64L-G09RevD.01\State=1-A\HF=-157.8379788\MP2=-158.093
 7988\RMSD=5.580e-09\PG=C01 [X(C4H10)]\\@


 LAWS OF PROGRAMMING DEFINITION:  A WORKING PROGRAM
                                  IS ONE THAT HAS
                                  ONLY UNOBSERVED
                                  BUGS.
 Job cpu time:       0 days  1 hours 37 minutes  5.8 seconds.
 File lengths (MBytes):  RWF=    152 Int=      0 D2E=      0 Chk=     14 Scr=      1
 Normal termination of Gaussian 09 at Wed Aug 26 22:06:26 2020.
