 Entering Gaussian System, Link 0=/opt/cluster/programs/g09/g09_d.01/g09//g09
 Input=/home/boittier/MDCM/nms_sampling/butane_geom.xyz.dir/energies/butane_opt_565_energy.com
 Output=/scratch/boittier/butane_opt_565_energy/butane_opt_565_energy.out
 Initial command:
 /opt/cluster/programs/g09/g09_d.01/g09/l1.exe "/scratch/boittier/butane_opt_565_energy/Gau-236455.inp" -scrdir="/scratch/boittier/butane_opt_565_energy/"
 Entering Link 1 = /opt/cluster/programs/g09/g09_d.01/g09/l1.exe PID=    236456.
  
 Copyright (c) 1988,1990,1992,1993,1995,1998,2003,2009,2013,
            Gaussian, Inc.  All Rights Reserved.
  
 This is part of the Gaussian(R) 09 program.  It is based on
 the Gaussian(R) 03 system (copyright 2003, Gaussian, Inc.),
 the Gaussian(R) 98 system (copyright 1998, Gaussian, Inc.),
 the Gaussian(R) 94 system (copyright 1995, Gaussian, Inc.),
 the Gaussian 92(TM) system (copyright 1992, Gaussian, Inc.),
 the Gaussian 90(TM) system (copyright 1990, Gaussian, Inc.),
 the Gaussian 88(TM) system (copyright 1988, Gaussian, Inc.),
 the Gaussian 86(TM) system (copyright 1986, Carnegie Mellon
 University), and the Gaussian 82(TM) system (copyright 1983,
 Carnegie Mellon University). Gaussian is a federally registered
 trademark of Gaussian, Inc.
  
 This software contains proprietary and confidential information,
 including trade secrets, belonging to Gaussian, Inc.
  
 This software is provided under written license and may be
 used, copied, transmitted, or stored only in accord with that
 written license.
  
 The following legend is applicable only to US Government
 contracts under FAR:
  
                    RESTRICTED RIGHTS LEGEND
  
 Use, reproduction and disclosure by the US Government is
 subject to restrictions as set forth in subparagraphs (a)
 and (c) of the Commercial Computer Software - Restricted
 Rights clause in FAR 52.227-19.
  
 Gaussian, Inc.
 340 Quinnipiac St., Bldg. 40, Wallingford CT 06492
  
  
 ---------------------------------------------------------------
 Warning -- This program may not be used in any manner that
 competes with the business of Gaussian, Inc. or will provide
 assistance to any competitor of Gaussian, Inc.  The licensee
 of this program is prohibited from giving any competitor of
 Gaussian, Inc. access to this program.  By using this program,
 the user acknowledges that Gaussian, Inc. is engaged in the
 business of creating and licensing software in the field of
 computational chemistry and represents and warrants to the
 licensee that it is not a competitor of Gaussian, Inc. and that
 it will not use this program in any manner prohibited above.
 ---------------------------------------------------------------
  

 Cite this work as:
 Gaussian 09, Revision D.01,
 M. J. Frisch, G. W. Trucks, H. B. Schlegel, G. E. Scuseria, 
 M. A. Robb, J. R. Cheeseman, G. Scalmani, V. Barone, B. Mennucci, 
 G. A. Petersson, H. Nakatsuji, M. Caricato, X. Li, H. P. Hratchian, 
 A. F. Izmaylov, J. Bloino, G. Zheng, J. L. Sonnenberg, M. Hada, 
 M. Ehara, K. Toyota, R. Fukuda, J. Hasegawa, M. Ishida, T. Nakajima, 
 Y. Honda, O. Kitao, H. Nakai, T. Vreven, J. A. Montgomery, Jr., 
 J. E. Peralta, F. Ogliaro, M. Bearpark, J. J. Heyd, E. Brothers, 
 K. N. Kudin, V. N. Staroverov, T. Keith, R. Kobayashi, J. Normand, 
 K. Raghavachari, A. Rendell, J. C. Burant, S. S. Iyengar, J. Tomasi, 
 M. Cossi, N. Rega, J. M. Millam, M. Klene, J. E. Knox, J. B. Cross, 
 V. Bakken, C. Adamo, J. Jaramillo, R. Gomperts, R. E. Stratmann, 
 O. Yazyev, A. J. Austin, R. Cammi, C. Pomelli, J. W. Ochterski, 
 R. L. Martin, K. Morokuma, V. G. Zakrzewski, G. A. Voth, 
 P. Salvador, J. J. Dannenberg, S. Dapprich, A. D. Daniels, 
 O. Farkas, J. B. Foresman, J. V. Ortiz, J. Cioslowski, 
 and D. J. Fox, Gaussian, Inc., Wallingford CT, 2013.
 
 ******************************************
 Gaussian 09:  ES64L-G09RevD.01 24-Apr-2013
                26-Aug-2020 
 ******************************************
 %chk=/home/boittier/MDCM/nms_sampling/butane_geom.xyz.dir/butane_opt_565.chk
 %nproc=8
 Will use up to    8 processors via shared memory.
 %mem=16000MB
 --------------------
 #p B2PLYPD3/Def2QZVP
 --------------------
 1/38=1/1;
 2/12=2,17=6,18=5,40=1/2;
 3/5=45,7=101,11=9,16=1,25=1,30=1,74=-60/1,2,3;
 4//1;
 5/5=2,38=5/2;
 8/10=1/1;
 9/16=-3/6;
 6/7=2,8=2,9=2,10=2/1;
 99/5=1,9=1/99;
 Leave Link    1 at Wed Aug 26 22:13:22 2020, MaxMem=  2097152000 cpu:         0.2
 (Enter /opt/cluster/programs/g09/g09_d.01/g09/l101.exe)
 ----------
 butane_opt
 ----------
 Symbolic Z-matrix:
 Charge =  0 Multiplicity = 1
 C                    -3.94357   0.31654  -0.12837 
 C                    -2.64712  -0.73029   0.18703 
 H                    -4.87602  -0.21105  -0.28902 
 H                    -3.81851   0.87493  -0.96379 
 H                    -4.29089   1.10245   0.93638 
 C                    -1.43124   0.18591   0.13677 
 H                    -2.36312  -1.03585  -0.48585 
 H                    -2.63968  -1.646     1.34807 
 C                    -0.17793  -0.64025  -0.11243 
 H                    -1.3923    0.74589   0.9357 
 H                    -1.18019   0.60959  -0.6333 
 H                    -0.12342  -1.05388   0.62387 
 H                     0.60137  -0.01568   0.0962 
 H                    -0.51067  -1.44316  -1.13048 
 
 NAtoms=     14 NQM=       14 NQMF=       0 NMMI=      0 NMMIF=      0
                NMic=       0 NMicF=      0.
                    Isotopes and Nuclear Properties:
 (Nuclear quadrupole moments (NQMom) in fm**2, nuclear magnetic moments (NMagM)
  in nuclear magnetons)

  Atom         1           2           3           4           5           6           7           8           9          10
 IAtWgt=          12          12           1           1           1          12           1           1          12           1
 AtmWgt=  12.0000000  12.0000000   1.0078250   1.0078250   1.0078250  12.0000000   1.0078250   1.0078250  12.0000000   1.0078250
 NucSpn=           0           0           1           1           1           0           1           1           0           1
 AtZEff=   0.0000000   0.0000000   0.0000000   0.0000000   0.0000000   0.0000000   0.0000000   0.0000000   0.0000000   0.0000000
 NQMom=    0.0000000   0.0000000   0.0000000   0.0000000   0.0000000   0.0000000   0.0000000   0.0000000   0.0000000   0.0000000
 NMagM=    0.0000000   0.0000000   2.7928460   2.7928460   2.7928460   0.0000000   2.7928460   2.7928460   0.0000000   2.7928460
 AtZNuc=   6.0000000   6.0000000   1.0000000   1.0000000   1.0000000   6.0000000   1.0000000   1.0000000   6.0000000   1.0000000

  Atom        11          12          13          14
 IAtWgt=           1           1           1           1
 AtmWgt=   1.0078250   1.0078250   1.0078250   1.0078250
 NucSpn=           1           1           1           1
 AtZEff=   0.0000000   0.0000000   0.0000000   0.0000000
 NQMom=    0.0000000   0.0000000   0.0000000   0.0000000
 NMagM=    2.7928460   2.7928460   2.7928460   2.7928460
 AtZNuc=   1.0000000   1.0000000   1.0000000   1.0000000
 Leave Link  101 at Wed Aug 26 22:13:22 2020, MaxMem=  2097152000 cpu:         0.5
 (Enter /opt/cluster/programs/g09/g09_d.01/g09/l202.exe)
                          Input orientation:                          
 ---------------------------------------------------------------------
 Center     Atomic      Atomic             Coordinates (Angstroms)
 Number     Number       Type             X           Y           Z
 ---------------------------------------------------------------------
      1          6           0       -3.943567    0.316542   -0.128372
      2          6           0       -2.647121   -0.730292    0.187033
      3          1           0       -4.876022   -0.211045   -0.289021
      4          1           0       -3.818507    0.874926   -0.963792
      5          1           0       -4.290885    1.102450    0.936383
      6          6           0       -1.431244    0.185909    0.136767
      7          1           0       -2.363124   -1.035854   -0.485848
      8          1           0       -2.639677   -1.646002    1.348068
      9          6           0       -0.177932   -0.640254   -0.112427
     10          1           0       -1.392303    0.745891    0.935698
     11          1           0       -1.180187    0.609594   -0.633297
     12          1           0       -0.123415   -1.053876    0.623873
     13          1           0        0.601365   -0.015680    0.096200
     14          1           0       -0.510665   -1.443158   -1.130477
 ---------------------------------------------------------------------
                    Distance matrix (angstroms):
                    1          2          3          4          5
     1  C    0.000000
     2  C    1.695911   0.000000
     3  H    1.083341   2.337572   0.000000
     4  H    1.012600   2.296360   1.659213   0.000000
     5  H    1.368205   2.573408   1.889251   1.971186   0.000000
     6  C    2.529650   1.523256   3.493618   2.717535   3.107568
     7  H    2.110584   0.791702   2.652114   2.449010   3.211129
     8  H    2.780572   1.478710   3.120962   3.617930   3.232640
     9  C    3.885321   2.488911   4.720959   4.034152   4.588399
    10  H    2.797416   2.077061   3.814703   3.084020   2.920430
    11  H    2.824376   2.149449   3.801470   2.672145   3.518983
    12  H    4.127648   2.581594   4.912333   4.460343   4.702681
    13  H    4.562588   3.327399   5.494391   4.631634   5.088245
    14  H    3.985671   2.609302   4.613295   4.042662   5.004208
                    6          7          8          9         10
     6  C    0.000000
     7  H    1.657937   0.000000
     8  H    2.506683   1.952437   0.000000
     9  C    1.521655   2.251890   3.033935   0.000000
    10  H    0.976415   2.477479   2.728945   2.120062   0.000000
    11  H    0.914077   2.031891   3.338208   1.684619   1.589124
    12  H    1.866750   2.499620   2.684520   0.846282   2.224067
    13  H    2.042984   3.188688   3.837900   1.020256   2.293351
    14  H    2.259919   2.003259   3.273686   1.338578   3.136606
                   11         12         13         14
    11  H    0.000000
    12  H    2.337600   0.000000
    13  H    2.024120   1.371713   0.000000
    14  H    2.215680   1.838273   2.186102   0.000000
 Stoichiometry    C4H10
 Framework group  C1[X(C4H10)]
 Deg. of freedom    36
 Full point group                 C1      NOp   1
 Largest Abelian subgroup         C1      NOp   1
 Largest concise Abelian subgroup C1      NOp   1
                         Standard orientation:                         
 ---------------------------------------------------------------------
 Center     Atomic      Atomic             Coordinates (Angstroms)
 Number     Number       Type             X           Y           Z
 ---------------------------------------------------------------------
      1          6           0        1.957053   -0.172141   -0.146782
      2          6           0        0.484249    0.634305    0.091145
      3          1           0        2.769445    0.504349   -0.383445
      4          1           0        1.938630   -0.829007   -0.917201
      5          1           0        2.454009   -0.760317    0.984177
      6          6           0       -0.532100   -0.497909    0.164864
      7          1           0        0.143790    0.807176   -0.602393
      8          1           0        0.305050    1.648790    1.151942
      9          6           0       -1.922352    0.041968   -0.137075
     10          1           0       -0.458862   -0.967615    1.017741
     11          1           0       -0.699877   -1.040579   -0.551305
     12          1           0       -2.052599    0.512735    0.554017
     13          1           0       -2.565545   -0.694773    0.153507
     14          1           0       -1.755139    0.781900   -1.239950
 ---------------------------------------------------------------------
 Rotational constants (GHZ):     20.7813624      3.6960779      3.4752922
 Leave Link  202 at Wed Aug 26 22:13:22 2020, MaxMem=  2097152000 cpu:         0.0
 (Enter /opt/cluster/programs/g09/g09_d.01/g09/l301.exe)
 Standard basis: def2QZVP (5D, 7F)
 Ernie: Thresh=  0.10000D-02 Tol=  0.10000D-05 Strict=F.
 There are   638 symmetry adapted cartesian basis functions of A   symmetry.
 There are   528 symmetry adapted basis functions of A   symmetry.
   528 basis functions,   748 primitive gaussians,   638 cartesian basis functions
    17 alpha electrons       17 beta electrons
       nuclear repulsion energy       132.0922625910 Hartrees.
 IExCor=  419 DFT=T Ex+Corr=B2PLYPD3 ExCW=0 ScaHFX=  0.530000
 ScaDFX=  0.470000  0.470000  0.730000  0.730000 ScalE2=  0.270000  0.270000
 IRadAn=      0 IRanWt=     -1 IRanGd=            0 ICorTp=0 IEmpDi=141
 NAtoms=   14 NActive=   14 NUniq=   14 SFac= 1.00D+00 NAtFMM=   60 NAOKFM=F Big=F
 Integral buffers will be    131072 words long.
 Regular integral format.
 Two-electron integral symmetry is turned on.
 R6Disp:  Grimme-D3(BJ) Dispersion energy=       -0.0070460259 Hartrees.
 Nuclear repulsion after empirical dispersion term =      132.0852165651 Hartrees.
 Leave Link  301 at Wed Aug 26 22:13:22 2020, MaxMem=  2097152000 cpu:         0.4
 (Enter /opt/cluster/programs/g09/g09_d.01/g09/l302.exe)
 NPDir=0 NMtPBC=     1 NCelOv=     1 NCel=       1 NClECP=     1 NCelD=      1
         NCelK=      1 NCelE2=     1 NClLst=     1 CellRange=     0.0.
 One-electron integrals computed using PRISM.
   1 Symmetry operations used in ECPInt.
 ECPInt:  NShTT=   14196 NPrTT=   30597 LenC2=   13880 LenP2D=   26017.
 LDataN:  DoStor=T MaxTD1= 8 Len=  415
 NBasis=   528 RedAO= T EigKep=  2.28D-05  NBF=   528
 NBsUse=   528 1.00D-06 EigRej= -1.00D+00 NBFU=   528
 Precomputing XC quadrature grid using
 IXCGrd= 4 IRadAn=           0 IRanWt=          -1 IRanGd=           0 AccXCQ= 0.00D+00.
 Generated NRdTot=       0 NPtTot=           0 NUsed=           0 NTot=          32
 NSgBfM=   638   638   638   638   638 MxSgAt=    14 MxSgA2=    14.
 Leave Link  302 at Wed Aug 26 22:13:23 2020, MaxMem=  2097152000 cpu:         5.6
 (Enter /opt/cluster/programs/g09/g09_d.01/g09/l303.exe)
 DipDrv:  MaxL=1.
 Leave Link  303 at Wed Aug 26 22:13:23 2020, MaxMem=  2097152000 cpu:         0.6
 (Enter /opt/cluster/programs/g09/g09_d.01/g09/l401.exe)
 ExpMin= 7.60D-02 ExpMax= 6.70D+04 ExpMxC= 6.47D+02 IAcc=2 IRadAn=         4 AccDes= 0.00D+00
 Harris functional with IExCor=  419 and IRadAn=       4 diagonalized for initial guess.
 HarFok:  IExCor=  419 AccDes= 0.00D+00 IRadAn=         4 IDoV= 1 UseB2=F ITyADJ=14
 ICtDFT=  3500011 ScaDFX=  1.000000  1.000000  1.000000  1.000000
 FoFCou: FMM=F IPFlag=           0 FMFlag=      100000 FMFlg1=           0
         NFxFlg=           0 DoJE=T BraDBF=F KetDBF=T FulRan=T
         wScrn=  0.000000 ICntrl=     500 IOpCl=  0 I1Cent=   200000004 NGrid=           0
         NMat0=    1 NMatS0=      1 NMatT0=    0 NMatD0=    1 NMtDS0=    0 NMtDT0=    0
 Petite list used in FoFCou.
 Harris En= -158.312614469149    
 JPrj=0 DoOrth=F DoCkMO=F.
 Leave Link  401 at Wed Aug 26 22:13:25 2020, MaxMem=  2097152000 cpu:        17.4
 (Enter /opt/cluster/programs/g09/g09_d.01/g09/l502.exe)
 Closed shell SCF:
 Using DIIS extrapolation, IDIIS=  1040.
 Integral symmetry usage will be decided dynamically.
 IVT=     1249338 IEndB=     1249338 NGot=  2097152000 MDV=  2096326985
 LenX=  2096326985 LenY=  2095919303
 Requested convergence on RMS density matrix=1.00D-08 within 128 cycles.
 Requested convergence on MAX density matrix=1.00D-06.
 Requested convergence on             energy=1.00D-06.
 No special actions if energy rises.
 Fock matrices will be formed incrementally for  20 cycles.
 Integral accuracy reduced to 1.0D-05 until final iterations.

 Cycle   1  Pass 0  IDiag  1:
 FoFJK:  IHMeth= 1 ICntrl=       0 DoSepK=F KAlg= 0 I1Cent=   0 FoldK=F
 IRaf= 940000000 NMat=   1 IRICut=       1 DoRegI=T DoRafI=F ISym2E= 0.
 FoFCou: FMM=F IPFlag=           0 FMFlag=      100000 FMFlg1=           0
         NFxFlg=           0 DoJE=F BraDBF=F KetDBF=F FulRan=T
         wScrn=  0.000000 ICntrl=       0 IOpCl=  0 I1Cent=           0 NGrid=           0
         NMat0=    1 NMatS0=      1 NMatT0=    0 NMatD0=    1 NMtDS0=    0 NMtDT0=    0
 Symmetry not used in FoFCou.
 E= -157.361932153929    
 DIIS: error= 3.17D-02 at cycle   1 NSaved=   1.
 NSaved= 1 IEnMin= 1 EnMin= -157.361932153929     IErMin= 1 ErrMin= 3.17D-02
 ErrMax= 3.17D-02  0.00D+00 EMaxC= 1.00D-01 BMatC= 4.27D-01 BMatP= 4.27D-01
 IDIUse=3 WtCom= 6.83D-01 WtEn= 3.17D-01
 Coeff-Com:  0.100D+01
 Coeff-En:   0.100D+01
 Coeff:      0.100D+01
 Gap=     0.366 Goal=   None    Shift=    0.000
 GapD=    0.366 DampG=1.000 DampE=0.500 DampFc=0.5000 IDamp=-1.
 Damping current iteration by 5.00D-01
 RMSDP=1.48D-03 MaxDP=1.01D-01              OVMax= 2.43D-01

 Cycle   2  Pass 0  IDiag  1:
 RMSU=  7.19D-04    CP:  9.44D-01
 E= -157.541937946325     Delta-E=       -0.180005792396 Rises=F Damp=T
 DIIS: error= 5.91D-03 at cycle   2 NSaved=   2.
 NSaved= 2 IEnMin= 2 EnMin= -157.541937946325     IErMin= 2 ErrMin= 5.91D-03
 ErrMax= 5.91D-03  0.00D+00 EMaxC= 1.00D-01 BMatC= 3.59D-02 BMatP= 4.27D-01
 IDIUse=3 WtCom= 9.41D-01 WtEn= 5.91D-02
 Coeff-Com: -0.156D+00 0.116D+01
 Coeff-En:   0.000D+00 0.100D+01
 Coeff:     -0.147D+00 0.115D+01
 Gap=     0.415 Goal=   None    Shift=    0.000
 RMSDP=4.55D-04 MaxDP=4.81D-02 DE=-1.80D-01 OVMax= 1.44D-01

 Cycle   3  Pass 0  IDiag  1:
 RMSU=  3.62D-04    CP:  9.29D-01  6.23D-01
 E= -157.714363023717     Delta-E=       -0.172425077393 Rises=F Damp=F
 DIIS: error= 3.55D-03 at cycle   3 NSaved=   3.
 NSaved= 3 IEnMin= 3 EnMin= -157.714363023717     IErMin= 3 ErrMin= 3.55D-03
 ErrMax= 3.55D-03  0.00D+00 EMaxC= 1.00D-01 BMatC= 4.27D-03 BMatP= 3.59D-02
 IDIUse=3 WtCom= 9.65D-01 WtEn= 3.55D-02
 Coeff-Com: -0.101D+00 0.239D+00 0.863D+00
 Coeff-En:   0.000D+00 0.000D+00 0.100D+01
 Coeff:     -0.979D-01 0.230D+00 0.868D+00
 Gap=     0.386 Goal=   None    Shift=    0.000
 RMSDP=8.40D-05 MaxDP=9.47D-03 DE=-1.72D-01 OVMax= 1.85D-02

 Cycle   4  Pass 0  IDiag  1:
 RMSU=  7.59D-05    CP:  9.23D-01  6.58D-01  1.05D+00
 E= -157.718638324171     Delta-E=       -0.004275300453 Rises=F Damp=F
 DIIS: error= 1.17D-03 at cycle   4 NSaved=   4.
 NSaved= 4 IEnMin= 4 EnMin= -157.718638324171     IErMin= 4 ErrMin= 1.17D-03
 ErrMax= 1.17D-03  0.00D+00 EMaxC= 1.00D-01 BMatC= 3.19D-04 BMatP= 4.27D-03
 IDIUse=3 WtCom= 9.88D-01 WtEn= 1.17D-02
 Coeff-Com: -0.289D-01 0.459D-01 0.294D+00 0.689D+00
 Coeff-En:   0.000D+00 0.000D+00 0.000D+00 0.100D+01
 Coeff:     -0.285D-01 0.453D-01 0.290D+00 0.693D+00
 Gap=     0.386 Goal=   None    Shift=    0.000
 RMSDP=2.78D-05 MaxDP=2.21D-03 DE=-4.28D-03 OVMax= 4.94D-03

 Cycle   5  Pass 0  IDiag  1:
 RMSU=  2.06D-05    CP:  9.23D-01  6.39D-01  1.08D+00  9.24D-01
 E= -157.718934336386     Delta-E=       -0.000296012216 Rises=F Damp=F
 DIIS: error= 2.42D-04 at cycle   5 NSaved=   5.
 NSaved= 5 IEnMin= 5 EnMin= -157.718934336386     IErMin= 5 ErrMin= 2.42D-04
 ErrMax= 2.42D-04  0.00D+00 EMaxC= 1.00D-01 BMatC= 2.98D-05 BMatP= 3.19D-04
 IDIUse=3 WtCom= 9.98D-01 WtEn= 2.42D-03
 Coeff-Com: -0.253D-02-0.179D-02 0.396D-01 0.258D+00 0.707D+00
 Coeff-En:   0.000D+00 0.000D+00 0.000D+00 0.000D+00 0.100D+01
 Coeff:     -0.253D-02-0.178D-02 0.395D-01 0.257D+00 0.708D+00
 Gap=     0.386 Goal=   None    Shift=    0.000
 RMSDP=8.59D-06 MaxDP=4.50D-04 DE=-2.96D-04 OVMax= 1.44D-03

 Initial convergence to 1.0D-05 achieved.  Increase integral accuracy.
 Cycle   6  Pass 1  IDiag  1:
 E= -157.718975687286     Delta-E=       -0.000041350900 Rises=F Damp=F
 DIIS: error= 4.81D-05 at cycle   1 NSaved=   1.
 NSaved= 1 IEnMin= 1 EnMin= -157.718975687286     IErMin= 1 ErrMin= 4.81D-05
 ErrMax= 4.81D-05  0.00D+00 EMaxC= 1.00D-01 BMatC= 1.14D-06 BMatP= 1.14D-06
 IDIUse=1 WtCom= 1.00D+00 WtEn= 0.00D+00
 Coeff-Com:  0.100D+01
 Coeff:      0.100D+01
 Gap=     0.386 Goal=   None    Shift=    0.000
 RMSDP=8.59D-06 MaxDP=4.50D-04 DE=-4.14D-05 OVMax= 4.01D-04

 Cycle   7  Pass 1  IDiag  1:
 RMSU=  2.59D-05    CP:  1.00D+00
 E= -157.718976669370     Delta-E=       -0.000000982083 Rises=F Damp=F
 DIIS: error= 2.02D-05 at cycle   2 NSaved=   2.
 NSaved= 2 IEnMin= 2 EnMin= -157.718976669370     IErMin= 2 ErrMin= 2.02D-05
 ErrMax= 2.02D-05  0.00D+00 EMaxC= 1.00D-01 BMatC= 2.51D-07 BMatP= 1.14D-06
 IDIUse=1 WtCom= 1.00D+00 WtEn= 0.00D+00
 Coeff-Com:  0.253D+00 0.747D+00
 Coeff:      0.253D+00 0.747D+00
 Gap=     0.386 Goal=   None    Shift=    0.000
 RMSDP=1.04D-06 MaxDP=6.13D-05 DE=-9.82D-07 OVMax= 1.68D-04

 Cycle   8  Pass 1  IDiag  1:
 RMSU=  8.06D-07    CP:  1.00D+00  1.03D+00
 E= -157.718976889551     Delta-E=       -0.000000220181 Rises=F Damp=F
 DIIS: error= 9.89D-06 at cycle   3 NSaved=   3.
 NSaved= 3 IEnMin= 3 EnMin= -157.718976889551     IErMin= 3 ErrMin= 9.89D-06
 ErrMax= 9.89D-06  0.00D+00 EMaxC= 1.00D-01 BMatC= 5.61D-08 BMatP= 2.51D-07
 IDIUse=1 WtCom= 1.00D+00 WtEn= 0.00D+00
 Coeff-Com: -0.375D-01 0.292D+00 0.745D+00
 Coeff:     -0.375D-01 0.292D+00 0.745D+00
 Gap=     0.386 Goal=   None    Shift=    0.000
 RMSDP=4.73D-07 MaxDP=3.04D-05 DE=-2.20D-07 OVMax= 7.10D-05

 Cycle   9  Pass 1  IDiag  1:
 RMSU=  3.71D-07    CP:  1.00D+00  1.04D+00  9.94D-01
 E= -157.718976949005     Delta-E=       -0.000000059454 Rises=F Damp=F
 DIIS: error= 1.89D-06 at cycle   4 NSaved=   4.
 NSaved= 4 IEnMin= 4 EnMin= -157.718976949005     IErMin= 4 ErrMin= 1.89D-06
 ErrMax= 1.89D-06  0.00D+00 EMaxC= 1.00D-01 BMatC= 1.17D-09 BMatP= 5.61D-08
 IDIUse=1 WtCom= 1.00D+00 WtEn= 0.00D+00
 Coeff-Com: -0.199D-01 0.155D-01 0.127D+00 0.878D+00
 Coeff:     -0.199D-01 0.155D-01 0.127D+00 0.878D+00
 Gap=     0.386 Goal=   None    Shift=    0.000
 RMSDP=9.82D-08 MaxDP=4.42D-06 DE=-5.95D-08 OVMax= 1.43D-05

 Cycle  10  Pass 1  IDiag  1:
 RMSU=  6.21D-08    CP:  1.00D+00  1.04D+00  1.05D+00  1.15D+00
 E= -157.718976950780     Delta-E=       -0.000000001775 Rises=F Damp=F
 DIIS: error= 6.17D-07 at cycle   5 NSaved=   5.
 NSaved= 5 IEnMin= 5 EnMin= -157.718976950780     IErMin= 5 ErrMin= 6.17D-07
 ErrMax= 6.17D-07  0.00D+00 EMaxC= 1.00D-01 BMatC= 1.24D-10 BMatP= 1.17D-09
 IDIUse=1 WtCom= 1.00D+00 WtEn= 0.00D+00
 Coeff-Com: -0.456D-03-0.242D-01-0.475D-01 0.188D+00 0.884D+00
 Coeff:     -0.456D-03-0.242D-01-0.475D-01 0.188D+00 0.884D+00
 Gap=     0.386 Goal=   None    Shift=    0.000
 RMSDP=3.64D-08 MaxDP=1.36D-06 DE=-1.78D-09 OVMax= 5.42D-06

 Cycle  11  Pass 1  IDiag  1:
 RMSU=  1.87D-08    CP:  1.00D+00  1.04D+00  1.07D+00  1.23D+00  1.05D+00
 E= -157.718976950938     Delta-E=       -0.000000000158 Rises=F Damp=F
 DIIS: error= 2.05D-07 at cycle   6 NSaved=   6.
 NSaved= 6 IEnMin= 6 EnMin= -157.718976950938     IErMin= 6 ErrMin= 2.05D-07
 ErrMax= 2.05D-07  0.00D+00 EMaxC= 1.00D-01 BMatC= 1.12D-11 BMatP= 1.24D-10
 IDIUse=1 WtCom= 1.00D+00 WtEn= 0.00D+00
 Coeff-Com:  0.640D-03-0.988D-02-0.236D-01 0.351D-01 0.332D+00 0.666D+00
 Coeff:      0.640D-03-0.988D-02-0.236D-01 0.351D-01 0.332D+00 0.666D+00
 Gap=     0.386 Goal=   None    Shift=    0.000
 RMSDP=4.64D-09 MaxDP=2.70D-07 DE=-1.58D-10 OVMax= 9.41D-07

 SCF Done:  E(RB2PLYPD3) =  -157.718976951     A.U. after   11 cycles
            NFock= 11  Conv=0.46D-08     -V/T= 1.9954
 KE= 1.584498219340D+02 PE=-6.300116699674D+02 EE= 1.817576545174D+02
 Leave Link  502 at Wed Aug 26 22:20:32 2020, MaxMem=  2097152000 cpu:      3382.7
 (Enter /opt/cluster/programs/g09/g09_d.01/g09/l801.exe)
 DoSCS=T DFT=T ScalE2(SS,OS)=  0.270000  0.270000
 ExpMin= 7.60D-02 ExpMax= 6.70D+04 ExpMxC= 6.47D+02 IAcc=3 IRadAn=         5 AccDes= 0.00D+00
 HarFok:  IExCor=  205 AccDes= 0.00D+00 IRadAn=         5 IDoV=-2 UseB2=F ITyADJ=14
 ICtDFT= 12500011 ScaDFX=  1.000000  1.000000  1.000000  1.000000
 Largest valence mixing into a core orbital is  1.18D-04
 Largest core mixing into a valence orbital is  1.42D-05
 Range of M.O.s used for correlation:     5   528
 NBasis=   528 NAE=    17 NBE=    17 NFC=     4 NFV=     0
 NROrb=    524 NOA=    13 NOB=    13 NVA=   511 NVB=   511

 **** Warning!!: The largest alpha MO coefficient is  0.32178054D+02

 Leave Link  801 at Wed Aug 26 22:20:32 2020, MaxMem=  2097152000 cpu:         1.2
 (Enter /opt/cluster/programs/g09/g09_d.01/g09/l906.exe)
 DoSCS=T DFT=T ScalE2(SS,OS)=  0.270000  0.270000
 FulOut=F Deriv=F AODrv=F NAtomX=    14
   MMem=         463  MDisk=          13 MDiskD=          13
  W3Min=     4238234 MinDsk=     6904766 NBas6D=         638
 NBas2D=      205689    NTT=      203841    LW2=     4508827
    MDV=  2095899436 MDiskM=        7293 NBas2p=      189791
 Fully direct method using O(OVN) memory.
 IMap=   1   2   3   4   5   6   7   8   9  10  11  12  13
 JobTyp=1 Pass  1:  I=   1 to  13 NPSUse=  8 ParTrn=T ParDer=T DoDerP=F.
 Spin components of T(2) and E(2):
     alpha-alpha T2 =       0.4184009132D-01 E2=     -0.2683100531D-01
     alpha-beta  T2 =       0.2826726651D+00 E2=     -0.1984667666D+00
     beta-beta   T2 =       0.4184009132D-01 E2=     -0.2683100531D-01
 The integrals were generated   1 times.
 E2(B2PLYPD3) =    -0.2521287772D+00 E(B2PLYPD3) =    -0.15797110572817D+03
 Leave Link  906 at Wed Aug 26 22:25:49 2020, MaxMem=  2097152000 cpu:      2513.9
 (Enter /opt/cluster/programs/g09/g09_d.01/g09/l601.exe)
 Copying SCF densities to generalized density rwf, IOpCl= 0 IROHF=0.

 **********************************************************************

            Population analysis using the SCF density.

 **********************************************************************

 Orbital symmetries:
       Occupied  (A) (A) (A) (A) (A) (A) (A) (A) (A) (A) (A) (A)
                 (A) (A) (A) (A) (A)
       Virtual   (A) (A) (A) (A) (A) (A) (A) (A) (A) (A) (A) (A)
                 (A) (A) (A) (A) (A) (A) (A) (A) (A) (A) (A) (A)
                 (A) (A) (A) (A) (A) (A) (A) (A) (A) (A) (A) (A)
                 (A) (A) (A) (A) (A) (A) (A) (A) (A) (A) (A) (A)
                 (A) (A) (A) (A) (A) (A) (A) (A) (A) (A) (A) (A)
                 (A) (A) (A) (A) (A) (A) (A) (A) (A) (A) (A) (A)
                 (A) (A) (A) (A) (A) (A) (A) (A) (A) (A) (A) (A)
                 (A) (A) (A) (A) (A) (A) (A) (A) (A) (A) (A) (A)
                 (A) (A) (A) (A) (A) (A) (A) (A) (A) (A) (A) (A)
                 (A) (A) (A) (A) (A) (A) (A) (A) (A) (A) (A) (A)
                 (A) (A) (A) (A) (A) (A) (A) (A) (A) (A) (A) (A)
                 (A) (A) (A) (A) (A) (A) (A) (A) (A) (A) (A) (A)
                 (A) (A) (A) (A) (A) (A) (A) (A) (A) (A) (A) (A)
                 (A) (A) (A) (A) (A) (A) (A) (A) (A) (A) (A) (A)
                 (A) (A) (A) (A) (A) (A) (A) (A) (A) (A) (A) (A)
                 (A) (A) (A) (A) (A) (A) (A) (A) (A) (A) (A) (A)
                 (A) (A) (A) (A) (A) (A) (A) (A) (A) (A) (A) (A)
                 (A) (A) (A) (A) (A) (A) (A) (A) (A) (A) (A) (A)
                 (A) (A) (A) (A) (A) (A) (A) (A) (A) (A) (A) (A)
                 (A) (A) (A) (A) (A) (A) (A) (A) (A) (A) (A) (A)
                 (A) (A) (A) (A) (A) (A) (A) (A) (A) (A) (A) (A)
                 (A) (A) (A) (A) (A) (A) (A) (A) (A) (A) (A) (A)
                 (A) (A) (A) (A) (A) (A) (A) (A) (A) (A) (A) (A)
                 (A) (A) (A) (A) (A) (A) (A) (A) (A) (A) (A) (A)
                 (A) (A) (A) (A) (A) (A) (A) (A) (A) (A) (A) (A)
                 (A) (A) (A) (A) (A) (A) (A) (A) (A) (A) (A) (A)
                 (A) (A) (A) (A) (A) (A) (A) (A) (A) (A) (A) (A)
                 (A) (A) (A) (A) (A) (A) (A) (A) (A) (A) (A) (A)
                 (A) (A) (A) (A) (A) (A) (A) (A) (A) (A) (A) (A)
                 (A) (A) (A) (A) (A) (A) (A) (A) (A) (A) (A) (A)
                 (A) (A) (A) (A) (A) (A) (A) (A) (A) (A) (A) (A)
                 (A) (A) (A) (A) (A) (A) (A) (A) (A) (A) (A) (A)
                 (A) (A) (A) (A) (A) (A) (A) (A) (A) (A) (A) (A)
                 (A) (A) (A) (A) (A) (A) (A) (A) (A) (A) (A) (A)
                 (A) (A) (A) (A) (A) (A) (A) (A) (A) (A) (A) (A)
                 (A) (A) (A) (A) (A) (A) (A) (A) (A) (A) (A) (A)
                 (A) (A) (A) (A) (A) (A) (A) (A) (A) (A) (A) (A)
                 (A) (A) (A) (A) (A) (A) (A) (A) (A) (A) (A) (A)
                 (A) (A) (A) (A) (A) (A) (A) (A) (A) (A) (A) (A)
                 (A) (A) (A) (A) (A) (A) (A) (A) (A) (A) (A) (A)
                 (A) (A) (A) (A) (A) (A) (A) (A) (A) (A) (A) (A)
                 (A) (A) (A) (A) (A) (A) (A) (A) (A) (A) (A) (A)
                 (A) (A) (A) (A) (A) (A) (A)
 The electronic state is 1-A.
 Alpha  occ. eigenvalues --  -10.62942 -10.61906 -10.58518 -10.56537  -0.95437
 Alpha  occ. eigenvalues --   -0.84214  -0.75433  -0.70824  -0.58334  -0.50164
 Alpha  occ. eigenvalues --   -0.48273  -0.45700  -0.41610  -0.40589  -0.39781
 Alpha  occ. eigenvalues --   -0.37180  -0.34031
 Alpha virt. eigenvalues --    0.04585   0.06104   0.06707   0.08531   0.10563
 Alpha virt. eigenvalues --    0.11466   0.12041   0.13581   0.14521   0.15011
 Alpha virt. eigenvalues --    0.15475   0.16383   0.18446   0.19046   0.21199
 Alpha virt. eigenvalues --    0.23122   0.23734   0.24280   0.25534   0.28508
 Alpha virt. eigenvalues --    0.28701   0.29247   0.30825   0.31662   0.32947
 Alpha virt. eigenvalues --    0.34620   0.37254   0.37719   0.40163   0.41010
 Alpha virt. eigenvalues --    0.41310   0.42448   0.42924   0.46100   0.48603
 Alpha virt. eigenvalues --    0.49572   0.50349   0.52811   0.55176   0.57864
 Alpha virt. eigenvalues --    0.59399   0.60356   0.64539   0.65704   0.67778
 Alpha virt. eigenvalues --    0.68818   0.70238   0.71217   0.71720   0.72362
 Alpha virt. eigenvalues --    0.72738   0.75183   0.76776   0.77836   0.79263
 Alpha virt. eigenvalues --    0.80065   0.82165   0.82827   0.84273   0.87051
 Alpha virt. eigenvalues --    0.87783   0.88920   0.90302   0.91341   0.91652
 Alpha virt. eigenvalues --    0.92692   0.94004   0.95520   0.96546   0.97413
 Alpha virt. eigenvalues --    0.98392   1.00667   1.01060   1.01842   1.03592
 Alpha virt. eigenvalues --    1.05184   1.05935   1.06933   1.09334   1.10338
 Alpha virt. eigenvalues --    1.12396   1.13178   1.16263   1.17695   1.19112
 Alpha virt. eigenvalues --    1.20917   1.21820   1.23828   1.26041   1.28466
 Alpha virt. eigenvalues --    1.29601   1.30785   1.32469   1.33088   1.36718
 Alpha virt. eigenvalues --    1.38240   1.40438   1.41707   1.47017   1.47670
 Alpha virt. eigenvalues --    1.51568   1.52309   1.54539   1.57696   1.61152
 Alpha virt. eigenvalues --    1.63318   1.65183   1.73161   1.74166   1.78577
 Alpha virt. eigenvalues --    1.79379   1.81193   1.85300   1.85586   1.88691
 Alpha virt. eigenvalues --    1.91034   1.92246   1.93266   1.94180   1.94754
 Alpha virt. eigenvalues --    1.95528   1.97115   1.98579   1.99978   2.00950
 Alpha virt. eigenvalues --    2.03604   2.05910   2.06164   2.06789   2.10570
 Alpha virt. eigenvalues --    2.11081   2.12589   2.12931   2.14104   2.15622
 Alpha virt. eigenvalues --    2.17717   2.19217   2.21997   2.23127   2.23582
 Alpha virt. eigenvalues --    2.24319   2.27275   2.28849   2.29626   2.30510
 Alpha virt. eigenvalues --    2.32992   2.33235   2.34716   2.35982   2.36628
 Alpha virt. eigenvalues --    2.39624   2.40953   2.43439   2.44166   2.46502
 Alpha virt. eigenvalues --    2.47265   2.47648   2.49776   2.51786   2.53163
 Alpha virt. eigenvalues --    2.55029   2.56796   2.58502   2.60266   2.60780
 Alpha virt. eigenvalues --    2.62596   2.63318   2.66215   2.66446   2.68344
 Alpha virt. eigenvalues --    2.68972   2.71474   2.73144   2.75533   2.76200
 Alpha virt. eigenvalues --    2.78234   2.79310   2.82192   2.82500   2.83932
 Alpha virt. eigenvalues --    2.87899   2.89816   2.90706   2.91466   2.93927
 Alpha virt. eigenvalues --    2.95188   2.98373   2.99342   3.01072   3.02602
 Alpha virt. eigenvalues --    3.04616   3.06453   3.07669   3.08471   3.10660
 Alpha virt. eigenvalues --    3.12091   3.12899   3.15641   3.18118   3.19217
 Alpha virt. eigenvalues --    3.22344   3.23424   3.26970   3.29381   3.31702
 Alpha virt. eigenvalues --    3.33318   3.34433   3.37927   3.40139   3.40807
 Alpha virt. eigenvalues --    3.42914   3.46324   3.49100   3.51094   3.53197
 Alpha virt. eigenvalues --    3.56444   3.58233   3.61756   3.62753   3.65597
 Alpha virt. eigenvalues --    3.68963   3.71939   3.74696   3.75827   3.78753
 Alpha virt. eigenvalues --    3.83520   3.85764   3.86306   3.88757   3.91497
 Alpha virt. eigenvalues --    3.95546   3.96775   3.99822   4.02164   4.04413
 Alpha virt. eigenvalues --    4.08189   4.10512   4.11635   4.16013   4.17021
 Alpha virt. eigenvalues --    4.20062   4.24206   4.25403   4.30734   4.32534
 Alpha virt. eigenvalues --    4.37066   4.41312   4.43131   4.50796   4.56900
 Alpha virt. eigenvalues --    4.59660   4.70947   4.79271   4.89374   4.98778
 Alpha virt. eigenvalues --    5.07031   5.15115   5.17747   5.23010   5.29086
 Alpha virt. eigenvalues --    5.30777   5.36417   5.42371   5.44082   5.46907
 Alpha virt. eigenvalues --    5.49148   5.49973   5.54423   5.58715   5.61145
 Alpha virt. eigenvalues --    5.63507   5.66001   5.66874   5.68850   5.71550
 Alpha virt. eigenvalues --    5.74698   5.76170   5.79531   5.81812   5.83344
 Alpha virt. eigenvalues --    5.85599   5.86831   5.89631   5.89861   5.94121
 Alpha virt. eigenvalues --    5.95787   5.95894   5.98141   6.00139   6.02251
 Alpha virt. eigenvalues --    6.03340   6.03973   6.05467   6.08482   6.09425
 Alpha virt. eigenvalues --    6.09884   6.12571   6.13912   6.14514   6.17272
 Alpha virt. eigenvalues --    6.18811   6.19373   6.20731   6.24928   6.26354
 Alpha virt. eigenvalues --    6.27994   6.28876   6.32001   6.32452   6.34770
 Alpha virt. eigenvalues --    6.35728   6.36579   6.38933   6.41565   6.44238
 Alpha virt. eigenvalues --    6.47213   6.48359   6.48790   6.53960   6.56876
 Alpha virt. eigenvalues --    6.57798   6.59229   6.60729   6.62202   6.66142
 Alpha virt. eigenvalues --    6.67162   6.70396   6.71953   6.75664   6.77715
 Alpha virt. eigenvalues --    6.80177   6.80857   6.84141   6.85944   6.87806
 Alpha virt. eigenvalues --    6.88525   6.88851   6.90570   6.91865   6.96422
 Alpha virt. eigenvalues --    6.97237   6.99735   7.00270   7.01871   7.06421
 Alpha virt. eigenvalues --    7.08256   7.10223   7.12960   7.13522   7.15692
 Alpha virt. eigenvalues --    7.17787   7.20807   7.22972   7.23479   7.27426
 Alpha virt. eigenvalues --    7.28099   7.32306   7.34443   7.36898   7.42836
 Alpha virt. eigenvalues --    7.43330   7.45156   7.46145   7.49278   7.50196
 Alpha virt. eigenvalues --    7.52239   7.54559   7.54908   7.59806   7.62325
 Alpha virt. eigenvalues --    7.67283   7.67514   7.70232   7.73575   7.75565
 Alpha virt. eigenvalues --    7.78149   7.79644   7.80897   7.82612   7.85338
 Alpha virt. eigenvalues --    7.87215   7.88921   7.91567   7.94514   7.95111
 Alpha virt. eigenvalues --    7.96972   7.99728   8.00478   8.02475   8.04980
 Alpha virt. eigenvalues --    8.07151   8.10199   8.12264   8.14390   8.15329
 Alpha virt. eigenvalues --    8.17959   8.19121   8.20959   8.23521   8.23928
 Alpha virt. eigenvalues --    8.25134   8.26284   8.28693   8.30785   8.31108
 Alpha virt. eigenvalues --    8.33001   8.34753   8.35992   8.39294   8.41909
 Alpha virt. eigenvalues --    8.44323   8.45408   8.47193   8.49039   8.50314
 Alpha virt. eigenvalues --    8.52572   8.55894   8.56499   8.58607   8.60874
 Alpha virt. eigenvalues --    8.62627   8.64735   8.66806   8.69017   8.71602
 Alpha virt. eigenvalues --    8.73389   8.75525   8.76211   8.78204   8.81483
 Alpha virt. eigenvalues --    8.84673   8.84999   8.87771   8.88415   8.91510
 Alpha virt. eigenvalues --    8.93332   8.94425   8.95890   8.96868   8.98416
 Alpha virt. eigenvalues --    9.01616   9.02743   9.04654   9.11692   9.12723
 Alpha virt. eigenvalues --    9.14130   9.18446   9.22786   9.24279   9.29355
 Alpha virt. eigenvalues --    9.31907   9.36199   9.37766   9.43465   9.45628
 Alpha virt. eigenvalues --    9.50041   9.51738   9.55458   9.58101   9.65820
 Alpha virt. eigenvalues --    9.67725   9.71346   9.74174   9.77813   9.84248
 Alpha virt. eigenvalues --    9.89450   9.92034   9.95251   9.96988  10.00089
 Alpha virt. eigenvalues --   10.12595  10.18410  10.22172  10.26720  10.30495
 Alpha virt. eigenvalues --   10.41398  10.50244  10.60748  10.62854  10.67277
 Alpha virt. eigenvalues --   10.77279  10.80807  10.82677  10.91953  10.94951
 Alpha virt. eigenvalues --   11.00960  11.05655  11.18956  11.21969  11.25562
 Alpha virt. eigenvalues --   11.47783  11.66176  11.75349  11.87494  11.91852
 Alpha virt. eigenvalues --   11.96394  11.99617  12.10798  12.33052  12.88807
 Alpha virt. eigenvalues --   13.10372  13.24619  13.26200  29.17253  29.40386
 Alpha virt. eigenvalues --   29.72352  29.80309 148.81035 149.08677 149.43541
 Alpha virt. eigenvalues --  149.59848
          Condensed to atoms (all electrons):
               1          2          3          4          5          6
     1  C    4.737675   0.367078   0.388982   0.393574   0.372226  -0.068609
     2  C    0.367078   5.149576  -0.040878  -0.038502  -0.023973   0.352137
     3  H    0.388982  -0.040878   0.670744  -0.042291  -0.029121   0.010324
     4  H    0.393574  -0.038502  -0.042291   0.626412  -0.021587  -0.005077
     5  H    0.372226  -0.023973  -0.029121  -0.021587   0.684502  -0.005097
     6  C   -0.068609   0.352137   0.010324  -0.005077  -0.005097   4.919166
     7  H   -0.011245   0.408230  -0.003856   0.000418   0.004016  -0.085460
     8  H   -0.023720   0.352022  -0.000030   0.003326   0.000004  -0.027090
     9  C    0.012904  -0.058581  -0.000858  -0.000236   0.000142   0.316377
    10  H    0.000097  -0.063904  -0.000402   0.000572   0.001981   0.404334
    11  H   -0.016557  -0.019221   0.000687   0.000890   0.000601   0.433276
    12  H   -0.000775  -0.006895   0.000037  -0.000031   0.000004  -0.055444
    13  H   -0.001095   0.010506   0.000048   0.000016   0.000000  -0.044822
    14  H    0.000773  -0.008866   0.000014   0.000016  -0.000046  -0.040230
               7          8          9         10         11         12
     1  C   -0.011245  -0.023720   0.012904   0.000097  -0.016557  -0.000775
     2  C    0.408230   0.352022  -0.058581  -0.063904  -0.019221  -0.006895
     3  H   -0.003856  -0.000030  -0.000858  -0.000402   0.000687   0.000037
     4  H    0.000418   0.003326  -0.000236   0.000572   0.000890  -0.000031
     5  H    0.004016   0.000004   0.000142   0.001981   0.000601   0.000004
     6  C   -0.085460  -0.027090   0.316377   0.404334   0.433276  -0.055444
     7  H    0.336926  -0.003410  -0.010276   0.018603  -0.010081  -0.001600
     8  H   -0.003410   0.670704  -0.006522  -0.004529   0.007821   0.005634
     9  C   -0.010276  -0.006522   4.912546  -0.031242  -0.093343   0.440008
    10  H    0.018603  -0.004529  -0.031242   0.708369  -0.068747  -0.010048
    11  H   -0.010081   0.007821  -0.093343  -0.068747   0.656030   0.025126
    12  H   -0.001600   0.005634   0.440008  -0.010048   0.025126   0.518933
    13  H   -0.000511   0.000361   0.410891  -0.006192  -0.010419  -0.056578
    14  H    0.009551  -0.000179   0.384619   0.009278  -0.010862  -0.012846
              13         14
     1  C   -0.001095   0.000773
     2  C    0.010506  -0.008866
     3  H    0.000048   0.000014
     4  H    0.000016   0.000016
     5  H    0.000000  -0.000046
     6  C   -0.044822  -0.040230
     7  H   -0.000511   0.009551
     8  H    0.000361  -0.000179
     9  C    0.410891   0.384619
    10  H   -0.006192   0.009278
    11  H   -0.010419  -0.010862
    12  H   -0.056578  -0.012846
    13  H    0.667178  -0.012635
    14  H   -0.012635   0.635270
 Mulliken charges:
               1
     1  C   -0.151307
     2  C   -0.378729
     3  H    0.046599
     4  H    0.082502
     5  H    0.016349
     6  C   -0.103787
     7  H    0.348696
     8  H    0.025609
     9  C   -0.276430
    10  H    0.041830
    11  H    0.104798
    12  H    0.154474
    13  H    0.043251
    14  H    0.046144
 Sum of Mulliken charges =   0.00000
 Mulliken charges with hydrogens summed into heavy atoms:
               1
     1  C   -0.005857
     2  C   -0.004424
     6  C    0.042841
     9  C   -0.032560
 Electronic spatial extent (au):  <R**2>=            422.0216
 Charge=              0.0000 electrons
 Dipole moment (field-independent basis, Debye):
    X=             -0.3240    Y=             -0.2518    Z=             -0.1628  Tot=              0.4415
 Quadrupole moment (field-independent basis, Debye-Ang):
   XX=            -29.9156   YY=            -29.4117   ZZ=            -27.6789
   XY=              0.4984   XZ=             -1.4841   YZ=              0.0327
 Traceless Quadrupole moment (field-independent basis, Debye-Ang):
   XX=             -0.9136   YY=             -0.4096   ZZ=              1.3232
   XY=              0.4984   XZ=             -1.4841   YZ=              0.0327
 Octapole moment (field-independent basis, Debye-Ang**2):
  XXX=              0.1388  YYY=             -1.5041  ZZZ=             -0.7097  XYY=             -1.9393
  XXY=             -2.5800  XXZ=              1.8262  XZZ=             -0.7672  YZZ=             -0.1154
  YYZ=              0.1775  XYZ=              0.8488
 Hexadecapole moment (field-independent basis, Debye-Ang**3):
 XXXX=           -458.3063 YYYY=            -99.5414 ZZZZ=            -66.1170 XXXY=              9.1591
 XXXZ=            -16.1744 YYYX=              3.2013 YYYZ=              1.8867 ZZZX=             -4.6166
 ZZZY=             -0.5852 XXYY=            -90.9995 XXZZ=            -84.9178 YYZZ=            -24.2509
 XXYZ=             -2.3033 YYXZ=             -1.5600 ZZXY=             -1.8527
 N-N= 1.320852165651D+02 E-N=-6.300116399118D+02  KE= 1.584498219340D+02
 Leave Link  601 at Wed Aug 26 22:25:49 2020, MaxMem=  2097152000 cpu:         1.2
 (Enter /opt/cluster/programs/g09/g09_d.01/g09/l9999.exe)
 1\1\GINC-NODE06\SP\RB2PLYPD3-FC\def2QZVP\C4H10\BOITTIER\26-Aug-2020\0\
 \#p B2PLYPD3/Def2QZVP\\butane_opt\\0,1\C,0,-3.943567,0.316542,-0.12837
 2\C,0,-2.647121,-0.730292,0.187033\H,0,-4.876022,-0.211045,-0.289021\H
 ,0,-3.818507,0.874926,-0.963792\H,0,-4.290885,1.10245,0.936383\C,0,-1.
 431244,0.185909,0.136767\H,0,-2.363124,-1.035854,-0.485848\H,0,-2.6396
 77,-1.646002,1.348068\C,0,-0.177932,-0.640254,-0.112427\H,0,-1.392303,
 0.745891,0.935698\H,0,-1.180187,0.609594,-0.633297\H,0,-0.123415,-1.05
 3876,0.623873\H,0,0.601365,-0.01568,0.0962\H,0,-0.510665,-1.443158,-1.
 130477\\Version=ES64L-G09RevD.01\State=1-A\HF=-157.718977\MP2=-157.971
 1057\RMSD=4.639e-09\PG=C01 [X(C4H10)]\\@


 The mind is not a vessel to be filled but a fire to be kindled.
                                  -- Plutarch
 Job cpu time:       0 days  1 hours 38 minutes 44.5 seconds.
 File lengths (MBytes):  RWF=    152 Int=      0 D2E=      0 Chk=     14 Scr=      1
 Normal termination of Gaussian 09 at Wed Aug 26 22:25:50 2020.
