 Entering Gaussian System, Link 0=/opt/cluster/programs/g09/g09_d.01/g09//g09
 Input=/home/boittier/MDCM/nms_sampling/butane_geom.xyz.dir/energies/butane_opt_1168_energy.com
 Output=/scratch/boittier/butane_opt_1168_energy/butane_opt_1168_energy.out
 Initial command:
 /opt/cluster/programs/g09/g09_d.01/g09/l1.exe "/scratch/boittier/butane_opt_1168_energy/Gau-47225.inp" -scrdir="/scratch/boittier/butane_opt_1168_energy/"
 Entering Link 1 = /opt/cluster/programs/g09/g09_d.01/g09/l1.exe PID=     47226.
  
 Copyright (c) 1988,1990,1992,1993,1995,1998,2003,2009,2013,
            Gaussian, Inc.  All Rights Reserved.
  
 This is part of the Gaussian(R) 09 program.  It is based on
 the Gaussian(R) 03 system (copyright 2003, Gaussian, Inc.),
 the Gaussian(R) 98 system (copyright 1998, Gaussian, Inc.),
 the Gaussian(R) 94 system (copyright 1995, Gaussian, Inc.),
 the Gaussian 92(TM) system (copyright 1992, Gaussian, Inc.),
 the Gaussian 90(TM) system (copyright 1990, Gaussian, Inc.),
 the Gaussian 88(TM) system (copyright 1988, Gaussian, Inc.),
 the Gaussian 86(TM) system (copyright 1986, Carnegie Mellon
 University), and the Gaussian 82(TM) system (copyright 1983,
 Carnegie Mellon University). Gaussian is a federally registered
 trademark of Gaussian, Inc.
  
 This software contains proprietary and confidential information,
 including trade secrets, belonging to Gaussian, Inc.
  
 This software is provided under written license and may be
 used, copied, transmitted, or stored only in accord with that
 written license.
  
 The following legend is applicable only to US Government
 contracts under FAR:
  
                    RESTRICTED RIGHTS LEGEND
  
 Use, reproduction and disclosure by the US Government is
 subject to restrictions as set forth in subparagraphs (a)
 and (c) of the Commercial Computer Software - Restricted
 Rights clause in FAR 52.227-19.
  
 Gaussian, Inc.
 340 Quinnipiac St., Bldg. 40, Wallingford CT 06492
  
  
 ---------------------------------------------------------------
 Warning -- This program may not be used in any manner that
 competes with the business of Gaussian, Inc. or will provide
 assistance to any competitor of Gaussian, Inc.  The licensee
 of this program is prohibited from giving any competitor of
 Gaussian, Inc. access to this program.  By using this program,
 the user acknowledges that Gaussian, Inc. is engaged in the
 business of creating and licensing software in the field of
 computational chemistry and represents and warrants to the
 licensee that it is not a competitor of Gaussian, Inc. and that
 it will not use this program in any manner prohibited above.
 ---------------------------------------------------------------
  

 Cite this work as:
 Gaussian 09, Revision D.01,
 M. J. Frisch, G. W. Trucks, H. B. Schlegel, G. E. Scuseria, 
 M. A. Robb, J. R. Cheeseman, G. Scalmani, V. Barone, B. Mennucci, 
 G. A. Petersson, H. Nakatsuji, M. Caricato, X. Li, H. P. Hratchian, 
 A. F. Izmaylov, J. Bloino, G. Zheng, J. L. Sonnenberg, M. Hada, 
 M. Ehara, K. Toyota, R. Fukuda, J. Hasegawa, M. Ishida, T. Nakajima, 
 Y. Honda, O. Kitao, H. Nakai, T. Vreven, J. A. Montgomery, Jr., 
 J. E. Peralta, F. Ogliaro, M. Bearpark, J. J. Heyd, E. Brothers, 
 K. N. Kudin, V. N. Staroverov, T. Keith, R. Kobayashi, J. Normand, 
 K. Raghavachari, A. Rendell, J. C. Burant, S. S. Iyengar, J. Tomasi, 
 M. Cossi, N. Rega, J. M. Millam, M. Klene, J. E. Knox, J. B. Cross, 
 V. Bakken, C. Adamo, J. Jaramillo, R. Gomperts, R. E. Stratmann, 
 O. Yazyev, A. J. Austin, R. Cammi, C. Pomelli, J. W. Ochterski, 
 R. L. Martin, K. Morokuma, V. G. Zakrzewski, G. A. Voth, 
 P. Salvador, J. J. Dannenberg, S. Dapprich, A. D. Daniels, 
 O. Farkas, J. B. Foresman, J. V. Ortiz, J. Cioslowski, 
 and D. J. Fox, Gaussian, Inc., Wallingford CT, 2013.
 
 ******************************************
 Gaussian 09:  ES64L-G09RevD.01 24-Apr-2013
                26-Aug-2020 
 ******************************************
 %chk=/home/boittier/MDCM/nms_sampling/butane_geom.xyz.dir/butane_opt_1168.chk
 %nproc=8
 Will use up to    8 processors via shared memory.
 %mem=16000MB
 --------------------
 #p B2PLYPD3/Def2QZVP
 --------------------
 1/38=1/1;
 2/12=2,17=6,18=5,40=1/2;
 3/5=45,7=101,11=9,16=1,25=1,30=1,74=-60/1,2,3;
 4//1;
 5/5=2,38=5/2;
 8/10=1/1;
 9/16=-3/6;
 6/7=2,8=2,9=2,10=2/1;
 99/5=1,9=1/99;
 Leave Link    1 at Wed Aug 26 10:09:47 2020, MaxMem=  2097152000 cpu:         0.2
 (Enter /opt/cluster/programs/g09/g09_d.01/g09/l101.exe)
 ----------
 butane_opt
 ----------
 Symbolic Z-matrix:
 Charge =  0 Multiplicity = 1
 C                    -3.98799   0.24823  -0.13186 
 C                    -2.72968  -0.63751   0.31433 
 H                    -4.90013  -0.32199  -0.82441 
 H                    -3.38539   0.67529  -0.94351 
 H                    -4.53696   1.18489   0.82012 
 C                    -1.36958   0.31659   0.08906 
 H                    -2.62965  -1.11636  -0.45669 
 H                    -3.00764  -1.45166   1.28861 
 C                    -0.15278  -0.76216  -0.12196 
 H                    -1.08769   1.00078   1.04913 
 H                    -1.41578   0.48868  -0.58514 
 H                     0.2846   -1.26601   0.50908 
 H                     0.77506  -0.17639  -0.07948 
 H                    -0.23252  -1.45866  -1.08042 
 
 NAtoms=     14 NQM=       14 NQMF=       0 NMMI=      0 NMMIF=      0
                NMic=       0 NMicF=      0.
                    Isotopes and Nuclear Properties:
 (Nuclear quadrupole moments (NQMom) in fm**2, nuclear magnetic moments (NMagM)
  in nuclear magnetons)

  Atom         1           2           3           4           5           6           7           8           9          10
 IAtWgt=          12          12           1           1           1          12           1           1          12           1
 AtmWgt=  12.0000000  12.0000000   1.0078250   1.0078250   1.0078250  12.0000000   1.0078250   1.0078250  12.0000000   1.0078250
 NucSpn=           0           0           1           1           1           0           1           1           0           1
 AtZEff=   0.0000000   0.0000000   0.0000000   0.0000000   0.0000000   0.0000000   0.0000000   0.0000000   0.0000000   0.0000000
 NQMom=    0.0000000   0.0000000   0.0000000   0.0000000   0.0000000   0.0000000   0.0000000   0.0000000   0.0000000   0.0000000
 NMagM=    0.0000000   0.0000000   2.7928460   2.7928460   2.7928460   0.0000000   2.7928460   2.7928460   0.0000000   2.7928460
 AtZNuc=   6.0000000   6.0000000   1.0000000   1.0000000   1.0000000   6.0000000   1.0000000   1.0000000   6.0000000   1.0000000

  Atom        11          12          13          14
 IAtWgt=           1           1           1           1
 AtmWgt=   1.0078250   1.0078250   1.0078250   1.0078250
 NucSpn=           1           1           1           1
 AtZEff=   0.0000000   0.0000000   0.0000000   0.0000000
 NQMom=    0.0000000   0.0000000   0.0000000   0.0000000
 NMagM=    2.7928460   2.7928460   2.7928460   2.7928460
 AtZNuc=   1.0000000   1.0000000   1.0000000   1.0000000
 Leave Link  101 at Wed Aug 26 10:09:47 2020, MaxMem=  2097152000 cpu:         0.5
 (Enter /opt/cluster/programs/g09/g09_d.01/g09/l202.exe)
                          Input orientation:                          
 ---------------------------------------------------------------------
 Center     Atomic      Atomic             Coordinates (Angstroms)
 Number     Number       Type             X           Y           Z
 ---------------------------------------------------------------------
      1          6           0       -3.987991    0.248234   -0.131863
      2          6           0       -2.729675   -0.637505    0.314327
      3          1           0       -4.900128   -0.321991   -0.824406
      4          1           0       -3.385388    0.675294   -0.943505
      5          1           0       -4.536959    1.184893    0.820122
      6          6           0       -1.369575    0.316585    0.089057
      7          1           0       -2.629650   -1.116361   -0.456689
      8          1           0       -3.007642   -1.451661    1.288607
      9          6           0       -0.152780   -0.762164   -0.121957
     10          1           0       -1.087693    1.000781    1.049135
     11          1           0       -1.415776    0.488680   -0.585144
     12          1           0        0.284597   -1.266008    0.509076
     13          1           0        0.775058   -0.176385   -0.079475
     14          1           0       -0.232517   -1.458655   -1.080417
 ---------------------------------------------------------------------
                    Distance matrix (angstroms):
                    1          2          3          4          5
     1  C    0.000000
     2  C    1.602179   0.000000
     3  H    1.279362   2.471260   0.000000
     4  H    1.097394   1.932755   1.817471   0.000000
     5  H    1.443943   2.615958   2.259881   2.167069   0.000000
     6  C    2.628608   1.676576   3.702296   2.293111   3.364630
     7  H    1.952619   0.913112   2.433374   2.004534   3.250207
     8  H    2.422491   1.299745   3.053274   3.106276   3.083781
     9  C    3.966087   2.616538   4.819180   3.631939   4.888719
    10  H    3.220685   2.433111   4.449106   3.058751   3.461760
    11  H    2.622893   1.950300   3.585407   2.010626   3.493031
    12  H    4.578072   3.085252   5.436057   4.398572   5.417663
    13  H    4.782226   3.556805   5.725719   4.333730   5.556967
    14  H    4.232825   2.975802   4.810836   3.809603   5.397093
                    6          7          8          9         10
     6  C    0.000000
     7  H    1.984682   0.000000
     8  H    2.692374   1.816965   0.000000
     9  C    1.639761   2.524359   3.258118   0.000000
    10  H    1.212160   3.021163   3.123783   2.313762   0.000000
    11  H    0.697351   2.016469   3.132077   1.836930   1.743776
    12  H    2.327510   3.073749   3.388358   0.918346   2.704288
    13  H    2.207005   3.552166   4.219810   1.098101   2.475747
    14  H    2.410819   2.500490   3.648786   1.187478   3.363799
                   11         12         13         14
    11  H    0.000000
    12  H    2.677222   0.000000
    13  H    2.344732   1.331999   0.000000
    14  H    2.331847   1.682560   1.913455   0.000000
 Stoichiometry    C4H10
 Framework group  C1[X(C4H10)]
 Deg. of freedom    36
 Full point group                 C1      NOp   1
 Largest Abelian subgroup         C1      NOp   1
 Largest concise Abelian subgroup C1      NOp   1
                         Standard orientation:                         
 ---------------------------------------------------------------------
 Center     Atomic      Atomic             Coordinates (Angstroms)
 Number     Number       Type             X           Y           Z
 ---------------------------------------------------------------------
      1          6           0       -1.993147    0.095422   -0.170086
      2          6           0       -0.597647   -0.518621    0.322364
      3          1           0       -2.780574   -0.670339   -0.826086
      4          1           0       -1.472560    0.578536   -1.006664
      5          1           0       -2.711085    0.968603    0.728297
      6          6           0        0.567021    0.653560    0.038727
      7          1           0       -0.406052   -1.014205   -0.420240
      8          1           0       -0.729606   -1.313100    1.342524
      9          6           0        1.961898   -0.194897   -0.113760
     10          1           0        0.711979    1.431232    0.957173
     11          1           0        0.495254    0.775679   -0.644087
     12          1           0        2.479157   -0.573607    0.543798
     13          1           0        2.766822    0.552021   -0.107689
     14          1           0        2.017913   -0.947606   -1.030491
 ---------------------------------------------------------------------
 Rotational constants (GHZ):     19.1712462      3.4259468      3.2276671
 Leave Link  202 at Wed Aug 26 10:09:47 2020, MaxMem=  2097152000 cpu:         0.0
 (Enter /opt/cluster/programs/g09/g09_d.01/g09/l301.exe)
 Standard basis: def2QZVP (5D, 7F)
 Ernie: Thresh=  0.10000D-02 Tol=  0.10000D-05 Strict=F.
 There are   638 symmetry adapted cartesian basis functions of A   symmetry.
 There are   528 symmetry adapted basis functions of A   symmetry.
   528 basis functions,   748 primitive gaussians,   638 cartesian basis functions
    17 alpha electrons       17 beta electrons
       nuclear repulsion energy       127.2384075553 Hartrees.
 IExCor=  419 DFT=T Ex+Corr=B2PLYPD3 ExCW=0 ScaHFX=  0.530000
 ScaDFX=  0.470000  0.470000  0.730000  0.730000 ScalE2=  0.270000  0.270000
 IRadAn=      0 IRanWt=     -1 IRanGd=            0 ICorTp=0 IEmpDi=141
 NAtoms=   14 NActive=   14 NUniq=   14 SFac= 1.00D+00 NAtFMM=   60 NAOKFM=F Big=F
 Integral buffers will be    131072 words long.
 Regular integral format.
 Two-electron integral symmetry is turned on.
 R6Disp:  Grimme-D3(BJ) Dispersion energy=       -0.0065663348 Hartrees.
 Nuclear repulsion after empirical dispersion term =      127.2318412204 Hartrees.
 Leave Link  301 at Wed Aug 26 10:09:47 2020, MaxMem=  2097152000 cpu:         0.4
 (Enter /opt/cluster/programs/g09/g09_d.01/g09/l302.exe)
 NPDir=0 NMtPBC=     1 NCelOv=     1 NCel=       1 NClECP=     1 NCelD=      1
         NCelK=      1 NCelE2=     1 NClLst=     1 CellRange=     0.0.
 One-electron integrals computed using PRISM.
   1 Symmetry operations used in ECPInt.
 ECPInt:  NShTT=   14196 NPrTT=   30597 LenC2=   13796 LenP2D=   25670.
 LDataN:  DoStor=T MaxTD1= 8 Len=  415
 NBasis=   528 RedAO= T EigKep=  1.74D-05  NBF=   528
 NBsUse=   528 1.00D-06 EigRej= -1.00D+00 NBFU=   528
 Precomputing XC quadrature grid using
 IXCGrd= 4 IRadAn=           0 IRanWt=          -1 IRanGd=           0 AccXCQ= 0.00D+00.
 Generated NRdTot=       0 NPtTot=           0 NUsed=           0 NTot=          32
 NSgBfM=   638   638   638   638   638 MxSgAt=    14 MxSgA2=    14.
 Leave Link  302 at Wed Aug 26 10:09:48 2020, MaxMem=  2097152000 cpu:         5.5
 (Enter /opt/cluster/programs/g09/g09_d.01/g09/l303.exe)
 DipDrv:  MaxL=1.
 Leave Link  303 at Wed Aug 26 10:09:48 2020, MaxMem=  2097152000 cpu:         0.5
 (Enter /opt/cluster/programs/g09/g09_d.01/g09/l401.exe)
 ExpMin= 7.60D-02 ExpMax= 6.70D+04 ExpMxC= 6.47D+02 IAcc=2 IRadAn=         4 AccDes= 0.00D+00
 Harris functional with IExCor=  419 and IRadAn=       4 diagonalized for initial guess.
 HarFok:  IExCor=  419 AccDes= 0.00D+00 IRadAn=         4 IDoV= 1 UseB2=F ITyADJ=14
 ICtDFT=  3500011 ScaDFX=  1.000000  1.000000  1.000000  1.000000
 FoFCou: FMM=F IPFlag=           0 FMFlag=      100000 FMFlg1=           0
         NFxFlg=           0 DoJE=T BraDBF=F KetDBF=T FulRan=T
         wScrn=  0.000000 ICntrl=     500 IOpCl=  0 I1Cent=   200000004 NGrid=           0
         NMat0=    1 NMatS0=      1 NMatT0=    0 NMatD0=    1 NMtDS0=    0 NMtDT0=    0
 Petite list used in FoFCou.
 Harris En= -158.218277703497    
 JPrj=0 DoOrth=F DoCkMO=F.
 Leave Link  401 at Wed Aug 26 10:09:50 2020, MaxMem=  2097152000 cpu:        16.8
 (Enter /opt/cluster/programs/g09/g09_d.01/g09/l502.exe)
 Closed shell SCF:
 Using DIIS extrapolation, IDIIS=  1040.
 Integral symmetry usage will be decided dynamically.
 IVT=     1249338 IEndB=     1249338 NGot=  2097152000 MDV=  2096326985
 LenX=  2096326985 LenY=  2095919303
 Requested convergence on RMS density matrix=1.00D-08 within 128 cycles.
 Requested convergence on MAX density matrix=1.00D-06.
 Requested convergence on             energy=1.00D-06.
 No special actions if energy rises.
 Fock matrices will be formed incrementally for  20 cycles.
 Integral accuracy reduced to 1.0D-05 until final iterations.

 Cycle   1  Pass 0  IDiag  1:
 FoFJK:  IHMeth= 1 ICntrl=       0 DoSepK=F KAlg= 0 I1Cent=   0 FoldK=F
 IRaf= 930000000 NMat=   1 IRICut=       1 DoRegI=T DoRafI=F ISym2E= 0.
 FoFCou: FMM=F IPFlag=           0 FMFlag=      100000 FMFlg1=           0
         NFxFlg=           0 DoJE=F BraDBF=F KetDBF=F FulRan=T
         wScrn=  0.000000 ICntrl=       0 IOpCl=  0 I1Cent=           0 NGrid=           0
         NMat0=    1 NMatS0=      1 NMatT0=    0 NMatD0=    1 NMtDS0=    0 NMtDT0=    0
 Symmetry not used in FoFCou.
 E= -157.371236079599    
 DIIS: error= 2.56D-02 at cycle   1 NSaved=   1.
 NSaved= 1 IEnMin= 1 EnMin= -157.371236079599     IErMin= 1 ErrMin= 2.56D-02
 ErrMax= 2.56D-02  0.00D+00 EMaxC= 1.00D-01 BMatC= 3.68D-01 BMatP= 3.68D-01
 IDIUse=3 WtCom= 7.44D-01 WtEn= 2.56D-01
 Coeff-Com:  0.100D+01
 Coeff-En:   0.100D+01
 Coeff:      0.100D+01
 Gap=     0.444 Goal=   None    Shift=    0.000
 GapD=    0.444 DampG=2.000 DampE=0.500 DampFc=1.0000 IDamp=-1.
 RMSDP=1.12D-03 MaxDP=6.48D-02              OVMax= 2.11D-01

 Cycle   2  Pass 0  IDiag  1:
 RMSU=  1.06D-03    CP:  8.84D-01
 E= -157.459201837847     Delta-E=       -0.087965758248 Rises=F Damp=F
 DIIS: error= 2.56D-02 at cycle   2 NSaved=   2.
 NSaved= 2 IEnMin= 2 EnMin= -157.459201837847     IErMin= 2 ErrMin= 2.56D-02
 ErrMax= 2.56D-02  0.00D+00 EMaxC= 1.00D-01 BMatC= 1.90D-01 BMatP= 3.68D-01
 IDIUse=3 WtCom= 7.44D-01 WtEn= 2.56D-01
 Coeff-Com:  0.407D+00 0.593D+00
 Coeff-En:   0.396D+00 0.604D+00
 Coeff:      0.404D+00 0.596D+00
 Gap=     0.429 Goal=   None    Shift=    0.000
 RMSDP=7.12D-04 MaxDP=3.99D-02 DE=-8.80D-02 OVMax= 1.16D-01

 Cycle   3  Pass 0  IDiag  1:
 RMSU=  3.04D-04    CP:  9.25D-01  4.06D-01
 E= -157.660337589690     Delta-E=       -0.201135751843 Rises=F Damp=F
 DIIS: error= 3.28D-03 at cycle   3 NSaved=   3.
 NSaved= 3 IEnMin= 3 EnMin= -157.660337589690     IErMin= 3 ErrMin= 3.28D-03
 ErrMax= 3.28D-03  0.00D+00 EMaxC= 1.00D-01 BMatC= 5.19D-03 BMatP= 1.90D-01
 IDIUse=3 WtCom= 9.67D-01 WtEn= 3.28D-02
 Coeff-Com:  0.102D-01 0.138D+00 0.852D+00
 Coeff-En:   0.000D+00 0.000D+00 0.100D+01
 Coeff:      0.983D-02 0.133D+00 0.857D+00
 Gap=     0.394 Goal=   None    Shift=    0.000
 RMSDP=8.90D-05 MaxDP=8.06D-03 DE=-2.01D-01 OVMax= 1.99D-02

 Cycle   4  Pass 0  IDiag  1:
 RMSU=  6.51D-05    CP:  9.18D-01  4.58D-01  9.75D-01
 E= -157.665854364709     Delta-E=       -0.005516775019 Rises=F Damp=F
 DIIS: error= 6.97D-04 at cycle   4 NSaved=   4.
 NSaved= 4 IEnMin= 4 EnMin= -157.665854364709     IErMin= 4 ErrMin= 6.97D-04
 ErrMax= 6.97D-04  0.00D+00 EMaxC= 1.00D-01 BMatC= 2.50D-04 BMatP= 5.19D-03
 IDIUse=3 WtCom= 9.93D-01 WtEn= 6.97D-03
 Coeff-Com: -0.728D-02 0.215D-01 0.256D+00 0.730D+00
 Coeff-En:   0.000D+00 0.000D+00 0.000D+00 0.100D+01
 Coeff:     -0.723D-02 0.214D-01 0.254D+00 0.732D+00
 Gap=     0.392 Goal=   None    Shift=    0.000
 RMSDP=2.23D-05 MaxDP=1.90D-03 DE=-5.52D-03 OVMax= 5.30D-03

 Cycle   5  Pass 0  IDiag  1:
 RMSU=  1.63D-05    CP:  9.18D-01  4.51D-01  1.01D+00  8.78D-01
 E= -157.666085718726     Delta-E=       -0.000231354018 Rises=F Damp=F
 DIIS: error= 2.74D-04 at cycle   5 NSaved=   5.
 NSaved= 5 IEnMin= 5 EnMin= -157.666085718726     IErMin= 5 ErrMin= 2.74D-04
 ErrMax= 2.74D-04  0.00D+00 EMaxC= 1.00D-01 BMatC= 3.16D-05 BMatP= 2.50D-04
 IDIUse=3 WtCom= 9.97D-01 WtEn= 2.74D-03
 Coeff-Com: -0.332D-02-0.454D-03 0.492D-01 0.303D+00 0.651D+00
 Coeff-En:   0.000D+00 0.000D+00 0.000D+00 0.000D+00 0.100D+01
 Coeff:     -0.331D-02-0.452D-03 0.491D-01 0.303D+00 0.652D+00
 Gap=     0.393 Goal=   None    Shift=    0.000
 RMSDP=6.51D-06 MaxDP=4.38D-04 DE=-2.31D-04 OVMax= 1.27D-03

 Initial convergence to 1.0D-05 achieved.  Increase integral accuracy.
 Cycle   6  Pass 1  IDiag  1:
 E= -157.666128108262     Delta-E=       -0.000042389535 Rises=F Damp=F
 DIIS: error= 4.62D-05 at cycle   1 NSaved=   1.
 NSaved= 1 IEnMin= 1 EnMin= -157.666128108262     IErMin= 1 ErrMin= 4.62D-05
 ErrMax= 4.62D-05  0.00D+00 EMaxC= 1.00D-01 BMatC= 1.03D-06 BMatP= 1.03D-06
 IDIUse=1 WtCom= 1.00D+00 WtEn= 0.00D+00
 Coeff-Com:  0.100D+01
 Coeff:      0.100D+01
 Gap=     0.393 Goal=   None    Shift=    0.000
 RMSDP=6.51D-06 MaxDP=4.38D-04 DE=-4.24D-05 OVMax= 3.71D-04

 Cycle   7  Pass 1  IDiag  1:
 RMSU=  2.41D-05    CP:  1.00D+00
 E= -157.666128870846     Delta-E=       -0.000000762585 Rises=F Damp=F
 DIIS: error= 2.42D-05 at cycle   2 NSaved=   2.
 NSaved= 2 IEnMin= 2 EnMin= -157.666128870846     IErMin= 2 ErrMin= 2.42D-05
 ErrMax= 2.42D-05  0.00D+00 EMaxC= 1.00D-01 BMatC= 2.65D-07 BMatP= 1.03D-06
 IDIUse=1 WtCom= 1.00D+00 WtEn= 0.00D+00
 Coeff-Com:  0.277D+00 0.723D+00
 Coeff:      0.277D+00 0.723D+00
 Gap=     0.393 Goal=   None    Shift=    0.000
 RMSDP=9.68D-07 MaxDP=6.50D-05 DE=-7.63D-07 OVMax= 1.89D-04

 Cycle   8  Pass 1  IDiag  1:
 RMSU=  7.87D-07    CP:  1.00D+00  1.02D+00
 E= -157.666129110748     Delta-E=       -0.000000239901 Rises=F Damp=F
 DIIS: error= 1.10D-05 at cycle   3 NSaved=   3.
 NSaved= 3 IEnMin= 3 EnMin= -157.666129110748     IErMin= 3 ErrMin= 1.10D-05
 ErrMax= 1.10D-05  0.00D+00 EMaxC= 1.00D-01 BMatC= 5.85D-08 BMatP= 2.65D-07
 IDIUse=1 WtCom= 1.00D+00 WtEn= 0.00D+00
 Coeff-Com: -0.322D-01 0.298D+00 0.734D+00
 Coeff:     -0.322D-01 0.298D+00 0.734D+00
 Gap=     0.393 Goal=   None    Shift=    0.000
 RMSDP=3.93D-07 MaxDP=2.92D-05 DE=-2.40D-07 OVMax= 7.37D-05

 Cycle   9  Pass 1  IDiag  1:
 RMSU=  2.57D-07    CP:  1.00D+00  1.03D+00  8.56D-01
 E= -157.666129176947     Delta-E=       -0.000000066199 Rises=F Damp=F
 DIIS: error= 1.06D-06 at cycle   4 NSaved=   4.
 NSaved= 4 IEnMin= 4 EnMin= -157.666129176947     IErMin= 4 ErrMin= 1.06D-06
 ErrMax= 1.06D-06  0.00D+00 EMaxC= 1.00D-01 BMatC= 7.80D-10 BMatP= 5.85D-08
 IDIUse=1 WtCom= 1.00D+00 WtEn= 0.00D+00
 Coeff-Com: -0.163D-01-0.444D-02 0.640D-01 0.957D+00
 Coeff:     -0.163D-01-0.444D-02 0.640D-01 0.957D+00
 Gap=     0.393 Goal=   None    Shift=    0.000
 RMSDP=7.30D-08 MaxDP=5.01D-06 DE=-6.62D-08 OVMax= 1.34D-05

 Cycle  10  Pass 1  IDiag  1:
 RMSU=  5.02D-08    CP:  1.00D+00  1.04D+00  8.97D-01  1.16D+00
 E= -157.666129178391     Delta-E=       -0.000000001445 Rises=F Damp=F
 DIIS: error= 3.41D-07 at cycle   5 NSaved=   5.
 NSaved= 5 IEnMin= 5 EnMin= -157.666129178391     IErMin= 5 ErrMin= 3.41D-07
 ErrMax= 3.41D-07  0.00D+00 EMaxC= 1.00D-01 BMatC= 5.71D-11 BMatP= 7.80D-10
 IDIUse=1 WtCom= 1.00D+00 WtEn= 0.00D+00
 Coeff-Com:  0.824D-03-0.257D-01-0.557D-01 0.112D+00 0.969D+00
 Coeff:      0.824D-03-0.257D-01-0.557D-01 0.112D+00 0.969D+00
 Gap=     0.393 Goal=   None    Shift=    0.000
 RMSDP=2.49D-08 MaxDP=1.33D-06 DE=-1.44D-09 OVMax= 4.31D-06

 Cycle  11  Pass 1  IDiag  1:
 RMSU=  1.41D-08    CP:  1.00D+00  1.03D+00  9.04D-01  1.21D+00  1.18D+00
 E= -157.666129178492     Delta-E=       -0.000000000101 Rises=F Damp=F
 DIIS: error= 9.17D-08 at cycle   6 NSaved=   6.
 NSaved= 6 IEnMin= 6 EnMin= -157.666129178492     IErMin= 6 ErrMin= 9.17D-08
 ErrMax= 9.17D-08  0.00D+00 EMaxC= 1.00D-01 BMatC= 5.55D-12 BMatP= 5.71D-11
 IDIUse=1 WtCom= 1.00D+00 WtEn= 0.00D+00
 Coeff-Com:  0.661D-03-0.974D-02-0.224D-01 0.269D-01 0.380D+00 0.625D+00
 Coeff:      0.661D-03-0.974D-02-0.224D-01 0.269D-01 0.380D+00 0.625D+00
 Gap=     0.393 Goal=   None    Shift=    0.000
 RMSDP=3.21D-09 MaxDP=1.72D-07 DE=-1.01D-10 OVMax= 7.88D-07

 SCF Done:  E(RB2PLYPD3) =  -157.666129178     A.U. after   11 cycles
            NFock= 11  Conv=0.32D-08     -V/T= 1.9995
 KE= 1.577495848794D+02 PE=-6.196024998359D+02 EE= 1.769549445575D+02
 Leave Link  502 at Wed Aug 26 10:16:31 2020, MaxMem=  2097152000 cpu:      3201.5
 (Enter /opt/cluster/programs/g09/g09_d.01/g09/l801.exe)
 DoSCS=T DFT=T ScalE2(SS,OS)=  0.270000  0.270000
 ExpMin= 7.60D-02 ExpMax= 6.70D+04 ExpMxC= 6.47D+02 IAcc=3 IRadAn=         5 AccDes= 0.00D+00
 HarFok:  IExCor=  205 AccDes= 0.00D+00 IRadAn=         5 IDoV=-2 UseB2=F ITyADJ=14
 ICtDFT= 12500011 ScaDFX=  1.000000  1.000000  1.000000  1.000000
 Largest valence mixing into a core orbital is  1.26D-04
 Largest core mixing into a valence orbital is  1.59D-05
 Range of M.O.s used for correlation:     5   528
 NBasis=   528 NAE=    17 NBE=    17 NFC=     4 NFV=     0
 NROrb=    524 NOA=    13 NOB=    13 NVA=   511 NVB=   511

 **** Warning!!: The largest alpha MO coefficient is  0.43364448D+02

 Leave Link  801 at Wed Aug 26 10:16:31 2020, MaxMem=  2097152000 cpu:         1.2
 (Enter /opt/cluster/programs/g09/g09_d.01/g09/l906.exe)
 DoSCS=T DFT=T ScalE2(SS,OS)=  0.270000  0.270000
 FulOut=F Deriv=F AODrv=F NAtomX=    14
   MMem=         463  MDisk=          13 MDiskD=          13
  W3Min=     4238234 MinDsk=     6904766 NBas6D=         638
 NBas2D=      205689    NTT=      203841    LW2=     4508827
    MDV=  2095910362 MDiskM=        7293 NBas2p=      187816
 Fully direct method using O(OVN) memory.
 IMap=   1   2   3   4   5   6   7   8   9  10  11  12  13
 JobTyp=1 Pass  1:  I=   1 to  13 NPSUse=  8 ParTrn=T ParDer=T DoDerP=F.
 Spin components of T(2) and E(2):
     alpha-alpha T2 =       0.4357550957D-01 E2=     -0.2672689775D-01
     alpha-beta  T2 =       0.2972590279D+00 E2=     -0.2002519516D+00
     beta-beta   T2 =       0.4357550957D-01 E2=     -0.2672689775D-01
 The integrals were generated   1 times.
 E2(B2PLYPD3) =    -0.2537057471D+00 E(B2PLYPD3) =    -0.15791983492559D+03
 Leave Link  906 at Wed Aug 26 10:21:39 2020, MaxMem=  2097152000 cpu:      2458.6
 (Enter /opt/cluster/programs/g09/g09_d.01/g09/l601.exe)
 Copying SCF densities to generalized density rwf, IOpCl= 0 IROHF=0.

 **********************************************************************

            Population analysis using the SCF density.

 **********************************************************************

 Orbital symmetries:
       Occupied  (A) (A) (A) (A) (A) (A) (A) (A) (A) (A) (A) (A)
                 (A) (A) (A) (A) (A)
       Virtual   (A) (A) (A) (A) (A) (A) (A) (A) (A) (A) (A) (A)
                 (A) (A) (A) (A) (A) (A) (A) (A) (A) (A) (A) (A)
                 (A) (A) (A) (A) (A) (A) (A) (A) (A) (A) (A) (A)
                 (A) (A) (A) (A) (A) (A) (A) (A) (A) (A) (A) (A)
                 (A) (A) (A) (A) (A) (A) (A) (A) (A) (A) (A) (A)
                 (A) (A) (A) (A) (A) (A) (A) (A) (A) (A) (A) (A)
                 (A) (A) (A) (A) (A) (A) (A) (A) (A) (A) (A) (A)
                 (A) (A) (A) (A) (A) (A) (A) (A) (A) (A) (A) (A)
                 (A) (A) (A) (A) (A) (A) (A) (A) (A) (A) (A) (A)
                 (A) (A) (A) (A) (A) (A) (A) (A) (A) (A) (A) (A)
                 (A) (A) (A) (A) (A) (A) (A) (A) (A) (A) (A) (A)
                 (A) (A) (A) (A) (A) (A) (A) (A) (A) (A) (A) (A)
                 (A) (A) (A) (A) (A) (A) (A) (A) (A) (A) (A) (A)
                 (A) (A) (A) (A) (A) (A) (A) (A) (A) (A) (A) (A)
                 (A) (A) (A) (A) (A) (A) (A) (A) (A) (A) (A) (A)
                 (A) (A) (A) (A) (A) (A) (A) (A) (A) (A) (A) (A)
                 (A) (A) (A) (A) (A) (A) (A) (A) (A) (A) (A) (A)
                 (A) (A) (A) (A) (A) (A) (A) (A) (A) (A) (A) (A)
                 (A) (A) (A) (A) (A) (A) (A) (A) (A) (A) (A) (A)
                 (A) (A) (A) (A) (A) (A) (A) (A) (A) (A) (A) (A)
                 (A) (A) (A) (A) (A) (A) (A) (A) (A) (A) (A) (A)
                 (A) (A) (A) (A) (A) (A) (A) (A) (A) (A) (A) (A)
                 (A) (A) (A) (A) (A) (A) (A) (A) (A) (A) (A) (A)
                 (A) (A) (A) (A) (A) (A) (A) (A) (A) (A) (A) (A)
                 (A) (A) (A) (A) (A) (A) (A) (A) (A) (A) (A) (A)
                 (A) (A) (A) (A) (A) (A) (A) (A) (A) (A) (A) (A)
                 (A) (A) (A) (A) (A) (A) (A) (A) (A) (A) (A) (A)
                 (A) (A) (A) (A) (A) (A) (A) (A) (A) (A) (A) (A)
                 (A) (A) (A) (A) (A) (A) (A) (A) (A) (A) (A) (A)
                 (A) (A) (A) (A) (A) (A) (A) (A) (A) (A) (A) (A)
                 (A) (A) (A) (A) (A) (A) (A) (A) (A) (A) (A) (A)
                 (A) (A) (A) (A) (A) (A) (A) (A) (A) (A) (A) (A)
                 (A) (A) (A) (A) (A) (A) (A) (A) (A) (A) (A) (A)
                 (A) (A) (A) (A) (A) (A) (A) (A) (A) (A) (A) (A)
                 (A) (A) (A) (A) (A) (A) (A) (A) (A) (A) (A) (A)
                 (A) (A) (A) (A) (A) (A) (A) (A) (A) (A) (A) (A)
                 (A) (A) (A) (A) (A) (A) (A) (A) (A) (A) (A) (A)
                 (A) (A) (A) (A) (A) (A) (A) (A) (A) (A) (A) (A)
                 (A) (A) (A) (A) (A) (A) (A) (A) (A) (A) (A) (A)
                 (A) (A) (A) (A) (A) (A) (A) (A) (A) (A) (A) (A)
                 (A) (A) (A) (A) (A) (A) (A) (A) (A) (A) (A) (A)
                 (A) (A) (A) (A) (A) (A) (A) (A) (A) (A) (A) (A)
                 (A) (A) (A) (A) (A) (A) (A)
 The electronic state is 1-A.
 Alpha  occ. eigenvalues --  -10.65360 -10.62537 -10.61596 -10.59700  -0.92852
 Alpha  occ. eigenvalues --   -0.83427  -0.76721  -0.67645  -0.55499  -0.48116
 Alpha  occ. eigenvalues --   -0.47439  -0.46637  -0.42551  -0.40381  -0.38256
 Alpha  occ. eigenvalues --   -0.36208  -0.34664
 Alpha virt. eigenvalues --    0.04619   0.05994   0.07963   0.08255   0.09736
 Alpha virt. eigenvalues --    0.10654   0.11523   0.13481   0.14404   0.14729
 Alpha virt. eigenvalues --    0.15944   0.16830   0.18293   0.18642   0.20374
 Alpha virt. eigenvalues --    0.21133   0.21552   0.24031   0.26673   0.27736
 Alpha virt. eigenvalues --    0.28935   0.29780   0.31136   0.32352   0.32672
 Alpha virt. eigenvalues --    0.34077   0.34703   0.36270   0.36859   0.37285
 Alpha virt. eigenvalues --    0.39138   0.41319   0.43649   0.44893   0.48012
 Alpha virt. eigenvalues --    0.49184   0.49940   0.50947   0.53150   0.57666
 Alpha virt. eigenvalues --    0.60334   0.60618   0.62316   0.65448   0.66964
 Alpha virt. eigenvalues --    0.67090   0.67974   0.68641   0.70174   0.70594
 Alpha virt. eigenvalues --    0.72311   0.72832   0.76022   0.76813   0.78513
 Alpha virt. eigenvalues --    0.78878   0.80798   0.83098   0.84576   0.86175
 Alpha virt. eigenvalues --    0.86980   0.88372   0.89327   0.89929   0.90796
 Alpha virt. eigenvalues --    0.91552   0.92938   0.94662   0.95117   0.97021
 Alpha virt. eigenvalues --    0.98048   0.98677   1.00517   1.02795   1.03132
 Alpha virt. eigenvalues --    1.05048   1.06387   1.07745   1.08780   1.09922
 Alpha virt. eigenvalues --    1.10959   1.13829   1.15161   1.16394   1.18469
 Alpha virt. eigenvalues --    1.19111   1.21642   1.23066   1.24074   1.25584
 Alpha virt. eigenvalues --    1.26132   1.28196   1.31135   1.32720   1.33747
 Alpha virt. eigenvalues --    1.37497   1.38164   1.39243   1.42059   1.42101
 Alpha virt. eigenvalues --    1.43669   1.49363   1.50116   1.53434   1.57636
 Alpha virt. eigenvalues --    1.60856   1.63794   1.67715   1.73162   1.75958
 Alpha virt. eigenvalues --    1.77636   1.80414   1.84795   1.85350   1.87389
 Alpha virt. eigenvalues --    1.87935   1.90525   1.93057   1.94208   1.96046
 Alpha virt. eigenvalues --    1.96202   1.99155   2.00873   2.01615   2.02637
 Alpha virt. eigenvalues --    2.03872   2.05645   2.06714   2.07229   2.08033
 Alpha virt. eigenvalues --    2.08884   2.10967   2.12875   2.13487   2.15716
 Alpha virt. eigenvalues --    2.16841   2.18050   2.19174   2.20243   2.21612
 Alpha virt. eigenvalues --    2.23406   2.24006   2.25811   2.27603   2.28731
 Alpha virt. eigenvalues --    2.29070   2.30142   2.33317   2.34460   2.35774
 Alpha virt. eigenvalues --    2.38380   2.39516   2.40343   2.42924   2.44822
 Alpha virt. eigenvalues --    2.45374   2.47884   2.48603   2.50807   2.51799
 Alpha virt. eigenvalues --    2.53414   2.55042   2.55653   2.56617   2.58056
 Alpha virt. eigenvalues --    2.59596   2.60636   2.62375   2.64281   2.64925
 Alpha virt. eigenvalues --    2.66333   2.66685   2.68166   2.68711   2.71845
 Alpha virt. eigenvalues --    2.73390   2.75267   2.75932   2.78524   2.79802
 Alpha virt. eigenvalues --    2.80429   2.82826   2.84080   2.85563   2.87100
 Alpha virt. eigenvalues --    2.88804   2.91072   2.93041   2.94444   2.95531
 Alpha virt. eigenvalues --    2.97942   2.99509   3.02241   3.03042   3.07153
 Alpha virt. eigenvalues --    3.11171   3.11924   3.13527   3.13864   3.14951
 Alpha virt. eigenvalues --    3.17982   3.20179   3.22476   3.24663   3.25584
 Alpha virt. eigenvalues --    3.26083   3.27887   3.31498   3.32922   3.33692
 Alpha virt. eigenvalues --    3.37211   3.37945   3.40232   3.42257   3.44097
 Alpha virt. eigenvalues --    3.46303   3.48960   3.49312   3.53149   3.54203
 Alpha virt. eigenvalues --    3.55848   3.59685   3.64126   3.67040   3.67836
 Alpha virt. eigenvalues --    3.72214   3.75292   3.75944   3.81632   3.82645
 Alpha virt. eigenvalues --    3.83714   3.85335   3.87577   3.90852   3.95166
 Alpha virt. eigenvalues --    3.96349   4.03130   4.07245   4.09463   4.12579
 Alpha virt. eigenvalues --    4.17044   4.20071   4.21701   4.24206   4.32359
 Alpha virt. eigenvalues --    4.34387   4.41798   4.42607   4.46767   4.51802
 Alpha virt. eigenvalues --    4.54275   4.57586   4.64806   4.77728   4.93995
 Alpha virt. eigenvalues --    5.02233   5.09448   5.14151   5.16610   5.19739
 Alpha virt. eigenvalues --    5.23065   5.27890   5.30716   5.36421   5.40424
 Alpha virt. eigenvalues --    5.45154   5.47928   5.52949   5.57516   5.60589
 Alpha virt. eigenvalues --    5.61419   5.62743   5.65938   5.67722   5.70763
 Alpha virt. eigenvalues --    5.71600   5.74233   5.75690   5.77356   5.79511
 Alpha virt. eigenvalues --    5.81778   5.84113   5.84868   5.86283   5.89196
 Alpha virt. eigenvalues --    5.91827   5.92549   5.93636   5.94686   5.95992
 Alpha virt. eigenvalues --    5.97212   5.98225   6.00445   6.00838   6.02066
 Alpha virt. eigenvalues --    6.03965   6.04353   6.05939   6.06828   6.09053
 Alpha virt. eigenvalues --    6.09518   6.13058   6.14680   6.17657   6.18889
 Alpha virt. eigenvalues --    6.20736   6.23344   6.24086   6.25588   6.28027
 Alpha virt. eigenvalues --    6.29473   6.31806   6.33462   6.34443   6.36520
 Alpha virt. eigenvalues --    6.38578   6.39408   6.41604   6.42158   6.45444
 Alpha virt. eigenvalues --    6.48146   6.50212   6.51631   6.54236   6.55071
 Alpha virt. eigenvalues --    6.56014   6.59461   6.61434   6.64132   6.64787
 Alpha virt. eigenvalues --    6.65386   6.69368   6.70245   6.74154   6.78068
 Alpha virt. eigenvalues --    6.78896   6.83339   6.84305   6.87267   6.89870
 Alpha virt. eigenvalues --    6.90606   6.92258   6.94084   6.97769   7.01258
 Alpha virt. eigenvalues --    7.03152   7.05023   7.05552   7.08230   7.09295
 Alpha virt. eigenvalues --    7.11268   7.13206   7.16902   7.17889   7.19038
 Alpha virt. eigenvalues --    7.21788   7.25234   7.27907   7.30657   7.30906
 Alpha virt. eigenvalues --    7.31537   7.34187   7.36714   7.38484   7.40610
 Alpha virt. eigenvalues --    7.42589   7.45522   7.49954   7.51222   7.53377
 Alpha virt. eigenvalues --    7.54481   7.58087   7.59614   7.61207   7.62995
 Alpha virt. eigenvalues --    7.65774   7.67317   7.70479   7.71771   7.73846
 Alpha virt. eigenvalues --    7.76331   7.77589   7.79050   7.80190   7.80580
 Alpha virt. eigenvalues --    7.83727   7.86026   7.88046   7.88567   7.91455
 Alpha virt. eigenvalues --    7.93847   7.95639   7.99257   8.02150   8.03520
 Alpha virt. eigenvalues --    8.07010   8.09647   8.09940   8.13520   8.14928
 Alpha virt. eigenvalues --    8.16627   8.17906   8.19574   8.21641   8.24130
 Alpha virt. eigenvalues --    8.27086   8.27808   8.30695   8.32081   8.32581
 Alpha virt. eigenvalues --    8.33985   8.35937   8.37025   8.39013   8.39944
 Alpha virt. eigenvalues --    8.40746   8.41353   8.42381   8.46962   8.48697
 Alpha virt. eigenvalues --    8.50022   8.52140   8.53887   8.54917   8.56163
 Alpha virt. eigenvalues --    8.61180   8.62734   8.64906   8.65751   8.66424
 Alpha virt. eigenvalues --    8.69566   8.71096   8.73749   8.76815   8.79339
 Alpha virt. eigenvalues --    8.84008   8.84229   8.86078   8.88036   8.90847
 Alpha virt. eigenvalues --    8.95259   8.96022   9.00749   9.02206   9.02938
 Alpha virt. eigenvalues --    9.06659   9.09798   9.11571   9.13523   9.17022
 Alpha virt. eigenvalues --    9.18526   9.23665   9.24491   9.30020   9.31825
 Alpha virt. eigenvalues --    9.32735   9.34434   9.35573   9.39905   9.42210
 Alpha virt. eigenvalues --    9.45141   9.51591   9.54014   9.56216   9.60121
 Alpha virt. eigenvalues --    9.66078   9.70065   9.73473   9.77410   9.82797
 Alpha virt. eigenvalues --   10.01034  10.03223  10.06535  10.09158  10.12272
 Alpha virt. eigenvalues --   10.18228  10.22074  10.23492  10.25814  10.35085
 Alpha virt. eigenvalues --   10.39356  10.44176  10.58311  10.66432  10.71191
 Alpha virt. eigenvalues --   10.93772  11.05785  11.23720  11.28500  11.34567
 Alpha virt. eigenvalues --   11.39236  11.45746  11.52277  11.60803  11.61517
 Alpha virt. eigenvalues --   11.72577  11.91049  12.18766  12.22966  12.41432
 Alpha virt. eigenvalues --   12.74630  12.89474  15.09989  28.82697  29.14141
 Alpha virt. eigenvalues --   29.60916  29.88544 148.41776 148.82974 149.31113
 Alpha virt. eigenvalues --  149.62161
          Condensed to atoms (all electrons):
               1          2          3          4          5          6
     1  C    4.850440   0.343038   0.389214   0.369643   0.368399  -0.051619
     2  C    0.343038   4.906192  -0.022720  -0.076633  -0.029934   0.353925
     3  H    0.389214  -0.022720   0.668121  -0.042420  -0.027655   0.006921
     4  H    0.369643  -0.076633  -0.042420   0.724803  -0.015858  -0.021139
     5  H    0.368399  -0.029934  -0.027655  -0.015858   0.666042   0.000749
     6  C   -0.051619   0.353925   0.006921  -0.021139   0.000749   5.494730
     7  H   -0.049255   0.398704  -0.007221  -0.008058   0.007560  -0.038909
     8  H   -0.040161   0.380122  -0.000960   0.011331  -0.002241  -0.023468
     9  C    0.008603  -0.054293  -0.000892   0.001595  -0.000100   0.345233
    10  H    0.001233  -0.037569  -0.000307   0.001054   0.001392   0.370728
    11  H   -0.007425  -0.016003   0.000670  -0.000739   0.000306   0.284556
    12  H    0.000173  -0.007715  -0.000032  -0.000032   0.000012  -0.014849
    13  H   -0.000805   0.010550   0.000054  -0.000051   0.000024  -0.047639
    14  H   -0.000114   0.001161   0.000024   0.000168  -0.000008  -0.041660
               7          8          9         10         11         12
     1  C   -0.049255  -0.040161   0.008603   0.001233  -0.007425   0.000173
     2  C    0.398704   0.380122  -0.054293  -0.037569  -0.016003  -0.007715
     3  H   -0.007221  -0.000960  -0.000892  -0.000307   0.000670  -0.000032
     4  H   -0.008058   0.011331   0.001595   0.001054  -0.000739  -0.000032
     5  H    0.007560  -0.002241  -0.000100   0.001392   0.000306   0.000012
     6  C   -0.038909  -0.023468   0.345233   0.370728   0.284556  -0.014849
     7  H    0.578957  -0.028881  -0.013962   0.008319  -0.008065  -0.000141
     8  H   -0.028881   0.662760  -0.000468  -0.000633   0.004859   0.001007
     9  C   -0.013962  -0.000468   4.726859  -0.035300  -0.023150   0.431430
    10  H    0.008319  -0.000633  -0.035300   0.618679   0.003847  -0.000676
    11  H   -0.008065   0.004859  -0.023150   0.003847   0.178095   0.006050
    12  H   -0.000141   0.001007   0.431430  -0.000676   0.006050   0.627706
    13  H    0.000359  -0.000134   0.368476  -0.004989  -0.008133  -0.074680
    14  H    0.001242   0.000197   0.389217   0.004878  -0.000688  -0.035788
              13         14
     1  C   -0.000805  -0.000114
     2  C    0.010550   0.001161
     3  H    0.000054   0.000024
     4  H   -0.000051   0.000168
     5  H    0.000024  -0.000008
     6  C   -0.047639  -0.041660
     7  H    0.000359   0.001242
     8  H   -0.000134   0.000197
     9  C    0.368476   0.389217
    10  H   -0.004989   0.004878
    11  H   -0.008133  -0.000688
    12  H   -0.074680  -0.035788
    13  H    0.746778  -0.012982
    14  H   -0.012982   0.670097
 Mulliken charges:
               1
     1  C   -0.181363
     2  C   -0.148825
     3  H    0.037203
     4  H    0.056335
     5  H    0.031313
     6  C   -0.617558
     7  H    0.159349
     8  H    0.036669
     9  C   -0.143248
    10  H    0.069343
    11  H    0.585821
    12  H    0.067536
    13  H    0.023172
    14  H    0.024255
 Sum of Mulliken charges =   0.00000
 Mulliken charges with hydrogens summed into heavy atoms:
               1
     1  C   -0.056512
     2  C    0.047192
     6  C    0.037606
     9  C   -0.028286
 Electronic spatial extent (au):  <R**2>=            452.9264
 Charge=              0.0000 electrons
 Dipole moment (field-independent basis, Debye):
    X=              0.7359    Y=             -0.0578    Z=             -0.1934  Tot=              0.7630
 Quadrupole moment (field-independent basis, Debye-Ang):
   XX=            -30.3407   YY=            -29.3890   ZZ=            -28.4182
   XY=              0.5630   XZ=              0.9755   YZ=              1.1355
 Traceless Quadrupole moment (field-independent basis, Debye-Ang):
   XX=             -0.9581   YY=             -0.0063   ZZ=              0.9644
   XY=              0.5630   XZ=              0.9755   YZ=              1.1355
 Octapole moment (field-independent basis, Debye-Ang**2):
  XXX=             11.9232  YYY=             -0.5529  ZZZ=             -0.7987  XYY=              2.0488
  XXY=             -1.2338  XXZ=              3.2011  XZZ=              0.7116  YZZ=             -0.1499
  YYZ=              0.7392  XYZ=             -0.0661
 Hexadecapole moment (field-independent basis, Debye-Ang**3):
 XXXX=           -500.9918 YYYY=           -103.0288 ZZZZ=            -70.5958 XXXY=              0.6018
 XXXZ=             11.2112 YYYX=              2.8217 YYYZ=              1.6022 ZZZX=              2.1356
 ZZZY=              0.6974 XXYY=            -99.2811 XXZZ=            -94.1646 YYZZ=            -24.8970
 XXYZ=              6.9929 YYXZ=             -1.0084 ZZXY=              1.0151
 N-N= 1.272318412204D+02 E-N=-6.196024887248D+02  KE= 1.577495848794D+02
 Leave Link  601 at Wed Aug 26 10:21:41 2020, MaxMem=  2097152000 cpu:         1.5
 (Enter /opt/cluster/programs/g09/g09_d.01/g09/l9999.exe)
 1\1\GINC-NODE10\SP\RB2PLYPD3-FC\def2QZVP\C4H10\BOITTIER\26-Aug-2020\0\
 \#p B2PLYPD3/Def2QZVP\\butane_opt\\0,1\C,0,-3.987991,0.248234,-0.13186
 3\C,0,-2.729675,-0.637505,0.314327\H,0,-4.900128,-0.321991,-0.824406\H
 ,0,-3.385388,0.675294,-0.943505\H,0,-4.536959,1.184893,0.820122\C,0,-1
 .369575,0.316585,0.089057\H,0,-2.62965,-1.116361,-0.456689\H,0,-3.0076
 42,-1.451661,1.288607\C,0,-0.15278,-0.762164,-0.121957\H,0,-1.087693,1
 .000781,1.049135\H,0,-1.415776,0.48868,-0.585144\H,0,0.284597,-1.26600
 8,0.509076\H,0,0.775058,-0.176385,-0.079475\H,0,-0.232517,-1.458655,-1
 .080417\\Version=ES64L-G09RevD.01\State=1-A\HF=-157.6661292\MP2=-157.9
 198349\RMSD=3.211e-09\PG=C01 [X(C4H10)]\\@


 ... FOR AFTERWARDS A MAN FINDS PLEASURE IN HIS PAINS,
 WHEN HE HAS SUFFERED LONG AND WANDERED FAR.

                                    -- HOMER
 Job cpu time:       0 days  1 hours 34 minutes 47.7 seconds.
 File lengths (MBytes):  RWF=    152 Int=      0 D2E=      0 Chk=     14 Scr=      1
 Normal termination of Gaussian 09 at Wed Aug 26 10:21:42 2020.
