 Entering Gaussian System, Link 0=/opt/cluster/programs/g09/g09_d.01/g09//g09
 Input=/home/boittier/MDCM/nms_sampling/butane_geom.xyz.dir/energies/butane_opt_2464_energy.com
 Output=/scratch/boittier/butane_opt_2464_energy/butane_opt_2464_energy.out
 Initial command:
 /opt/cluster/programs/g09/g09_d.01/g09/l1.exe "/scratch/boittier/butane_opt_2464_energy/Gau-116469.inp" -scrdir="/scratch/boittier/butane_opt_2464_energy/"
 Entering Link 1 = /opt/cluster/programs/g09/g09_d.01/g09/l1.exe PID=    116470.
  
 Copyright (c) 1988,1990,1992,1993,1995,1998,2003,2009,2013,
            Gaussian, Inc.  All Rights Reserved.
  
 This is part of the Gaussian(R) 09 program.  It is based on
 the Gaussian(R) 03 system (copyright 2003, Gaussian, Inc.),
 the Gaussian(R) 98 system (copyright 1998, Gaussian, Inc.),
 the Gaussian(R) 94 system (copyright 1995, Gaussian, Inc.),
 the Gaussian 92(TM) system (copyright 1992, Gaussian, Inc.),
 the Gaussian 90(TM) system (copyright 1990, Gaussian, Inc.),
 the Gaussian 88(TM) system (copyright 1988, Gaussian, Inc.),
 the Gaussian 86(TM) system (copyright 1986, Carnegie Mellon
 University), and the Gaussian 82(TM) system (copyright 1983,
 Carnegie Mellon University). Gaussian is a federally registered
 trademark of Gaussian, Inc.
  
 This software contains proprietary and confidential information,
 including trade secrets, belonging to Gaussian, Inc.
  
 This software is provided under written license and may be
 used, copied, transmitted, or stored only in accord with that
 written license.
  
 The following legend is applicable only to US Government
 contracts under FAR:
  
                    RESTRICTED RIGHTS LEGEND
  
 Use, reproduction and disclosure by the US Government is
 subject to restrictions as set forth in subparagraphs (a)
 and (c) of the Commercial Computer Software - Restricted
 Rights clause in FAR 52.227-19.
  
 Gaussian, Inc.
 340 Quinnipiac St., Bldg. 40, Wallingford CT 06492
  
  
 ---------------------------------------------------------------
 Warning -- This program may not be used in any manner that
 competes with the business of Gaussian, Inc. or will provide
 assistance to any competitor of Gaussian, Inc.  The licensee
 of this program is prohibited from giving any competitor of
 Gaussian, Inc. access to this program.  By using this program,
 the user acknowledges that Gaussian, Inc. is engaged in the
 business of creating and licensing software in the field of
 computational chemistry and represents and warrants to the
 licensee that it is not a competitor of Gaussian, Inc. and that
 it will not use this program in any manner prohibited above.
 ---------------------------------------------------------------
  

 Cite this work as:
 Gaussian 09, Revision D.01,
 M. J. Frisch, G. W. Trucks, H. B. Schlegel, G. E. Scuseria, 
 M. A. Robb, J. R. Cheeseman, G. Scalmani, V. Barone, B. Mennucci, 
 G. A. Petersson, H. Nakatsuji, M. Caricato, X. Li, H. P. Hratchian, 
 A. F. Izmaylov, J. Bloino, G. Zheng, J. L. Sonnenberg, M. Hada, 
 M. Ehara, K. Toyota, R. Fukuda, J. Hasegawa, M. Ishida, T. Nakajima, 
 Y. Honda, O. Kitao, H. Nakai, T. Vreven, J. A. Montgomery, Jr., 
 J. E. Peralta, F. Ogliaro, M. Bearpark, J. J. Heyd, E. Brothers, 
 K. N. Kudin, V. N. Staroverov, T. Keith, R. Kobayashi, J. Normand, 
 K. Raghavachari, A. Rendell, J. C. Burant, S. S. Iyengar, J. Tomasi, 
 M. Cossi, N. Rega, J. M. Millam, M. Klene, J. E. Knox, J. B. Cross, 
 V. Bakken, C. Adamo, J. Jaramillo, R. Gomperts, R. E. Stratmann, 
 O. Yazyev, A. J. Austin, R. Cammi, C. Pomelli, J. W. Ochterski, 
 R. L. Martin, K. Morokuma, V. G. Zakrzewski, G. A. Voth, 
 P. Salvador, J. J. Dannenberg, S. Dapprich, A. D. Daniels, 
 O. Farkas, J. B. Foresman, J. V. Ortiz, J. Cioslowski, 
 and D. J. Fox, Gaussian, Inc., Wallingford CT, 2013.
 
 ******************************************
 Gaussian 09:  ES64L-G09RevD.01 24-Apr-2013
                26-Aug-2020 
 ******************************************
 %chk=/home/boittier/MDCM/nms_sampling/butane_geom.xyz.dir/butane_opt_2464.chk
 %nproc=8
 Will use up to    8 processors via shared memory.
 %mem=16000MB
 --------------------
 #p B2PLYPD3/Def2QZVP
 --------------------
 1/38=1/1;
 2/12=2,17=6,18=5,40=1/2;
 3/5=45,7=101,11=9,16=1,25=1,30=1,74=-60/1,2,3;
 4//1;
 5/5=2,38=5/2;
 8/10=1/1;
 9/16=-3/6;
 6/7=2,8=2,9=2,10=2/1;
 99/5=1,9=1/99;
 Leave Link    1 at Wed Aug 26 16:36:40 2020, MaxMem=  2097152000 cpu:         0.2
 (Enter /opt/cluster/programs/g09/g09_d.01/g09/l101.exe)
 ----------
 butane_opt
 ----------
 Symbolic Z-matrix:
 Charge =  0 Multiplicity = 1
 C                    -3.88957   0.26196   0.06544 
 C                    -2.67288  -0.62514  -0.05986 
 H                    -4.76439  -0.30266   0.51626 
 H                    -4.2104    1.31249  -1.04738 
 H                    -3.70853   0.80469   0.8974 
 C                    -1.38453   0.16059   0.01556 
 H                    -2.70214  -1.42371  -1.09477 
 H                    -2.49958  -1.19744   0.7359 
 C                    -0.24364  -0.67554   0.079 
 H                    -1.46465   0.68716   0.78973 
 H                    -1.14781   0.92543  -0.99231 
 H                    -0.24655  -1.31448   1.04317 
 H                     0.52225  -0.00539   0.13955 
 H                    -0.47489  -1.42599  -0.78008 
 
 NAtoms=     14 NQM=       14 NQMF=       0 NMMI=      0 NMMIF=      0
                NMic=       0 NMicF=      0.
                    Isotopes and Nuclear Properties:
 (Nuclear quadrupole moments (NQMom) in fm**2, nuclear magnetic moments (NMagM)
  in nuclear magnetons)

  Atom         1           2           3           4           5           6           7           8           9          10
 IAtWgt=          12          12           1           1           1          12           1           1          12           1
 AtmWgt=  12.0000000  12.0000000   1.0078250   1.0078250   1.0078250  12.0000000   1.0078250   1.0078250  12.0000000   1.0078250
 NucSpn=           0           0           1           1           1           0           1           1           0           1
 AtZEff=   0.0000000   0.0000000   0.0000000   0.0000000   0.0000000   0.0000000   0.0000000   0.0000000   0.0000000   0.0000000
 NQMom=    0.0000000   0.0000000   0.0000000   0.0000000   0.0000000   0.0000000   0.0000000   0.0000000   0.0000000   0.0000000
 NMagM=    0.0000000   0.0000000   2.7928460   2.7928460   2.7928460   0.0000000   2.7928460   2.7928460   0.0000000   2.7928460
 AtZNuc=   6.0000000   6.0000000   1.0000000   1.0000000   1.0000000   6.0000000   1.0000000   1.0000000   6.0000000   1.0000000

  Atom        11          12          13          14
 IAtWgt=           1           1           1           1
 AtmWgt=   1.0078250   1.0078250   1.0078250   1.0078250
 NucSpn=           1           1           1           1
 AtZEff=   0.0000000   0.0000000   0.0000000   0.0000000
 NQMom=    0.0000000   0.0000000   0.0000000   0.0000000
 NMagM=    2.7928460   2.7928460   2.7928460   2.7928460
 AtZNuc=   1.0000000   1.0000000   1.0000000   1.0000000
 Leave Link  101 at Wed Aug 26 16:36:40 2020, MaxMem=  2097152000 cpu:         0.5
 (Enter /opt/cluster/programs/g09/g09_d.01/g09/l202.exe)
                          Input orientation:                          
 ---------------------------------------------------------------------
 Center     Atomic      Atomic             Coordinates (Angstroms)
 Number     Number       Type             X           Y           Z
 ---------------------------------------------------------------------
      1          6           0       -3.889572    0.261963    0.065439
      2          6           0       -2.672883   -0.625141   -0.059862
      3          1           0       -4.764391   -0.302660    0.516261
      4          1           0       -4.210404    1.312489   -1.047382
      5          1           0       -3.708531    0.804687    0.897404
      6          6           0       -1.384527    0.160594    0.015564
      7          1           0       -2.702135   -1.423707   -1.094769
      8          1           0       -2.499575   -1.197443    0.735895
      9          6           0       -0.243638   -0.675535    0.078996
     10          1           0       -1.464648    0.687157    0.789730
     11          1           0       -1.147808    0.925425   -0.992308
     12          1           0       -0.246551   -1.314476    1.043166
     13          1           0        0.522248   -0.005388    0.139552
     14          1           0       -0.474893   -1.425993   -0.780084
 ---------------------------------------------------------------------
                    Distance matrix (angstroms):
                    1          2          3          4          5
     1  C    0.000000
     2  C    1.510955   0.000000
     3  H    1.134614   2.193244   0.000000
     4  H    1.563620   2.663377   2.315294   0.000000
     5  H    1.009698   2.008316   1.576809   2.071698   0.000000
     6  C    2.507591   1.510937   3.448011   3.231454   2.567780
     7  H    2.365919   1.307515   2.846939   3.124722   3.153938
     8  H    2.124022   0.995387   2.445050   3.522325   2.344394
     9  C    3.764561   2.433732   4.557131   4.577794   3.855688
    10  H    2.566251   1.975795   3.455840   3.362320   2.249537
    11  H    3.012687   2.366340   4.106537   3.087450   3.184791
    12  H    4.088118   2.752988   4.659644   5.194561   4.061700
    13  H    4.420534   3.260785   5.308374   5.054068   4.373792
    14  H    3.901812   2.447702   4.619760   4.639480   4.271570
                    6          7          8          9         10
     6  C    0.000000
     7  H    2.340714   0.000000
     8  H    1.899072   1.855682   0.000000
     9  C    1.415897   2.825189   2.406898   0.000000
    10  H    0.939692   3.088439   2.150742   1.962890   0.000000
    11  H    1.287171   2.818661   3.052954   2.127978   1.825601
    12  H    2.127625   3.257697   2.276890   1.156667   2.356804
    13  H    1.917997   3.732536   3.302731   1.019483   2.202296
    14  H    1.994429   2.249364   2.539639   1.163909   2.812354
                   11         12         13         14
    11  H    0.000000
    12  H    3.157938   0.000000
    13  H    2.221848   1.766715   0.000000
    14  H    2.454999   1.840874   1.964215   0.000000
 Stoichiometry    C4H10
 Framework group  C1[X(C4H10)]
 Deg. of freedom    36
 Full point group                 C1      NOp   1
 Largest Abelian subgroup         C1      NOp   1
 Largest concise Abelian subgroup C1      NOp   1
                         Standard orientation:                         
 ---------------------------------------------------------------------
 Center     Atomic      Atomic             Coordinates (Angstroms)
 Number     Number       Type             X           Y           Z
 ---------------------------------------------------------------------
      1          6           0        1.892566    0.090577   -0.072343
      2          6           0        0.524222   -0.521429    0.117574
      3          1           0        2.630576   -0.671383   -0.474967
      4          1           0        2.431531    1.137512    0.956419
      5          1           0        1.813838    0.593015   -0.944610
      6          6           0       -0.581024    0.499156   -0.023025
      7          1           0        0.405425   -1.227584    1.211571
      8          1           0        0.229697   -1.106643   -0.631809
      9          6           0       -1.867227   -0.092824   -0.024983
     10          1           0       -0.406452    0.937739   -0.835546
     11          1           0       -0.646868    1.371143    0.921491
     12          1           0       -2.004599   -0.791498   -0.936499
     13          1           0       -2.483696    0.710964   -0.140034
     14          1           0       -1.780674   -0.806138    0.890646
 ---------------------------------------------------------------------
 Rotational constants (GHZ):     21.6753668      3.8841723      3.6461097
 Leave Link  202 at Wed Aug 26 16:36:40 2020, MaxMem=  2097152000 cpu:         0.0
 (Enter /opt/cluster/programs/g09/g09_d.01/g09/l301.exe)
 Standard basis: def2QZVP (5D, 7F)
 Ernie: Thresh=  0.10000D-02 Tol=  0.10000D-05 Strict=F.
 There are   638 symmetry adapted cartesian basis functions of A   symmetry.
 There are   528 symmetry adapted basis functions of A   symmetry.
   528 basis functions,   748 primitive gaussians,   638 cartesian basis functions
    17 alpha electrons       17 beta electrons
       nuclear repulsion energy       132.4807239832 Hartrees.
 IExCor=  419 DFT=T Ex+Corr=B2PLYPD3 ExCW=0 ScaHFX=  0.530000
 ScaDFX=  0.470000  0.470000  0.730000  0.730000 ScalE2=  0.270000  0.270000
 IRadAn=      0 IRanWt=     -1 IRanGd=            0 ICorTp=0 IEmpDi=141
 NAtoms=   14 NActive=   14 NUniq=   14 SFac= 1.00D+00 NAtFMM=   60 NAOKFM=F Big=F
 Integral buffers will be    131072 words long.
 Regular integral format.
 Two-electron integral symmetry is turned on.
 R6Disp:  Grimme-D3(BJ) Dispersion energy=       -0.0070265532 Hartrees.
 Nuclear repulsion after empirical dispersion term =      132.4736974300 Hartrees.
 Leave Link  301 at Wed Aug 26 16:36:40 2020, MaxMem=  2097152000 cpu:         0.4
 (Enter /opt/cluster/programs/g09/g09_d.01/g09/l302.exe)
 NPDir=0 NMtPBC=     1 NCelOv=     1 NCel=       1 NClECP=     1 NCelD=      1
         NCelK=      1 NCelE2=     1 NClLst=     1 CellRange=     0.0.
 One-electron integrals computed using PRISM.
   1 Symmetry operations used in ECPInt.
 ECPInt:  NShTT=   14196 NPrTT=   30597 LenC2=   13902 LenP2D=   26093.
 LDataN:  DoStor=T MaxTD1= 8 Len=  415
 NBasis=   528 RedAO= T EigKep=  3.48D-05  NBF=   528
 NBsUse=   528 1.00D-06 EigRej= -1.00D+00 NBFU=   528
 Precomputing XC quadrature grid using
 IXCGrd= 4 IRadAn=           0 IRanWt=          -1 IRanGd=           0 AccXCQ= 0.00D+00.
 Generated NRdTot=       0 NPtTot=           0 NUsed=           0 NTot=          32
 NSgBfM=   638   638   638   638   638 MxSgAt=    14 MxSgA2=    14.
 Leave Link  302 at Wed Aug 26 16:36:41 2020, MaxMem=  2097152000 cpu:         5.5
 (Enter /opt/cluster/programs/g09/g09_d.01/g09/l303.exe)
 DipDrv:  MaxL=1.
 Leave Link  303 at Wed Aug 26 16:36:45 2020, MaxMem=  2097152000 cpu:         0.6
 (Enter /opt/cluster/programs/g09/g09_d.01/g09/l401.exe)
 ExpMin= 7.60D-02 ExpMax= 6.70D+04 ExpMxC= 6.47D+02 IAcc=2 IRadAn=         4 AccDes= 0.00D+00
 Harris functional with IExCor=  419 and IRadAn=       4 diagonalized for initial guess.
 HarFok:  IExCor=  419 AccDes= 0.00D+00 IRadAn=         4 IDoV= 1 UseB2=F ITyADJ=14
 ICtDFT=  3500011 ScaDFX=  1.000000  1.000000  1.000000  1.000000
 FoFCou: FMM=F IPFlag=           0 FMFlag=      100000 FMFlg1=           0
         NFxFlg=           0 DoJE=T BraDBF=F KetDBF=T FulRan=T
         wScrn=  0.000000 ICntrl=     500 IOpCl=  0 I1Cent=   200000004 NGrid=           0
         NMat0=    1 NMatS0=      1 NMatT0=    0 NMatD0=    1 NMtDS0=    0 NMtDT0=    0
 Petite list used in FoFCou.
 Harris En= -158.454741559293    
 JPrj=0 DoOrth=F DoCkMO=F.
 Leave Link  401 at Wed Aug 26 16:36:47 2020, MaxMem=  2097152000 cpu:        17.0
 (Enter /opt/cluster/programs/g09/g09_d.01/g09/l502.exe)
 Closed shell SCF:
 Using DIIS extrapolation, IDIIS=  1040.
 Integral symmetry usage will be decided dynamically.
 IVT=     1249338 IEndB=     1249338 NGot=  2097152000 MDV=  2096326985
 LenX=  2096326985 LenY=  2095919303
 Requested convergence on RMS density matrix=1.00D-08 within 128 cycles.
 Requested convergence on MAX density matrix=1.00D-06.
 Requested convergence on             energy=1.00D-06.
 No special actions if energy rises.
 Fock matrices will be formed incrementally for  20 cycles.
 Integral accuracy reduced to 1.0D-05 until final iterations.

 Cycle   1  Pass 0  IDiag  1:
 FoFJK:  IHMeth= 1 ICntrl=       0 DoSepK=F KAlg= 0 I1Cent=   0 FoldK=F
 IRaf= 940000000 NMat=   1 IRICut=       1 DoRegI=T DoRafI=F ISym2E= 0.
 FoFCou: FMM=F IPFlag=           0 FMFlag=      100000 FMFlg1=           0
         NFxFlg=           0 DoJE=F BraDBF=F KetDBF=F FulRan=T
         wScrn=  0.000000 ICntrl=       0 IOpCl=  0 I1Cent=           0 NGrid=           0
         NMat0=    1 NMatS0=      1 NMatT0=    0 NMatD0=    1 NMtDS0=    0 NMtDT0=    0
 Symmetry not used in FoFCou.
 E= -157.642485303236    
 DIIS: error= 2.26D-02 at cycle   1 NSaved=   1.
 NSaved= 1 IEnMin= 1 EnMin= -157.642485303236     IErMin= 1 ErrMin= 2.26D-02
 ErrMax= 2.26D-02  0.00D+00 EMaxC= 1.00D-01 BMatC= 3.69D-01 BMatP= 3.69D-01
 IDIUse=3 WtCom= 7.74D-01 WtEn= 2.26D-01
 Coeff-Com:  0.100D+01
 Coeff-En:   0.100D+01
 Coeff:      0.100D+01
 Gap=     0.363 Goal=   None    Shift=    0.000
 GapD=    0.363 DampG=1.000 DampE=0.500 DampFc=0.5000 IDamp=-1.
 Damping current iteration by 5.00D-01
 RMSDP=1.16D-03 MaxDP=8.04D-02              OVMax= 2.23D-01

 Cycle   2  Pass 0  IDiag  1:
 RMSU=  5.54D-04    CP:  9.44D-01
 E= -157.793167718720     Delta-E=       -0.150682415484 Rises=F Damp=T
 DIIS: error= 6.05D-03 at cycle   2 NSaved=   2.
 NSaved= 2 IEnMin= 2 EnMin= -157.793167718720     IErMin= 2 ErrMin= 6.05D-03
 ErrMax= 6.05D-03  0.00D+00 EMaxC= 1.00D-01 BMatC= 3.16D-02 BMatP= 3.69D-01
 IDIUse=3 WtCom= 9.40D-01 WtEn= 6.05D-02
 Coeff-Com: -0.112D+00 0.111D+01
 Coeff-En:   0.000D+00 0.100D+01
 Coeff:     -0.106D+00 0.111D+01
 Gap=     0.448 Goal=   None    Shift=    0.000
 RMSDP=3.16D-04 MaxDP=1.58D-02 DE=-1.51D-01 OVMax= 1.27D-01

 Cycle   3  Pass 0  IDiag  1:
 RMSU=  2.83D-04    CP:  9.32D-01  7.54D-01
 E= -157.943967835958     Delta-E=       -0.150800117238 Rises=F Damp=F
 DIIS: error= 3.51D-03 at cycle   3 NSaved=   3.
 NSaved= 3 IEnMin= 3 EnMin= -157.943967835958     IErMin= 3 ErrMin= 3.51D-03
 ErrMax= 3.51D-03  0.00D+00 EMaxC= 1.00D-01 BMatC= 3.71D-03 BMatP= 3.16D-02
 IDIUse=3 WtCom= 9.65D-01 WtEn= 3.51D-02
 Coeff-Com: -0.978D-01 0.202D+00 0.895D+00
 Coeff-En:   0.000D+00 0.000D+00 0.100D+01
 Coeff:     -0.943D-01 0.195D+00 0.899D+00
 Gap=     0.395 Goal=   None    Shift=    0.000
 RMSDP=7.45D-05 MaxDP=5.52D-03 DE=-1.51D-01 OVMax= 1.67D-02

 Cycle   4  Pass 0  IDiag  1:
 RMSU=  6.10D-05    CP:  9.27D-01  8.23D-01  1.03D+00
 E= -157.947705029866     Delta-E=       -0.003737193907 Rises=F Damp=F
 DIIS: error= 8.04D-04 at cycle   4 NSaved=   4.
 NSaved= 4 IEnMin= 4 EnMin= -157.947705029866     IErMin= 4 ErrMin= 8.04D-04
 ErrMax= 8.04D-04  0.00D+00 EMaxC= 1.00D-01 BMatC= 3.51D-04 BMatP= 3.71D-03
 IDIUse=3 WtCom= 9.92D-01 WtEn= 8.04D-03
 Coeff-Com: -0.328D-01 0.469D-01 0.350D+00 0.636D+00
 Coeff-En:   0.000D+00 0.000D+00 0.000D+00 0.100D+01
 Coeff:     -0.326D-01 0.465D-01 0.347D+00 0.639D+00
 Gap=     0.395 Goal=   None    Shift=    0.000
 RMSDP=2.16D-05 MaxDP=1.53D-03 DE=-3.74D-03 OVMax= 4.17D-03

 Cycle   5  Pass 0  IDiag  1:
 RMSU=  1.64D-05    CP:  9.27D-01  8.10D-01  1.07D+00  8.69D-01
 E= -157.948032888681     Delta-E=       -0.000327858816 Rises=F Damp=F
 DIIS: error= 1.37D-04 at cycle   5 NSaved=   5.
 NSaved= 5 IEnMin= 5 EnMin= -157.948032888681     IErMin= 5 ErrMin= 1.37D-04
 ErrMax= 1.37D-04  0.00D+00 EMaxC= 1.00D-01 BMatC= 1.18D-05 BMatP= 3.51D-04
 IDIUse=3 WtCom= 9.99D-01 WtEn= 1.37D-03
 Coeff-Com: -0.129D-02-0.236D-02 0.303D-01 0.168D+00 0.805D+00
 Coeff-En:   0.000D+00 0.000D+00 0.000D+00 0.000D+00 0.100D+01
 Coeff:     -0.129D-02-0.235D-02 0.302D-01 0.168D+00 0.805D+00
 Gap=     0.395 Goal=   None    Shift=    0.000
 RMSDP=6.24D-06 MaxDP=3.47D-04 DE=-3.28D-04 OVMax= 9.59D-04

 Initial convergence to 1.0D-05 achieved.  Increase integral accuracy.
 Cycle   6  Pass 1  IDiag  1:
 E= -157.948022764571     Delta-E=        0.000010124110 Rises=F Damp=F
 DIIS: error= 3.23D-05 at cycle   1 NSaved=   1.
 NSaved= 1 IEnMin= 1 EnMin= -157.948022764571     IErMin= 1 ErrMin= 3.23D-05
 ErrMax= 3.23D-05  0.00D+00 EMaxC= 1.00D-01 BMatC= 9.76D-07 BMatP= 9.76D-07
 IDIUse=1 WtCom= 1.00D+00 WtEn= 0.00D+00
 Coeff-Com:  0.100D+01
 Coeff:      0.100D+01
 Gap=     0.395 Goal=   None    Shift=    0.000
 RMSDP=6.24D-06 MaxDP=3.47D-04 DE= 1.01D-05 OVMax= 2.93D-04

 Cycle   7  Pass 1  IDiag  1:
 RMSU=  1.21D-05    CP:  1.00D+00
 E= -157.948023280358     Delta-E=       -0.000000515787 Rises=F Damp=F
 DIIS: error= 3.00D-05 at cycle   2 NSaved=   2.
 NSaved= 2 IEnMin= 2 EnMin= -157.948023280358     IErMin= 2 ErrMin= 3.00D-05
 ErrMax= 3.00D-05  0.00D+00 EMaxC= 1.00D-01 BMatC= 3.75D-07 BMatP= 9.76D-07
 IDIUse=1 WtCom= 1.00D+00 WtEn= 0.00D+00
 Coeff-Com:  0.354D+00 0.646D+00
 Coeff:      0.354D+00 0.646D+00
 Gap=     0.395 Goal=   None    Shift=    0.000
 RMSDP=7.84D-07 MaxDP=5.64D-05 DE=-5.16D-07 OVMax= 2.07D-04

 Cycle   8  Pass 1  IDiag  1:
 RMSU=  7.51D-07    CP:  1.00D+00  1.02D+00
 E= -157.948023633719     Delta-E=       -0.000000353361 Rises=F Damp=F
 DIIS: error= 7.42D-06 at cycle   3 NSaved=   3.
 NSaved= 3 IEnMin= 3 EnMin= -157.948023633719     IErMin= 3 ErrMin= 7.42D-06
 ErrMax= 7.42D-06  0.00D+00 EMaxC= 1.00D-01 BMatC= 3.44D-08 BMatP= 3.75D-07
 IDIUse=1 WtCom= 1.00D+00 WtEn= 0.00D+00
 Coeff-Com: -0.260D-01 0.206D+00 0.820D+00
 Coeff:     -0.260D-01 0.206D+00 0.820D+00
 Gap=     0.395 Goal=   None    Shift=    0.000
 RMSDP=3.10D-07 MaxDP=2.16D-05 DE=-3.53D-07 OVMax= 4.57D-05

 Cycle   9  Pass 1  IDiag  1:
 RMSU=  2.34D-07    CP:  1.00D+00  1.03D+00  9.00D-01
 E= -157.948023670395     Delta-E=       -0.000000036676 Rises=F Damp=F
 DIIS: error= 1.46D-06 at cycle   4 NSaved=   4.
 NSaved= 4 IEnMin= 4 EnMin= -157.948023670395     IErMin= 4 ErrMin= 1.46D-06
 ErrMax= 1.46D-06  0.00D+00 EMaxC= 1.00D-01 BMatC= 8.71D-10 BMatP= 3.44D-08
 IDIUse=1 WtCom= 1.00D+00 WtEn= 0.00D+00
 Coeff-Com: -0.177D-01 0.330D-01 0.198D+00 0.786D+00
 Coeff:     -0.177D-01 0.330D-01 0.198D+00 0.786D+00
 Gap=     0.395 Goal=   None    Shift=    0.000
 RMSDP=6.02D-08 MaxDP=2.97D-06 DE=-3.67D-08 OVMax= 9.82D-06

 Cycle  10  Pass 1  IDiag  1:
 RMSU=  4.69D-08    CP:  1.00D+00  1.04D+00  9.27D-01  1.13D+00
 E= -157.948023671395     Delta-E=       -0.000000000999 Rises=F Damp=F
 DIIS: error= 4.10D-07 at cycle   5 NSaved=   5.
 NSaved= 5 IEnMin= 5 EnMin= -157.948023671395     IErMin= 5 ErrMin= 4.10D-07
 ErrMax= 4.10D-07  0.00D+00 EMaxC= 1.00D-01 BMatC= 1.20D-10 BMatP= 8.71D-10
 IDIUse=1 WtCom= 1.00D+00 WtEn= 0.00D+00
 Coeff-Com: -0.194D-02-0.151D-01-0.457D-01 0.216D+00 0.847D+00
 Coeff:     -0.194D-02-0.151D-01-0.457D-01 0.216D+00 0.847D+00
 Gap=     0.395 Goal=   None    Shift=    0.000
 RMSDP=2.47D-08 MaxDP=1.46D-06 DE=-9.99D-10 OVMax= 3.82D-06

 Cycle  11  Pass 1  IDiag  1:
 RMSU=  1.32D-08    CP:  1.00D+00  1.04D+00  9.32D-01  1.21D+00  1.04D+00
 E= -157.948023671526     Delta-E=       -0.000000000131 Rises=F Damp=F
 DIIS: error= 1.17D-07 at cycle   6 NSaved=   6.
 NSaved= 6 IEnMin= 6 EnMin= -157.948023671526     IErMin= 6 ErrMin= 1.17D-07
 ErrMax= 1.17D-07  0.00D+00 EMaxC= 1.00D-01 BMatC= 7.09D-12 BMatP= 1.20D-10
 IDIUse=1 WtCom= 1.00D+00 WtEn= 0.00D+00
 Coeff-Com:  0.549D-03-0.669D-02-0.268D-01 0.205D-01 0.271D+00 0.742D+00
 Coeff:      0.549D-03-0.669D-02-0.268D-01 0.205D-01 0.271D+00 0.742D+00
 Gap=     0.395 Goal=   None    Shift=    0.000
 RMSDP=4.24D-09 MaxDP=1.90D-07 DE=-1.31D-10 OVMax= 8.85D-07

 SCF Done:  E(RB2PLYPD3) =  -157.948023672     A.U. after   11 cycles
            NFock= 11  Conv=0.42D-08     -V/T= 2.0029
 KE= 1.574884397779D+02 PE=-6.303993103738D+02 EE= 1.824891494943D+02
 Leave Link  502 at Wed Aug 26 18:34:18 2020, MaxMem=  2097152000 cpu:      3551.9
 (Enter /opt/cluster/programs/g09/g09_d.01/g09/l801.exe)
 DoSCS=T DFT=T ScalE2(SS,OS)=  0.270000  0.270000
 ExpMin= 7.60D-02 ExpMax= 6.70D+04 ExpMxC= 6.47D+02 IAcc=3 IRadAn=         5 AccDes= 0.00D+00
 HarFok:  IExCor=  205 AccDes= 0.00D+00 IRadAn=         5 IDoV=-2 UseB2=F ITyADJ=14
 ICtDFT= 12500011 ScaDFX=  1.000000  1.000000  1.000000  1.000000
 Largest valence mixing into a core orbital is  1.17D-04
 Largest core mixing into a valence orbital is  1.67D-05
 Range of M.O.s used for correlation:     5   528
 NBasis=   528 NAE=    17 NBE=    17 NFC=     4 NFV=     0
 NROrb=    524 NOA=    13 NOB=    13 NVA=   511 NVB=   511

 **** Warning!!: The largest alpha MO coefficient is  0.31282244D+02

 Leave Link  801 at Wed Aug 26 18:34:18 2020, MaxMem=  2097152000 cpu:         1.8
 (Enter /opt/cluster/programs/g09/g09_d.01/g09/l906.exe)
 DoSCS=T DFT=T ScalE2(SS,OS)=  0.270000  0.270000
 FulOut=F Deriv=F AODrv=F NAtomX=    14
   MMem=         463  MDisk=          13 MDiskD=          13
  W3Min=     4238234 MinDsk=     6904766 NBas6D=         638
 NBas2D=      205689    NTT=      203841    LW2=     4508827
    MDV=  2095893210 MDiskM=        7293 NBas2p=      191484
 Fully direct method using O(OVN) memory.
 IMap=   1   2   3   4   5   6   7   8   9  10  11  12  13
 JobTyp=1 Pass  1:  I=   1 to  13 NPSUse=  8 ParTrn=T ParDer=T DoDerP=F.
 Spin components of T(2) and E(2):
     alpha-alpha T2 =       0.4189155122D-01 E2=     -0.2668872802D-01
     alpha-beta  T2 =       0.2866002750D+00 E2=     -0.1980614583D+00
     beta-beta   T2 =       0.4189155122D-01 E2=     -0.2668872802D-01
 The integrals were generated   1 times.
 E2(B2PLYPD3) =    -0.2514389143D+00 E(B2PLYPD3) =    -0.15819946258583D+03
 Leave Link  906 at Wed Aug 26 18:39:44 2020, MaxMem=  2097152000 cpu:      2600.8
 (Enter /opt/cluster/programs/g09/g09_d.01/g09/l601.exe)
 Copying SCF densities to generalized density rwf, IOpCl= 0 IROHF=0.

 **********************************************************************

            Population analysis using the SCF density.

 **********************************************************************

 Orbital symmetries:
       Occupied  (A) (A) (A) (A) (A) (A) (A) (A) (A) (A) (A) (A)
                 (A) (A) (A) (A) (A)
       Virtual   (A) (A) (A) (A) (A) (A) (A) (A) (A) (A) (A) (A)
                 (A) (A) (A) (A) (A) (A) (A) (A) (A) (A) (A) (A)
                 (A) (A) (A) (A) (A) (A) (A) (A) (A) (A) (A) (A)
                 (A) (A) (A) (A) (A) (A) (A) (A) (A) (A) (A) (A)
                 (A) (A) (A) (A) (A) (A) (A) (A) (A) (A) (A) (A)
                 (A) (A) (A) (A) (A) (A) (A) (A) (A) (A) (A) (A)
                 (A) (A) (A) (A) (A) (A) (A) (A) (A) (A) (A) (A)
                 (A) (A) (A) (A) (A) (A) (A) (A) (A) (A) (A) (A)
                 (A) (A) (A) (A) (A) (A) (A) (A) (A) (A) (A) (A)
                 (A) (A) (A) (A) (A) (A) (A) (A) (A) (A) (A) (A)
                 (A) (A) (A) (A) (A) (A) (A) (A) (A) (A) (A) (A)
                 (A) (A) (A) (A) (A) (A) (A) (A) (A) (A) (A) (A)
                 (A) (A) (A) (A) (A) (A) (A) (A) (A) (A) (A) (A)
                 (A) (A) (A) (A) (A) (A) (A) (A) (A) (A) (A) (A)
                 (A) (A) (A) (A) (A) (A) (A) (A) (A) (A) (A) (A)
                 (A) (A) (A) (A) (A) (A) (A) (A) (A) (A) (A) (A)
                 (A) (A) (A) (A) (A) (A) (A) (A) (A) (A) (A) (A)
                 (A) (A) (A) (A) (A) (A) (A) (A) (A) (A) (A) (A)
                 (A) (A) (A) (A) (A) (A) (A) (A) (A) (A) (A) (A)
                 (A) (A) (A) (A) (A) (A) (A) (A) (A) (A) (A) (A)
                 (A) (A) (A) (A) (A) (A) (A) (A) (A) (A) (A) (A)
                 (A) (A) (A) (A) (A) (A) (A) (A) (A) (A) (A) (A)
                 (A) (A) (A) (A) (A) (A) (A) (A) (A) (A) (A) (A)
                 (A) (A) (A) (A) (A) (A) (A) (A) (A) (A) (A) (A)
                 (A) (A) (A) (A) (A) (A) (A) (A) (A) (A) (A) (A)
                 (A) (A) (A) (A) (A) (A) (A) (A) (A) (A) (A) (A)
                 (A) (A) (A) (A) (A) (A) (A) (A) (A) (A) (A) (A)
                 (A) (A) (A) (A) (A) (A) (A) (A) (A) (A) (A) (A)
                 (A) (A) (A) (A) (A) (A) (A) (A) (A) (A) (A) (A)
                 (A) (A) (A) (A) (A) (A) (A) (A) (A) (A) (A) (A)
                 (A) (A) (A) (A) (A) (A) (A) (A) (A) (A) (A) (A)
                 (A) (A) (A) (A) (A) (A) (A) (A) (A) (A) (A) (A)
                 (A) (A) (A) (A) (A) (A) (A) (A) (A) (A) (A) (A)
                 (A) (A) (A) (A) (A) (A) (A) (A) (A) (A) (A) (A)
                 (A) (A) (A) (A) (A) (A) (A) (A) (A) (A) (A) (A)
                 (A) (A) (A) (A) (A) (A) (A) (A) (A) (A) (A) (A)
                 (A) (A) (A) (A) (A) (A) (A) (A) (A) (A) (A) (A)
                 (A) (A) (A) (A) (A) (A) (A) (A) (A) (A) (A) (A)
                 (A) (A) (A) (A) (A) (A) (A) (A) (A) (A) (A) (A)
                 (A) (A) (A) (A) (A) (A) (A) (A) (A) (A) (A) (A)
                 (A) (A) (A) (A) (A) (A) (A) (A) (A) (A) (A) (A)
                 (A) (A) (A) (A) (A) (A) (A) (A) (A) (A) (A) (A)
                 (A) (A) (A) (A) (A) (A) (A)
 The electronic state is 1-A.
 Alpha  occ. eigenvalues --  -10.63751 -10.62114 -10.59843 -10.59769  -0.94517
 Alpha  occ. eigenvalues --   -0.84843  -0.72371  -0.66696  -0.54994  -0.52746
 Alpha  occ. eigenvalues --   -0.49293  -0.46109  -0.41624  -0.39996  -0.37847
 Alpha  occ. eigenvalues --   -0.36917  -0.35785
 Alpha virt. eigenvalues --    0.03721   0.05977   0.07483   0.07751   0.09491
 Alpha virt. eigenvalues --    0.11082   0.12536   0.12764   0.13597   0.15327
 Alpha virt. eigenvalues --    0.15657   0.16476   0.19117   0.20045   0.20687
 Alpha virt. eigenvalues --    0.22033   0.23344   0.24769   0.26310   0.26913
 Alpha virt. eigenvalues --    0.28699   0.30569   0.31698   0.32128   0.34109
 Alpha virt. eigenvalues --    0.35036   0.35738   0.37792   0.39087   0.40186
 Alpha virt. eigenvalues --    0.41332   0.41560   0.42944   0.43280   0.46545
 Alpha virt. eigenvalues --    0.49243   0.50948   0.52687   0.54044   0.58258
 Alpha virt. eigenvalues --    0.59293   0.61599   0.63667   0.65581   0.65880
 Alpha virt. eigenvalues --    0.66807   0.67898   0.69229   0.71257   0.72185
 Alpha virt. eigenvalues --    0.72892   0.74460   0.75488   0.76822   0.78838
 Alpha virt. eigenvalues --    0.81045   0.82517   0.84048   0.86081   0.86484
 Alpha virt. eigenvalues --    0.87913   0.89080   0.89962   0.91226   0.91682
 Alpha virt. eigenvalues --    0.92328   0.92907   0.94422   0.96641   0.97182
 Alpha virt. eigenvalues --    0.98027   1.00084   1.00438   1.00710   1.02239
 Alpha virt. eigenvalues --    1.04816   1.05376   1.07305   1.08937   1.10687
 Alpha virt. eigenvalues --    1.11686   1.14176   1.15095   1.16051   1.19134
 Alpha virt. eigenvalues --    1.21120   1.22980   1.24162   1.27792   1.28615
 Alpha virt. eigenvalues --    1.29492   1.30249   1.32506   1.33977   1.35179
 Alpha virt. eigenvalues --    1.35914   1.38693   1.40320   1.44257   1.45176
 Alpha virt. eigenvalues --    1.48625   1.51637   1.53465   1.56570   1.59627
 Alpha virt. eigenvalues --    1.60518   1.62730   1.65211   1.68823   1.69885
 Alpha virt. eigenvalues --    1.74369   1.80762   1.83795   1.87753   1.90438
 Alpha virt. eigenvalues --    1.91738   1.93164   1.94839   1.96564   1.97527
 Alpha virt. eigenvalues --    1.98280   2.00377   2.02124   2.03228   2.04441
 Alpha virt. eigenvalues --    2.06191   2.07396   2.09027   2.09875   2.11131
 Alpha virt. eigenvalues --    2.12050   2.13910   2.14888   2.15445   2.17311
 Alpha virt. eigenvalues --    2.18504   2.20337   2.20484   2.22436   2.23052
 Alpha virt. eigenvalues --    2.23799   2.25327   2.27234   2.28456   2.29512
 Alpha virt. eigenvalues --    2.31945   2.33449   2.34307   2.35237   2.37417
 Alpha virt. eigenvalues --    2.40369   2.41188   2.41962   2.44825   2.48345
 Alpha virt. eigenvalues --    2.49997   2.50286   2.51515   2.52811   2.53288
 Alpha virt. eigenvalues --    2.55521   2.57568   2.58255   2.59250   2.61286
 Alpha virt. eigenvalues --    2.61930   2.63716   2.65804   2.66806   2.68589
 Alpha virt. eigenvalues --    2.72220   2.72913   2.73966   2.76705   2.77865
 Alpha virt. eigenvalues --    2.78705   2.80521   2.81767   2.84179   2.85154
 Alpha virt. eigenvalues --    2.88175   2.88714   2.90299   2.91669   2.93077
 Alpha virt. eigenvalues --    2.94324   2.95589   2.97521   3.00164   3.00817
 Alpha virt. eigenvalues --    3.02999   3.05200   3.06229   3.07171   3.08586
 Alpha virt. eigenvalues --    3.12011   3.12188   3.15716   3.17560   3.19352
 Alpha virt. eigenvalues --    3.22678   3.23820   3.24081   3.25561   3.29889
 Alpha virt. eigenvalues --    3.32040   3.33856   3.34441   3.35270   3.40574
 Alpha virt. eigenvalues --    3.41947   3.43804   3.44814   3.46056   3.49931
 Alpha virt. eigenvalues --    3.51008   3.52749   3.55116   3.57161   3.57919
 Alpha virt. eigenvalues --    3.63582   3.65780   3.68652   3.71072   3.71996
 Alpha virt. eigenvalues --    3.75211   3.78693   3.80318   3.80619   3.85413
 Alpha virt. eigenvalues --    3.89018   3.90072   3.92040   3.94966   3.96494
 Alpha virt. eigenvalues --    3.98275   4.04400   4.07190   4.09361   4.14778
 Alpha virt. eigenvalues --    4.16156   4.16411   4.19854   4.23696   4.24839
 Alpha virt. eigenvalues --    4.31801   4.34393   4.38764   4.40185   4.42166
 Alpha virt. eigenvalues --    4.50618   4.56415   4.90276   4.96351   5.02262
 Alpha virt. eigenvalues --    5.12925   5.17986   5.19146   5.22619   5.22927
 Alpha virt. eigenvalues --    5.24024   5.34597   5.42840   5.44632   5.48868
 Alpha virt. eigenvalues --    5.52225   5.54292   5.58855   5.63933   5.64655
 Alpha virt. eigenvalues --    5.69060   5.71783   5.75730   5.76150   5.78095
 Alpha virt. eigenvalues --    5.79715   5.81398   5.83323   5.86970   5.87755
 Alpha virt. eigenvalues --    5.89628   5.91031   5.91260   5.93102   5.94843
 Alpha virt. eigenvalues --    5.96451   5.97103   5.98900   5.99381   6.01728
 Alpha virt. eigenvalues --    6.03251   6.04782   6.05731   6.06717   6.07551
 Alpha virt. eigenvalues --    6.10255   6.11855   6.12935   6.13469   6.13968
 Alpha virt. eigenvalues --    6.16212   6.17930   6.20246   6.20576   6.22263
 Alpha virt. eigenvalues --    6.24558   6.26785   6.28135   6.30546   6.32816
 Alpha virt. eigenvalues --    6.33498   6.35137   6.36813   6.38438   6.40260
 Alpha virt. eigenvalues --    6.42566   6.46421   6.48388   6.49554   6.49866
 Alpha virt. eigenvalues --    6.53931   6.55548   6.56891   6.59149   6.60761
 Alpha virt. eigenvalues --    6.62972   6.66464   6.67466   6.72975   6.74548
 Alpha virt. eigenvalues --    6.77075   6.77917   6.78618   6.80594   6.83806
 Alpha virt. eigenvalues --    6.85433   6.86896   6.89686   6.91233   6.93171
 Alpha virt. eigenvalues --    6.94044   6.97851   6.99911   7.01711   7.03567
 Alpha virt. eigenvalues --    7.05653   7.08384   7.09778   7.10811   7.12693
 Alpha virt. eigenvalues --    7.14448   7.16904   7.20246   7.22698   7.25554
 Alpha virt. eigenvalues --    7.25766   7.27782   7.30926   7.33687   7.34916
 Alpha virt. eigenvalues --    7.38118   7.42065   7.43295   7.45028   7.46977
 Alpha virt. eigenvalues --    7.49565   7.52351   7.53515   7.55996   7.58333
 Alpha virt. eigenvalues --    7.59879   7.62869   7.65139   7.67084   7.68627
 Alpha virt. eigenvalues --    7.70306   7.71836   7.74445   7.75722   7.78822
 Alpha virt. eigenvalues --    7.79343   7.81905   7.83736   7.84354   7.88281
 Alpha virt. eigenvalues --    7.90667   7.91636   7.92049   7.95103   7.96967
 Alpha virt. eigenvalues --    7.99375   8.01196   8.02594   8.04155   8.05508
 Alpha virt. eigenvalues --    8.06222   8.09588   8.10734   8.13000   8.14878
 Alpha virt. eigenvalues --    8.15582   8.19616   8.20942   8.22172   8.23929
 Alpha virt. eigenvalues --    8.24790   8.28082   8.29400   8.32313   8.34210
 Alpha virt. eigenvalues --    8.35825   8.37930   8.41039   8.42021   8.42463
 Alpha virt. eigenvalues --    8.45194   8.45250   8.47902   8.49085   8.50120
 Alpha virt. eigenvalues --    8.51549   8.53690   8.54438   8.56680   8.58576
 Alpha virt. eigenvalues --    8.63072   8.64355   8.65774   8.66896   8.68209
 Alpha virt. eigenvalues --    8.71235   8.73142   8.75899   8.77934   8.80537
 Alpha virt. eigenvalues --    8.81793   8.82873   8.84460   8.88739   8.91194
 Alpha virt. eigenvalues --    8.94297   8.96737   8.97938   9.00443   9.02895
 Alpha virt. eigenvalues --    9.05796   9.06763   9.11591   9.13127   9.13587
 Alpha virt. eigenvalues --    9.18884   9.19965   9.22464   9.25391   9.26357
 Alpha virt. eigenvalues --    9.28367   9.32997   9.35641   9.39173   9.40662
 Alpha virt. eigenvalues --    9.41752   9.46465   9.52064   9.54588   9.57723
 Alpha virt. eigenvalues --    9.59318   9.65817   9.72322   9.75748   9.76826
 Alpha virt. eigenvalues --    9.84006   9.84993   9.87853   9.93070   9.96648
 Alpha virt. eigenvalues --    9.98618   9.99918  10.04268  10.12235  10.20326
 Alpha virt. eigenvalues --   10.26415  10.35486  10.49707  10.56229  10.58274
 Alpha virt. eigenvalues --   10.75813  10.84061  10.91057  10.93933  10.98970
 Alpha virt. eigenvalues --   11.01014  11.10575  11.22623  11.27981  11.38854
 Alpha virt. eigenvalues --   11.44302  11.72454  11.85726  12.07810  12.21176
 Alpha virt. eigenvalues --   12.36746  12.61902  13.14228  29.13278  29.25216
 Alpha virt. eigenvalues --   29.39685  29.58950 148.75988 148.93164 149.11858
 Alpha virt. eigenvalues --  149.25704
          Condensed to atoms (all electrons):
               1          2          3          4          5          6
     1  C    4.768687   0.381988   0.408334   0.350999   0.399908  -0.057572
     2  C    0.381988   4.802822  -0.043232  -0.018486  -0.056719   0.366422
     3  H    0.408334  -0.043232   0.661056  -0.016433  -0.057593   0.010057
     4  H    0.350999  -0.018486  -0.016433   0.677914  -0.023717  -0.000094
     5  H    0.399908  -0.056719  -0.057593  -0.023717   0.682857  -0.017635
     6  C   -0.057572   0.366422   0.010057  -0.000094  -0.017635   4.865072
     7  H   -0.033256   0.386250  -0.003936  -0.003965   0.010349  -0.038401
     8  H   -0.044841   0.397918  -0.004597   0.005936  -0.005863  -0.065702
     9  C    0.006494  -0.057168  -0.001010   0.000345   0.000403   0.335335
    10  H   -0.007559  -0.048285   0.000028   0.000308   0.003909   0.412893
    11  H   -0.000281  -0.037413  -0.000203   0.002745   0.000131   0.399836
    12  H    0.000708  -0.009650  -0.000017  -0.000041   0.000160  -0.041220
    13  H   -0.001333   0.012073   0.000082   0.000036  -0.000105  -0.066511
    14  H    0.000423  -0.011858  -0.000031   0.000095  -0.000114  -0.062534
               7          8          9         10         11         12
     1  C   -0.033256  -0.044841   0.006494  -0.007559  -0.000281   0.000708
     2  C    0.386250   0.397918  -0.057168  -0.048285  -0.037413  -0.009650
     3  H   -0.003936  -0.004597  -0.001010   0.000028  -0.000203  -0.000017
     4  H   -0.003965   0.005936   0.000345   0.000308   0.002745  -0.000041
     5  H    0.010349  -0.005863   0.000403   0.003909   0.000131   0.000160
     6  C   -0.038401  -0.065702   0.335335   0.412893   0.399836  -0.041220
     7  H    0.717116  -0.038660  -0.007762   0.009530  -0.004432  -0.000399
     8  H   -0.038660   0.664067  -0.005384  -0.012126   0.012585   0.007544
     9  C   -0.007762  -0.005384   4.744663  -0.054048  -0.058579   0.401818
    10  H    0.009530  -0.012126  -0.054048   0.666065  -0.040460  -0.014847
    11  H   -0.004432   0.012585  -0.058579  -0.040460   0.742214   0.014426
    12  H   -0.000399   0.007544   0.401818  -0.014847   0.014426   0.715743
    13  H   -0.000018  -0.000420   0.431063  -0.002489  -0.016296  -0.043984
    14  H    0.005778  -0.000869   0.415753   0.015001  -0.008009  -0.039947
              13         14
     1  C   -0.001333   0.000423
     2  C    0.012073  -0.011858
     3  H    0.000082  -0.000031
     4  H    0.000036   0.000095
     5  H   -0.000105  -0.000114
     6  C   -0.066511  -0.062534
     7  H   -0.000018   0.005778
     8  H   -0.000420  -0.000869
     9  C    0.431063   0.415753
    10  H   -0.002489   0.015001
    11  H   -0.016296  -0.008009
    12  H   -0.043984  -0.039947
    13  H    0.641254  -0.018042
    14  H   -0.018042   0.643443
 Mulliken charges:
               1
     1  C   -0.172698
     2  C   -0.064661
     3  H    0.047497
     4  H    0.024361
     5  H    0.064029
     6  C   -0.039947
     7  H    0.001805
     8  H    0.090412
     9  C   -0.151922
    10  H    0.072080
    11  H   -0.006265
    12  H    0.009708
    13  H    0.064690
    14  H    0.060912
 Sum of Mulliken charges =   0.00000
 Mulliken charges with hydrogens summed into heavy atoms:
               1
     1  C   -0.036812
     2  C    0.027556
     6  C    0.025869
     9  C   -0.016613
 Electronic spatial extent (au):  <R**2>=            410.2152
 Charge=              0.0000 electrons
 Dipole moment (field-independent basis, Debye):
    X=             -0.1893    Y=             -0.0322    Z=             -0.9757  Tot=              0.9944
 Quadrupole moment (field-independent basis, Debye-Ang):
   XX=            -31.5690   YY=            -29.4631   ZZ=            -28.5573
   XY=             -0.8596   XZ=             -0.6252   YZ=              0.1404
 Traceless Quadrupole moment (field-independent basis, Debye-Ang):
   XX=             -1.7059   YY=              0.4000   ZZ=              1.3059
   XY=             -0.8596   XZ=             -0.6252   YZ=              0.1404
 Octapole moment (field-independent basis, Debye-Ang**2):
  XXX=             -2.0981  YYY=             -0.2985  ZZZ=             -3.4228  XYY=             -1.3597
  XXY=              1.8292  XXZ=             -4.2919  XZZ=             -0.2673  YZZ=             -0.1507
  YYZ=             -0.8127  XYZ=              1.4448
 Hexadecapole moment (field-independent basis, Debye-Ang**3):
 XXXX=           -464.1611 YYYY=           -103.2708 ZZZZ=            -69.0042 XXXY=            -11.3931
 XXXZ=             -4.4630 YYYX=             -3.7814 YYYZ=             -0.1225 ZZZX=             -2.9833
 ZZZY=             -1.4895 XXYY=            -86.1244 XXZZ=            -84.1465 YYZZ=            -25.6934
 XXYZ=              3.0233 YYXZ=              0.3131 ZZXY=              0.5490
 N-N= 1.324736974300D+02 E-N=-6.303992816774D+02  KE= 1.574884397779D+02
 Leave Link  601 at Wed Aug 26 18:39:44 2020, MaxMem=  2097152000 cpu:         1.1
 (Enter /opt/cluster/programs/g09/g09_d.01/g09/l9999.exe)
 1\1\GINC-NODE18\SP\RB2PLYPD3-FC\def2QZVP\C4H10\BOITTIER\26-Aug-2020\0\
 \#p B2PLYPD3/Def2QZVP\\butane_opt\\0,1\C,0,-3.889572,0.261963,0.065439
 \C,0,-2.672883,-0.625141,-0.059862\H,0,-4.764391,-0.30266,0.516261\H,0
 ,-4.210404,1.312489,-1.047382\H,0,-3.708531,0.804687,0.897404\C,0,-1.3
 84527,0.160594,0.015564\H,0,-2.702135,-1.423707,-1.094769\H,0,-2.49957
 5,-1.197443,0.735895\C,0,-0.243638,-0.675535,0.078996\H,0,-1.464648,0.
 687157,0.78973\H,0,-1.147808,0.925425,-0.992308\H,0,-0.246551,-1.31447
 6,1.043166\H,0,0.522248,-0.005388,0.139552\H,0,-0.474893,-1.425993,-0.
 780084\\Version=ES64L-G09RevD.01\State=1-A\HF=-157.9480237\MP2=-158.19
 94626\RMSD=4.240e-09\PG=C01 [X(C4H10)]\\@


 WHEN HAVING A MEETING OF THE MINDS,
 MAKE SURE YOU HAVE THE EQUIPMENT FOR IT.
 Job cpu time:       0 days  1 hours 43 minutes  0.6 seconds.
 File lengths (MBytes):  RWF=    152 Int=      0 D2E=      0 Chk=     14 Scr=      1
 Normal termination of Gaussian 09 at Wed Aug 26 18:39:44 2020.
