 Entering Gaussian System, Link 0=/opt/cluster/programs/g09/g09_d.01/g09//g09
 Input=/home/boittier/MDCM/nms_sampling/butane_geom.xyz.dir/energies/butane_opt_723_energy.com
 Output=/scratch/boittier/butane_opt_723_energy/butane_opt_723_energy.out
 Initial command:
 /opt/cluster/programs/g09/g09_d.01/g09/l1.exe "/scratch/boittier/butane_opt_723_energy/Gau-135246.inp" -scrdir="/scratch/boittier/butane_opt_723_energy/"
 Entering Link 1 = /opt/cluster/programs/g09/g09_d.01/g09/l1.exe PID=    135247.
  
 Copyright (c) 1988,1990,1992,1993,1995,1998,2003,2009,2013,
            Gaussian, Inc.  All Rights Reserved.
  
 This is part of the Gaussian(R) 09 program.  It is based on
 the Gaussian(R) 03 system (copyright 2003, Gaussian, Inc.),
 the Gaussian(R) 98 system (copyright 1998, Gaussian, Inc.),
 the Gaussian(R) 94 system (copyright 1995, Gaussian, Inc.),
 the Gaussian 92(TM) system (copyright 1992, Gaussian, Inc.),
 the Gaussian 90(TM) system (copyright 1990, Gaussian, Inc.),
 the Gaussian 88(TM) system (copyright 1988, Gaussian, Inc.),
 the Gaussian 86(TM) system (copyright 1986, Carnegie Mellon
 University), and the Gaussian 82(TM) system (copyright 1983,
 Carnegie Mellon University). Gaussian is a federally registered
 trademark of Gaussian, Inc.
  
 This software contains proprietary and confidential information,
 including trade secrets, belonging to Gaussian, Inc.
  
 This software is provided under written license and may be
 used, copied, transmitted, or stored only in accord with that
 written license.
  
 The following legend is applicable only to US Government
 contracts under FAR:
  
                    RESTRICTED RIGHTS LEGEND
  
 Use, reproduction and disclosure by the US Government is
 subject to restrictions as set forth in subparagraphs (a)
 and (c) of the Commercial Computer Software - Restricted
 Rights clause in FAR 52.227-19.
  
 Gaussian, Inc.
 340 Quinnipiac St., Bldg. 40, Wallingford CT 06492
  
  
 ---------------------------------------------------------------
 Warning -- This program may not be used in any manner that
 competes with the business of Gaussian, Inc. or will provide
 assistance to any competitor of Gaussian, Inc.  The licensee
 of this program is prohibited from giving any competitor of
 Gaussian, Inc. access to this program.  By using this program,
 the user acknowledges that Gaussian, Inc. is engaged in the
 business of creating and licensing software in the field of
 computational chemistry and represents and warrants to the
 licensee that it is not a competitor of Gaussian, Inc. and that
 it will not use this program in any manner prohibited above.
 ---------------------------------------------------------------
  

 Cite this work as:
 Gaussian 09, Revision D.01,
 M. J. Frisch, G. W. Trucks, H. B. Schlegel, G. E. Scuseria, 
 M. A. Robb, J. R. Cheeseman, G. Scalmani, V. Barone, B. Mennucci, 
 G. A. Petersson, H. Nakatsuji, M. Caricato, X. Li, H. P. Hratchian, 
 A. F. Izmaylov, J. Bloino, G. Zheng, J. L. Sonnenberg, M. Hada, 
 M. Ehara, K. Toyota, R. Fukuda, J. Hasegawa, M. Ishida, T. Nakajima, 
 Y. Honda, O. Kitao, H. Nakai, T. Vreven, J. A. Montgomery, Jr., 
 J. E. Peralta, F. Ogliaro, M. Bearpark, J. J. Heyd, E. Brothers, 
 K. N. Kudin, V. N. Staroverov, T. Keith, R. Kobayashi, J. Normand, 
 K. Raghavachari, A. Rendell, J. C. Burant, S. S. Iyengar, J. Tomasi, 
 M. Cossi, N. Rega, J. M. Millam, M. Klene, J. E. Knox, J. B. Cross, 
 V. Bakken, C. Adamo, J. Jaramillo, R. Gomperts, R. E. Stratmann, 
 O. Yazyev, A. J. Austin, R. Cammi, C. Pomelli, J. W. Ochterski, 
 R. L. Martin, K. Morokuma, V. G. Zakrzewski, G. A. Voth, 
 P. Salvador, J. J. Dannenberg, S. Dapprich, A. D. Daniels, 
 O. Farkas, J. B. Foresman, J. V. Ortiz, J. Cioslowski, 
 and D. J. Fox, Gaussian, Inc., Wallingford CT, 2013.
 
 ******************************************
 Gaussian 09:  ES64L-G09RevD.01 24-Apr-2013
                26-Aug-2020 
 ******************************************
 %chk=/home/boittier/MDCM/nms_sampling/butane_geom.xyz.dir/butane_opt_723.chk
 %nproc=8
 Will use up to    8 processors via shared memory.
 %mem=16000MB
 --------------------
 #p B2PLYPD3/Def2QZVP
 --------------------
 1/38=1/1;
 2/12=2,17=6,18=5,40=1/2;
 3/5=45,7=101,11=9,16=1,25=1,30=1,74=-60/1,2,3;
 4//1;
 5/5=2,38=5/2;
 8/10=1/1;
 9/16=-3/6;
 6/7=2,8=2,9=2,10=2/1;
 99/5=1,9=1/99;
 Leave Link    1 at Wed Aug 26 22:44:13 2020, MaxMem=  2097152000 cpu:         0.3
 (Enter /opt/cluster/programs/g09/g09_d.01/g09/l101.exe)
 ----------
 butane_opt
 ----------
 Symbolic Z-matrix:
 Charge =  0 Multiplicity = 1
 C                    -3.90729   0.17059   0.16457 
 C                    -2.70281  -0.47716  -0.13724 
 H                    -4.85406  -0.54221   0.76091 
 H                    -4.10096   1.01301  -0.73113 
 H                    -3.27822   0.6214    0.95117 
 C                    -1.45272   0.2518   -0.15366 
 H                    -2.73613  -1.53875  -1.35428 
 H                    -2.41979  -1.06226   0.63644 
 C                    -0.18007  -0.7772    0.21225 
 H                    -1.84195   0.86312   0.49324 
 H                    -1.20066   1.05651  -1.06392 
 H                    -0.44807  -1.27806   1.01775 
 H                     0.6524   -0.18272   0.33003 
 H                     0.16699  -1.46286  -0.68926 
 
 NAtoms=     14 NQM=       14 NQMF=       0 NMMI=      0 NMMIF=      0
                NMic=       0 NMicF=      0.
                    Isotopes and Nuclear Properties:
 (Nuclear quadrupole moments (NQMom) in fm**2, nuclear magnetic moments (NMagM)
  in nuclear magnetons)

  Atom         1           2           3           4           5           6           7           8           9          10
 IAtWgt=          12          12           1           1           1          12           1           1          12           1
 AtmWgt=  12.0000000  12.0000000   1.0078250   1.0078250   1.0078250  12.0000000   1.0078250   1.0078250  12.0000000   1.0078250
 NucSpn=           0           0           1           1           1           0           1           1           0           1
 AtZEff=   0.0000000   0.0000000   0.0000000   0.0000000   0.0000000   0.0000000   0.0000000   0.0000000   0.0000000   0.0000000
 NQMom=    0.0000000   0.0000000   0.0000000   0.0000000   0.0000000   0.0000000   0.0000000   0.0000000   0.0000000   0.0000000
 NMagM=    0.0000000   0.0000000   2.7928460   2.7928460   2.7928460   0.0000000   2.7928460   2.7928460   0.0000000   2.7928460
 AtZNuc=   6.0000000   6.0000000   1.0000000   1.0000000   1.0000000   6.0000000   1.0000000   1.0000000   6.0000000   1.0000000

  Atom        11          12          13          14
 IAtWgt=           1           1           1           1
 AtmWgt=   1.0078250   1.0078250   1.0078250   1.0078250
 NucSpn=           1           1           1           1
 AtZEff=   0.0000000   0.0000000   0.0000000   0.0000000
 NQMom=    0.0000000   0.0000000   0.0000000   0.0000000
 NMagM=    2.7928460   2.7928460   2.7928460   2.7928460
 AtZNuc=   1.0000000   1.0000000   1.0000000   1.0000000
 Leave Link  101 at Wed Aug 26 22:44:13 2020, MaxMem=  2097152000 cpu:         0.5
 (Enter /opt/cluster/programs/g09/g09_d.01/g09/l202.exe)
                          Input orientation:                          
 ---------------------------------------------------------------------
 Center     Atomic      Atomic             Coordinates (Angstroms)
 Number     Number       Type             X           Y           Z
 ---------------------------------------------------------------------
      1          6           0       -3.907288    0.170586    0.164569
      2          6           0       -2.702814   -0.477164   -0.137238
      3          1           0       -4.854055   -0.542212    0.760910
      4          1           0       -4.100960    1.013015   -0.731125
      5          1           0       -3.278223    0.621401    0.951168
      6          6           0       -1.452715    0.251803   -0.153658
      7          1           0       -2.736129   -1.538749   -1.354276
      8          1           0       -2.419790   -1.062256    0.636440
      9          6           0       -0.180065   -0.777204    0.212249
     10          1           0       -1.841945    0.863123    0.493239
     11          1           0       -1.200655    1.056511   -1.063918
     12          1           0       -0.448065   -1.278055    1.017750
     13          1           0        0.652401   -0.182720    0.330031
     14          1           0        0.166988   -1.462864   -0.689264
 ---------------------------------------------------------------------
                    Distance matrix (angstroms):
                    1          2          3          4          5
     1  C    0.000000
     2  C    1.400509   0.000000
     3  H    1.326677   2.332110   0.000000
     4  H    1.244774   2.127944   2.282992   0.000000
     5  H    1.103492   1.650021   1.968106   1.913209   0.000000
     6  C    2.476448   1.447208   3.610541   2.815335   2.165577
     7  H    2.569111   1.615319   3.154791   2.960166   3.205493
     8  H    1.988771   1.010452   2.492305   3.000553   1.915897
     9  C    3.846137   2.564455   4.711946   4.412285   3.478603
    10  H    2.203015   1.713174   3.334580   2.573846   1.526769
    11  H    3.101597   2.338242   4.385572   2.919660   2.926804
    12  H    3.846128   2.656937   4.474392   4.653086   3.409129
    13  H    4.576349   3.400368   5.534975   5.015005   4.059831
    14  H    4.471791   3.084169   5.306739   4.934279   4.347949
                    6          7          8          9         10
     6  C    0.000000
     7  H    2.508926   0.000000
     8  H    1.812799   2.071247   0.000000
     9  C    1.677016   3.093124   2.297294   0.000000
    10  H    0.971436   3.159409   2.015315   2.351908   0.000000
    11  H    1.240831   3.029416   2.977697   2.456159   1.695108
    12  H    2.173013   3.306011   2.019818   0.985651   2.608190
    13  H    2.203243   4.019682   3.210269   1.029701   2.709647
    14  H    2.418759   2.979276   2.934178   1.184610   3.293075
                   11         12         13         14
    11  H    0.000000
    12  H    3.217131   0.000000
    13  H    2.629183   1.698158   0.000000
    14  H    2.891032   1.823826   1.706856   0.000000
 Stoichiometry    C4H10
 Framework group  C1[X(C4H10)]
 Deg. of freedom    36
 Full point group                 C1      NOp   1
 Largest Abelian subgroup         C1      NOp   1
 Largest concise Abelian subgroup C1      NOp   1
                         Standard orientation:                         
 ---------------------------------------------------------------------
 Center     Atomic      Atomic             Coordinates (Angstroms)
 Number     Number       Type             X           Y           Z
 ---------------------------------------------------------------------
      1          6           0        1.903570    0.007429   -0.135262
      2          6           0        0.596611   -0.346126    0.222902
      3          1           0        2.699132   -0.956247   -0.580775
      4          1           0        2.251171    0.930420    0.624161
      5          1           0        1.374812    0.436961   -1.003371
      6          6           0       -0.491577    0.597654    0.083134
      7          1           0        0.422556   -1.187118    1.591000
      8          1           0        0.209942   -0.983474   -0.459217
      9          6           0       -1.935804   -0.219122   -0.160724
     10          1           0        0.009379    1.013885   -0.637618
     11          1           0       -0.588770    1.570078    0.847730
     12          1           0       -1.765388   -0.883334   -0.868741
     13          1           0       -2.639199    0.494518   -0.397869
     14          1           0       -2.410437   -0.674704    0.824400
 ---------------------------------------------------------------------
 Rotational constants (GHZ):     20.9315729      3.7428981      3.5524052
 Leave Link  202 at Wed Aug 26 22:44:14 2020, MaxMem=  2097152000 cpu:         0.0
 (Enter /opt/cluster/programs/g09/g09_d.01/g09/l301.exe)
 Standard basis: def2QZVP (5D, 7F)
 Ernie: Thresh=  0.10000D-02 Tol=  0.10000D-05 Strict=F.
 There are   638 symmetry adapted cartesian basis functions of A   symmetry.
 There are   528 symmetry adapted basis functions of A   symmetry.
   528 basis functions,   748 primitive gaussians,   638 cartesian basis functions
    17 alpha electrons       17 beta electrons
       nuclear repulsion energy       131.3186872651 Hartrees.
 IExCor=  419 DFT=T Ex+Corr=B2PLYPD3 ExCW=0 ScaHFX=  0.530000
 ScaDFX=  0.470000  0.470000  0.730000  0.730000 ScalE2=  0.270000  0.270000
 IRadAn=      0 IRanWt=     -1 IRanGd=            0 ICorTp=0 IEmpDi=141
 NAtoms=   14 NActive=   14 NUniq=   14 SFac= 1.00D+00 NAtFMM=   60 NAOKFM=F Big=F
 Integral buffers will be    131072 words long.
 Regular integral format.
 Two-electron integral symmetry is turned on.
 R6Disp:  Grimme-D3(BJ) Dispersion energy=       -0.0071000722 Hartrees.
 Nuclear repulsion after empirical dispersion term =      131.3115871928 Hartrees.
 Leave Link  301 at Wed Aug 26 22:44:14 2020, MaxMem=  2097152000 cpu:         0.4
 (Enter /opt/cluster/programs/g09/g09_d.01/g09/l302.exe)
 NPDir=0 NMtPBC=     1 NCelOv=     1 NCel=       1 NClECP=     1 NCelD=      1
         NCelK=      1 NCelE2=     1 NClLst=     1 CellRange=     0.0.
 One-electron integrals computed using PRISM.
   1 Symmetry operations used in ECPInt.
 ECPInt:  NShTT=   14196 NPrTT=   30597 LenC2=   13890 LenP2D=   26029.
 LDataN:  DoStor=T MaxTD1= 8 Len=  415
 NBasis=   528 RedAO= T EigKep=  3.64D-05  NBF=   528
 NBsUse=   528 1.00D-06 EigRej= -1.00D+00 NBFU=   528
 Precomputing XC quadrature grid using
 IXCGrd= 4 IRadAn=           0 IRanWt=          -1 IRanGd=           0 AccXCQ= 0.00D+00.
 Generated NRdTot=       0 NPtTot=           0 NUsed=           0 NTot=          32
 NSgBfM=   638   638   638   638   638 MxSgAt=    14 MxSgA2=    14.
 Leave Link  302 at Wed Aug 26 22:44:15 2020, MaxMem=  2097152000 cpu:         5.6
 (Enter /opt/cluster/programs/g09/g09_d.01/g09/l303.exe)
 DipDrv:  MaxL=1.
 Leave Link  303 at Wed Aug 26 22:44:15 2020, MaxMem=  2097152000 cpu:         0.5
 (Enter /opt/cluster/programs/g09/g09_d.01/g09/l401.exe)
 ExpMin= 7.60D-02 ExpMax= 6.70D+04 ExpMxC= 6.47D+02 IAcc=2 IRadAn=         4 AccDes= 0.00D+00
 Harris functional with IExCor=  419 and IRadAn=       4 diagonalized for initial guess.
 HarFok:  IExCor=  419 AccDes= 0.00D+00 IRadAn=         4 IDoV= 1 UseB2=F ITyADJ=14
 ICtDFT=  3500011 ScaDFX=  1.000000  1.000000  1.000000  1.000000
 FoFCou: FMM=F IPFlag=           0 FMFlag=      100000 FMFlg1=           0
         NFxFlg=           0 DoJE=T BraDBF=F KetDBF=T FulRan=T
         wScrn=  0.000000 ICntrl=     500 IOpCl=  0 I1Cent=   200000004 NGrid=           0
         NMat0=    1 NMatS0=      1 NMatT0=    0 NMatD0=    1 NMtDS0=    0 NMtDT0=    0
 Petite list used in FoFCou.
 Harris En= -158.376858743718    
 JPrj=0 DoOrth=F DoCkMO=F.
 Leave Link  401 at Wed Aug 26 22:44:17 2020, MaxMem=  2097152000 cpu:        17.0
 (Enter /opt/cluster/programs/g09/g09_d.01/g09/l502.exe)
 Closed shell SCF:
 Using DIIS extrapolation, IDIIS=  1040.
 Integral symmetry usage will be decided dynamically.
 IVT=     1249338 IEndB=     1249338 NGot=  2097152000 MDV=  2096326985
 LenX=  2096326985 LenY=  2095919303
 Requested convergence on RMS density matrix=1.00D-08 within 128 cycles.
 Requested convergence on MAX density matrix=1.00D-06.
 Requested convergence on             energy=1.00D-06.
 No special actions if energy rises.
 Fock matrices will be formed incrementally for  20 cycles.
 Integral accuracy reduced to 1.0D-05 until final iterations.

 Cycle   1  Pass 0  IDiag  1:
 FoFJK:  IHMeth= 1 ICntrl=       0 DoSepK=F KAlg= 0 I1Cent=   0 FoldK=F
 IRaf= 940000000 NMat=   1 IRICut=       1 DoRegI=T DoRafI=F ISym2E= 0.
 FoFCou: FMM=F IPFlag=           0 FMFlag=      100000 FMFlg1=           0
         NFxFlg=           0 DoJE=F BraDBF=F KetDBF=F FulRan=T
         wScrn=  0.000000 ICntrl=       0 IOpCl=  0 I1Cent=           0 NGrid=           0
         NMat0=    1 NMatS0=      1 NMatT0=    0 NMatD0=    1 NMtDS0=    0 NMtDT0=    0
 Symmetry not used in FoFCou.
 E= -157.611096254843    
 DIIS: error= 2.29D-02 at cycle   1 NSaved=   1.
 NSaved= 1 IEnMin= 1 EnMin= -157.611096254843     IErMin= 1 ErrMin= 2.29D-02
 ErrMax= 2.29D-02  0.00D+00 EMaxC= 1.00D-01 BMatC= 3.38D-01 BMatP= 3.38D-01
 IDIUse=3 WtCom= 7.71D-01 WtEn= 2.29D-01
 Coeff-Com:  0.100D+01
 Coeff-En:   0.100D+01
 Coeff:      0.100D+01
 Gap=     0.340 Goal=   None    Shift=    0.000
 GapD=    0.340 DampG=1.000 DampE=0.500 DampFc=0.5000 IDamp=-1.
 Damping current iteration by 5.00D-01
 RMSDP=1.13D-03 MaxDP=9.92D-02              OVMax= 2.45D-01

 Cycle   2  Pass 0  IDiag  1:
 RMSU=  5.34D-04    CP:  9.41D-01
 E= -157.744885656788     Delta-E=       -0.133789401945 Rises=F Damp=T
 DIIS: error= 7.58D-03 at cycle   2 NSaved=   2.
 NSaved= 2 IEnMin= 2 EnMin= -157.744885656788     IErMin= 2 ErrMin= 7.58D-03
 ErrMax= 7.58D-03  0.00D+00 EMaxC= 1.00D-01 BMatC= 3.20D-02 BMatP= 3.38D-01
 IDIUse=3 WtCom= 9.24D-01 WtEn= 7.58D-02
 Coeff-Com: -0.111D+00 0.111D+01
 Coeff-En:   0.000D+00 0.100D+01
 Coeff:     -0.102D+00 0.110D+01
 Gap=     0.440 Goal=   None    Shift=    0.000
 RMSDP=3.03D-04 MaxDP=1.63D-02 DE=-1.34D-01 OVMax= 1.69D-01

 Cycle   3  Pass 0  IDiag  1:
 RMSU=  2.85D-04    CP:  9.29D-01  8.20D-01
 E= -157.878871913839     Delta-E=       -0.133986257051 Rises=F Damp=F
 DIIS: error= 4.15D-03 at cycle   3 NSaved=   3.
 NSaved= 3 IEnMin= 3 EnMin= -157.878871913839     IErMin= 3 ErrMin= 4.15D-03
 ErrMax= 4.15D-03  0.00D+00 EMaxC= 1.00D-01 BMatC= 5.76D-03 BMatP= 3.20D-02
 IDIUse=3 WtCom= 9.59D-01 WtEn= 4.15D-02
 Coeff-Com: -0.112D+00 0.278D+00 0.834D+00
 Coeff-En:   0.000D+00 0.000D+00 0.100D+01
 Coeff:     -0.107D+00 0.266D+00 0.841D+00
 Gap=     0.346 Goal=   None    Shift=    0.000
 RMSDP=9.91D-05 MaxDP=1.01D-02 DE=-1.34D-01 OVMax= 3.80D-02

 Cycle   4  Pass 0  IDiag  1:
 RMSU=  7.34D-05    CP:  9.22D-01  9.38D-01  9.66D-01
 E= -157.884314874436     Delta-E=       -0.005442960597 Rises=F Damp=F
 DIIS: error= 1.21D-03 at cycle   4 NSaved=   4.
 NSaved= 4 IEnMin= 4 EnMin= -157.884314874436     IErMin= 4 ErrMin= 1.21D-03
 ErrMax= 1.21D-03  0.00D+00 EMaxC= 1.00D-01 BMatC= 9.48D-04 BMatP= 5.76D-03
 IDIUse=3 WtCom= 9.88D-01 WtEn= 1.21D-02
 Coeff-Com: -0.403D-01 0.607D-01 0.377D+00 0.602D+00
 Coeff-En:   0.000D+00 0.000D+00 0.000D+00 0.100D+01
 Coeff:     -0.398D-01 0.600D-01 0.373D+00 0.607D+00
 Gap=     0.348 Goal=   None    Shift=    0.000
 RMSDP=3.17D-05 MaxDP=2.58D-03 DE=-5.44D-03 OVMax= 7.03D-03

 Cycle   5  Pass 0  IDiag  1:
 RMSU=  2.00D-05    CP:  9.23D-01  9.19D-01  1.01D+00  7.49D-01
 E= -157.885224159356     Delta-E=       -0.000909284920 Rises=F Damp=F
 DIIS: error= 1.43D-04 at cycle   5 NSaved=   5.
 NSaved= 5 IEnMin= 5 EnMin= -157.885224159356     IErMin= 5 ErrMin= 1.43D-04
 ErrMax= 1.43D-04  0.00D+00 EMaxC= 1.00D-01 BMatC= 9.92D-06 BMatP= 9.48D-04
 IDIUse=3 WtCom= 9.99D-01 WtEn= 1.43D-03
 Coeff-Com: -0.124D-02-0.303D-02 0.317D-01 0.109D+00 0.863D+00
 Coeff-En:   0.000D+00 0.000D+00 0.000D+00 0.000D+00 0.100D+01
 Coeff:     -0.124D-02-0.303D-02 0.317D-01 0.109D+00 0.863D+00
 Gap=     0.348 Goal=   None    Shift=    0.000
 RMSDP=6.49D-06 MaxDP=3.40D-04 DE=-9.09D-04 OVMax= 1.13D-03

 Initial convergence to 1.0D-05 achieved.  Increase integral accuracy.
 Cycle   6  Pass 1  IDiag  1:
 E= -157.885178697111     Delta-E=        0.000045462245 Rises=F Damp=F
 DIIS: error= 3.17D-05 at cycle   1 NSaved=   1.
 NSaved= 1 IEnMin= 1 EnMin= -157.885178697111     IErMin= 1 ErrMin= 3.17D-05
 ErrMax= 3.17D-05  0.00D+00 EMaxC= 1.00D-01 BMatC= 8.43D-07 BMatP= 8.43D-07
 IDIUse=1 WtCom= 1.00D+00 WtEn= 0.00D+00
 Coeff-Com:  0.100D+01
 Coeff:      0.100D+01
 Gap=     0.348 Goal=   None    Shift=    0.000
 RMSDP=6.49D-06 MaxDP=3.40D-04 DE= 4.55D-05 OVMax= 3.03D-04

 Cycle   7  Pass 1  IDiag  1:
 RMSU=  1.44D-05    CP:  1.00D+00
 E= -157.885179432274     Delta-E=       -0.000000735163 Rises=F Damp=F
 DIIS: error= 1.93D-05 at cycle   2 NSaved=   2.
 NSaved= 2 IEnMin= 2 EnMin= -157.885179432274     IErMin= 2 ErrMin= 1.93D-05
 ErrMax= 1.93D-05  0.00D+00 EMaxC= 1.00D-01 BMatC= 1.74D-07 BMatP= 8.43D-07
 IDIUse=1 WtCom= 1.00D+00 WtEn= 0.00D+00
 Coeff-Com:  0.249D+00 0.751D+00
 Coeff:      0.249D+00 0.751D+00
 Gap=     0.348 Goal=   None    Shift=    0.000
 RMSDP=7.92D-07 MaxDP=5.03D-05 DE=-7.35D-07 OVMax= 1.78D-04

 Cycle   8  Pass 1  IDiag  1:
 RMSU=  7.18D-07    CP:  1.00D+00  1.02D+00
 E= -157.885179592767     Delta-E=       -0.000000160494 Rises=F Damp=F
 DIIS: error= 8.13D-06 at cycle   3 NSaved=   3.
 NSaved= 3 IEnMin= 3 EnMin= -157.885179592767     IErMin= 3 ErrMin= 8.13D-06
 ErrMax= 8.13D-06  0.00D+00 EMaxC= 1.00D-01 BMatC= 3.82D-08 BMatP= 1.74D-07
 IDIUse=1 WtCom= 1.00D+00 WtEn= 0.00D+00
 Coeff-Com: -0.269D-01 0.289D+00 0.738D+00
 Coeff:     -0.269D-01 0.289D+00 0.738D+00
 Gap=     0.348 Goal=   None    Shift=    0.000
 RMSDP=3.52D-07 MaxDP=2.59D-05 DE=-1.60D-07 OVMax= 5.21D-05

 Cycle   9  Pass 1  IDiag  1:
 RMSU=  2.99D-07    CP:  1.00D+00  1.04D+00  9.57D-01
 E= -157.885179633472     Delta-E=       -0.000000040704 Rises=F Damp=F
 DIIS: error= 2.15D-06 at cycle   4 NSaved=   4.
 NSaved= 4 IEnMin= 4 EnMin= -157.885179633472     IErMin= 4 ErrMin= 2.15D-06
 ErrMax= 2.15D-06  0.00D+00 EMaxC= 1.00D-01 BMatC= 1.91D-09 BMatP= 3.82D-08
 IDIUse=1 WtCom= 1.00D+00 WtEn= 0.00D+00
 Coeff-Com: -0.241D-01 0.470D-01 0.231D+00 0.747D+00
 Coeff:     -0.241D-01 0.470D-01 0.231D+00 0.747D+00
 Gap=     0.348 Goal=   None    Shift=    0.000
 RMSDP=1.04D-07 MaxDP=7.85D-06 DE=-4.07D-08 OVMax= 3.15D-05

 Cycle  10  Pass 1  IDiag  1:
 RMSU=  8.48D-08    CP:  1.00D+00  1.04D+00  1.02D+00  1.12D+00
 E= -157.885179635954     Delta-E=       -0.000000002482 Rises=F Damp=F
 DIIS: error= 6.85D-07 at cycle   5 NSaved=   5.
 NSaved= 5 IEnMin= 5 EnMin= -157.885179635954     IErMin= 5 ErrMin= 6.85D-07
 ErrMax= 6.85D-07  0.00D+00 EMaxC= 1.00D-01 BMatC= 2.49D-10 BMatP= 1.91D-09
 IDIUse=1 WtCom= 1.00D+00 WtEn= 0.00D+00
 Coeff-Com: -0.446D-02-0.211D-01-0.251D-01 0.231D+00 0.819D+00
 Coeff:     -0.446D-02-0.211D-01-0.251D-01 0.231D+00 0.819D+00
 Gap=     0.348 Goal=   None    Shift=    0.000
 RMSDP=4.30D-08 MaxDP=3.09D-06 DE=-2.48D-09 OVMax= 6.42D-06

 Cycle  11  Pass 1  IDiag  1:
 RMSU=  2.05D-08    CP:  1.00D+00  1.04D+00  1.04D+00  1.23D+00  1.08D+00
 E= -157.885179636266     Delta-E=       -0.000000000312 Rises=F Damp=F
 DIIS: error= 1.59D-07 at cycle   6 NSaved=   6.
 NSaved= 6 IEnMin= 6 EnMin= -157.885179636266     IErMin= 6 ErrMin= 1.59D-07
 ErrMax= 1.59D-07  0.00D+00 EMaxC= 1.00D-01 BMatC= 1.69D-11 BMatP= 2.49D-10
 IDIUse=1 WtCom= 1.00D+00 WtEn= 0.00D+00
 Coeff-Com:  0.860D-03-0.108D-01-0.295D-01 0.165D-01 0.272D+00 0.751D+00
 Coeff:      0.860D-03-0.108D-01-0.295D-01 0.165D-01 0.272D+00 0.751D+00
 Gap=     0.348 Goal=   None    Shift=    0.000
 RMSDP=1.16D-08 MaxDP=1.10D-06 DE=-3.12D-10 OVMax= 2.55D-06

 Cycle  12  Pass 1  IDiag  1:
 RMSU=  6.18D-09    CP:  1.00D+00  1.04D+00  1.05D+00  1.25D+00  1.15D+00
                    CP:  1.13D+00
 E= -157.885179636287     Delta-E=       -0.000000000021 Rises=F Damp=F
 DIIS: error= 2.88D-08 at cycle   7 NSaved=   7.
 NSaved= 7 IEnMin= 7 EnMin= -157.885179636287     IErMin= 7 ErrMin= 2.88D-08
 ErrMax= 2.88D-08  0.00D+00 EMaxC= 1.00D-01 BMatC= 3.42D-13 BMatP= 1.69D-11
 IDIUse=1 WtCom= 1.00D+00 WtEn= 0.00D+00
 Coeff-Com:  0.278D-03-0.107D-02-0.406D-02-0.387D-02 0.135D-01 0.117D+00
 Coeff-Com:  0.878D+00
 Coeff:      0.278D-03-0.107D-02-0.406D-02-0.387D-02 0.135D-01 0.117D+00
 Coeff:      0.878D+00
 Gap=     0.348 Goal=   None    Shift=    0.000
 RMSDP=2.20D-09 MaxDP=2.18D-07 DE=-2.08D-11 OVMax= 3.52D-07

 SCF Done:  E(RB2PLYPD3) =  -157.885179636     A.U. after   12 cycles
            NFock= 12  Conv=0.22D-08     -V/T= 2.0036
 KE= 1.573152742567D+02 PE=-6.275799952174D+02 EE= 1.810679541316D+02
 Leave Link  502 at Wed Aug 26 22:53:02 2020, MaxMem=  2097152000 cpu:      4180.1
 (Enter /opt/cluster/programs/g09/g09_d.01/g09/l801.exe)
 DoSCS=T DFT=T ScalE2(SS,OS)=  0.270000  0.270000
 ExpMin= 7.60D-02 ExpMax= 6.70D+04 ExpMxC= 6.47D+02 IAcc=3 IRadAn=         5 AccDes= 0.00D+00
 HarFok:  IExCor=  205 AccDes= 0.00D+00 IRadAn=         5 IDoV=-2 UseB2=F ITyADJ=14
 ICtDFT= 12500011 ScaDFX=  1.000000  1.000000  1.000000  1.000000
 Largest valence mixing into a core orbital is  1.16D-04
 Largest core mixing into a valence orbital is  1.64D-05
 Range of M.O.s used for correlation:     5   528
 NBasis=   528 NAE=    17 NBE=    17 NFC=     4 NFV=     0
 NROrb=    524 NOA=    13 NOB=    13 NVA=   511 NVB=   511

 **** Warning!!: The largest alpha MO coefficient is  0.24694052D+02

 Leave Link  801 at Wed Aug 26 22:53:02 2020, MaxMem=  2097152000 cpu:         1.3
 (Enter /opt/cluster/programs/g09/g09_d.01/g09/l906.exe)
 DoSCS=T DFT=T ScalE2(SS,OS)=  0.270000  0.270000
 FulOut=F Deriv=F AODrv=F NAtomX=    14
   MMem=         463  MDisk=          13 MDiskD=          13
  W3Min=     4238234 MinDsk=     6904766 NBas6D=         638
 NBas2D=      205689    NTT=      203841    LW2=     4508827
    MDV=  2095893944 MDiskM=        7293 NBas2p=      191552
 Fully direct method using O(OVN) memory.
 IMap=   1   2   3   4   5   6   7   8   9  10  11  12  13
 JobTyp=1 Pass  1:  I=   1 to  13 NPSUse=  8 ParTrn=T ParDer=T DoDerP=F.
 Spin components of T(2) and E(2):
     alpha-alpha T2 =       0.4398854727D-01 E2=     -0.2727674622D-01
     alpha-beta  T2 =       0.2990068181D+00 E2=     -0.2004393857D+00
     beta-beta   T2 =       0.4398854727D-01 E2=     -0.2727674622D-01
 The integrals were generated   1 times.
 E2(B2PLYPD3) =    -0.2549928782D+00 E(B2PLYPD3) =    -0.15814017251445D+03
 Leave Link  906 at Wed Aug 26 22:57:54 2020, MaxMem=  2097152000 cpu:      2330.2
 (Enter /opt/cluster/programs/g09/g09_d.01/g09/l601.exe)
 Copying SCF densities to generalized density rwf, IOpCl= 0 IROHF=0.

 **********************************************************************

            Population analysis using the SCF density.

 **********************************************************************

 Orbital symmetries:
       Occupied  (A) (A) (A) (A) (A) (A) (A) (A) (A) (A) (A) (A)
                 (A) (A) (A) (A) (A)
       Virtual   (A) (A) (A) (A) (A) (A) (A) (A) (A) (A) (A) (A)
                 (A) (A) (A) (A) (A) (A) (A) (A) (A) (A) (A) (A)
                 (A) (A) (A) (A) (A) (A) (A) (A) (A) (A) (A) (A)
                 (A) (A) (A) (A) (A) (A) (A) (A) (A) (A) (A) (A)
                 (A) (A) (A) (A) (A) (A) (A) (A) (A) (A) (A) (A)
                 (A) (A) (A) (A) (A) (A) (A) (A) (A) (A) (A) (A)
                 (A) (A) (A) (A) (A) (A) (A) (A) (A) (A) (A) (A)
                 (A) (A) (A) (A) (A) (A) (A) (A) (A) (A) (A) (A)
                 (A) (A) (A) (A) (A) (A) (A) (A) (A) (A) (A) (A)
                 (A) (A) (A) (A) (A) (A) (A) (A) (A) (A) (A) (A)
                 (A) (A) (A) (A) (A) (A) (A) (A) (A) (A) (A) (A)
                 (A) (A) (A) (A) (A) (A) (A) (A) (A) (A) (A) (A)
                 (A) (A) (A) (A) (A) (A) (A) (A) (A) (A) (A) (A)
                 (A) (A) (A) (A) (A) (A) (A) (A) (A) (A) (A) (A)
                 (A) (A) (A) (A) (A) (A) (A) (A) (A) (A) (A) (A)
                 (A) (A) (A) (A) (A) (A) (A) (A) (A) (A) (A) (A)
                 (A) (A) (A) (A) (A) (A) (A) (A) (A) (A) (A) (A)
                 (A) (A) (A) (A) (A) (A) (A) (A) (A) (A) (A) (A)
                 (A) (A) (A) (A) (A) (A) (A) (A) (A) (A) (A) (A)
                 (A) (A) (A) (A) (A) (A) (A) (A) (A) (A) (A) (A)
                 (A) (A) (A) (A) (A) (A) (A) (A) (A) (A) (A) (A)
                 (A) (A) (A) (A) (A) (A) (A) (A) (A) (A) (A) (A)
                 (A) (A) (A) (A) (A) (A) (A) (A) (A) (A) (A) (A)
                 (A) (A) (A) (A) (A) (A) (A) (A) (A) (A) (A) (A)
                 (A) (A) (A) (A) (A) (A) (A) (A) (A) (A) (A) (A)
                 (A) (A) (A) (A) (A) (A) (A) (A) (A) (A) (A) (A)
                 (A) (A) (A) (A) (A) (A) (A) (A) (A) (A) (A) (A)
                 (A) (A) (A) (A) (A) (A) (A) (A) (A) (A) (A) (A)
                 (A) (A) (A) (A) (A) (A) (A) (A) (A) (A) (A) (A)
                 (A) (A) (A) (A) (A) (A) (A) (A) (A) (A) (A) (A)
                 (A) (A) (A) (A) (A) (A) (A) (A) (A) (A) (A) (A)
                 (A) (A) (A) (A) (A) (A) (A) (A) (A) (A) (A) (A)
                 (A) (A) (A) (A) (A) (A) (A) (A) (A) (A) (A) (A)
                 (A) (A) (A) (A) (A) (A) (A) (A) (A) (A) (A) (A)
                 (A) (A) (A) (A) (A) (A) (A) (A) (A) (A) (A) (A)
                 (A) (A) (A) (A) (A) (A) (A) (A) (A) (A) (A) (A)
                 (A) (A) (A) (A) (A) (A) (A) (A) (A) (A) (A) (A)
                 (A) (A) (A) (A) (A) (A) (A) (A) (A) (A) (A) (A)
                 (A) (A) (A) (A) (A) (A) (A) (A) (A) (A) (A) (A)
                 (A) (A) (A) (A) (A) (A) (A) (A) (A) (A) (A) (A)
                 (A) (A) (A) (A) (A) (A) (A) (A) (A) (A) (A) (A)
                 (A) (A) (A) (A) (A) (A) (A) (A) (A) (A) (A) (A)
                 (A) (A) (A) (A) (A) (A) (A)
 The electronic state is 1-A.
 Alpha  occ. eigenvalues --  -10.64702 -10.63682 -10.62404 -10.61249  -0.97551
 Alpha  occ. eigenvalues --   -0.83952  -0.75367  -0.65679  -0.54707  -0.51121
 Alpha  occ. eigenvalues --   -0.50377  -0.46527  -0.44324  -0.41716  -0.39012
 Alpha  occ. eigenvalues --   -0.37272  -0.30426
 Alpha virt. eigenvalues --    0.04348   0.05769   0.06486   0.07605   0.10012
 Alpha virt. eigenvalues --    0.10738   0.12314   0.12775   0.14362   0.14896
 Alpha virt. eigenvalues --    0.15767   0.16316   0.17628   0.18582   0.20976
 Alpha virt. eigenvalues --    0.21352   0.23013   0.23867   0.24465   0.28005
 Alpha virt. eigenvalues --    0.29003   0.29794   0.30922   0.32575   0.33201
 Alpha virt. eigenvalues --    0.33963   0.35032   0.35649   0.37238   0.39816
 Alpha virt. eigenvalues --    0.40300   0.43087   0.43872   0.44159   0.47176
 Alpha virt. eigenvalues --    0.47833   0.49295   0.50974   0.55170   0.57206
 Alpha virt. eigenvalues --    0.59425   0.60762   0.64296   0.65910   0.67071
 Alpha virt. eigenvalues --    0.68028   0.69721   0.70561   0.70866   0.72090
 Alpha virt. eigenvalues --    0.72702   0.74172   0.75887   0.77166   0.77997
 Alpha virt. eigenvalues --    0.80647   0.82093   0.83329   0.83964   0.86006
 Alpha virt. eigenvalues --    0.86699   0.88805   0.89991   0.90771   0.91718
 Alpha virt. eigenvalues --    0.91862   0.92928   0.95126   0.95804   0.96484
 Alpha virt. eigenvalues --    0.98218   1.00259   1.01657   1.02365   1.02663
 Alpha virt. eigenvalues --    1.05031   1.05723   1.06614   1.09005   1.09611
 Alpha virt. eigenvalues --    1.10536   1.13432   1.15174   1.17534   1.19542
 Alpha virt. eigenvalues --    1.20216   1.21855   1.23625   1.25071   1.27894
 Alpha virt. eigenvalues --    1.29929   1.30230   1.32386   1.34296   1.35857
 Alpha virt. eigenvalues --    1.37017   1.38573   1.42816   1.43902   1.46095
 Alpha virt. eigenvalues --    1.46869   1.48491   1.52800   1.54965   1.56275
 Alpha virt. eigenvalues --    1.59519   1.61791   1.65713   1.71889   1.73824
 Alpha virt. eigenvalues --    1.76760   1.78438   1.81760   1.85992   1.90167
 Alpha virt. eigenvalues --    1.90837   1.92292   1.94192   1.94659   1.96220
 Alpha virt. eigenvalues --    1.97143   1.98108   1.99922   2.02698   2.03340
 Alpha virt. eigenvalues --    2.04316   2.05021   2.07145   2.09478   2.10841
 Alpha virt. eigenvalues --    2.11382   2.12662   2.14136   2.14843   2.15314
 Alpha virt. eigenvalues --    2.16517   2.17962   2.19041   2.21728   2.22311
 Alpha virt. eigenvalues --    2.23533   2.25977   2.27458   2.28821   2.30154
 Alpha virt. eigenvalues --    2.32721   2.33506   2.35688   2.37055   2.38051
 Alpha virt. eigenvalues --    2.39471   2.40607   2.42589   2.42882   2.44857
 Alpha virt. eigenvalues --    2.46720   2.48507   2.49147   2.53269   2.54829
 Alpha virt. eigenvalues --    2.55819   2.56281   2.57813   2.58130   2.59899
 Alpha virt. eigenvalues --    2.60707   2.61616   2.62549   2.64695   2.65787
 Alpha virt. eigenvalues --    2.70039   2.70302   2.71466   2.72251   2.73402
 Alpha virt. eigenvalues --    2.75086   2.77058   2.78111   2.80138   2.80851
 Alpha virt. eigenvalues --    2.83161   2.84890   2.87624   2.89422   2.91880
 Alpha virt. eigenvalues --    2.92906   2.95823   2.96473   2.98539   3.01687
 Alpha virt. eigenvalues --    3.02163   3.04019   3.06057   3.09506   3.09839
 Alpha virt. eigenvalues --    3.10343   3.12013   3.14011   3.19709   3.20381
 Alpha virt. eigenvalues --    3.21349   3.23325   3.24877   3.25531   3.27124
 Alpha virt. eigenvalues --    3.28411   3.30481   3.31564   3.33484   3.36399
 Alpha virt. eigenvalues --    3.40868   3.42416   3.43147   3.43700   3.48919
 Alpha virt. eigenvalues --    3.53082   3.54788   3.55721   3.56742   3.59280
 Alpha virt. eigenvalues --    3.60570   3.61687   3.66683   3.69032   3.70614
 Alpha virt. eigenvalues --    3.73099   3.75689   3.80314   3.81597   3.86030
 Alpha virt. eigenvalues --    3.87344   3.90222   3.92350   3.93280   3.98457
 Alpha virt. eigenvalues --    3.99367   4.03944   4.06607   4.06979   4.07820
 Alpha virt. eigenvalues --    4.12048   4.16035   4.18228   4.19847   4.22731
 Alpha virt. eigenvalues --    4.26918   4.31508   4.32136   4.35920   4.44517
 Alpha virt. eigenvalues --    4.45391   4.51738   4.55913   4.99579   5.03558
 Alpha virt. eigenvalues --    5.12726   5.15348   5.17301   5.23785   5.25214
 Alpha virt. eigenvalues --    5.31420   5.36274   5.39304   5.46401   5.48908
 Alpha virt. eigenvalues --    5.50425   5.54794   5.55970   5.58893   5.61953
 Alpha virt. eigenvalues --    5.64438   5.68118   5.68850   5.70147   5.72615
 Alpha virt. eigenvalues --    5.73520   5.81588   5.83274   5.85133   5.87641
 Alpha virt. eigenvalues --    5.88741   5.89267   5.90844   5.91991   5.93289
 Alpha virt. eigenvalues --    5.94803   5.96286   5.98084   5.98973   6.01061
 Alpha virt. eigenvalues --    6.01704   6.02327   6.03179   6.04714   6.05946
 Alpha virt. eigenvalues --    6.08947   6.09266   6.10396   6.11587   6.14381
 Alpha virt. eigenvalues --    6.15142   6.16924   6.17564   6.19162   6.19416
 Alpha virt. eigenvalues --    6.22179   6.25055   6.26640   6.26744   6.28968
 Alpha virt. eigenvalues --    6.30765   6.30962   6.34401   6.36408   6.38312
 Alpha virt. eigenvalues --    6.39013   6.41192   6.42260   6.43719   6.49140
 Alpha virt. eigenvalues --    6.49774   6.51518   6.52701   6.55257   6.56808
 Alpha virt. eigenvalues --    6.61574   6.64355   6.65425   6.67171   6.69357
 Alpha virt. eigenvalues --    6.70572   6.73889   6.75673   6.76436   6.79697
 Alpha virt. eigenvalues --    6.81908   6.84325   6.85855   6.86716   6.87343
 Alpha virt. eigenvalues --    6.89394   6.93846   6.95754   6.96862   7.00170
 Alpha virt. eigenvalues --    7.02781   7.05583   7.07038   7.08797   7.12496
 Alpha virt. eigenvalues --    7.14858   7.17254   7.17972   7.19400   7.20904
 Alpha virt. eigenvalues --    7.21675   7.24990   7.26126   7.26990   7.28999
 Alpha virt. eigenvalues --    7.30345   7.35531   7.39624   7.40912   7.44415
 Alpha virt. eigenvalues --    7.46586   7.47882   7.49354   7.50841   7.55563
 Alpha virt. eigenvalues --    7.56061   7.58410   7.61581   7.63853   7.66602
 Alpha virt. eigenvalues --    7.68772   7.71466   7.72565   7.73307   7.76959
 Alpha virt. eigenvalues --    7.77867   7.78685   7.80695   7.82069   7.82819
 Alpha virt. eigenvalues --    7.86420   7.86854   7.89150   7.90068   7.94035
 Alpha virt. eigenvalues --    7.94189   7.97159   7.98925   8.01182   8.02618
 Alpha virt. eigenvalues --    8.04968   8.07380   8.09110   8.10264   8.12814
 Alpha virt. eigenvalues --    8.15423   8.16732   8.18808   8.21901   8.23577
 Alpha virt. eigenvalues --    8.25094   8.26220   8.27563   8.28059   8.29637
 Alpha virt. eigenvalues --    8.32966   8.34066   8.37409   8.38765   8.41295
 Alpha virt. eigenvalues --    8.43875   8.44215   8.45634   8.48170   8.49639
 Alpha virt. eigenvalues --    8.51360   8.55639   8.57067   8.59947   8.61714
 Alpha virt. eigenvalues --    8.64393   8.65747   8.69443   8.70375   8.71007
 Alpha virt. eigenvalues --    8.73582   8.74533   8.76479   8.78159   8.81311
 Alpha virt. eigenvalues --    8.82428   8.83552   8.86225   8.88389   8.91009
 Alpha virt. eigenvalues --    8.92462   8.94088   8.95287   8.97990   9.03694
 Alpha virt. eigenvalues --    9.05834   9.07321   9.08355   9.12401   9.13495
 Alpha virt. eigenvalues --    9.16022   9.21787   9.23592   9.24641   9.26561
 Alpha virt. eigenvalues --    9.29965   9.31342   9.34925   9.35330   9.38590
 Alpha virt. eigenvalues --    9.38632   9.41409   9.46511   9.50901   9.53695
 Alpha virt. eigenvalues --    9.55013   9.58172   9.65344   9.68988   9.72034
 Alpha virt. eigenvalues --    9.76988   9.77168   9.84714   9.85934   9.95222
 Alpha virt. eigenvalues --   10.02623  10.06660  10.08866  10.22605  10.25306
 Alpha virt. eigenvalues --   10.29555  10.35333  10.36894  10.43182  10.60782
 Alpha virt. eigenvalues --   10.70488  10.82413  10.83592  10.88508  10.94516
 Alpha virt. eigenvalues --   10.97489  11.02182  11.09645  11.16845  11.22787
 Alpha virt. eigenvalues --   11.39928  11.65945  11.72995  11.95132  12.18141
 Alpha virt. eigenvalues --   12.44868  12.47009  13.19177  29.01949  29.28502
 Alpha virt. eigenvalues --   29.38505  29.44658 148.65279 148.96005 149.04984
 Alpha virt. eigenvalues --  149.12673
          Condensed to atoms (all electrons):
               1          2          3          4          5          6
     1  C    4.835076   0.334839   0.407632   0.403193   0.367383  -0.041956
     2  C    0.334839   4.978313  -0.029726  -0.050019  -0.123939   0.328998
     3  H    0.407632  -0.029726   0.613556  -0.023502  -0.032585   0.007491
     4  H    0.403193  -0.050019  -0.023502   0.626045  -0.029960  -0.000086
     5  H    0.367383  -0.123939  -0.032585  -0.029960   0.805429  -0.037163
     6  C   -0.041956   0.328998   0.007491  -0.000086  -0.037163   4.864454
     7  H   -0.051746   0.332015  -0.004016  -0.005954   0.022445  -0.043125
     8  H   -0.065718   0.421213  -0.007934   0.012137  -0.019653  -0.077213
     9  C    0.004828  -0.054306  -0.000676  -0.000505   0.003493   0.398855
    10  H   -0.028798  -0.099674  -0.000234   0.000693   0.013812   0.402207
    11  H    0.002769  -0.022010  -0.000368   0.004418  -0.000886   0.388899
    12  H    0.000117  -0.003052   0.000027  -0.000010  -0.000024  -0.043945
    13  H   -0.000411   0.007156   0.000021   0.000039   0.000435  -0.044585
    14  H   -0.000249  -0.004494  -0.000009   0.000035  -0.000110  -0.023692
               7          8          9         10         11         12
     1  C   -0.051746  -0.065718   0.004828  -0.028798   0.002769   0.000117
     2  C    0.332015   0.421213  -0.054306  -0.099674  -0.022010  -0.003052
     3  H   -0.004016  -0.007934  -0.000676  -0.000234  -0.000368   0.000027
     4  H   -0.005954   0.012137  -0.000505   0.000693   0.004418  -0.000010
     5  H    0.022445  -0.019653   0.003493   0.013812  -0.000886  -0.000024
     6  C   -0.043125  -0.077213   0.398855   0.402207   0.388899  -0.043945
     7  H    0.865032  -0.023090   0.001796   0.018682  -0.008939  -0.000952
     8  H   -0.023090   0.699982  -0.027619  -0.016109   0.013131   0.003151
     9  C    0.001796  -0.027619   4.662834  -0.015992  -0.035910   0.404967
    10  H    0.018682  -0.016109  -0.015992   0.724153  -0.064175  -0.004333
    11  H   -0.008939   0.013131  -0.035910  -0.064175   0.704059   0.005933
    12  H   -0.000952   0.003151   0.404967  -0.004333   0.005933   0.630562
    13  H    0.000582   0.001285   0.402072  -0.002622   0.000349  -0.036788
    14  H    0.003016   0.001769   0.403714   0.005090  -0.001374  -0.027984
              13         14
     1  C   -0.000411  -0.000249
     2  C    0.007156  -0.004494
     3  H    0.000021  -0.000009
     4  H    0.000039   0.000035
     5  H    0.000435  -0.000110
     6  C   -0.044585  -0.023692
     7  H    0.000582   0.003016
     8  H    0.001285   0.001769
     9  C    0.402072   0.403714
    10  H   -0.002622   0.005090
    11  H    0.000349  -0.001374
    12  H   -0.036788  -0.027984
    13  H    0.656233  -0.038757
    14  H   -0.038757   0.626853
 Mulliken charges:
               1
     1  C   -0.166960
     2  C   -0.015314
     3  H    0.070321
     4  H    0.063476
     5  H    0.031323
     6  C   -0.079138
     7  H   -0.105746
     8  H    0.084669
     9  C   -0.147550
    10  H    0.067301
    11  H    0.014105
    12  H    0.072330
    13  H    0.054992
    14  H    0.056192
 Sum of Mulliken charges =   0.00000
 Mulliken charges with hydrogens summed into heavy atoms:
               1
     1  C   -0.001840
     2  C   -0.036391
     6  C    0.002267
     9  C    0.035965
 Electronic spatial extent (au):  <R**2>=            419.4756
 Charge=              0.0000 electrons
 Dipole moment (field-independent basis, Debye):
    X=             -0.2784    Y=              0.5032    Z=             -1.3895  Tot=              1.5038
 Quadrupole moment (field-independent basis, Debye-Ang):
   XX=            -28.7198   YY=            -30.1245   ZZ=            -30.8811
   XY=             -0.0520   XZ=             -0.7513   YZ=              2.3018
 Traceless Quadrupole moment (field-independent basis, Debye-Ang):
   XX=              1.1887   YY=             -0.2161   ZZ=             -0.9726
   XY=             -0.0520   XZ=             -0.7513   YZ=              2.3018
 Octapole moment (field-independent basis, Debye-Ang**2):
  XXX=             -6.4063  YYY=              3.1465  ZZZ=             -5.7967  XYY=             -0.3573
  XXY=             -1.6392  XXZ=             -0.2198  XZZ=             -2.1203  YZZ=              1.4637
  YYZ=             -2.6040  XYZ=              2.5637
 Hexadecapole moment (field-independent basis, Debye-Ang**3):
 XXXX=           -436.4108 YYYY=           -104.6568 ZZZZ=            -84.5465 XXXY=             -9.3986
 XXXZ=             -4.7473 YYYX=              0.0679 YYYZ=              8.4222 ZZZX=             -1.2260
 ZZZY=              6.2510 XXYY=            -85.9269 XXZZ=            -86.7405 YYZZ=            -30.6657
 XXYZ=              6.0434 YYXZ=             -0.8194 ZZXY=              2.1978
 N-N= 1.313115871928D+02 E-N=-6.275799985493D+02  KE= 1.573152742567D+02
 Leave Link  601 at Wed Aug 26 22:57:54 2020, MaxMem=  2097152000 cpu:         1.2
 (Enter /opt/cluster/programs/g09/g09_d.01/g09/l9999.exe)
 1\1\GINC-NODE09\SP\RB2PLYPD3-FC\def2QZVP\C4H10\BOITTIER\26-Aug-2020\0\
 \#p B2PLYPD3/Def2QZVP\\butane_opt\\0,1\C,0,-3.907288,0.170586,0.164569
 \C,0,-2.702814,-0.477164,-0.137238\H,0,-4.854055,-0.542212,0.76091\H,0
 ,-4.10096,1.013015,-0.731125\H,0,-3.278223,0.621401,0.951168\C,0,-1.45
 2715,0.251803,-0.153658\H,0,-2.736129,-1.538749,-1.354276\H,0,-2.41979
 ,-1.062256,0.63644\C,0,-0.180065,-0.777204,0.212249\H,0,-1.841945,0.86
 3123,0.493239\H,0,-1.200655,1.056511,-1.063918\H,0,-0.448065,-1.278055
 ,1.01775\H,0,0.652401,-0.18272,0.330031\H,0,0.166988,-1.462864,-0.6892
 64\\Version=ES64L-G09RevD.01\State=1-A\HF=-157.8851796\MP2=-158.140172
 5\RMSD=2.199e-09\PG=C01 [X(C4H10)]\\@


      SCIENCE SANS CONSCIENCE N'EST QUE RUINE DE L'AME.

                                                  -- RABELAIS
 Job cpu time:       0 days  1 hours 48 minutes 58.1 seconds.
 File lengths (MBytes):  RWF=    152 Int=      0 D2E=      0 Chk=     14 Scr=      1
 Normal termination of Gaussian 09 at Wed Aug 26 22:57:55 2020.
