 Entering Gaussian System, Link 0=/opt/cluster/programs/g09/g09_d.01/g09//g09
 Input=/home/boittier/MDCM/nms_sampling/butane_geom.xyz.dir/energies/butane_opt_1628_energy.com
 Output=/scratch/boittier/butane_opt_1628_energy/butane_opt_1628_energy.out
 Initial command:
 /opt/cluster/programs/g09/g09_d.01/g09/l1.exe "/scratch/boittier/butane_opt_1628_energy/Gau-97404.inp" -scrdir="/scratch/boittier/butane_opt_1628_energy/"
 Entering Link 1 = /opt/cluster/programs/g09/g09_d.01/g09/l1.exe PID=     97405.
  
 Copyright (c) 1988,1990,1992,1993,1995,1998,2003,2009,2013,
            Gaussian, Inc.  All Rights Reserved.
  
 This is part of the Gaussian(R) 09 program.  It is based on
 the Gaussian(R) 03 system (copyright 2003, Gaussian, Inc.),
 the Gaussian(R) 98 system (copyright 1998, Gaussian, Inc.),
 the Gaussian(R) 94 system (copyright 1995, Gaussian, Inc.),
 the Gaussian 92(TM) system (copyright 1992, Gaussian, Inc.),
 the Gaussian 90(TM) system (copyright 1990, Gaussian, Inc.),
 the Gaussian 88(TM) system (copyright 1988, Gaussian, Inc.),
 the Gaussian 86(TM) system (copyright 1986, Carnegie Mellon
 University), and the Gaussian 82(TM) system (copyright 1983,
 Carnegie Mellon University). Gaussian is a federally registered
 trademark of Gaussian, Inc.
  
 This software contains proprietary and confidential information,
 including trade secrets, belonging to Gaussian, Inc.
  
 This software is provided under written license and may be
 used, copied, transmitted, or stored only in accord with that
 written license.
  
 The following legend is applicable only to US Government
 contracts under FAR:
  
                    RESTRICTED RIGHTS LEGEND
  
 Use, reproduction and disclosure by the US Government is
 subject to restrictions as set forth in subparagraphs (a)
 and (c) of the Commercial Computer Software - Restricted
 Rights clause in FAR 52.227-19.
  
 Gaussian, Inc.
 340 Quinnipiac St., Bldg. 40, Wallingford CT 06492
  
  
 ---------------------------------------------------------------
 Warning -- This program may not be used in any manner that
 competes with the business of Gaussian, Inc. or will provide
 assistance to any competitor of Gaussian, Inc.  The licensee
 of this program is prohibited from giving any competitor of
 Gaussian, Inc. access to this program.  By using this program,
 the user acknowledges that Gaussian, Inc. is engaged in the
 business of creating and licensing software in the field of
 computational chemistry and represents and warrants to the
 licensee that it is not a competitor of Gaussian, Inc. and that
 it will not use this program in any manner prohibited above.
 ---------------------------------------------------------------
  

 Cite this work as:
 Gaussian 09, Revision D.01,
 M. J. Frisch, G. W. Trucks, H. B. Schlegel, G. E. Scuseria, 
 M. A. Robb, J. R. Cheeseman, G. Scalmani, V. Barone, B. Mennucci, 
 G. A. Petersson, H. Nakatsuji, M. Caricato, X. Li, H. P. Hratchian, 
 A. F. Izmaylov, J. Bloino, G. Zheng, J. L. Sonnenberg, M. Hada, 
 M. Ehara, K. Toyota, R. Fukuda, J. Hasegawa, M. Ishida, T. Nakajima, 
 Y. Honda, O. Kitao, H. Nakai, T. Vreven, J. A. Montgomery, Jr., 
 J. E. Peralta, F. Ogliaro, M. Bearpark, J. J. Heyd, E. Brothers, 
 K. N. Kudin, V. N. Staroverov, T. Keith, R. Kobayashi, J. Normand, 
 K. Raghavachari, A. Rendell, J. C. Burant, S. S. Iyengar, J. Tomasi, 
 M. Cossi, N. Rega, J. M. Millam, M. Klene, J. E. Knox, J. B. Cross, 
 V. Bakken, C. Adamo, J. Jaramillo, R. Gomperts, R. E. Stratmann, 
 O. Yazyev, A. J. Austin, R. Cammi, C. Pomelli, J. W. Ochterski, 
 R. L. Martin, K. Morokuma, V. G. Zakrzewski, G. A. Voth, 
 P. Salvador, J. J. Dannenberg, S. Dapprich, A. D. Daniels, 
 O. Farkas, J. B. Foresman, J. V. Ortiz, J. Cioslowski, 
 and D. J. Fox, Gaussian, Inc., Wallingford CT, 2013.
 
 ******************************************
 Gaussian 09:  ES64L-G09RevD.01 24-Apr-2013
                26-Aug-2020 
 ******************************************
 %chk=/home/boittier/MDCM/nms_sampling/butane_geom.xyz.dir/butane_opt_1628.chk
 %nproc=8
 Will use up to    8 processors via shared memory.
 %mem=16000MB
 --------------------
 #p B2PLYPD3/Def2QZVP
 --------------------
 1/38=1/1;
 2/12=2,17=6,18=5,40=1/2;
 3/5=45,7=101,11=9,16=1,25=1,30=1,74=-60/1,2,3;
 4//1;
 5/5=2,38=5/2;
 8/10=1/1;
 9/16=-3/6;
 6/7=2,8=2,9=2,10=2/1;
 99/5=1,9=1/99;
 Leave Link    1 at Wed Aug 26 12:24:06 2020, MaxMem=  2097152000 cpu:         0.2
 (Enter /opt/cluster/programs/g09/g09_d.01/g09/l101.exe)
 ----------
 butane_opt
 ----------
 Symbolic Z-matrix:
 Charge =  0 Multiplicity = 1
 C                    -3.95033   0.2578    0.22444 
 C                    -2.65693  -0.57814  -0.24132 
 H                    -4.85368  -0.39134   0.53571 
 H                    -4.36364   0.8065   -0.57849 
 H                    -3.59303   1.07182   1.06123 
 C                    -1.40683   0.13163  -0.18508 
 H                    -2.60935  -1.18412  -1.01619 
 H                    -2.29527  -1.279     0.67755 
 C                    -0.2004   -0.65864   0.23772 
 H                    -1.43787   0.55832   0.49762 
 H                    -1.29624   0.81036  -1.19009 
 H                    -0.70691  -1.32609   1.30015 
 H                     0.74696   0.0263    0.41383 
 H                    -0.01673  -1.40801  -0.68679 
 
 NAtoms=     14 NQM=       14 NQMF=       0 NMMI=      0 NMMIF=      0
                NMic=       0 NMicF=      0.
                    Isotopes and Nuclear Properties:
 (Nuclear quadrupole moments (NQMom) in fm**2, nuclear magnetic moments (NMagM)
  in nuclear magnetons)

  Atom         1           2           3           4           5           6           7           8           9          10
 IAtWgt=          12          12           1           1           1          12           1           1          12           1
 AtmWgt=  12.0000000  12.0000000   1.0078250   1.0078250   1.0078250  12.0000000   1.0078250   1.0078250  12.0000000   1.0078250
 NucSpn=           0           0           1           1           1           0           1           1           0           1
 AtZEff=   0.0000000   0.0000000   0.0000000   0.0000000   0.0000000   0.0000000   0.0000000   0.0000000   0.0000000   0.0000000
 NQMom=    0.0000000   0.0000000   0.0000000   0.0000000   0.0000000   0.0000000   0.0000000   0.0000000   0.0000000   0.0000000
 NMagM=    0.0000000   0.0000000   2.7928460   2.7928460   2.7928460   0.0000000   2.7928460   2.7928460   0.0000000   2.7928460
 AtZNuc=   6.0000000   6.0000000   1.0000000   1.0000000   1.0000000   6.0000000   1.0000000   1.0000000   6.0000000   1.0000000

  Atom        11          12          13          14
 IAtWgt=           1           1           1           1
 AtmWgt=   1.0078250   1.0078250   1.0078250   1.0078250
 NucSpn=           1           1           1           1
 AtZEff=   0.0000000   0.0000000   0.0000000   0.0000000
 NQMom=    0.0000000   0.0000000   0.0000000   0.0000000
 NMagM=    2.7928460   2.7928460   2.7928460   2.7928460
 AtZNuc=   1.0000000   1.0000000   1.0000000   1.0000000
 Leave Link  101 at Wed Aug 26 12:24:06 2020, MaxMem=  2097152000 cpu:         0.5
 (Enter /opt/cluster/programs/g09/g09_d.01/g09/l202.exe)
                          Input orientation:                          
 ---------------------------------------------------------------------
 Center     Atomic      Atomic             Coordinates (Angstroms)
 Number     Number       Type             X           Y           Z
 ---------------------------------------------------------------------
      1          6           0       -3.950333    0.257800    0.224439
      2          6           0       -2.656934   -0.578139   -0.241319
      3          1           0       -4.853677   -0.391341    0.535711
      4          1           0       -4.363637    0.806495   -0.578494
      5          1           0       -3.593033    1.071820    1.061233
      6          6           0       -1.406830    0.131634   -0.185082
      7          1           0       -2.609345   -1.184122   -1.016195
      8          1           0       -2.295273   -1.279000    0.677550
      9          6           0       -0.200397   -0.658636    0.237723
     10          1           0       -1.437868    0.558323    0.497617
     11          1           0       -1.296239    0.810361   -1.190088
     12          1           0       -0.706907   -1.326089    1.300148
     13          1           0        0.746956    0.026298    0.413831
     14          1           0       -0.016732   -1.408005   -0.686786
 ---------------------------------------------------------------------
                    Distance matrix (angstroms):
                    1          2          3          4          5
     1  C    0.000000
     2  C    1.608914   0.000000
     3  H    1.155121   2.337595   0.000000
     4  H    1.056687   2.223451   1.707748   0.000000
     5  H    1.220867   2.301149   2.001559   1.831101   0.000000
     6  C    2.579347   1.438645   3.560028   3.058254   2.686398
     7  H    2.327351   0.984842   2.841468   2.689178   3.220656
     8  H    2.303538   1.210919   2.711732   3.194537   2.712517
     9  C    3.860318   2.504104   4.670467   4.488361   3.896489
    10  H    2.545078   1.823100   3.545570   3.127256   2.286062
    11  H    3.057847   2.163235   4.132534   3.127778   3.226774
    12  H    3.766386   2.595796   4.319007   4.631294   3.759890
    13  H    4.706802   3.518669   5.617505   5.264179   4.510848
    14  H    4.367889   2.803174   5.091576   4.879684   4.689886
                    6          7          8          9         10
     6  C    0.000000
     7  H    1.966724   0.000000
     8  H    1.877060   1.725229   0.000000
     9  C    1.502921   2.766130   2.228633   0.000000
    10  H    0.805670   2.588455   2.035504   1.754955   0.000000
    11  H    1.217759   2.394253   2.975159   2.323245   1.712288
    12  H    2.195622   3.000812   1.706679   1.353068   2.174711
    13  H    2.237987   3.843806   3.320920   1.182212   2.250228
    14  H    2.134143   2.623028   2.658910   1.204161   2.699793
                   11         12         13         14
    11  H    0.000000
    12  H    3.333618   0.000000
    13  H    2.713293   2.174448   0.000000
    14  H    2.609904   2.104984   1.962601   0.000000
 Stoichiometry    C4H10
 Framework group  C1[X(C4H10)]
 Deg. of freedom    36
 Full point group                 C1      NOp   1
 Largest Abelian subgroup         C1      NOp   1
 Largest concise Abelian subgroup C1      NOp   1
                         Standard orientation:                         
 ---------------------------------------------------------------------
 Center     Atomic      Atomic             Coordinates (Angstroms)
 Number     Number       Type             X           Y           Z
 ---------------------------------------------------------------------
      1          6           0        1.955815    0.088068   -0.195856
      2          6           0        0.527785   -0.428727    0.335424
      3          1           0        2.722743   -0.750944   -0.401245
      4          1           0        2.462292    0.647350    0.543923
      5          1           0        1.759095    0.842324   -1.135491
      6          6           0       -0.567512    0.487330    0.159736
      7          1           0        0.365786   -0.913077    1.177490
      8          1           0        0.043905   -1.160456   -0.499296
      9          6           0       -1.899272   -0.112809   -0.193845
     10          1           0       -0.455516    0.811588   -0.569248
     11          1           0       -0.551923    1.295719    1.070341
     12          1           0       -1.523662   -0.990704   -1.152495
     13          1           0       -2.701483    0.707932   -0.477514
     14          1           0       -2.222132   -0.692905    0.810771
 ---------------------------------------------------------------------
 Rotational constants (GHZ):     21.7710326      3.6602443      3.5591374
 Leave Link  202 at Wed Aug 26 12:24:06 2020, MaxMem=  2097152000 cpu:         0.0
 (Enter /opt/cluster/programs/g09/g09_d.01/g09/l301.exe)
 Standard basis: def2QZVP (5D, 7F)
 Ernie: Thresh=  0.10000D-02 Tol=  0.10000D-05 Strict=F.
 There are   638 symmetry adapted cartesian basis functions of A   symmetry.
 There are   528 symmetry adapted basis functions of A   symmetry.
   528 basis functions,   748 primitive gaussians,   638 cartesian basis functions
    17 alpha electrons       17 beta electrons
       nuclear repulsion energy       131.3818852121 Hartrees.
 IExCor=  419 DFT=T Ex+Corr=B2PLYPD3 ExCW=0 ScaHFX=  0.530000
 ScaDFX=  0.470000  0.470000  0.730000  0.730000 ScalE2=  0.270000  0.270000
 IRadAn=      0 IRanWt=     -1 IRanGd=            0 ICorTp=0 IEmpDi=141
 NAtoms=   14 NActive=   14 NUniq=   14 SFac= 1.00D+00 NAtFMM=   60 NAOKFM=F Big=F
 Integral buffers will be    131072 words long.
 Regular integral format.
 Two-electron integral symmetry is turned on.
 R6Disp:  Grimme-D3(BJ) Dispersion energy=       -0.0065721585 Hartrees.
 Nuclear repulsion after empirical dispersion term =      131.3753130536 Hartrees.
 Leave Link  301 at Wed Aug 26 12:24:07 2020, MaxMem=  2097152000 cpu:         0.4
 (Enter /opt/cluster/programs/g09/g09_d.01/g09/l302.exe)
 NPDir=0 NMtPBC=     1 NCelOv=     1 NCel=       1 NClECP=     1 NCelD=      1
         NCelK=      1 NCelE2=     1 NClLst=     1 CellRange=     0.0.
 One-electron integrals computed using PRISM.
   1 Symmetry operations used in ECPInt.
 ECPInt:  NShTT=   14196 NPrTT=   30597 LenC2=   13888 LenP2D=   26075.
 LDataN:  DoStor=T MaxTD1= 8 Len=  415
 NBasis=   528 RedAO= T EigKep=  2.36D-05  NBF=   528
 NBsUse=   528 1.00D-06 EigRej= -1.00D+00 NBFU=   528
 Precomputing XC quadrature grid using
 IXCGrd= 4 IRadAn=           0 IRanWt=          -1 IRanGd=           0 AccXCQ= 0.00D+00.
 Generated NRdTot=       0 NPtTot=           0 NUsed=           0 NTot=          32
 NSgBfM=   638   638   638   638   638 MxSgAt=    14 MxSgA2=    14.
 Leave Link  302 at Wed Aug 26 12:24:07 2020, MaxMem=  2097152000 cpu:         5.5
 (Enter /opt/cluster/programs/g09/g09_d.01/g09/l303.exe)
 DipDrv:  MaxL=1.
 Leave Link  303 at Wed Aug 26 12:24:07 2020, MaxMem=  2097152000 cpu:         0.5
 (Enter /opt/cluster/programs/g09/g09_d.01/g09/l401.exe)
 ExpMin= 7.60D-02 ExpMax= 6.70D+04 ExpMxC= 6.47D+02 IAcc=2 IRadAn=         4 AccDes= 0.00D+00
 Harris functional with IExCor=  419 and IRadAn=       4 diagonalized for initial guess.
 HarFok:  IExCor=  419 AccDes= 0.00D+00 IRadAn=         4 IDoV= 1 UseB2=F ITyADJ=14
 ICtDFT=  3500011 ScaDFX=  1.000000  1.000000  1.000000  1.000000
 FoFCou: FMM=F IPFlag=           0 FMFlag=      100000 FMFlg1=           0
         NFxFlg=           0 DoJE=T BraDBF=F KetDBF=T FulRan=T
         wScrn=  0.000000 ICntrl=     500 IOpCl=  0 I1Cent=   200000004 NGrid=           0
         NMat0=    1 NMatS0=      1 NMatT0=    0 NMatD0=    1 NMtDS0=    0 NMtDT0=    0
 Petite list used in FoFCou.
 Harris En= -158.426619030524    
 JPrj=0 DoOrth=F DoCkMO=F.
 Leave Link  401 at Wed Aug 26 12:24:10 2020, MaxMem=  2097152000 cpu:        17.1
 (Enter /opt/cluster/programs/g09/g09_d.01/g09/l502.exe)
 Closed shell SCF:
 Using DIIS extrapolation, IDIIS=  1040.
 Integral symmetry usage will be decided dynamically.
 IVT=     1249338 IEndB=     1249338 NGot=  2097152000 MDV=  2096326985
 LenX=  2096326985 LenY=  2095919303
 Requested convergence on RMS density matrix=1.00D-08 within 128 cycles.
 Requested convergence on MAX density matrix=1.00D-06.
 Requested convergence on             energy=1.00D-06.
 No special actions if energy rises.
 Fock matrices will be formed incrementally for  20 cycles.
 Integral accuracy reduced to 1.0D-05 until final iterations.

 Cycle   1  Pass 0  IDiag  1:
 FoFJK:  IHMeth= 1 ICntrl=       0 DoSepK=F KAlg= 0 I1Cent=   0 FoldK=F
 IRaf= 940000000 NMat=   1 IRICut=       1 DoRegI=T DoRafI=F ISym2E= 0.
 FoFCou: FMM=F IPFlag=           0 FMFlag=      100000 FMFlg1=           0
         NFxFlg=           0 DoJE=F BraDBF=F KetDBF=F FulRan=T
         wScrn=  0.000000 ICntrl=       0 IOpCl=  0 I1Cent=           0 NGrid=           0
         NMat0=    1 NMatS0=      1 NMatT0=    0 NMatD0=    1 NMtDS0=    0 NMtDT0=    0
 Symmetry not used in FoFCou.
 E= -157.631697007173    
 DIIS: error= 2.57D-02 at cycle   1 NSaved=   1.
 NSaved= 1 IEnMin= 1 EnMin= -157.631697007173     IErMin= 1 ErrMin= 2.57D-02
 ErrMax= 2.57D-02  0.00D+00 EMaxC= 1.00D-01 BMatC= 3.54D-01 BMatP= 3.54D-01
 IDIUse=3 WtCom= 7.43D-01 WtEn= 2.57D-01
 Coeff-Com:  0.100D+01
 Coeff-En:   0.100D+01
 Coeff:      0.100D+01
 Gap=     0.347 Goal=   None    Shift=    0.000
 GapD=    0.347 DampG=1.000 DampE=0.500 DampFc=0.5000 IDamp=-1.
 Damping current iteration by 5.00D-01
 RMSDP=1.19D-03 MaxDP=6.54D-02              OVMax= 2.18D-01

 Cycle   2  Pass 0  IDiag  1:
 RMSU=  5.74D-04    CP:  9.47D-01
 E= -157.773320985035     Delta-E=       -0.141623977862 Rises=F Damp=T
 DIIS: error= 5.95D-03 at cycle   2 NSaved=   2.
 NSaved= 2 IEnMin= 2 EnMin= -157.773320985035     IErMin= 2 ErrMin= 5.95D-03
 ErrMax= 5.95D-03  0.00D+00 EMaxC= 1.00D-01 BMatC= 3.23D-02 BMatP= 3.54D-01
 IDIUse=3 WtCom= 9.41D-01 WtEn= 5.95D-02
 Coeff-Com: -0.154D+00 0.115D+01
 Coeff-En:   0.000D+00 0.100D+01
 Coeff:     -0.145D+00 0.115D+01
 Gap=     0.435 Goal=   None    Shift=    0.000
 RMSDP=3.26D-04 MaxDP=2.38D-02 DE=-1.42D-01 OVMax= 1.15D-01

 Cycle   3  Pass 0  IDiag  1:
 RMSU=  2.89D-04    CP:  9.34D-01  7.45D-01
 E= -157.909562994815     Delta-E=       -0.136242009779 Rises=F Damp=F
 DIIS: error= 4.06D-03 at cycle   3 NSaved=   3.
 NSaved= 3 IEnMin= 3 EnMin= -157.909562994815     IErMin= 3 ErrMin= 4.06D-03
 ErrMax= 4.06D-03  0.00D+00 EMaxC= 1.00D-01 BMatC= 3.47D-03 BMatP= 3.23D-02
 IDIUse=3 WtCom= 9.59D-01 WtEn= 4.06D-02
 Coeff-Com: -0.105D+00 0.218D+00 0.887D+00
 Coeff-En:   0.000D+00 0.000D+00 0.100D+01
 Coeff:     -0.101D+00 0.209D+00 0.892D+00
 Gap=     0.396 Goal=   None    Shift=    0.000
 RMSDP=7.05D-05 MaxDP=7.19D-03 DE=-1.36D-01 OVMax= 1.44D-02

 Cycle   4  Pass 0  IDiag  1:
 RMSU=  5.57D-05    CP:  9.28D-01  8.12D-01  1.04D+00
 E= -157.913062661438     Delta-E=       -0.003499666623 Rises=F Damp=F
 DIIS: error= 5.98D-04 at cycle   4 NSaved=   4.
 NSaved= 4 IEnMin= 4 EnMin= -157.913062661438     IErMin= 4 ErrMin= 5.98D-04
 ErrMax= 5.98D-04  0.00D+00 EMaxC= 1.00D-01 BMatC= 1.70D-04 BMatP= 3.47D-03
 IDIUse=3 WtCom= 9.94D-01 WtEn= 5.98D-03
 Coeff-Com: -0.270D-01 0.400D-01 0.277D+00 0.710D+00
 Coeff-En:   0.000D+00 0.000D+00 0.000D+00 0.100D+01
 Coeff:     -0.268D-01 0.398D-01 0.275D+00 0.712D+00
 Gap=     0.397 Goal=   None    Shift=    0.000
 RMSDP=1.94D-05 MaxDP=1.27D-03 DE=-3.50D-03 OVMax= 4.07D-03

 Cycle   5  Pass 0  IDiag  1:
 RMSU=  1.47D-05    CP:  9.28D-01  7.96D-01  1.06D+00  9.35D-01
 E= -157.913217988737     Delta-E=       -0.000155327300 Rises=F Damp=F
 DIIS: error= 1.85D-04 at cycle   5 NSaved=   5.
 NSaved= 5 IEnMin= 5 EnMin= -157.913217988737     IErMin= 5 ErrMin= 1.85D-04
 ErrMax= 1.85D-04  0.00D+00 EMaxC= 1.00D-01 BMatC= 1.53D-05 BMatP= 1.70D-04
 IDIUse=3 WtCom= 9.98D-01 WtEn= 1.85D-03
 Coeff-Com: -0.210D-02-0.116D-02 0.373D-01 0.257D+00 0.709D+00
 Coeff-En:   0.000D+00 0.000D+00 0.000D+00 0.000D+00 0.100D+01
 Coeff:     -0.210D-02-0.116D-02 0.372D-01 0.256D+00 0.710D+00
 Gap=     0.397 Goal=   None    Shift=    0.000
 RMSDP=5.48D-06 MaxDP=3.94D-04 DE=-1.55D-04 OVMax= 9.08D-04

 Initial convergence to 1.0D-05 achieved.  Increase integral accuracy.
 Cycle   6  Pass 1  IDiag  1:
 E= -157.913211283662     Delta-E=        0.000006705075 Rises=F Damp=F
 DIIS: error= 4.54D-05 at cycle   1 NSaved=   1.
 NSaved= 1 IEnMin= 1 EnMin= -157.913211283662     IErMin= 1 ErrMin= 4.54D-05
 ErrMax= 4.54D-05  0.00D+00 EMaxC= 1.00D-01 BMatC= 6.27D-07 BMatP= 6.27D-07
 IDIUse=1 WtCom= 1.00D+00 WtEn= 0.00D+00
 Coeff-Com:  0.100D+01
 Coeff:      0.100D+01
 Gap=     0.397 Goal=   None    Shift=    0.000
 RMSDP=5.48D-06 MaxDP=3.94D-04 DE= 6.71D-06 OVMax= 2.07D-04

 Cycle   7  Pass 1  IDiag  1:
 RMSU=  1.64D-05    CP:  1.00D+00
 E= -157.913211810492     Delta-E=       -0.000000526830 Rises=F Damp=F
 DIIS: error= 1.31D-05 at cycle   2 NSaved=   2.
 NSaved= 2 IEnMin= 2 EnMin= -157.913211810492     IErMin= 2 ErrMin= 1.31D-05
 ErrMax= 1.31D-05  0.00D+00 EMaxC= 1.00D-01 BMatC= 9.23D-08 BMatP= 6.27D-07
 IDIUse=1 WtCom= 1.00D+00 WtEn= 0.00D+00
 Coeff-Com:  0.185D+00 0.815D+00
 Coeff:      0.185D+00 0.815D+00
 Gap=     0.397 Goal=   None    Shift=    0.000
 RMSDP=6.58D-07 MaxDP=4.85D-05 DE=-5.27D-07 OVMax= 9.21D-05

 Cycle   8  Pass 1  IDiag  1:
 RMSU=  4.73D-07    CP:  1.00D+00  1.03D+00
 E= -157.913211886733     Delta-E=       -0.000000076241 Rises=F Damp=F
 DIIS: error= 7.63D-06 at cycle   3 NSaved=   3.
 NSaved= 3 IEnMin= 3 EnMin= -157.913211886733     IErMin= 3 ErrMin= 7.63D-06
 ErrMax= 7.63D-06  0.00D+00 EMaxC= 1.00D-01 BMatC= 2.62D-08 BMatP= 9.23D-08
 IDIUse=1 WtCom= 1.00D+00 WtEn= 0.00D+00
 Coeff-Com: -0.344D-01 0.325D+00 0.710D+00
 Coeff:     -0.344D-01 0.325D+00 0.710D+00
 Gap=     0.397 Goal=   None    Shift=    0.000
 RMSDP=2.62D-07 MaxDP=1.27D-05 DE=-7.62D-08 OVMax= 4.09D-05

 Cycle   9  Pass 1  IDiag  1:
 RMSU=  2.07D-07    CP:  1.00D+00  1.04D+00  9.27D-01
 E= -157.913211913925     Delta-E=       -0.000000027192 Rises=F Damp=F
 DIIS: error= 1.15D-06 at cycle   4 NSaved=   4.
 NSaved= 4 IEnMin= 4 EnMin= -157.913211913925     IErMin= 4 ErrMin= 1.15D-06
 ErrMax= 1.15D-06  0.00D+00 EMaxC= 1.00D-01 BMatC= 5.03D-10 BMatP= 2.62D-08
 IDIUse=1 WtCom= 1.00D+00 WtEn= 0.00D+00
 Coeff-Com: -0.145D-01 0.114D-01 0.111D+00 0.892D+00
 Coeff:     -0.145D-01 0.114D-01 0.111D+00 0.892D+00
 Gap=     0.397 Goal=   None    Shift=    0.000
 RMSDP=5.44D-08 MaxDP=2.58D-06 DE=-2.72D-08 OVMax= 8.56D-06

 Cycle  10  Pass 1  IDiag  1:
 RMSU=  3.85D-08    CP:  1.00D+00  1.04D+00  9.81D-01  1.13D+00
 E= -157.913211914635     Delta-E=       -0.000000000710 Rises=F Damp=F
 DIIS: error= 3.48D-07 at cycle   5 NSaved=   5.
 NSaved= 5 IEnMin= 5 EnMin= -157.913211914635     IErMin= 5 ErrMin= 3.48D-07
 ErrMax= 3.48D-07  0.00D+00 EMaxC= 1.00D-01 BMatC= 6.67D-11 BMatP= 5.03D-10
 IDIUse=1 WtCom= 1.00D+00 WtEn= 0.00D+00
 Coeff-Com: -0.539D-03-0.282D-01-0.399D-01 0.240D+00 0.829D+00
 Coeff:     -0.539D-03-0.282D-01-0.399D-01 0.240D+00 0.829D+00
 Gap=     0.397 Goal=   None    Shift=    0.000
 RMSDP=1.78D-08 MaxDP=8.98D-07 DE=-7.10D-10 OVMax= 3.18D-06

 Cycle  11  Pass 1  IDiag  1:
 RMSU=  1.09D-08    CP:  1.00D+00  1.04D+00  9.93D-01  1.19D+00  1.00D+00
 E= -157.913211914714     Delta-E=       -0.000000000079 Rises=F Damp=F
 DIIS: error= 1.02D-07 at cycle   6 NSaved=   6.
 NSaved= 6 IEnMin= 6 EnMin= -157.913211914714     IErMin= 6 ErrMin= 1.02D-07
 ErrMax= 1.02D-07  0.00D+00 EMaxC= 1.00D-01 BMatC= 7.43D-12 BMatP= 6.67D-11
 IDIUse=1 WtCom= 1.00D+00 WtEn= 0.00D+00
 Coeff-Com:  0.631D-03-0.118D-01-0.222D-01 0.492D-01 0.339D+00 0.645D+00
 Coeff:      0.631D-03-0.118D-01-0.222D-01 0.492D-01 0.339D+00 0.645D+00
 Gap=     0.397 Goal=   None    Shift=    0.000
 RMSDP=3.45D-09 MaxDP=3.27D-07 DE=-7.95D-11 OVMax= 6.95D-07

 SCF Done:  E(RB2PLYPD3) =  -157.913211915     A.U. after   11 cycles
            NFock= 11  Conv=0.34D-08     -V/T= 2.0026
 KE= 1.575088633084D+02 PE=-6.282168975180D+02 EE= 1.814195092413D+02
 Leave Link  502 at Wed Aug 26 12:32:14 2020, MaxMem=  2097152000 cpu:      3855.4
 (Enter /opt/cluster/programs/g09/g09_d.01/g09/l801.exe)
 DoSCS=T DFT=T ScalE2(SS,OS)=  0.270000  0.270000
 ExpMin= 7.60D-02 ExpMax= 6.70D+04 ExpMxC= 6.47D+02 IAcc=3 IRadAn=         5 AccDes= 0.00D+00
 HarFok:  IExCor=  205 AccDes= 0.00D+00 IRadAn=         5 IDoV=-2 UseB2=F ITyADJ=14
 ICtDFT= 12500011 ScaDFX=  1.000000  1.000000  1.000000  1.000000
 Largest valence mixing into a core orbital is  1.22D-04
 Largest core mixing into a valence orbital is  1.75D-05
 Range of M.O.s used for correlation:     5   528
 NBasis=   528 NAE=    17 NBE=    17 NFC=     4 NFV=     0
 NROrb=    524 NOA=    13 NOB=    13 NVA=   511 NVB=   511

 **** Warning!!: The largest alpha MO coefficient is  0.38002702D+02

 Leave Link  801 at Wed Aug 26 12:32:15 2020, MaxMem=  2097152000 cpu:         1.2
 (Enter /opt/cluster/programs/g09/g09_d.01/g09/l906.exe)
 DoSCS=T DFT=T ScalE2(SS,OS)=  0.270000  0.270000
 FulOut=F Deriv=F AODrv=F NAtomX=    14
   MMem=         463  MDisk=          13 MDiskD=          13
  W3Min=     4238234 MinDsk=     6904766 NBas6D=         638
 NBas2D=      205689    NTT=      203841    LW2=     4508827
    MDV=  2095895536 MDiskM=        7293 NBas2p=      191053
 Fully direct method using O(OVN) memory.
 IMap=   1   2   3   4   5   6   7   8   9  10  11  12  13
 JobTyp=1 Pass  1:  I=   1 to  13 NPSUse=  8 ParTrn=T ParDer=T DoDerP=F.
 Spin components of T(2) and E(2):
     alpha-alpha T2 =       0.4260634032D-01 E2=     -0.2690288081D-01
     alpha-beta  T2 =       0.2830197050D+00 E2=     -0.1980337665D+00
     beta-beta   T2 =       0.4260634032D-01 E2=     -0.2690288081D-01
 The integrals were generated   1 times.
 E2(B2PLYPD3) =    -0.2518395281D+00 E(B2PLYPD3) =    -0.15816505144282D+03
 Leave Link  906 at Wed Aug 26 12:38:04 2020, MaxMem=  2097152000 cpu:      2786.0
 (Enter /opt/cluster/programs/g09/g09_d.01/g09/l601.exe)
 Copying SCF densities to generalized density rwf, IOpCl= 0 IROHF=0.

 **********************************************************************

            Population analysis using the SCF density.

 **********************************************************************

 Orbital symmetries:
       Occupied  (A) (A) (A) (A) (A) (A) (A) (A) (A) (A) (A) (A)
                 (A) (A) (A) (A) (A)
       Virtual   (A) (A) (A) (A) (A) (A) (A) (A) (A) (A) (A) (A)
                 (A) (A) (A) (A) (A) (A) (A) (A) (A) (A) (A) (A)
                 (A) (A) (A) (A) (A) (A) (A) (A) (A) (A) (A) (A)
                 (A) (A) (A) (A) (A) (A) (A) (A) (A) (A) (A) (A)
                 (A) (A) (A) (A) (A) (A) (A) (A) (A) (A) (A) (A)
                 (A) (A) (A) (A) (A) (A) (A) (A) (A) (A) (A) (A)
                 (A) (A) (A) (A) (A) (A) (A) (A) (A) (A) (A) (A)
                 (A) (A) (A) (A) (A) (A) (A) (A) (A) (A) (A) (A)
                 (A) (A) (A) (A) (A) (A) (A) (A) (A) (A) (A) (A)
                 (A) (A) (A) (A) (A) (A) (A) (A) (A) (A) (A) (A)
                 (A) (A) (A) (A) (A) (A) (A) (A) (A) (A) (A) (A)
                 (A) (A) (A) (A) (A) (A) (A) (A) (A) (A) (A) (A)
                 (A) (A) (A) (A) (A) (A) (A) (A) (A) (A) (A) (A)
                 (A) (A) (A) (A) (A) (A) (A) (A) (A) (A) (A) (A)
                 (A) (A) (A) (A) (A) (A) (A) (A) (A) (A) (A) (A)
                 (A) (A) (A) (A) (A) (A) (A) (A) (A) (A) (A) (A)
                 (A) (A) (A) (A) (A) (A) (A) (A) (A) (A) (A) (A)
                 (A) (A) (A) (A) (A) (A) (A) (A) (A) (A) (A) (A)
                 (A) (A) (A) (A) (A) (A) (A) (A) (A) (A) (A) (A)
                 (A) (A) (A) (A) (A) (A) (A) (A) (A) (A) (A) (A)
                 (A) (A) (A) (A) (A) (A) (A) (A) (A) (A) (A) (A)
                 (A) (A) (A) (A) (A) (A) (A) (A) (A) (A) (A) (A)
                 (A) (A) (A) (A) (A) (A) (A) (A) (A) (A) (A) (A)
                 (A) (A) (A) (A) (A) (A) (A) (A) (A) (A) (A) (A)
                 (A) (A) (A) (A) (A) (A) (A) (A) (A) (A) (A) (A)
                 (A) (A) (A) (A) (A) (A) (A) (A) (A) (A) (A) (A)
                 (A) (A) (A) (A) (A) (A) (A) (A) (A) (A) (A) (A)
                 (A) (A) (A) (A) (A) (A) (A) (A) (A) (A) (A) (A)
                 (A) (A) (A) (A) (A) (A) (A) (A) (A) (A) (A) (A)
                 (A) (A) (A) (A) (A) (A) (A) (A) (A) (A) (A) (A)
                 (A) (A) (A) (A) (A) (A) (A) (A) (A) (A) (A) (A)
                 (A) (A) (A) (A) (A) (A) (A) (A) (A) (A) (A) (A)
                 (A) (A) (A) (A) (A) (A) (A) (A) (A) (A) (A) (A)
                 (A) (A) (A) (A) (A) (A) (A) (A) (A) (A) (A) (A)
                 (A) (A) (A) (A) (A) (A) (A) (A) (A) (A) (A) (A)
                 (A) (A) (A) (A) (A) (A) (A) (A) (A) (A) (A) (A)
                 (A) (A) (A) (A) (A) (A) (A) (A) (A) (A) (A) (A)
                 (A) (A) (A) (A) (A) (A) (A) (A) (A) (A) (A) (A)
                 (A) (A) (A) (A) (A) (A) (A) (A) (A) (A) (A) (A)
                 (A) (A) (A) (A) (A) (A) (A) (A) (A) (A) (A) (A)
                 (A) (A) (A) (A) (A) (A) (A) (A) (A) (A) (A) (A)
                 (A) (A) (A) (A) (A) (A) (A) (A) (A) (A) (A) (A)
                 (A) (A) (A) (A) (A) (A) (A)
 The electronic state is 1-A.
 Alpha  occ. eigenvalues --  -10.64698 -10.62807 -10.60359 -10.57514  -0.94690
 Alpha  occ. eigenvalues --   -0.81772  -0.72739  -0.67860  -0.55418  -0.49544
 Alpha  occ. eigenvalues --   -0.48832  -0.45619  -0.42354  -0.40493  -0.38554
 Alpha  occ. eigenvalues --   -0.38074  -0.34589
 Alpha virt. eigenvalues --    0.05130   0.06256   0.07396   0.08697   0.10720
 Alpha virt. eigenvalues --    0.11770   0.11815   0.13016   0.14587   0.15104
 Alpha virt. eigenvalues --    0.15396   0.16029   0.18144   0.20250   0.20990
 Alpha virt. eigenvalues --    0.22025   0.22960   0.24130   0.26405   0.28879
 Alpha virt. eigenvalues --    0.29838   0.31181   0.32293   0.33008   0.33702
 Alpha virt. eigenvalues --    0.34480   0.35848   0.36574   0.37512   0.38330
 Alpha virt. eigenvalues --    0.39789   0.41941   0.42839   0.46125   0.46781
 Alpha virt. eigenvalues --    0.47830   0.50010   0.51390   0.55144   0.59423
 Alpha virt. eigenvalues --    0.61126   0.62103   0.63207   0.65031   0.67385
 Alpha virt. eigenvalues --    0.68794   0.69419   0.70606   0.71155   0.72314
 Alpha virt. eigenvalues --    0.74223   0.75524   0.76739   0.77346   0.79963
 Alpha virt. eigenvalues --    0.80471   0.81627   0.83131   0.83474   0.84934
 Alpha virt. eigenvalues --    0.87737   0.88485   0.89682   0.90520   0.91639
 Alpha virt. eigenvalues --    0.92766   0.93749   0.97006   0.97772   0.98806
 Alpha virt. eigenvalues --    1.00303   1.01212   1.01681   1.03630   1.04823
 Alpha virt. eigenvalues --    1.06077   1.06791   1.07228   1.10005   1.10814
 Alpha virt. eigenvalues --    1.12856   1.13401   1.16029   1.17012   1.18678
 Alpha virt. eigenvalues --    1.20143   1.21856   1.23950   1.25555   1.28192
 Alpha virt. eigenvalues --    1.29062   1.29692   1.33350   1.34970   1.37199
 Alpha virt. eigenvalues --    1.38414   1.39791   1.42608   1.43329   1.46531
 Alpha virt. eigenvalues --    1.48269   1.49913   1.52427   1.52848   1.57665
 Alpha virt. eigenvalues --    1.59127   1.63628   1.70203   1.74461   1.77863
 Alpha virt. eigenvalues --    1.78650   1.83451   1.83989   1.87842   1.89239
 Alpha virt. eigenvalues --    1.90723   1.91414   1.92249   1.93452   1.95530
 Alpha virt. eigenvalues --    1.98376   2.00774   2.01419   2.02126   2.03686
 Alpha virt. eigenvalues --    2.05033   2.06558   2.07446   2.10392   2.11150
 Alpha virt. eigenvalues --    2.12726   2.13890   2.14571   2.16488   2.18124
 Alpha virt. eigenvalues --    2.18701   2.19248   2.20470   2.21450   2.24675
 Alpha virt. eigenvalues --    2.25398   2.26964   2.28341   2.29576   2.29947
 Alpha virt. eigenvalues --    2.32630   2.33073   2.36213   2.37353   2.40294
 Alpha virt. eigenvalues --    2.41638   2.43628   2.44444   2.45502   2.46078
 Alpha virt. eigenvalues --    2.48406   2.50839   2.54384   2.55605   2.56297
 Alpha virt. eigenvalues --    2.57813   2.58741   2.60317   2.61112   2.63053
 Alpha virt. eigenvalues --    2.64701   2.65759   2.68085   2.69155   2.71018
 Alpha virt. eigenvalues --    2.72676   2.73117   2.73948   2.74951   2.75797
 Alpha virt. eigenvalues --    2.77234   2.78529   2.80734   2.81737   2.85296
 Alpha virt. eigenvalues --    2.87460   2.88020   2.89258   2.91573   2.93954
 Alpha virt. eigenvalues --    2.94400   2.94673   2.99022   3.01011   3.01214
 Alpha virt. eigenvalues --    3.03227   3.06206   3.06968   3.09782   3.10416
 Alpha virt. eigenvalues --    3.13008   3.15450   3.16041   3.17551   3.18797
 Alpha virt. eigenvalues --    3.20460   3.25659   3.26177   3.27197   3.28646
 Alpha virt. eigenvalues --    3.30844   3.32097   3.33922   3.35333   3.39883
 Alpha virt. eigenvalues --    3.40685   3.42709   3.44057   3.45624   3.47259
 Alpha virt. eigenvalues --    3.48982   3.50009   3.53935   3.56454   3.59617
 Alpha virt. eigenvalues --    3.62418   3.66020   3.66279   3.67558   3.69918
 Alpha virt. eigenvalues --    3.73720   3.74267   3.76075   3.77419   3.79422
 Alpha virt. eigenvalues --    3.83583   3.84959   3.88445   3.89948   3.93821
 Alpha virt. eigenvalues --    3.98278   4.01215   4.02884   4.08663   4.12909
 Alpha virt. eigenvalues --    4.16737   4.18394   4.24120   4.25697   4.29780
 Alpha virt. eigenvalues --    4.34165   4.38076   4.39658   4.42604   4.52245
 Alpha virt. eigenvalues --    4.63115   4.67965   4.74693   4.97100   5.04848
 Alpha virt. eigenvalues --    5.06755   5.19870   5.26054   5.29324   5.30568
 Alpha virt. eigenvalues --    5.35055   5.38265   5.45023   5.45826   5.53833
 Alpha virt. eigenvalues --    5.55295   5.58905   5.60663   5.62927   5.63825
 Alpha virt. eigenvalues --    5.66722   5.68737   5.72218   5.74760   5.76601
 Alpha virt. eigenvalues --    5.79247   5.79361   5.81817   5.84248   5.85262
 Alpha virt. eigenvalues --    5.87868   5.89169   5.89397   5.90677   5.94322
 Alpha virt. eigenvalues --    5.95204   5.96277   5.97765   5.98577   6.00070
 Alpha virt. eigenvalues --    6.01658   6.03770   6.05946   6.07206   6.09426
 Alpha virt. eigenvalues --    6.10924   6.13039   6.13925   6.15581   6.16155
 Alpha virt. eigenvalues --    6.17970   6.18964   6.20479   6.23015   6.24859
 Alpha virt. eigenvalues --    6.25669   6.26302   6.27279   6.27997   6.29915
 Alpha virt. eigenvalues --    6.32800   6.33263   6.37045   6.37997   6.38868
 Alpha virt. eigenvalues --    6.39935   6.42935   6.43224   6.45309   6.47931
 Alpha virt. eigenvalues --    6.51238   6.52676   6.55258   6.57664   6.59427
 Alpha virt. eigenvalues --    6.62324   6.65571   6.66232   6.69061   6.70001
 Alpha virt. eigenvalues --    6.70840   6.74105   6.75668   6.77247   6.80651
 Alpha virt. eigenvalues --    6.84311   6.87741   6.89484   6.91032   6.92561
 Alpha virt. eigenvalues --    6.94114   6.96075   6.98649   6.99957   7.02967
 Alpha virt. eigenvalues --    7.03644   7.05939   7.11123   7.12497   7.15411
 Alpha virt. eigenvalues --    7.18504   7.19585   7.20942   7.24210   7.26489
 Alpha virt. eigenvalues --    7.27685   7.28615   7.33089   7.35318   7.36157
 Alpha virt. eigenvalues --    7.39414   7.43196   7.43777   7.46293   7.49325
 Alpha virt. eigenvalues --    7.52866   7.54575   7.55240   7.56154   7.58388
 Alpha virt. eigenvalues --    7.61983   7.64839   7.66617   7.69262   7.69863
 Alpha virt. eigenvalues --    7.71509   7.72676   7.74558   7.76300   7.77371
 Alpha virt. eigenvalues --    7.78973   7.80959   7.83703   7.85380   7.86428
 Alpha virt. eigenvalues --    7.88663   7.90146   7.92477   7.93642   7.93755
 Alpha virt. eigenvalues --    7.94995   7.98845   8.01318   8.03284   8.04500
 Alpha virt. eigenvalues --    8.06359   8.08637   8.12586   8.13004   8.15625
 Alpha virt. eigenvalues --    8.17873   8.19054   8.23608   8.24677   8.25951
 Alpha virt. eigenvalues --    8.28373   8.32036   8.33947   8.35523   8.36430
 Alpha virt. eigenvalues --    8.38367   8.43204   8.43690   8.44965   8.45988
 Alpha virt. eigenvalues --    8.48049   8.51428   8.52750   8.55080   8.56070
 Alpha virt. eigenvalues --    8.58121   8.58644   8.60136   8.62045   8.63650
 Alpha virt. eigenvalues --    8.64922   8.65634   8.68908   8.73250   8.74652
 Alpha virt. eigenvalues --    8.75167   8.78607   8.82414   8.84395   8.87179
 Alpha virt. eigenvalues --    8.88194   8.89074   8.92359   8.95007   8.97714
 Alpha virt. eigenvalues --    8.98442   9.01229   9.02235   9.04558   9.07796
 Alpha virt. eigenvalues --    9.12286   9.13042   9.15084   9.15935   9.18793
 Alpha virt. eigenvalues --    9.20075   9.22500   9.24472   9.26935   9.29777
 Alpha virt. eigenvalues --    9.32918   9.34447   9.43991   9.45116   9.49597
 Alpha virt. eigenvalues --    9.50799   9.51987   9.54420   9.58243   9.59817
 Alpha virt. eigenvalues --    9.62828   9.67633   9.68877   9.71937   9.73354
 Alpha virt. eigenvalues --    9.76783   9.79237   9.82663   9.90694   9.92189
 Alpha virt. eigenvalues --    9.96151  10.02224  10.03926  10.09592  10.10945
 Alpha virt. eigenvalues --   10.14259  10.23985  10.27558  10.32831  10.48861
 Alpha virt. eigenvalues --   10.55320  10.61134  10.74727  10.76150  10.99196
 Alpha virt. eigenvalues --   11.14558  11.18438  11.79129  11.89808  11.92061
 Alpha virt. eigenvalues --   12.04077  12.07104  12.09825  12.17889  12.35886
 Alpha virt. eigenvalues --   12.78281  12.87497  13.06678  28.91590  29.24873
 Alpha virt. eigenvalues --   29.49233  29.70638 148.50247 148.86855 149.17790
 Alpha virt. eigenvalues --  149.43234
          Condensed to atoms (all electrons):
               1          2          3          4          5          6
     1  C    4.684607   0.403918   0.406500   0.388702   0.393216  -0.052963
     2  C    0.403918   4.837350  -0.035742  -0.044304  -0.042719   0.316495
     3  H    0.406500  -0.035742   0.643231  -0.042556  -0.022573   0.006832
     4  H    0.388702  -0.044304  -0.042556   0.670552  -0.029914  -0.002484
     5  H    0.393216  -0.042719  -0.022573  -0.029914   0.656184  -0.002359
     6  C   -0.052963   0.316495   0.006832  -0.002484  -0.002359   5.119800
     7  H   -0.034717   0.401312  -0.000365  -0.002791   0.005301  -0.057057
     8  H   -0.040645   0.371900  -0.007133   0.009792  -0.001510  -0.075540
     9  C    0.008800  -0.053442  -0.000385  -0.000796   0.000385   0.354360
    10  H   -0.013764  -0.043161   0.000660   0.000603   0.003138   0.441728
    11  H    0.002054  -0.065357  -0.000380   0.002700   0.000354   0.382618
    12  H    0.001181  -0.015618   0.000105  -0.000174   0.000449  -0.046155
    13  H   -0.000758   0.008432   0.000020   0.000053  -0.000049  -0.040957
    14  H   -0.000389  -0.002463   0.000019   0.000075  -0.000039  -0.066414
               7          8          9         10         11         12
     1  C   -0.034717  -0.040645   0.008800  -0.013764   0.002054   0.001181
     2  C    0.401312   0.371900  -0.053442  -0.043161  -0.065357  -0.015618
     3  H   -0.000365  -0.007133  -0.000385   0.000660  -0.000380   0.000105
     4  H   -0.002791   0.009792  -0.000796   0.000603   0.002700  -0.000174
     5  H    0.005301  -0.001510   0.000385   0.003138   0.000354   0.000449
     6  C   -0.057057  -0.075540   0.354360   0.441728   0.382618  -0.046155
     7  H    0.652536  -0.041230  -0.000741   0.012349  -0.008350   0.001286
     8  H   -0.041230   0.822653  -0.050914  -0.011686   0.020213   0.004201
     9  C   -0.000741  -0.050914   4.836558  -0.058253  -0.044760   0.386007
    10  H    0.012349  -0.011686  -0.058253   0.409634  -0.019816  -0.008177
    11  H   -0.008350   0.020213  -0.044760  -0.019816   0.710546   0.008408
    12  H    0.001286   0.004201   0.386007  -0.008177   0.008408   0.684014
    13  H   -0.000657   0.002771   0.404007  -0.007508  -0.001274  -0.023568
    14  H    0.004013   0.003346   0.384803   0.015393  -0.002381  -0.019161
              13         14
     1  C   -0.000758  -0.000389
     2  C    0.008432  -0.002463
     3  H    0.000020   0.000019
     4  H    0.000053   0.000075
     5  H   -0.000049  -0.000039
     6  C   -0.040957  -0.066414
     7  H   -0.000657   0.004013
     8  H    0.002771   0.003346
     9  C    0.404007   0.384803
    10  H   -0.007508   0.015393
    11  H   -0.001274  -0.002381
    12  H   -0.023568  -0.019161
    13  H    0.623631  -0.028498
    14  H   -0.028498   0.676996
 Mulliken charges:
               1
     1  C   -0.145742
     2  C   -0.036602
     3  H    0.051766
     4  H    0.050542
     5  H    0.040135
     6  C   -0.277905
     7  H    0.069111
     8  H   -0.006219
     9  C   -0.165630
    10  H    0.278862
    11  H    0.015427
    12  H    0.027201
    13  H    0.064354
    14  H    0.034699
 Sum of Mulliken charges =   0.00000
 Mulliken charges with hydrogens summed into heavy atoms:
               1
     1  C   -0.003298
     2  C    0.026290
     6  C    0.016383
     9  C   -0.039375
 Electronic spatial extent (au):  <R**2>=            419.7182
 Charge=              0.0000 electrons
 Dipole moment (field-independent basis, Debye):
    X=              0.2323    Y=              0.3306    Z=              0.1307  Tot=              0.4247
 Quadrupole moment (field-independent basis, Debye-Ang):
   XX=            -29.7141   YY=            -30.0052   ZZ=            -28.5916
   XY=             -0.8206   XZ=              0.2526   YZ=             -0.5487
 Traceless Quadrupole moment (field-independent basis, Debye-Ang):
   XX=             -0.2771   YY=             -0.5682   ZZ=              0.8454
   XY=             -0.8206   XZ=              0.2526   YZ=             -0.5487
 Octapole moment (field-independent basis, Debye-Ang**2):
  XXX=              6.0101  YYY=              1.6023  ZZZ=              1.9211  XYY=              0.7683
  XXY=              2.8379  XXZ=              1.6667  XZZ=              0.1903  YZZ=              0.4132
  YYZ=             -0.0759  XYZ=              0.8837
 Hexadecapole moment (field-independent basis, Debye-Ang**3):
 XXXX=           -453.3905 YYYY=            -94.1100 ZZZZ=            -73.7045 XXXY=            -16.5585
 XXXZ=              3.1197 YYYX=             -2.9056 YYYZ=             -1.7537 ZZZX=             -0.2815
 ZZZY=             -2.4408 XXYY=            -89.1059 XXZZ=            -89.9782 YYZZ=            -25.0895
 XXYZ=             -2.2286 YYXZ=              0.4772 ZZXY=              1.2755
 N-N= 1.313753130536D+02 E-N=-6.282168803932D+02  KE= 1.575088633084D+02
 Leave Link  601 at Wed Aug 26 12:38:04 2020, MaxMem=  2097152000 cpu:         1.3
 (Enter /opt/cluster/programs/g09/g09_d.01/g09/l9999.exe)
 1\1\GINC-NODE18\SP\RB2PLYPD3-FC\def2QZVP\C4H10\BOITTIER\26-Aug-2020\0\
 \#p B2PLYPD3/Def2QZVP\\butane_opt\\0,1\C,0,-3.950333,0.2578,0.224439\C
 ,0,-2.656934,-0.578139,-0.241319\H,0,-4.853677,-0.391341,0.535711\H,0,
 -4.363637,0.806495,-0.578494\H,0,-3.593033,1.07182,1.061233\C,0,-1.406
 83,0.131634,-0.185082\H,0,-2.609345,-1.184122,-1.016195\H,0,-2.295273,
 -1.279,0.67755\C,0,-0.200397,-0.658636,0.237723\H,0,-1.437868,0.558323
 ,0.497617\H,0,-1.296239,0.810361,-1.190088\H,0,-0.706907,-1.326089,1.3
 00148\H,0,0.746956,0.026298,0.413831\H,0,-0.016732,-1.408005,-0.686786
 \\Version=ES64L-G09RevD.01\State=1-A\HF=-157.9132119\MP2=-158.1650514\
 RMSD=3.450e-09\PG=C01 [X(C4H10)]\\@


 "WOULD YOU TELL ME PLEASE, WHICH WAY I OUGHT TO WALK FROM HERE?"
 "THAT DEPENDS A GREAT DEAL ON WHERE YOU WANT TO GO," SAID THE CAT.
 "I DON'T MUCH CARE WHERE -- ", SAID ALICE.
 "THEN IT DOESN'T MATTER WHICH WAY YOU WALK," SAID THE CAT.

                                      -- LEWIS CARROLL
 Job cpu time:       0 days  1 hours 51 minutes  8.9 seconds.
 File lengths (MBytes):  RWF=    152 Int=      0 D2E=      0 Chk=     14 Scr=      1
 Normal termination of Gaussian 09 at Wed Aug 26 12:38:04 2020.
