 Entering Gaussian System, Link 0=/opt/cluster/programs/g09/g09_d.01/g09//g09
 Input=/home/boittier/MDCM/nms_sampling/butane_geom.xyz.dir/energies/butane_opt_2425_energy.com
 Output=/scratch/boittier/butane_opt_2425_energy/butane_opt_2425_energy.out
 Initial command:
 /opt/cluster/programs/g09/g09_d.01/g09/l1.exe "/scratch/boittier/butane_opt_2425_energy/Gau-192189.inp" -scrdir="/scratch/boittier/butane_opt_2425_energy/"
 Entering Link 1 = /opt/cluster/programs/g09/g09_d.01/g09/l1.exe PID=    192190.
  
 Copyright (c) 1988,1990,1992,1993,1995,1998,2003,2009,2013,
            Gaussian, Inc.  All Rights Reserved.
  
 This is part of the Gaussian(R) 09 program.  It is based on
 the Gaussian(R) 03 system (copyright 2003, Gaussian, Inc.),
 the Gaussian(R) 98 system (copyright 1998, Gaussian, Inc.),
 the Gaussian(R) 94 system (copyright 1995, Gaussian, Inc.),
 the Gaussian 92(TM) system (copyright 1992, Gaussian, Inc.),
 the Gaussian 90(TM) system (copyright 1990, Gaussian, Inc.),
 the Gaussian 88(TM) system (copyright 1988, Gaussian, Inc.),
 the Gaussian 86(TM) system (copyright 1986, Carnegie Mellon
 University), and the Gaussian 82(TM) system (copyright 1983,
 Carnegie Mellon University). Gaussian is a federally registered
 trademark of Gaussian, Inc.
  
 This software contains proprietary and confidential information,
 including trade secrets, belonging to Gaussian, Inc.
  
 This software is provided under written license and may be
 used, copied, transmitted, or stored only in accord with that
 written license.
  
 The following legend is applicable only to US Government
 contracts under FAR:
  
                    RESTRICTED RIGHTS LEGEND
  
 Use, reproduction and disclosure by the US Government is
 subject to restrictions as set forth in subparagraphs (a)
 and (c) of the Commercial Computer Software - Restricted
 Rights clause in FAR 52.227-19.
  
 Gaussian, Inc.
 340 Quinnipiac St., Bldg. 40, Wallingford CT 06492
  
  
 ---------------------------------------------------------------
 Warning -- This program may not be used in any manner that
 competes with the business of Gaussian, Inc. or will provide
 assistance to any competitor of Gaussian, Inc.  The licensee
 of this program is prohibited from giving any competitor of
 Gaussian, Inc. access to this program.  By using this program,
 the user acknowledges that Gaussian, Inc. is engaged in the
 business of creating and licensing software in the field of
 computational chemistry and represents and warrants to the
 licensee that it is not a competitor of Gaussian, Inc. and that
 it will not use this program in any manner prohibited above.
 ---------------------------------------------------------------
  

 Cite this work as:
 Gaussian 09, Revision D.01,
 M. J. Frisch, G. W. Trucks, H. B. Schlegel, G. E. Scuseria, 
 M. A. Robb, J. R. Cheeseman, G. Scalmani, V. Barone, B. Mennucci, 
 G. A. Petersson, H. Nakatsuji, M. Caricato, X. Li, H. P. Hratchian, 
 A. F. Izmaylov, J. Bloino, G. Zheng, J. L. Sonnenberg, M. Hada, 
 M. Ehara, K. Toyota, R. Fukuda, J. Hasegawa, M. Ishida, T. Nakajima, 
 Y. Honda, O. Kitao, H. Nakai, T. Vreven, J. A. Montgomery, Jr., 
 J. E. Peralta, F. Ogliaro, M. Bearpark, J. J. Heyd, E. Brothers, 
 K. N. Kudin, V. N. Staroverov, T. Keith, R. Kobayashi, J. Normand, 
 K. Raghavachari, A. Rendell, J. C. Burant, S. S. Iyengar, J. Tomasi, 
 M. Cossi, N. Rega, J. M. Millam, M. Klene, J. E. Knox, J. B. Cross, 
 V. Bakken, C. Adamo, J. Jaramillo, R. Gomperts, R. E. Stratmann, 
 O. Yazyev, A. J. Austin, R. Cammi, C. Pomelli, J. W. Ochterski, 
 R. L. Martin, K. Morokuma, V. G. Zakrzewski, G. A. Voth, 
 P. Salvador, J. J. Dannenberg, S. Dapprich, A. D. Daniels, 
 O. Farkas, J. B. Foresman, J. V. Ortiz, J. Cioslowski, 
 and D. J. Fox, Gaussian, Inc., Wallingford CT, 2013.
 
 ******************************************
 Gaussian 09:  ES64L-G09RevD.01 24-Apr-2013
                26-Aug-2020 
 ******************************************
 %chk=/home/boittier/MDCM/nms_sampling/butane_geom.xyz.dir/butane_opt_2425.chk
 %nproc=8
 Will use up to    8 processors via shared memory.
 %mem=16000MB
 --------------------
 #p B2PLYPD3/Def2QZVP
 --------------------
 1/38=1/1;
 2/12=2,17=6,18=5,40=1/2;
 3/5=45,7=101,11=9,16=1,25=1,30=1,74=-60/1,2,3;
 4//1;
 5/5=2,38=5/2;
 8/10=1/1;
 9/16=-3/6;
 6/7=2,8=2,9=2,10=2/1;
 99/5=1,9=1/99;
 Leave Link    1 at Wed Aug 26 16:24:57 2020, MaxMem=  2097152000 cpu:         0.4
 (Enter /opt/cluster/programs/g09/g09_d.01/g09/l101.exe)
 ----------
 butane_opt
 ----------
 Symbolic Z-matrix:
 Charge =  0 Multiplicity = 1
 C                    -3.93643   0.21246   0.01607 
 C                    -2.78918  -0.62319   0.01856 
 H                    -4.93392  -0.26601  -0.33148 
 H                    -3.87559   1.17155  -1.07522 
 H                    -4.13018   0.94848   0.92927 
 C                    -1.40662   0.27603   0.13677 
 H                    -2.82351  -1.5545   -0.90761 
 H                    -2.71872  -1.18956   0.77233 
 C                    -0.053    -0.73853  -0.00719 
 H                    -1.20909   1.14146   1.05391 
 H                    -1.54411   0.78522  -0.77721 
 H                     0.20938  -1.91153   1.25769 
 H                     0.71084  -0.32506  -0.87907 
 H                    -0.44046  -0.7922   -0.5374 
 
 NAtoms=     14 NQM=       14 NQMF=       0 NMMI=      0 NMMIF=      0
                NMic=       0 NMicF=      0.
                    Isotopes and Nuclear Properties:
 (Nuclear quadrupole moments (NQMom) in fm**2, nuclear magnetic moments (NMagM)
  in nuclear magnetons)

  Atom         1           2           3           4           5           6           7           8           9          10
 IAtWgt=          12          12           1           1           1          12           1           1          12           1
 AtmWgt=  12.0000000  12.0000000   1.0078250   1.0078250   1.0078250  12.0000000   1.0078250   1.0078250  12.0000000   1.0078250
 NucSpn=           0           0           1           1           1           0           1           1           0           1
 AtZEff=   0.0000000   0.0000000   0.0000000   0.0000000   0.0000000   0.0000000   0.0000000   0.0000000   0.0000000   0.0000000
 NQMom=    0.0000000   0.0000000   0.0000000   0.0000000   0.0000000   0.0000000   0.0000000   0.0000000   0.0000000   0.0000000
 NMagM=    0.0000000   0.0000000   2.7928460   2.7928460   2.7928460   0.0000000   2.7928460   2.7928460   0.0000000   2.7928460
 AtZNuc=   6.0000000   6.0000000   1.0000000   1.0000000   1.0000000   6.0000000   1.0000000   1.0000000   6.0000000   1.0000000

  Atom        11          12          13          14
 IAtWgt=           1           1           1           1
 AtmWgt=   1.0078250   1.0078250   1.0078250   1.0078250
 NucSpn=           1           1           1           1
 AtZEff=   0.0000000   0.0000000   0.0000000   0.0000000
 NQMom=    0.0000000   0.0000000   0.0000000   0.0000000
 NMagM=    2.7928460   2.7928460   2.7928460   2.7928460
 AtZNuc=   1.0000000   1.0000000   1.0000000   1.0000000
 Leave Link  101 at Wed Aug 26 16:24:57 2020, MaxMem=  2097152000 cpu:         0.5
 (Enter /opt/cluster/programs/g09/g09_d.01/g09/l202.exe)
                          Input orientation:                          
 ---------------------------------------------------------------------
 Center     Atomic      Atomic             Coordinates (Angstroms)
 Number     Number       Type             X           Y           Z
 ---------------------------------------------------------------------
      1          6           0       -3.936431    0.212464    0.016065
      2          6           0       -2.789177   -0.623193    0.018559
      3          1           0       -4.933922   -0.266005   -0.331478
      4          1           0       -3.875594    1.171548   -1.075223
      5          1           0       -4.130180    0.948475    0.929269
      6          6           0       -1.406616    0.276029    0.136769
      7          1           0       -2.823508   -1.554501   -0.907608
      8          1           0       -2.718719   -1.189562    0.772333
      9          6           0       -0.052999   -0.738527   -0.007192
     10          1           0       -1.209087    1.141459    1.053912
     11          1           0       -1.544113    0.785220   -0.777208
     12          1           0        0.209379   -1.911527    1.257692
     13          1           0        0.710836   -0.325055   -0.879073
     14          1           0       -0.440462   -0.792202   -0.537402
 ---------------------------------------------------------------------
                    Distance matrix (angstroms):
                    1          2          3          4          5
     1  C    0.000000
     2  C    1.419338   0.000000
     3  H    1.159615   2.202281   0.000000
     4  H    1.454116   2.365958   1.933849   0.000000
     5  H    1.188778   2.257836   1.926252   2.032871   0.000000
     6  C    2.533490   1.653496   3.599298   2.892530   2.915140
     7  H    2.283404   1.313887   2.538896   2.926828   3.368441
     8  H    2.005104   0.945470   2.641681   3.213513   2.566720
     9  C    3.998246   2.738729   4.914453   4.404692   4.510692
    10  H    3.062444   2.585080   4.216000   3.412386   2.930113
    11  H    2.584670   2.041337   3.576948   2.381988   3.102653
    12  H    4.820863   3.490930   5.629098   5.624486   5.207614
    13  H    4.763118   3.625565   5.671564   4.828420   5.322351
    14  H    3.679331   2.419529   4.528849   3.993206   4.335331
                    6          7          8          9         10
     6  C    0.000000
     7  H    2.539517   0.000000
     8  H    2.067248   1.722313   0.000000
     9  C    1.697742   3.025274   2.813744   0.000000
    10  H    1.276377   3.704337   2.791404   2.448842   0.000000
    11  H    1.055242   2.669860   2.771379   2.266749   1.895297
    12  H    2.941651   3.743581   3.054597   1.744908   3.372580
    13  H    2.424219   3.742184   3.903378   1.230683   3.094059
    14  H    1.590307   2.529241   2.657773   0.658886   2.619563
                   11         12         13         14
    11  H    0.000000
    12  H    3.806310   0.000000
    13  H    2.515528   2.708158   0.000000
    14  H    1.940055   2.213040   1.288585   0.000000
 Stoichiometry    C4H10
 Framework group  C1[X(C4H10)]
 Deg. of freedom    36
 Full point group                 C1      NOp   1
 Largest Abelian subgroup         C1      NOp   1
 Largest concise Abelian subgroup C1      NOp   1
                         Standard orientation:                         
 ---------------------------------------------------------------------
 Center     Atomic      Atomic             Coordinates (Angstroms)
 Number     Number       Type             X           Y           Z
 ---------------------------------------------------------------------
      1          6           0        1.927985   -0.046754    0.039928
      2          6           0        0.639500    0.546484   -0.009026
      3          1           0        2.818841    0.601837   -0.321199
      4          1           0        2.076510   -1.048233   -1.003832
      5          1           0        2.244937   -0.687598    0.989693
      6          6           0       -0.542248   -0.600391    0.139966
      7          1           0        0.508187    1.422815   -0.979129
      8          1           0        0.445438    1.122017    0.715553
      9          6           0       -2.065346    0.120801   -0.065910
     10          1           0       -0.583674   -1.444669    1.096321
     11          1           0       -0.290650   -1.114117   -0.746780
     12          1           0       -2.575900    1.276288    1.137787
     13          1           0       -2.717006   -0.474287   -0.923691
     14          1           0       -1.686031    0.225109   -0.594466
 ---------------------------------------------------------------------
 Rotational constants (GHZ):     18.8656941      3.4211070      3.1940864
 Leave Link  202 at Wed Aug 26 16:24:57 2020, MaxMem=  2097152000 cpu:         0.0
 (Enter /opt/cluster/programs/g09/g09_d.01/g09/l301.exe)
 Standard basis: def2QZVP (5D, 7F)
 Ernie: Thresh=  0.10000D-02 Tol=  0.10000D-05 Strict=F.
 There are   638 symmetry adapted cartesian basis functions of A   symmetry.
 There are   528 symmetry adapted basis functions of A   symmetry.
   528 basis functions,   748 primitive gaussians,   638 cartesian basis functions
    17 alpha electrons       17 beta electrons
       nuclear repulsion energy       126.3680147169 Hartrees.
 IExCor=  419 DFT=T Ex+Corr=B2PLYPD3 ExCW=0 ScaHFX=  0.530000
 ScaDFX=  0.470000  0.470000  0.730000  0.730000 ScalE2=  0.270000  0.270000
 IRadAn=      0 IRanWt=     -1 IRanGd=            0 ICorTp=0 IEmpDi=141
 NAtoms=   14 NActive=   14 NUniq=   14 SFac= 1.00D+00 NAtFMM=   60 NAOKFM=F Big=F
 Integral buffers will be    131072 words long.
 Regular integral format.
 Two-electron integral symmetry is turned on.
 R6Disp:  Grimme-D3(BJ) Dispersion energy=       -0.0070331854 Hartrees.
 Nuclear repulsion after empirical dispersion term =      126.3609815315 Hartrees.
 Leave Link  301 at Wed Aug 26 16:24:57 2020, MaxMem=  2097152000 cpu:         0.4
 (Enter /opt/cluster/programs/g09/g09_d.01/g09/l302.exe)
 NPDir=0 NMtPBC=     1 NCelOv=     1 NCel=       1 NClECP=     1 NCelD=      1
         NCelK=      1 NCelE2=     1 NClLst=     1 CellRange=     0.0.
 One-electron integrals computed using PRISM.
   1 Symmetry operations used in ECPInt.
 ECPInt:  NShTT=   14196 NPrTT=   30597 LenC2=   13822 LenP2D=   25664.
 LDataN:  DoStor=T MaxTD1= 8 Len=  415
 NBasis=   528 RedAO= T EigKep=  2.20D-05  NBF=   528
 NBsUse=   528 1.00D-06 EigRej= -1.00D+00 NBFU=   528
 Precomputing XC quadrature grid using
 IXCGrd= 4 IRadAn=           0 IRanWt=          -1 IRanGd=           0 AccXCQ= 0.00D+00.
 Generated NRdTot=       0 NPtTot=           0 NUsed=           0 NTot=          32
 NSgBfM=   638   638   638   638   638 MxSgAt=    14 MxSgA2=    14.
 Leave Link  302 at Wed Aug 26 16:24:59 2020, MaxMem=  2097152000 cpu:         5.5
 (Enter /opt/cluster/programs/g09/g09_d.01/g09/l303.exe)
 DipDrv:  MaxL=1.
 Leave Link  303 at Wed Aug 26 16:24:59 2020, MaxMem=  2097152000 cpu:         0.5
 (Enter /opt/cluster/programs/g09/g09_d.01/g09/l401.exe)
 ExpMin= 7.60D-02 ExpMax= 6.70D+04 ExpMxC= 6.47D+02 IAcc=2 IRadAn=         4 AccDes= 0.00D+00
 Harris functional with IExCor=  419 and IRadAn=       4 diagonalized for initial guess.
 HarFok:  IExCor=  419 AccDes= 0.00D+00 IRadAn=         4 IDoV= 1 UseB2=F ITyADJ=14
 ICtDFT=  3500011 ScaDFX=  1.000000  1.000000  1.000000  1.000000
 FoFCou: FMM=F IPFlag=           0 FMFlag=      100000 FMFlg1=           0
         NFxFlg=           0 DoJE=T BraDBF=F KetDBF=T FulRan=T
         wScrn=  0.000000 ICntrl=     500 IOpCl=  0 I1Cent=   200000004 NGrid=           0
         NMat0=    1 NMatS0=      1 NMatT0=    0 NMatD0=    1 NMtDS0=    0 NMtDT0=    0
 Petite list used in FoFCou.
 Harris En= -158.052756867300    
 JPrj=0 DoOrth=F DoCkMO=F.
 Leave Link  401 at Wed Aug 26 16:25:01 2020, MaxMem=  2097152000 cpu:        16.6
 (Enter /opt/cluster/programs/g09/g09_d.01/g09/l502.exe)
 Closed shell SCF:
 Using DIIS extrapolation, IDIIS=  1040.
 Integral symmetry usage will be decided dynamically.
 IVT=     1249338 IEndB=     1249338 NGot=  2097152000 MDV=  2096326985
 LenX=  2096326985 LenY=  2095919303
 Requested convergence on RMS density matrix=1.00D-08 within 128 cycles.
 Requested convergence on MAX density matrix=1.00D-06.
 Requested convergence on             energy=1.00D-06.
 No special actions if energy rises.
 Fock matrices will be formed incrementally for  20 cycles.
 Integral accuracy reduced to 1.0D-05 until final iterations.

 Cycle   1  Pass 0  IDiag  1:
 FoFJK:  IHMeth= 1 ICntrl=       0 DoSepK=F KAlg= 0 I1Cent=   0 FoldK=F
 IRaf= 930000000 NMat=   1 IRICut=       1 DoRegI=T DoRafI=F ISym2E= 0.
 FoFCou: FMM=F IPFlag=           0 FMFlag=      100000 FMFlg1=           0
         NFxFlg=           0 DoJE=F BraDBF=F KetDBF=F FulRan=T
         wScrn=  0.000000 ICntrl=       0 IOpCl=  0 I1Cent=           0 NGrid=           0
         NMat0=    1 NMatS0=      1 NMatT0=    0 NMatD0=    1 NMtDS0=    0 NMtDT0=    0
 Symmetry not used in FoFCou.
 E= -157.066769408373    
 DIIS: error= 2.99D-02 at cycle   1 NSaved=   1.
 NSaved= 1 IEnMin= 1 EnMin= -157.066769408373     IErMin= 1 ErrMin= 2.99D-02
 ErrMax= 2.99D-02  0.00D+00 EMaxC= 1.00D-01 BMatC= 4.69D-01 BMatP= 4.69D-01
 IDIUse=3 WtCom= 7.01D-01 WtEn= 2.99D-01
 Coeff-Com:  0.100D+01
 Coeff-En:   0.100D+01
 Coeff:      0.100D+01
 Gap=     0.270 Goal=   None    Shift=    0.000
 GapD=    0.270 DampG=1.000 DampE=0.500 DampFc=0.5000 IDamp=-1.
 Damping current iteration by 5.00D-01
 RMSDP=1.59D-03 MaxDP=8.27D-02              OVMax= 3.39D-01

 Cycle   2  Pass 0  IDiag  1:
 RMSU=  7.78D-04    CP:  9.45D-01
 E= -157.262000125473     Delta-E=       -0.195230717100 Rises=F Damp=T
 DIIS: error= 7.13D-03 at cycle   2 NSaved=   2.
 NSaved= 2 IEnMin= 2 EnMin= -157.262000125473     IErMin= 2 ErrMin= 7.13D-03
 ErrMax= 7.13D-03  0.00D+00 EMaxC= 1.00D-01 BMatC= 3.58D-02 BMatP= 4.69D-01
 IDIUse=3 WtCom= 9.29D-01 WtEn= 7.13D-02
 Coeff-Com: -0.626D-01 0.106D+01
 Coeff-En:   0.304D-01 0.970D+00
 Coeff:     -0.559D-01 0.106D+01
 Gap=     0.353 Goal=   None    Shift=    0.000
 RMSDP=5.88D-04 MaxDP=3.24D-02 DE=-1.95D-01 OVMax= 2.24D-01

 Cycle   3  Pass 0  IDiag  1:
 RMSU=  4.39D-04    CP:  9.25D-01  5.03D-01
 E= -157.471671430076     Delta-E=       -0.209671304603 Rises=F Damp=F
 DIIS: error= 3.61D-03 at cycle   3 NSaved=   3.
 NSaved= 3 IEnMin= 3 EnMin= -157.471671430076     IErMin= 3 ErrMin= 3.61D-03
 ErrMax= 3.61D-03  0.00D+00 EMaxC= 1.00D-01 BMatC= 5.05D-03 BMatP= 3.58D-02
 IDIUse=3 WtCom= 9.64D-01 WtEn= 3.61D-02
 Coeff-Com: -0.931D-01 0.201D+00 0.892D+00
 Coeff-En:   0.000D+00 0.000D+00 0.100D+01
 Coeff:     -0.897D-01 0.194D+00 0.896D+00
 Gap=     0.343 Goal=   None    Shift=    0.000
 RMSDP=1.04D-04 MaxDP=9.51D-03 DE=-2.10D-01 OVMax= 2.65D-02

 Cycle   4  Pass 0  IDiag  1:
 RMSU=  8.97D-05    CP:  9.18D-01  5.42D-01  1.08D+00
 E= -157.477655411054     Delta-E=       -0.005983980978 Rises=F Damp=F
 DIIS: error= 1.01D-03 at cycle   4 NSaved=   4.
 NSaved= 4 IEnMin= 4 EnMin= -157.477655411054     IErMin= 4 ErrMin= 1.01D-03
 ErrMax= 1.01D-03  0.00D+00 EMaxC= 1.00D-01 BMatC= 3.35D-04 BMatP= 5.05D-03
 IDIUse=3 WtCom= 9.90D-01 WtEn= 1.01D-02
 Coeff-Com: -0.238D-01 0.314D-01 0.294D+00 0.698D+00
 Coeff-En:   0.000D+00 0.000D+00 0.000D+00 0.100D+01
 Coeff:     -0.236D-01 0.311D-01 0.291D+00 0.701D+00
 Gap=     0.330 Goal=   None    Shift=    0.000
 RMSDP=3.22D-05 MaxDP=1.80D-03 DE=-5.98D-03 OVMax= 5.49D-03

 Cycle   5  Pass 0  IDiag  1:
 RMSU=  2.42D-05    CP:  9.18D-01  5.22D-01  1.11D+00  9.45D-01
 E= -157.477972945857     Delta-E=       -0.000317534803 Rises=F Damp=F
 DIIS: error= 3.16D-04 at cycle   5 NSaved=   5.
 NSaved= 5 IEnMin= 5 EnMin= -157.477972945857     IErMin= 5 ErrMin= 3.16D-04
 ErrMax= 3.16D-04  0.00D+00 EMaxC= 1.00D-01 BMatC= 4.91D-05 BMatP= 3.35D-04
 IDIUse=3 WtCom= 9.97D-01 WtEn= 3.16D-03
 Coeff-Com:  0.129D-02-0.114D-01 0.289D-01 0.288D+00 0.693D+00
 Coeff-En:   0.000D+00 0.000D+00 0.000D+00 0.000D+00 0.100D+01
 Coeff:      0.129D-02-0.113D-01 0.288D-01 0.287D+00 0.694D+00
 Gap=     0.330 Goal=   None    Shift=    0.000
 RMSDP=1.13D-05 MaxDP=6.07D-04 DE=-3.18D-04 OVMax= 1.92D-03

 Cycle   6  Pass 0  IDiag  1:
 RMSU=  7.93D-06    CP:  9.18D-01  5.16D-01  1.12D+00  1.00D+00  9.99D-01
 E= -157.478026695261     Delta-E=       -0.000053749405 Rises=F Damp=F
 DIIS: error= 6.82D-05 at cycle   6 NSaved=   6.
 NSaved= 6 IEnMin= 6 EnMin= -157.478026695261     IErMin= 6 ErrMin= 6.82D-05
 ErrMax= 6.82D-05  0.00D+00 EMaxC= 1.00D-01 BMatC= 1.48D-06 BMatP= 4.91D-05
 IDIUse=1 WtCom= 1.00D+00 WtEn= 0.00D+00
 Coeff-Com:  0.247D-02-0.431D-02-0.199D-01-0.355D-01 0.784D-01 0.979D+00
 Coeff:      0.247D-02-0.431D-02-0.199D-01-0.355D-01 0.784D-01 0.979D+00
 Gap=     0.330 Goal=   None    Shift=    0.000
 RMSDP=5.13D-06 MaxDP=3.29D-04 DE=-5.37D-05 OVMax= 7.53D-04

 Initial convergence to 1.0D-05 achieved.  Increase integral accuracy.
 Cycle   7  Pass 1  IDiag  1:
 E= -157.478028940568     Delta-E=       -0.000002245307 Rises=F Damp=F
 DIIS: error= 5.86D-05 at cycle   1 NSaved=   1.
 NSaved= 1 IEnMin= 1 EnMin= -157.478028940568     IErMin= 1 ErrMin= 5.86D-05
 ErrMax= 5.86D-05  0.00D+00 EMaxC= 1.00D-01 BMatC= 8.04D-07 BMatP= 8.04D-07
 IDIUse=1 WtCom= 1.00D+00 WtEn= 0.00D+00
 Coeff-Com:  0.100D+01
 Coeff:      0.100D+01
 Gap=     0.330 Goal=   None    Shift=    0.000
 RMSDP=5.13D-06 MaxDP=3.29D-04 DE=-2.25D-06 OVMax= 3.73D-04

 Cycle   8  Pass 1  IDiag  1:
 RMSU=  2.28D-05    CP:  1.00D+00
 E= -157.478029216035     Delta-E=       -0.000000275468 Rises=F Damp=F
 DIIS: error= 1.87D-05 at cycle   2 NSaved=   2.
 NSaved= 2 IEnMin= 2 EnMin= -157.478029216035     IErMin= 2 ErrMin= 1.87D-05
 ErrMax= 1.87D-05  0.00D+00 EMaxC= 1.00D-01 BMatC= 1.72D-07 BMatP= 8.04D-07
 IDIUse=1 WtCom= 1.00D+00 WtEn= 0.00D+00
 Coeff-Com:  0.245D+00 0.755D+00
 Coeff:      0.245D+00 0.755D+00
 Gap=     0.330 Goal=   None    Shift=    0.000
 RMSDP=9.08D-07 MaxDP=6.79D-05 DE=-2.75D-07 OVMax= 1.83D-04

 Cycle   9  Pass 1  IDiag  1:
 RMSU=  7.37D-07    CP:  1.00D+00  1.02D+00
 E= -157.478029333100     Delta-E=       -0.000000117065 Rises=F Damp=F
 DIIS: error= 1.16D-05 at cycle   3 NSaved=   3.
 NSaved= 3 IEnMin= 3 EnMin= -157.478029333100     IErMin= 3 ErrMin= 1.16D-05
 ErrMax= 1.16D-05  0.00D+00 EMaxC= 1.00D-01 BMatC= 6.51D-08 BMatP= 1.72D-07
 IDIUse=1 WtCom= 1.00D+00 WtEn= 0.00D+00
 Coeff-Com: -0.798D-02 0.378D+00 0.630D+00
 Coeff:     -0.798D-02 0.378D+00 0.630D+00
 Gap=     0.330 Goal=   None    Shift=    0.000
 RMSDP=3.21D-07 MaxDP=1.74D-05 DE=-1.17D-07 OVMax= 9.40D-05

 Cycle  10  Pass 1  IDiag  1:
 RMSU=  2.15D-07    CP:  1.00D+00  1.03D+00  8.00D-01
 E= -157.478029400951     Delta-E=       -0.000000067851 Rises=F Damp=F
 DIIS: error= 1.01D-06 at cycle   4 NSaved=   4.
 NSaved= 4 IEnMin= 4 EnMin= -157.478029400951     IErMin= 4 ErrMin= 1.01D-06
 ErrMax= 1.01D-06  0.00D+00 EMaxC= 1.00D-01 BMatC= 4.06D-10 BMatP= 6.51D-08
 IDIUse=1 WtCom= 1.00D+00 WtEn= 0.00D+00
 Coeff-Com: -0.524D-02 0.705D-01 0.135D+00 0.799D+00
 Coeff:     -0.524D-02 0.705D-01 0.135D+00 0.799D+00
 Gap=     0.330 Goal=   None    Shift=    0.000
 RMSDP=5.06D-08 MaxDP=3.24D-06 DE=-6.79D-08 OVMax= 1.68D-05

 Cycle  11  Pass 1  IDiag  1:
 RMSU=  4.65D-08    CP:  1.00D+00  1.03D+00  8.13D-01  1.06D+00
 E= -157.478029401780     Delta-E=       -0.000000000828 Rises=F Damp=F
 DIIS: error= 4.12D-07 at cycle   5 NSaved=   5.
 NSaved= 5 IEnMin= 5 EnMin= -157.478029401780     IErMin= 5 ErrMin= 4.12D-07
 ErrMax= 4.12D-07  0.00D+00 EMaxC= 1.00D-01 BMatC= 8.00D-11 BMatP= 4.06D-10
 IDIUse=1 WtCom= 1.00D+00 WtEn= 0.00D+00
 Coeff-Com:  0.906D-03-0.603D-01-0.962D-01 0.132D+00 0.102D+01
 Coeff:      0.906D-03-0.603D-01-0.962D-01 0.132D+00 0.102D+01
 Gap=     0.330 Goal=   None    Shift=    0.000
 RMSDP=3.57D-08 MaxDP=2.11D-06 DE=-8.28D-10 OVMax= 1.45D-05

 Cycle  12  Pass 1  IDiag  1:
 RMSU=  2.22D-08    CP:  1.00D+00  1.03D+00  8.27D-01  1.17D+00  1.22D+00
 E= -157.478029401992     Delta-E=       -0.000000000212 Rises=F Damp=F
 DIIS: error= 2.19D-07 at cycle   6 NSaved=   6.
 NSaved= 6 IEnMin= 6 EnMin= -157.478029401992     IErMin= 6 ErrMin= 2.19D-07
 ErrMax= 2.19D-07  0.00D+00 EMaxC= 1.00D-01 BMatC= 1.68D-11 BMatP= 8.00D-11
 IDIUse=1 WtCom= 1.00D+00 WtEn= 0.00D+00
 Coeff-Com:  0.971D-03-0.367D-01-0.605D-01-0.221D-01 0.474D+00 0.644D+00
 Coeff:      0.971D-03-0.367D-01-0.605D-01-0.221D-01 0.474D+00 0.644D+00
 Gap=     0.330 Goal=   None    Shift=    0.000
 RMSDP=8.76D-09 MaxDP=5.93D-07 DE=-2.12D-10 OVMax= 1.97D-06

 SCF Done:  E(RB2PLYPD3) =  -157.478029402     A.U. after   12 cycles
            NFock= 12  Conv=0.88D-08     -V/T= 2.0010
 KE= 1.573238988876D+02 PE=-6.171066652135D+02 EE= 1.759437553924D+02
 Leave Link  502 at Wed Aug 26 16:32:50 2020, MaxMem=  2097152000 cpu:      3747.1
 (Enter /opt/cluster/programs/g09/g09_d.01/g09/l801.exe)
 DoSCS=T DFT=T ScalE2(SS,OS)=  0.270000  0.270000
 ExpMin= 7.60D-02 ExpMax= 6.70D+04 ExpMxC= 6.47D+02 IAcc=3 IRadAn=         5 AccDes= 0.00D+00
 HarFok:  IExCor=  205 AccDes= 0.00D+00 IRadAn=         5 IDoV=-2 UseB2=F ITyADJ=14
 ICtDFT= 12500011 ScaDFX=  1.000000  1.000000  1.000000  1.000000
 Largest valence mixing into a core orbital is  1.22D-04
 Largest core mixing into a valence orbital is  1.59D-05
 Range of M.O.s used for correlation:     5   528
 NBasis=   528 NAE=    17 NBE=    17 NFC=     4 NFV=     0
 NROrb=    524 NOA=    13 NOB=    13 NVA=   511 NVB=   511

 **** Warning!!: The largest alpha MO coefficient is  0.25788266D+02

 Leave Link  801 at Wed Aug 26 16:32:50 2020, MaxMem=  2097152000 cpu:         1.2
 (Enter /opt/cluster/programs/g09/g09_d.01/g09/l906.exe)
 DoSCS=T DFT=T ScalE2(SS,OS)=  0.270000  0.270000
 FulOut=F Deriv=F AODrv=F NAtomX=    14
   MMem=         463  MDisk=          13 MDiskD=          13
  W3Min=     4238234 MinDsk=     6904766 NBas6D=         638
 NBas2D=      205689    NTT=      203841    LW2=     4508827
    MDV=  2095912468 MDiskM=        7293 NBas2p=      187699
 Fully direct method using O(OVN) memory.
 IMap=   1   2   3   4   5   6   7   8   9  10  11  12  13
 JobTyp=1 Pass  1:  I=   1 to  13 NPSUse=  8 ParTrn=T ParDer=T DoDerP=F.
 Spin components of T(2) and E(2):
     alpha-alpha T2 =       0.4676148369D-01 E2=     -0.2739690391D-01
     alpha-beta  T2 =       0.3369633707D+00 E2=     -0.2061036197D+00
     beta-beta   T2 =       0.4676148369D-01 E2=     -0.2739690391D-01
 The integrals were generated   1 times.
 E2(B2PLYPD3) =    -0.2608974275D+00 E(B2PLYPD3) =    -0.15773892682950D+03
 Leave Link  906 at Wed Aug 26 16:38:28 2020, MaxMem=  2097152000 cpu:      2699.6
 (Enter /opt/cluster/programs/g09/g09_d.01/g09/l601.exe)
 Copying SCF densities to generalized density rwf, IOpCl= 0 IROHF=0.

 **********************************************************************

            Population analysis using the SCF density.

 **********************************************************************

 Orbital symmetries:
       Occupied  (A) (A) (A) (A) (A) (A) (A) (A) (A) (A) (A) (A)
                 (A) (A) (A) (A) (A)
       Virtual   (A) (A) (A) (A) (A) (A) (A) (A) (A) (A) (A) (A)
                 (A) (A) (A) (A) (A) (A) (A) (A) (A) (A) (A) (A)
                 (A) (A) (A) (A) (A) (A) (A) (A) (A) (A) (A) (A)
                 (A) (A) (A) (A) (A) (A) (A) (A) (A) (A) (A) (A)
                 (A) (A) (A) (A) (A) (A) (A) (A) (A) (A) (A) (A)
                 (A) (A) (A) (A) (A) (A) (A) (A) (A) (A) (A) (A)
                 (A) (A) (A) (A) (A) (A) (A) (A) (A) (A) (A) (A)
                 (A) (A) (A) (A) (A) (A) (A) (A) (A) (A) (A) (A)
                 (A) (A) (A) (A) (A) (A) (A) (A) (A) (A) (A) (A)
                 (A) (A) (A) (A) (A) (A) (A) (A) (A) (A) (A) (A)
                 (A) (A) (A) (A) (A) (A) (A) (A) (A) (A) (A) (A)
                 (A) (A) (A) (A) (A) (A) (A) (A) (A) (A) (A) (A)
                 (A) (A) (A) (A) (A) (A) (A) (A) (A) (A) (A) (A)
                 (A) (A) (A) (A) (A) (A) (A) (A) (A) (A) (A) (A)
                 (A) (A) (A) (A) (A) (A) (A) (A) (A) (A) (A) (A)
                 (A) (A) (A) (A) (A) (A) (A) (A) (A) (A) (A) (A)
                 (A) (A) (A) (A) (A) (A) (A) (A) (A) (A) (A) (A)
                 (A) (A) (A) (A) (A) (A) (A) (A) (A) (A) (A) (A)
                 (A) (A) (A) (A) (A) (A) (A) (A) (A) (A) (A) (A)
                 (A) (A) (A) (A) (A) (A) (A) (A) (A) (A) (A) (A)
                 (A) (A) (A) (A) (A) (A) (A) (A) (A) (A) (A) (A)
                 (A) (A) (A) (A) (A) (A) (A) (A) (A) (A) (A) (A)
                 (A) (A) (A) (A) (A) (A) (A) (A) (A) (A) (A) (A)
                 (A) (A) (A) (A) (A) (A) (A) (A) (A) (A) (A) (A)
                 (A) (A) (A) (A) (A) (A) (A) (A) (A) (A) (A) (A)
                 (A) (A) (A) (A) (A) (A) (A) (A) (A) (A) (A) (A)
                 (A) (A) (A) (A) (A) (A) (A) (A) (A) (A) (A) (A)
                 (A) (A) (A) (A) (A) (A) (A) (A) (A) (A) (A) (A)
                 (A) (A) (A) (A) (A) (A) (A) (A) (A) (A) (A) (A)
                 (A) (A) (A) (A) (A) (A) (A) (A) (A) (A) (A) (A)
                 (A) (A) (A) (A) (A) (A) (A) (A) (A) (A) (A) (A)
                 (A) (A) (A) (A) (A) (A) (A) (A) (A) (A) (A) (A)
                 (A) (A) (A) (A) (A) (A) (A) (A) (A) (A) (A) (A)
                 (A) (A) (A) (A) (A) (A) (A) (A) (A) (A) (A) (A)
                 (A) (A) (A) (A) (A) (A) (A) (A) (A) (A) (A) (A)
                 (A) (A) (A) (A) (A) (A) (A) (A) (A) (A) (A) (A)
                 (A) (A) (A) (A) (A) (A) (A) (A) (A) (A) (A) (A)
                 (A) (A) (A) (A) (A) (A) (A) (A) (A) (A) (A) (A)
                 (A) (A) (A) (A) (A) (A) (A) (A) (A) (A) (A) (A)
                 (A) (A) (A) (A) (A) (A) (A) (A) (A) (A) (A) (A)
                 (A) (A) (A) (A) (A) (A) (A) (A) (A) (A) (A) (A)
                 (A) (A) (A) (A) (A) (A) (A) (A) (A) (A) (A) (A)
                 (A) (A) (A) (A) (A) (A) (A)
 The electronic state is 1-A.
 Alpha  occ. eigenvalues --  -10.65618 -10.65466 -10.63098 -10.62843  -0.93713
 Alpha  occ. eigenvalues --   -0.88088  -0.72691  -0.67301  -0.52893  -0.49640
 Alpha  occ. eigenvalues --   -0.47816  -0.44583  -0.42479  -0.38505  -0.37975
 Alpha  occ. eigenvalues --   -0.34154  -0.33272
 Alpha virt. eigenvalues --   -0.00230   0.04245   0.05912   0.06939   0.08692
 Alpha virt. eigenvalues --    0.10034   0.10621   0.12675   0.13167   0.14454
 Alpha virt. eigenvalues --    0.15510   0.16701   0.17036   0.18850   0.19223
 Alpha virt. eigenvalues --    0.21334   0.22678   0.23610   0.24333   0.25699
 Alpha virt. eigenvalues --    0.27306   0.28288   0.29093   0.29653   0.31424
 Alpha virt. eigenvalues --    0.33286   0.34315   0.35423   0.36306   0.39832
 Alpha virt. eigenvalues --    0.40652   0.41611   0.42352   0.42922   0.45323
 Alpha virt. eigenvalues --    0.47184   0.50510   0.51769   0.53131   0.54732
 Alpha virt. eigenvalues --    0.56642   0.58910   0.60402   0.62145   0.63718
 Alpha virt. eigenvalues --    0.65203   0.67669   0.68344   0.70234   0.70717
 Alpha virt. eigenvalues --    0.71760   0.73203   0.74352   0.76046   0.76912
 Alpha virt. eigenvalues --    0.78144   0.79767   0.82690   0.83930   0.84862
 Alpha virt. eigenvalues --    0.85601   0.86668   0.87753   0.88379   0.89681
 Alpha virt. eigenvalues --    0.91128   0.91941   0.92605   0.94261   0.95204
 Alpha virt. eigenvalues --    0.95443   0.98216   0.99135   0.99990   1.01521
 Alpha virt. eigenvalues --    1.02975   1.03506   1.04306   1.06266   1.07906
 Alpha virt. eigenvalues --    1.09045   1.10712   1.11998   1.13989   1.17073
 Alpha virt. eigenvalues --    1.18562   1.20275   1.21536   1.21897   1.23987
 Alpha virt. eigenvalues --    1.24480   1.27278   1.30057   1.30783   1.32469
 Alpha virt. eigenvalues --    1.33345   1.35858   1.36729   1.39414   1.41351
 Alpha virt. eigenvalues --    1.43088   1.46574   1.48879   1.50480   1.53940
 Alpha virt. eigenvalues --    1.54441   1.59923   1.62527   1.66169   1.69853
 Alpha virt. eigenvalues --    1.78483   1.81733   1.82477   1.84542   1.87195
 Alpha virt. eigenvalues --    1.87793   1.91941   1.92747   1.95079   1.95583
 Alpha virt. eigenvalues --    1.96444   1.97680   1.98238   1.99567   1.99847
 Alpha virt. eigenvalues --    2.02670   2.05113   2.06397   2.07554   2.08918
 Alpha virt. eigenvalues --    2.09985   2.11427   2.12012   2.13603   2.15359
 Alpha virt. eigenvalues --    2.16442   2.16771   2.17217   2.18616   2.19096
 Alpha virt. eigenvalues --    2.20913   2.22072   2.23798   2.23904   2.25916
 Alpha virt. eigenvalues --    2.27361   2.27734   2.30592   2.31247   2.32099
 Alpha virt. eigenvalues --    2.34344   2.35604   2.36310   2.39011   2.39297
 Alpha virt. eigenvalues --    2.42210   2.43660   2.45141   2.45707   2.45881
 Alpha virt. eigenvalues --    2.46872   2.48110   2.48621   2.50173   2.51511
 Alpha virt. eigenvalues --    2.53306   2.55662   2.56095   2.58754   2.59866
 Alpha virt. eigenvalues --    2.62264   2.63002   2.64891   2.65618   2.68590
 Alpha virt. eigenvalues --    2.68837   2.72565   2.74066   2.74744   2.75925
 Alpha virt. eigenvalues --    2.77660   2.79290   2.80858   2.83606   2.84872
 Alpha virt. eigenvalues --    2.85493   2.86896   2.87508   2.89110   2.92289
 Alpha virt. eigenvalues --    2.93281   2.94383   2.96905   2.98560   2.99014
 Alpha virt. eigenvalues --    2.99574   3.02439   3.03561   3.06279   3.08969
 Alpha virt. eigenvalues --    3.09963   3.12687   3.14745   3.16576   3.18608
 Alpha virt. eigenvalues --    3.19600   3.22773   3.24174   3.25577   3.29143
 Alpha virt. eigenvalues --    3.30586   3.33655   3.36032   3.37527   3.38444
 Alpha virt. eigenvalues --    3.40630   3.41693   3.44254   3.47126   3.48751
 Alpha virt. eigenvalues --    3.52691   3.53892   3.55423   3.55891   3.59410
 Alpha virt. eigenvalues --    3.60689   3.63491   3.67180   3.69796   3.74208
 Alpha virt. eigenvalues --    3.76815   3.78396   3.82256   3.85235   3.86032
 Alpha virt. eigenvalues --    3.89317   3.91222   3.97167   3.99700   4.02379
 Alpha virt. eigenvalues --    4.05998   4.09037   4.16921   4.21434   4.24412
 Alpha virt. eigenvalues --    4.30624   4.32067   4.38355   4.40830   4.43435
 Alpha virt. eigenvalues --    4.50193   4.57053   4.62437   4.90013   4.90879
 Alpha virt. eigenvalues --    4.97610   5.04861   5.13741   5.14892   5.17956
 Alpha virt. eigenvalues --    5.20713   5.24334   5.28391   5.33969   5.36292
 Alpha virt. eigenvalues --    5.39845   5.42014   5.44245   5.49226   5.51346
 Alpha virt. eigenvalues --    5.55407   5.56873   5.63921   5.66451   5.68388
 Alpha virt. eigenvalues --    5.69891   5.70105   5.74113   5.75396   5.76842
 Alpha virt. eigenvalues --    5.78029   5.80210   5.82066   5.85619   5.87041
 Alpha virt. eigenvalues --    5.87889   5.88585   5.90089   5.90745   5.92128
 Alpha virt. eigenvalues --    5.92355   5.93853   5.95169   5.95763   5.96287
 Alpha virt. eigenvalues --    5.99581   5.99767   6.01249   6.02375   6.02541
 Alpha virt. eigenvalues --    6.06094   6.06360   6.08032   6.09032   6.09640
 Alpha virt. eigenvalues --    6.11873   6.13840   6.15398   6.16248   6.19364
 Alpha virt. eigenvalues --    6.21925   6.22970   6.25028   6.25666   6.29624
 Alpha virt. eigenvalues --    6.31081   6.32962   6.34430   6.36764   6.38114
 Alpha virt. eigenvalues --    6.40914   6.41590   6.44263   6.45090   6.45827
 Alpha virt. eigenvalues --    6.48048   6.49429   6.52583   6.52923   6.54706
 Alpha virt. eigenvalues --    6.58368   6.59990   6.60773   6.65326   6.65801
 Alpha virt. eigenvalues --    6.68820   6.71912   6.73337   6.74255   6.75654
 Alpha virt. eigenvalues --    6.77495   6.78870   6.82700   6.84127   6.86293
 Alpha virt. eigenvalues --    6.90853   6.93970   6.95703   6.96585   6.96816
 Alpha virt. eigenvalues --    6.99180   6.99952   7.03017   7.05747   7.07785
 Alpha virt. eigenvalues --    7.09344   7.11684   7.12838   7.13469   7.15882
 Alpha virt. eigenvalues --    7.19519   7.22175   7.22953   7.31558   7.32293
 Alpha virt. eigenvalues --    7.34092   7.34273   7.40331   7.42665   7.47413
 Alpha virt. eigenvalues --    7.49474   7.50839   7.52888   7.53429   7.56872
 Alpha virt. eigenvalues --    7.59277   7.60997   7.61529   7.62888   7.63966
 Alpha virt. eigenvalues --    7.66167   7.68080   7.70320   7.71444   7.74500
 Alpha virt. eigenvalues --    7.76098   7.77916   7.78982   7.79794   7.81419
 Alpha virt. eigenvalues --    7.84517   7.86372   7.88161   7.89830   7.92280
 Alpha virt. eigenvalues --    7.93651   7.95013   7.97049   7.99599   8.01273
 Alpha virt. eigenvalues --    8.03748   8.05187   8.05817   8.06729   8.10597
 Alpha virt. eigenvalues --    8.12298   8.13657   8.15579   8.17383   8.19790
 Alpha virt. eigenvalues --    8.23488   8.24891   8.25432   8.27869   8.29303
 Alpha virt. eigenvalues --    8.30615   8.32893   8.35356   8.35902   8.38384
 Alpha virt. eigenvalues --    8.39302   8.41244   8.41902   8.43349   8.44453
 Alpha virt. eigenvalues --    8.46542   8.46850   8.49917   8.52406   8.52824
 Alpha virt. eigenvalues --    8.54950   8.59072   8.61396   8.65129   8.69213
 Alpha virt. eigenvalues --    8.71976   8.72346   8.75847   8.78211   8.79550
 Alpha virt. eigenvalues --    8.81442   8.84214   8.84820   8.89575   8.91146
 Alpha virt. eigenvalues --    8.92283   8.94714   8.95429   9.00968   9.02276
 Alpha virt. eigenvalues --    9.06169   9.07506   9.09090   9.12405   9.15499
 Alpha virt. eigenvalues --    9.16051   9.17130   9.20715   9.22993   9.26042
 Alpha virt. eigenvalues --    9.30162   9.31178   9.34773   9.40550   9.40958
 Alpha virt. eigenvalues --    9.44042   9.47717   9.50728   9.55626   9.56111
 Alpha virt. eigenvalues --    9.62283   9.65450   9.68605   9.72405   9.77998
 Alpha virt. eigenvalues --    9.81351   9.90024  10.01504  10.10347  10.15348
 Alpha virt. eigenvalues --   10.20211  10.25177  10.25490  10.38396  10.42565
 Alpha virt. eigenvalues --   10.54313  10.79451  10.82552  10.95494  10.99096
 Alpha virt. eigenvalues --   11.08838  11.21314  11.27274  11.47595  11.62687
 Alpha virt. eigenvalues --   11.70745  11.77728  11.87275  12.10642  12.50268
 Alpha virt. eigenvalues --   12.54525  12.83785  15.82592  28.93625  29.06399
 Alpha virt. eigenvalues --   29.30987  29.57118 148.54213 148.70318 148.99032
 Alpha virt. eigenvalues --  149.27392
          Condensed to atoms (all electrons):
               1          2          3          4          5          6
     1  C    4.779799   0.351456   0.401168   0.361639   0.404979  -0.061438
     2  C    0.351456   4.795064  -0.040607  -0.036791  -0.041527   0.372181
     3  H    0.401168  -0.040607   0.646136  -0.035611  -0.030602   0.009572
     4  H    0.361639  -0.036791  -0.035611   0.766561  -0.028887  -0.016751
     5  H    0.404979  -0.041527  -0.030602  -0.028887   0.621813  -0.000790
     6  C   -0.061438   0.372181   0.009572  -0.016751  -0.000790   4.927636
     7  H   -0.042562   0.387611  -0.007892  -0.006604   0.008168  -0.018507
     8  H   -0.042184   0.399827  -0.005073   0.011042  -0.007747  -0.061665
     9  C    0.004120  -0.035507  -0.000628   0.001506  -0.000128   0.333698
    10  H   -0.002859  -0.023855  -0.000137   0.000581   0.001971   0.372944
    11  H   -0.001794  -0.071812  -0.000572   0.006440  -0.000454   0.361256
    12  H    0.000887   0.000419   0.000028  -0.000004  -0.000006  -0.023646
    13  H   -0.000654   0.006501   0.000047  -0.000170   0.000009  -0.007896
    14  H   -0.000354  -0.000843   0.000077  -0.000255  -0.000011  -0.114375
               7          8          9         10         11         12
     1  C   -0.042562  -0.042184   0.004120  -0.002859  -0.001794   0.000887
     2  C    0.387611   0.399827  -0.035507  -0.023855  -0.071812   0.000419
     3  H   -0.007892  -0.005073  -0.000628  -0.000137  -0.000572   0.000028
     4  H   -0.006604   0.011042   0.001506   0.000581   0.006440  -0.000004
     5  H    0.008168  -0.007747  -0.000128   0.001971  -0.000454  -0.000006
     6  C   -0.018507  -0.061665   0.333698   0.372944   0.361256  -0.023646
     7  H    0.711586  -0.045771  -0.002623   0.003616  -0.005411  -0.000203
     8  H   -0.045771   0.644075   0.002505  -0.002559   0.012788   0.003446
     9  C   -0.002623   0.002505   5.687228  -0.039765  -0.032879   0.295554
    10  H    0.003616  -0.002559  -0.039765   0.673038  -0.032901  -0.000080
    11  H   -0.005411   0.012788  -0.032879  -0.032901   0.687585   0.003806
    12  H   -0.000203   0.003446   0.295554  -0.000080   0.003806   0.667099
    13  H    0.000360  -0.000459   0.349157  -0.002337  -0.006240  -0.017086
    14  H    0.003134   0.000092   0.249208   0.011923   0.009454   0.018966
              13         14
     1  C   -0.000654  -0.000354
     2  C    0.006501  -0.000843
     3  H    0.000047   0.000077
     4  H   -0.000170  -0.000255
     5  H    0.000009  -0.000011
     6  C   -0.007896  -0.114375
     7  H    0.000360   0.003134
     8  H   -0.000459   0.000092
     9  C    0.349157   0.249208
    10  H   -0.002337   0.011923
    11  H   -0.006240   0.009454
    12  H   -0.017086   0.018966
    13  H    0.651345  -0.037477
    14  H   -0.037477   0.210740
 Mulliken charges:
               1
     1  C   -0.152203
     2  C   -0.062117
     3  H    0.064094
     4  H   -0.022696
     5  H    0.073212
     6  C   -0.072218
     7  H    0.015096
     8  H    0.091684
     9  C   -0.811447
    10  H    0.040419
    11  H    0.070736
    12  H    0.050819
    13  H    0.064900
    14  H    0.649720
 Sum of Mulliken charges =   0.00000
 Mulliken charges with hydrogens summed into heavy atoms:
               1
     1  C   -0.037593
     2  C    0.044663
     6  C    0.038937
     9  C   -0.046007
 Electronic spatial extent (au):  <R**2>=            458.8956
 Charge=              0.0000 electrons
 Dipole moment (field-independent basis, Debye):
    X=              0.7545    Y=              0.4850    Z=             -0.1104  Tot=              0.9037
 Quadrupole moment (field-independent basis, Debye-Ang):
   XX=            -32.3657   YY=            -29.8200   ZZ=            -28.4461
   XY=              0.3097   XZ=              1.0761   YZ=              0.4962
 Traceless Quadrupole moment (field-independent basis, Debye-Ang):
   XX=             -2.1551   YY=              0.3906   ZZ=              1.7645
   XY=              0.3097   XZ=              1.0761   YZ=              0.4962
 Octapole moment (field-independent basis, Debye-Ang**2):
  XXX=             10.9071  YYY=              1.9131  ZZZ=              0.0125  XYY=              0.4859
  XXY=              3.3406  XXZ=             -0.7666  XZZ=             -2.6179  YZZ=              0.3214
  YYZ=              1.4270  XYZ=             -4.2329
 Hexadecapole moment (field-independent basis, Debye-Ang**3):
 XXXX=           -536.9011 YYYY=           -115.1370 ZZZZ=            -74.4779 XXXY=              3.8780
 XXXZ=              9.2417 YYYX=              5.2045 YYYZ=             -1.2260 ZZZX=              6.5022
 ZZZY=              0.2569 XXYY=           -104.3942 XXZZ=            -89.7372 YYZZ=            -26.8068
 XXYZ=              4.5362 YYXZ=             -2.5068 ZZXY=             -0.9953
 N-N= 1.263609815315D+02 E-N=-6.171066998310D+02  KE= 1.573238988876D+02
 Leave Link  601 at Wed Aug 26 16:38:29 2020, MaxMem=  2097152000 cpu:         1.2
 (Enter /opt/cluster/programs/g09/g09_d.01/g09/l9999.exe)
 1\1\GINC-NODE11\SP\RB2PLYPD3-FC\def2QZVP\C4H10\BOITTIER\26-Aug-2020\0\
 \#p B2PLYPD3/Def2QZVP\\butane_opt\\0,1\C,0,-3.936431,0.212464,0.016065
 \C,0,-2.789177,-0.623193,0.018559\H,0,-4.933922,-0.266005,-0.331478\H,
 0,-3.875594,1.171548,-1.075223\H,0,-4.13018,0.948475,0.929269\C,0,-1.4
 06616,0.276029,0.136769\H,0,-2.823508,-1.554501,-0.907608\H,0,-2.71871
 9,-1.189562,0.772333\C,0,-0.052999,-0.738527,-0.007192\H,0,-1.209087,1
 .141459,1.053912\H,0,-1.544113,0.78522,-0.777208\H,0,0.209379,-1.91152
 7,1.257692\H,0,0.710836,-0.325055,-0.879073\H,0,-0.440462,-0.792202,-0
 .537402\\Version=ES64L-G09RevD.01\State=1-A\HF=-157.4780294\MP2=-157.7
 389268\RMSD=8.757e-09\PG=C01 [X(C4H10)]\\@


  ON THE CHOICE OF THE CORRECT LANGUAGE -
 I SPEAK SPANISH TO GOD, ITALIAN TO WOMEN,
 FRENCH TO MEN, AND GERMAN TO MY HORSE.
          -- CHARLES V
 Job cpu time:       0 days  1 hours 47 minutes 53.7 seconds.
 File lengths (MBytes):  RWF=    152 Int=      0 D2E=      0 Chk=     14 Scr=      1
 Normal termination of Gaussian 09 at Wed Aug 26 16:38:29 2020.
