 Entering Gaussian System, Link 0=/opt/cluster/programs/g09/g09_d.01/g09//g09
 Input=/home/boittier/MDCM/nms_sampling/butane_geom.xyz.dir/energies/butane_opt_2640_energy.com
 Output=/scratch/boittier/butane_opt_2640_energy/butane_opt_2640_energy.out
 Initial command:
 /opt/cluster/programs/g09/g09_d.01/g09/l1.exe "/scratch/boittier/butane_opt_2640_energy/Gau-161929.inp" -scrdir="/scratch/boittier/butane_opt_2640_energy/"
 Entering Link 1 = /opt/cluster/programs/g09/g09_d.01/g09/l1.exe PID=    161930.
  
 Copyright (c) 1988,1990,1992,1993,1995,1998,2003,2009,2013,
            Gaussian, Inc.  All Rights Reserved.
  
 This is part of the Gaussian(R) 09 program.  It is based on
 the Gaussian(R) 03 system (copyright 2003, Gaussian, Inc.),
 the Gaussian(R) 98 system (copyright 1998, Gaussian, Inc.),
 the Gaussian(R) 94 system (copyright 1995, Gaussian, Inc.),
 the Gaussian 92(TM) system (copyright 1992, Gaussian, Inc.),
 the Gaussian 90(TM) system (copyright 1990, Gaussian, Inc.),
 the Gaussian 88(TM) system (copyright 1988, Gaussian, Inc.),
 the Gaussian 86(TM) system (copyright 1986, Carnegie Mellon
 University), and the Gaussian 82(TM) system (copyright 1983,
 Carnegie Mellon University). Gaussian is a federally registered
 trademark of Gaussian, Inc.
  
 This software contains proprietary and confidential information,
 including trade secrets, belonging to Gaussian, Inc.
  
 This software is provided under written license and may be
 used, copied, transmitted, or stored only in accord with that
 written license.
  
 The following legend is applicable only to US Government
 contracts under FAR:
  
                    RESTRICTED RIGHTS LEGEND
  
 Use, reproduction and disclosure by the US Government is
 subject to restrictions as set forth in subparagraphs (a)
 and (c) of the Commercial Computer Software - Restricted
 Rights clause in FAR 52.227-19.
  
 Gaussian, Inc.
 340 Quinnipiac St., Bldg. 40, Wallingford CT 06492
  
  
 ---------------------------------------------------------------
 Warning -- This program may not be used in any manner that
 competes with the business of Gaussian, Inc. or will provide
 assistance to any competitor of Gaussian, Inc.  The licensee
 of this program is prohibited from giving any competitor of
 Gaussian, Inc. access to this program.  By using this program,
 the user acknowledges that Gaussian, Inc. is engaged in the
 business of creating and licensing software in the field of
 computational chemistry and represents and warrants to the
 licensee that it is not a competitor of Gaussian, Inc. and that
 it will not use this program in any manner prohibited above.
 ---------------------------------------------------------------
  

 Cite this work as:
 Gaussian 09, Revision D.01,
 M. J. Frisch, G. W. Trucks, H. B. Schlegel, G. E. Scuseria, 
 M. A. Robb, J. R. Cheeseman, G. Scalmani, V. Barone, B. Mennucci, 
 G. A. Petersson, H. Nakatsuji, M. Caricato, X. Li, H. P. Hratchian, 
 A. F. Izmaylov, J. Bloino, G. Zheng, J. L. Sonnenberg, M. Hada, 
 M. Ehara, K. Toyota, R. Fukuda, J. Hasegawa, M. Ishida, T. Nakajima, 
 Y. Honda, O. Kitao, H. Nakai, T. Vreven, J. A. Montgomery, Jr., 
 J. E. Peralta, F. Ogliaro, M. Bearpark, J. J. Heyd, E. Brothers, 
 K. N. Kudin, V. N. Staroverov, T. Keith, R. Kobayashi, J. Normand, 
 K. Raghavachari, A. Rendell, J. C. Burant, S. S. Iyengar, J. Tomasi, 
 M. Cossi, N. Rega, J. M. Millam, M. Klene, J. E. Knox, J. B. Cross, 
 V. Bakken, C. Adamo, J. Jaramillo, R. Gomperts, R. E. Stratmann, 
 O. Yazyev, A. J. Austin, R. Cammi, C. Pomelli, J. W. Ochterski, 
 R. L. Martin, K. Morokuma, V. G. Zakrzewski, G. A. Voth, 
 P. Salvador, J. J. Dannenberg, S. Dapprich, A. D. Daniels, 
 O. Farkas, J. B. Foresman, J. V. Ortiz, J. Cioslowski, 
 and D. J. Fox, Gaussian, Inc., Wallingford CT, 2013.
 
 ******************************************
 Gaussian 09:  ES64L-G09RevD.01 24-Apr-2013
                26-Aug-2020 
 ******************************************
 %chk=/home/boittier/MDCM/nms_sampling/butane_geom.xyz.dir/butane_opt_2640.chk
 %nproc=8
 Will use up to    8 processors via shared memory.
 %mem=16000MB
 --------------------
 #p B2PLYPD3/Def2QZVP
 --------------------
 1/38=1/1;
 2/12=2,17=6,18=5,40=1/2;
 3/5=45,7=101,11=9,16=1,25=1,30=1,74=-60/1,2,3;
 4//1;
 5/5=2,38=5/2;
 8/10=1/1;
 9/16=-3/6;
 6/7=2,8=2,9=2,10=2/1;
 99/5=1,9=1/99;
 Leave Link    1 at Wed Aug 26 19:20:45 2020, MaxMem=  2097152000 cpu:         2.5
 (Enter /opt/cluster/programs/g09/g09_d.01/g09/l101.exe)
 ----------
 butane_opt
 ----------
 Symbolic Z-matrix:
 Charge =  0 Multiplicity = 1
 C                    -3.89321   0.33646   0.14543 
 C                    -2.63775  -0.70087  -0.05798 
 H                    -4.83924  -0.15764   0.40557 
 H                    -4.03209   0.74523  -0.57184 
 H                    -4.00779   1.06114   1.01766 
 C                    -1.39941   0.11807  -0.25264 
 H                    -3.03764  -1.18494  -0.96264 
 H                    -2.29803  -1.27942   0.777 
 C                    -0.27257  -0.60703   0.17556 
 H                    -1.43062   0.75896   0.64463 
 H                    -1.12868   0.59019  -1.04552 
 H                    -0.69374  -1.1006    1.05367 
 H                     0.64779   0.07326   0.77653 
 H                     0.19529  -1.7522   -0.81132 
 
 NAtoms=     14 NQM=       14 NQMF=       0 NMMI=      0 NMMIF=      0
                NMic=       0 NMicF=      0.
                    Isotopes and Nuclear Properties:
 (Nuclear quadrupole moments (NQMom) in fm**2, nuclear magnetic moments (NMagM)
  in nuclear magnetons)

  Atom         1           2           3           4           5           6           7           8           9          10
 IAtWgt=          12          12           1           1           1          12           1           1          12           1
 AtmWgt=  12.0000000  12.0000000   1.0078250   1.0078250   1.0078250  12.0000000   1.0078250   1.0078250  12.0000000   1.0078250
 NucSpn=           0           0           1           1           1           0           1           1           0           1
 AtZEff=   0.0000000   0.0000000   0.0000000   0.0000000   0.0000000   0.0000000   0.0000000   0.0000000   0.0000000   0.0000000
 NQMom=    0.0000000   0.0000000   0.0000000   0.0000000   0.0000000   0.0000000   0.0000000   0.0000000   0.0000000   0.0000000
 NMagM=    0.0000000   0.0000000   2.7928460   2.7928460   2.7928460   0.0000000   2.7928460   2.7928460   0.0000000   2.7928460
 AtZNuc=   6.0000000   6.0000000   1.0000000   1.0000000   1.0000000   6.0000000   1.0000000   1.0000000   6.0000000   1.0000000

  Atom        11          12          13          14
 IAtWgt=           1           1           1           1
 AtmWgt=   1.0078250   1.0078250   1.0078250   1.0078250
 NucSpn=           1           1           1           1
 AtZEff=   0.0000000   0.0000000   0.0000000   0.0000000
 NQMom=    0.0000000   0.0000000   0.0000000   0.0000000
 NMagM=    2.7928460   2.7928460   2.7928460   2.7928460
 AtZNuc=   1.0000000   1.0000000   1.0000000   1.0000000
 Leave Link  101 at Wed Aug 26 19:20:48 2020, MaxMem=  2097152000 cpu:         0.5
 (Enter /opt/cluster/programs/g09/g09_d.01/g09/l202.exe)
                          Input orientation:                          
 ---------------------------------------------------------------------
 Center     Atomic      Atomic             Coordinates (Angstroms)
 Number     Number       Type             X           Y           Z
 ---------------------------------------------------------------------
      1          6           0       -3.893211    0.336461    0.145434
      2          6           0       -2.637746   -0.700868   -0.057978
      3          1           0       -4.839242   -0.157640    0.405571
      4          1           0       -4.032089    0.745229   -0.571837
      5          1           0       -4.007794    1.061139    1.017657
      6          6           0       -1.399413    0.118066   -0.252642
      7          1           0       -3.037641   -1.184943   -0.962635
      8          1           0       -2.298034   -1.279424    0.777000
      9          6           0       -0.272570   -0.607031    0.175562
     10          1           0       -1.430620    0.758961    0.644631
     11          1           0       -1.128676    0.590192   -1.045524
     12          1           0       -0.693740   -1.100600    1.053672
     13          1           0        0.647788    0.073257    0.776533
     14          1           0        0.195285   -1.752201   -0.811318
 ---------------------------------------------------------------------
                    Distance matrix (angstroms):
                    1          2          3          4          5
     1  C    0.000000
     2  C    1.641225   0.000000
     3  H    1.098536   2.314424   0.000000
     4  H    0.837171   2.073509   1.556276   0.000000
     5  H    1.139763   2.477638   1.597303   1.620765   0.000000
     6  C    2.534796   1.497336   3.513073   2.725106   3.050688
     7  H    2.067483   1.101203   2.484573   2.206176   3.147640
     8  H    2.356809   1.071130   2.802516   2.987562   2.908510
     9  C    3.741674   2.378530   4.594491   4.064627   4.176579
    10  H    2.547952   2.020375   3.537797   2.871868   2.621504
    11  H    3.020830   2.217966   4.053792   2.945882   3.573210
    12  H    3.623073   2.274799   4.300511   4.146557   3.956939
    13  H    4.592193   3.477127   5.504400   4.916391   4.765343
    14  H    4.689742   3.114304   5.419401   4.915811   5.378281
                    6          7          8          9         10
     6  C    0.000000
     7  H    2.210365   0.000000
     8  H    1.954651   1.892690   0.000000
     9  C    1.406734   3.045504   2.217283   0.000000
    10  H    1.103095   2.990750   2.219221   1.851227   0.000000
    11  H    0.961698   2.608088   2.860849   1.912410   1.725189
    12  H    1.920827   3.092973   1.637768   1.091820   2.041635
    13  H    2.291777   4.264992   3.241545   1.292678   2.192571
    14  H    2.520532   3.285801   2.993812   1.582477   3.327054
                   11         12         13         14
    11  H    0.000000
    12  H    2.730306   0.000000
    13  H    2.596717   1.804008   0.000000
    14  H    2.700839   2.166365   2.461367   0.000000
 Stoichiometry    C4H10
 Framework group  C1[X(C4H10)]
 Deg. of freedom    36
 Full point group                 C1      NOp   1
 Largest Abelian subgroup         C1      NOp   1
 Largest concise Abelian subgroup C1      NOp   1
                         Standard orientation:                         
 ---------------------------------------------------------------------
 Center     Atomic      Atomic             Coordinates (Angstroms)
 Number     Number       Type             X           Y           Z
 ---------------------------------------------------------------------
      1          6           0       -1.913579   -0.186555   -0.050589
      2          6           0       -0.473688    0.600029   -0.010315
      3          1           0       -2.744335    0.427688   -0.423859
      4          1           0       -2.123582   -0.417157    0.726313
      5          1           0       -2.180521   -1.024938   -0.775100
      6          6           0        0.577679   -0.397042    0.367168
      7          1           0       -0.758589    1.315309    0.776993
      8          1           0       -0.034231    0.931889   -0.929046
      9          6           0        1.822097   -0.004072   -0.158093
     10          1           0        0.408917   -1.176118   -0.395314
     11          1           0        0.757119   -0.755736    1.241241
     12          1           0        1.498634    0.389096   -1.123941
     13          1           0        2.580949   -0.954333   -0.596459
     14          1           0        2.520585    1.190142    0.610152
 ---------------------------------------------------------------------
 Rotational constants (GHZ):     21.4364593      3.8151378      3.6266000
 Leave Link  202 at Wed Aug 26 19:20:50 2020, MaxMem=  2097152000 cpu:         0.1
 (Enter /opt/cluster/programs/g09/g09_d.01/g09/l301.exe)
 Standard basis: def2QZVP (5D, 7F)
 Ernie: Thresh=  0.10000D-02 Tol=  0.10000D-05 Strict=F.
 There are   638 symmetry adapted cartesian basis functions of A   symmetry.
 There are   528 symmetry adapted basis functions of A   symmetry.
   528 basis functions,   748 primitive gaussians,   638 cartesian basis functions
    17 alpha electrons       17 beta electrons
       nuclear repulsion energy       132.5252338263 Hartrees.
 IExCor=  419 DFT=T Ex+Corr=B2PLYPD3 ExCW=0 ScaHFX=  0.530000
 ScaDFX=  0.470000  0.470000  0.730000  0.730000 ScalE2=  0.270000  0.270000
 IRadAn=      0 IRanWt=     -1 IRanGd=            0 ICorTp=0 IEmpDi=141
 NAtoms=   14 NActive=   14 NUniq=   14 SFac= 1.00D+00 NAtFMM=   60 NAOKFM=F Big=F
 Integral buffers will be    131072 words long.
 Regular integral format.
 Two-electron integral symmetry is turned on.
 R6Disp:  Grimme-D3(BJ) Dispersion energy=       -0.0069770073 Hartrees.
 Nuclear repulsion after empirical dispersion term =      132.5182568190 Hartrees.
 Leave Link  301 at Wed Aug 26 19:20:55 2020, MaxMem=  2097152000 cpu:         0.5
 (Enter /opt/cluster/programs/g09/g09_d.01/g09/l302.exe)
 NPDir=0 NMtPBC=     1 NCelOv=     1 NCel=       1 NClECP=     1 NCelD=      1
         NCelK=      1 NCelE2=     1 NClLst=     1 CellRange=     0.0.
 One-electron integrals computed using PRISM.
   1 Symmetry operations used in ECPInt.
 ECPInt:  NShTT=   14196 NPrTT=   30597 LenC2=   13868 LenP2D=   26004.
 LDataN:  DoStor=T MaxTD1= 8 Len=  415
 NBasis=   528 RedAO= T EigKep=  3.57D-05  NBF=   528
 NBsUse=   528 1.00D-06 EigRej= -1.00D+00 NBFU=   528
 Precomputing XC quadrature grid using
 IXCGrd= 4 IRadAn=           0 IRanWt=          -1 IRanGd=           0 AccXCQ= 0.00D+00.
 Generated NRdTot=       0 NPtTot=           0 NUsed=           0 NTot=          32
 NSgBfM=   638   638   638   638   638 MxSgAt=    14 MxSgA2=    14.
 Leave Link  302 at Wed Aug 26 19:21:06 2020, MaxMem=  2097152000 cpu:         4.5
 (Enter /opt/cluster/programs/g09/g09_d.01/g09/l303.exe)
 DipDrv:  MaxL=1.
 Leave Link  303 at Wed Aug 26 19:21:13 2020, MaxMem=  2097152000 cpu:         0.5
 (Enter /opt/cluster/programs/g09/g09_d.01/g09/l401.exe)
 ExpMin= 7.60D-02 ExpMax= 6.70D+04 ExpMxC= 6.47D+02 IAcc=2 IRadAn=         4 AccDes= 0.00D+00
 Harris functional with IExCor=  419 and IRadAn=       4 diagonalized for initial guess.
 HarFok:  IExCor=  419 AccDes= 0.00D+00 IRadAn=         4 IDoV= 1 UseB2=F ITyADJ=14
 ICtDFT=  3500011 ScaDFX=  1.000000  1.000000  1.000000  1.000000
 FoFCou: FMM=F IPFlag=           0 FMFlag=      100000 FMFlg1=           0
         NFxFlg=           0 DoJE=T BraDBF=F KetDBF=T FulRan=T
         wScrn=  0.000000 ICntrl=     500 IOpCl=  0 I1Cent=   200000004 NGrid=           0
         NMat0=    1 NMatS0=      1 NMatT0=    0 NMatD0=    1 NMtDS0=    0 NMtDT0=    0
 Petite list used in FoFCou.
 Harris En= -158.422637492150    
 JPrj=0 DoOrth=F DoCkMO=F.
 Leave Link  401 at Wed Aug 26 19:21:19 2020, MaxMem=  2097152000 cpu:        15.5
 (Enter /opt/cluster/programs/g09/g09_d.01/g09/l502.exe)
 Closed shell SCF:
 Using DIIS extrapolation, IDIIS=  1040.
 Integral symmetry usage will be decided dynamically.
 IVT=     1249338 IEndB=     1249338 NGot=  2097152000 MDV=  2096326985
 LenX=  2096326985 LenY=  2095919303
 Requested convergence on RMS density matrix=1.00D-08 within 128 cycles.
 Requested convergence on MAX density matrix=1.00D-06.
 Requested convergence on             energy=1.00D-06.
 No special actions if energy rises.
 Fock matrices will be formed incrementally for  20 cycles.
 Integral accuracy reduced to 1.0D-05 until final iterations.

 Cycle   1  Pass 0  IDiag  1:
 FoFJK:  IHMeth= 1 ICntrl=       0 DoSepK=F KAlg= 0 I1Cent=   0 FoldK=F
 IRaf= 940000000 NMat=   1 IRICut=       1 DoRegI=T DoRafI=F ISym2E= 0.
 FoFCou: FMM=F IPFlag=           0 FMFlag=      100000 FMFlg1=           0
         NFxFlg=           0 DoJE=F BraDBF=F KetDBF=F FulRan=T
         wScrn=  0.000000 ICntrl=       0 IOpCl=  0 I1Cent=           0 NGrid=           0
         NMat0=    1 NMatS0=      1 NMatT0=    0 NMatD0=    1 NMtDS0=    0 NMtDT0=    0
 Symmetry not used in FoFCou.
 E= -157.589281705428    
 DIIS: error= 2.63D-02 at cycle   1 NSaved=   1.
 NSaved= 1 IEnMin= 1 EnMin= -157.589281705428     IErMin= 1 ErrMin= 2.63D-02
 ErrMax= 2.63D-02  0.00D+00 EMaxC= 1.00D-01 BMatC= 3.79D-01 BMatP= 3.79D-01
 IDIUse=3 WtCom= 7.37D-01 WtEn= 2.63D-01
 Coeff-Com:  0.100D+01
 Coeff-En:   0.100D+01
 Coeff:      0.100D+01
 Gap=     0.351 Goal=   None    Shift=    0.000
 GapD=    0.351 DampG=1.000 DampE=0.500 DampFc=0.5000 IDamp=-1.
 Damping current iteration by 5.00D-01
 RMSDP=1.14D-03 MaxDP=8.76D-02              OVMax= 2.14D-01

 Cycle   2  Pass 0  IDiag  1:
 RMSU=  5.46D-04    CP:  9.47D-01
 E= -157.742238990094     Delta-E=       -0.152957284666 Rises=F Damp=T
 DIIS: error= 4.96D-03 at cycle   2 NSaved=   2.
 NSaved= 2 IEnMin= 2 EnMin= -157.742238990094     IErMin= 2 ErrMin= 4.96D-03
 ErrMax= 4.96D-03  0.00D+00 EMaxC= 1.00D-01 BMatC= 3.35D-02 BMatP= 3.79D-01
 IDIUse=3 WtCom= 9.50D-01 WtEn= 4.96D-02
 Coeff-Com: -0.142D+00 0.114D+01
 Coeff-En:   0.000D+00 0.100D+01
 Coeff:     -0.135D+00 0.113D+01
 Gap=     0.432 Goal=   None    Shift=    0.000
 RMSDP=3.21D-04 MaxDP=2.35D-02 DE=-1.53D-01 OVMax= 1.43D-01

 Cycle   3  Pass 0  IDiag  1:
 RMSU=  2.95D-04    CP:  9.33D-01  7.79D-01
 E= -157.888601534246     Delta-E=       -0.146362544152 Rises=F Damp=F
 DIIS: error= 3.07D-03 at cycle   3 NSaved=   3.
 NSaved= 3 IEnMin= 3 EnMin= -157.888601534246     IErMin= 3 ErrMin= 3.07D-03
 ErrMax= 3.07D-03  0.00D+00 EMaxC= 1.00D-01 BMatC= 4.63D-03 BMatP= 3.35D-02
 IDIUse=3 WtCom= 9.69D-01 WtEn= 3.07D-02
 Coeff-Com: -0.105D+00 0.254D+00 0.851D+00
 Coeff-En:   0.000D+00 0.000D+00 0.100D+01
 Coeff:     -0.102D+00 0.247D+00 0.855D+00
 Gap=     0.373 Goal=   None    Shift=    0.000
 RMSDP=8.66D-05 MaxDP=9.00D-03 DE=-1.46D-01 OVMax= 2.89D-02

 Cycle   4  Pass 0  IDiag  1:
 RMSU=  7.04D-05    CP:  9.28D-01  8.66D-01  9.96D-01
 E= -157.892987347127     Delta-E=       -0.004385812881 Rises=F Damp=F
 DIIS: error= 1.18D-03 at cycle   4 NSaved=   4.
 NSaved= 4 IEnMin= 4 EnMin= -157.892987347127     IErMin= 4 ErrMin= 1.18D-03
 ErrMax= 1.18D-03  0.00D+00 EMaxC= 1.00D-01 BMatC= 6.55D-04 BMatP= 4.63D-03
 IDIUse=3 WtCom= 9.88D-01 WtEn= 1.18D-02
 Coeff-Com: -0.368D-01 0.585D-01 0.365D+00 0.613D+00
 Coeff-En:   0.000D+00 0.000D+00 0.000D+00 0.100D+01
 Coeff:     -0.363D-01 0.578D-01 0.361D+00 0.617D+00
 Gap=     0.374 Goal=   None    Shift=    0.000
 RMSDP=2.80D-05 MaxDP=2.40D-03 DE=-4.39D-03 OVMax= 6.11D-03

 Cycle   5  Pass 0  IDiag  1:
 RMSU=  2.01D-05    CP:  9.29D-01  8.50D-01  1.03D+00  7.91D-01
 E= -157.893621207597     Delta-E=       -0.000633860470 Rises=F Damp=F
 DIIS: error= 2.36D-04 at cycle   5 NSaved=   5.
 NSaved= 5 IEnMin= 5 EnMin= -157.893621207597     IErMin= 5 ErrMin= 2.36D-04
 ErrMax= 2.36D-04  0.00D+00 EMaxC= 1.00D-01 BMatC= 1.86D-05 BMatP= 6.55D-04
 IDIUse=3 WtCom= 9.98D-01 WtEn= 2.36D-03
 Coeff-Com: -0.352D-02 0.515D-03 0.516D-01 0.181D+00 0.771D+00
 Coeff-En:   0.000D+00 0.000D+00 0.000D+00 0.000D+00 0.100D+01
 Coeff:     -0.351D-02 0.513D-03 0.514D-01 0.180D+00 0.771D+00
 Gap=     0.374 Goal=   None    Shift=    0.000
 RMSDP=6.93D-06 MaxDP=3.70D-04 DE=-6.34D-04 OVMax= 1.17D-03

 Initial convergence to 1.0D-05 achieved.  Increase integral accuracy.
 Cycle   6  Pass 1  IDiag  1:
 E= -157.893663366674     Delta-E=       -0.000042159077 Rises=F Damp=F
 DIIS: error= 4.15D-05 at cycle   1 NSaved=   1.
 NSaved= 1 IEnMin= 1 EnMin= -157.893663366674     IErMin= 1 ErrMin= 4.15D-05
 ErrMax= 4.15D-05  0.00D+00 EMaxC= 1.00D-01 BMatC= 9.77D-07 BMatP= 9.77D-07
 IDIUse=1 WtCom= 1.00D+00 WtEn= 0.00D+00
 Coeff-Com:  0.100D+01
 Coeff:      0.100D+01
 Gap=     0.374 Goal=   None    Shift=    0.000
 RMSDP=6.93D-06 MaxDP=3.70D-04 DE=-4.22D-05 OVMax= 3.39D-04

 Cycle   7  Pass 1  IDiag  1:
 RMSU=  1.95D-05    CP:  1.00D+00
 E= -157.893664085293     Delta-E=       -0.000000718619 Rises=F Damp=F
 DIIS: error= 2.35D-05 at cycle   2 NSaved=   2.
 NSaved= 2 IEnMin= 2 EnMin= -157.893664085293     IErMin= 2 ErrMin= 2.35D-05
 ErrMax= 2.35D-05  0.00D+00 EMaxC= 1.00D-01 BMatC= 2.77D-07 BMatP= 9.77D-07
 IDIUse=1 WtCom= 1.00D+00 WtEn= 0.00D+00
 Coeff-Com:  0.301D+00 0.699D+00
 Coeff:      0.301D+00 0.699D+00
 Gap=     0.374 Goal=   None    Shift=    0.000
 RMSDP=8.98D-07 MaxDP=6.86D-05 DE=-7.19D-07 OVMax= 1.86D-04

 Cycle   8  Pass 1  IDiag  1:
 RMSU=  7.65D-07    CP:  1.00D+00  1.02D+00
 E= -157.893664334290     Delta-E=       -0.000000248997 Rises=F Damp=F
 DIIS: error= 8.90D-06 at cycle   3 NSaved=   3.
 NSaved= 3 IEnMin= 3 EnMin= -157.893664334290     IErMin= 3 ErrMin= 8.90D-06
 ErrMax= 8.90D-06  0.00D+00 EMaxC= 1.00D-01 BMatC= 4.80D-08 BMatP= 2.77D-07
 IDIUse=1 WtCom= 1.00D+00 WtEn= 0.00D+00
 Coeff-Com: -0.300D-01 0.267D+00 0.763D+00
 Coeff:     -0.300D-01 0.267D+00 0.763D+00
 Gap=     0.374 Goal=   None    Shift=    0.000
 RMSDP=3.87D-07 MaxDP=3.08D-05 DE=-2.49D-07 OVMax= 6.22D-05

 Cycle   9  Pass 1  IDiag  1:
 RMSU=  2.83D-07    CP:  1.00D+00  1.04D+00  9.46D-01
 E= -157.893664384790     Delta-E=       -0.000000050500 Rises=F Damp=F
 DIIS: error= 1.97D-06 at cycle   4 NSaved=   4.
 NSaved= 4 IEnMin= 4 EnMin= -157.893664384790     IErMin= 4 ErrMin= 1.97D-06
 ErrMax= 1.97D-06  0.00D+00 EMaxC= 1.00D-01 BMatC= 1.38D-09 BMatP= 4.80D-08
 IDIUse=1 WtCom= 1.00D+00 WtEn= 0.00D+00
 Coeff-Com: -0.225D-01 0.381D-01 0.189D+00 0.795D+00
 Coeff:     -0.225D-01 0.381D-01 0.189D+00 0.795D+00
 Gap=     0.374 Goal=   None    Shift=    0.000
 RMSDP=7.58D-08 MaxDP=4.62D-06 DE=-5.05D-08 OVMax= 2.37D-05

 Cycle  10  Pass 1  IDiag  1:
 RMSU=  6.30D-08    CP:  1.00D+00  1.04D+00  9.87D-01  1.08D+00
 E= -157.893664386640     Delta-E=       -0.000000001849 Rises=F Damp=F
 DIIS: error= 7.36D-07 at cycle   5 NSaved=   5.
 NSaved= 5 IEnMin= 5 EnMin= -157.893664386640     IErMin= 5 ErrMin= 7.36D-07
 ErrMax= 7.36D-07  0.00D+00 EMaxC= 1.00D-01 BMatC= 1.95D-10 BMatP= 1.38D-09
 IDIUse=1 WtCom= 1.00D+00 WtEn= 0.00D+00
 Coeff-Com: -0.294D-02-0.181D-01-0.370D-01 0.227D+00 0.831D+00
 Coeff:     -0.294D-02-0.181D-01-0.370D-01 0.227D+00 0.831D+00
 Gap=     0.374 Goal=   None    Shift=    0.000
 RMSDP=3.31D-08 MaxDP=2.29D-06 DE=-1.85D-09 OVMax= 5.23D-06

 Cycle  11  Pass 1  IDiag  1:
 RMSU=  1.92D-08    CP:  1.00D+00  1.04D+00  9.99D-01  1.17D+00  1.00D+00
 E= -157.893664386887     Delta-E=       -0.000000000247 Rises=F Damp=F
 DIIS: error= 1.85D-07 at cycle   6 NSaved=   6.
 NSaved= 6 IEnMin= 6 EnMin= -157.893664386887     IErMin= 6 ErrMin= 1.85D-07
 ErrMax= 1.85D-07  0.00D+00 EMaxC= 1.00D-01 BMatC= 1.86D-11 BMatP= 1.95D-10
 IDIUse=1 WtCom= 1.00D+00 WtEn= 0.00D+00
 Coeff-Com:  0.747D-03-0.979D-02-0.297D-01 0.220D-01 0.310D+00 0.707D+00
 Coeff:      0.747D-03-0.979D-02-0.297D-01 0.220D-01 0.310D+00 0.707D+00
 Gap=     0.374 Goal=   None    Shift=    0.000
 RMSDP=7.82D-09 MaxDP=5.52D-07 DE=-2.47D-10 OVMax= 1.36D-06

 SCF Done:  E(RB2PLYPD3) =  -157.893664387     A.U. after   11 cycles
            NFock= 11  Conv=0.78D-08     -V/T= 2.0003
 KE= 1.578506347009D+02 PE=-6.306175744242D+02 EE= 1.823550185175D+02
 Leave Link  502 at Wed Aug 26 19:28:43 2020, MaxMem=  2097152000 cpu:      3461.6
 (Enter /opt/cluster/programs/g09/g09_d.01/g09/l801.exe)
 DoSCS=T DFT=T ScalE2(SS,OS)=  0.270000  0.270000
 ExpMin= 7.60D-02 ExpMax= 6.70D+04 ExpMxC= 6.47D+02 IAcc=3 IRadAn=         5 AccDes= 0.00D+00
 HarFok:  IExCor=  205 AccDes= 0.00D+00 IRadAn=         5 IDoV=-2 UseB2=F ITyADJ=14
 ICtDFT= 12500011 ScaDFX=  1.000000  1.000000  1.000000  1.000000
 Largest valence mixing into a core orbital is  1.20D-04
 Largest core mixing into a valence orbital is  1.65D-05
 Range of M.O.s used for correlation:     5   528
 NBasis=   528 NAE=    17 NBE=    17 NFC=     4 NFV=     0
 NROrb=    524 NOA=    13 NOB=    13 NVA=   511 NVB=   511

 **** Warning!!: The largest alpha MO coefficient is  0.24966945D+02

 Leave Link  801 at Wed Aug 26 19:28:50 2020, MaxMem=  2097152000 cpu:         1.0
 (Enter /opt/cluster/programs/g09/g09_d.01/g09/l906.exe)
 DoSCS=T DFT=T ScalE2(SS,OS)=  0.270000  0.270000
 FulOut=F Deriv=F AODrv=F NAtomX=    14
   MMem=         463  MDisk=          13 MDiskD=          13
  W3Min=     4238234 MinDsk=     6904766 NBas6D=         638
 NBas2D=      205689    NTT=      203841    LW2=     4508827
    MDV=  2095895202 MDiskM=        7293 NBas2p=      191003
 Fully direct method using O(OVN) memory.
 IMap=   1   2   3   4   5   6   7   8   9  10  11  12  13
 JobTyp=1 Pass  1:  I=   1 to  13 NPSUse=  8 ParTrn=T ParDer=T DoDerP=F.
 Spin components of T(2) and E(2):
     alpha-alpha T2 =       0.4225921527D-01 E2=     -0.2690951623D-01
     alpha-beta  T2 =       0.2854075162D+00 E2=     -0.1983886475D+00
     beta-beta   T2 =       0.4225921527D-01 E2=     -0.2690951623D-01
 The integrals were generated   1 times.
 E2(B2PLYPD3) =    -0.2522076799D+00 E(B2PLYPD3) =    -0.15814587206683D+03
 Leave Link  906 at Wed Aug 26 19:32:39 2020, MaxMem=  2097152000 cpu:      1812.1
 (Enter /opt/cluster/programs/g09/g09_d.01/g09/l601.exe)
 Copying SCF densities to generalized density rwf, IOpCl= 0 IROHF=0.

 **********************************************************************

            Population analysis using the SCF density.

 **********************************************************************

 Orbital symmetries:
       Occupied  (A) (A) (A) (A) (A) (A) (A) (A) (A) (A) (A) (A)
                 (A) (A) (A) (A) (A)
       Virtual   (A) (A) (A) (A) (A) (A) (A) (A) (A) (A) (A) (A)
                 (A) (A) (A) (A) (A) (A) (A) (A) (A) (A) (A) (A)
                 (A) (A) (A) (A) (A) (A) (A) (A) (A) (A) (A) (A)
                 (A) (A) (A) (A) (A) (A) (A) (A) (A) (A) (A) (A)
                 (A) (A) (A) (A) (A) (A) (A) (A) (A) (A) (A) (A)
                 (A) (A) (A) (A) (A) (A) (A) (A) (A) (A) (A) (A)
                 (A) (A) (A) (A) (A) (A) (A) (A) (A) (A) (A) (A)
                 (A) (A) (A) (A) (A) (A) (A) (A) (A) (A) (A) (A)
                 (A) (A) (A) (A) (A) (A) (A) (A) (A) (A) (A) (A)
                 (A) (A) (A) (A) (A) (A) (A) (A) (A) (A) (A) (A)
                 (A) (A) (A) (A) (A) (A) (A) (A) (A) (A) (A) (A)
                 (A) (A) (A) (A) (A) (A) (A) (A) (A) (A) (A) (A)
                 (A) (A) (A) (A) (A) (A) (A) (A) (A) (A) (A) (A)
                 (A) (A) (A) (A) (A) (A) (A) (A) (A) (A) (A) (A)
                 (A) (A) (A) (A) (A) (A) (A) (A) (A) (A) (A) (A)
                 (A) (A) (A) (A) (A) (A) (A) (A) (A) (A) (A) (A)
                 (A) (A) (A) (A) (A) (A) (A) (A) (A) (A) (A) (A)
                 (A) (A) (A) (A) (A) (A) (A) (A) (A) (A) (A) (A)
                 (A) (A) (A) (A) (A) (A) (A) (A) (A) (A) (A) (A)
                 (A) (A) (A) (A) (A) (A) (A) (A) (A) (A) (A) (A)
                 (A) (A) (A) (A) (A) (A) (A) (A) (A) (A) (A) (A)
                 (A) (A) (A) (A) (A) (A) (A) (A) (A) (A) (A) (A)
                 (A) (A) (A) (A) (A) (A) (A) (A) (A) (A) (A) (A)
                 (A) (A) (A) (A) (A) (A) (A) (A) (A) (A) (A) (A)
                 (A) (A) (A) (A) (A) (A) (A) (A) (A) (A) (A) (A)
                 (A) (A) (A) (A) (A) (A) (A) (A) (A) (A) (A) (A)
                 (A) (A) (A) (A) (A) (A) (A) (A) (A) (A) (A) (A)
                 (A) (A) (A) (A) (A) (A) (A) (A) (A) (A) (A) (A)
                 (A) (A) (A) (A) (A) (A) (A) (A) (A) (A) (A) (A)
                 (A) (A) (A) (A) (A) (A) (A) (A) (A) (A) (A) (A)
                 (A) (A) (A) (A) (A) (A) (A) (A) (A) (A) (A) (A)
                 (A) (A) (A) (A) (A) (A) (A) (A) (A) (A) (A) (A)
                 (A) (A) (A) (A) (A) (A) (A) (A) (A) (A) (A) (A)
                 (A) (A) (A) (A) (A) (A) (A) (A) (A) (A) (A) (A)
                 (A) (A) (A) (A) (A) (A) (A) (A) (A) (A) (A) (A)
                 (A) (A) (A) (A) (A) (A) (A) (A) (A) (A) (A) (A)
                 (A) (A) (A) (A) (A) (A) (A) (A) (A) (A) (A) (A)
                 (A) (A) (A) (A) (A) (A) (A) (A) (A) (A) (A) (A)
                 (A) (A) (A) (A) (A) (A) (A) (A) (A) (A) (A) (A)
                 (A) (A) (A) (A) (A) (A) (A) (A) (A) (A) (A) (A)
                 (A) (A) (A) (A) (A) (A) (A) (A) (A) (A) (A) (A)
                 (A) (A) (A) (A) (A) (A) (A) (A) (A) (A) (A) (A)
                 (A) (A) (A) (A) (A) (A) (A)
 The electronic state is 1-A.
 Alpha  occ. eigenvalues --  -10.65130 -10.62082 -10.59000 -10.58299  -0.95034
 Alpha  occ. eigenvalues --   -0.84904  -0.73644  -0.67569  -0.56823  -0.51990
 Alpha  occ. eigenvalues --   -0.50081  -0.45250  -0.43500  -0.40799  -0.39316
 Alpha  occ. eigenvalues --   -0.37216  -0.33430
 Alpha virt. eigenvalues --    0.03971   0.06106   0.07597   0.08520   0.09457
 Alpha virt. eigenvalues --    0.10759   0.11917   0.12781   0.14189   0.15152
 Alpha virt. eigenvalues --    0.16155   0.17248   0.18918   0.19169   0.21148
 Alpha virt. eigenvalues --    0.22332   0.22844   0.23536   0.26848   0.27507
 Alpha virt. eigenvalues --    0.29528   0.30348   0.31777   0.33115   0.34834
 Alpha virt. eigenvalues --    0.35581   0.35911   0.37613   0.38167   0.38706
 Alpha virt. eigenvalues --    0.39692   0.42858   0.44958   0.46137   0.47623
 Alpha virt. eigenvalues --    0.48566   0.51986   0.52549   0.54653   0.56056
 Alpha virt. eigenvalues --    0.59199   0.62983   0.63429   0.65319   0.66342
 Alpha virt. eigenvalues --    0.67041   0.67442   0.69058   0.71321   0.72211
 Alpha virt. eigenvalues --    0.74252   0.74655   0.76045   0.77496   0.78517
 Alpha virt. eigenvalues --    0.80800   0.81090   0.85158   0.85703   0.87067
 Alpha virt. eigenvalues --    0.88125   0.89534   0.89667   0.90046   0.91921
 Alpha virt. eigenvalues --    0.93085   0.93643   0.94836   0.95891   0.97314
 Alpha virt. eigenvalues --    0.98398   0.98895   1.00815   1.01580   1.02785
 Alpha virt. eigenvalues --    1.05622   1.06431   1.08319   1.08775   1.11595
 Alpha virt. eigenvalues --    1.14139   1.14491   1.16046   1.18750   1.20062
 Alpha virt. eigenvalues --    1.20491   1.21762   1.24607   1.26036   1.27264
 Alpha virt. eigenvalues --    1.29480   1.30980   1.34246   1.35230   1.35860
 Alpha virt. eigenvalues --    1.37932   1.41480   1.41894   1.44264   1.46006
 Alpha virt. eigenvalues --    1.50496   1.51335   1.53669   1.54963   1.57408
 Alpha virt. eigenvalues --    1.61631   1.64237   1.66294   1.71376   1.75780
 Alpha virt. eigenvalues --    1.76357   1.82163   1.83942   1.86963   1.88719
 Alpha virt. eigenvalues --    1.90502   1.92744   1.93549   1.95263   1.95843
 Alpha virt. eigenvalues --    1.98341   2.00100   2.01178   2.01803   2.02963
 Alpha virt. eigenvalues --    2.05089   2.05747   2.08349   2.09802   2.10421
 Alpha virt. eigenvalues --    2.11310   2.12173   2.12560   2.15138   2.16567
 Alpha virt. eigenvalues --    2.17483   2.17955   2.20200   2.21470   2.22659
 Alpha virt. eigenvalues --    2.25993   2.26657   2.27221   2.29286   2.30697
 Alpha virt. eigenvalues --    2.33953   2.34815   2.36447   2.37363   2.39999
 Alpha virt. eigenvalues --    2.41064   2.42424   2.44152   2.45908   2.46946
 Alpha virt. eigenvalues --    2.48717   2.51775   2.52302   2.52586   2.53561
 Alpha virt. eigenvalues --    2.56331   2.57269   2.58409   2.60392   2.60998
 Alpha virt. eigenvalues --    2.63673   2.64366   2.65877   2.67262   2.69029
 Alpha virt. eigenvalues --    2.70223   2.70589   2.72920   2.74680   2.75072
 Alpha virt. eigenvalues --    2.78357   2.81108   2.82157   2.84868   2.86388
 Alpha virt. eigenvalues --    2.88493   2.91119   2.92046   2.93088   2.96660
 Alpha virt. eigenvalues --    2.98339   2.99404   3.00993   3.03015   3.05748
 Alpha virt. eigenvalues --    3.07083   3.09776   3.10276   3.12310   3.13545
 Alpha virt. eigenvalues --    3.14670   3.17062   3.17124   3.19786   3.20865
 Alpha virt. eigenvalues --    3.23716   3.26494   3.28643   3.29693   3.31914
 Alpha virt. eigenvalues --    3.33412   3.36448   3.38177   3.39305   3.39955
 Alpha virt. eigenvalues --    3.41297   3.43923   3.47356   3.48108   3.50163
 Alpha virt. eigenvalues --    3.53632   3.54092   3.55506   3.58354   3.61849
 Alpha virt. eigenvalues --    3.64831   3.66800   3.70996   3.71589   3.73115
 Alpha virt. eigenvalues --    3.74816   3.76085   3.79890   3.81480   3.85206
 Alpha virt. eigenvalues --    3.90912   3.92358   3.93919   3.96635   4.02449
 Alpha virt. eigenvalues --    4.05759   4.09523   4.12944   4.14238   4.18263
 Alpha virt. eigenvalues --    4.19711   4.21919   4.24919   4.29316   4.32866
 Alpha virt. eigenvalues --    4.34681   4.34921   4.42786   4.45441   4.51262
 Alpha virt. eigenvalues --    4.63406   4.66390   4.72323   4.92649   5.03392
 Alpha virt. eigenvalues --    5.08512   5.13510   5.18410   5.24782   5.29547
 Alpha virt. eigenvalues --    5.31044   5.32798   5.39799   5.46642   5.51531
 Alpha virt. eigenvalues --    5.54310   5.57423   5.62853   5.64228   5.65053
 Alpha virt. eigenvalues --    5.67744   5.71573   5.73828   5.77674   5.79228
 Alpha virt. eigenvalues --    5.81423   5.83566   5.85921   5.86242   5.88526
 Alpha virt. eigenvalues --    5.89534   5.89960   5.91902   5.93195   5.95554
 Alpha virt. eigenvalues --    5.96062   5.97554   5.98575   5.99098   6.02300
 Alpha virt. eigenvalues --    6.03811   6.05857   6.07650   6.09652   6.11346
 Alpha virt. eigenvalues --    6.12443   6.14134   6.14636   6.17676   6.18357
 Alpha virt. eigenvalues --    6.19818   6.23041   6.23975   6.26032   6.26944
 Alpha virt. eigenvalues --    6.29444   6.31015   6.32979   6.34284   6.37206
 Alpha virt. eigenvalues --    6.38349   6.38967   6.41356   6.42947   6.45767
 Alpha virt. eigenvalues --    6.46859   6.48169   6.49928   6.52307   6.53072
 Alpha virt. eigenvalues --    6.56373   6.58459   6.60866   6.62296   6.65203
 Alpha virt. eigenvalues --    6.65796   6.67344   6.68133   6.69630   6.70440
 Alpha virt. eigenvalues --    6.73388   6.76637   6.80514   6.82041   6.84487
 Alpha virt. eigenvalues --    6.85503   6.87324   6.88530   6.91637   6.93823
 Alpha virt. eigenvalues --    6.95704   6.98956   7.00083   7.00839   7.04859
 Alpha virt. eigenvalues --    7.05030   7.06076   7.08524   7.08916   7.13096
 Alpha virt. eigenvalues --    7.16362   7.17427   7.18926   7.20885   7.25013
 Alpha virt. eigenvalues --    7.28075   7.28740   7.30232   7.35865   7.39068
 Alpha virt. eigenvalues --    7.43980   7.47051   7.50386   7.52375   7.54550
 Alpha virt. eigenvalues --    7.55395   7.57092   7.57732   7.60848   7.61606
 Alpha virt. eigenvalues --    7.63839   7.65536   7.68792   7.70265   7.72638
 Alpha virt. eigenvalues --    7.73121   7.74648   7.76528   7.81855   7.86173
 Alpha virt. eigenvalues --    7.86636   7.88611   7.88820   7.90114   7.92214
 Alpha virt. eigenvalues --    7.93580   7.95699   7.96100   7.97850   7.99766
 Alpha virt. eigenvalues --    8.00591   8.02893   8.05003   8.05955   8.06891
 Alpha virt. eigenvalues --    8.09738   8.12559   8.14101   8.15269   8.19187
 Alpha virt. eigenvalues --    8.21828   8.22679   8.25717   8.28559   8.28835
 Alpha virt. eigenvalues --    8.29584   8.32693   8.34979   8.36962   8.37232
 Alpha virt. eigenvalues --    8.39693   8.40935   8.42366   8.43722   8.45903
 Alpha virt. eigenvalues --    8.47450   8.49915   8.52352   8.52956   8.55654
 Alpha virt. eigenvalues --    8.58533   8.59349   8.64147   8.66048   8.67480
 Alpha virt. eigenvalues --    8.70017   8.70322   8.72453   8.74628   8.77320
 Alpha virt. eigenvalues --    8.79783   8.81471   8.83418   8.83522   8.85280
 Alpha virt. eigenvalues --    8.88996   8.90712   8.94389   8.96262   8.98432
 Alpha virt. eigenvalues --    9.00559   9.01779   9.03502   9.08964   9.12855
 Alpha virt. eigenvalues --    9.13679   9.16851   9.20356   9.22801   9.26312
 Alpha virt. eigenvalues --    9.26702   9.30549   9.33310   9.33736   9.38280
 Alpha virt. eigenvalues --    9.39203   9.42883   9.46498   9.47399   9.49704
 Alpha virt. eigenvalues --    9.53647   9.55499   9.60340   9.61803   9.63517
 Alpha virt. eigenvalues --    9.71866   9.77760   9.82806   9.91876   9.96294
 Alpha virt. eigenvalues --   10.02242  10.06264  10.10199  10.13023  10.21161
 Alpha virt. eigenvalues --   10.24308  10.26176  10.27879  10.30703  10.36861
 Alpha virt. eigenvalues --   10.40448  10.44397  10.50085  10.55055  10.59755
 Alpha virt. eigenvalues --   10.61074  10.69107  10.82252  10.84092  11.05152
 Alpha virt. eigenvalues --   11.27977  11.33922  11.49790  11.57866  11.79234
 Alpha virt. eigenvalues --   11.95677  12.31839  12.48349  12.55303  12.62506
 Alpha virt. eigenvalues --   13.08868  13.22212  13.37080  29.02526  29.40449
 Alpha virt. eigenvalues --   29.68737  29.74408 148.64837 149.05666 149.39126
 Alpha virt. eigenvalues --  149.47285
          Condensed to atoms (all electrons):
               1          2          3          4          5          6
     1  C    4.776938   0.379649   0.397231   0.445872   0.388788  -0.051001
     2  C    0.379649   4.788496  -0.040150  -0.022542  -0.022576   0.368215
     3  H    0.397231  -0.040150   0.704436  -0.040025  -0.047479   0.008428
     4  H    0.445872  -0.022542  -0.040025   0.492480  -0.033256  -0.005522
     5  H    0.388788  -0.022576  -0.047479  -0.033256   0.692402  -0.006241
     6  C   -0.051001   0.368215   0.008428  -0.005522  -0.006241   4.814501
     7  H   -0.054506   0.400448  -0.003544  -0.005486   0.007159  -0.042727
     8  H   -0.031677   0.409120  -0.003337   0.005500  -0.000560  -0.060023
     9  C    0.010285  -0.066706  -0.000769  -0.000380   0.000510   0.339980
    10  H   -0.021469  -0.065374   0.001342   0.000060   0.002470   0.404314
    11  H   -0.001055  -0.039080  -0.000380   0.000992   0.000355   0.420190
    12  H    0.001744  -0.042724  -0.000140  -0.000220   0.000221  -0.054321
    13  H   -0.001198   0.012137   0.000049   0.000014  -0.000080  -0.037225
    14  H   -0.000158   0.003346   0.000066   0.000030  -0.000010  -0.037602
               7          8          9         10         11         12
     1  C   -0.054506  -0.031677   0.010285  -0.021469  -0.001055   0.001744
     2  C    0.400448   0.409120  -0.066706  -0.065374  -0.039080  -0.042724
     3  H   -0.003544  -0.003337  -0.000769   0.001342  -0.000380  -0.000140
     4  H   -0.005486   0.005500  -0.000380   0.000060   0.000992  -0.000220
     5  H    0.007159  -0.000560   0.000510   0.002470   0.000355   0.000221
     6  C   -0.042727  -0.060023   0.339980   0.404314   0.420190  -0.054321
     7  H    0.677632  -0.031720   0.001540   0.013947  -0.006141   0.000898
     8  H   -0.031720   0.653562  -0.027990  -0.001740   0.009062   0.000067
     9  C    0.001540  -0.027990   4.889779  -0.088672  -0.057697   0.395015
    10  H    0.013947  -0.001740  -0.088672   0.762975  -0.053533  -0.014672
    11  H   -0.006141   0.009062  -0.057697  -0.053533   0.667956   0.017635
    12  H    0.000898   0.000067   0.395015  -0.014672   0.017635   0.718006
    13  H   -0.000748   0.001494   0.406373  -0.019414  -0.003677  -0.048263
    14  H    0.004060   0.001076   0.344646   0.015435  -0.010573  -0.020858
              13         14
     1  C   -0.001198  -0.000158
     2  C    0.012137   0.003346
     3  H    0.000049   0.000066
     4  H    0.000014   0.000030
     5  H   -0.000080  -0.000010
     6  C   -0.037225  -0.037602
     7  H   -0.000748   0.004060
     8  H    0.001494   0.001076
     9  C    0.406373   0.344646
    10  H   -0.019414   0.015435
    11  H   -0.003677  -0.010573
    12  H   -0.048263  -0.020858
    13  H    0.668576  -0.021375
    14  H   -0.021375   0.745975
 Mulliken charges:
               1
     1  C   -0.239441
     2  C   -0.062259
     3  H    0.024272
     4  H    0.162483
     5  H    0.018299
     6  C   -0.060966
     7  H    0.039188
     8  H    0.077166
     9  C   -0.145913
    10  H    0.064331
    11  H    0.055946
    12  H    0.047614
    13  H    0.043338
    14  H   -0.024057
 Sum of Mulliken charges =   0.00000
 Mulliken charges with hydrogens summed into heavy atoms:
               1
     1  C   -0.034387
     2  C    0.054094
     6  C    0.059311
     9  C   -0.079018
 Electronic spatial extent (au):  <R**2>=            415.8797
 Charge=              0.0000 electrons
 Dipole moment (field-independent basis, Debye):
    X=             -0.8133    Y=             -0.5094    Z=             -0.1554  Tot=              0.9721
 Quadrupole moment (field-independent basis, Debye-Ang):
   XX=            -31.8907   YY=            -29.7647   ZZ=            -27.9422
   XY=             -1.1981   XZ=             -0.8321   YZ=              0.4471
 Traceless Quadrupole moment (field-independent basis, Debye-Ang):
   XX=             -2.0249   YY=              0.1012   ZZ=              1.9237
   XY=             -1.1981   XZ=             -0.8321   YZ=              0.4471
 Octapole moment (field-independent basis, Debye-Ang**2):
  XXX=            -16.5506  YYY=             -2.2799  ZZZ=              0.8330  XYY=             -1.3613
  XXY=             -4.1052  XXZ=             -1.2628  XZZ=             -1.9711  YZZ=             -0.8532
  YYZ=              0.0961  XYZ=              0.2804
 Hexadecapole moment (field-independent basis, Debye-Ang**3):
 XXXX=           -478.3714 YYYY=            -98.4503 ZZZZ=            -64.3778 XXXY=             -8.1813
 XXXZ=             -3.3641 YYYX=             -4.7854 YYYZ=              0.6287 ZZZX=             -2.8846
 ZZZY=             -2.1307 XXYY=            -90.4473 XXZZ=            -85.1177 YYZZ=            -25.2377
 XXYZ=              2.9095 YYXZ=             -0.7515 ZZXY=             -1.5196
 N-N= 1.325182568190D+02 E-N=-6.306175305936D+02  KE= 1.578506347009D+02
 Leave Link  601 at Wed Aug 26 19:32:41 2020, MaxMem=  2097152000 cpu:         1.3
 (Enter /opt/cluster/programs/g09/g09_d.01/g09/l9999.exe)
 1\1\GINC-NODE30\SP\RB2PLYPD3-FC\def2QZVP\C4H10\BOITTIER\26-Aug-2020\0\
 \#p B2PLYPD3/Def2QZVP\\butane_opt\\0,1\C,0,-3.893211,0.336461,0.145434
 \C,0,-2.637746,-0.700868,-0.057978\H,0,-4.839242,-0.15764,0.405571\H,0
 ,-4.032089,0.745229,-0.571837\H,0,-4.007794,1.061139,1.017657\C,0,-1.3
 99413,0.118066,-0.252642\H,0,-3.037641,-1.184943,-0.962635\H,0,-2.2980
 34,-1.279424,0.777\C,0,-0.27257,-0.607031,0.175562\H,0,-1.43062,0.7589
 61,0.644631\H,0,-1.128676,0.590192,-1.045524\H,0,-0.69374,-1.1006,1.05
 3672\H,0,0.647788,0.073257,0.776533\H,0,0.195285,-1.752201,-0.811318\\
 Version=ES64L-G09RevD.01\State=1-A\HF=-157.8936644\MP2=-158.1458721\RM
 SD=7.821e-09\PG=C01 [X(C4H10)]\\@


 POCKETA-POCKETA
 BARON VON RICHTOFEN
 SLAUGHTERED THE ALLIES WITH
 HARDLY A CARE.
 KILLED EIGHTY-ONE WITH HIS
 BLOOD-COLORED TRIPLANE, THEN
 UN-AEROBATICALLY
 PLUNGED FROM THE AIR.
   -- TONY HOFFMAN
 Job cpu time:       0 days  1 hours 28 minutes 22.6 seconds.
 File lengths (MBytes):  RWF=    152 Int=      0 D2E=      0 Chk=     14 Scr=      1
 Normal termination of Gaussian 09 at Wed Aug 26 19:32:50 2020.
