 Entering Gaussian System, Link 0=/opt/cluster/programs/g09/g09_d.01/g09//g09
 Input=/home/boittier/MDCM/nms_sampling/butane_geom.xyz.dir/energies/butane_opt_665_energy.com
 Output=/scratch/boittier/butane_opt_665_energy/butane_opt_665_energy.out
 Initial command:
 /opt/cluster/programs/g09/g09_d.01/g09/l1.exe "/scratch/boittier/butane_opt_665_energy/Gau-209960.inp" -scrdir="/scratch/boittier/butane_opt_665_energy/"
 Entering Link 1 = /opt/cluster/programs/g09/g09_d.01/g09/l1.exe PID=    209961.
  
 Copyright (c) 1988,1990,1992,1993,1995,1998,2003,2009,2013,
            Gaussian, Inc.  All Rights Reserved.
  
 This is part of the Gaussian(R) 09 program.  It is based on
 the Gaussian(R) 03 system (copyright 2003, Gaussian, Inc.),
 the Gaussian(R) 98 system (copyright 1998, Gaussian, Inc.),
 the Gaussian(R) 94 system (copyright 1995, Gaussian, Inc.),
 the Gaussian 92(TM) system (copyright 1992, Gaussian, Inc.),
 the Gaussian 90(TM) system (copyright 1990, Gaussian, Inc.),
 the Gaussian 88(TM) system (copyright 1988, Gaussian, Inc.),
 the Gaussian 86(TM) system (copyright 1986, Carnegie Mellon
 University), and the Gaussian 82(TM) system (copyright 1983,
 Carnegie Mellon University). Gaussian is a federally registered
 trademark of Gaussian, Inc.
  
 This software contains proprietary and confidential information,
 including trade secrets, belonging to Gaussian, Inc.
  
 This software is provided under written license and may be
 used, copied, transmitted, or stored only in accord with that
 written license.
  
 The following legend is applicable only to US Government
 contracts under FAR:
  
                    RESTRICTED RIGHTS LEGEND
  
 Use, reproduction and disclosure by the US Government is
 subject to restrictions as set forth in subparagraphs (a)
 and (c) of the Commercial Computer Software - Restricted
 Rights clause in FAR 52.227-19.
  
 Gaussian, Inc.
 340 Quinnipiac St., Bldg. 40, Wallingford CT 06492
  
  
 ---------------------------------------------------------------
 Warning -- This program may not be used in any manner that
 competes with the business of Gaussian, Inc. or will provide
 assistance to any competitor of Gaussian, Inc.  The licensee
 of this program is prohibited from giving any competitor of
 Gaussian, Inc. access to this program.  By using this program,
 the user acknowledges that Gaussian, Inc. is engaged in the
 business of creating and licensing software in the field of
 computational chemistry and represents and warrants to the
 licensee that it is not a competitor of Gaussian, Inc. and that
 it will not use this program in any manner prohibited above.
 ---------------------------------------------------------------
  

 Cite this work as:
 Gaussian 09, Revision D.01,
 M. J. Frisch, G. W. Trucks, H. B. Schlegel, G. E. Scuseria, 
 M. A. Robb, J. R. Cheeseman, G. Scalmani, V. Barone, B. Mennucci, 
 G. A. Petersson, H. Nakatsuji, M. Caricato, X. Li, H. P. Hratchian, 
 A. F. Izmaylov, J. Bloino, G. Zheng, J. L. Sonnenberg, M. Hada, 
 M. Ehara, K. Toyota, R. Fukuda, J. Hasegawa, M. Ishida, T. Nakajima, 
 Y. Honda, O. Kitao, H. Nakai, T. Vreven, J. A. Montgomery, Jr., 
 J. E. Peralta, F. Ogliaro, M. Bearpark, J. J. Heyd, E. Brothers, 
 K. N. Kudin, V. N. Staroverov, T. Keith, R. Kobayashi, J. Normand, 
 K. Raghavachari, A. Rendell, J. C. Burant, S. S. Iyengar, J. Tomasi, 
 M. Cossi, N. Rega, J. M. Millam, M. Klene, J. E. Knox, J. B. Cross, 
 V. Bakken, C. Adamo, J. Jaramillo, R. Gomperts, R. E. Stratmann, 
 O. Yazyev, A. J. Austin, R. Cammi, C. Pomelli, J. W. Ochterski, 
 R. L. Martin, K. Morokuma, V. G. Zakrzewski, G. A. Voth, 
 P. Salvador, J. J. Dannenberg, S. Dapprich, A. D. Daniels, 
 O. Farkas, J. B. Foresman, J. V. Ortiz, J. Cioslowski, 
 and D. J. Fox, Gaussian, Inc., Wallingford CT, 2013.
 
 ******************************************
 Gaussian 09:  ES64L-G09RevD.01 24-Apr-2013
                26-Aug-2020 
 ******************************************
 %chk=/home/boittier/MDCM/nms_sampling/butane_geom.xyz.dir/butane_opt_665.chk
 %nproc=8
 Will use up to    8 processors via shared memory.
 %mem=16000MB
 --------------------
 #p B2PLYPD3/Def2QZVP
 --------------------
 1/38=1/1;
 2/12=2,17=6,18=5,40=1/2;
 3/5=45,7=101,11=9,16=1,25=1,30=1,74=-60/1,2,3;
 4//1;
 5/5=2,38=5/2;
 8/10=1/1;
 9/16=-3/6;
 6/7=2,8=2,9=2,10=2/1;
 99/5=1,9=1/99;
 Leave Link    1 at Wed Aug 26 22:33:16 2020, MaxMem=  2097152000 cpu:         0.3
 (Enter /opt/cluster/programs/g09/g09_d.01/g09/l101.exe)
 ----------
 butane_opt
 ----------
 Symbolic Z-matrix:
 Charge =  0 Multiplicity = 1
 C                    -3.95155   0.24543   0.09169 
 C                    -2.76592  -0.57204   0.02371 
 H                    -4.85504  -0.24476  -0.44341 
 H                    -3.79392   0.56899  -0.63396 
 H                    -4.14227   1.17684   1.09561 
 C                    -1.3891    0.19361  -0.06886 
 H                    -2.89289  -1.44887  -0.90422 
 H                    -2.62277  -1.09801   0.82194 
 C                    -0.11814  -0.72199   0.07847 
 H                    -1.53954   0.67321   0.64389 
 H                    -1.27761   0.85964  -0.99731 
 H                    -0.05042  -1.43024   1.08446 
 H                     0.83753  -0.11099  -0.11999 
 H                    -0.00294  -1.14128  -0.59251 
 
 NAtoms=     14 NQM=       14 NQMF=       0 NMMI=      0 NMMIF=      0
                NMic=       0 NMicF=      0.
                    Isotopes and Nuclear Properties:
 (Nuclear quadrupole moments (NQMom) in fm**2, nuclear magnetic moments (NMagM)
  in nuclear magnetons)

  Atom         1           2           3           4           5           6           7           8           9          10
 IAtWgt=          12          12           1           1           1          12           1           1          12           1
 AtmWgt=  12.0000000  12.0000000   1.0078250   1.0078250   1.0078250  12.0000000   1.0078250   1.0078250  12.0000000   1.0078250
 NucSpn=           0           0           1           1           1           0           1           1           0           1
 AtZEff=   0.0000000   0.0000000   0.0000000   0.0000000   0.0000000   0.0000000   0.0000000   0.0000000   0.0000000   0.0000000
 NQMom=    0.0000000   0.0000000   0.0000000   0.0000000   0.0000000   0.0000000   0.0000000   0.0000000   0.0000000   0.0000000
 NMagM=    0.0000000   0.0000000   2.7928460   2.7928460   2.7928460   0.0000000   2.7928460   2.7928460   0.0000000   2.7928460
 AtZNuc=   6.0000000   6.0000000   1.0000000   1.0000000   1.0000000   6.0000000   1.0000000   1.0000000   6.0000000   1.0000000

  Atom        11          12          13          14
 IAtWgt=           1           1           1           1
 AtmWgt=   1.0078250   1.0078250   1.0078250   1.0078250
 NucSpn=           1           1           1           1
 AtZEff=   0.0000000   0.0000000   0.0000000   0.0000000
 NQMom=    0.0000000   0.0000000   0.0000000   0.0000000
 NMagM=    2.7928460   2.7928460   2.7928460   2.7928460
 AtZNuc=   1.0000000   1.0000000   1.0000000   1.0000000
 Leave Link  101 at Wed Aug 26 22:33:16 2020, MaxMem=  2097152000 cpu:         0.6
 (Enter /opt/cluster/programs/g09/g09_d.01/g09/l202.exe)
                          Input orientation:                          
 ---------------------------------------------------------------------
 Center     Atomic      Atomic             Coordinates (Angstroms)
 Number     Number       Type             X           Y           Z
 ---------------------------------------------------------------------
      1          6           0       -3.951549    0.245434    0.091694
      2          6           0       -2.765917   -0.572035    0.023705
      3          1           0       -4.855036   -0.244761   -0.443411
      4          1           0       -3.793922    0.568993   -0.633962
      5          1           0       -4.142265    1.176842    1.095608
      6          6           0       -1.389103    0.193613   -0.068856
      7          1           0       -2.892885   -1.448866   -0.904220
      8          1           0       -2.622770   -1.098014    0.821938
      9          6           0       -0.118144   -0.721985    0.078474
     10          1           0       -1.539539    0.673212    0.643890
     11          1           0       -1.277610    0.859643   -0.997312
     12          1           0       -0.050416   -1.430236    1.084463
     13          1           0        0.837528   -0.110987   -0.119986
     14          1           0       -0.002938   -1.141276   -0.592512
 ---------------------------------------------------------------------
                    Distance matrix (angstroms):
                    1          2          3          4          5
     1  C    0.000000
     2  C    1.441736   0.000000
     3  H    1.158843   2.165577   0.000000
     4  H    0.810008   1.670708   1.350729   0.000000
     5  H    1.382656   2.470198   2.213047   1.866075   0.000000
     6  C    2.567994   1.578101   3.513567   2.498682   3.146842
     7  H    2.232323   1.282965   2.347818   2.226356   3.529108
     8  H    2.025775   0.966603   2.704101   2.504028   2.749314
     9  C    3.953615   2.652581   4.789390   3.960497   4.564390
    10  H    2.511117   1.854528   3.607966   2.593455   2.689215
    11  H    2.951802   2.303744   3.784771   2.558970   3.561906
    12  H    4.360309   3.039023   5.179201   4.578618   4.851825
    13  H    4.806985   3.635661   5.703313   4.709233   5.285311
    14  H    4.240593   2.887527   4.936479   4.159122   5.035618
                    6          7          8          9         10
     6  C    0.000000
     7  H    2.378430   0.000000
     8  H    1.995933   1.782044   0.000000
     9  C    1.573329   3.032034   2.639562   0.000000
    10  H    0.872154   2.954895   2.083826   2.070419   0.000000
    11  H    1.148067   2.819041   2.991914   2.236789   1.672396
    12  H    2.399815   3.469126   2.606971   1.232161   2.614591
    13  H    2.247950   4.039916   3.719557   1.151527   2.617045
    14  H    1.994392   2.922938   2.977593   0.799562   2.679963
                   11         12         13         14
    11  H    0.000000
    12  H    3.329165   0.000000
    13  H    2.487093   1.994883   0.000000
    14  H    2.406726   1.702350   1.411084   0.000000
 Stoichiometry    C4H10
 Framework group  C1[X(C4H10)]
 Deg. of freedom    36
 Full point group                 C1      NOp   1
 Largest Abelian subgroup         C1      NOp   1
 Largest concise Abelian subgroup C1      NOp   1
                         Standard orientation:                         
 ---------------------------------------------------------------------
 Center     Atomic      Atomic             Coordinates (Angstroms)
 Number     Number       Type             X           Y           Z
 ---------------------------------------------------------------------
      1          6           0        1.953997   -0.106339    0.072480
      2          6           0        0.639424    0.480969   -0.002138
      3          1           0        2.753301    0.534211   -0.469484
      4          1           0        1.858006   -0.461054   -0.649377
      5          1           0        2.310829   -0.976520    1.085985
      6          6           0       -0.575072   -0.523371   -0.083992
      7          1           0        0.604890    1.356117   -0.939646
      8          1           0        0.402818    0.980776    0.790662
      9          6           0       -1.991442    0.147239    0.055797
     10          1           0       -0.340007   -0.959809    0.633587
     11          1           0       -0.563348   -1.208632   -1.005045
     12          1           0       -2.187091    0.842248    1.054249
     13          1           0       -2.819947   -0.629567   -0.134370
     14          1           0       -2.180899    0.531244   -0.619441
 ---------------------------------------------------------------------
 Rotational constants (GHZ):     24.0354341      3.5129328      3.3263097
 Leave Link  202 at Wed Aug 26 22:33:16 2020, MaxMem=  2097152000 cpu:         0.1
 (Enter /opt/cluster/programs/g09/g09_d.01/g09/l301.exe)
 Standard basis: def2QZVP (5D, 7F)
 Ernie: Thresh=  0.10000D-02 Tol=  0.10000D-05 Strict=F.
 There are   638 symmetry adapted cartesian basis functions of A   symmetry.
 There are   528 symmetry adapted basis functions of A   symmetry.
   528 basis functions,   748 primitive gaussians,   638 cartesian basis functions
    17 alpha electrons       17 beta electrons
       nuclear repulsion energy       131.9502683928 Hartrees.
 IExCor=  419 DFT=T Ex+Corr=B2PLYPD3 ExCW=0 ScaHFX=  0.530000
 ScaDFX=  0.470000  0.470000  0.730000  0.730000 ScalE2=  0.270000  0.270000
 IRadAn=      0 IRanWt=     -1 IRanGd=            0 ICorTp=0 IEmpDi=141
 NAtoms=   14 NActive=   14 NUniq=   14 SFac= 1.00D+00 NAtFMM=   60 NAOKFM=F Big=F
 Integral buffers will be    131072 words long.
 Regular integral format.
 Two-electron integral symmetry is turned on.
 R6Disp:  Grimme-D3(BJ) Dispersion energy=       -0.0064858594 Hartrees.
 Nuclear repulsion after empirical dispersion term =      131.9437825334 Hartrees.
 Leave Link  301 at Wed Aug 26 22:33:17 2020, MaxMem=  2097152000 cpu:         0.5
 (Enter /opt/cluster/programs/g09/g09_d.01/g09/l302.exe)
 NPDir=0 NMtPBC=     1 NCelOv=     1 NCel=       1 NClECP=     1 NCelD=      1
         NCelK=      1 NCelE2=     1 NClLst=     1 CellRange=     0.0.
 One-electron integrals computed using PRISM.
   1 Symmetry operations used in ECPInt.
 ECPInt:  NShTT=   14196 NPrTT=   30597 LenC2=   13850 LenP2D=   25920.
 LDataN:  DoStor=T MaxTD1= 8 Len=  415
 NBasis=   528 RedAO= T EigKep=  2.69D-05  NBF=   528
 NBsUse=   528 1.00D-06 EigRej= -1.00D+00 NBFU=   528
 Precomputing XC quadrature grid using
 IXCGrd= 4 IRadAn=           0 IRanWt=          -1 IRanGd=           0 AccXCQ= 0.00D+00.
 Generated NRdTot=       0 NPtTot=           0 NUsed=           0 NTot=          32
 NSgBfM=   638   638   638   638   638 MxSgAt=    14 MxSgA2=    14.
 Leave Link  302 at Wed Aug 26 22:33:17 2020, MaxMem=  2097152000 cpu:         6.7
 (Enter /opt/cluster/programs/g09/g09_d.01/g09/l303.exe)
 DipDrv:  MaxL=1.
 Leave Link  303 at Wed Aug 26 22:33:18 2020, MaxMem=  2097152000 cpu:         0.7
 (Enter /opt/cluster/programs/g09/g09_d.01/g09/l401.exe)
 ExpMin= 7.60D-02 ExpMax= 6.70D+04 ExpMxC= 6.47D+02 IAcc=2 IRadAn=         4 AccDes= 0.00D+00
 Harris functional with IExCor=  419 and IRadAn=       4 diagonalized for initial guess.
 HarFok:  IExCor=  419 AccDes= 0.00D+00 IRadAn=         4 IDoV= 1 UseB2=F ITyADJ=14
 ICtDFT=  3500011 ScaDFX=  1.000000  1.000000  1.000000  1.000000
 FoFCou: FMM=F IPFlag=           0 FMFlag=      100000 FMFlg1=           0
         NFxFlg=           0 DoJE=T BraDBF=F KetDBF=T FulRan=T
         wScrn=  0.000000 ICntrl=     500 IOpCl=  0 I1Cent=   200000004 NGrid=           0
         NMat0=    1 NMatS0=      1 NMatT0=    0 NMatD0=    1 NMtDS0=    0 NMtDT0=    0
 Petite list used in FoFCou.
 Harris En= -158.358821027337    
 JPrj=0 DoOrth=F DoCkMO=F.
 Leave Link  401 at Wed Aug 26 22:33:20 2020, MaxMem=  2097152000 cpu:        20.0
 (Enter /opt/cluster/programs/g09/g09_d.01/g09/l502.exe)
 Closed shell SCF:
 Using DIIS extrapolation, IDIIS=  1040.
 Integral symmetry usage will be decided dynamically.
 IVT=     1249338 IEndB=     1249338 NGot=  2097152000 MDV=  2096326985
 LenX=  2096326985 LenY=  2095919303
 Requested convergence on RMS density matrix=1.00D-08 within 128 cycles.
 Requested convergence on MAX density matrix=1.00D-06.
 Requested convergence on             energy=1.00D-06.
 No special actions if energy rises.
 Fock matrices will be formed incrementally for  20 cycles.
 Integral accuracy reduced to 1.0D-05 until final iterations.

 Cycle   1  Pass 0  IDiag  1:
 FoFJK:  IHMeth= 1 ICntrl=       0 DoSepK=F KAlg= 0 I1Cent=   0 FoldK=F
 IRaf= 930000000 NMat=   1 IRICut=       1 DoRegI=T DoRafI=F ISym2E= 0.
 FoFCou: FMM=F IPFlag=           0 FMFlag=      100000 FMFlg1=           0
         NFxFlg=           0 DoJE=F BraDBF=F KetDBF=F FulRan=T
         wScrn=  0.000000 ICntrl=       0 IOpCl=  0 I1Cent=           0 NGrid=           0
         NMat0=    1 NMatS0=      1 NMatT0=    0 NMatD0=    1 NMtDS0=    0 NMtDT0=    0
 Symmetry not used in FoFCou.
 E= -157.393357148885    
 DIIS: error= 2.74D-02 at cycle   1 NSaved=   1.
 NSaved= 1 IEnMin= 1 EnMin= -157.393357148885     IErMin= 1 ErrMin= 2.74D-02
 ErrMax= 2.74D-02  0.00D+00 EMaxC= 1.00D-01 BMatC= 4.49D-01 BMatP= 4.49D-01
 IDIUse=3 WtCom= 7.26D-01 WtEn= 2.74D-01
 Coeff-Com:  0.100D+01
 Coeff-En:   0.100D+01
 Coeff:      0.100D+01
 Gap=     0.368 Goal=   None    Shift=    0.000
 GapD=    0.368 DampG=1.000 DampE=0.500 DampFc=0.5000 IDamp=-1.
 Damping current iteration by 5.00D-01
 RMSDP=1.20D-03 MaxDP=6.55D-02              OVMax= 2.20D-01

 Cycle   2  Pass 0  IDiag  1:
 RMSU=  5.77D-04    CP:  9.43D-01
 E= -157.582723272607     Delta-E=       -0.189366123722 Rises=F Damp=T
 DIIS: error= 5.99D-03 at cycle   2 NSaved=   2.
 NSaved= 2 IEnMin= 2 EnMin= -157.582723272607     IErMin= 2 ErrMin= 5.99D-03
 ErrMax= 5.99D-03  0.00D+00 EMaxC= 1.00D-01 BMatC= 3.64D-02 BMatP= 4.49D-01
 IDIUse=3 WtCom= 9.40D-01 WtEn= 5.99D-02
 Coeff-Com: -0.160D+00 0.116D+01
 Coeff-En:   0.000D+00 0.100D+01
 Coeff:     -0.150D+00 0.115D+01
 Gap=     0.427 Goal=   None    Shift=    0.000
 RMSDP=3.30D-04 MaxDP=1.45D-02 DE=-1.89D-01 OVMax= 1.18D-01

 Cycle   3  Pass 0  IDiag  1:
 RMSU=  3.03D-04    CP:  9.33D-01  7.78D-01
 E= -157.759384249382     Delta-E=       -0.176660976775 Rises=F Damp=F
 DIIS: error= 3.17D-03 at cycle   3 NSaved=   3.
 NSaved= 3 IEnMin= 3 EnMin= -157.759384249382     IErMin= 3 ErrMin= 3.17D-03
 ErrMax= 3.17D-03  0.00D+00 EMaxC= 1.00D-01 BMatC= 3.94D-03 BMatP= 3.64D-02
 IDIUse=3 WtCom= 9.68D-01 WtEn= 3.17D-02
 Coeff-Com: -0.934D-01 0.230D+00 0.864D+00
 Coeff-En:   0.000D+00 0.000D+00 0.100D+01
 Coeff:     -0.905D-01 0.223D+00 0.868D+00
 Gap=     0.399 Goal=   None    Shift=    0.000
 RMSDP=7.87D-05 MaxDP=7.05D-03 DE=-1.77D-01 OVMax= 1.79D-02

 Cycle   4  Pass 0  IDiag  1:
 RMSU=  6.73D-05    CP:  9.27D-01  8.39D-01  1.04D+00
 E= -157.763081083110     Delta-E=       -0.003696833728 Rises=F Damp=F
 DIIS: error= 8.79D-04 at cycle   4 NSaved=   4.
 NSaved= 4 IEnMin= 4 EnMin= -157.763081083110     IErMin= 4 ErrMin= 8.79D-04
 ErrMax= 8.79D-04  0.00D+00 EMaxC= 1.00D-01 BMatC= 4.37D-04 BMatP= 3.94D-03
 IDIUse=3 WtCom= 9.91D-01 WtEn= 8.79D-03
 Coeff-Com: -0.283D-01 0.448D-01 0.327D+00 0.656D+00
 Coeff-En:   0.000D+00 0.000D+00 0.000D+00 0.100D+01
 Coeff:     -0.281D-01 0.444D-01 0.325D+00 0.659D+00
 Gap=     0.401 Goal=   None    Shift=    0.000
 RMSDP=2.46D-05 MaxDP=2.05D-03 DE=-3.70D-03 OVMax= 5.08D-03

 Cycle   5  Pass 0  IDiag  1:
 RMSU=  1.81D-05    CP:  9.28D-01  8.24D-01  1.07D+00  8.57D-01
 E= -157.763486832960     Delta-E=       -0.000405749850 Rises=F Damp=F
 DIIS: error= 1.83D-04 at cycle   5 NSaved=   5.
 NSaved= 5 IEnMin= 5 EnMin= -157.763486832960     IErMin= 5 ErrMin= 1.83D-04
 ErrMax= 1.83D-04  0.00D+00 EMaxC= 1.00D-01 BMatC= 2.01D-05 BMatP= 4.37D-04
 IDIUse=3 WtCom= 9.98D-01 WtEn= 1.83D-03
 Coeff-Com: -0.143D-02-0.335D-02 0.377D-01 0.204D+00 0.763D+00
 Coeff-En:   0.000D+00 0.000D+00 0.000D+00 0.000D+00 0.100D+01
 Coeff:     -0.143D-02-0.335D-02 0.376D-01 0.204D+00 0.763D+00
 Gap=     0.401 Goal=   None    Shift=    0.000
 RMSDP=6.53D-06 MaxDP=3.98D-04 DE=-4.06D-04 OVMax= 1.05D-03

 Initial convergence to 1.0D-05 achieved.  Increase integral accuracy.
 Cycle   6  Pass 1  IDiag  1:
 E= -157.763506201514     Delta-E=       -0.000019368554 Rises=F Damp=F
 DIIS: error= 8.99D-05 at cycle   1 NSaved=   1.
 NSaved= 1 IEnMin= 1 EnMin= -157.763506201514     IErMin= 1 ErrMin= 8.99D-05
 ErrMax= 8.99D-05  0.00D+00 EMaxC= 1.00D-01 BMatC= 1.15D-06 BMatP= 1.15D-06
 IDIUse=1 WtCom= 1.00D+00 WtEn= 0.00D+00
 Coeff-Com:  0.100D+01
 Coeff:      0.100D+01
 Gap=     0.401 Goal=   None    Shift=    0.000
 RMSDP=6.53D-06 MaxDP=3.98D-04 DE=-1.94D-05 OVMax= 2.77D-04

 Cycle   7  Pass 1  IDiag  1:
 RMSU=  3.70D-05    CP:  1.00D+00
 E= -157.763506986100     Delta-E=       -0.000000784586 Rises=F Damp=F
 DIIS: error= 2.16D-05 at cycle   2 NSaved=   2.
 NSaved= 2 IEnMin= 2 EnMin= -157.763506986100     IErMin= 2 ErrMin= 2.16D-05
 ErrMax= 2.16D-05  0.00D+00 EMaxC= 1.00D-01 BMatC= 1.84D-07 BMatP= 1.15D-06
 IDIUse=1 WtCom= 1.00D+00 WtEn= 0.00D+00
 Coeff-Com:  0.207D+00 0.793D+00
 Coeff:      0.207D+00 0.793D+00
 Gap=     0.401 Goal=   None    Shift=    0.000
 RMSDP=1.21D-06 MaxDP=7.49D-05 DE=-7.85D-07 OVMax= 1.35D-04

 Cycle   8  Pass 1  IDiag  1:
 RMSU=  7.19D-07    CP:  1.00D+00  1.03D+00
 E= -157.763507133981     Delta-E=       -0.000000147881 Rises=F Damp=F
 DIIS: error= 1.16D-05 at cycle   3 NSaved=   3.
 NSaved= 3 IEnMin= 3 EnMin= -157.763507133981     IErMin= 3 ErrMin= 1.16D-05
 ErrMax= 1.16D-05  0.00D+00 EMaxC= 1.00D-01 BMatC= 5.11D-08 BMatP= 1.84D-07
 IDIUse=1 WtCom= 1.00D+00 WtEn= 0.00D+00
 Coeff-Com: -0.212D-01 0.330D+00 0.691D+00
 Coeff:     -0.212D-01 0.330D+00 0.691D+00
 Gap=     0.401 Goal=   None    Shift=    0.000
 RMSDP=4.33D-07 MaxDP=2.54D-05 DE=-1.48D-07 OVMax= 5.37D-05

 Cycle   9  Pass 1  IDiag  1:
 RMSU=  2.68D-07    CP:  1.00D+00  1.04D+00  9.07D-01
 E= -157.763507185234     Delta-E=       -0.000000051254 Rises=F Damp=F
 DIIS: error= 1.51D-06 at cycle   4 NSaved=   4.
 NSaved= 4 IEnMin= 4 EnMin= -157.763507185234     IErMin= 4 ErrMin= 1.51D-06
 ErrMax= 1.51D-06  0.00D+00 EMaxC= 1.00D-01 BMatC= 7.78D-10 BMatP= 5.11D-08
 IDIUse=1 WtCom= 1.00D+00 WtEn= 0.00D+00
 Coeff-Com: -0.118D-01 0.418D-01 0.138D+00 0.832D+00
 Coeff:     -0.118D-01 0.418D-01 0.138D+00 0.832D+00
 Gap=     0.401 Goal=   None    Shift=    0.000
 RMSDP=6.61D-08 MaxDP=4.30D-06 DE=-5.13D-08 OVMax= 1.02D-05

 Cycle  10  Pass 1  IDiag  1:
 RMSU=  5.41D-08    CP:  1.00D+00  1.04D+00  9.33D-01  1.11D+00
 E= -157.763507186273     Delta-E=       -0.000000001038 Rises=F Damp=F
 DIIS: error= 5.13D-07 at cycle   5 NSaved=   5.
 NSaved= 5 IEnMin= 5 EnMin= -157.763507186273     IErMin= 5 ErrMin= 5.13D-07
 ErrMax= 5.13D-07  0.00D+00 EMaxC= 1.00D-01 BMatC= 8.82D-11 BMatP= 7.78D-10
 IDIUse=1 WtCom= 1.00D+00 WtEn= 0.00D+00
 Coeff-Com: -0.354D-04-0.288D-01-0.521D-01 0.172D+00 0.909D+00
 Coeff:     -0.354D-04-0.288D-01-0.521D-01 0.172D+00 0.909D+00
 Gap=     0.401 Goal=   None    Shift=    0.000
 RMSDP=2.53D-08 MaxDP=1.36D-06 DE=-1.04D-09 OVMax= 4.48D-06

 Cycle  11  Pass 1  IDiag  1:
 RMSU=  1.70D-08    CP:  1.00D+00  1.04D+00  9.42D-01  1.17D+00  1.05D+00
 E= -157.763507186383     Delta-E=       -0.000000000111 Rises=F Damp=F
 DIIS: error= 1.18D-07 at cycle   6 NSaved=   6.
 NSaved= 6 IEnMin= 6 EnMin= -157.763507186383     IErMin= 6 ErrMin= 1.18D-07
 ErrMax= 1.18D-07  0.00D+00 EMaxC= 1.00D-01 BMatC= 8.56D-12 BMatP= 8.82D-11
 IDIUse=1 WtCom= 1.00D+00 WtEn= 0.00D+00
 Coeff-Com:  0.473D-03-0.131D-01-0.262D-01 0.342D-01 0.359D+00 0.646D+00
 Coeff:      0.473D-03-0.131D-01-0.262D-01 0.342D-01 0.359D+00 0.646D+00
 Gap=     0.401 Goal=   None    Shift=    0.000
 RMSDP=4.03D-09 MaxDP=2.33D-07 DE=-1.11D-10 OVMax= 7.87D-07

 SCF Done:  E(RB2PLYPD3) =  -157.763507186     A.U. after   11 cycles
            NFock= 11  Conv=0.40D-08     -V/T= 1.9952
 KE= 1.585216639834D+02 PE=-6.298307084199D+02 EE= 1.816017547168D+02
 Leave Link  502 at Wed Aug 26 22:40:35 2020, MaxMem=  2097152000 cpu:      3467.6
 (Enter /opt/cluster/programs/g09/g09_d.01/g09/l801.exe)
 DoSCS=T DFT=T ScalE2(SS,OS)=  0.270000  0.270000
 ExpMin= 7.60D-02 ExpMax= 6.70D+04 ExpMxC= 6.47D+02 IAcc=3 IRadAn=         5 AccDes= 0.00D+00
 HarFok:  IExCor=  205 AccDes= 0.00D+00 IRadAn=         5 IDoV=-2 UseB2=F ITyADJ=14
 ICtDFT= 12500011 ScaDFX=  1.000000  1.000000  1.000000  1.000000
 Largest valence mixing into a core orbital is  1.09D-04
 Largest core mixing into a valence orbital is  1.46D-05
 Range of M.O.s used for correlation:     5   528
 NBasis=   528 NAE=    17 NBE=    17 NFC=     4 NFV=     0
 NROrb=    524 NOA=    13 NOB=    13 NVA=   511 NVB=   511

 **** Warning!!: The largest alpha MO coefficient is  0.29600922D+02

 Leave Link  801 at Wed Aug 26 22:40:35 2020, MaxMem=  2097152000 cpu:         1.2
 (Enter /opt/cluster/programs/g09/g09_d.01/g09/l906.exe)
 DoSCS=T DFT=T ScalE2(SS,OS)=  0.270000  0.270000
 FulOut=F Deriv=F AODrv=F NAtomX=    14
   MMem=         463  MDisk=          13 MDiskD=          13
  W3Min=     4238234 MinDsk=     6904766 NBas6D=         638
 NBas2D=      205689    NTT=      203841    LW2=     4508827
    MDV=  2095903444 MDiskM=        7293 NBas2p=      188981
 Fully direct method using O(OVN) memory.
 IMap=   1   2   3   4   5   6   7   8   9  10  11  12  13
 JobTyp=1 Pass  1:  I=   1 to  13 NPSUse=  8 ParTrn=T ParDer=T DoDerP=F.
 Spin components of T(2) and E(2):
     alpha-alpha T2 =       0.4046121548D-01 E2=     -0.2651260229D-01
     alpha-beta  T2 =       0.2701071249D+00 E2=     -0.1959785601D+00
     beta-beta   T2 =       0.4046121548D-01 E2=     -0.2651260229D-01
 The integrals were generated   1 times.
 E2(B2PLYPD3) =    -0.2490037646D+00 E(B2PLYPD3) =    -0.15801251095103D+03
 Leave Link  906 at Wed Aug 26 22:45:36 2020, MaxMem=  2097152000 cpu:      2395.0
 (Enter /opt/cluster/programs/g09/g09_d.01/g09/l601.exe)
 Copying SCF densities to generalized density rwf, IOpCl= 0 IROHF=0.

 **********************************************************************

            Population analysis using the SCF density.

 **********************************************************************

 Orbital symmetries:
       Occupied  (A) (A) (A) (A) (A) (A) (A) (A) (A) (A) (A) (A)
                 (A) (A) (A) (A) (A)
       Virtual   (A) (A) (A) (A) (A) (A) (A) (A) (A) (A) (A) (A)
                 (A) (A) (A) (A) (A) (A) (A) (A) (A) (A) (A) (A)
                 (A) (A) (A) (A) (A) (A) (A) (A) (A) (A) (A) (A)
                 (A) (A) (A) (A) (A) (A) (A) (A) (A) (A) (A) (A)
                 (A) (A) (A) (A) (A) (A) (A) (A) (A) (A) (A) (A)
                 (A) (A) (A) (A) (A) (A) (A) (A) (A) (A) (A) (A)
                 (A) (A) (A) (A) (A) (A) (A) (A) (A) (A) (A) (A)
                 (A) (A) (A) (A) (A) (A) (A) (A) (A) (A) (A) (A)
                 (A) (A) (A) (A) (A) (A) (A) (A) (A) (A) (A) (A)
                 (A) (A) (A) (A) (A) (A) (A) (A) (A) (A) (A) (A)
                 (A) (A) (A) (A) (A) (A) (A) (A) (A) (A) (A) (A)
                 (A) (A) (A) (A) (A) (A) (A) (A) (A) (A) (A) (A)
                 (A) (A) (A) (A) (A) (A) (A) (A) (A) (A) (A) (A)
                 (A) (A) (A) (A) (A) (A) (A) (A) (A) (A) (A) (A)
                 (A) (A) (A) (A) (A) (A) (A) (A) (A) (A) (A) (A)
                 (A) (A) (A) (A) (A) (A) (A) (A) (A) (A) (A) (A)
                 (A) (A) (A) (A) (A) (A) (A) (A) (A) (A) (A) (A)
                 (A) (A) (A) (A) (A) (A) (A) (A) (A) (A) (A) (A)
                 (A) (A) (A) (A) (A) (A) (A) (A) (A) (A) (A) (A)
                 (A) (A) (A) (A) (A) (A) (A) (A) (A) (A) (A) (A)
                 (A) (A) (A) (A) (A) (A) (A) (A) (A) (A) (A) (A)
                 (A) (A) (A) (A) (A) (A) (A) (A) (A) (A) (A) (A)
                 (A) (A) (A) (A) (A) (A) (A) (A) (A) (A) (A) (A)
                 (A) (A) (A) (A) (A) (A) (A) (A) (A) (A) (A) (A)
                 (A) (A) (A) (A) (A) (A) (A) (A) (A) (A) (A) (A)
                 (A) (A) (A) (A) (A) (A) (A) (A) (A) (A) (A) (A)
                 (A) (A) (A) (A) (A) (A) (A) (A) (A) (A) (A) (A)
                 (A) (A) (A) (A) (A) (A) (A) (A) (A) (A) (A) (A)
                 (A) (A) (A) (A) (A) (A) (A) (A) (A) (A) (A) (A)
                 (A) (A) (A) (A) (A) (A) (A) (A) (A) (A) (A) (A)
                 (A) (A) (A) (A) (A) (A) (A) (A) (A) (A) (A) (A)
                 (A) (A) (A) (A) (A) (A) (A) (A) (A) (A) (A) (A)
                 (A) (A) (A) (A) (A) (A) (A) (A) (A) (A) (A) (A)
                 (A) (A) (A) (A) (A) (A) (A) (A) (A) (A) (A) (A)
                 (A) (A) (A) (A) (A) (A) (A) (A) (A) (A) (A) (A)
                 (A) (A) (A) (A) (A) (A) (A) (A) (A) (A) (A) (A)
                 (A) (A) (A) (A) (A) (A) (A) (A) (A) (A) (A) (A)
                 (A) (A) (A) (A) (A) (A) (A) (A) (A) (A) (A) (A)
                 (A) (A) (A) (A) (A) (A) (A) (A) (A) (A) (A) (A)
                 (A) (A) (A) (A) (A) (A) (A) (A) (A) (A) (A) (A)
                 (A) (A) (A) (A) (A) (A) (A) (A) (A) (A) (A) (A)
                 (A) (A) (A) (A) (A) (A) (A) (A) (A) (A) (A) (A)
                 (A) (A) (A) (A) (A) (A) (A)
 The electronic state is 1-A.
 Alpha  occ. eigenvalues --  -10.60933 -10.59456 -10.59372 -10.59106  -0.94059
 Alpha  occ. eigenvalues --   -0.86964  -0.77671  -0.68788  -0.53949  -0.49993
 Alpha  occ. eigenvalues --   -0.48539  -0.46880  -0.44218  -0.41516  -0.39937
 Alpha  occ. eigenvalues --   -0.37838  -0.34646
 Alpha virt. eigenvalues --    0.05433   0.05995   0.07271   0.08479   0.10699
 Alpha virt. eigenvalues --    0.12132   0.12612   0.12813   0.14946   0.15571
 Alpha virt. eigenvalues --    0.15868   0.16698   0.18582   0.19146   0.21276
 Alpha virt. eigenvalues --    0.22052   0.23897   0.25313   0.26486   0.27896
 Alpha virt. eigenvalues --    0.29349   0.30985   0.31537   0.32954   0.33720
 Alpha virt. eigenvalues --    0.35662   0.35985   0.37666   0.38097   0.42131
 Alpha virt. eigenvalues --    0.42730   0.44725   0.45303   0.46655   0.46989
 Alpha virt. eigenvalues --    0.48998   0.50651   0.54379   0.56428   0.58427
 Alpha virt. eigenvalues --    0.59760   0.60671   0.62589   0.65232   0.65996
 Alpha virt. eigenvalues --    0.66617   0.67265   0.69324   0.70646   0.71838
 Alpha virt. eigenvalues --    0.73721   0.74827   0.76955   0.77668   0.79026
 Alpha virt. eigenvalues --    0.80243   0.82123   0.83560   0.85618   0.86393
 Alpha virt. eigenvalues --    0.88017   0.89198   0.89643   0.90206   0.92178
 Alpha virt. eigenvalues --    0.93092   0.94490   0.95988   0.96471   0.98352
 Alpha virt. eigenvalues --    0.99702   1.00424   1.02079   1.03022   1.03690
 Alpha virt. eigenvalues --    1.04358   1.06468   1.07859   1.09686   1.11032
 Alpha virt. eigenvalues --    1.12458   1.13616   1.15749   1.16980   1.20101
 Alpha virt. eigenvalues --    1.20646   1.21809   1.22918   1.27348   1.28757
 Alpha virt. eigenvalues --    1.30289   1.30846   1.33630   1.34732   1.35609
 Alpha virt. eigenvalues --    1.40704   1.42287   1.42675   1.43090   1.45240
 Alpha virt. eigenvalues --    1.47249   1.51019   1.54022   1.57103   1.60715
 Alpha virt. eigenvalues --    1.61809   1.67490   1.74309   1.75409   1.78222
 Alpha virt. eigenvalues --    1.78588   1.83212   1.84523   1.88444   1.89589
 Alpha virt. eigenvalues --    1.91414   1.92634   1.94943   1.96053   1.97296
 Alpha virt. eigenvalues --    1.98446   1.99379   2.00132   2.02508   2.03837
 Alpha virt. eigenvalues --    2.04179   2.06970   2.08447   2.08738   2.09856
 Alpha virt. eigenvalues --    2.10085   2.12478   2.14389   2.14863   2.16170
 Alpha virt. eigenvalues --    2.17627   2.19549   2.20664   2.22286   2.23129
 Alpha virt. eigenvalues --    2.24803   2.25727   2.27758   2.28970   2.29726
 Alpha virt. eigenvalues --    2.32180   2.32575   2.34916   2.37978   2.38921
 Alpha virt. eigenvalues --    2.40460   2.41674   2.43463   2.45061   2.47630
 Alpha virt. eigenvalues --    2.48111   2.51271   2.51588   2.51752   2.55204
 Alpha virt. eigenvalues --    2.56927   2.58332   2.59077   2.61145   2.62243
 Alpha virt. eigenvalues --    2.63135   2.63787   2.64837   2.66858   2.67339
 Alpha virt. eigenvalues --    2.69126   2.73211   2.74025   2.75436   2.77004
 Alpha virt. eigenvalues --    2.77562   2.79463   2.79937   2.81269   2.84335
 Alpha virt. eigenvalues --    2.87107   2.89214   2.91215   2.92288   2.96398
 Alpha virt. eigenvalues --    2.97508   3.00309   3.01666   3.02956   3.03771
 Alpha virt. eigenvalues --    3.05164   3.07761   3.09345   3.11569   3.13205
 Alpha virt. eigenvalues --    3.14201   3.15199   3.18094   3.18484   3.21915
 Alpha virt. eigenvalues --    3.23339   3.25045   3.28933   3.30773   3.31545
 Alpha virt. eigenvalues --    3.33087   3.37110   3.39353   3.41703   3.42830
 Alpha virt. eigenvalues --    3.44066   3.46654   3.47670   3.53269   3.53354
 Alpha virt. eigenvalues --    3.56541   3.59048   3.61273   3.62068   3.65014
 Alpha virt. eigenvalues --    3.68488   3.71514   3.72311   3.73518   3.75491
 Alpha virt. eigenvalues --    3.78202   3.82012   3.83337   3.86240   3.90824
 Alpha virt. eigenvalues --    3.93228   3.98285   4.00674   4.03147   4.05692
 Alpha virt. eigenvalues --    4.07323   4.10904   4.12259   4.16202   4.19074
 Alpha virt. eigenvalues --    4.19917   4.21923   4.25163   4.26313   4.29724
 Alpha virt. eigenvalues --    4.31277   4.38356   4.42154   4.52757   4.57904
 Alpha virt. eigenvalues --    4.68744   4.74251   4.78537   4.94036   5.01247
 Alpha virt. eigenvalues --    5.12576   5.20646   5.23783   5.30882   5.36198
 Alpha virt. eigenvalues --    5.38936   5.44195   5.47456   5.50658   5.52834
 Alpha virt. eigenvalues --    5.55415   5.57969   5.62797   5.65857   5.66347
 Alpha virt. eigenvalues --    5.68033   5.69998   5.71973   5.73739   5.75250
 Alpha virt. eigenvalues --    5.76567   5.78183   5.79832   5.84034   5.85709
 Alpha virt. eigenvalues --    5.85968   5.88415   5.89903   5.90834   5.91278
 Alpha virt. eigenvalues --    5.93294   5.94316   5.96148   5.96489   5.99260
 Alpha virt. eigenvalues --    6.02062   6.02908   6.05685   6.06917   6.09073
 Alpha virt. eigenvalues --    6.10495   6.11526   6.13188   6.15725   6.16929
 Alpha virt. eigenvalues --    6.18202   6.20376   6.21164   6.22103   6.23810
 Alpha virt. eigenvalues --    6.28275   6.28911   6.31099   6.33343   6.34718
 Alpha virt. eigenvalues --    6.36060   6.39558   6.40082   6.41756   6.45260
 Alpha virt. eigenvalues --    6.46239   6.49445   6.52681   6.53152   6.55526
 Alpha virt. eigenvalues --    6.57376   6.60062   6.62445   6.63161   6.67134
 Alpha virt. eigenvalues --    6.68109   6.71108   6.71780   6.73316   6.75922
 Alpha virt. eigenvalues --    6.78093   6.79987   6.80111   6.82801   6.85070
 Alpha virt. eigenvalues --    6.87247   6.87840   6.91991   6.94228   6.97153
 Alpha virt. eigenvalues --    6.99244   7.01338   7.02974   7.04081   7.07317
 Alpha virt. eigenvalues --    7.12103   7.13180   7.17054   7.17698   7.20431
 Alpha virt. eigenvalues --    7.20971   7.24623   7.27660   7.28516   7.30961
 Alpha virt. eigenvalues --    7.34277   7.36169   7.36724   7.38708   7.40886
 Alpha virt. eigenvalues --    7.43836   7.46562   7.49567   7.53214   7.55083
 Alpha virt. eigenvalues --    7.59981   7.60291   7.61747   7.64325   7.64747
 Alpha virt. eigenvalues --    7.67542   7.70747   7.71128   7.74263   7.77437
 Alpha virt. eigenvalues --    7.78943   7.79601   7.81528   7.83640   7.85635
 Alpha virt. eigenvalues --    7.88293   7.90589   7.92476   7.95986   7.97182
 Alpha virt. eigenvalues --    8.00558   8.01472   8.03810   8.05742   8.08445
 Alpha virt. eigenvalues --    8.09946   8.12896   8.13862   8.15143   8.18335
 Alpha virt. eigenvalues --    8.20919   8.21849   8.23996   8.25618   8.29996
 Alpha virt. eigenvalues --    8.31530   8.32577   8.33049   8.34431   8.35598
 Alpha virt. eigenvalues --    8.36013   8.36890   8.38907   8.42342   8.44022
 Alpha virt. eigenvalues --    8.45463   8.46927   8.48584   8.49474   8.52548
 Alpha virt. eigenvalues --    8.54468   8.56277   8.58860   8.60686   8.63610
 Alpha virt. eigenvalues --    8.64352   8.66070   8.67558   8.69979   8.71570
 Alpha virt. eigenvalues --    8.72442   8.75613   8.77583   8.81708   8.84134
 Alpha virt. eigenvalues --    8.84733   8.86206   8.88866   8.91799   8.92542
 Alpha virt. eigenvalues --    8.94626   8.96060   8.97846   9.00524   9.05597
 Alpha virt. eigenvalues --    9.08869   9.12360   9.14827   9.16028   9.17250
 Alpha virt. eigenvalues --    9.19325   9.20054   9.23658   9.28386   9.30314
 Alpha virt. eigenvalues --    9.34837   9.37416   9.40670   9.45111   9.45693
 Alpha virt. eigenvalues --    9.49896   9.50511   9.54380   9.56230   9.60949
 Alpha virt. eigenvalues --    9.63441   9.68578   9.71633   9.76236   9.79732
 Alpha virt. eigenvalues --    9.81787   9.84929   9.93078   9.97903   9.99769
 Alpha virt. eigenvalues --   10.08690  10.10941  10.14968  10.23569  10.26589
 Alpha virt. eigenvalues --   10.30967  10.32933  10.36494  10.41892  10.52871
 Alpha virt. eigenvalues --   10.61115  10.63747  10.69232  10.86785  11.05949
 Alpha virt. eigenvalues --   11.09754  11.12532  11.32881  11.40830  11.70949
 Alpha virt. eigenvalues --   11.72296  11.74216  11.79845  11.87063  11.94410
 Alpha virt. eigenvalues --   12.01873  12.02154  12.21050  12.47820  12.51780
 Alpha virt. eigenvalues --   12.71392  12.97768  13.12658  29.33123  29.49809
 Alpha virt. eigenvalues --   29.58116  29.70559 149.02336 149.21387 149.25671
 Alpha virt. eigenvalues --  149.41468
          Condensed to atoms (all electrons):
               1          2          3          4          5          6
     1  C    5.018121   0.311246   0.395557   0.447171   0.371447  -0.045164
     2  C    0.311246   4.831028  -0.028552  -0.066196  -0.032211   0.369049
     3  H    0.395557  -0.028552   0.674974  -0.055497  -0.021691   0.010700
     4  H    0.447171  -0.066196  -0.055497   0.404362  -0.004250  -0.019326
     5  H    0.371447  -0.032211  -0.021691  -0.004250   0.634293  -0.001362
     6  C   -0.045164   0.369049   0.010700  -0.019326  -0.001362   4.832974
     7  H   -0.050328   0.385091  -0.014978  -0.002871   0.007424  -0.044276
     8  H   -0.053640   0.400945  -0.006814   0.017862  -0.004443  -0.056296
     9  C    0.005652  -0.051644  -0.000785   0.000386   0.000257   0.350887
    10  H   -0.005279  -0.052572  -0.000747  -0.001935   0.006085   0.435788
    11  H   -0.001175  -0.036545  -0.000212   0.005921  -0.000536   0.389144
    12  H    0.000028  -0.001365   0.000018  -0.000002  -0.000019  -0.035818
    13  H   -0.000512   0.009094   0.000052  -0.000088   0.000023  -0.038627
    14  H    0.000174  -0.008914  -0.000085   0.000123   0.000016  -0.015717
               7          8          9         10         11         12
     1  C   -0.050328  -0.053640   0.005652  -0.005279  -0.001175   0.000028
     2  C    0.385091   0.400945  -0.051644  -0.052572  -0.036545  -0.001365
     3  H   -0.014978  -0.006814  -0.000785  -0.000747  -0.000212   0.000018
     4  H   -0.002871   0.017862   0.000386  -0.001935   0.005921  -0.000002
     5  H    0.007424  -0.004443   0.000257   0.006085  -0.000536  -0.000019
     6  C   -0.044276  -0.056296   0.350887   0.435788   0.389144  -0.035818
     7  H    0.751249  -0.031170   0.001795   0.012910  -0.004344  -0.000368
     8  H   -0.031170   0.684389  -0.008051  -0.014309   0.010122   0.003513
     9  C    0.001795  -0.008051   4.859245  -0.021017  -0.046421   0.386432
    10  H    0.012910  -0.014309  -0.021017   0.526639  -0.041517  -0.002883
    11  H   -0.004344   0.010122  -0.046421  -0.041517   0.712166   0.006512
    12  H   -0.000368   0.003513   0.386432  -0.002883   0.006512   0.635924
    13  H   -0.000251  -0.000414   0.387976  -0.006311  -0.004609  -0.019926
    14  H    0.003236   0.000038   0.456267   0.007367  -0.004148  -0.014513
              13         14
     1  C   -0.000512   0.000174
     2  C    0.009094  -0.008914
     3  H    0.000052  -0.000085
     4  H   -0.000088   0.000123
     5  H    0.000023   0.000016
     6  C   -0.038627  -0.015717
     7  H   -0.000251   0.003236
     8  H   -0.000414   0.000038
     9  C    0.387976   0.456267
    10  H   -0.006311   0.007367
    11  H   -0.004609  -0.004148
    12  H   -0.019926  -0.014513
    13  H    0.693301  -0.047838
    14  H   -0.047838   0.405832
 Mulliken charges:
               1
     1  C   -0.393300
     2  C   -0.028454
     3  H    0.048058
     4  H    0.274341
     5  H    0.044966
     6  C   -0.131957
     7  H   -0.013121
     8  H    0.058266
     9  C   -0.320981
    10  H    0.157781
    11  H    0.015643
    12  H    0.042466
    13  H    0.028130
    14  H    0.218162
 Sum of Mulliken charges =   0.00000
 Mulliken charges with hydrogens summed into heavy atoms:
               1
     1  C   -0.025935
     2  C    0.016691
     6  C    0.041466
     9  C   -0.032223
 Electronic spatial extent (au):  <R**2>=            434.1748
 Charge=              0.0000 electrons
 Dipole moment (field-independent basis, Debye):
    X=             -0.1480    Y=             -0.1553    Z=             -0.3663  Tot=              0.4246
 Quadrupole moment (field-independent basis, Debye-Ang):
   XX=            -29.5988   YY=            -29.3695   ZZ=            -27.5651
   XY=             -0.5708   XZ=             -0.0944   YZ=             -0.1345
 Traceless Quadrupole moment (field-independent basis, Debye-Ang):
   XX=             -0.7543   YY=             -0.5250   ZZ=              1.2794
   XY=             -0.5708   XZ=             -0.0944   YZ=             -0.1345
 Octapole moment (field-independent basis, Debye-Ang**2):
  XXX=             -4.0282  YYY=             -0.4913  ZZZ=             -0.5290  XYY=             -0.7219
  XXY=             -0.2979  XXZ=             -5.2038  XZZ=              0.2036  YZZ=             -0.2889
  YYZ=              0.0522  XYZ=             -2.6342
 Hexadecapole moment (field-independent basis, Debye-Ang**3):
 XXXX=           -486.2121 YYYY=            -92.8898 ZZZZ=            -59.9663 XXXY=             -1.1976
 XXXZ=             -0.8158 YYYX=             -0.7223 YYYZ=              0.1566 ZZZX=             -0.1788
 ZZZY=              0.6711 XXYY=            -94.3607 XXZZ=            -85.1912 YYZZ=            -22.6743
 XXYZ=             -2.0833 YYXZ=              0.7793 ZZXY=             -2.6873
 N-N= 1.319437825334D+02 E-N=-6.298306808402D+02  KE= 1.585216639834D+02
 Leave Link  601 at Wed Aug 26 22:45:36 2020, MaxMem=  2097152000 cpu:         1.2
 (Enter /opt/cluster/programs/g09/g09_d.01/g09/l9999.exe)
 1\1\GINC-NODE13\SP\RB2PLYPD3-FC\def2QZVP\C4H10\BOITTIER\26-Aug-2020\0\
 \#p B2PLYPD3/Def2QZVP\\butane_opt\\0,1\C,0,-3.951549,0.245434,0.091694
 \C,0,-2.765917,-0.572035,0.023705\H,0,-4.855036,-0.244761,-0.443411\H,
 0,-3.793922,0.568993,-0.633962\H,0,-4.142265,1.176842,1.095608\C,0,-1.
 389103,0.193613,-0.068856\H,0,-2.892885,-1.448866,-0.90422\H,0,-2.6227
 7,-1.098014,0.821938\C,0,-0.118144,-0.721985,0.078474\H,0,-1.539539,0.
 673212,0.64389\H,0,-1.27761,0.859643,-0.997312\H,0,-0.050416,-1.430236
 ,1.084463\H,0,0.837528,-0.110987,-0.119986\H,0,-0.002938,-1.141276,-0.
 592512\\Version=ES64L-G09RevD.01\State=1-A\HF=-157.7635072\MP2=-158.01
 2511\RMSD=4.027e-09\PG=C01 [X(C4H10)]\\@


 IT IS UNWORTHY OF EXCELLENT MEN TO LOSE HOURS LIKE SLAVES IN THE LABOR
 OF CALCULATION WHICH COULD BE SAFELY RELEGATED TO ANYONE ELSE
 IF A MACHINE WERE USED.
    -- G.W. VON LEIBNIZ
 Job cpu time:       0 days  1 hours 38 minutes 16.6 seconds.
 File lengths (MBytes):  RWF=    152 Int=      0 D2E=      0 Chk=     14 Scr=      1
 Normal termination of Gaussian 09 at Wed Aug 26 22:45:37 2020.
