 Entering Gaussian System, Link 0=/opt/cluster/programs/g09/g09_d.01/g09//g09
 Input=/home/boittier/MDCM/nms_sampling/butane_geom.xyz.dir/energies/butane_opt_2189_energy.com
 Output=/scratch/boittier/butane_opt_2189_energy/butane_opt_2189_energy.out
 Initial command:
 /opt/cluster/programs/g09/g09_d.01/g09/l1.exe "/scratch/boittier/butane_opt_2189_energy/Gau-90230.inp" -scrdir="/scratch/boittier/butane_opt_2189_energy/"
 Entering Link 1 = /opt/cluster/programs/g09/g09_d.01/g09/l1.exe PID=     90231.
  
 Copyright (c) 1988,1990,1992,1993,1995,1998,2003,2009,2013,
            Gaussian, Inc.  All Rights Reserved.
  
 This is part of the Gaussian(R) 09 program.  It is based on
 the Gaussian(R) 03 system (copyright 2003, Gaussian, Inc.),
 the Gaussian(R) 98 system (copyright 1998, Gaussian, Inc.),
 the Gaussian(R) 94 system (copyright 1995, Gaussian, Inc.),
 the Gaussian 92(TM) system (copyright 1992, Gaussian, Inc.),
 the Gaussian 90(TM) system (copyright 1990, Gaussian, Inc.),
 the Gaussian 88(TM) system (copyright 1988, Gaussian, Inc.),
 the Gaussian 86(TM) system (copyright 1986, Carnegie Mellon
 University), and the Gaussian 82(TM) system (copyright 1983,
 Carnegie Mellon University). Gaussian is a federally registered
 trademark of Gaussian, Inc.
  
 This software contains proprietary and confidential information,
 including trade secrets, belonging to Gaussian, Inc.
  
 This software is provided under written license and may be
 used, copied, transmitted, or stored only in accord with that
 written license.
  
 The following legend is applicable only to US Government
 contracts under FAR:
  
                    RESTRICTED RIGHTS LEGEND
  
 Use, reproduction and disclosure by the US Government is
 subject to restrictions as set forth in subparagraphs (a)
 and (c) of the Commercial Computer Software - Restricted
 Rights clause in FAR 52.227-19.
  
 Gaussian, Inc.
 340 Quinnipiac St., Bldg. 40, Wallingford CT 06492
  
  
 ---------------------------------------------------------------
 Warning -- This program may not be used in any manner that
 competes with the business of Gaussian, Inc. or will provide
 assistance to any competitor of Gaussian, Inc.  The licensee
 of this program is prohibited from giving any competitor of
 Gaussian, Inc. access to this program.  By using this program,
 the user acknowledges that Gaussian, Inc. is engaged in the
 business of creating and licensing software in the field of
 computational chemistry and represents and warrants to the
 licensee that it is not a competitor of Gaussian, Inc. and that
 it will not use this program in any manner prohibited above.
 ---------------------------------------------------------------
  

 Cite this work as:
 Gaussian 09, Revision D.01,
 M. J. Frisch, G. W. Trucks, H. B. Schlegel, G. E. Scuseria, 
 M. A. Robb, J. R. Cheeseman, G. Scalmani, V. Barone, B. Mennucci, 
 G. A. Petersson, H. Nakatsuji, M. Caricato, X. Li, H. P. Hratchian, 
 A. F. Izmaylov, J. Bloino, G. Zheng, J. L. Sonnenberg, M. Hada, 
 M. Ehara, K. Toyota, R. Fukuda, J. Hasegawa, M. Ishida, T. Nakajima, 
 Y. Honda, O. Kitao, H. Nakai, T. Vreven, J. A. Montgomery, Jr., 
 J. E. Peralta, F. Ogliaro, M. Bearpark, J. J. Heyd, E. Brothers, 
 K. N. Kudin, V. N. Staroverov, T. Keith, R. Kobayashi, J. Normand, 
 K. Raghavachari, A. Rendell, J. C. Burant, S. S. Iyengar, J. Tomasi, 
 M. Cossi, N. Rega, J. M. Millam, M. Klene, J. E. Knox, J. B. Cross, 
 V. Bakken, C. Adamo, J. Jaramillo, R. Gomperts, R. E. Stratmann, 
 O. Yazyev, A. J. Austin, R. Cammi, C. Pomelli, J. W. Ochterski, 
 R. L. Martin, K. Morokuma, V. G. Zakrzewski, G. A. Voth, 
 P. Salvador, J. J. Dannenberg, S. Dapprich, A. D. Daniels, 
 O. Farkas, J. B. Foresman, J. V. Ortiz, J. Cioslowski, 
 and D. J. Fox, Gaussian, Inc., Wallingford CT, 2013.
 
 ******************************************
 Gaussian 09:  ES64L-G09RevD.01 24-Apr-2013
                26-Aug-2020 
 ******************************************
 %chk=/home/boittier/MDCM/nms_sampling/butane_geom.xyz.dir/butane_opt_2189.chk
 %nproc=8
 Will use up to    8 processors via shared memory.
 %mem=16000MB
 --------------------
 #p B2PLYPD3/Def2QZVP
 --------------------
 1/38=1/1;
 2/12=2,17=6,18=5,40=1/2;
 3/5=45,7=101,11=9,16=1,25=1,30=1,74=-60/1,2,3;
 4//1;
 5/5=2,38=5/2;
 8/10=1/1;
 9/16=-3/6;
 6/7=2,8=2,9=2,10=2/1;
 99/5=1,9=1/99;
 Leave Link    1 at Wed Aug 26 15:16:40 2020, MaxMem=  2097152000 cpu:         0.2
 (Enter /opt/cluster/programs/g09/g09_d.01/g09/l101.exe)
 ----------
 butane_opt
 ----------
 Symbolic Z-matrix:
 Charge =  0 Multiplicity = 1
 C                    -4.01748   0.28086  -0.19622 
 C                    -2.70009  -0.64572   0.20369 
 H                    -4.77509  -0.23736  -0.00703 
 H                    -3.82582   1.07355  -1.19032 
 H                    -3.97488   0.88239   0.5258 
 C                    -1.35589   0.17656   0.26644 
 H                    -2.49698  -1.26477  -0.56152 
 H                    -2.96432  -1.26063   1.06777 
 C                    -0.14751  -0.72629  -0.15061 
 H                    -0.97858   0.91423   1.24012 
 H                    -1.65591   0.75488  -0.3556 
 H                     0.32569  -1.28544   0.74478 
 H                     0.78419  -0.01011  -0.60617 
 H                    -0.8108   -1.04293  -0.85205 
 
 NAtoms=     14 NQM=       14 NQMF=       0 NMMI=      0 NMMIF=      0
                NMic=       0 NMicF=      0.
                    Isotopes and Nuclear Properties:
 (Nuclear quadrupole moments (NQMom) in fm**2, nuclear magnetic moments (NMagM)
  in nuclear magnetons)

  Atom         1           2           3           4           5           6           7           8           9          10
 IAtWgt=          12          12           1           1           1          12           1           1          12           1
 AtmWgt=  12.0000000  12.0000000   1.0078250   1.0078250   1.0078250  12.0000000   1.0078250   1.0078250  12.0000000   1.0078250
 NucSpn=           0           0           1           1           1           0           1           1           0           1
 AtZEff=   0.0000000   0.0000000   0.0000000   0.0000000   0.0000000   0.0000000   0.0000000   0.0000000   0.0000000   0.0000000
 NQMom=    0.0000000   0.0000000   0.0000000   0.0000000   0.0000000   0.0000000   0.0000000   0.0000000   0.0000000   0.0000000
 NMagM=    0.0000000   0.0000000   2.7928460   2.7928460   2.7928460   0.0000000   2.7928460   2.7928460   0.0000000   2.7928460
 AtZNuc=   6.0000000   6.0000000   1.0000000   1.0000000   1.0000000   6.0000000   1.0000000   1.0000000   6.0000000   1.0000000

  Atom        11          12          13          14
 IAtWgt=           1           1           1           1
 AtmWgt=   1.0078250   1.0078250   1.0078250   1.0078250
 NucSpn=           1           1           1           1
 AtZEff=   0.0000000   0.0000000   0.0000000   0.0000000
 NQMom=    0.0000000   0.0000000   0.0000000   0.0000000
 NMagM=    2.7928460   2.7928460   2.7928460   2.7928460
 AtZNuc=   1.0000000   1.0000000   1.0000000   1.0000000
 Leave Link  101 at Wed Aug 26 15:16:40 2020, MaxMem=  2097152000 cpu:         0.5
 (Enter /opt/cluster/programs/g09/g09_d.01/g09/l202.exe)
                          Input orientation:                          
 ---------------------------------------------------------------------
 Center     Atomic      Atomic             Coordinates (Angstroms)
 Number     Number       Type             X           Y           Z
 ---------------------------------------------------------------------
      1          6           0       -4.017478    0.280859   -0.196216
      2          6           0       -2.700088   -0.645718    0.203691
      3          1           0       -4.775088   -0.237363   -0.007027
      4          1           0       -3.825817    1.073550   -1.190318
      5          1           0       -3.974881    0.882386    0.525804
      6          6           0       -1.355894    0.176563    0.266436
      7          1           0       -2.496982   -1.264766   -0.561523
      8          1           0       -2.964323   -1.260628    1.067772
      9          6           0       -0.147512   -0.726294   -0.150614
     10          1           0       -0.978581    0.914229    1.240121
     11          1           0       -1.655909    0.754884   -0.355604
     12          1           0        0.325694   -1.285439    0.744783
     13          1           0        0.784190   -0.010112   -0.606169
     14          1           0       -0.810796   -1.042926   -0.852052
 ---------------------------------------------------------------------
                    Distance matrix (angstroms):
                    1          2          3          4          5
     1  C    0.000000
     2  C    1.659514   0.000000
     3  H    0.937187   2.125272   0.000000
     4  H    1.285819   2.483226   2.004940   0.000000
     5  H    0.940724   2.015926   1.475831   1.733159   0.000000
     6  C    2.703508   1.577004   3.454997   3.004536   2.724803
     7  H    2.198707   1.005000   2.559842   2.762048   2.824310
     8  H    2.254547   1.092964   2.341182   3.359989   2.430528
     9  C    3.999134   2.578307   4.655548   4.224968   4.206441
    10  H    3.420397   2.543857   4.158727   3.746888   3.080434
    11  H    2.413941   1.834341   3.291707   2.346656   2.484103
    12  H    4.711890   3.139647   5.261336   5.152134   4.821033
    13  H    4.827913   3.633189   5.596087   4.771553   4.972592
    14  H    3.530628   2.200407   4.132628   3.699222   3.951803
                    6          7          8          9         10
     6  C    0.000000
     7  H    2.016191   0.000000
     8  H    2.301022   1.695001   0.000000
     9  C    1.565014   2.445160   3.115189   0.000000
    10  H    1.278506   3.209281   2.950064   2.305675   0.000000
    11  H    0.900776   2.197451   2.792890   2.123952   1.740834
    12  H    2.279036   3.110364   3.305926   1.156850   2.604809
    13  H    2.318673   3.513152   4.291529   1.260363   2.714877
    14  H    1.742211   1.725353   2.893233   1.015981   2.869808
                   11         12         13         14
    11  H    0.000000
    12  H    3.049675   0.000000
    13  H    2.569452   1.913570   0.000000
    14  H    2.047632   1.974919   1.916023   0.000000
 Stoichiometry    C4H10
 Framework group  C1[X(C4H10)]
 Deg. of freedom    36
 Full point group                 C1      NOp   1
 Largest Abelian subgroup         C1      NOp   1
 Largest concise Abelian subgroup C1      NOp   1
                         Standard orientation:                         
 ---------------------------------------------------------------------
 Center     Atomic      Atomic             Coordinates (Angstroms)
 Number     Number       Type             X           Y           Z
 ---------------------------------------------------------------------
      1          6           0       -2.026598    0.143087   -0.164488
      2          6           0       -0.557514   -0.564338    0.144263
      3          1           0       -2.675951   -0.516899   -0.019305
      4          1           0       -1.999436    1.041493   -1.083977
      5          1           0       -2.076749    0.676738    0.608599
      6          6           0        0.620089    0.476419    0.274704
      7          1           0       -0.263402   -1.067406   -0.674545
      8          1           0       -0.690362   -1.290092    0.950614
      9          6           0        1.960876   -0.155497   -0.227534
     10          1           0        0.880234    1.181253    1.309166
     11          1           0        0.209289    1.044107   -0.291311
     12          1           0        2.544294   -0.697422    0.611658
     13          1           0        2.740829    0.753024   -0.620953
     14          1           0        1.350137   -0.522823   -0.951610
 ---------------------------------------------------------------------
 Rotational constants (GHZ):     20.9824154      3.4813017      3.3192823
 Leave Link  202 at Wed Aug 26 15:16:40 2020, MaxMem=  2097152000 cpu:         0.0
 (Enter /opt/cluster/programs/g09/g09_d.01/g09/l301.exe)
 Standard basis: def2QZVP (5D, 7F)
 Ernie: Thresh=  0.10000D-02 Tol=  0.10000D-05 Strict=F.
 There are   638 symmetry adapted cartesian basis functions of A   symmetry.
 There are   528 symmetry adapted basis functions of A   symmetry.
   528 basis functions,   748 primitive gaussians,   638 cartesian basis functions
    17 alpha electrons       17 beta electrons
       nuclear repulsion energy       129.3744977021 Hartrees.
 IExCor=  419 DFT=T Ex+Corr=B2PLYPD3 ExCW=0 ScaHFX=  0.530000
 ScaDFX=  0.470000  0.470000  0.730000  0.730000 ScalE2=  0.270000  0.270000
 IRadAn=      0 IRanWt=     -1 IRanGd=            0 ICorTp=0 IEmpDi=141
 NAtoms=   14 NActive=   14 NUniq=   14 SFac= 1.00D+00 NAtFMM=   60 NAOKFM=F Big=F
 Integral buffers will be    131072 words long.
 Regular integral format.
 Two-electron integral symmetry is turned on.
 R6Disp:  Grimme-D3(BJ) Dispersion energy=       -0.0064192021 Hartrees.
 Nuclear repulsion after empirical dispersion term =      129.3680785000 Hartrees.
 Leave Link  301 at Wed Aug 26 15:16:40 2020, MaxMem=  2097152000 cpu:         0.5
 (Enter /opt/cluster/programs/g09/g09_d.01/g09/l302.exe)
 NPDir=0 NMtPBC=     1 NCelOv=     1 NCel=       1 NClECP=     1 NCelD=      1
         NCelK=      1 NCelE2=     1 NClLst=     1 CellRange=     0.0.
 One-electron integrals computed using PRISM.
   1 Symmetry operations used in ECPInt.
 ECPInt:  NShTT=   14196 NPrTT=   30597 LenC2=   13858 LenP2D=   25923.
 LDataN:  DoStor=T MaxTD1= 8 Len=  415
 NBasis=   528 RedAO= T EigKep=  3.12D-05  NBF=   528
 NBsUse=   528 1.00D-06 EigRej= -1.00D+00 NBFU=   528
 Precomputing XC quadrature grid using
 IXCGrd= 4 IRadAn=           0 IRanWt=          -1 IRanGd=           0 AccXCQ= 0.00D+00.
 Generated NRdTot=       0 NPtTot=           0 NUsed=           0 NTot=          32
 NSgBfM=   638   638   638   638   638 MxSgAt=    14 MxSgA2=    14.
 Leave Link  302 at Wed Aug 26 15:16:41 2020, MaxMem=  2097152000 cpu:         4.8
 (Enter /opt/cluster/programs/g09/g09_d.01/g09/l303.exe)
 DipDrv:  MaxL=1.
 Leave Link  303 at Wed Aug 26 15:16:41 2020, MaxMem=  2097152000 cpu:         0.5
 (Enter /opt/cluster/programs/g09/g09_d.01/g09/l401.exe)
 ExpMin= 7.60D-02 ExpMax= 6.70D+04 ExpMxC= 6.47D+02 IAcc=2 IRadAn=         4 AccDes= 0.00D+00
 Harris functional with IExCor=  419 and IRadAn=       4 diagonalized for initial guess.
 HarFok:  IExCor=  419 AccDes= 0.00D+00 IRadAn=         4 IDoV= 1 UseB2=F ITyADJ=14
 ICtDFT=  3500011 ScaDFX=  1.000000  1.000000  1.000000  1.000000
 FoFCou: FMM=F IPFlag=           0 FMFlag=      100000 FMFlg1=           0
         NFxFlg=           0 DoJE=T BraDBF=F KetDBF=T FulRan=T
         wScrn=  0.000000 ICntrl=     500 IOpCl=  0 I1Cent=   200000004 NGrid=           0
         NMat0=    1 NMatS0=      1 NMatT0=    0 NMatD0=    1 NMtDS0=    0 NMtDT0=    0
 Petite list used in FoFCou.
 Harris En= -158.453367381468    
 JPrj=0 DoOrth=F DoCkMO=F.
 Leave Link  401 at Wed Aug 26 15:16:43 2020, MaxMem=  2097152000 cpu:        14.6
 (Enter /opt/cluster/programs/g09/g09_d.01/g09/l502.exe)
 Closed shell SCF:
 Using DIIS extrapolation, IDIIS=  1040.
 Integral symmetry usage will be decided dynamically.
 IVT=     1249338 IEndB=     1249338 NGot=  2097152000 MDV=  2096326985
 LenX=  2096326985 LenY=  2095919303
 Requested convergence on RMS density matrix=1.00D-08 within 128 cycles.
 Requested convergence on MAX density matrix=1.00D-06.
 Requested convergence on             energy=1.00D-06.
 No special actions if energy rises.
 Fock matrices will be formed incrementally for  20 cycles.
 Integral accuracy reduced to 1.0D-05 until final iterations.

 Cycle   1  Pass 0  IDiag  1:
 FoFJK:  IHMeth= 1 ICntrl=       0 DoSepK=F KAlg= 0 I1Cent=   0 FoldK=F
 IRaf= 940000000 NMat=   1 IRICut=       1 DoRegI=T DoRafI=F ISym2E= 0.
 FoFCou: FMM=F IPFlag=           0 FMFlag=      100000 FMFlg1=           0
         NFxFlg=           0 DoJE=F BraDBF=F KetDBF=F FulRan=T
         wScrn=  0.000000 ICntrl=       0 IOpCl=  0 I1Cent=           0 NGrid=           0
         NMat0=    1 NMatS0=      1 NMatT0=    0 NMatD0=    1 NMtDS0=    0 NMtDT0=    0
 Symmetry not used in FoFCou.
 E= -157.649250264075    
 DIIS: error= 2.17D-02 at cycle   1 NSaved=   1.
 NSaved= 1 IEnMin= 1 EnMin= -157.649250264075     IErMin= 1 ErrMin= 2.17D-02
 ErrMax= 2.17D-02  0.00D+00 EMaxC= 1.00D-01 BMatC= 3.47D-01 BMatP= 3.47D-01
 IDIUse=3 WtCom= 7.83D-01 WtEn= 2.17D-01
 Coeff-Com:  0.100D+01
 Coeff-En:   0.100D+01
 Coeff:      0.100D+01
 Gap=     0.353 Goal=   None    Shift=    0.000
 GapD=    0.353 DampG=1.000 DampE=0.500 DampFc=0.5000 IDamp=-1.
 Damping current iteration by 5.00D-01
 RMSDP=9.78D-04 MaxDP=5.99D-02              OVMax= 1.86D-01

 Cycle   2  Pass 0  IDiag  1:
 RMSU=  4.65D-04    CP:  9.50D-01
 E= -157.792851509293     Delta-E=       -0.143601245218 Rises=F Damp=T
 DIIS: error= 4.47D-03 at cycle   2 NSaved=   2.
 NSaved= 2 IEnMin= 2 EnMin= -157.792851509293     IErMin= 2 ErrMin= 4.47D-03
 ErrMax= 4.47D-03  0.00D+00 EMaxC= 1.00D-01 BMatC= 3.31D-02 BMatP= 3.47D-01
 IDIUse=3 WtCom= 9.55D-01 WtEn= 4.47D-02
 Coeff-Com: -0.198D+00 0.120D+01
 Coeff-En:   0.000D+00 0.100D+01
 Coeff:     -0.189D+00 0.119D+01
 Gap=     0.441 Goal=   None    Shift=    0.000
 RMSDP=2.35D-04 MaxDP=8.66D-03 DE=-1.44D-01 OVMax= 1.07D-01

 Cycle   3  Pass 0  IDiag  1:
 RMSU=  2.28D-04    CP:  9.39D-01  8.98D-01
 E= -157.923121549601     Delta-E=       -0.130270040307 Rises=F Damp=F
 DIIS: error= 2.63D-03 at cycle   3 NSaved=   3.
 NSaved= 3 IEnMin= 3 EnMin= -157.923121549601     IErMin= 3 ErrMin= 2.63D-03
 ErrMax= 2.63D-03  0.00D+00 EMaxC= 1.00D-01 BMatC= 3.17D-03 BMatP= 3.31D-02
 IDIUse=3 WtCom= 9.74D-01 WtEn= 2.63D-02
 Coeff-Com: -0.105D+00 0.232D+00 0.873D+00
 Coeff-En:   0.000D+00 0.000D+00 0.100D+01
 Coeff:     -0.102D+00 0.226D+00 0.877D+00
 Gap=     0.402 Goal=   None    Shift=    0.000
 RMSDP=6.55D-05 MaxDP=5.84D-03 DE=-1.30D-01 OVMax= 1.73D-02

 Cycle   4  Pass 0  IDiag  1:
 RMSU=  5.00D-05    CP:  9.34D-01  9.83D-01  9.76D-01
 E= -157.926140555227     Delta-E=       -0.003019005626 Rises=F Damp=F
 DIIS: error= 7.82D-04 at cycle   4 NSaved=   4.
 NSaved= 4 IEnMin= 4 EnMin= -157.926140555227     IErMin= 4 ErrMin= 7.82D-04
 ErrMax= 7.82D-04  0.00D+00 EMaxC= 1.00D-01 BMatC= 3.25D-04 BMatP= 3.17D-03
 IDIUse=3 WtCom= 9.92D-01 WtEn= 7.82D-03
 Coeff-Com: -0.340D-01 0.552D-01 0.338D+00 0.640D+00
 Coeff-En:   0.000D+00 0.000D+00 0.000D+00 0.100D+01
 Coeff:     -0.337D-01 0.547D-01 0.336D+00 0.643D+00
 Gap=     0.405 Goal=   None    Shift=    0.000
 RMSDP=2.06D-05 MaxDP=1.68D-03 DE=-3.02D-03 OVMax= 5.38D-03

 Cycle   5  Pass 0  IDiag  1:
 RMSU=  1.55D-05    CP:  9.34D-01  9.71D-01  1.01D+00  8.22D-01
 E= -157.926448451972     Delta-E=       -0.000307896746 Rises=F Damp=F
 DIIS: error= 1.58D-04 at cycle   5 NSaved=   5.
 NSaved= 5 IEnMin= 5 EnMin= -157.926448451972     IErMin= 5 ErrMin= 1.58D-04
 ErrMax= 1.58D-04  0.00D+00 EMaxC= 1.00D-01 BMatC= 1.61D-05 BMatP= 3.25D-04
 IDIUse=3 WtCom= 9.98D-01 WtEn= 1.58D-03
 Coeff-Com: -0.307D-02 0.838D-03 0.467D-01 0.215D+00 0.740D+00
 Coeff-En:   0.000D+00 0.000D+00 0.000D+00 0.000D+00 0.100D+01
 Coeff:     -0.307D-02 0.836D-03 0.467D-01 0.215D+00 0.741D+00
 Gap=     0.405 Goal=   None    Shift=    0.000
 RMSDP=4.63D-06 MaxDP=3.23D-04 DE=-3.08D-04 OVMax= 1.13D-03

 Initial convergence to 1.0D-05 achieved.  Increase integral accuracy.
 Cycle   6  Pass 1  IDiag  1:
 E= -157.926465052640     Delta-E=       -0.000016600667 Rises=F Damp=F
 DIIS: error= 7.35D-05 at cycle   1 NSaved=   1.
 NSaved= 1 IEnMin= 1 EnMin= -157.926465052640     IErMin= 1 ErrMin= 7.35D-05
 ErrMax= 7.35D-05  0.00D+00 EMaxC= 1.00D-01 BMatC= 1.01D-06 BMatP= 1.01D-06
 IDIUse=1 WtCom= 1.00D+00 WtEn= 0.00D+00
 Coeff-Com:  0.100D+01
 Coeff:      0.100D+01
 Gap=     0.405 Goal=   None    Shift=    0.000
 RMSDP=4.63D-06 MaxDP=3.23D-04 DE=-1.66D-05 OVMax= 2.10D-04

 Cycle   7  Pass 1  IDiag  1:
 RMSU=  3.03D-05    CP:  1.00D+00
 E= -157.926465687025     Delta-E=       -0.000000634385 Rises=F Damp=F
 DIIS: error= 8.58D-06 at cycle   2 NSaved=   2.
 NSaved= 2 IEnMin= 2 EnMin= -157.926465687025     IErMin= 2 ErrMin= 8.58D-06
 ErrMax= 8.58D-06  0.00D+00 EMaxC= 1.00D-01 BMatC= 4.52D-08 BMatP= 1.01D-06
 IDIUse=1 WtCom= 1.00D+00 WtEn= 0.00D+00
 Coeff-Com:  0.576D-01 0.942D+00
 Coeff:      0.576D-01 0.942D+00
 Gap=     0.405 Goal=   None    Shift=    0.000
 RMSDP=1.01D-06 MaxDP=7.25D-05 DE=-6.34D-07 OVMax= 8.56D-05

 Cycle   8  Pass 1  IDiag  1:
 RMSU=  5.21D-07    CP:  1.00D+00  1.03D+00
 E= -157.926465723466     Delta-E=       -0.000000036441 Rises=F Damp=F
 DIIS: error= 6.19D-06 at cycle   3 NSaved=   3.
 NSaved= 3 IEnMin= 3 EnMin= -157.926465723466     IErMin= 3 ErrMin= 6.19D-06
 ErrMax= 6.19D-06  0.00D+00 EMaxC= 1.00D-01 BMatC= 2.00D-08 BMatP= 4.52D-08
 IDIUse=1 WtCom= 1.00D+00 WtEn= 0.00D+00
 Coeff-Com: -0.165D-01 0.387D+00 0.630D+00
 Coeff:     -0.165D-01 0.387D+00 0.630D+00
 Gap=     0.405 Goal=   None    Shift=    0.000
 RMSDP=1.90D-07 MaxDP=1.25D-05 DE=-3.64D-08 OVMax= 4.11D-05

 Cycle   9  Pass 1  IDiag  1:
 RMSU=  1.65D-07    CP:  1.00D+00  1.03D+00  9.67D-01
 E= -157.926465743102     Delta-E=       -0.000000019636 Rises=F Damp=F
 DIIS: error= 1.53D-06 at cycle   4 NSaved=   4.
 NSaved= 4 IEnMin= 4 EnMin= -157.926465743102     IErMin= 4 ErrMin= 1.53D-06
 ErrMax= 1.53D-06  0.00D+00 EMaxC= 1.00D-01 BMatC= 6.69D-10 BMatP= 2.00D-08
 IDIUse=1 WtCom= 1.00D+00 WtEn= 0.00D+00
 Coeff-Com: -0.793D-02 0.316D-01 0.152D+00 0.824D+00
 Coeff:     -0.793D-02 0.316D-01 0.152D+00 0.824D+00
 Gap=     0.405 Goal=   None    Shift=    0.000
 RMSDP=5.04D-08 MaxDP=2.35D-06 DE=-1.96D-08 OVMax= 1.11D-05

 Cycle  10  Pass 1  IDiag  1:
 RMSU=  3.93D-08    CP:  1.00D+00  1.03D+00  1.02D+00  1.08D+00
 E= -157.926465743945     Delta-E=       -0.000000000843 Rises=F Damp=F
 DIIS: error= 5.19D-07 at cycle   5 NSaved=   5.
 NSaved= 5 IEnMin= 5 EnMin= -157.926465743945     IErMin= 5 ErrMin= 5.19D-07
 ErrMax= 5.19D-07  0.00D+00 EMaxC= 1.00D-01 BMatC= 5.06D-11 BMatP= 6.69D-10
 IDIUse=1 WtCom= 1.00D+00 WtEn= 0.00D+00
 Coeff-Com:  0.552D-03-0.424D-01-0.495D-01 0.163D+00 0.928D+00
 Coeff:      0.552D-03-0.424D-01-0.495D-01 0.163D+00 0.928D+00
 Gap=     0.405 Goal=   None    Shift=    0.000
 RMSDP=2.06D-08 MaxDP=1.03D-06 DE=-8.43D-10 OVMax= 3.36D-06

 Cycle  11  Pass 1  IDiag  1:
 RMSU=  1.38D-08    CP:  1.00D+00  1.03D+00  1.04D+00  1.14D+00  1.11D+00
 E= -157.926465744016     Delta-E=       -0.000000000071 Rises=F Damp=F
 DIIS: error= 5.23D-08 at cycle   6 NSaved=   6.
 NSaved= 6 IEnMin= 6 EnMin= -157.926465744016     IErMin= 6 ErrMin= 5.23D-08
 ErrMax= 5.23D-08  0.00D+00 EMaxC= 1.00D-01 BMatC= 1.03D-12 BMatP= 5.06D-11
 IDIUse=1 WtCom= 1.00D+00 WtEn= 0.00D+00
 Coeff-Com:  0.269D-03-0.114D-01-0.153D-01 0.321D-01 0.241D+00 0.754D+00
 Coeff:      0.269D-03-0.114D-01-0.153D-01 0.321D-01 0.241D+00 0.754D+00
 Gap=     0.405 Goal=   None    Shift=    0.000
 RMSDP=2.23D-09 MaxDP=1.11D-07 DE=-7.15D-11 OVMax= 4.54D-07

 SCF Done:  E(RB2PLYPD3) =  -157.926465744     A.U. after   11 cycles
            NFock= 11  Conv=0.22D-08     -V/T= 2.0012
 KE= 1.577427488364D+02 PE=-6.243787961350D+02 EE= 1.793415030546D+02
 Leave Link  502 at Wed Aug 26 15:22:47 2020, MaxMem=  2097152000 cpu:      2902.0
 (Enter /opt/cluster/programs/g09/g09_d.01/g09/l801.exe)
 DoSCS=T DFT=T ScalE2(SS,OS)=  0.270000  0.270000
 ExpMin= 7.60D-02 ExpMax= 6.70D+04 ExpMxC= 6.47D+02 IAcc=3 IRadAn=         5 AccDes= 0.00D+00
 HarFok:  IExCor=  205 AccDes= 0.00D+00 IRadAn=         5 IDoV=-2 UseB2=F ITyADJ=14
 ICtDFT= 12500011 ScaDFX=  1.000000  1.000000  1.000000  1.000000
 Largest valence mixing into a core orbital is  1.15D-04
 Largest core mixing into a valence orbital is  1.62D-05
 Range of M.O.s used for correlation:     5   528
 NBasis=   528 NAE=    17 NBE=    17 NFC=     4 NFV=     0
 NROrb=    524 NOA=    13 NOB=    13 NVA=   511 NVB=   511

 **** Warning!!: The largest alpha MO coefficient is  0.31585054D+02

 Leave Link  801 at Wed Aug 26 15:22:47 2020, MaxMem=  2097152000 cpu:         1.1
 (Enter /opt/cluster/programs/g09/g09_d.01/g09/l906.exe)
 DoSCS=T DFT=T ScalE2(SS,OS)=  0.270000  0.270000
 FulOut=F Deriv=F AODrv=F NAtomX=    14
   MMem=         463  MDisk=          13 MDiskD=          13
  W3Min=     4238234 MinDsk=     6904766 NBas6D=         638
 NBas2D=      205689    NTT=      203841    LW2=     4508827
    MDV=  2095898664 MDiskM=        7293 NBas2p=      190263
 Fully direct method using O(OVN) memory.
 IMap=   1   2   3   4   5   6   7   8   9  10  11  12  13
 JobTyp=1 Pass  1:  I=   1 to  13 NPSUse=  8 ParTrn=T ParDer=T DoDerP=F.
 Spin components of T(2) and E(2):
     alpha-alpha T2 =       0.4195800521D-01 E2=     -0.2665556925D-01
     alpha-beta  T2 =       0.2776434814D+00 E2=     -0.1971475243D+00
     beta-beta   T2 =       0.4195800521D-01 E2=     -0.2665556925D-01
 The integrals were generated   1 times.
 E2(B2PLYPD3) =    -0.2504586628D+00 E(B2PLYPD3) =    -0.15817692440680D+03
 Leave Link  906 at Wed Aug 26 15:27:03 2020, MaxMem=  2097152000 cpu:      2040.5
 (Enter /opt/cluster/programs/g09/g09_d.01/g09/l601.exe)
 Copying SCF densities to generalized density rwf, IOpCl= 0 IROHF=0.

 **********************************************************************

            Population analysis using the SCF density.

 **********************************************************************

 Orbital symmetries:
       Occupied  (A) (A) (A) (A) (A) (A) (A) (A) (A) (A) (A) (A)
                 (A) (A) (A) (A) (A)
       Virtual   (A) (A) (A) (A) (A) (A) (A) (A) (A) (A) (A) (A)
                 (A) (A) (A) (A) (A) (A) (A) (A) (A) (A) (A) (A)
                 (A) (A) (A) (A) (A) (A) (A) (A) (A) (A) (A) (A)
                 (A) (A) (A) (A) (A) (A) (A) (A) (A) (A) (A) (A)
                 (A) (A) (A) (A) (A) (A) (A) (A) (A) (A) (A) (A)
                 (A) (A) (A) (A) (A) (A) (A) (A) (A) (A) (A) (A)
                 (A) (A) (A) (A) (A) (A) (A) (A) (A) (A) (A) (A)
                 (A) (A) (A) (A) (A) (A) (A) (A) (A) (A) (A) (A)
                 (A) (A) (A) (A) (A) (A) (A) (A) (A) (A) (A) (A)
                 (A) (A) (A) (A) (A) (A) (A) (A) (A) (A) (A) (A)
                 (A) (A) (A) (A) (A) (A) (A) (A) (A) (A) (A) (A)
                 (A) (A) (A) (A) (A) (A) (A) (A) (A) (A) (A) (A)
                 (A) (A) (A) (A) (A) (A) (A) (A) (A) (A) (A) (A)
                 (A) (A) (A) (A) (A) (A) (A) (A) (A) (A) (A) (A)
                 (A) (A) (A) (A) (A) (A) (A) (A) (A) (A) (A) (A)
                 (A) (A) (A) (A) (A) (A) (A) (A) (A) (A) (A) (A)
                 (A) (A) (A) (A) (A) (A) (A) (A) (A) (A) (A) (A)
                 (A) (A) (A) (A) (A) (A) (A) (A) (A) (A) (A) (A)
                 (A) (A) (A) (A) (A) (A) (A) (A) (A) (A) (A) (A)
                 (A) (A) (A) (A) (A) (A) (A) (A) (A) (A) (A) (A)
                 (A) (A) (A) (A) (A) (A) (A) (A) (A) (A) (A) (A)
                 (A) (A) (A) (A) (A) (A) (A) (A) (A) (A) (A) (A)
                 (A) (A) (A) (A) (A) (A) (A) (A) (A) (A) (A) (A)
                 (A) (A) (A) (A) (A) (A) (A) (A) (A) (A) (A) (A)
                 (A) (A) (A) (A) (A) (A) (A) (A) (A) (A) (A) (A)
                 (A) (A) (A) (A) (A) (A) (A) (A) (A) (A) (A) (A)
                 (A) (A) (A) (A) (A) (A) (A) (A) (A) (A) (A) (A)
                 (A) (A) (A) (A) (A) (A) (A) (A) (A) (A) (A) (A)
                 (A) (A) (A) (A) (A) (A) (A) (A) (A) (A) (A) (A)
                 (A) (A) (A) (A) (A) (A) (A) (A) (A) (A) (A) (A)
                 (A) (A) (A) (A) (A) (A) (A) (A) (A) (A) (A) (A)
                 (A) (A) (A) (A) (A) (A) (A) (A) (A) (A) (A) (A)
                 (A) (A) (A) (A) (A) (A) (A) (A) (A) (A) (A) (A)
                 (A) (A) (A) (A) (A) (A) (A) (A) (A) (A) (A) (A)
                 (A) (A) (A) (A) (A) (A) (A) (A) (A) (A) (A) (A)
                 (A) (A) (A) (A) (A) (A) (A) (A) (A) (A) (A) (A)
                 (A) (A) (A) (A) (A) (A) (A) (A) (A) (A) (A) (A)
                 (A) (A) (A) (A) (A) (A) (A) (A) (A) (A) (A) (A)
                 (A) (A) (A) (A) (A) (A) (A) (A) (A) (A) (A) (A)
                 (A) (A) (A) (A) (A) (A) (A) (A) (A) (A) (A) (A)
                 (A) (A) (A) (A) (A) (A) (A) (A) (A) (A) (A) (A)
                 (A) (A) (A) (A) (A) (A) (A) (A) (A) (A) (A) (A)
                 (A) (A) (A) (A) (A) (A) (A)
 The electronic state is 1-A.
 Alpha  occ. eigenvalues --  -10.61821 -10.61231 -10.60739 -10.59520  -0.92235
 Alpha  occ. eigenvalues --   -0.83987  -0.74013  -0.68571  -0.54884  -0.51512
 Alpha  occ. eigenvalues --   -0.49247  -0.46768  -0.43290  -0.40706  -0.38272
 Alpha  occ. eigenvalues --   -0.36963  -0.35070
 Alpha virt. eigenvalues --    0.05431   0.06597   0.08008   0.08748   0.10954
 Alpha virt. eigenvalues --    0.11175   0.12325   0.13688   0.14727   0.15065
 Alpha virt. eigenvalues --    0.15982   0.16628   0.17733   0.19350   0.20828
 Alpha virt. eigenvalues --    0.22286   0.23251   0.24253   0.26451   0.28936
 Alpha virt. eigenvalues --    0.30449   0.31206   0.31846   0.32326   0.33575
 Alpha virt. eigenvalues --    0.35076   0.36194   0.36861   0.38173   0.39255
 Alpha virt. eigenvalues --    0.39724   0.41256   0.45288   0.45906   0.47256
 Alpha virt. eigenvalues --    0.47793   0.50813   0.51489   0.55353   0.57087
 Alpha virt. eigenvalues --    0.58063   0.61421   0.64206   0.66302   0.67267
 Alpha virt. eigenvalues --    0.68645   0.69162   0.70720   0.71536   0.71990
 Alpha virt. eigenvalues --    0.74724   0.75603   0.75927   0.77052   0.77881
 Alpha virt. eigenvalues --    0.80840   0.81600   0.84498   0.84640   0.87116
 Alpha virt. eigenvalues --    0.88223   0.88825   0.89624   0.91022   0.91798
 Alpha virt. eigenvalues --    0.92754   0.94805   0.94922   0.96197   0.97418
 Alpha virt. eigenvalues --    0.97840   0.99256   1.00837   1.02229   1.03436
 Alpha virt. eigenvalues --    1.04797   1.05144   1.07411   1.08862   1.11391
 Alpha virt. eigenvalues --    1.12060   1.13184   1.14936   1.16852   1.19337
 Alpha virt. eigenvalues --    1.21980   1.22732   1.25985   1.27268   1.28077
 Alpha virt. eigenvalues --    1.28835   1.31305   1.32622   1.34167   1.37369
 Alpha virt. eigenvalues --    1.38950   1.41002   1.41394   1.44881   1.47051
 Alpha virt. eigenvalues --    1.49572   1.51675   1.53091   1.56206   1.62660
 Alpha virt. eigenvalues --    1.62954   1.66526   1.67756   1.70106   1.74444
 Alpha virt. eigenvalues --    1.76694   1.81379   1.84611   1.86241   1.88309
 Alpha virt. eigenvalues --    1.88596   1.91019   1.91897   1.93746   1.95609
 Alpha virt. eigenvalues --    1.97426   2.00355   2.00572   2.02762   2.03164
 Alpha virt. eigenvalues --    2.05303   2.06391   2.06751   2.08245   2.10621
 Alpha virt. eigenvalues --    2.11606   2.12737   2.14463   2.15679   2.16621
 Alpha virt. eigenvalues --    2.17628   2.17899   2.19787   2.21343   2.22107
 Alpha virt. eigenvalues --    2.25086   2.26319   2.27369   2.28120   2.29950
 Alpha virt. eigenvalues --    2.31794   2.33277   2.34383   2.37108   2.38850
 Alpha virt. eigenvalues --    2.39793   2.41848   2.44072   2.45127   2.47461
 Alpha virt. eigenvalues --    2.49709   2.50967   2.52043   2.53078   2.54498
 Alpha virt. eigenvalues --    2.56377   2.57723   2.58941   2.60913   2.61776
 Alpha virt. eigenvalues --    2.62190   2.63890   2.66388   2.67742   2.69148
 Alpha virt. eigenvalues --    2.70711   2.72261   2.72894   2.74820   2.76958
 Alpha virt. eigenvalues --    2.78126   2.79401   2.80818   2.82752   2.83614
 Alpha virt. eigenvalues --    2.84968   2.85804   2.87569   2.89080   2.91825
 Alpha virt. eigenvalues --    2.94979   2.96268   2.97640   3.00503   3.02528
 Alpha virt. eigenvalues --    3.04314   3.05612   3.08085   3.08854   3.11706
 Alpha virt. eigenvalues --    3.13549   3.15366   3.17846   3.18881   3.20234
 Alpha virt. eigenvalues --    3.23358   3.25545   3.27895   3.29622   3.30781
 Alpha virt. eigenvalues --    3.31927   3.34978   3.36823   3.42201   3.42566
 Alpha virt. eigenvalues --    3.43414   3.48284   3.50510   3.51357   3.53081
 Alpha virt. eigenvalues --    3.54674   3.57275   3.60342   3.63935   3.64481
 Alpha virt. eigenvalues --    3.66862   3.68594   3.70801   3.72370   3.74851
 Alpha virt. eigenvalues --    3.78105   3.82399   3.84734   3.88350   3.88476
 Alpha virt. eigenvalues --    3.90600   3.93285   3.97114   3.99492   4.00171
 Alpha virt. eigenvalues --    4.01769   4.04110   4.11462   4.15172   4.17435
 Alpha virt. eigenvalues --    4.18829   4.19644   4.23005   4.26628   4.29488
 Alpha virt. eigenvalues --    4.32583   4.37726   4.42650   4.44896   4.50475
 Alpha virt. eigenvalues --    4.51816   4.56009   4.61340   4.79033   4.90754
 Alpha virt. eigenvalues --    5.11733   5.17128   5.22831   5.23941   5.26456
 Alpha virt. eigenvalues --    5.33592   5.35659   5.37031   5.46313   5.49806
 Alpha virt. eigenvalues --    5.53650   5.55435   5.61647   5.63851   5.65943
 Alpha virt. eigenvalues --    5.66911   5.69564   5.70671   5.72308   5.75472
 Alpha virt. eigenvalues --    5.76283   5.79450   5.81516   5.83894   5.85291
 Alpha virt. eigenvalues --    5.86639   5.89925   5.91074   5.92620   5.93596
 Alpha virt. eigenvalues --    5.96083   5.97054   5.97967   6.01109   6.03781
 Alpha virt. eigenvalues --    6.04830   6.05477   6.06099   6.07167   6.07553
 Alpha virt. eigenvalues --    6.11672   6.13223   6.14607   6.15529   6.16746
 Alpha virt. eigenvalues --    6.18842   6.21265   6.22175   6.24374   6.26294
 Alpha virt. eigenvalues --    6.27673   6.30240   6.30917   6.32865   6.33369
 Alpha virt. eigenvalues --    6.35784   6.39214   6.41032   6.41649   6.43457
 Alpha virt. eigenvalues --    6.47470   6.47985   6.49838   6.52380   6.54748
 Alpha virt. eigenvalues --    6.56321   6.59976   6.63135   6.65303   6.65811
 Alpha virt. eigenvalues --    6.70562   6.71868   6.74686   6.75232   6.77086
 Alpha virt. eigenvalues --    6.78920   6.80059   6.81695   6.83201   6.85666
 Alpha virt. eigenvalues --    6.87144   6.88959   6.91227   6.93860   6.97850
 Alpha virt. eigenvalues --    6.99888   7.01400   7.02621   7.04715   7.05658
 Alpha virt. eigenvalues --    7.06926   7.07908   7.10806   7.12498   7.16816
 Alpha virt. eigenvalues --    7.18221   7.20194   7.21232   7.24572   7.25817
 Alpha virt. eigenvalues --    7.26853   7.29936   7.31144   7.33489   7.39636
 Alpha virt. eigenvalues --    7.42842   7.45203   7.47306   7.48884   7.53305
 Alpha virt. eigenvalues --    7.54055   7.54455   7.58078   7.59663   7.61898
 Alpha virt. eigenvalues --    7.64123   7.66493   7.67242   7.68039   7.71534
 Alpha virt. eigenvalues --    7.71854   7.72879   7.73426   7.78529   7.79790
 Alpha virt. eigenvalues --    7.83897   7.84224   7.87000   7.87160   7.88886
 Alpha virt. eigenvalues --    7.91531   7.92783   7.96702   7.97716   7.99828
 Alpha virt. eigenvalues --    8.01664   8.04784   8.06388   8.08415   8.10818
 Alpha virt. eigenvalues --    8.12421   8.16208   8.17243   8.18848   8.22105
 Alpha virt. eigenvalues --    8.23528   8.25444   8.26443   8.27478   8.28797
 Alpha virt. eigenvalues --    8.33726   8.34052   8.35302   8.35942   8.40278
 Alpha virt. eigenvalues --    8.42484   8.43213   8.44108   8.46285   8.49830
 Alpha virt. eigenvalues --    8.51244   8.52037   8.53594   8.55368   8.57381
 Alpha virt. eigenvalues --    8.58600   8.60130   8.62867   8.64274   8.65909
 Alpha virt. eigenvalues --    8.68098   8.71060   8.73452   8.76533   8.79631
 Alpha virt. eigenvalues --    8.82156   8.83838   8.87296   8.88428   8.89135
 Alpha virt. eigenvalues --    8.92327   8.96248   8.96446   8.97804   9.01276
 Alpha virt. eigenvalues --    9.03043   9.05985   9.07570   9.09008   9.11841
 Alpha virt. eigenvalues --    9.13409   9.15140   9.16179   9.18963   9.22036
 Alpha virt. eigenvalues --    9.23334   9.27668   9.29420   9.30996   9.33644
 Alpha virt. eigenvalues --    9.36725   9.40774   9.44128   9.45410   9.51581
 Alpha virt. eigenvalues --    9.52237   9.54346   9.58780   9.61065   9.63170
 Alpha virt. eigenvalues --    9.69375   9.77808   9.83437   9.85461   9.86206
 Alpha virt. eigenvalues --    9.89628   9.94412  10.03157  10.11133  10.30050
 Alpha virt. eigenvalues --   10.33903  10.34838  10.39864  10.56411  10.62461
 Alpha virt. eigenvalues --   10.64660  10.75246  10.81624  10.86780  10.89672
 Alpha virt. eigenvalues --   11.01873  11.12809  11.15798  11.23215  11.31439
 Alpha virt. eigenvalues --   11.36479  11.44555  11.54425  11.56170  11.58331
 Alpha virt. eigenvalues --   11.62212  11.75849  11.77582  11.93157  12.09650
 Alpha virt. eigenvalues --   12.27835  12.75833  13.15955  29.22671  29.30953
 Alpha virt. eigenvalues --   29.45519  29.52356 148.85686 148.99924 149.14931
 Alpha virt. eigenvalues --  149.26406
          Condensed to atoms (all electrons):
               1          2          3          4          5          6
     1  C    4.749311   0.368644   0.429280   0.387554   0.420223  -0.042343
     2  C    0.368644   4.800933  -0.033317  -0.026875  -0.042441   0.359966
     3  H    0.429280  -0.033317   0.607623  -0.014199  -0.055206   0.005931
     4  H    0.387554  -0.026875  -0.014199   0.643303  -0.034733   0.000418
     5  H    0.420223  -0.042441  -0.055206  -0.034733   0.611921  -0.006077
     6  C   -0.042343   0.359966   0.005931   0.000418  -0.006077   4.925268
     7  H   -0.041063   0.389610  -0.003182  -0.003713   0.009911  -0.046406
     8  H   -0.045263   0.385477  -0.001454   0.005460  -0.003203  -0.035407
     9  C    0.006120  -0.050041  -0.000522   0.000118  -0.000315   0.324354
    10  H   -0.000478  -0.020859  -0.000056  -0.000135   0.001856   0.375881
    11  H   -0.012601  -0.062745   0.000132   0.005175   0.000135   0.441996
    12  H   -0.000184  -0.003035   0.000002  -0.000013   0.000021  -0.032775
    13  H   -0.000592   0.009214   0.000036   0.000028   0.000004  -0.031438
    14  H    0.001343  -0.022429   0.000075   0.000183  -0.000183  -0.102734
               7          8          9         10         11         12
     1  C   -0.041063  -0.045263   0.006120  -0.000478  -0.012601  -0.000184
     2  C    0.389610   0.385477  -0.050041  -0.020859  -0.062745  -0.003035
     3  H   -0.003182  -0.001454  -0.000522  -0.000056   0.000132   0.000002
     4  H   -0.003713   0.005460   0.000118  -0.000135   0.005175  -0.000013
     5  H    0.009911  -0.003203  -0.000315   0.001856   0.000135   0.000021
     6  C   -0.046406  -0.035407   0.324354   0.375881   0.441996  -0.032775
     7  H    0.692088  -0.046968  -0.019249   0.007678  -0.005369   0.000822
     8  H   -0.046968   0.703704   0.005259  -0.005451   0.011849   0.001230
     9  C   -0.019249   0.005259   4.756854  -0.057738  -0.020395   0.413849
    10  H    0.007678  -0.005451  -0.057738   0.724069  -0.039625  -0.004446
    11  H   -0.005369   0.011849  -0.020395  -0.039625   0.564283   0.006484
    12  H    0.000822   0.001230   0.413849  -0.004446   0.006484   0.616614
    13  H    0.001011  -0.000528   0.396799   0.001010  -0.008652  -0.040507
    14  H    0.005187   0.000402   0.407243   0.016105  -0.006501  -0.022894
              13         14
     1  C   -0.000592   0.001343
     2  C    0.009214  -0.022429
     3  H    0.000036   0.000075
     4  H    0.000028   0.000183
     5  H    0.000004  -0.000183
     6  C   -0.031438  -0.102734
     7  H    0.001011   0.005187
     8  H   -0.000528   0.000402
     9  C    0.396799   0.407243
    10  H    0.001010   0.016105
    11  H   -0.008652  -0.006501
    12  H   -0.040507  -0.022894
    13  H    0.679656  -0.027064
    14  H   -0.027064   0.679025
 Mulliken charges:
               1
     1  C   -0.219949
     2  C   -0.052103
     3  H    0.064856
     4  H    0.037429
     5  H    0.098085
     6  C   -0.136636
     7  H    0.059642
     8  H    0.024894
     9  C   -0.162336
    10  H    0.002189
    11  H    0.125832
    12  H    0.064834
    13  H    0.021022
    14  H    0.072241
 Sum of Mulliken charges =   0.00000
 Mulliken charges with hydrogens summed into heavy atoms:
               1
     1  C   -0.019579
     2  C    0.032434
     6  C   -0.008615
     9  C   -0.004239
 Electronic spatial extent (au):  <R**2>=            436.2623
 Charge=              0.0000 electrons
 Dipole moment (field-independent basis, Debye):
    X=             -0.3997    Y=             -0.0548    Z=              0.1246  Tot=              0.4222
 Quadrupole moment (field-independent basis, Debye-Ang):
   XX=            -29.4822   YY=            -28.9636   ZZ=            -29.2180
   XY=              0.6175   XZ=              0.3214   YZ=             -0.9750
 Traceless Quadrupole moment (field-independent basis, Debye-Ang):
   XX=             -0.2610   YY=              0.2577   ZZ=              0.0033
   XY=              0.6175   XZ=              0.3214   YZ=             -0.9750
 Octapole moment (field-independent basis, Debye-Ang**2):
  XXX=             -2.7165  YYY=             -0.2106  ZZZ=              0.4397  XYY=             -2.2787
  XXY=             -0.4177  XXZ=              5.8723  XZZ=             -0.8735  YZZ=             -0.1978
  YYZ=             -0.0390  XYZ=             -0.2382
 Hexadecapole moment (field-independent basis, Debye-Ang**3):
 XXXX=           -469.7584 YYYY=            -94.2150 ZZZZ=            -71.7696 XXXY=              9.2080
 XXXZ=              2.3927 YYYX=              1.8575 YYYZ=             -2.3224 ZZZX=              0.2171
 ZZZY=             -1.3692 XXYY=            -91.6329 XXZZ=            -91.5945 YYZZ=            -25.1913
 XXYZ=             -5.1541 YYXZ=              1.0814 ZZXY=             -0.3185
 N-N= 1.293680785000D+02 E-N=-6.243787869747D+02  KE= 1.577427488364D+02
 Leave Link  601 at Wed Aug 26 15:27:03 2020, MaxMem=  2097152000 cpu:         1.1
 (Enter /opt/cluster/programs/g09/g09_d.01/g09/l9999.exe)
 1\1\GINC-NODE38\SP\RB2PLYPD3-FC\def2QZVP\C4H10\BOITTIER\26-Aug-2020\0\
 \#p B2PLYPD3/Def2QZVP\\butane_opt\\0,1\C,0,-4.017478,0.280859,-0.19621
 6\C,0,-2.700088,-0.645718,0.203691\H,0,-4.775088,-0.237363,-0.007027\H
 ,0,-3.825817,1.07355,-1.190318\H,0,-3.974881,0.882386,0.525804\C,0,-1.
 355894,0.176563,0.266436\H,0,-2.496982,-1.264766,-0.561523\H,0,-2.9643
 23,-1.260628,1.067772\C,0,-0.147512,-0.726294,-0.150614\H,0,-0.978581,
 0.914229,1.240121\H,0,-1.655909,0.754884,-0.355604\H,0,0.325694,-1.285
 439,0.744783\H,0,0.78419,-0.010112,-0.606169\H,0,-0.810796,-1.042926,-
 0.852052\\Version=ES64L-G09RevD.01\State=1-A\HF=-157.9264657\MP2=-158.
 1769244\RMSD=2.230e-09\PG=C01 [X(C4H10)]\\@


 IT PROBABLY IS NOT POSSIBLE FOR A SCIENTIST TO INTERROGATE NATURE 
 FROM A WHOLLY DISINTERESTED VIEWPOINT.
 EVEN IF HE HAS NO PARTICULAR AXE TO GRIND, HE IS LIKELY TO HAVE 
 A DISTINCTIVE WAY OF VIEWING NATURE.

                                                   -- JOHN LOSEE
 Job cpu time:       0 days  1 hours 22 minutes 46.5 seconds.
 File lengths (MBytes):  RWF=    152 Int=      0 D2E=      0 Chk=     14 Scr=      1
 Normal termination of Gaussian 09 at Wed Aug 26 15:27:03 2020.
