 Entering Gaussian System, Link 0=/opt/cluster/programs/g09/g09_d.01/g09//g09
 Input=/home/boittier/MDCM/nms_sampling/butane_geom.xyz.dir/energies/butane_opt_1498_energy.com
 Output=/scratch/boittier/butane_opt_1498_energy/butane_opt_1498_energy.out
 Initial command:
 /opt/cluster/programs/g09/g09_d.01/g09/l1.exe "/scratch/boittier/butane_opt_1498_energy/Gau-184490.inp" -scrdir="/scratch/boittier/butane_opt_1498_energy/"
 Entering Link 1 = /opt/cluster/programs/g09/g09_d.01/g09/l1.exe PID=    184491.
  
 Copyright (c) 1988,1990,1992,1993,1995,1998,2003,2009,2013,
            Gaussian, Inc.  All Rights Reserved.
  
 This is part of the Gaussian(R) 09 program.  It is based on
 the Gaussian(R) 03 system (copyright 2003, Gaussian, Inc.),
 the Gaussian(R) 98 system (copyright 1998, Gaussian, Inc.),
 the Gaussian(R) 94 system (copyright 1995, Gaussian, Inc.),
 the Gaussian 92(TM) system (copyright 1992, Gaussian, Inc.),
 the Gaussian 90(TM) system (copyright 1990, Gaussian, Inc.),
 the Gaussian 88(TM) system (copyright 1988, Gaussian, Inc.),
 the Gaussian 86(TM) system (copyright 1986, Carnegie Mellon
 University), and the Gaussian 82(TM) system (copyright 1983,
 Carnegie Mellon University). Gaussian is a federally registered
 trademark of Gaussian, Inc.
  
 This software contains proprietary and confidential information,
 including trade secrets, belonging to Gaussian, Inc.
  
 This software is provided under written license and may be
 used, copied, transmitted, or stored only in accord with that
 written license.
  
 The following legend is applicable only to US Government
 contracts under FAR:
  
                    RESTRICTED RIGHTS LEGEND
  
 Use, reproduction and disclosure by the US Government is
 subject to restrictions as set forth in subparagraphs (a)
 and (c) of the Commercial Computer Software - Restricted
 Rights clause in FAR 52.227-19.
  
 Gaussian, Inc.
 340 Quinnipiac St., Bldg. 40, Wallingford CT 06492
  
  
 ---------------------------------------------------------------
 Warning -- This program may not be used in any manner that
 competes with the business of Gaussian, Inc. or will provide
 assistance to any competitor of Gaussian, Inc.  The licensee
 of this program is prohibited from giving any competitor of
 Gaussian, Inc. access to this program.  By using this program,
 the user acknowledges that Gaussian, Inc. is engaged in the
 business of creating and licensing software in the field of
 computational chemistry and represents and warrants to the
 licensee that it is not a competitor of Gaussian, Inc. and that
 it will not use this program in any manner prohibited above.
 ---------------------------------------------------------------
  

 Cite this work as:
 Gaussian 09, Revision D.01,
 M. J. Frisch, G. W. Trucks, H. B. Schlegel, G. E. Scuseria, 
 M. A. Robb, J. R. Cheeseman, G. Scalmani, V. Barone, B. Mennucci, 
 G. A. Petersson, H. Nakatsuji, M. Caricato, X. Li, H. P. Hratchian, 
 A. F. Izmaylov, J. Bloino, G. Zheng, J. L. Sonnenberg, M. Hada, 
 M. Ehara, K. Toyota, R. Fukuda, J. Hasegawa, M. Ishida, T. Nakajima, 
 Y. Honda, O. Kitao, H. Nakai, T. Vreven, J. A. Montgomery, Jr., 
 J. E. Peralta, F. Ogliaro, M. Bearpark, J. J. Heyd, E. Brothers, 
 K. N. Kudin, V. N. Staroverov, T. Keith, R. Kobayashi, J. Normand, 
 K. Raghavachari, A. Rendell, J. C. Burant, S. S. Iyengar, J. Tomasi, 
 M. Cossi, N. Rega, J. M. Millam, M. Klene, J. E. Knox, J. B. Cross, 
 V. Bakken, C. Adamo, J. Jaramillo, R. Gomperts, R. E. Stratmann, 
 O. Yazyev, A. J. Austin, R. Cammi, C. Pomelli, J. W. Ochterski, 
 R. L. Martin, K. Morokuma, V. G. Zakrzewski, G. A. Voth, 
 P. Salvador, J. J. Dannenberg, S. Dapprich, A. D. Daniels, 
 O. Farkas, J. B. Foresman, J. V. Ortiz, J. Cioslowski, 
 and D. J. Fox, Gaussian, Inc., Wallingford CT, 2013.
 
 ******************************************
 Gaussian 09:  ES64L-G09RevD.01 24-Apr-2013
                26-Aug-2020 
 ******************************************
 %chk=/home/boittier/MDCM/nms_sampling/butane_geom.xyz.dir/butane_opt_1498.chk
 %nproc=8
 Will use up to    8 processors via shared memory.
 %mem=16000MB
 --------------------
 #p B2PLYPD3/Def2QZVP
 --------------------
 1/38=1/1;
 2/12=2,17=6,18=5,40=1/2;
 3/5=45,7=101,11=9,16=1,25=1,30=1,74=-60/1,2,3;
 4//1;
 5/5=2,38=5/2;
 8/10=1/1;
 9/16=-3/6;
 6/7=2,8=2,9=2,10=2/1;
 99/5=1,9=1/99;
 Leave Link    1 at Wed Aug 26 10:44:05 2020, MaxMem=  2097152000 cpu:         0.3
 (Enter /opt/cluster/programs/g09/g09_d.01/g09/l101.exe)
 ----------
 butane_opt
 ----------
 Symbolic Z-matrix:
 Charge =  0 Multiplicity = 1
 C                    -3.93453   0.27441  -0.02036 
 C                    -2.75012  -0.65216   0.05829 
 H                    -4.91988  -0.45216   0.50573 
 H                    -3.93396   1.06879  -1.10774 
 H                    -3.8971    0.45971   0.40329 
 C                    -1.42904   0.27863   0.07827 
 H                    -2.52932  -1.04435  -0.67017 
 H                    -2.95015  -1.22478   1.00618 
 C                    -0.13658  -0.73052  -0.05311 
 H                    -1.05795   1.24403   1.07499 
 H                    -1.37004   0.59186  -0.65089 
 H                    -0.14247  -1.27881   0.77099 
 H                     0.64037  -0.38458   0.20668 
 H                     0.16125  -1.53748  -0.85735 
 
 NAtoms=     14 NQM=       14 NQMF=       0 NMMI=      0 NMMIF=      0
                NMic=       0 NMicF=      0.
                    Isotopes and Nuclear Properties:
 (Nuclear quadrupole moments (NQMom) in fm**2, nuclear magnetic moments (NMagM)
  in nuclear magnetons)

  Atom         1           2           3           4           5           6           7           8           9          10
 IAtWgt=          12          12           1           1           1          12           1           1          12           1
 AtmWgt=  12.0000000  12.0000000   1.0078250   1.0078250   1.0078250  12.0000000   1.0078250   1.0078250  12.0000000   1.0078250
 NucSpn=           0           0           1           1           1           0           1           1           0           1
 AtZEff=   0.0000000   0.0000000   0.0000000   0.0000000   0.0000000   0.0000000   0.0000000   0.0000000   0.0000000   0.0000000
 NQMom=    0.0000000   0.0000000   0.0000000   0.0000000   0.0000000   0.0000000   0.0000000   0.0000000   0.0000000   0.0000000
 NMagM=    0.0000000   0.0000000   2.7928460   2.7928460   2.7928460   0.0000000   2.7928460   2.7928460   0.0000000   2.7928460
 AtZNuc=   6.0000000   6.0000000   1.0000000   1.0000000   1.0000000   6.0000000   1.0000000   1.0000000   6.0000000   1.0000000

  Atom        11          12          13          14
 IAtWgt=           1           1           1           1
 AtmWgt=   1.0078250   1.0078250   1.0078250   1.0078250
 NucSpn=           1           1           1           1
 AtZEff=   0.0000000   0.0000000   0.0000000   0.0000000
 NQMom=    0.0000000   0.0000000   0.0000000   0.0000000
 NMagM=    2.7928460   2.7928460   2.7928460   2.7928460
 AtZNuc=   1.0000000   1.0000000   1.0000000   1.0000000
 Leave Link  101 at Wed Aug 26 10:44:06 2020, MaxMem=  2097152000 cpu:         0.6
 (Enter /opt/cluster/programs/g09/g09_d.01/g09/l202.exe)
                          Input orientation:                          
 ---------------------------------------------------------------------
 Center     Atomic      Atomic             Coordinates (Angstroms)
 Number     Number       Type             X           Y           Z
 ---------------------------------------------------------------------
      1          6           0       -3.934534    0.274405   -0.020358
      2          6           0       -2.750117   -0.652159    0.058287
      3          1           0       -4.919877   -0.452161    0.505725
      4          1           0       -3.933959    1.068795   -1.107740
      5          1           0       -3.897104    0.459705    0.403286
      6          6           0       -1.429044    0.278629    0.078270
      7          1           0       -2.529318   -1.044346   -0.670168
      8          1           0       -2.950152   -1.224777    1.006184
      9          6           0       -0.136579   -0.730521   -0.053112
     10          1           0       -1.057946    1.244031    1.074986
     11          1           0       -1.370039    0.591856   -0.650890
     12          1           0       -0.142467   -1.278807    0.770991
     13          1           0        0.640371   -0.384579    0.206675
     14          1           0        0.161247   -1.537482   -0.857348
 ---------------------------------------------------------------------
                    Distance matrix (angstroms):
                    1          2          3          4          5
     1  C    0.000000
     2  C    1.505838   0.000000
     3  H    1.332502   2.224423   0.000000
     4  H    1.346646   2.392234   2.426646   0.000000
     5  H    0.463909   1.634272   1.374066   1.629585   0.000000
     6  C    2.507434   1.616168   3.592031   2.881941   2.495946
     7  H    2.033713   0.856277   2.729135   2.574850   2.298981
     8  H    2.066481   1.125351   2.174215   3.270630   2.024274
     9  C    3.928793   2.617084   4.823870   4.332421   3.970703
    10  H    3.227183   2.737272   4.256247   3.614755   3.021120
    11  H    2.659884   1.988749   3.876736   2.647616   2.741315
    12  H    4.173544   2.774973   4.855652   4.839037   4.153905
    13  H    4.627695   3.404266   5.568694   4.976392   4.619540
    14  H    4.556195   3.177770   5.371565   4.860667   4.695548
                    6          7          8          9         10
     6  C    0.000000
     7  H    1.876439   0.000000
     8  H    2.331314   1.737761   0.000000
     9  C    1.645026   2.490872   3.046734   0.000000
    10  H    1.436370   3.232208   3.111300   2.453646   0.000000
    11  H    0.795781   2.005357   2.922808   1.904585   1.871198
    12  H    2.135591   2.798029   2.818037   0.989847   2.700968
    13  H    2.176881   3.354262   3.773195   0.889279   2.508110
    14  H    2.588951   2.741780   3.640239   1.177575   3.599606
                   11         12         13         14
    11  H    0.000000
    12  H    2.651049   0.000000
    13  H    2.393865   1.315649   0.000000
    14  H    2.630882   1.676497   1.640393   0.000000
 Small interatomic distances encountered:      5     1
 Problem with the distance matrix.
 Error termination via Lnk1e in /opt/cluster/programs/g09/g09_d.01/g09/l202.exe at Wed Aug 26 10:44:06 2020.
 Job cpu time:       0 days  0 hours  0 minutes  0.9 seconds.
 File lengths (MBytes):  RWF=      5 Int=      0 D2E=      0 Chk=      2 Scr=      1
