 Entering Gaussian System, Link 0=/opt/cluster/programs/g09/g09_d.01/g09//g09
 Input=/home/boittier/MDCM/nms_sampling/butane_geom.xyz.dir/energies/butane_opt_944_energy.com
 Output=/scratch/boittier/butane_opt_944_energy/butane_opt_944_energy.out
 Initial command:
 /opt/cluster/programs/g09/g09_d.01/g09/l1.exe "/scratch/boittier/butane_opt_944_energy/Gau-214754.inp" -scrdir="/scratch/boittier/butane_opt_944_energy/"
 Entering Link 1 = /opt/cluster/programs/g09/g09_d.01/g09/l1.exe PID=    214755.
  
 Copyright (c) 1988,1990,1992,1993,1995,1998,2003,2009,2013,
            Gaussian, Inc.  All Rights Reserved.
  
 This is part of the Gaussian(R) 09 program.  It is based on
 the Gaussian(R) 03 system (copyright 2003, Gaussian, Inc.),
 the Gaussian(R) 98 system (copyright 1998, Gaussian, Inc.),
 the Gaussian(R) 94 system (copyright 1995, Gaussian, Inc.),
 the Gaussian 92(TM) system (copyright 1992, Gaussian, Inc.),
 the Gaussian 90(TM) system (copyright 1990, Gaussian, Inc.),
 the Gaussian 88(TM) system (copyright 1988, Gaussian, Inc.),
 the Gaussian 86(TM) system (copyright 1986, Carnegie Mellon
 University), and the Gaussian 82(TM) system (copyright 1983,
 Carnegie Mellon University). Gaussian is a federally registered
 trademark of Gaussian, Inc.
  
 This software contains proprietary and confidential information,
 including trade secrets, belonging to Gaussian, Inc.
  
 This software is provided under written license and may be
 used, copied, transmitted, or stored only in accord with that
 written license.
  
 The following legend is applicable only to US Government
 contracts under FAR:
  
                    RESTRICTED RIGHTS LEGEND
  
 Use, reproduction and disclosure by the US Government is
 subject to restrictions as set forth in subparagraphs (a)
 and (c) of the Commercial Computer Software - Restricted
 Rights clause in FAR 52.227-19.
  
 Gaussian, Inc.
 340 Quinnipiac St., Bldg. 40, Wallingford CT 06492
  
  
 ---------------------------------------------------------------
 Warning -- This program may not be used in any manner that
 competes with the business of Gaussian, Inc. or will provide
 assistance to any competitor of Gaussian, Inc.  The licensee
 of this program is prohibited from giving any competitor of
 Gaussian, Inc. access to this program.  By using this program,
 the user acknowledges that Gaussian, Inc. is engaged in the
 business of creating and licensing software in the field of
 computational chemistry and represents and warrants to the
 licensee that it is not a competitor of Gaussian, Inc. and that
 it will not use this program in any manner prohibited above.
 ---------------------------------------------------------------
  

 Cite this work as:
 Gaussian 09, Revision D.01,
 M. J. Frisch, G. W. Trucks, H. B. Schlegel, G. E. Scuseria, 
 M. A. Robb, J. R. Cheeseman, G. Scalmani, V. Barone, B. Mennucci, 
 G. A. Petersson, H. Nakatsuji, M. Caricato, X. Li, H. P. Hratchian, 
 A. F. Izmaylov, J. Bloino, G. Zheng, J. L. Sonnenberg, M. Hada, 
 M. Ehara, K. Toyota, R. Fukuda, J. Hasegawa, M. Ishida, T. Nakajima, 
 Y. Honda, O. Kitao, H. Nakai, T. Vreven, J. A. Montgomery, Jr., 
 J. E. Peralta, F. Ogliaro, M. Bearpark, J. J. Heyd, E. Brothers, 
 K. N. Kudin, V. N. Staroverov, T. Keith, R. Kobayashi, J. Normand, 
 K. Raghavachari, A. Rendell, J. C. Burant, S. S. Iyengar, J. Tomasi, 
 M. Cossi, N. Rega, J. M. Millam, M. Klene, J. E. Knox, J. B. Cross, 
 V. Bakken, C. Adamo, J. Jaramillo, R. Gomperts, R. E. Stratmann, 
 O. Yazyev, A. J. Austin, R. Cammi, C. Pomelli, J. W. Ochterski, 
 R. L. Martin, K. Morokuma, V. G. Zakrzewski, G. A. Voth, 
 P. Salvador, J. J. Dannenberg, S. Dapprich, A. D. Daniels, 
 O. Farkas, J. B. Foresman, J. V. Ortiz, J. Cioslowski, 
 and D. J. Fox, Gaussian, Inc., Wallingford CT, 2013.
 
 ******************************************
 Gaussian 09:  ES64L-G09RevD.01 24-Apr-2013
                26-Aug-2020 
 ******************************************
 %chk=/home/boittier/MDCM/nms_sampling/butane_geom.xyz.dir/butane_opt_944.chk
 %nproc=8
 Will use up to    8 processors via shared memory.
 %mem=16000MB
 --------------------
 #p B2PLYPD3/Def2QZVP
 --------------------
 1/38=1/1;
 2/12=2,17=6,18=5,40=1/2;
 3/5=45,7=101,11=9,16=1,25=1,30=1,74=-60/1,2,3;
 4//1;
 5/5=2,38=5/2;
 8/10=1/1;
 9/16=-3/6;
 6/7=2,8=2,9=2,10=2/1;
 99/5=1,9=1/99;
 Leave Link    1 at Wed Aug 26 23:33:45 2020, MaxMem=  2097152000 cpu:         0.4
 (Enter /opt/cluster/programs/g09/g09_d.01/g09/l101.exe)
 ----------
 butane_opt
 ----------
 Symbolic Z-matrix:
 Charge =  0 Multiplicity = 1
 C                    -3.89183   0.21191   0.07755 
 C                    -2.73413  -0.52978   0.02542 
 H                    -4.84011  -0.39389  -0.26852 
 H                    -3.79275   0.5255   -0.6111 
 H                    -3.98246   1.14616   1.23018 
 C                    -1.42097   0.20276  -0.11106 
 H                    -2.66334  -1.2582   -0.93928 
 H                    -2.77604  -1.10509   0.86948 
 C                    -0.17592  -0.74727   0.08172 
 H                    -1.38826   0.91662   0.80053 
 H                    -1.47789   0.90378  -1.06689 
 H                    -0.17726  -1.55594   1.12892 
 H                     0.78599  -0.04724   0.1392 
 H                    -0.02482  -1.27346  -0.65579 
 
 NAtoms=     14 NQM=       14 NQMF=       0 NMMI=      0 NMMIF=      0
                NMic=       0 NMicF=      0.
                    Isotopes and Nuclear Properties:
 (Nuclear quadrupole moments (NQMom) in fm**2, nuclear magnetic moments (NMagM)
  in nuclear magnetons)

  Atom         1           2           3           4           5           6           7           8           9          10
 IAtWgt=          12          12           1           1           1          12           1           1          12           1
 AtmWgt=  12.0000000  12.0000000   1.0078250   1.0078250   1.0078250  12.0000000   1.0078250   1.0078250  12.0000000   1.0078250
 NucSpn=           0           0           1           1           1           0           1           1           0           1
 AtZEff=   0.0000000   0.0000000   0.0000000   0.0000000   0.0000000   0.0000000   0.0000000   0.0000000   0.0000000   0.0000000
 NQMom=    0.0000000   0.0000000   0.0000000   0.0000000   0.0000000   0.0000000   0.0000000   0.0000000   0.0000000   0.0000000
 NMagM=    0.0000000   0.0000000   2.7928460   2.7928460   2.7928460   0.0000000   2.7928460   2.7928460   0.0000000   2.7928460
 AtZNuc=   6.0000000   6.0000000   1.0000000   1.0000000   1.0000000   6.0000000   1.0000000   1.0000000   6.0000000   1.0000000

  Atom        11          12          13          14
 IAtWgt=           1           1           1           1
 AtmWgt=   1.0078250   1.0078250   1.0078250   1.0078250
 NucSpn=           1           1           1           1
 AtZEff=   0.0000000   0.0000000   0.0000000   0.0000000
 NQMom=    0.0000000   0.0000000   0.0000000   0.0000000
 NMagM=    2.7928460   2.7928460   2.7928460   2.7928460
 AtZNuc=   1.0000000   1.0000000   1.0000000   1.0000000
 Leave Link  101 at Wed Aug 26 23:33:45 2020, MaxMem=  2097152000 cpu:         0.5
 (Enter /opt/cluster/programs/g09/g09_d.01/g09/l202.exe)
                          Input orientation:                          
 ---------------------------------------------------------------------
 Center     Atomic      Atomic             Coordinates (Angstroms)
 Number     Number       Type             X           Y           Z
 ---------------------------------------------------------------------
      1          6           0       -3.891825    0.211912    0.077554
      2          6           0       -2.734131   -0.529777    0.025415
      3          1           0       -4.840110   -0.393893   -0.268523
      4          1           0       -3.792749    0.525496   -0.611101
      5          1           0       -3.982457    1.146164    1.230176
      6          6           0       -1.420970    0.202759   -0.111055
      7          1           0       -2.663338   -1.258203   -0.939277
      8          1           0       -2.776038   -1.105091    0.869480
      9          6           0       -0.175920   -0.747270    0.081717
     10          1           0       -1.388264    0.916621    0.800525
     11          1           0       -1.477891    0.903778   -1.066888
     12          1           0       -0.177257   -1.555936    1.128921
     13          1           0        0.785988   -0.047237    0.139198
     14          1           0       -0.024820   -1.273462   -0.655791
 ---------------------------------------------------------------------
                    Distance matrix (angstroms):
                    1          2          3          4          5
     1  C    0.000000
     2  C    1.375891   0.000000
     3  H    1.177291   2.130730   0.000000
     4  H    0.763149   1.624631   1.435131   0.000000
     5  H    1.486465   2.412166   2.313751   1.952311   0.000000
     6  C    2.478060   1.509843   3.474379   2.445310   3.041403
     7  H    2.168955   1.210887   2.436243   2.136551   3.496796
     8  H    1.899111   1.022344   2.461960   2.425827   2.579476
     9  C    3.837707   2.568057   4.690652   3.896329   4.403836
    10  H    2.699467   2.122315   3.843898   2.815531   2.639532
    11  H    2.759620   2.196894   3.691321   2.389436   3.407067
    12  H    4.246019   2.967883   5.004537   4.520157   4.668099
    13  H    4.685391   3.554860   5.651494   4.675019   5.035127
    14  H    4.206882   2.890930   4.910258   4.175588   5.007430
                    6          7          8          9         10
     6  C    0.000000
     7  H    2.088981   0.000000
     8  H    2.123236   1.818721   0.000000
     9  C    1.577931   2.736920   2.740296   0.000000
    10  H    1.158295   3.063100   2.453159   2.180595   0.000000
    11  H    1.186712   2.468953   3.077379   2.395909   1.869607
    12  H    2.485432   3.247566   2.650327   1.323094   2.772710
    13  H    2.235126   3.811482   3.786872   1.191057   2.468552
    14  H    2.103616   2.653747   3.150238   0.918492   2.962482
                   11         12         13         14
    11  H    0.000000
    12  H    3.544491   0.000000
    13  H    2.735730   2.045377   0.000000
    14  H    2.649677   1.813346   1.671241   0.000000
 Stoichiometry    C4H10
 Framework group  C1[X(C4H10)]
 Deg. of freedom    36
 Full point group                 C1      NOp   1
 Largest Abelian subgroup         C1      NOp   1
 Largest concise Abelian subgroup C1      NOp   1
                         Standard orientation:                         
 ---------------------------------------------------------------------
 Center     Atomic      Atomic             Coordinates (Angstroms)
 Number     Number       Type             X           Y           Z
 ---------------------------------------------------------------------
      1          6           0       -1.890008    0.073333    0.046490
      2          6           0       -0.613585   -0.437696   -0.005187
      3          1           0       -2.707659   -0.700391   -0.298197
      4          1           0       -1.851791    0.398894   -0.642674
      5          1           0       -2.154280    0.975679    1.197799
      6          6           0        0.538510    0.528323   -0.143426
      7          1           0       -0.407425   -1.141322   -0.968855
      8          1           0       -0.546433   -1.009344    0.839737
      9          6           0        1.939941   -0.170546    0.050064
     10          1           0        0.436729    1.237010    0.767096
     11          1           0        0.350642    1.204697   -1.100248
     12          1           0        2.090838   -0.963456    1.098445
     13          1           0        2.753195    0.697846    0.106011
     14          1           0        2.187035   -0.660103   -0.686758
 ---------------------------------------------------------------------
 Rotational constants (GHZ):     22.6542643      3.6998524      3.5068551
 Leave Link  202 at Wed Aug 26 23:33:45 2020, MaxMem=  2097152000 cpu:         0.0
 (Enter /opt/cluster/programs/g09/g09_d.01/g09/l301.exe)
 Standard basis: def2QZVP (5D, 7F)
 Ernie: Thresh=  0.10000D-02 Tol=  0.10000D-05 Strict=F.
 There are   638 symmetry adapted cartesian basis functions of A   symmetry.
 There are   528 symmetry adapted basis functions of A   symmetry.
   528 basis functions,   748 primitive gaussians,   638 cartesian basis functions
    17 alpha electrons       17 beta electrons
       nuclear repulsion energy       131.9720294550 Hartrees.
 IExCor=  419 DFT=T Ex+Corr=B2PLYPD3 ExCW=0 ScaHFX=  0.530000
 ScaDFX=  0.470000  0.470000  0.730000  0.730000 ScalE2=  0.270000  0.270000
 IRadAn=      0 IRanWt=     -1 IRanGd=            0 ICorTp=0 IEmpDi=141
 NAtoms=   14 NActive=   14 NUniq=   14 SFac= 1.00D+00 NAtFMM=   60 NAOKFM=F Big=F
 Integral buffers will be    131072 words long.
 Regular integral format.
 Two-electron integral symmetry is turned on.
 R6Disp:  Grimme-D3(BJ) Dispersion energy=       -0.0068509756 Hartrees.
 Nuclear repulsion after empirical dispersion term =      131.9651784794 Hartrees.
 Leave Link  301 at Wed Aug 26 23:33:45 2020, MaxMem=  2097152000 cpu:         0.4
 (Enter /opt/cluster/programs/g09/g09_d.01/g09/l302.exe)
 NPDir=0 NMtPBC=     1 NCelOv=     1 NCel=       1 NClECP=     1 NCelD=      1
         NCelK=      1 NCelE2=     1 NClLst=     1 CellRange=     0.0.
 One-electron integrals computed using PRISM.
   1 Symmetry operations used in ECPInt.
 ECPInt:  NShTT=   14196 NPrTT=   30597 LenC2=   13880 LenP2D=   26015.
 LDataN:  DoStor=T MaxTD1= 8 Len=  415
 NBasis=   528 RedAO= T EigKep=  2.59D-05  NBF=   528
 NBsUse=   528 1.00D-06 EigRej= -1.00D+00 NBFU=   528
 Precomputing XC quadrature grid using
 IXCGrd= 4 IRadAn=           0 IRanWt=          -1 IRanGd=           0 AccXCQ= 0.00D+00.
 Generated NRdTot=       0 NPtTot=           0 NUsed=           0 NTot=          32
 NSgBfM=   638   638   638   638   638 MxSgAt=    14 MxSgA2=    14.
 Leave Link  302 at Wed Aug 26 23:33:46 2020, MaxMem=  2097152000 cpu:         5.6
 (Enter /opt/cluster/programs/g09/g09_d.01/g09/l303.exe)
 DipDrv:  MaxL=1.
 Leave Link  303 at Wed Aug 26 23:33:46 2020, MaxMem=  2097152000 cpu:         0.5
 (Enter /opt/cluster/programs/g09/g09_d.01/g09/l401.exe)
 ExpMin= 7.60D-02 ExpMax= 6.70D+04 ExpMxC= 6.47D+02 IAcc=2 IRadAn=         4 AccDes= 0.00D+00
 Harris functional with IExCor=  419 and IRadAn=       4 diagonalized for initial guess.
 HarFok:  IExCor=  419 AccDes= 0.00D+00 IRadAn=         4 IDoV= 1 UseB2=F ITyADJ=14
 ICtDFT=  3500011 ScaDFX=  1.000000  1.000000  1.000000  1.000000
 FoFCou: FMM=F IPFlag=           0 FMFlag=      100000 FMFlg1=           0
         NFxFlg=           0 DoJE=T BraDBF=F KetDBF=T FulRan=T
         wScrn=  0.000000 ICntrl=     500 IOpCl=  0 I1Cent=   200000004 NGrid=           0
         NMat0=    1 NMatS0=      1 NMatT0=    0 NMatD0=    1 NMtDS0=    0 NMtDT0=    0
 Petite list used in FoFCou.
 Harris En= -158.372026698322    
 JPrj=0 DoOrth=F DoCkMO=F.
 Leave Link  401 at Wed Aug 26 23:33:48 2020, MaxMem=  2097152000 cpu:        17.0
 (Enter /opt/cluster/programs/g09/g09_d.01/g09/l502.exe)
 Closed shell SCF:
 Using DIIS extrapolation, IDIIS=  1040.
 Integral symmetry usage will be decided dynamically.
 IVT=     1249338 IEndB=     1249338 NGot=  2097152000 MDV=  2096326985
 LenX=  2096326985 LenY=  2095919303
 Requested convergence on RMS density matrix=1.00D-08 within 128 cycles.
 Requested convergence on MAX density matrix=1.00D-06.
 Requested convergence on             energy=1.00D-06.
 No special actions if energy rises.
 Fock matrices will be formed incrementally for  20 cycles.
 Integral accuracy reduced to 1.0D-05 until final iterations.

 Cycle   1  Pass 0  IDiag  1:
 FoFJK:  IHMeth= 1 ICntrl=       0 DoSepK=F KAlg= 0 I1Cent=   0 FoldK=F
 IRaf= 940000000 NMat=   1 IRICut=       1 DoRegI=T DoRafI=F ISym2E= 0.
 FoFCou: FMM=F IPFlag=           0 FMFlag=      100000 FMFlg1=           0
         NFxFlg=           0 DoJE=F BraDBF=F KetDBF=F FulRan=T
         wScrn=  0.000000 ICntrl=       0 IOpCl=  0 I1Cent=           0 NGrid=           0
         NMat0=    1 NMatS0=      1 NMatT0=    0 NMatD0=    1 NMtDS0=    0 NMtDT0=    0
 Symmetry not used in FoFCou.
 E= -157.451831670405    
 DIIS: error= 2.69D-02 at cycle   1 NSaved=   1.
 NSaved= 1 IEnMin= 1 EnMin= -157.451831670405     IErMin= 1 ErrMin= 2.69D-02
 ErrMax= 2.69D-02  0.00D+00 EMaxC= 1.00D-01 BMatC= 4.38D-01 BMatP= 4.38D-01
 IDIUse=3 WtCom= 7.31D-01 WtEn= 2.69D-01
 Coeff-Com:  0.100D+01
 Coeff-En:   0.100D+01
 Coeff:      0.100D+01
 Gap=     0.344 Goal=   None    Shift=    0.000
 GapD=    0.344 DampG=1.000 DampE=0.500 DampFc=0.5000 IDamp=-1.
 Damping current iteration by 5.00D-01
 RMSDP=1.29D-03 MaxDP=6.87D-02              OVMax= 2.42D-01

 Cycle   2  Pass 0  IDiag  1:
 RMSU=  6.19D-04    CP:  9.42D-01
 E= -157.633718796664     Delta-E=       -0.181887126260 Rises=F Damp=T
 DIIS: error= 5.22D-03 at cycle   2 NSaved=   2.
 NSaved= 2 IEnMin= 2 EnMin= -157.633718796664     IErMin= 2 ErrMin= 5.22D-03
 ErrMax= 5.22D-03  0.00D+00 EMaxC= 1.00D-01 BMatC= 3.38D-02 BMatP= 4.38D-01
 IDIUse=3 WtCom= 9.48D-01 WtEn= 5.22D-02
 Coeff-Com: -0.111D+00 0.111D+01
 Coeff-En:   0.000D+00 0.100D+01
 Coeff:     -0.105D+00 0.110D+01
 Gap=     0.483 Goal=   None    Shift=    0.000
 RMSDP=3.76D-04 MaxDP=2.09D-02 DE=-1.82D-01 OVMax= 1.33D-01

 Cycle   3  Pass 0  IDiag  1:
 RMSU=  3.27D-04    CP:  9.29D-01  7.05D-01
 E= -157.813607633952     Delta-E=       -0.179888837288 Rises=F Damp=F
 DIIS: error= 3.30D-03 at cycle   3 NSaved=   3.
 NSaved= 3 IEnMin= 3 EnMin= -157.813607633952     IErMin= 3 ErrMin= 3.30D-03
 ErrMax= 3.30D-03  0.00D+00 EMaxC= 1.00D-01 BMatC= 3.91D-03 BMatP= 3.38D-02
 IDIUse=3 WtCom= 9.67D-01 WtEn= 3.30D-02
 Coeff-Com: -0.894D-01 0.198D+00 0.891D+00
 Coeff-En:   0.000D+00 0.000D+00 0.100D+01
 Coeff:     -0.865D-01 0.192D+00 0.895D+00
 Gap=     0.395 Goal=   None    Shift=    0.000
 RMSDP=7.93D-05 MaxDP=6.61D-03 DE=-1.80D-01 OVMax= 1.79D-02

 Cycle   4  Pass 0  IDiag  1:
 RMSU=  6.73D-05    CP:  9.23D-01  7.58D-01  1.06D+00
 E= -157.817426897621     Delta-E=       -0.003819263669 Rises=F Damp=F
 DIIS: error= 9.52D-04 at cycle   4 NSaved=   4.
 NSaved= 4 IEnMin= 4 EnMin= -157.817426897621     IErMin= 4 ErrMin= 9.52D-04
 ErrMax= 9.52D-04  0.00D+00 EMaxC= 1.00D-01 BMatC= 4.03D-04 BMatP= 3.91D-03
 IDIUse=3 WtCom= 9.90D-01 WtEn= 9.52D-03
 Coeff-Com: -0.290D-01 0.409D-01 0.341D+00 0.647D+00
 Coeff-En:   0.000D+00 0.000D+00 0.000D+00 0.100D+01
 Coeff:     -0.287D-01 0.405D-01 0.338D+00 0.650D+00
 Gap=     0.396 Goal=   None    Shift=    0.000
 RMSDP=2.45D-05 MaxDP=1.61D-03 DE=-3.82D-03 OVMax= 5.13D-03

 Cycle   5  Pass 0  IDiag  1:
 RMSU=  1.86D-05    CP:  9.24D-01  7.42D-01  1.09D+00  8.89D-01
 E= -157.817804048460     Delta-E=       -0.000377150838 Rises=F Damp=F
 DIIS: error= 1.86D-04 at cycle   5 NSaved=   5.
 NSaved= 5 IEnMin= 5 EnMin= -157.817804048460     IErMin= 5 ErrMin= 1.86D-04
 ErrMax= 1.86D-04  0.00D+00 EMaxC= 1.00D-01 BMatC= 1.60D-05 BMatP= 4.03D-04
 IDIUse=3 WtCom= 9.98D-01 WtEn= 1.86D-03
 Coeff-Com: -0.312D-03-0.512D-02 0.252D-01 0.176D+00 0.804D+00
 Coeff-En:   0.000D+00 0.000D+00 0.000D+00 0.000D+00 0.100D+01
 Coeff:     -0.312D-03-0.511D-02 0.252D-01 0.175D+00 0.805D+00
 Gap=     0.396 Goal=   None    Shift=    0.000
 RMSDP=7.23D-06 MaxDP=4.27D-04 DE=-3.77D-04 OVMax= 1.02D-03

 Initial convergence to 1.0D-05 achieved.  Increase integral accuracy.
 Cycle   6  Pass 1  IDiag  1:
 E= -157.817835951167     Delta-E=       -0.000031902708 Rises=F Damp=F
 DIIS: error= 6.18D-05 at cycle   1 NSaved=   1.
 NSaved= 1 IEnMin= 1 EnMin= -157.817835951167     IErMin= 1 ErrMin= 6.18D-05
 ErrMax= 6.18D-05  0.00D+00 EMaxC= 1.00D-01 BMatC= 9.11D-07 BMatP= 9.11D-07
 IDIUse=1 WtCom= 1.00D+00 WtEn= 0.00D+00
 Coeff-Com:  0.100D+01
 Coeff:      0.100D+01
 Gap=     0.396 Goal=   None    Shift=    0.000
 RMSDP=7.23D-06 MaxDP=4.27D-04 DE=-3.19D-05 OVMax= 3.11D-04

 Cycle   7  Pass 1  IDiag  1:
 RMSU=  3.10D-05    CP:  1.00D+00
 E= -157.817836631340     Delta-E=       -0.000000680173 Rises=F Damp=F
 DIIS: error= 1.92D-05 at cycle   2 NSaved=   2.
 NSaved= 2 IEnMin= 2 EnMin= -157.817836631340     IErMin= 2 ErrMin= 1.92D-05
 ErrMax= 1.92D-05  0.00D+00 EMaxC= 1.00D-01 BMatC= 2.03D-07 BMatP= 9.11D-07
 IDIUse=1 WtCom= 1.00D+00 WtEn= 0.00D+00
 Coeff-Com:  0.260D+00 0.740D+00
 Coeff:      0.260D+00 0.740D+00
 Gap=     0.396 Goal=   None    Shift=    0.000
 RMSDP=9.45D-07 MaxDP=7.43D-05 DE=-6.80D-07 OVMax= 1.60D-04

 Cycle   8  Pass 1  IDiag  1:
 RMSU=  6.58D-07    CP:  1.00D+00  1.02D+00
 E= -157.817836810933     Delta-E=       -0.000000179593 Rises=F Damp=F
 DIIS: error= 9.02D-06 at cycle   3 NSaved=   3.
 NSaved= 3 IEnMin= 3 EnMin= -157.817836810933     IErMin= 3 ErrMin= 9.02D-06
 ErrMax= 9.02D-06  0.00D+00 EMaxC= 1.00D-01 BMatC= 3.73D-08 BMatP= 2.03D-07
 IDIUse=1 WtCom= 1.00D+00 WtEn= 0.00D+00
 Coeff-Com: -0.269D-01 0.277D+00 0.750D+00
 Coeff:     -0.269D-01 0.277D+00 0.750D+00
 Gap=     0.396 Goal=   None    Shift=    0.000
 RMSDP=4.15D-07 MaxDP=2.90D-05 DE=-1.80D-07 OVMax= 5.06D-05

 Cycle   9  Pass 1  IDiag  1:
 RMSU=  2.71D-07    CP:  1.00D+00  1.03D+00  9.14D-01
 E= -157.817836849833     Delta-E=       -0.000000038900 Rises=F Damp=F
 DIIS: error= 1.57D-06 at cycle   4 NSaved=   4.
 NSaved= 4 IEnMin= 4 EnMin= -157.817836849833     IErMin= 4 ErrMin= 1.57D-06
 ErrMax= 1.57D-06  0.00D+00 EMaxC= 1.00D-01 BMatC= 8.52D-10 BMatP= 3.73D-08
 IDIUse=1 WtCom= 1.00D+00 WtEn= 0.00D+00
 Coeff-Com: -0.159D-01 0.365D-01 0.164D+00 0.815D+00
 Coeff:     -0.159D-01 0.365D-01 0.164D+00 0.815D+00
 Gap=     0.396 Goal=   None    Shift=    0.000
 RMSDP=6.57D-08 MaxDP=3.09D-06 DE=-3.89D-08 OVMax= 1.13D-05

 Cycle  10  Pass 1  IDiag  1:
 RMSU=  5.44D-08    CP:  1.00D+00  1.03D+00  9.41D-01  1.12D+00
 E= -157.817836850918     Delta-E=       -0.000000001085 Rises=F Damp=F
 DIIS: error= 4.79D-07 at cycle   5 NSaved=   5.
 NSaved= 5 IEnMin= 5 EnMin= -157.817836850918     IErMin= 5 ErrMin= 4.79D-07
 ErrMax= 4.79D-07  0.00D+00 EMaxC= 1.00D-01 BMatC= 1.23D-10 BMatP= 8.52D-10
 IDIUse=1 WtCom= 1.00D+00 WtEn= 0.00D+00
 Coeff-Com: -0.897D-03-0.244D-01-0.512D-01 0.224D+00 0.852D+00
 Coeff:     -0.897D-03-0.244D-01-0.512D-01 0.224D+00 0.852D+00
 Gap=     0.396 Goal=   None    Shift=    0.000
 RMSDP=2.74D-08 MaxDP=1.39D-06 DE=-1.08D-09 OVMax= 3.97D-06

 Cycle  11  Pass 1  IDiag  1:
 RMSU=  1.53D-08    CP:  1.00D+00  1.03D+00  9.50D-01  1.19D+00  1.05D+00
 E= -157.817836851064     Delta-E=       -0.000000000146 Rises=F Damp=F
 DIIS: error= 1.14D-07 at cycle   6 NSaved=   6.
 NSaved= 6 IEnMin= 6 EnMin= -157.817836851064     IErMin= 6 ErrMin= 1.14D-07
 ErrMax= 1.14D-07  0.00D+00 EMaxC= 1.00D-01 BMatC= 7.18D-12 BMatP= 1.23D-10
 IDIUse=1 WtCom= 1.00D+00 WtEn= 0.00D+00
 Coeff-Com:  0.527D-03-0.100D-01-0.257D-01 0.338D-01 0.286D+00 0.715D+00
 Coeff:      0.527D-03-0.100D-01-0.257D-01 0.338D-01 0.286D+00 0.715D+00
 Gap=     0.396 Goal=   None    Shift=    0.000
 RMSDP=4.54D-09 MaxDP=2.73D-07 DE=-1.46D-10 OVMax= 8.24D-07

 SCF Done:  E(RB2PLYPD3) =  -157.817836851     A.U. after   11 cycles
            NFock= 11  Conv=0.45D-08     -V/T= 1.9998
 KE= 1.578552756741D+02 PE=-6.294560795877D+02 EE= 1.818177885831D+02
 Leave Link  502 at Wed Aug 26 23:40:34 2020, MaxMem=  2097152000 cpu:      3240.9
 (Enter /opt/cluster/programs/g09/g09_d.01/g09/l801.exe)
 DoSCS=T DFT=T ScalE2(SS,OS)=  0.270000  0.270000
 ExpMin= 7.60D-02 ExpMax= 6.70D+04 ExpMxC= 6.47D+02 IAcc=3 IRadAn=         5 AccDes= 0.00D+00
 HarFok:  IExCor=  205 AccDes= 0.00D+00 IRadAn=         5 IDoV=-2 UseB2=F ITyADJ=14
 ICtDFT= 12500011 ScaDFX=  1.000000  1.000000  1.000000  1.000000
 Largest valence mixing into a core orbital is  1.18D-04
 Largest core mixing into a valence orbital is  1.60D-05
 Range of M.O.s used for correlation:     5   528
 NBasis=   528 NAE=    17 NBE=    17 NFC=     4 NFV=     0
 NROrb=    524 NOA=    13 NOB=    13 NVA=   511 NVB=   511

 **** Warning!!: The largest alpha MO coefficient is  0.28456211D+02

 Leave Link  801 at Wed Aug 26 23:40:40 2020, MaxMem=  2097152000 cpu:         1.3
 (Enter /opt/cluster/programs/g09/g09_d.01/g09/l906.exe)
 DoSCS=T DFT=T ScalE2(SS,OS)=  0.270000  0.270000
 FulOut=F Deriv=F AODrv=F NAtomX=    14
   MMem=         463  MDisk=          13 MDiskD=          13
  W3Min=     4238234 MinDsk=     6904766 NBas6D=         638
 NBas2D=      205689    NTT=      203841    LW2=     4508827
    MDV=  2095901164 MDiskM=        7293 NBas2p=      189401
 Fully direct method using O(OVN) memory.
 IMap=   1   2   3   4   5   6   7   8   9  10  11  12  13
 JobTyp=1 Pass  1:  I=   1 to  13 NPSUse=  8 ParTrn=T ParDer=T DoDerP=F.
 Spin components of T(2) and E(2):
     alpha-alpha T2 =       0.4160445431D-01 E2=     -0.2663992476D-01
     alpha-beta  T2 =       0.2834308906D+00 E2=     -0.1977636855D+00
     beta-beta   T2 =       0.4160445431D-01 E2=     -0.2663992476D-01
 The integrals were generated   1 times.
 E2(B2PLYPD3) =    -0.2510435350D+00 E(B2PLYPD3) =    -0.15806888038606D+03
 Leave Link  906 at Wed Aug 26 23:49:20 2020, MaxMem=  2097152000 cpu:      4139.7
 (Enter /opt/cluster/programs/g09/g09_d.01/g09/l601.exe)
 Copying SCF densities to generalized density rwf, IOpCl= 0 IROHF=0.

 **********************************************************************

            Population analysis using the SCF density.

 **********************************************************************

 Orbital symmetries:
       Occupied  (A) (A) (A) (A) (A) (A) (A) (A) (A) (A) (A) (A)
                 (A) (A) (A) (A) (A)
       Virtual   (A) (A) (A) (A) (A) (A) (A) (A) (A) (A) (A) (A)
                 (A) (A) (A) (A) (A) (A) (A) (A) (A) (A) (A) (A)
                 (A) (A) (A) (A) (A) (A) (A) (A) (A) (A) (A) (A)
                 (A) (A) (A) (A) (A) (A) (A) (A) (A) (A) (A) (A)
                 (A) (A) (A) (A) (A) (A) (A) (A) (A) (A) (A) (A)
                 (A) (A) (A) (A) (A) (A) (A) (A) (A) (A) (A) (A)
                 (A) (A) (A) (A) (A) (A) (A) (A) (A) (A) (A) (A)
                 (A) (A) (A) (A) (A) (A) (A) (A) (A) (A) (A) (A)
                 (A) (A) (A) (A) (A) (A) (A) (A) (A) (A) (A) (A)
                 (A) (A) (A) (A) (A) (A) (A) (A) (A) (A) (A) (A)
                 (A) (A) (A) (A) (A) (A) (A) (A) (A) (A) (A) (A)
                 (A) (A) (A) (A) (A) (A) (A) (A) (A) (A) (A) (A)
                 (A) (A) (A) (A) (A) (A) (A) (A) (A) (A) (A) (A)
                 (A) (A) (A) (A) (A) (A) (A) (A) (A) (A) (A) (A)
                 (A) (A) (A) (A) (A) (A) (A) (A) (A) (A) (A) (A)
                 (A) (A) (A) (A) (A) (A) (A) (A) (A) (A) (A) (A)
                 (A) (A) (A) (A) (A) (A) (A) (A) (A) (A) (A) (A)
                 (A) (A) (A) (A) (A) (A) (A) (A) (A) (A) (A) (A)
                 (A) (A) (A) (A) (A) (A) (A) (A) (A) (A) (A) (A)
                 (A) (A) (A) (A) (A) (A) (A) (A) (A) (A) (A) (A)
                 (A) (A) (A) (A) (A) (A) (A) (A) (A) (A) (A) (A)
                 (A) (A) (A) (A) (A) (A) (A) (A) (A) (A) (A) (A)
                 (A) (A) (A) (A) (A) (A) (A) (A) (A) (A) (A) (A)
                 (A) (A) (A) (A) (A) (A) (A) (A) (A) (A) (A) (A)
                 (A) (A) (A) (A) (A) (A) (A) (A) (A) (A) (A) (A)
                 (A) (A) (A) (A) (A) (A) (A) (A) (A) (A) (A) (A)
                 (A) (A) (A) (A) (A) (A) (A) (A) (A) (A) (A) (A)
                 (A) (A) (A) (A) (A) (A) (A) (A) (A) (A) (A) (A)
                 (A) (A) (A) (A) (A) (A) (A) (A) (A) (A) (A) (A)
                 (A) (A) (A) (A) (A) (A) (A) (A) (A) (A) (A) (A)
                 (A) (A) (A) (A) (A) (A) (A) (A) (A) (A) (A) (A)
                 (A) (A) (A) (A) (A) (A) (A) (A) (A) (A) (A) (A)
                 (A) (A) (A) (A) (A) (A) (A) (A) (A) (A) (A) (A)
                 (A) (A) (A) (A) (A) (A) (A) (A) (A) (A) (A) (A)
                 (A) (A) (A) (A) (A) (A) (A) (A) (A) (A) (A) (A)
                 (A) (A) (A) (A) (A) (A) (A) (A) (A) (A) (A) (A)
                 (A) (A) (A) (A) (A) (A) (A) (A) (A) (A) (A) (A)
                 (A) (A) (A) (A) (A) (A) (A) (A) (A) (A) (A) (A)
                 (A) (A) (A) (A) (A) (A) (A) (A) (A) (A) (A) (A)
                 (A) (A) (A) (A) (A) (A) (A) (A) (A) (A) (A) (A)
                 (A) (A) (A) (A) (A) (A) (A) (A) (A) (A) (A) (A)
                 (A) (A) (A) (A) (A) (A) (A) (A) (A) (A) (A) (A)
                 (A) (A) (A) (A) (A) (A) (A)
 The electronic state is 1-A.
 Alpha  occ. eigenvalues --  -10.62932 -10.62041 -10.59910 -10.59387  -0.95428
 Alpha  occ. eigenvalues --   -0.85234  -0.74306  -0.66677  -0.55156  -0.50118
 Alpha  occ. eigenvalues --   -0.48514  -0.46959  -0.41169  -0.40219  -0.39347
 Alpha  occ. eigenvalues --   -0.37684  -0.34689
 Alpha virt. eigenvalues --    0.04920   0.05556   0.06569   0.07823   0.10441
 Alpha virt. eigenvalues --    0.11056   0.12007   0.12776   0.14264   0.15013
 Alpha virt. eigenvalues --    0.15670   0.16018   0.19189   0.19763   0.21298
 Alpha virt. eigenvalues --    0.22546   0.22873   0.24930   0.26447   0.27740
 Alpha virt. eigenvalues --    0.28243   0.30297   0.30772   0.31501   0.33913
 Alpha virt. eigenvalues --    0.34640   0.35801   0.36681   0.37575   0.37837
 Alpha virt. eigenvalues --    0.41818   0.43567   0.44207   0.45553   0.48168
 Alpha virt. eigenvalues --    0.48591   0.50662   0.54475   0.55735   0.58619
 Alpha virt. eigenvalues --    0.59504   0.60494   0.62419   0.64139   0.65587
 Alpha virt. eigenvalues --    0.67227   0.68439   0.68968   0.70183   0.71447
 Alpha virt. eigenvalues --    0.74380   0.74729   0.75637   0.76935   0.78236
 Alpha virt. eigenvalues --    0.80139   0.82081   0.83799   0.84747   0.85806
 Alpha virt. eigenvalues --    0.87578   0.87992   0.89463   0.89955   0.91343
 Alpha virt. eigenvalues --    0.92324   0.94113   0.96332   0.96780   0.98434
 Alpha virt. eigenvalues --    0.98543   1.00788   1.01456   1.01779   1.02156
 Alpha virt. eigenvalues --    1.04179   1.06052   1.06876   1.07719   1.09832
 Alpha virt. eigenvalues --    1.11551   1.12739   1.14814   1.15480   1.19720
 Alpha virt. eigenvalues --    1.20495   1.23279   1.24463   1.25984   1.27986
 Alpha virt. eigenvalues --    1.28115   1.29950   1.32880   1.33019   1.35097
 Alpha virt. eigenvalues --    1.37584   1.41421   1.42006   1.44769   1.45290
 Alpha virt. eigenvalues --    1.47789   1.48686   1.49676   1.55485   1.58620
 Alpha virt. eigenvalues --    1.62707   1.66639   1.68326   1.70393   1.74922
 Alpha virt. eigenvalues --    1.79762   1.81714   1.85809   1.86965   1.89271
 Alpha virt. eigenvalues --    1.90512   1.92786   1.93330   1.94468   1.97534
 Alpha virt. eigenvalues --    1.98355   1.99378   2.00210   2.01748   2.04172
 Alpha virt. eigenvalues --    2.05292   2.07093   2.08826   2.09539   2.10964
 Alpha virt. eigenvalues --    2.12172   2.13501   2.14109   2.15061   2.16398
 Alpha virt. eigenvalues --    2.19914   2.20735   2.21632   2.21913   2.22880
 Alpha virt. eigenvalues --    2.23651   2.27540   2.28986   2.29706   2.30354
 Alpha virt. eigenvalues --    2.32676   2.33564   2.35209   2.36049   2.37286
 Alpha virt. eigenvalues --    2.39800   2.40948   2.41769   2.43174   2.45334
 Alpha virt. eigenvalues --    2.47429   2.48254   2.50356   2.51940   2.52048
 Alpha virt. eigenvalues --    2.53768   2.56396   2.57367   2.59644   2.60734
 Alpha virt. eigenvalues --    2.63145   2.64097   2.65268   2.66402   2.67994
 Alpha virt. eigenvalues --    2.70112   2.71775   2.72634   2.75792   2.77550
 Alpha virt. eigenvalues --    2.79102   2.80228   2.80488   2.81828   2.83230
 Alpha virt. eigenvalues --    2.85584   2.88738   2.89789   2.92047   2.93164
 Alpha virt. eigenvalues --    2.94576   2.96666   2.96925   3.00969   3.01278
 Alpha virt. eigenvalues --    3.02488   3.03770   3.06516   3.09372   3.09477
 Alpha virt. eigenvalues --    3.11852   3.13063   3.14453   3.16173   3.17556
 Alpha virt. eigenvalues --    3.20946   3.24278   3.25491   3.26748   3.27730
 Alpha virt. eigenvalues --    3.29240   3.31277   3.32838   3.35089   3.36788
 Alpha virt. eigenvalues --    3.38884   3.41276   3.42575   3.45083   3.46765
 Alpha virt. eigenvalues --    3.50423   3.54155   3.56522   3.58087   3.59981
 Alpha virt. eigenvalues --    3.61196   3.63953   3.67376   3.68065   3.70942
 Alpha virt. eigenvalues --    3.76502   3.79062   3.80029   3.83717   3.85136
 Alpha virt. eigenvalues --    3.87053   3.88701   3.92250   3.95118   3.96984
 Alpha virt. eigenvalues --    3.99082   4.00229   4.04647   4.09893   4.10606
 Alpha virt. eigenvalues --    4.14366   4.16996   4.19501   4.21453   4.24290
 Alpha virt. eigenvalues --    4.29586   4.32901   4.37236   4.41408   4.43593
 Alpha virt. eigenvalues --    4.54131   4.70084   4.78266   4.91626   5.08439
 Alpha virt. eigenvalues --    5.13271   5.19873   5.21232   5.27473   5.29018
 Alpha virt. eigenvalues --    5.36435   5.40629   5.42798   5.45627   5.48145
 Alpha virt. eigenvalues --    5.49641   5.54243   5.59540   5.63096   5.65240
 Alpha virt. eigenvalues --    5.66604   5.69722   5.71538   5.72653   5.73690
 Alpha virt. eigenvalues --    5.76648   5.80465   5.82102   5.84105   5.84962
 Alpha virt. eigenvalues --    5.88615   5.89433   5.90641   5.91779   5.92771
 Alpha virt. eigenvalues --    5.93473   5.95563   5.96148   5.97129   5.99817
 Alpha virt. eigenvalues --    6.01368   6.03404   6.04542   6.06232   6.07732
 Alpha virt. eigenvalues --    6.08772   6.10469   6.12881   6.14600   6.16021
 Alpha virt. eigenvalues --    6.18184   6.18917   6.19881   6.21362   6.24253
 Alpha virt. eigenvalues --    6.26154   6.26888   6.28347   6.29783   6.31493
 Alpha virt. eigenvalues --    6.33422   6.35089   6.37554   6.39272   6.39925
 Alpha virt. eigenvalues --    6.41769   6.43343   6.44863   6.46237   6.48633
 Alpha virt. eigenvalues --    6.49912   6.51811   6.56755   6.58851   6.60232
 Alpha virt. eigenvalues --    6.63369   6.64080   6.66663   6.68363   6.70824
 Alpha virt. eigenvalues --    6.71867   6.74274   6.76428   6.78788   6.80488
 Alpha virt. eigenvalues --    6.82112   6.82799   6.86328   6.87736   6.90597
 Alpha virt. eigenvalues --    6.92660   6.95157   6.99989   7.00344   7.02269
 Alpha virt. eigenvalues --    7.03116   7.06643   7.06850   7.09983   7.12966
 Alpha virt. eigenvalues --    7.14930   7.15790   7.19236   7.20037   7.23800
 Alpha virt. eigenvalues --    7.29888   7.30176   7.31246   7.34139   7.37457
 Alpha virt. eigenvalues --    7.38278   7.42216   7.43045   7.46408   7.46470
 Alpha virt. eigenvalues --    7.50807   7.53936   7.55517   7.57833   7.59123
 Alpha virt. eigenvalues --    7.60840   7.62550   7.65644   7.68299   7.69517
 Alpha virt. eigenvalues --    7.72450   7.74203   7.75235   7.77980   7.78547
 Alpha virt. eigenvalues --    7.83196   7.85480   7.86367   7.87662   7.89295
 Alpha virt. eigenvalues --    7.91120   7.92978   7.94236   7.95511   7.97421
 Alpha virt. eigenvalues --    7.98330   8.01976   8.03072   8.03803   8.07343
 Alpha virt. eigenvalues --    8.11164   8.11737   8.13156   8.14908   8.16790
 Alpha virt. eigenvalues --    8.17511   8.19832   8.20566   8.22377   8.24085
 Alpha virt. eigenvalues --    8.25868   8.27507   8.30212   8.33010   8.34027
 Alpha virt. eigenvalues --    8.35321   8.36667   8.39339   8.40718   8.45326
 Alpha virt. eigenvalues --    8.46435   8.47764   8.50598   8.52974   8.54255
 Alpha virt. eigenvalues --    8.55762   8.56883   8.60072   8.61292   8.62545
 Alpha virt. eigenvalues --    8.64251   8.66165   8.68060   8.69779   8.70862
 Alpha virt. eigenvalues --    8.74936   8.76447   8.78875   8.80211   8.81526
 Alpha virt. eigenvalues --    8.84611   8.87330   8.88466   8.91440   8.92392
 Alpha virt. eigenvalues --    8.94834   8.98409   9.01079   9.03629   9.06720
 Alpha virt. eigenvalues --    9.07443   9.11433   9.13113   9.14823   9.15850
 Alpha virt. eigenvalues --    9.19323   9.21481   9.24525   9.27408   9.31137
 Alpha virt. eigenvalues --    9.32677   9.34852   9.36624   9.41276   9.45505
 Alpha virt. eigenvalues --    9.49173   9.52623   9.54909   9.57617   9.64324
 Alpha virt. eigenvalues --    9.65455   9.69088   9.70398   9.72324   9.75959
 Alpha virt. eigenvalues --    9.83040   9.83632   9.89104   9.95235   9.96392
 Alpha virt. eigenvalues --    9.99371  10.02453  10.06400  10.07612  10.12506
 Alpha virt. eigenvalues --   10.20306  10.23425  10.35013  10.49917  10.58748
 Alpha virt. eigenvalues --   10.72385  10.75964  10.86647  11.02479  11.06409
 Alpha virt. eigenvalues --   11.30979  11.32530  11.37778  11.56265  11.92746
 Alpha virt. eigenvalues --   12.00375  12.11095  12.19354  12.25839  12.38962
 Alpha virt. eigenvalues --   12.56721  12.91560  13.78461  29.15552  29.23890
 Alpha virt. eigenvalues --   29.45551  29.79441 148.77810 148.93069 149.15677
 Alpha virt. eigenvalues --  149.47459
          Condensed to atoms (all electrons):
               1          2          3          4          5          6
     1  C    5.142087   0.306298   0.410813   0.431348   0.349477  -0.052164
     2  C    0.306298   4.837119  -0.038941  -0.076987  -0.033041   0.374625
     3  H    0.410813  -0.038941   0.652786  -0.048930  -0.019564   0.012144
     4  H    0.431348  -0.076987  -0.048930   0.350634   0.003537  -0.018167
     5  H    0.349477  -0.033041  -0.019564   0.003537   0.667130  -0.005612
     6  C   -0.052164   0.374625   0.012144  -0.018167  -0.005612   4.825170
     7  H   -0.048216   0.391403  -0.012583  -0.007846   0.009753  -0.075289
     8  H   -0.075758   0.405481  -0.011038   0.022842  -0.007048  -0.052729
     9  C    0.006708  -0.055470  -0.000934  -0.000087   0.000613   0.380177
    10  H   -0.006240  -0.056426  -0.000596  -0.001648   0.007793   0.376123
    11  H   -0.001557  -0.047557  -0.000523   0.008552  -0.000421   0.388457
    12  H    0.000366  -0.004916  -0.000019  -0.000016   0.000076  -0.028067
    13  H   -0.000588   0.009551   0.000052   0.000010   0.000002  -0.048405
    14  H   -0.000144  -0.005819  -0.000019   0.000025  -0.000019  -0.040431
               7          8          9         10         11         12
     1  C   -0.048216  -0.075758   0.006708  -0.006240  -0.001557   0.000366
     2  C    0.391403   0.405481  -0.055470  -0.056426  -0.047557  -0.004916
     3  H   -0.012583  -0.011038  -0.000934  -0.000596  -0.000523  -0.000019
     4  H   -0.007846   0.022842  -0.000087  -0.001648   0.008552  -0.000016
     5  H    0.009753  -0.007048   0.000613   0.007793  -0.000421   0.000076
     6  C   -0.075289  -0.052729   0.380177   0.376123   0.388457  -0.028067
     7  H    0.770380  -0.035977  -0.000074   0.015795  -0.008995   0.000200
     8  H   -0.035977   0.703200  -0.010222  -0.005583   0.010131   0.002284
     9  C   -0.000074  -0.010222   4.735201  -0.044041  -0.032375   0.387671
    10  H    0.015795  -0.005583  -0.044041   0.731511  -0.036572  -0.001862
    11  H   -0.008995   0.010131  -0.032375  -0.036572   0.693270   0.004847
    12  H    0.000200   0.002284   0.387671  -0.001862   0.004847   0.660099
    13  H   -0.000357   0.000142   0.397484  -0.008343  -0.001209  -0.022139
    14  H    0.004176   0.000416   0.414599   0.009883  -0.004290  -0.029870
              13         14
     1  C   -0.000588  -0.000144
     2  C    0.009551  -0.005819
     3  H    0.000052  -0.000019
     4  H    0.000010   0.000025
     5  H    0.000002  -0.000019
     6  C   -0.048405  -0.040431
     7  H   -0.000357   0.004176
     8  H    0.000142   0.000416
     9  C    0.397484   0.414599
    10  H   -0.008343   0.009883
    11  H   -0.001209  -0.004290
    12  H   -0.022139  -0.029870
    13  H    0.670442  -0.035830
    14  H   -0.035830   0.596370
 Mulliken charges:
               1
     1  C   -0.462431
     2  C   -0.005320
     3  H    0.057352
     4  H    0.336732
     5  H    0.027323
     6  C   -0.035831
     7  H   -0.002372
     8  H    0.053859
     9  C   -0.179248
    10  H    0.020205
    11  H    0.028244
    12  H    0.031347
    13  H    0.039188
    14  H    0.090952
 Sum of Mulliken charges =   0.00000
 Mulliken charges with hydrogens summed into heavy atoms:
               1
     1  C   -0.041024
     2  C    0.046167
     6  C    0.012618
     9  C   -0.017761
 Electronic spatial extent (au):  <R**2>=            422.5425
 Charge=              0.0000 electrons
 Dipole moment (field-independent basis, Debye):
    X=              0.1874    Y=             -0.1129    Z=             -0.5428  Tot=              0.5852
 Quadrupole moment (field-independent basis, Debye-Ang):
   XX=            -30.5242   YY=            -29.6602   ZZ=            -28.1489
   XY=              0.2141   XZ=              0.3918   YZ=              0.1063
 Traceless Quadrupole moment (field-independent basis, Debye-Ang):
   XX=             -1.0798   YY=             -0.2158   ZZ=              1.2955
   XY=              0.2141   XZ=              0.3918   YZ=              0.1063
 Octapole moment (field-independent basis, Debye-Ang**2):
  XXX=              2.7260  YYY=             -0.6729  ZZZ=             -1.7891  XYY=              0.6769
  XXY=             -1.7014  XXZ=             -3.6938  XZZ=             -0.7958  YZZ=             -0.1279
  YYZ=             -0.2745  XYZ=             -1.0922
 Hexadecapole moment (field-independent basis, Debye-Ang**3):
 XXXX=           -471.3291 YYYY=            -98.8611 ZZZZ=            -67.3371 XXXY=              7.2165
 XXXZ=              5.4313 YYYX=              1.4101 YYYZ=             -1.1087 ZZZX=              0.4890
 ZZZY=             -0.8944 XXYY=            -90.0995 XXZZ=            -86.0604 YYZZ=            -24.5151
 XXYZ=              2.2693 YYXZ=              0.1616 ZZXY=             -2.6568
 N-N= 1.319651784794D+02 E-N=-6.294560633357D+02  KE= 1.578552756741D+02
 Leave Link  601 at Wed Aug 26 23:49:21 2020, MaxMem=  2097152000 cpu:         1.2
 (Enter /opt/cluster/programs/g09/g09_d.01/g09/l9999.exe)
 1\1\GINC-NODE17\SP\RB2PLYPD3-FC\def2QZVP\C4H10\BOITTIER\26-Aug-2020\0\
 \#p B2PLYPD3/Def2QZVP\\butane_opt\\0,1\C,0,-3.891825,0.211912,0.077554
 \C,0,-2.734131,-0.529777,0.025415\H,0,-4.84011,-0.393893,-0.268523\H,0
 ,-3.792749,0.525496,-0.611101\H,0,-3.982457,1.146164,1.230176\C,0,-1.4
 2097,0.202759,-0.111055\H,0,-2.663338,-1.258203,-0.939277\H,0,-2.77603
 8,-1.105091,0.86948\C,0,-0.17592,-0.74727,0.081717\H,0,-1.388264,0.916
 621,0.800525\H,0,-1.477891,0.903778,-1.066888\H,0,-0.177257,-1.555936,
 1.128921\H,0,0.785988,-0.047237,0.139198\H,0,-0.02482,-1.273462,-0.655
 791\\Version=ES64L-G09RevD.01\State=1-A\HF=-157.8178369\MP2=-158.06888
 04\RMSD=4.540e-09\PG=C01 [X(C4H10)]\\@


 SOME THINGS ARE EASY, THEY ARE ONLY HARD TO DO.
            -- A. EINSTEIN TO J. O. HIRSCHFELDER
 THE ONLY TROUBLE WITH A SURE THING IS THE UNCERTAINTY.
     -- FROM A TEABAG (BELONGING TO W.H.?)
 Job cpu time:       0 days  2 hours  3 minutes 28.2 seconds.
 File lengths (MBytes):  RWF=    152 Int=      0 D2E=      0 Chk=     14 Scr=      1
 Normal termination of Gaussian 09 at Wed Aug 26 23:49:28 2020.
