 Entering Gaussian System, Link 0=/opt/cluster/programs/g09/g09_d.01/g09//g09
 Input=/home/boittier/MDCM/nms_sampling/butane_geom.xyz.dir/energies/butane_opt_2778_energy.com
 Output=/scratch/boittier/butane_opt_2778_energy/butane_opt_2778_energy.out
 Initial command:
 /opt/cluster/programs/g09/g09_d.01/g09/l1.exe "/scratch/boittier/butane_opt_2778_energy/Gau-145581.inp" -scrdir="/scratch/boittier/butane_opt_2778_energy/"
 Entering Link 1 = /opt/cluster/programs/g09/g09_d.01/g09/l1.exe PID=    145582.
  
 Copyright (c) 1988,1990,1992,1993,1995,1998,2003,2009,2013,
            Gaussian, Inc.  All Rights Reserved.
  
 This is part of the Gaussian(R) 09 program.  It is based on
 the Gaussian(R) 03 system (copyright 2003, Gaussian, Inc.),
 the Gaussian(R) 98 system (copyright 1998, Gaussian, Inc.),
 the Gaussian(R) 94 system (copyright 1995, Gaussian, Inc.),
 the Gaussian 92(TM) system (copyright 1992, Gaussian, Inc.),
 the Gaussian 90(TM) system (copyright 1990, Gaussian, Inc.),
 the Gaussian 88(TM) system (copyright 1988, Gaussian, Inc.),
 the Gaussian 86(TM) system (copyright 1986, Carnegie Mellon
 University), and the Gaussian 82(TM) system (copyright 1983,
 Carnegie Mellon University). Gaussian is a federally registered
 trademark of Gaussian, Inc.
  
 This software contains proprietary and confidential information,
 including trade secrets, belonging to Gaussian, Inc.
  
 This software is provided under written license and may be
 used, copied, transmitted, or stored only in accord with that
 written license.
  
 The following legend is applicable only to US Government
 contracts under FAR:
  
                    RESTRICTED RIGHTS LEGEND
  
 Use, reproduction and disclosure by the US Government is
 subject to restrictions as set forth in subparagraphs (a)
 and (c) of the Commercial Computer Software - Restricted
 Rights clause in FAR 52.227-19.
  
 Gaussian, Inc.
 340 Quinnipiac St., Bldg. 40, Wallingford CT 06492
  
  
 ---------------------------------------------------------------
 Warning -- This program may not be used in any manner that
 competes with the business of Gaussian, Inc. or will provide
 assistance to any competitor of Gaussian, Inc.  The licensee
 of this program is prohibited from giving any competitor of
 Gaussian, Inc. access to this program.  By using this program,
 the user acknowledges that Gaussian, Inc. is engaged in the
 business of creating and licensing software in the field of
 computational chemistry and represents and warrants to the
 licensee that it is not a competitor of Gaussian, Inc. and that
 it will not use this program in any manner prohibited above.
 ---------------------------------------------------------------
  

 Cite this work as:
 Gaussian 09, Revision D.01,
 M. J. Frisch, G. W. Trucks, H. B. Schlegel, G. E. Scuseria, 
 M. A. Robb, J. R. Cheeseman, G. Scalmani, V. Barone, B. Mennucci, 
 G. A. Petersson, H. Nakatsuji, M. Caricato, X. Li, H. P. Hratchian, 
 A. F. Izmaylov, J. Bloino, G. Zheng, J. L. Sonnenberg, M. Hada, 
 M. Ehara, K. Toyota, R. Fukuda, J. Hasegawa, M. Ishida, T. Nakajima, 
 Y. Honda, O. Kitao, H. Nakai, T. Vreven, J. A. Montgomery, Jr., 
 J. E. Peralta, F. Ogliaro, M. Bearpark, J. J. Heyd, E. Brothers, 
 K. N. Kudin, V. N. Staroverov, T. Keith, R. Kobayashi, J. Normand, 
 K. Raghavachari, A. Rendell, J. C. Burant, S. S. Iyengar, J. Tomasi, 
 M. Cossi, N. Rega, J. M. Millam, M. Klene, J. E. Knox, J. B. Cross, 
 V. Bakken, C. Adamo, J. Jaramillo, R. Gomperts, R. E. Stratmann, 
 O. Yazyev, A. J. Austin, R. Cammi, C. Pomelli, J. W. Ochterski, 
 R. L. Martin, K. Morokuma, V. G. Zakrzewski, G. A. Voth, 
 P. Salvador, J. J. Dannenberg, S. Dapprich, A. D. Daniels, 
 O. Farkas, J. B. Foresman, J. V. Ortiz, J. Cioslowski, 
 and D. J. Fox, Gaussian, Inc., Wallingford CT, 2013.
 
 ******************************************
 Gaussian 09:  ES64L-G09RevD.01 24-Apr-2013
                26-Aug-2020 
 ******************************************
 %chk=/home/boittier/MDCM/nms_sampling/butane_geom.xyz.dir/butane_opt_2778.chk
 %nproc=8
 Will use up to    8 processors via shared memory.
 %mem=16000MB
 --------------------
 #p B2PLYPD3/Def2QZVP
 --------------------
 1/38=1/1;
 2/12=2,17=6,18=5,40=1/2;
 3/5=45,7=101,11=9,16=1,25=1,30=1,74=-60/1,2,3;
 4//1;
 5/5=2,38=5/2;
 8/10=1/1;
 9/16=-3/6;
 6/7=2,8=2,9=2,10=2/1;
 99/5=1,9=1/99;
 Leave Link    1 at Wed Aug 26 20:40:16 2020, MaxMem=  2097152000 cpu:         3.6
 (Enter /opt/cluster/programs/g09/g09_d.01/g09/l101.exe)
 ----------
 butane_opt
 ----------
 Symbolic Z-matrix:
 Charge =  0 Multiplicity = 1
 C                    -3.91564   0.26575  -0.02822 
 C                    -2.65986  -0.61619   0.10355 
 H                    -4.82931  -0.42302  -0.204 
 H                    -3.66319   0.66162  -0.80814 
 H                    -4.09052   1.03956   0.93743 
 C                    -1.45079   0.19707   0.033 
 H                    -2.80002  -1.25626  -0.68508 
 H                    -2.6312   -1.33974   1.10686 
 C                    -0.17953  -0.67401  -0.00587 
 H                    -1.3902    0.84095   0.82408 
 H                    -1.43441   0.98311  -0.92648 
 H                    -0.15113  -1.30275   0.85853 
 H                     0.63402  -0.14545   0.11463 
 H                    -0.19903  -1.62402  -1.00523 
 
 NAtoms=     14 NQM=       14 NQMF=       0 NMMI=      0 NMMIF=      0
                NMic=       0 NMicF=      0.
                    Isotopes and Nuclear Properties:
 (Nuclear quadrupole moments (NQMom) in fm**2, nuclear magnetic moments (NMagM)
  in nuclear magnetons)

  Atom         1           2           3           4           5           6           7           8           9          10
 IAtWgt=          12          12           1           1           1          12           1           1          12           1
 AtmWgt=  12.0000000  12.0000000   1.0078250   1.0078250   1.0078250  12.0000000   1.0078250   1.0078250  12.0000000   1.0078250
 NucSpn=           0           0           1           1           1           0           1           1           0           1
 AtZEff=   0.0000000   0.0000000   0.0000000   0.0000000   0.0000000   0.0000000   0.0000000   0.0000000   0.0000000   0.0000000
 NQMom=    0.0000000   0.0000000   0.0000000   0.0000000   0.0000000   0.0000000   0.0000000   0.0000000   0.0000000   0.0000000
 NMagM=    0.0000000   0.0000000   2.7928460   2.7928460   2.7928460   0.0000000   2.7928460   2.7928460   0.0000000   2.7928460
 AtZNuc=   6.0000000   6.0000000   1.0000000   1.0000000   1.0000000   6.0000000   1.0000000   1.0000000   6.0000000   1.0000000

  Atom        11          12          13          14
 IAtWgt=           1           1           1           1
 AtmWgt=   1.0078250   1.0078250   1.0078250   1.0078250
 NucSpn=           1           1           1           1
 AtZEff=   0.0000000   0.0000000   0.0000000   0.0000000
 NQMom=    0.0000000   0.0000000   0.0000000   0.0000000
 NMagM=    2.7928460   2.7928460   2.7928460   2.7928460
 AtZNuc=   1.0000000   1.0000000   1.0000000   1.0000000
 Leave Link  101 at Wed Aug 26 20:40:46 2020, MaxMem=  2097152000 cpu:         0.6
 (Enter /opt/cluster/programs/g09/g09_d.01/g09/l202.exe)
                          Input orientation:                          
 ---------------------------------------------------------------------
 Center     Atomic      Atomic             Coordinates (Angstroms)
 Number     Number       Type             X           Y           Z
 ---------------------------------------------------------------------
      1          6           0       -3.915638    0.265748   -0.028215
      2          6           0       -2.659863   -0.616192    0.103552
      3          1           0       -4.829308   -0.423021   -0.204002
      4          1           0       -3.663187    0.661618   -0.808142
      5          1           0       -4.090518    1.039555    0.937427
      6          6           0       -1.450794    0.197065    0.033004
      7          1           0       -2.800018   -1.256264   -0.685080
      8          1           0       -2.631201   -1.339741    1.106856
      9          6           0       -0.179528   -0.674006   -0.005873
     10          1           0       -1.390195    0.840948    0.824079
     11          1           0       -1.434407    0.983105   -0.926484
     12          1           0       -0.151125   -1.302748    0.858533
     13          1           0        0.634024   -0.145447    0.114625
     14          1           0       -0.199031   -1.624016   -1.005229
 ---------------------------------------------------------------------
                    Distance matrix (angstroms):
                    1          2          3          4          5
     1  C    0.000000
     2  C    1.540179   0.000000
     3  H    1.157625   2.199635   0.000000
     4  H    0.910346   1.862966   1.703310   0.000000
     5  H    1.249730   2.341713   1.996948   1.836426   0.000000
     6  C    2.466561   1.458839   3.443114   2.412057   2.914775
     7  H    1.998149   1.025318   2.245829   2.106769   3.093332
     8  H    2.348565   1.237321   2.718529   2.955952   2.796312
     9  C    3.852552   2.483421   4.660762   3.816203   4.372865
    10  H    2.726742   2.062637   3.805531   2.804068   2.709988
    11  H    2.734592   2.262845   3.744933   2.254954   3.245347
    12  H    4.173495   2.708343   4.877325   4.355585   4.583822
    13  H    4.570439   3.327374   5.479650   4.468655   4.939892
    14  H    4.282398   2.881111   4.850136   4.154918   5.100215
                    6          7          8          9         10
     6  C    0.000000
     7  H    2.109079   0.000000
     8  H    2.215466   1.801805   0.000000
     9  C    1.541555   2.768992   2.773458   0.000000
    10  H    1.021791   2.943376   2.524968   2.109412   0.000000
    11  H    1.240461   2.633997   3.310952   2.273381   1.756882
    12  H    2.149436   3.066192   2.492751   1.069262   2.476270
    13  H    2.114342   3.696767   3.615599   0.977630   2.360882
    14  H    2.441552   2.646294   3.233754   1.378989   3.292611
                   11         12         13         14
    11  H    0.000000
    12  H    3.171470   0.000000
    13  H    2.576033   1.584047   0.000000
    14  H    2.886076   1.891855   2.033278   0.000000
 Stoichiometry    C4H10
 Framework group  C1[X(C4H10)]
 Deg. of freedom    36
 Full point group                 C1      NOp   1
 Largest Abelian subgroup         C1      NOp   1
 Largest concise Abelian subgroup C1      NOp   1
                         Standard orientation:                         
 ---------------------------------------------------------------------
 Center     Atomic      Atomic             Coordinates (Angstroms)
 Number     Number       Type             X           Y           Z
 ---------------------------------------------------------------------
      1          6           0        1.921893   -0.118956   -0.055453
      2          6           0        0.519821    0.504723    0.076343
      3          1           0        2.685245    0.732415   -0.235891
      4          1           0        1.749174   -0.559116   -0.833371
      5          1           0        2.244433   -0.840740    0.912442
      6          6           0       -0.509802   -0.526731    0.011611
      7          1           0        0.532504    1.156735   -0.714855
      8          1           0        0.353894    1.213057    1.077191
      9          6           0       -1.925277    0.082631   -0.027159
     10          1           0       -0.443685   -1.167129    0.805070
     11          1           0       -0.375948   -1.304900   -0.945092
     12          1           0       -2.072906    0.697448    0.835121
     13          1           0       -2.621390   -0.592444    0.097186
     14          1           0       -2.091130    1.014669   -1.029861
 ---------------------------------------------------------------------
 Rotational constants (GHZ):     22.2331060      3.7787644      3.5336144
 Leave Link  202 at Wed Aug 26 20:40:48 2020, MaxMem=  2097152000 cpu:         0.0
 (Enter /opt/cluster/programs/g09/g09_d.01/g09/l301.exe)
 Standard basis: def2QZVP (5D, 7F)
 Ernie: Thresh=  0.10000D-02 Tol=  0.10000D-05 Strict=F.
 There are   638 symmetry adapted cartesian basis functions of A   symmetry.
 There are   528 symmetry adapted basis functions of A   symmetry.
   528 basis functions,   748 primitive gaussians,   638 cartesian basis functions
    17 alpha electrons       17 beta electrons
       nuclear repulsion energy       131.4269227828 Hartrees.
 IExCor=  419 DFT=T Ex+Corr=B2PLYPD3 ExCW=0 ScaHFX=  0.530000
 ScaDFX=  0.470000  0.470000  0.730000  0.730000 ScalE2=  0.270000  0.270000
 IRadAn=      0 IRanWt=     -1 IRanGd=            0 ICorTp=0 IEmpDi=141
 NAtoms=   14 NActive=   14 NUniq=   14 SFac= 1.00D+00 NAtFMM=   60 NAOKFM=F Big=F
 Integral buffers will be    131072 words long.
 Regular integral format.
 Two-electron integral symmetry is turned on.
 R6Disp:  Grimme-D3(BJ) Dispersion energy=       -0.0065933610 Hartrees.
 Nuclear repulsion after empirical dispersion term =      131.4203294218 Hartrees.
 Leave Link  301 at Wed Aug 26 20:40:51 2020, MaxMem=  2097152000 cpu:         0.5
 (Enter /opt/cluster/programs/g09/g09_d.01/g09/l302.exe)
 NPDir=0 NMtPBC=     1 NCelOv=     1 NCel=       1 NClECP=     1 NCelD=      1
         NCelK=      1 NCelE2=     1 NClLst=     1 CellRange=     0.0.
 One-electron integrals computed using PRISM.
   1 Symmetry operations used in ECPInt.
 ECPInt:  NShTT=   14196 NPrTT=   30597 LenC2=   13903 LenP2D=   26096.
 LDataN:  DoStor=T MaxTD1= 8 Len=  415
 NBasis=   528 RedAO= T EigKep=  3.61D-05  NBF=   528
 NBsUse=   528 1.00D-06 EigRej= -1.00D+00 NBFU=   528
 Precomputing XC quadrature grid using
 IXCGrd= 4 IRadAn=           0 IRanWt=          -1 IRanGd=           0 AccXCQ= 0.00D+00.
 Generated NRdTot=       0 NPtTot=           0 NUsed=           0 NTot=          32
 NSgBfM=   638   638   638   638   638 MxSgAt=    14 MxSgA2=    14.
 Leave Link  302 at Wed Aug 26 20:40:55 2020, MaxMem=  2097152000 cpu:         5.3
 (Enter /opt/cluster/programs/g09/g09_d.01/g09/l303.exe)
 DipDrv:  MaxL=1.
 Leave Link  303 at Wed Aug 26 20:40:57 2020, MaxMem=  2097152000 cpu:         0.6
 (Enter /opt/cluster/programs/g09/g09_d.01/g09/l401.exe)
 ExpMin= 7.60D-02 ExpMax= 6.70D+04 ExpMxC= 6.47D+02 IAcc=2 IRadAn=         4 AccDes= 0.00D+00
 Harris functional with IExCor=  419 and IRadAn=       4 diagonalized for initial guess.
 HarFok:  IExCor=  419 AccDes= 0.00D+00 IRadAn=         4 IDoV= 1 UseB2=F ITyADJ=14
 ICtDFT=  3500011 ScaDFX=  1.000000  1.000000  1.000000  1.000000
 FoFCou: FMM=F IPFlag=           0 FMFlag=      100000 FMFlg1=           0
         NFxFlg=           0 DoJE=T BraDBF=F KetDBF=T FulRan=T
         wScrn=  0.000000 ICntrl=     500 IOpCl=  0 I1Cent=   200000004 NGrid=           0
         NMat0=    1 NMatS0=      1 NMatT0=    0 NMatD0=    1 NMtDS0=    0 NMtDT0=    0
 Petite list used in FoFCou.
 Harris En= -158.509272735173    
 JPrj=0 DoOrth=F DoCkMO=F.
 Leave Link  401 at Wed Aug 26 20:41:12 2020, MaxMem=  2097152000 cpu:        16.0
 (Enter /opt/cluster/programs/g09/g09_d.01/g09/l502.exe)
 Closed shell SCF:
 Using DIIS extrapolation, IDIIS=  1040.
 Integral symmetry usage will be decided dynamically.
 IVT=     1249338 IEndB=     1249338 NGot=  2097152000 MDV=  2096326985
 LenX=  2096326985 LenY=  2095919303
 Requested convergence on RMS density matrix=1.00D-08 within 128 cycles.
 Requested convergence on MAX density matrix=1.00D-06.
 Requested convergence on             energy=1.00D-06.
 No special actions if energy rises.
 Fock matrices will be formed incrementally for  20 cycles.
 Integral accuracy reduced to 1.0D-05 until final iterations.

 Cycle   1  Pass 0  IDiag  1:
 FoFJK:  IHMeth= 1 ICntrl=       0 DoSepK=F KAlg= 0 I1Cent=   0 FoldK=F
 IRaf= 940000000 NMat=   1 IRICut=       1 DoRegI=T DoRafI=F ISym2E= 0.
 FoFCou: FMM=F IPFlag=           0 FMFlag=      100000 FMFlg1=           0
         NFxFlg=           0 DoJE=F BraDBF=F KetDBF=F FulRan=T
         wScrn=  0.000000 ICntrl=       0 IOpCl=  0 I1Cent=           0 NGrid=           0
         NMat0=    1 NMatS0=      1 NMatT0=    0 NMatD0=    1 NMtDS0=    0 NMtDT0=    0
 Symmetry not used in FoFCou.
 E= -157.716368861090    
 DIIS: error= 2.36D-02 at cycle   1 NSaved=   1.
 NSaved= 1 IEnMin= 1 EnMin= -157.716368861090     IErMin= 1 ErrMin= 2.36D-02
 ErrMax= 2.36D-02  0.00D+00 EMaxC= 1.00D-01 BMatC= 3.53D-01 BMatP= 3.53D-01
 IDIUse=3 WtCom= 7.64D-01 WtEn= 2.36D-01
 Coeff-Com:  0.100D+01
 Coeff-En:   0.100D+01
 Coeff:      0.100D+01
 Gap=     0.387 Goal=   None    Shift=    0.000
 GapD=    0.387 DampG=1.000 DampE=0.500 DampFc=0.5000 IDamp=-1.
 Damping current iteration by 5.00D-01
 RMSDP=1.03D-03 MaxDP=5.99D-02              OVMax= 2.02D-01

 Cycle   2  Pass 0  IDiag  1:
 RMSU=  4.94D-04    CP:  9.49D-01
 E= -157.861930196498     Delta-E=       -0.145561335408 Rises=F Damp=T
 DIIS: error= 5.95D-03 at cycle   2 NSaved=   2.
 NSaved= 2 IEnMin= 2 EnMin= -157.861930196498     IErMin= 2 ErrMin= 5.95D-03
 ErrMax= 5.95D-03  0.00D+00 EMaxC= 1.00D-01 BMatC= 3.19D-02 BMatP= 3.53D-01
 IDIUse=3 WtCom= 9.40D-01 WtEn= 5.95D-02
 Coeff-Com: -0.153D+00 0.115D+01
 Coeff-En:   0.000D+00 0.100D+01
 Coeff:     -0.144D+00 0.114D+01
 Gap=     0.453 Goal=   None    Shift=    0.000
 RMSDP=2.73D-04 MaxDP=1.53D-02 DE=-1.46D-01 OVMax= 1.15D-01

 Cycle   3  Pass 0  IDiag  1:
 RMSU=  2.53D-04    CP:  9.36D-01  8.07D-01
 E= -157.999698810526     Delta-E=       -0.137768614028 Rises=F Damp=F
 DIIS: error= 3.41D-03 at cycle   3 NSaved=   3.
 NSaved= 3 IEnMin= 3 EnMin= -157.999698810526     IErMin= 3 ErrMin= 3.41D-03
 ErrMax= 3.41D-03  0.00D+00 EMaxC= 1.00D-01 BMatC= 3.27D-03 BMatP= 3.19D-02
 IDIUse=3 WtCom= 9.66D-01 WtEn= 3.41D-02
 Coeff-Com: -0.987D-01 0.210D+00 0.888D+00
 Coeff-En:   0.000D+00 0.000D+00 0.100D+01
 Coeff:     -0.954D-01 0.203D+00 0.892D+00
 Gap=     0.416 Goal=   None    Shift=    0.000
 RMSDP=6.68D-05 MaxDP=4.89D-03 DE=-1.38D-01 OVMax= 1.46D-02

 Cycle   4  Pass 0  IDiag  1:
 RMSU=  5.42D-05    CP:  9.32D-01  8.81D-01  1.01D+00
 E= -158.002824540410     Delta-E=       -0.003125729884 Rises=F Damp=F
 DIIS: error= 1.04D-03 at cycle   4 NSaved=   4.
 NSaved= 4 IEnMin= 4 EnMin= -158.002824540410     IErMin= 4 ErrMin= 1.04D-03
 ErrMax= 1.04D-03  0.00D+00 EMaxC= 1.00D-01 BMatC= 3.40D-04 BMatP= 3.27D-03
 IDIUse=3 WtCom= 9.90D-01 WtEn= 1.04D-02
 Coeff-Com: -0.324D-01 0.487D-01 0.348D+00 0.636D+00
 Coeff-En:   0.000D+00 0.000D+00 0.000D+00 0.100D+01
 Coeff:     -0.321D-01 0.482D-01 0.344D+00 0.640D+00
 Gap=     0.418 Goal=   None    Shift=    0.000
 RMSDP=2.00D-05 MaxDP=1.39D-03 DE=-3.13D-03 OVMax= 4.72D-03

 Cycle   5  Pass 0  IDiag  1:
 RMSU=  1.51D-05    CP:  9.32D-01  8.68D-01  1.05D+00  8.60D-01
 E= -158.003139107710     Delta-E=       -0.000314567300 Rises=F Damp=F
 DIIS: error= 1.32D-04 at cycle   5 NSaved=   5.
 NSaved= 5 IEnMin= 5 EnMin= -158.003139107710     IErMin= 5 ErrMin= 1.32D-04
 ErrMax= 1.32D-04  0.00D+00 EMaxC= 1.00D-01 BMatC= 1.23D-05 BMatP= 3.40D-04
 IDIUse=3 WtCom= 9.99D-01 WtEn= 1.32D-03
 Coeff-Com: -0.187D-02-0.135D-02 0.376D-01 0.184D+00 0.781D+00
 Coeff-En:   0.000D+00 0.000D+00 0.000D+00 0.000D+00 0.100D+01
 Coeff:     -0.187D-02-0.135D-02 0.375D-01 0.184D+00 0.782D+00
 Gap=     0.417 Goal=   None    Shift=    0.000
 RMSDP=4.88D-06 MaxDP=2.86D-04 DE=-3.15D-04 OVMax= 8.93D-04

 Initial convergence to 1.0D-05 achieved.  Increase integral accuracy.
 Cycle   6  Pass 1  IDiag  1:
 E= -158.003224407188     Delta-E=       -0.000085299478 Rises=F Damp=F
 DIIS: error= 5.49D-05 at cycle   1 NSaved=   1.
 NSaved= 1 IEnMin= 1 EnMin= -158.003224407188     IErMin= 1 ErrMin= 5.49D-05
 ErrMax= 5.49D-05  0.00D+00 EMaxC= 1.00D-01 BMatC= 6.43D-07 BMatP= 6.43D-07
 IDIUse=1 WtCom= 1.00D+00 WtEn= 0.00D+00
 Coeff-Com:  0.100D+01
 Coeff:      0.100D+01
 Gap=     0.417 Goal=   None    Shift=    0.000
 RMSDP=4.88D-06 MaxDP=2.86D-04 DE=-8.53D-05 OVMax= 2.16D-04

 Cycle   7  Pass 1  IDiag  1:
 RMSU=  2.50D-05    CP:  1.00D+00
 E= -158.003224889252     Delta-E=       -0.000000482064 Rises=F Damp=F
 DIIS: error= 8.45D-06 at cycle   2 NSaved=   2.
 NSaved= 2 IEnMin= 2 EnMin= -158.003224889252     IErMin= 2 ErrMin= 8.45D-06
 ErrMax= 8.45D-06  0.00D+00 EMaxC= 1.00D-01 BMatC= 3.18D-08 BMatP= 6.43D-07
 IDIUse=1 WtCom= 1.00D+00 WtEn= 0.00D+00
 Coeff-Com:  0.482D-01 0.952D+00
 Coeff:      0.482D-01 0.952D+00
 Gap=     0.417 Goal=   None    Shift=    0.000
 RMSDP=8.38D-07 MaxDP=5.83D-05 DE=-4.82D-07 OVMax= 7.01D-05

 Cycle   8  Pass 1  IDiag  1:
 RMSU=  4.04D-07    CP:  1.00D+00  1.03D+00
 E= -158.003224914198     Delta-E=       -0.000000024946 Rises=F Damp=F
 DIIS: error= 5.89D-06 at cycle   3 NSaved=   3.
 NSaved= 3 IEnMin= 3 EnMin= -158.003224914198     IErMin= 3 ErrMin= 5.89D-06
 ErrMax= 5.89D-06  0.00D+00 EMaxC= 1.00D-01 BMatC= 1.71D-08 BMatP= 3.18D-08
 IDIUse=1 WtCom= 1.00D+00 WtEn= 0.00D+00
 Coeff-Com: -0.251D-01 0.415D+00 0.610D+00
 Coeff:     -0.251D-01 0.415D+00 0.610D+00
 Gap=     0.417 Goal=   None    Shift=    0.000
 RMSDP=1.68D-07 MaxDP=1.02D-05 DE=-2.49D-08 OVMax= 3.47D-05

 Cycle   9  Pass 1  IDiag  1:
 RMSU=  1.49D-07    CP:  1.00D+00  1.03D+00  9.47D-01
 E= -158.003224931184     Delta-E=       -0.000000016986 Rises=F Damp=F
 DIIS: error= 1.01D-06 at cycle   4 NSaved=   4.
 NSaved= 4 IEnMin= 4 EnMin= -158.003224931184     IErMin= 4 ErrMin= 1.01D-06
 ErrMax= 1.01D-06  0.00D+00 EMaxC= 1.00D-01 BMatC= 3.09D-10 BMatP= 1.71D-08
 IDIUse=1 WtCom= 1.00D+00 WtEn= 0.00D+00
 Coeff-Com: -0.732D-02-0.663D-02 0.812D-01 0.933D+00
 Coeff:     -0.732D-02-0.663D-02 0.812D-01 0.933D+00
 Gap=     0.417 Goal=   None    Shift=    0.000
 RMSDP=4.81D-08 MaxDP=2.88D-06 DE=-1.70D-08 OVMax= 6.90D-06

 Cycle  10  Pass 1  IDiag  1:
 RMSU=  3.30D-08    CP:  1.00D+00  1.03D+00  1.02D+00  1.13D+00
 E= -158.003224931668     Delta-E=       -0.000000000484 Rises=F Damp=F
 DIIS: error= 2.93D-07 at cycle   5 NSaved=   5.
 NSaved= 5 IEnMin= 5 EnMin= -158.003224931668     IErMin= 5 ErrMin= 2.93D-07
 ErrMax= 2.93D-07  0.00D+00 EMaxC= 1.00D-01 BMatC= 2.39D-11 BMatP= 3.09D-10
 IDIUse=1 WtCom= 1.00D+00 WtEn= 0.00D+00
 Coeff-Com:  0.834D-03-0.358D-01-0.377D-01 0.173D+00 0.900D+00
 Coeff:      0.834D-03-0.358D-01-0.377D-01 0.173D+00 0.900D+00
 Gap=     0.417 Goal=   None    Shift=    0.000
 RMSDP=1.41D-08 MaxDP=6.19D-07 DE=-4.84D-10 OVMax= 2.09D-06

 Cycle  11  Pass 1  IDiag  1:
 RMSU=  7.92D-09    CP:  1.00D+00  1.03D+00  1.03D+00  1.18D+00  1.11D+00
 E= -158.003224931704     Delta-E=       -0.000000000036 Rises=F Damp=F
 DIIS: error= 5.14D-08 at cycle   6 NSaved=   6.
 NSaved= 6 IEnMin= 6 EnMin= -158.003224931704     IErMin= 6 ErrMin= 5.14D-08
 ErrMax= 5.14D-08  0.00D+00 EMaxC= 1.00D-01 BMatC= 1.16D-12 BMatP= 2.39D-11
 IDIUse=1 WtCom= 1.00D+00 WtEn= 0.00D+00
 Coeff-Com:  0.441D-03-0.114D-01-0.140D-01 0.379D-01 0.296D+00 0.691D+00
 Coeff:      0.441D-03-0.114D-01-0.140D-01 0.379D-01 0.296D+00 0.691D+00
 Gap=     0.417 Goal=   None    Shift=    0.000
 RMSDP=1.71D-09 MaxDP=9.01D-08 DE=-3.62D-11 OVMax= 2.75D-07

 SCF Done:  E(RB2PLYPD3) =  -158.003224932     A.U. after   11 cycles
            NFock= 11  Conv=0.17D-08     -V/T= 2.0030
 KE= 1.575328114275D+02 PE=-6.284862559015D+02 EE= 1.815298901205D+02
 Leave Link  502 at Wed Aug 26 20:48:39 2020, MaxMem=  2097152000 cpu:      3507.3
 (Enter /opt/cluster/programs/g09/g09_d.01/g09/l801.exe)
 DoSCS=T DFT=T ScalE2(SS,OS)=  0.270000  0.270000
 ExpMin= 7.60D-02 ExpMax= 6.70D+04 ExpMxC= 6.47D+02 IAcc=3 IRadAn=         5 AccDes= 0.00D+00
 HarFok:  IExCor=  205 AccDes= 0.00D+00 IRadAn=         5 IDoV=-2 UseB2=F ITyADJ=14
 ICtDFT= 12500011 ScaDFX=  1.000000  1.000000  1.000000  1.000000
 Largest valence mixing into a core orbital is  1.12D-04
 Largest core mixing into a valence orbital is  1.76D-05
 Range of M.O.s used for correlation:     5   528
 NBasis=   528 NAE=    17 NBE=    17 NFC=     4 NFV=     0
 NROrb=    524 NOA=    13 NOB=    13 NVA=   511 NVB=   511

 **** Warning!!: The largest alpha MO coefficient is  0.28036673D+02

 Leave Link  801 at Wed Aug 26 20:48:57 2020, MaxMem=  2097152000 cpu:         1.2
 (Enter /opt/cluster/programs/g09/g09_d.01/g09/l906.exe)
 DoSCS=T DFT=T ScalE2(SS,OS)=  0.270000  0.270000
 FulOut=F Deriv=F AODrv=F NAtomX=    14
   MMem=         463  MDisk=          13 MDiskD=          13
  W3Min=     4238234 MinDsk=     6904766 NBas6D=         638
 NBas2D=      205689    NTT=      203841    LW2=     4508827
    MDV=  2095896242 MDiskM=        7293 NBas2p=      190858
 Fully direct method using O(OVN) memory.
 IMap=   1   2   3   4   5   6   7   8   9  10  11  12  13
 JobTyp=1 Pass  1:  I=   1 to  13 NPSUse=  8 ParTrn=T ParDer=T DoDerP=F.
 Spin components of T(2) and E(2):
     alpha-alpha T2 =       0.4099146696D-01 E2=     -0.2635679882D-01
     alpha-beta  T2 =       0.2750472866D+00 E2=     -0.1959959075D+00
     beta-beta   T2 =       0.4099146696D-01 E2=     -0.2635679882D-01
 The integrals were generated   1 times.
 E2(B2PLYPD3) =    -0.2487095052D+00 E(B2PLYPD3) =    -0.15825193443689D+03
 Leave Link  906 at Wed Aug 26 20:54:10 2020, MaxMem=  2097152000 cpu:      2482.2
 (Enter /opt/cluster/programs/g09/g09_d.01/g09/l601.exe)
 Copying SCF densities to generalized density rwf, IOpCl= 0 IROHF=0.

 **********************************************************************

            Population analysis using the SCF density.

 **********************************************************************

 Orbital symmetries:
       Occupied  (A) (A) (A) (A) (A) (A) (A) (A) (A) (A) (A) (A)
                 (A) (A) (A) (A) (A)
       Virtual   (A) (A) (A) (A) (A) (A) (A) (A) (A) (A) (A) (A)
                 (A) (A) (A) (A) (A) (A) (A) (A) (A) (A) (A) (A)
                 (A) (A) (A) (A) (A) (A) (A) (A) (A) (A) (A) (A)
                 (A) (A) (A) (A) (A) (A) (A) (A) (A) (A) (A) (A)
                 (A) (A) (A) (A) (A) (A) (A) (A) (A) (A) (A) (A)
                 (A) (A) (A) (A) (A) (A) (A) (A) (A) (A) (A) (A)
                 (A) (A) (A) (A) (A) (A) (A) (A) (A) (A) (A) (A)
                 (A) (A) (A) (A) (A) (A) (A) (A) (A) (A) (A) (A)
                 (A) (A) (A) (A) (A) (A) (A) (A) (A) (A) (A) (A)
                 (A) (A) (A) (A) (A) (A) (A) (A) (A) (A) (A) (A)
                 (A) (A) (A) (A) (A) (A) (A) (A) (A) (A) (A) (A)
                 (A) (A) (A) (A) (A) (A) (A) (A) (A) (A) (A) (A)
                 (A) (A) (A) (A) (A) (A) (A) (A) (A) (A) (A) (A)
                 (A) (A) (A) (A) (A) (A) (A) (A) (A) (A) (A) (A)
                 (A) (A) (A) (A) (A) (A) (A) (A) (A) (A) (A) (A)
                 (A) (A) (A) (A) (A) (A) (A) (A) (A) (A) (A) (A)
                 (A) (A) (A) (A) (A) (A) (A) (A) (A) (A) (A) (A)
                 (A) (A) (A) (A) (A) (A) (A) (A) (A) (A) (A) (A)
                 (A) (A) (A) (A) (A) (A) (A) (A) (A) (A) (A) (A)
                 (A) (A) (A) (A) (A) (A) (A) (A) (A) (A) (A) (A)
                 (A) (A) (A) (A) (A) (A) (A) (A) (A) (A) (A) (A)
                 (A) (A) (A) (A) (A) (A) (A) (A) (A) (A) (A) (A)
                 (A) (A) (A) (A) (A) (A) (A) (A) (A) (A) (A) (A)
                 (A) (A) (A) (A) (A) (A) (A) (A) (A) (A) (A) (A)
                 (A) (A) (A) (A) (A) (A) (A) (A) (A) (A) (A) (A)
                 (A) (A) (A) (A) (A) (A) (A) (A) (A) (A) (A) (A)
                 (A) (A) (A) (A) (A) (A) (A) (A) (A) (A) (A) (A)
                 (A) (A) (A) (A) (A) (A) (A) (A) (A) (A) (A) (A)
                 (A) (A) (A) (A) (A) (A) (A) (A) (A) (A) (A) (A)
                 (A) (A) (A) (A) (A) (A) (A) (A) (A) (A) (A) (A)
                 (A) (A) (A) (A) (A) (A) (A) (A) (A) (A) (A) (A)
                 (A) (A) (A) (A) (A) (A) (A) (A) (A) (A) (A) (A)
                 (A) (A) (A) (A) (A) (A) (A) (A) (A) (A) (A) (A)
                 (A) (A) (A) (A) (A) (A) (A) (A) (A) (A) (A) (A)
                 (A) (A) (A) (A) (A) (A) (A) (A) (A) (A) (A) (A)
                 (A) (A) (A) (A) (A) (A) (A) (A) (A) (A) (A) (A)
                 (A) (A) (A) (A) (A) (A) (A) (A) (A) (A) (A) (A)
                 (A) (A) (A) (A) (A) (A) (A) (A) (A) (A) (A) (A)
                 (A) (A) (A) (A) (A) (A) (A) (A) (A) (A) (A) (A)
                 (A) (A) (A) (A) (A) (A) (A) (A) (A) (A) (A) (A)
                 (A) (A) (A) (A) (A) (A) (A) (A) (A) (A) (A) (A)
                 (A) (A) (A) (A) (A) (A) (A) (A) (A) (A) (A) (A)
                 (A) (A) (A) (A) (A) (A) (A)
 The electronic state is 1-A.
 Alpha  occ. eigenvalues --  -10.61400 -10.61219 -10.60916 -10.60119  -0.92722
 Alpha  occ. eigenvalues --   -0.83944  -0.73265  -0.66641  -0.53883  -0.51031
 Alpha  occ. eigenvalues --   -0.49796  -0.46315  -0.42651  -0.39911  -0.39014
 Alpha  occ. eigenvalues --   -0.37508  -0.36321
 Alpha virt. eigenvalues --    0.05402   0.06459   0.07287   0.08244   0.10830
 Alpha virt. eigenvalues --    0.11491   0.12507   0.13783   0.14189   0.15084
 Alpha virt. eigenvalues --    0.15736   0.16268   0.19254   0.20185   0.21000
 Alpha virt. eigenvalues --    0.22356   0.23614   0.25402   0.26196   0.28710
 Alpha virt. eigenvalues --    0.29332   0.30316   0.31877   0.32344   0.34117
 Alpha virt. eigenvalues --    0.35201   0.36896   0.37149   0.38211   0.39098
 Alpha virt. eigenvalues --    0.41199   0.41484   0.43601   0.44193   0.46635
 Alpha virt. eigenvalues --    0.49495   0.51636   0.54745   0.55470   0.56779
 Alpha virt. eigenvalues --    0.59325   0.61822   0.62728   0.64809   0.65290
 Alpha virt. eigenvalues --    0.66544   0.67572   0.69713   0.70748   0.71904
 Alpha virt. eigenvalues --    0.74089   0.75283   0.76210   0.77286   0.78579
 Alpha virt. eigenvalues --    0.81524   0.82707   0.84497   0.86976   0.87236
 Alpha virt. eigenvalues --    0.88114   0.88862   0.89477   0.90667   0.91498
 Alpha virt. eigenvalues --    0.92444   0.94752   0.96051   0.97687   0.98269
 Alpha virt. eigenvalues --    0.99210   1.00239   1.01178   1.01736   1.02325
 Alpha virt. eigenvalues --    1.03299   1.04872   1.06744   1.08740   1.09627
 Alpha virt. eigenvalues --    1.10789   1.11580   1.14910   1.16157   1.17853
 Alpha virt. eigenvalues --    1.22563   1.23400   1.24416   1.26061   1.28391
 Alpha virt. eigenvalues --    1.29140   1.29846   1.33491   1.35499   1.36429
 Alpha virt. eigenvalues --    1.37938   1.39953   1.42587   1.44655   1.46751
 Alpha virt. eigenvalues --    1.47229   1.49329   1.50715   1.54163   1.57713
 Alpha virt. eigenvalues --    1.60365   1.62714   1.68961   1.69553   1.73264
 Alpha virt. eigenvalues --    1.75041   1.85194   1.86030   1.87436   1.89868
 Alpha virt. eigenvalues --    1.90615   1.93264   1.95524   1.97140   1.98603
 Alpha virt. eigenvalues --    2.01198   2.02276   2.04410   2.04791   2.06234
 Alpha virt. eigenvalues --    2.07468   2.08893   2.09736   2.10689   2.11732
 Alpha virt. eigenvalues --    2.12396   2.13773   2.14621   2.15405   2.16037
 Alpha virt. eigenvalues --    2.17348   2.18169   2.19825   2.20282   2.21889
 Alpha virt. eigenvalues --    2.22773   2.24767   2.25501   2.29476   2.30988
 Alpha virt. eigenvalues --    2.32325   2.34673   2.34841   2.36579   2.38573
 Alpha virt. eigenvalues --    2.40345   2.43162   2.45294   2.46289   2.46799
 Alpha virt. eigenvalues --    2.48936   2.50181   2.52006   2.53030   2.54965
 Alpha virt. eigenvalues --    2.56065   2.57228   2.60468   2.60731   2.61783
 Alpha virt. eigenvalues --    2.63295   2.65445   2.67696   2.69066   2.70696
 Alpha virt. eigenvalues --    2.71974   2.73390   2.74578   2.75186   2.76780
 Alpha virt. eigenvalues --    2.77667   2.78536   2.82031   2.82516   2.85673
 Alpha virt. eigenvalues --    2.88439   2.89680   2.90883   2.92705   2.95354
 Alpha virt. eigenvalues --    2.95978   2.98495   2.99581   3.00185   3.01574
 Alpha virt. eigenvalues --    3.02392   3.04395   3.06811   3.07766   3.09348
 Alpha virt. eigenvalues --    3.12265   3.13001   3.14274   3.16964   3.18553
 Alpha virt. eigenvalues --    3.21659   3.23880   3.26198   3.27417   3.28950
 Alpha virt. eigenvalues --    3.32186   3.34249   3.35623   3.37755   3.38991
 Alpha virt. eigenvalues --    3.40600   3.44206   3.46587   3.48235   3.49411
 Alpha virt. eigenvalues --    3.52832   3.54898   3.56209   3.60038   3.61121
 Alpha virt. eigenvalues --    3.63509   3.64675   3.66436   3.68783   3.71034
 Alpha virt. eigenvalues --    3.73294   3.80630   3.82765   3.86195   3.87843
 Alpha virt. eigenvalues --    3.89461   3.92160   3.93038   3.98984   4.00932
 Alpha virt. eigenvalues --    4.04417   4.05931   4.07068   4.08778   4.10587
 Alpha virt. eigenvalues --    4.13783   4.15793   4.19667   4.24430   4.25505
 Alpha virt. eigenvalues --    4.28063   4.32803   4.34215   4.42636   4.45530
 Alpha virt. eigenvalues --    4.49144   4.51367   4.81002   4.86786   4.96115
 Alpha virt. eigenvalues --    5.10951   5.17459   5.19016   5.20480   5.30274
 Alpha virt. eigenvalues --    5.35666   5.43260   5.44802   5.49155   5.49647
 Alpha virt. eigenvalues --    5.54274   5.57578   5.60946   5.63000   5.65866
 Alpha virt. eigenvalues --    5.68208   5.68978   5.72694   5.73601   5.77900
 Alpha virt. eigenvalues --    5.78543   5.80101   5.83389   5.86595   5.87932
 Alpha virt. eigenvalues --    5.88674   5.89450   5.92772   5.93826   5.96174
 Alpha virt. eigenvalues --    5.96418   5.97162   5.99135   6.01304   6.03024
 Alpha virt. eigenvalues --    6.04665   6.06472   6.07457   6.09712   6.10908
 Alpha virt. eigenvalues --    6.12527   6.12831   6.15098   6.16959   6.18073
 Alpha virt. eigenvalues --    6.19097   6.20109   6.22171   6.25132   6.25919
 Alpha virt. eigenvalues --    6.28936   6.29300   6.30383   6.32331   6.33551
 Alpha virt. eigenvalues --    6.36429   6.37714   6.40498   6.41710   6.45675
 Alpha virt. eigenvalues --    6.46110   6.48472   6.52263   6.53139   6.53574
 Alpha virt. eigenvalues --    6.55591   6.56850   6.58941   6.62629   6.65693
 Alpha virt. eigenvalues --    6.67177   6.69209   6.71469   6.74041   6.76491
 Alpha virt. eigenvalues --    6.77112   6.78657   6.81008   6.83732   6.86035
 Alpha virt. eigenvalues --    6.87928   6.89723   6.92330   6.92590   6.95153
 Alpha virt. eigenvalues --    6.96827   6.99380   6.99911   7.03032   7.05524
 Alpha virt. eigenvalues --    7.07772   7.09967   7.10660   7.13270   7.15949
 Alpha virt. eigenvalues --    7.16290   7.20724   7.21191   7.25707   7.26441
 Alpha virt. eigenvalues --    7.28248   7.30356   7.32637   7.35090   7.37629
 Alpha virt. eigenvalues --    7.38620   7.39642   7.41433   7.45746   7.46667
 Alpha virt. eigenvalues --    7.51965   7.52446   7.56118   7.57258   7.60276
 Alpha virt. eigenvalues --    7.60952   7.66540   7.68040   7.70119   7.71692
 Alpha virt. eigenvalues --    7.72144   7.74396   7.76707   7.78300   7.78731
 Alpha virt. eigenvalues --    7.81231   7.82629   7.84765   7.85461   7.87837
 Alpha virt. eigenvalues --    7.91134   7.92289   7.94919   7.95292   7.96882
 Alpha virt. eigenvalues --    7.98222   8.00160   8.01887   8.04002   8.06746
 Alpha virt. eigenvalues --    8.08457   8.10354   8.11937   8.13202   8.13876
 Alpha virt. eigenvalues --    8.18569   8.19753   8.22941   8.23662   8.28140
 Alpha virt. eigenvalues --    8.29923   8.30771   8.32301   8.34084   8.37264
 Alpha virt. eigenvalues --    8.40624   8.41109   8.42944   8.43140   8.45349
 Alpha virt. eigenvalues --    8.46701   8.50433   8.51764   8.53345   8.53879
 Alpha virt. eigenvalues --    8.54607   8.56073   8.57193   8.61410   8.63313
 Alpha virt. eigenvalues --    8.64766   8.65666   8.68753   8.69842   8.72397
 Alpha virt. eigenvalues --    8.75072   8.75708   8.77895   8.80022   8.84070
 Alpha virt. eigenvalues --    8.86750   8.91030   8.91304   8.93913   8.95211
 Alpha virt. eigenvalues --    8.98771   8.99793   9.03692   9.05132   9.05650
 Alpha virt. eigenvalues --    9.08508   9.11896   9.13928   9.15103   9.18039
 Alpha virt. eigenvalues --    9.22521   9.23621   9.24660   9.27033   9.32999
 Alpha virt. eigenvalues --    9.34028   9.35197   9.38052   9.42232   9.45797
 Alpha virt. eigenvalues --    9.48916   9.49616   9.52202   9.55413   9.56176
 Alpha virt. eigenvalues --    9.62105   9.63176   9.66299   9.71565   9.76905
 Alpha virt. eigenvalues --    9.80404   9.82480   9.91705  10.00182  10.04545
 Alpha virt. eigenvalues --   10.06204  10.10286  10.13447  10.25312  10.37176
 Alpha virt. eigenvalues --   10.38629  10.42605  10.44552  10.59409  10.65965
 Alpha virt. eigenvalues --   10.75050  10.79620  10.84346  10.86683  10.94985
 Alpha virt. eigenvalues --   11.04933  11.10728  11.31750  11.43922  11.47035
 Alpha virt. eigenvalues --   11.60575  11.73387  11.76451  11.84551  12.58835
 Alpha virt. eigenvalues --   12.62540  12.82292  12.86264  29.28854  29.32409
 Alpha virt. eigenvalues --   29.35355  29.45824 148.93460 148.99136 149.05757
 Alpha virt. eigenvalues --  149.14049
          Condensed to atoms (all electrons):
               1          2          3          4          5          6
     1  C    4.776769   0.359629   0.408946   0.421774   0.394481  -0.058897
     2  C    0.359629   4.789371  -0.043943  -0.057709  -0.035997   0.369281
     3  H    0.408946  -0.043943   0.661426  -0.037588  -0.027723   0.009995
     4  H    0.421774  -0.057709  -0.037588   0.587746  -0.025925  -0.014694
     5  H    0.394481  -0.035997  -0.027723  -0.025925   0.660440  -0.002496
     6  C   -0.058897   0.369281   0.009995  -0.014694  -0.002496   4.758396
     7  H   -0.054081   0.404047  -0.007601  -0.009833   0.009756  -0.044685
     8  H   -0.036106   0.397590  -0.001561   0.011545  -0.004809  -0.049740
     9  C    0.008784  -0.059167  -0.000897  -0.000322   0.000140   0.388053
    10  H   -0.003524  -0.045535  -0.000196  -0.000949   0.004101   0.397374
    11  H   -0.010233  -0.039821   0.000655   0.005246  -0.000459   0.390883
    12  H   -0.000018  -0.009753   0.000005  -0.000093   0.000035  -0.046742
    13  H   -0.000892   0.009352   0.000046   0.000024   0.000029  -0.044337
    14  H    0.000285  -0.002228   0.000020   0.000116  -0.000036  -0.030663
               7          8          9         10         11         12
     1  C   -0.054081  -0.036106   0.008784  -0.003524  -0.010233  -0.000018
     2  C    0.404047   0.397590  -0.059167  -0.045535  -0.039821  -0.009753
     3  H   -0.007601  -0.001561  -0.000897  -0.000196   0.000655   0.000005
     4  H   -0.009833   0.011545  -0.000322  -0.000949   0.005246  -0.000093
     5  H    0.009756  -0.004809   0.000140   0.004101  -0.000459   0.000035
     6  C   -0.044685  -0.049740   0.388053   0.397374   0.390883  -0.046742
     7  H    0.692103  -0.043895  -0.008567   0.011547  -0.006990  -0.000483
     8  H   -0.043895   0.726249  -0.007685  -0.009461   0.010140   0.003488
     9  C   -0.008567  -0.007685   4.721543  -0.046140  -0.039333   0.404826
    10  H    0.011547  -0.009461  -0.046140   0.690748  -0.050447  -0.006863
    11  H   -0.006990   0.010140  -0.039333  -0.050447   0.747421   0.009937
    12  H   -0.000483   0.003488   0.404826  -0.006863   0.009937   0.693648
    13  H    0.000224   0.000382   0.412027  -0.002258  -0.004288  -0.053828
    14  H    0.003755  -0.000057   0.376237   0.007697  -0.005588  -0.033811
              13         14
     1  C   -0.000892   0.000285
     2  C    0.009352  -0.002228
     3  H    0.000046   0.000020
     4  H    0.000024   0.000116
     5  H    0.000029  -0.000036
     6  C   -0.044337  -0.030663
     7  H    0.000224   0.003755
     8  H    0.000382  -0.000057
     9  C    0.412027   0.376237
    10  H   -0.002258   0.007697
    11  H   -0.004288  -0.005588
    12  H   -0.053828  -0.033811
    13  H    0.632141  -0.014957
    14  H   -0.014957   0.684905
 Mulliken charges:
               1
     1  C   -0.206916
     2  C   -0.035117
     3  H    0.038417
     4  H    0.120661
     5  H    0.028462
     6  C   -0.021728
     7  H    0.054702
     8  H    0.003918
     9  C   -0.149498
    10  H    0.053907
    11  H   -0.007122
    12  H    0.039652
    13  H    0.066335
    14  H    0.014326
 Sum of Mulliken charges =   0.00000
 Mulliken charges with hydrogens summed into heavy atoms:
               1
     1  C   -0.019376
     2  C    0.023503
     6  C    0.025057
     9  C   -0.029184
 Electronic spatial extent (au):  <R**2>=            416.9628
 Charge=              0.0000 electrons
 Dipole moment (field-independent basis, Debye):
    X=             -0.1117    Y=             -0.1271    Z=              0.1725  Tot=              0.2416
 Quadrupole moment (field-independent basis, Debye-Ang):
   XX=            -30.5915   YY=            -28.8503   ZZ=            -28.6712
   XY=              0.9798   XZ=             -1.2688   YZ=             -0.6711
 Traceless Quadrupole moment (field-independent basis, Debye-Ang):
   XX=             -1.2205   YY=              0.5207   ZZ=              0.6998
   XY=              0.9798   XZ=             -1.2688   YZ=             -0.6711
 Octapole moment (field-independent basis, Debye-Ang**2):
  XXX=             -2.2258  YYY=             -0.6260  ZZZ=              0.7063  XYY=             -0.2242
  XXY=             -0.1264  XXZ=              2.2649  XZZ=              0.7623  YZZ=             -0.2773
  YYZ=             -0.0292  XYZ=             -0.4189
 Hexadecapole moment (field-independent basis, Debye-Ang**3):
 XXXX=           -458.7728 YYYY=            -98.6272 ZZZZ=            -65.1103 XXXY=             12.0868
 XXXZ=             -9.4872 YYYX=              4.1163 YYYZ=             -1.4741 ZZZX=             -4.0783
 ZZZY=             -0.7920 XXYY=            -87.7094 XXZZ=            -85.5733 YYZZ=            -24.5874
 XXYZ=             -2.9874 YYXZ=             -0.8979 ZZXY=             -1.1185
 N-N= 1.314203294218D+02 E-N=-6.284862477226D+02  KE= 1.575328114275D+02
 Leave Link  601 at Wed Aug 26 20:54:16 2020, MaxMem=  2097152000 cpu:         1.2
 (Enter /opt/cluster/programs/g09/g09_d.01/g09/l9999.exe)
 1\1\GINC-NODE01\SP\RB2PLYPD3-FC\def2QZVP\C4H10\BOITTIER\26-Aug-2020\0\
 \#p B2PLYPD3/Def2QZVP\\butane_opt\\0,1\C,0,-3.915638,0.265748,-0.02821
 5\C,0,-2.659863,-0.616192,0.103552\H,0,-4.829308,-0.423021,-0.204002\H
 ,0,-3.663187,0.661618,-0.808142\H,0,-4.090518,1.039555,0.937427\C,0,-1
 .450794,0.197065,0.033004\H,0,-2.800018,-1.256264,-0.68508\H,0,-2.6312
 01,-1.339741,1.106856\C,0,-0.179528,-0.674006,-0.005873\H,0,-1.390195,
 0.840948,0.824079\H,0,-1.434407,0.983105,-0.926484\H,0,-0.151125,-1.30
 2748,0.858533\H,0,0.634024,-0.145447,0.114625\H,0,-0.199031,-1.624016,
 -1.005229\\Version=ES64L-G09RevD.01\State=1-A\HF=-158.0032249\MP2=-158
 .2519344\RMSD=1.710e-09\PG=C01 [X(C4H10)]\\@


      SCIENCE SANS CONSCIENCE N'EST QUE RUINE DE L'AME.

                                                  -- RABELAIS
 Job cpu time:       0 days  1 hours 40 minutes 27.6 seconds.
 File lengths (MBytes):  RWF=    152 Int=      0 D2E=      0 Chk=     14 Scr=      1
 Normal termination of Gaussian 09 at Wed Aug 26 20:54:33 2020.
