 Entering Gaussian System, Link 0=/opt/cluster/programs/g09/g09_d.01/g09//g09
 Input=/home/boittier/MDCM/nms_sampling/butane_geom.xyz.dir/energies/butane_opt_2579_energy.com
 Output=/scratch/boittier/butane_opt_2579_energy/butane_opt_2579_energy.out
 Initial command:
 /opt/cluster/programs/g09/g09_d.01/g09/l1.exe "/scratch/boittier/butane_opt_2579_energy/Gau-118860.inp" -scrdir="/scratch/boittier/butane_opt_2579_energy/"
 Entering Link 1 = /opt/cluster/programs/g09/g09_d.01/g09/l1.exe PID=    118861.
  
 Copyright (c) 1988,1990,1992,1993,1995,1998,2003,2009,2013,
            Gaussian, Inc.  All Rights Reserved.
  
 This is part of the Gaussian(R) 09 program.  It is based on
 the Gaussian(R) 03 system (copyright 2003, Gaussian, Inc.),
 the Gaussian(R) 98 system (copyright 1998, Gaussian, Inc.),
 the Gaussian(R) 94 system (copyright 1995, Gaussian, Inc.),
 the Gaussian 92(TM) system (copyright 1992, Gaussian, Inc.),
 the Gaussian 90(TM) system (copyright 1990, Gaussian, Inc.),
 the Gaussian 88(TM) system (copyright 1988, Gaussian, Inc.),
 the Gaussian 86(TM) system (copyright 1986, Carnegie Mellon
 University), and the Gaussian 82(TM) system (copyright 1983,
 Carnegie Mellon University). Gaussian is a federally registered
 trademark of Gaussian, Inc.
  
 This software contains proprietary and confidential information,
 including trade secrets, belonging to Gaussian, Inc.
  
 This software is provided under written license and may be
 used, copied, transmitted, or stored only in accord with that
 written license.
  
 The following legend is applicable only to US Government
 contracts under FAR:
  
                    RESTRICTED RIGHTS LEGEND
  
 Use, reproduction and disclosure by the US Government is
 subject to restrictions as set forth in subparagraphs (a)
 and (c) of the Commercial Computer Software - Restricted
 Rights clause in FAR 52.227-19.
  
 Gaussian, Inc.
 340 Quinnipiac St., Bldg. 40, Wallingford CT 06492
  
  
 ---------------------------------------------------------------
 Warning -- This program may not be used in any manner that
 competes with the business of Gaussian, Inc. or will provide
 assistance to any competitor of Gaussian, Inc.  The licensee
 of this program is prohibited from giving any competitor of
 Gaussian, Inc. access to this program.  By using this program,
 the user acknowledges that Gaussian, Inc. is engaged in the
 business of creating and licensing software in the field of
 computational chemistry and represents and warrants to the
 licensee that it is not a competitor of Gaussian, Inc. and that
 it will not use this program in any manner prohibited above.
 ---------------------------------------------------------------
  

 Cite this work as:
 Gaussian 09, Revision D.01,
 M. J. Frisch, G. W. Trucks, H. B. Schlegel, G. E. Scuseria, 
 M. A. Robb, J. R. Cheeseman, G. Scalmani, V. Barone, B. Mennucci, 
 G. A. Petersson, H. Nakatsuji, M. Caricato, X. Li, H. P. Hratchian, 
 A. F. Izmaylov, J. Bloino, G. Zheng, J. L. Sonnenberg, M. Hada, 
 M. Ehara, K. Toyota, R. Fukuda, J. Hasegawa, M. Ishida, T. Nakajima, 
 Y. Honda, O. Kitao, H. Nakai, T. Vreven, J. A. Montgomery, Jr., 
 J. E. Peralta, F. Ogliaro, M. Bearpark, J. J. Heyd, E. Brothers, 
 K. N. Kudin, V. N. Staroverov, T. Keith, R. Kobayashi, J. Normand, 
 K. Raghavachari, A. Rendell, J. C. Burant, S. S. Iyengar, J. Tomasi, 
 M. Cossi, N. Rega, J. M. Millam, M. Klene, J. E. Knox, J. B. Cross, 
 V. Bakken, C. Adamo, J. Jaramillo, R. Gomperts, R. E. Stratmann, 
 O. Yazyev, A. J. Austin, R. Cammi, C. Pomelli, J. W. Ochterski, 
 R. L. Martin, K. Morokuma, V. G. Zakrzewski, G. A. Voth, 
 P. Salvador, J. J. Dannenberg, S. Dapprich, A. D. Daniels, 
 O. Farkas, J. B. Foresman, J. V. Ortiz, J. Cioslowski, 
 and D. J. Fox, Gaussian, Inc., Wallingford CT, 2013.
 
 ******************************************
 Gaussian 09:  ES64L-G09RevD.01 24-Apr-2013
                26-Aug-2020 
 ******************************************
 %chk=/home/boittier/MDCM/nms_sampling/butane_geom.xyz.dir/butane_opt_2579.chk
 %nproc=8
 Will use up to    8 processors via shared memory.
 %mem=16000MB
 --------------------
 #p B2PLYPD3/Def2QZVP
 --------------------
 1/38=1/1;
 2/12=2,17=6,18=5,40=1/2;
 3/5=45,7=101,11=9,16=1,25=1,30=1,74=-60/1,2,3;
 4//1;
 5/5=2,38=5/2;
 8/10=1/1;
 9/16=-3/6;
 6/7=2,8=2,9=2,10=2/1;
 99/5=1,9=1/99;
 Leave Link    1 at Wed Aug 26 19:00:18 2020, MaxMem=  2097152000 cpu:         1.6
 (Enter /opt/cluster/programs/g09/g09_d.01/g09/l101.exe)
 ----------
 butane_opt
 ----------
 Symbolic Z-matrix:
 Charge =  0 Multiplicity = 1
 C                    -3.95928   0.18683  -0.16462 
 C                    -2.76693  -0.51107   0.1527 
 H                    -4.76645  -0.46381  -0.02534 
 H                    -3.77599   0.93792  -1.12501 
 H                    -4.08138   0.81527   0.58821 
 C                    -1.47176   0.25362   0.29687 
 H                    -2.51124  -1.3424   -0.77267 
 H                    -3.1375   -1.16553   1.0845 
 C                    -0.01261  -0.7334   -0.13108 
 H                    -1.19204   0.71417   1.19571 
 H                    -1.71321   0.78172  -0.469 
 H                     0.54704  -1.68038   0.97082 
 H                     0.77748  -0.31972  -0.94028 
 H                    -0.62314  -1.06622  -0.8442 
 
 NAtoms=     14 NQM=       14 NQMF=       0 NMMI=      0 NMMIF=      0
                NMic=       0 NMicF=      0.
                    Isotopes and Nuclear Properties:
 (Nuclear quadrupole moments (NQMom) in fm**2, nuclear magnetic moments (NMagM)
  in nuclear magnetons)

  Atom         1           2           3           4           5           6           7           8           9          10
 IAtWgt=          12          12           1           1           1          12           1           1          12           1
 AtmWgt=  12.0000000  12.0000000   1.0078250   1.0078250   1.0078250  12.0000000   1.0078250   1.0078250  12.0000000   1.0078250
 NucSpn=           0           0           1           1           1           0           1           1           0           1
 AtZEff=   0.0000000   0.0000000   0.0000000   0.0000000   0.0000000   0.0000000   0.0000000   0.0000000   0.0000000   0.0000000
 NQMom=    0.0000000   0.0000000   0.0000000   0.0000000   0.0000000   0.0000000   0.0000000   0.0000000   0.0000000   0.0000000
 NMagM=    0.0000000   0.0000000   2.7928460   2.7928460   2.7928460   0.0000000   2.7928460   2.7928460   0.0000000   2.7928460
 AtZNuc=   6.0000000   6.0000000   1.0000000   1.0000000   1.0000000   6.0000000   1.0000000   1.0000000   6.0000000   1.0000000

  Atom        11          12          13          14
 IAtWgt=           1           1           1           1
 AtmWgt=   1.0078250   1.0078250   1.0078250   1.0078250
 NucSpn=           1           1           1           1
 AtZEff=   0.0000000   0.0000000   0.0000000   0.0000000
 NQMom=    0.0000000   0.0000000   0.0000000   0.0000000
 NMagM=    2.7928460   2.7928460   2.7928460   2.7928460
 AtZNuc=   1.0000000   1.0000000   1.0000000   1.0000000
 Leave Link  101 at Wed Aug 26 19:00:18 2020, MaxMem=  2097152000 cpu:         0.5
 (Enter /opt/cluster/programs/g09/g09_d.01/g09/l202.exe)
                          Input orientation:                          
 ---------------------------------------------------------------------
 Center     Atomic      Atomic             Coordinates (Angstroms)
 Number     Number       Type             X           Y           Z
 ---------------------------------------------------------------------
      1          6           0       -3.959275    0.186825   -0.164624
      2          6           0       -2.766930   -0.511072    0.152698
      3          1           0       -4.766452   -0.463807   -0.025338
      4          1           0       -3.775989    0.937922   -1.125014
      5          1           0       -4.081375    0.815267    0.588210
      6          6           0       -1.471758    0.253622    0.296868
      7          1           0       -2.511240   -1.342395   -0.772669
      8          1           0       -3.137504   -1.165529    1.084500
      9          6           0       -0.012611   -0.733396   -0.131084
     10          1           0       -1.192038    0.714174    1.195711
     11          1           0       -1.713209    0.781723   -0.469002
     12          1           0        0.547038   -1.680378    0.970823
     13          1           0        0.777483   -0.319718   -0.940282
     14          1           0       -0.623144   -1.066215   -0.844204
 ---------------------------------------------------------------------
                    Distance matrix (angstroms):
                    1          2          3          4          5
     1  C    0.000000
     2  C    1.417547   0.000000
     3  H    1.046068   2.007989   0.000000
     4  H    1.232919   2.179526   2.038418   0.000000
     5  H    0.988234   1.917449   1.575374   1.744546   0.000000
     6  C    2.530845   1.510964   3.387260   2.792758   2.685224
     7  H    2.192040   1.269953   2.533062   2.631270   2.995467
     8  H    2.016055   1.197453   2.092278   3.116749   2.249611
     9  C    4.052664   2.777811   4.762653   4.236061   4.412548
    10  H    3.128292   2.251530   3.956644   3.480320   2.954242
    11  H    2.343366   1.779932   3.327232   2.170210   2.593652
    12  H    5.008248   3.608184   5.541260   5.471434   5.272271
    13  H    4.826501   3.714039   5.620774   4.727567   5.218523
    14  H    3.627907   2.428542   4.266197   3.746445   4.189409
                    6          7          8          9         10
     6  C    0.000000
     7  H    2.184423   0.000000
     8  H    2.325739   1.967883   0.000000
     9  C    1.812859   2.650596   3.380731   0.000000
    10  H    1.047984   3.137561   2.707488   2.290610   0.000000
    11  H    0.961117   2.289311   2.869456   2.302565   1.745695
    12  H    2.875780   3.536532   3.722075   1.556978   2.967969
    13  H    2.630275   3.448139   4.488013   1.204234   3.083896
    14  H    1.940145   1.909529   3.170452   0.996022   2.766709
                   11         12         13         14
    11  H    0.000000
    12  H    3.639197   0.000000
    13  H    2.763842   2.357291   0.000000
    14  H    2.178048   2.245183   1.590046   0.000000
 Stoichiometry    C4H10
 Framework group  C1[X(C4H10)]
 Deg. of freedom    36
 Full point group                 C1      NOp   1
 Largest Abelian subgroup         C1      NOp   1
 Largest concise Abelian subgroup C1      NOp   1
                         Standard orientation:                         
 ---------------------------------------------------------------------
 Center     Atomic      Atomic             Coordinates (Angstroms)
 Number     Number       Type             X           Y           Z
 ---------------------------------------------------------------------
      1          6           0        1.951701   -0.060695   -0.172655
      2          6           0        0.649368    0.424265    0.106956
      3          1           0        2.623171    0.737020   -0.088766
      4          1           0        1.914137   -0.899935   -1.075071
      5          1           0        2.186694   -0.599603    0.621677
      6          6           0       -0.481072   -0.555575    0.319163
      7          1           0        0.245799    1.124710   -0.872477
      8          1           0        0.889022    1.201582    0.985727
      9          6           0       -2.097378    0.109419   -0.162289
     10          1           0       -0.672535   -0.994187    1.251489
     11          1           0       -0.143402   -1.083298   -0.409694
     12          1           0       -2.826614    1.012620    0.875316
     13          1           0       -2.794391   -0.501155   -0.931413
     14          1           0       -1.557602    0.497763   -0.903835
 ---------------------------------------------------------------------
 Rotational constants (GHZ):     21.2693855      3.3489404      3.2428750
 Leave Link  202 at Wed Aug 26 19:00:19 2020, MaxMem=  2097152000 cpu:         0.0
 (Enter /opt/cluster/programs/g09/g09_d.01/g09/l301.exe)
 Standard basis: def2QZVP (5D, 7F)
 Ernie: Thresh=  0.10000D-02 Tol=  0.10000D-05 Strict=F.
 There are   638 symmetry adapted cartesian basis functions of A   symmetry.
 There are   528 symmetry adapted basis functions of A   symmetry.
   528 basis functions,   748 primitive gaussians,   638 cartesian basis functions
    17 alpha electrons       17 beta electrons
       nuclear repulsion energy       127.8443740445 Hartrees.
 IExCor=  419 DFT=T Ex+Corr=B2PLYPD3 ExCW=0 ScaHFX=  0.530000
 ScaDFX=  0.470000  0.470000  0.730000  0.730000 ScalE2=  0.270000  0.270000
 IRadAn=      0 IRanWt=     -1 IRanGd=            0 ICorTp=0 IEmpDi=141
 NAtoms=   14 NActive=   14 NUniq=   14 SFac= 1.00D+00 NAtFMM=   60 NAOKFM=F Big=F
 Integral buffers will be    131072 words long.
 Regular integral format.
 Two-electron integral symmetry is turned on.
 R6Disp:  Grimme-D3(BJ) Dispersion energy=       -0.0067442182 Hartrees.
 Nuclear repulsion after empirical dispersion term =      127.8376298263 Hartrees.
 Leave Link  301 at Wed Aug 26 19:00:20 2020, MaxMem=  2097152000 cpu:         0.4
 (Enter /opt/cluster/programs/g09/g09_d.01/g09/l302.exe)
 NPDir=0 NMtPBC=     1 NCelOv=     1 NCel=       1 NClECP=     1 NCelD=      1
         NCelK=      1 NCelE2=     1 NClLst=     1 CellRange=     0.0.
 One-electron integrals computed using PRISM.
   1 Symmetry operations used in ECPInt.
 ECPInt:  NShTT=   14196 NPrTT=   30597 LenC2=   13828 LenP2D=   25754.
 LDataN:  DoStor=T MaxTD1= 8 Len=  415
 NBasis=   528 RedAO= T EigKep=  4.24D-05  NBF=   528
 NBsUse=   528 1.00D-06 EigRej= -1.00D+00 NBFU=   528
 Precomputing XC quadrature grid using
 IXCGrd= 4 IRadAn=           0 IRanWt=          -1 IRanGd=           0 AccXCQ= 0.00D+00.
 Generated NRdTot=       0 NPtTot=           0 NUsed=           0 NTot=          32
 NSgBfM=   638   638   638   638   638 MxSgAt=    14 MxSgA2=    14.
 Leave Link  302 at Wed Aug 26 19:00:21 2020, MaxMem=  2097152000 cpu:         5.7
 (Enter /opt/cluster/programs/g09/g09_d.01/g09/l303.exe)
 DipDrv:  MaxL=1.
 Leave Link  303 at Wed Aug 26 19:00:21 2020, MaxMem=  2097152000 cpu:         0.6
 (Enter /opt/cluster/programs/g09/g09_d.01/g09/l401.exe)
 ExpMin= 7.60D-02 ExpMax= 6.70D+04 ExpMxC= 6.47D+02 IAcc=2 IRadAn=         4 AccDes= 0.00D+00
 Harris functional with IExCor=  419 and IRadAn=       4 diagonalized for initial guess.
 HarFok:  IExCor=  419 AccDes= 0.00D+00 IRadAn=         4 IDoV= 1 UseB2=F ITyADJ=14
 ICtDFT=  3500011 ScaDFX=  1.000000  1.000000  1.000000  1.000000
 FoFCou: FMM=F IPFlag=           0 FMFlag=      100000 FMFlg1=           0
         NFxFlg=           0 DoJE=T BraDBF=F KetDBF=T FulRan=T
         wScrn=  0.000000 ICntrl=     500 IOpCl=  0 I1Cent=   200000004 NGrid=           0
         NMat0=    1 NMatS0=      1 NMatT0=    0 NMatD0=    1 NMtDS0=    0 NMtDT0=    0
 Petite list used in FoFCou.
 Harris En= -158.397027404688    
 JPrj=0 DoOrth=F DoCkMO=F.
 Leave Link  401 at Wed Aug 26 19:00:23 2020, MaxMem=  2097152000 cpu:        17.3
 (Enter /opt/cluster/programs/g09/g09_d.01/g09/l502.exe)
 Closed shell SCF:
 Using DIIS extrapolation, IDIIS=  1040.
 Integral symmetry usage will be decided dynamically.
 IVT=     1249338 IEndB=     1249338 NGot=  2097152000 MDV=  2096326985
 LenX=  2096326985 LenY=  2095919303
 Requested convergence on RMS density matrix=1.00D-08 within 128 cycles.
 Requested convergence on MAX density matrix=1.00D-06.
 Requested convergence on             energy=1.00D-06.
 No special actions if energy rises.
 Fock matrices will be formed incrementally for  20 cycles.
 Integral accuracy reduced to 1.0D-05 until final iterations.

 Cycle   1  Pass 0  IDiag  1:
 FoFJK:  IHMeth= 1 ICntrl=       0 DoSepK=F KAlg= 0 I1Cent=   0 FoldK=F
 IRaf= 930000000 NMat=   1 IRICut=       1 DoRegI=T DoRafI=F ISym2E= 0.
 FoFCou: FMM=F IPFlag=           0 FMFlag=      100000 FMFlg1=           0
         NFxFlg=           0 DoJE=F BraDBF=F KetDBF=F FulRan=T
         wScrn=  0.000000 ICntrl=       0 IOpCl=  0 I1Cent=           0 NGrid=           0
         NMat0=    1 NMatS0=      1 NMatT0=    0 NMatD0=    1 NMtDS0=    0 NMtDT0=    0
 Symmetry not used in FoFCou.
 E= -157.621665083928    
 DIIS: error= 2.51D-02 at cycle   1 NSaved=   1.
 NSaved= 1 IEnMin= 1 EnMin= -157.621665083928     IErMin= 1 ErrMin= 2.51D-02
 ErrMax= 2.51D-02  0.00D+00 EMaxC= 1.00D-01 BMatC= 3.33D-01 BMatP= 3.33D-01
 IDIUse=3 WtCom= 7.49D-01 WtEn= 2.51D-01
 Coeff-Com:  0.100D+01
 Coeff-En:   0.100D+01
 Coeff:      0.100D+01
 Gap=     0.363 Goal=   None    Shift=    0.000
 GapD=    0.363 DampG=1.000 DampE=0.500 DampFc=0.5000 IDamp=-1.
 Damping current iteration by 5.00D-01
 RMSDP=1.07D-03 MaxDP=7.02D-02              OVMax= 2.10D-01

 Cycle   2  Pass 0  IDiag  1:
 RMSU=  5.13D-04    CP:  9.49D-01
 E= -157.758127852188     Delta-E=       -0.136462768260 Rises=F Damp=T
 DIIS: error= 5.26D-03 at cycle   2 NSaved=   2.
 NSaved= 2 IEnMin= 2 EnMin= -157.758127852188     IErMin= 2 ErrMin= 5.26D-03
 ErrMax= 5.26D-03  0.00D+00 EMaxC= 1.00D-01 BMatC= 3.13D-02 BMatP= 3.33D-01
 IDIUse=3 WtCom= 9.47D-01 WtEn= 5.26D-02
 Coeff-Com: -0.155D+00 0.115D+01
 Coeff-En:   0.000D+00 0.100D+01
 Coeff:     -0.147D+00 0.115D+01
 Gap=     0.385 Goal=   None    Shift=    0.000
 RMSDP=2.83D-04 MaxDP=1.44D-02 DE=-1.36D-01 OVMax= 1.20D-01

 Cycle   3  Pass 0  IDiag  1:
 RMSU=  2.61D-04    CP:  9.35D-01  8.05D-01
 E= -157.887958380325     Delta-E=       -0.129830528137 Rises=F Damp=F
 DIIS: error= 3.35D-03 at cycle   3 NSaved=   3.
 NSaved= 3 IEnMin= 3 EnMin= -157.887958380325     IErMin= 3 ErrMin= 3.35D-03
 ErrMax= 3.35D-03  0.00D+00 EMaxC= 1.00D-01 BMatC= 3.71D-03 BMatP= 3.13D-02
 IDIUse=3 WtCom= 9.67D-01 WtEn= 3.35D-02
 Coeff-Com: -0.106D+00 0.234D+00 0.872D+00
 Coeff-En:   0.000D+00 0.000D+00 0.100D+01
 Coeff:     -0.103D+00 0.226D+00 0.876D+00
 Gap=     0.364 Goal=   None    Shift=    0.000
 RMSDP=7.42D-05 MaxDP=7.30D-03 DE=-1.30D-01 OVMax= 1.82D-02

 Cycle   4  Pass 0  IDiag  1:
 RMSU=  5.69D-05    CP:  9.30D-01  8.93D-01  9.98D-01
 E= -157.891571913217     Delta-E=       -0.003613532892 Rises=F Damp=F
 DIIS: error= 8.87D-04 at cycle   4 NSaved=   4.
 NSaved= 4 IEnMin= 4 EnMin= -157.891571913217     IErMin= 4 ErrMin= 8.87D-04
 ErrMax= 8.87D-04  0.00D+00 EMaxC= 1.00D-01 BMatC= 4.32D-04 BMatP= 3.71D-03
 IDIUse=3 WtCom= 9.91D-01 WtEn= 8.87D-03
 Coeff-Com: -0.362D-01 0.550D-01 0.356D+00 0.625D+00
 Coeff-En:   0.000D+00 0.000D+00 0.000D+00 0.100D+01
 Coeff:     -0.358D-01 0.545D-01 0.353D+00 0.628D+00
 Gap=     0.365 Goal=   None    Shift=    0.000
 RMSDP=2.23D-05 MaxDP=1.98D-03 DE=-3.61D-03 OVMax= 4.49D-03

 Cycle   5  Pass 0  IDiag  1:
 RMSU=  1.64D-05    CP:  9.30D-01  8.79D-01  1.04D+00  8.39D-01
 E= -157.891964807163     Delta-E=       -0.000392893947 Rises=F Damp=F
 DIIS: error= 1.47D-04 at cycle   5 NSaved=   5.
 NSaved= 5 IEnMin= 5 EnMin= -157.891964807163     IErMin= 5 ErrMin= 1.47D-04
 ErrMax= 1.47D-04  0.00D+00 EMaxC= 1.00D-01 BMatC= 1.38D-05 BMatP= 4.32D-04
 IDIUse=3 WtCom= 9.99D-01 WtEn= 1.47D-03
 Coeff-Com: -0.418D-02 0.238D-02 0.562D-01 0.185D+00 0.760D+00
 Coeff-En:   0.000D+00 0.000D+00 0.000D+00 0.000D+00 0.100D+01
 Coeff:     -0.417D-02 0.237D-02 0.561D-01 0.185D+00 0.760D+00
 Gap=     0.365 Goal=   None    Shift=    0.000
 RMSDP=6.06D-06 MaxDP=4.31D-04 DE=-3.93D-04 OVMax= 1.83D-03

 Initial convergence to 1.0D-05 achieved.  Increase integral accuracy.
 Cycle   6  Pass 1  IDiag  1:
 E= -157.892003234015     Delta-E=       -0.000038426851 Rises=F Damp=F
 DIIS: error= 7.89D-05 at cycle   1 NSaved=   1.
 NSaved= 1 IEnMin= 1 EnMin= -157.892003234015     IErMin= 1 ErrMin= 7.89D-05
 ErrMax= 7.89D-05  0.00D+00 EMaxC= 1.00D-01 BMatC= 2.72D-06 BMatP= 2.72D-06
 IDIUse=1 WtCom= 1.00D+00 WtEn= 0.00D+00
 Coeff-Com:  0.100D+01
 Coeff:      0.100D+01
 Gap=     0.365 Goal=   None    Shift=    0.000
 RMSDP=6.06D-06 MaxDP=4.31D-04 DE=-3.84D-05 OVMax= 9.50D-04

 Cycle   7  Pass 1  IDiag  1:
 RMSU=  2.03D-05    CP:  1.00D+00
 E= -157.892003506684     Delta-E=       -0.000000272670 Rises=F Damp=F
 DIIS: error= 6.90D-05 at cycle   2 NSaved=   2.
 NSaved= 2 IEnMin= 2 EnMin= -157.892003506684     IErMin= 2 ErrMin= 6.90D-05
 ErrMax= 6.90D-05  0.00D+00 EMaxC= 1.00D-01 BMatC= 2.26D-06 BMatP= 2.72D-06
 IDIUse=1 WtCom= 1.00D+00 WtEn= 0.00D+00
 Coeff-Com:  0.474D+00 0.526D+00
 Coeff:      0.474D+00 0.526D+00
 Gap=     0.365 Goal=   None    Shift=    0.000
 RMSDP=1.61D-06 MaxDP=1.87D-04 DE=-2.73D-07 OVMax= 6.00D-04

 Cycle   8  Pass 1  IDiag  1:
 RMSU=  1.59D-06    CP:  1.00D+00  1.01D+00
 E= -157.892005834459     Delta-E=       -0.000002327775 Rises=F Damp=F
 DIIS: error= 1.34D-05 at cycle   3 NSaved=   3.
 NSaved= 3 IEnMin= 3 EnMin= -157.892005834459     IErMin= 3 ErrMin= 1.34D-05
 ErrMax= 1.34D-05  0.00D+00 EMaxC= 1.00D-01 BMatC= 4.93D-08 BMatP= 2.26D-06
 IDIUse=1 WtCom= 1.00D+00 WtEn= 0.00D+00
 Coeff-Com: -0.157D-01 0.106D+00 0.910D+00
 Coeff:     -0.157D-01 0.106D+00 0.910D+00
 Gap=     0.365 Goal=   None    Shift=    0.000
 RMSDP=5.15D-07 MaxDP=2.68D-05 DE=-2.33D-06 OVMax= 9.96D-05

 Cycle   9  Pass 1  IDiag  1:
 RMSU=  3.65D-07    CP:  1.00D+00  1.03D+00  9.35D-01
 E= -157.892005893438     Delta-E=       -0.000000058979 Rises=F Damp=F
 DIIS: error= 2.63D-06 at cycle   4 NSaved=   4.
 NSaved= 4 IEnMin= 4 EnMin= -157.892005893438     IErMin= 4 ErrMin= 2.63D-06
 ErrMax= 2.63D-06  0.00D+00 EMaxC= 1.00D-01 BMatC= 3.61D-09 BMatP= 4.93D-08
 IDIUse=1 WtCom= 1.00D+00 WtEn= 0.00D+00
 Coeff-Com: -0.224D-01 0.187D-01 0.300D+00 0.704D+00
 Coeff:     -0.224D-01 0.187D-01 0.300D+00 0.704D+00
 Gap=     0.365 Goal=   None    Shift=    0.000
 RMSDP=9.13D-08 MaxDP=5.24D-06 DE=-5.90D-08 OVMax= 1.93D-05

 Cycle  10  Pass 1  IDiag  1:
 RMSU=  7.45D-08    CP:  1.00D+00  1.03D+00  9.44D-01  1.13D+00
 E= -157.892005897548     Delta-E=       -0.000000004109 Rises=F Damp=F
 DIIS: error= 6.96D-07 at cycle   5 NSaved=   5.
 NSaved= 5 IEnMin= 5 EnMin= -157.892005897548     IErMin= 5 ErrMin= 6.96D-07
 ErrMax= 6.96D-07  0.00D+00 EMaxC= 1.00D-01 BMatC= 2.78D-10 BMatP= 3.61D-09
 IDIUse=1 WtCom= 1.00D+00 WtEn= 0.00D+00
 Coeff-Com: -0.462D-03-0.125D-01-0.107D+00 0.873D-01 0.103D+01
 Coeff:     -0.462D-03-0.125D-01-0.107D+00 0.873D-01 0.103D+01
 Gap=     0.365 Goal=   None    Shift=    0.000
 RMSDP=5.59D-08 MaxDP=2.28D-06 DE=-4.11D-09 OVMax= 1.14D-05

 Cycle  11  Pass 1  IDiag  1:
 RMSU=  2.83D-08    CP:  1.00D+00  1.03D+00  9.45D-01  1.25D+00  1.16D+00
 E= -157.892005898031     Delta-E=       -0.000000000484 Rises=F Damp=F
 DIIS: error= 2.27D-07 at cycle   6 NSaved=   6.
 NSaved= 6 IEnMin= 6 EnMin= -157.892005898031     IErMin= 6 ErrMin= 2.27D-07
 ErrMax= 2.27D-07  0.00D+00 EMaxC= 1.00D-01 BMatC= 2.18D-11 BMatP= 2.78D-10
 IDIUse=1 WtCom= 1.00D+00 WtEn= 0.00D+00
 Coeff-Com:  0.720D-03-0.481D-02-0.498D-01 0.561D-02 0.374D+00 0.674D+00
 Coeff:      0.720D-03-0.481D-02-0.498D-01 0.561D-02 0.374D+00 0.674D+00
 Gap=     0.365 Goal=   None    Shift=    0.000
 RMSDP=7.07D-09 MaxDP=3.99D-07 DE=-4.84D-10 OVMax= 1.67D-06

 SCF Done:  E(RB2PLYPD3) =  -157.892005898     A.U. after   11 cycles
            NFock= 11  Conv=0.71D-08     -V/T= 2.0043
 KE= 1.572177318762D+02 PE=-6.208005453667D+02 EE= 1.778531777661D+02
 Leave Link  502 at Wed Aug 26 19:07:06 2020, MaxMem=  2097152000 cpu:      3209.8
 (Enter /opt/cluster/programs/g09/g09_d.01/g09/l801.exe)
 DoSCS=T DFT=T ScalE2(SS,OS)=  0.270000  0.270000
 ExpMin= 7.60D-02 ExpMax= 6.70D+04 ExpMxC= 6.47D+02 IAcc=3 IRadAn=         5 AccDes= 0.00D+00
 HarFok:  IExCor=  205 AccDes= 0.00D+00 IRadAn=         5 IDoV=-2 UseB2=F ITyADJ=14
 ICtDFT= 12500011 ScaDFX=  1.000000  1.000000  1.000000  1.000000
 Largest valence mixing into a core orbital is  1.24D-04
 Largest core mixing into a valence orbital is  1.72D-05
 Range of M.O.s used for correlation:     5   528
 NBasis=   528 NAE=    17 NBE=    17 NFC=     4 NFV=     0
 NROrb=    524 NOA=    13 NOB=    13 NVA=   511 NVB=   511

 **** Warning!!: The largest alpha MO coefficient is  0.22031611D+02

 Leave Link  801 at Wed Aug 26 19:07:06 2020, MaxMem=  2097152000 cpu:         1.2
 (Enter /opt/cluster/programs/g09/g09_d.01/g09/l906.exe)
 DoSCS=T DFT=T ScalE2(SS,OS)=  0.270000  0.270000
 FulOut=F Deriv=F AODrv=F NAtomX=    14
   MMem=         463  MDisk=          13 MDiskD=          13
  W3Min=     4238234 MinDsk=     6904766 NBas6D=         638
 NBas2D=      205689    NTT=      203841    LW2=     4508827
    MDV=  2095906198 MDiskM=        7293 NBas2p=      188634
 Fully direct method using O(OVN) memory.
 IMap=   1   2   3   4   5   6   7   8   9  10  11  12  13
 JobTyp=1 Pass  1:  I=   1 to  13 NPSUse=  8 ParTrn=T ParDer=T DoDerP=F.
 Spin components of T(2) and E(2):
     alpha-alpha T2 =       0.4441965693D-01 E2=     -0.2707413080D-01
     alpha-beta  T2 =       0.3026859776D+00 E2=     -0.2008257671D+00
     beta-beta   T2 =       0.4441965693D-01 E2=     -0.2707413080D-01
 The integrals were generated   1 times.
 E2(B2PLYPD3) =    -0.2549740287D+00 E(B2PLYPD3) =    -0.15814697992675D+03
 Leave Link  906 at Wed Aug 26 19:12:53 2020, MaxMem=  2097152000 cpu:      2771.4
 (Enter /opt/cluster/programs/g09/g09_d.01/g09/l601.exe)
 Copying SCF densities to generalized density rwf, IOpCl= 0 IROHF=0.

 **********************************************************************

            Population analysis using the SCF density.

 **********************************************************************

 Orbital symmetries:
       Occupied  (A) (A) (A) (A) (A) (A) (A) (A) (A) (A) (A) (A)
                 (A) (A) (A) (A) (A)
       Virtual   (A) (A) (A) (A) (A) (A) (A) (A) (A) (A) (A) (A)
                 (A) (A) (A) (A) (A) (A) (A) (A) (A) (A) (A) (A)
                 (A) (A) (A) (A) (A) (A) (A) (A) (A) (A) (A) (A)
                 (A) (A) (A) (A) (A) (A) (A) (A) (A) (A) (A) (A)
                 (A) (A) (A) (A) (A) (A) (A) (A) (A) (A) (A) (A)
                 (A) (A) (A) (A) (A) (A) (A) (A) (A) (A) (A) (A)
                 (A) (A) (A) (A) (A) (A) (A) (A) (A) (A) (A) (A)
                 (A) (A) (A) (A) (A) (A) (A) (A) (A) (A) (A) (A)
                 (A) (A) (A) (A) (A) (A) (A) (A) (A) (A) (A) (A)
                 (A) (A) (A) (A) (A) (A) (A) (A) (A) (A) (A) (A)
                 (A) (A) (A) (A) (A) (A) (A) (A) (A) (A) (A) (A)
                 (A) (A) (A) (A) (A) (A) (A) (A) (A) (A) (A) (A)
                 (A) (A) (A) (A) (A) (A) (A) (A) (A) (A) (A) (A)
                 (A) (A) (A) (A) (A) (A) (A) (A) (A) (A) (A) (A)
                 (A) (A) (A) (A) (A) (A) (A) (A) (A) (A) (A) (A)
                 (A) (A) (A) (A) (A) (A) (A) (A) (A) (A) (A) (A)
                 (A) (A) (A) (A) (A) (A) (A) (A) (A) (A) (A) (A)
                 (A) (A) (A) (A) (A) (A) (A) (A) (A) (A) (A) (A)
                 (A) (A) (A) (A) (A) (A) (A) (A) (A) (A) (A) (A)
                 (A) (A) (A) (A) (A) (A) (A) (A) (A) (A) (A) (A)
                 (A) (A) (A) (A) (A) (A) (A) (A) (A) (A) (A) (A)
                 (A) (A) (A) (A) (A) (A) (A) (A) (A) (A) (A) (A)
                 (A) (A) (A) (A) (A) (A) (A) (A) (A) (A) (A) (A)
                 (A) (A) (A) (A) (A) (A) (A) (A) (A) (A) (A) (A)
                 (A) (A) (A) (A) (A) (A) (A) (A) (A) (A) (A) (A)
                 (A) (A) (A) (A) (A) (A) (A) (A) (A) (A) (A) (A)
                 (A) (A) (A) (A) (A) (A) (A) (A) (A) (A) (A) (A)
                 (A) (A) (A) (A) (A) (A) (A) (A) (A) (A) (A) (A)
                 (A) (A) (A) (A) (A) (A) (A) (A) (A) (A) (A) (A)
                 (A) (A) (A) (A) (A) (A) (A) (A) (A) (A) (A) (A)
                 (A) (A) (A) (A) (A) (A) (A) (A) (A) (A) (A) (A)
                 (A) (A) (A) (A) (A) (A) (A) (A) (A) (A) (A) (A)
                 (A) (A) (A) (A) (A) (A) (A) (A) (A) (A) (A) (A)
                 (A) (A) (A) (A) (A) (A) (A) (A) (A) (A) (A) (A)
                 (A) (A) (A) (A) (A) (A) (A) (A) (A) (A) (A) (A)
                 (A) (A) (A) (A) (A) (A) (A) (A) (A) (A) (A) (A)
                 (A) (A) (A) (A) (A) (A) (A) (A) (A) (A) (A) (A)
                 (A) (A) (A) (A) (A) (A) (A) (A) (A) (A) (A) (A)
                 (A) (A) (A) (A) (A) (A) (A) (A) (A) (A) (A) (A)
                 (A) (A) (A) (A) (A) (A) (A) (A) (A) (A) (A) (A)
                 (A) (A) (A) (A) (A) (A) (A) (A) (A) (A) (A) (A)
                 (A) (A) (A) (A) (A) (A) (A) (A) (A) (A) (A) (A)
                 (A) (A) (A) (A) (A) (A) (A)
 The electronic state is 1-A.
 Alpha  occ. eigenvalues --  -10.64926 -10.63341 -10.61581 -10.59956  -0.93637
 Alpha  occ. eigenvalues --   -0.83328  -0.73533  -0.65318  -0.56694  -0.50894
 Alpha  occ. eigenvalues --   -0.48362  -0.47427  -0.41624  -0.39853  -0.37998
 Alpha  occ. eigenvalues --   -0.36202  -0.33103
 Alpha virt. eigenvalues --    0.03410   0.05346   0.07783   0.08195   0.09511
 Alpha virt. eigenvalues --    0.09870   0.11748   0.12653   0.13638   0.15252
 Alpha virt. eigenvalues --    0.16343   0.16513   0.17018   0.18817   0.20329
 Alpha virt. eigenvalues --    0.21389   0.22243   0.23978   0.25807   0.27561
 Alpha virt. eigenvalues --    0.28292   0.29820   0.30691   0.32453   0.33447
 Alpha virt. eigenvalues --    0.34229   0.35350   0.35870   0.38276   0.38616
 Alpha virt. eigenvalues --    0.40416   0.42371   0.44385   0.44844   0.45878
 Alpha virt. eigenvalues --    0.47967   0.48838   0.53803   0.54204   0.56003
 Alpha virt. eigenvalues --    0.57605   0.60246   0.64102   0.65201   0.66676
 Alpha virt. eigenvalues --    0.66916   0.67597   0.68082   0.70163   0.71290
 Alpha virt. eigenvalues --    0.72858   0.73761   0.75394   0.77341   0.77477
 Alpha virt. eigenvalues --    0.78583   0.80372   0.83024   0.83981   0.84913
 Alpha virt. eigenvalues --    0.87091   0.87184   0.88510   0.89694   0.90311
 Alpha virt. eigenvalues --    0.92198   0.93238   0.93654   0.95817   0.97252
 Alpha virt. eigenvalues --    0.97741   0.98351   0.99571   1.02178   1.02643
 Alpha virt. eigenvalues --    1.03878   1.06765   1.09002   1.09823   1.11037
 Alpha virt. eigenvalues --    1.11984   1.14366   1.14968   1.16110   1.17278
 Alpha virt. eigenvalues --    1.19623   1.20175   1.22588   1.23769   1.25850
 Alpha virt. eigenvalues --    1.26722   1.28276   1.31608   1.32315   1.34470
 Alpha virt. eigenvalues --    1.37010   1.39975   1.40756   1.42343   1.43893
 Alpha virt. eigenvalues --    1.46251   1.50013   1.50738   1.51343   1.54146
 Alpha virt. eigenvalues --    1.59036   1.60682   1.63714   1.66355   1.72445
 Alpha virt. eigenvalues --    1.74677   1.79421   1.82725   1.86164   1.88030
 Alpha virt. eigenvalues --    1.89082   1.90098   1.92829   1.94258   1.94983
 Alpha virt. eigenvalues --    1.96673   1.98754   2.00390   2.02995   2.03961
 Alpha virt. eigenvalues --    2.04273   2.05943   2.08180   2.08900   2.10630
 Alpha virt. eigenvalues --    2.11806   2.12476   2.14567   2.15190   2.15408
 Alpha virt. eigenvalues --    2.17109   2.18763   2.19806   2.21577   2.22183
 Alpha virt. eigenvalues --    2.24087   2.25168   2.26685   2.27714   2.28637
 Alpha virt. eigenvalues --    2.29981   2.31622   2.32732   2.34658   2.36995
 Alpha virt. eigenvalues --    2.37444   2.38705   2.40844   2.41830   2.42526
 Alpha virt. eigenvalues --    2.43786   2.46738   2.47844   2.49067   2.50619
 Alpha virt. eigenvalues --    2.52127   2.53594   2.54662   2.56333   2.57652
 Alpha virt. eigenvalues --    2.58809   2.61030   2.63219   2.64768   2.65949
 Alpha virt. eigenvalues --    2.67794   2.69801   2.71125   2.72816   2.73289
 Alpha virt. eigenvalues --    2.76651   2.77299   2.78521   2.79979   2.80505
 Alpha virt. eigenvalues --    2.83024   2.84426   2.85872   2.87791   2.90345
 Alpha virt. eigenvalues --    2.92200   2.93029   2.95299   2.96018   2.97802
 Alpha virt. eigenvalues --    3.00040   3.01519   3.02319   3.04428   3.08347
 Alpha virt. eigenvalues --    3.09334   3.12027   3.12582   3.13118   3.16289
 Alpha virt. eigenvalues --    3.20162   3.21862   3.23060   3.24837   3.26286
 Alpha virt. eigenvalues --    3.28369   3.30110   3.31577   3.34838   3.35464
 Alpha virt. eigenvalues --    3.37726   3.39356   3.42930   3.43916   3.45553
 Alpha virt. eigenvalues --    3.47213   3.50855   3.54429   3.56098   3.58889
 Alpha virt. eigenvalues --    3.59431   3.63933   3.65298   3.67817   3.69109
 Alpha virt. eigenvalues --    3.71949   3.75695   3.77792   3.78966   3.81903
 Alpha virt. eigenvalues --    3.84335   3.86151   3.87546   3.91388   3.92681
 Alpha virt. eigenvalues --    3.96994   3.98473   4.01050   4.04778   4.09058
 Alpha virt. eigenvalues --    4.13084   4.15486   4.17701   4.22554   4.23713
 Alpha virt. eigenvalues --    4.27214   4.29265   4.33845   4.38409   4.44334
 Alpha virt. eigenvalues --    4.49091   4.51550   4.60551   4.86464   4.99579
 Alpha virt. eigenvalues --    5.07743   5.08980   5.14512   5.16657   5.23541
 Alpha virt. eigenvalues --    5.23600   5.31926   5.37463   5.38878   5.41443
 Alpha virt. eigenvalues --    5.48463   5.50671   5.53882   5.55889   5.58551
 Alpha virt. eigenvalues --    5.65260   5.67446   5.67946   5.70723   5.72537
 Alpha virt. eigenvalues --    5.77206   5.78028   5.79491   5.80873   5.82461
 Alpha virt. eigenvalues --    5.85950   5.87790   5.88759   5.89694   5.91660
 Alpha virt. eigenvalues --    5.92907   5.94743   5.96876   5.98754   6.00224
 Alpha virt. eigenvalues --    6.01825   6.03583   6.04273   6.04608   6.05863
 Alpha virt. eigenvalues --    6.08458   6.10484   6.10873   6.12407   6.14193
 Alpha virt. eigenvalues --    6.15808   6.16775   6.19723   6.21866   6.22469
 Alpha virt. eigenvalues --    6.24022   6.24533   6.26702   6.27616   6.30517
 Alpha virt. eigenvalues --    6.31820   6.33659   6.35857   6.37900   6.40400
 Alpha virt. eigenvalues --    6.41810   6.42347   6.44156   6.45046   6.48133
 Alpha virt. eigenvalues --    6.48864   6.50236   6.51848   6.54455   6.56525
 Alpha virt. eigenvalues --    6.59189   6.62946   6.65357   6.65943   6.67901
 Alpha virt. eigenvalues --    6.69749   6.70713   6.71344   6.73089   6.74776
 Alpha virt. eigenvalues --    6.78285   6.79698   6.81369   6.84362   6.86071
 Alpha virt. eigenvalues --    6.89424   6.90750   6.91448   6.94264   6.94663
 Alpha virt. eigenvalues --    6.95496   6.99875   7.03544   7.04192   7.09210
 Alpha virt. eigenvalues --    7.09401   7.11776   7.13326   7.15829   7.19038
 Alpha virt. eigenvalues --    7.20750   7.20967   7.26565   7.27504   7.31784
 Alpha virt. eigenvalues --    7.32486   7.36071   7.38158   7.41316   7.46834
 Alpha virt. eigenvalues --    7.47539   7.50172   7.52390   7.55600   7.56204
 Alpha virt. eigenvalues --    7.58272   7.60969   7.62145   7.62620   7.64544
 Alpha virt. eigenvalues --    7.65284   7.69841   7.70532   7.72759   7.73424
 Alpha virt. eigenvalues --    7.74642   7.76565   7.80181   7.81788   7.84180
 Alpha virt. eigenvalues --    7.86156   7.86855   7.89780   7.91331   7.92162
 Alpha virt. eigenvalues --    7.93903   7.95868   7.96706   7.99094   8.00301
 Alpha virt. eigenvalues --    8.01502   8.02222   8.04051   8.07022   8.07443
 Alpha virt. eigenvalues --    8.09549   8.11959   8.12914   8.14389   8.16192
 Alpha virt. eigenvalues --    8.17881   8.19692   8.21273   8.21612   8.25002
 Alpha virt. eigenvalues --    8.26429   8.29686   8.33156   8.35679   8.37442
 Alpha virt. eigenvalues --    8.38966   8.41191   8.42834   8.43912   8.48523
 Alpha virt. eigenvalues --    8.50357   8.51010   8.52354   8.56283   8.58189
 Alpha virt. eigenvalues --    8.59668   8.62911   8.65885   8.66353   8.68441
 Alpha virt. eigenvalues --    8.71689   8.72700   8.74809   8.77117   8.79803
 Alpha virt. eigenvalues --    8.81234   8.83906   8.85150   8.87355   8.90130
 Alpha virt. eigenvalues --    8.90554   8.93336   8.94105   8.98501   9.01126
 Alpha virt. eigenvalues --    9.04756   9.07283   9.08495   9.10608   9.12634
 Alpha virt. eigenvalues --    9.16156   9.16769   9.18114   9.20252   9.24689
 Alpha virt. eigenvalues --    9.27822   9.29545   9.31095   9.37015   9.38503
 Alpha virt. eigenvalues --    9.41113   9.44793   9.46579   9.48841   9.51805
 Alpha virt. eigenvalues --    9.56614   9.60695   9.63061   9.64336   9.72151
 Alpha virt. eigenvalues --    9.73409   9.77622   9.79526   9.85094   9.91313
 Alpha virt. eigenvalues --    9.96054  10.01374  10.07251  10.15878  10.23671
 Alpha virt. eigenvalues --   10.38575  10.46476  10.58586  10.61557  10.66777
 Alpha virt. eigenvalues --   10.81404  10.82818  10.86372  10.90179  11.01267
 Alpha virt. eigenvalues --   11.08203  11.12001  11.22285  11.33355  11.44121
 Alpha virt. eigenvalues --   11.53859  11.57646  11.63823  11.87867  12.13788
 Alpha virt. eigenvalues --   12.24850  13.11165  13.26384  28.91129  29.11344
 Alpha virt. eigenvalues --   29.43826  29.61250 148.53618 148.74966 149.13531
 Alpha virt. eigenvalues --  149.30644
          Condensed to atoms (all electrons):
               1          2          3          4          5          6
     1  C    4.725550   0.347668   0.432831   0.394901   0.409716  -0.037585
     2  C    0.347668   4.872898  -0.053767  -0.047094  -0.061440   0.361508
     3  H    0.432831  -0.053767   0.640751  -0.018832  -0.051199   0.008118
     4  H    0.394901  -0.047094  -0.018832   0.683288  -0.040489  -0.003189
     5  H    0.409716  -0.061440  -0.051199  -0.040489   0.677716  -0.007028
     6  C   -0.037585   0.361508   0.008118  -0.003189  -0.007028   4.843435
     7  H   -0.052309   0.393345  -0.009342  -0.009977   0.015957  -0.046243
     8  H   -0.082514   0.390244  -0.009990   0.013827  -0.011476  -0.042295
     9  C    0.005252  -0.033009  -0.000452   0.000553  -0.000730   0.364302
    10  H   -0.001178  -0.037128  -0.000369  -0.000396   0.003108   0.400081
    11  H   -0.016283  -0.092273  -0.000011   0.011216  -0.000713   0.383215
    12  H   -0.000085   0.001981   0.000035  -0.000007   0.000032  -0.026047
    13  H   -0.000444   0.004804   0.000014  -0.000032   0.000035  -0.015607
    14  H   -0.000020  -0.020022   0.000059   0.000311  -0.000155  -0.074049
               7          8          9         10         11         12
     1  C   -0.052309  -0.082514   0.005252  -0.001178  -0.016283  -0.000085
     2  C    0.393345   0.390244  -0.033009  -0.037128  -0.092273   0.001981
     3  H   -0.009342  -0.009990  -0.000452  -0.000369  -0.000011   0.000035
     4  H   -0.009977   0.013827   0.000553  -0.000396   0.011216  -0.000007
     5  H    0.015957  -0.011476  -0.000730   0.003108  -0.000713   0.000032
     6  C   -0.046243  -0.042295   0.364302   0.400081   0.383215  -0.026047
     7  H    0.734909  -0.025255  -0.020633   0.009103  -0.001779   0.002108
     8  H   -0.025255   0.744508   0.002904  -0.004848   0.015659   0.000740
     9  C   -0.020633   0.002904   4.926390  -0.053665  -0.032440   0.346716
    10  H    0.009103  -0.004848  -0.053665   0.651260  -0.039277   0.000936
    11  H   -0.001779   0.015659  -0.032440  -0.039277   0.676539   0.003395
    12  H    0.002108   0.000740   0.346716   0.000936   0.003395   0.653873
    13  H    0.001468  -0.000221   0.384870   0.000458  -0.002803  -0.024495
    14  H    0.003423   0.001096   0.361519   0.009308   0.004303  -0.004800
              13         14
     1  C   -0.000444  -0.000020
     2  C    0.004804  -0.020022
     3  H    0.000014   0.000059
     4  H   -0.000032   0.000311
     5  H    0.000035  -0.000155
     6  C   -0.015607  -0.074049
     7  H    0.001468   0.003423
     8  H   -0.000221   0.001096
     9  C    0.384870   0.361519
    10  H    0.000458   0.009308
    11  H   -0.002803   0.004303
    12  H   -0.024495  -0.004800
    13  H    0.657207  -0.055799
    14  H   -0.055799   0.669029
 Mulliken charges:
               1
     1  C   -0.125500
     2  C   -0.027715
     3  H    0.062154
     4  H    0.015920
     5  H    0.066666
     6  C   -0.108616
     7  H    0.005226
     8  H    0.007621
     9  C   -0.251577
    10  H    0.062607
    11  H    0.091250
    12  H    0.045617
    13  H    0.050546
    14  H    0.105800
 Sum of Mulliken charges =   0.00000
 Mulliken charges with hydrogens summed into heavy atoms:
               1
     1  C    0.019240
     2  C   -0.014868
     6  C    0.045241
     9  C   -0.049613
 Electronic spatial extent (au):  <R**2>=            450.8904
 Charge=              0.0000 electrons
 Dipole moment (field-independent basis, Debye):
    X=              0.8477    Y=             -0.2514    Z=              0.0433  Tot=              0.8853
 Quadrupole moment (field-independent basis, Debye-Ang):
   XX=            -30.6148   YY=            -30.3744   ZZ=            -28.3602
   XY=              0.4629   XZ=              1.1166   YZ=              0.8083
 Traceless Quadrupole moment (field-independent basis, Debye-Ang):
   XX=             -0.8317   YY=             -0.5912   ZZ=              1.4229
   XY=              0.4629   XZ=              1.1166   YZ=              0.8083
 Octapole moment (field-independent basis, Debye-Ang**2):
  XXX=              8.4488  YYY=             -1.9331  ZZZ=              0.7142  XYY=              3.4855
  XXY=              2.3862  XXZ=              2.4194  XZZ=             -1.1555  YZZ=             -1.3513
  YYZ=              0.6481  XYZ=             -1.3185
 Hexadecapole moment (field-independent basis, Debye-Ang**3):
 XXXX=           -514.8992 YYYY=            -96.8664 ZZZZ=            -73.9755 XXXY=              6.3259
 XXXZ=              9.6897 YYYX=              3.5897 YYYZ=              0.5879 ZZZX=              3.5841
 ZZZY=             -0.3153 XXYY=            -98.3108 XXZZ=            -91.7010 YYZZ=            -25.9140
 XXYZ=              7.3648 YYXZ=             -1.3419 ZZXY=              0.4157
 N-N= 1.278376298263D+02 E-N=-6.208004799495D+02  KE= 1.572177318762D+02
 Leave Link  601 at Wed Aug 26 19:12:53 2020, MaxMem=  2097152000 cpu:         1.2
 (Enter /opt/cluster/programs/g09/g09_d.01/g09/l9999.exe)
 1\1\GINC-NODE18\SP\RB2PLYPD3-FC\def2QZVP\C4H10\BOITTIER\26-Aug-2020\0\
 \#p B2PLYPD3/Def2QZVP\\butane_opt\\0,1\C,0,-3.959275,0.186825,-0.16462
 4\C,0,-2.76693,-0.511072,0.152698\H,0,-4.766452,-0.463807,-0.025338\H,
 0,-3.775989,0.937922,-1.125014\H,0,-4.081375,0.815267,0.58821\C,0,-1.4
 71758,0.253622,0.296868\H,0,-2.51124,-1.342395,-0.772669\H,0,-3.137504
 ,-1.165529,1.0845\C,0,-0.012611,-0.733396,-0.131084\H,0,-1.192038,0.71
 4174,1.195711\H,0,-1.713209,0.781723,-0.469002\H,0,0.547038,-1.680378,
 0.970823\H,0,0.777483,-0.319718,-0.940282\H,0,-0.623144,-1.066215,-0.8
 44204\\Version=ES64L-G09RevD.01\State=1-A\HF=-157.8920059\MP2=-158.146
 9799\RMSD=7.071e-09\PG=C01 [X(C4H10)]\\@


 THE ONLY TROUBLE WITH A SURE THING IS THE UNCERTAINTY.
     -- FROM A TEABAG (BELONGING TO W.H.?)
 Job cpu time:       0 days  1 hours 40 minutes 10.4 seconds.
 File lengths (MBytes):  RWF=    152 Int=      0 D2E=      0 Chk=     14 Scr=      1
 Normal termination of Gaussian 09 at Wed Aug 26 19:12:54 2020.
