 Entering Gaussian System, Link 0=/opt/cluster/programs/g09/g09_d.01/g09//g09
 Input=/home/boittier/MDCM/nms_sampling/butane_geom.xyz.dir/energies/butane_opt_2686_energy.com
 Output=/scratch/boittier/butane_opt_2686_energy/butane_opt_2686_energy.out
 Initial command:
 /opt/cluster/programs/g09/g09_d.01/g09/l1.exe "/scratch/boittier/butane_opt_2686_energy/Gau-236292.inp" -scrdir="/scratch/boittier/butane_opt_2686_energy/"
 Entering Link 1 = /opt/cluster/programs/g09/g09_d.01/g09/l1.exe PID=    236294.
  
 Copyright (c) 1988,1990,1992,1993,1995,1998,2003,2009,2013,
            Gaussian, Inc.  All Rights Reserved.
  
 This is part of the Gaussian(R) 09 program.  It is based on
 the Gaussian(R) 03 system (copyright 2003, Gaussian, Inc.),
 the Gaussian(R) 98 system (copyright 1998, Gaussian, Inc.),
 the Gaussian(R) 94 system (copyright 1995, Gaussian, Inc.),
 the Gaussian 92(TM) system (copyright 1992, Gaussian, Inc.),
 the Gaussian 90(TM) system (copyright 1990, Gaussian, Inc.),
 the Gaussian 88(TM) system (copyright 1988, Gaussian, Inc.),
 the Gaussian 86(TM) system (copyright 1986, Carnegie Mellon
 University), and the Gaussian 82(TM) system (copyright 1983,
 Carnegie Mellon University). Gaussian is a federally registered
 trademark of Gaussian, Inc.
  
 This software contains proprietary and confidential information,
 including trade secrets, belonging to Gaussian, Inc.
  
 This software is provided under written license and may be
 used, copied, transmitted, or stored only in accord with that
 written license.
  
 The following legend is applicable only to US Government
 contracts under FAR:
  
                    RESTRICTED RIGHTS LEGEND
  
 Use, reproduction and disclosure by the US Government is
 subject to restrictions as set forth in subparagraphs (a)
 and (c) of the Commercial Computer Software - Restricted
 Rights clause in FAR 52.227-19.
  
 Gaussian, Inc.
 340 Quinnipiac St., Bldg. 40, Wallingford CT 06492
  
  
 ---------------------------------------------------------------
 Warning -- This program may not be used in any manner that
 competes with the business of Gaussian, Inc. or will provide
 assistance to any competitor of Gaussian, Inc.  The licensee
 of this program is prohibited from giving any competitor of
 Gaussian, Inc. access to this program.  By using this program,
 the user acknowledges that Gaussian, Inc. is engaged in the
 business of creating and licensing software in the field of
 computational chemistry and represents and warrants to the
 licensee that it is not a competitor of Gaussian, Inc. and that
 it will not use this program in any manner prohibited above.
 ---------------------------------------------------------------
  

 Cite this work as:
 Gaussian 09, Revision D.01,
 M. J. Frisch, G. W. Trucks, H. B. Schlegel, G. E. Scuseria, 
 M. A. Robb, J. R. Cheeseman, G. Scalmani, V. Barone, B. Mennucci, 
 G. A. Petersson, H. Nakatsuji, M. Caricato, X. Li, H. P. Hratchian, 
 A. F. Izmaylov, J. Bloino, G. Zheng, J. L. Sonnenberg, M. Hada, 
 M. Ehara, K. Toyota, R. Fukuda, J. Hasegawa, M. Ishida, T. Nakajima, 
 Y. Honda, O. Kitao, H. Nakai, T. Vreven, J. A. Montgomery, Jr., 
 J. E. Peralta, F. Ogliaro, M. Bearpark, J. J. Heyd, E. Brothers, 
 K. N. Kudin, V. N. Staroverov, T. Keith, R. Kobayashi, J. Normand, 
 K. Raghavachari, A. Rendell, J. C. Burant, S. S. Iyengar, J. Tomasi, 
 M. Cossi, N. Rega, J. M. Millam, M. Klene, J. E. Knox, J. B. Cross, 
 V. Bakken, C. Adamo, J. Jaramillo, R. Gomperts, R. E. Stratmann, 
 O. Yazyev, A. J. Austin, R. Cammi, C. Pomelli, J. W. Ochterski, 
 R. L. Martin, K. Morokuma, V. G. Zakrzewski, G. A. Voth, 
 P. Salvador, J. J. Dannenberg, S. Dapprich, A. D. Daniels, 
 O. Farkas, J. B. Foresman, J. V. Ortiz, J. Cioslowski, 
 and D. J. Fox, Gaussian, Inc., Wallingford CT, 2013.
 
 ******************************************
 Gaussian 09:  ES64L-G09RevD.01 24-Apr-2013
                26-Aug-2020 
 ******************************************
 %chk=/home/boittier/MDCM/nms_sampling/butane_geom.xyz.dir/butane_opt_2686.chk
 %nproc=8
 Will use up to    8 processors via shared memory.
 %mem=16000MB
 --------------------
 #p B2PLYPD3/Def2QZVP
 --------------------
 1/38=1/1;
 2/12=2,17=6,18=5,40=1/2;
 3/5=45,7=101,11=9,16=1,25=1,30=1,74=-60/1,2,3;
 4//1;
 5/5=2,38=5/2;
 8/10=1/1;
 9/16=-3/6;
 6/7=2,8=2,9=2,10=2/1;
 99/5=1,9=1/99;
 Leave Link    1 at Wed Aug 26 19:46:53 2020, MaxMem=  2097152000 cpu:         0.3
 (Enter /opt/cluster/programs/g09/g09_d.01/g09/l101.exe)
 ----------
 butane_opt
 ----------
 Symbolic Z-matrix:
 Charge =  0 Multiplicity = 1
 C                    -3.89777   0.2126   -0.16179 
 C                    -2.70984  -0.56812   0.31569 
 H                    -4.86705  -0.29545  -0.74494 
 H                    -3.32528   0.78769  -1.10904 
 H                    -4.27973   1.03056   0.71918 
 C                    -1.41311   0.19925   0.1439 
 H                    -2.67919  -1.19138  -0.36332 
 H                    -2.71483  -1.26067   1.30663 
 C                    -0.19841  -0.69998  -0.12723 
 H                    -1.14407   0.9382    1.05838 
 H                    -1.70521   0.79167  -0.58702 
 H                     0.11822  -0.97647   0.46788 
 H                     0.47318  -0.34467  -0.28002 
 H                    -0.25079  -1.71414  -1.11682 
 
 NAtoms=     14 NQM=       14 NQMF=       0 NMMI=      0 NMMIF=      0
                NMic=       0 NMicF=      0.
                    Isotopes and Nuclear Properties:
 (Nuclear quadrupole moments (NQMom) in fm**2, nuclear magnetic moments (NMagM)
  in nuclear magnetons)

  Atom         1           2           3           4           5           6           7           8           9          10
 IAtWgt=          12          12           1           1           1          12           1           1          12           1
 AtmWgt=  12.0000000  12.0000000   1.0078250   1.0078250   1.0078250  12.0000000   1.0078250   1.0078250  12.0000000   1.0078250
 NucSpn=           0           0           1           1           1           0           1           1           0           1
 AtZEff=   0.0000000   0.0000000   0.0000000   0.0000000   0.0000000   0.0000000   0.0000000   0.0000000   0.0000000   0.0000000
 NQMom=    0.0000000   0.0000000   0.0000000   0.0000000   0.0000000   0.0000000   0.0000000   0.0000000   0.0000000   0.0000000
 NMagM=    0.0000000   0.0000000   2.7928460   2.7928460   2.7928460   0.0000000   2.7928460   2.7928460   0.0000000   2.7928460
 AtZNuc=   6.0000000   6.0000000   1.0000000   1.0000000   1.0000000   6.0000000   1.0000000   1.0000000   6.0000000   1.0000000

  Atom        11          12          13          14
 IAtWgt=           1           1           1           1
 AtmWgt=   1.0078250   1.0078250   1.0078250   1.0078250
 NucSpn=           1           1           1           1
 AtZEff=   0.0000000   0.0000000   0.0000000   0.0000000
 NQMom=    0.0000000   0.0000000   0.0000000   0.0000000
 NMagM=    2.7928460   2.7928460   2.7928460   2.7928460
 AtZNuc=   1.0000000   1.0000000   1.0000000   1.0000000
 Leave Link  101 at Wed Aug 26 19:47:01 2020, MaxMem=  2097152000 cpu:         0.5
 (Enter /opt/cluster/programs/g09/g09_d.01/g09/l202.exe)
                          Input orientation:                          
 ---------------------------------------------------------------------
 Center     Atomic      Atomic             Coordinates (Angstroms)
 Number     Number       Type             X           Y           Z
 ---------------------------------------------------------------------
      1          6           0       -3.897769    0.212601   -0.161790
      2          6           0       -2.709844   -0.568119    0.315691
      3          1           0       -4.867050   -0.295451   -0.744942
      4          1           0       -3.325277    0.787691   -1.109040
      5          1           0       -4.279729    1.030564    0.719183
      6          6           0       -1.413112    0.199247    0.143897
      7          1           0       -2.679188   -1.191382   -0.363318
      8          1           0       -2.714830   -1.260670    1.306632
      9          6           0       -0.198412   -0.699979   -0.127232
     10          1           0       -1.144066    0.938201    1.058379
     11          1           0       -1.705207    0.791669   -0.587019
     12          1           0        0.118215   -0.976466    0.467883
     13          1           0        0.473181   -0.344673   -0.280021
     14          1           0       -0.250792   -1.714140   -1.116820
 ---------------------------------------------------------------------
                    Distance matrix (angstroms):
                    1          2          3          4          5
     1  C    0.000000
     2  C    1.499559   0.000000
     3  H    1.240036   2.419262   0.000000
     4  H    1.247300   2.060786   1.919070   0.000000
     5  H    1.261376   2.276649   2.060807   2.076624   0.000000
     6  C    2.503426   1.516535   3.600618   2.360613   3.039660
     7  H    1.869952   0.922198   2.394800   2.211394   2.944586
     8  H    2.392934   1.208973   3.126125   3.225508   2.836152
     9  C    3.810412   2.553597   4.726668   3.599221   4.513130
    10  H    3.098094   2.296137   4.316767   3.078643   3.155308
    11  H    2.307264   1.916561   3.347241   1.702101   2.896791
    12  H    4.235386   2.861438   5.175673   4.178106   4.840788
    13  H    4.407918   3.245990   5.360657   4.049420   5.047756
    14  H    4.233775   3.067962   4.843636   3.963796   5.209284
                    6          7          8          9         10
     6  C    0.000000
     7  H    1.947836   0.000000
     8  H    2.275474   1.671767   0.000000
     9  C    1.535453   2.539973   2.950034   0.000000
    10  H    1.206116   2.985456   2.713662   2.232391   0.000000
    11  H    0.985151   2.220624   2.969402   2.169527   1.744616
    12  H    1.957608   2.926183   2.968234   0.728601   2.368119
    13  H    2.008397   3.265162   3.676946   0.774999   2.460197
    14  H    2.569328   2.595794   3.485719   1.417939   3.544622
                   11         12         13         14
    11  H    0.000000
    12  H    2.750270   0.000000
    13  H    2.476064   1.041405   0.000000
    14  H    2.945351   1.786509   1.760628   0.000000
 Stoichiometry    C4H10
 Framework group  C1[X(C4H10)]
 Deg. of freedom    36
 Full point group                 C1      NOp   1
 Largest Abelian subgroup         C1      NOp   1
 Largest concise Abelian subgroup C1      NOp   1
                         Standard orientation:                         
 ---------------------------------------------------------------------
 Center     Atomic      Atomic             Coordinates (Angstroms)
 Number     Number       Type             X           Y           Z
 ---------------------------------------------------------------------
      1          6           0       -1.896117    0.037853   -0.181551
      2          6           0       -0.579431   -0.429569    0.362996
      3          1           0       -2.747148   -0.719497   -0.671302
      4          1           0       -1.445493    0.584463   -1.208153
      5          1           0       -2.431170    0.874138    0.596534
      6          6           0        0.543165    0.544976    0.063133
      7          1           0       -0.427124   -1.118136   -0.231250
      8          1           0       -0.450592   -0.975013    1.434214
      9          6           0        1.910101   -0.129967   -0.120048
     10          1           0        0.661997    1.434638    0.868798
     11          1           0        0.142132    0.969468   -0.730277
     12          1           0        2.273810   -0.260160    0.497710
     13          1           0        2.499789    0.325492   -0.333234
     14          1           0        2.057489   -1.255150   -0.970218
 ---------------------------------------------------------------------
 Rotational constants (GHZ):     21.2108150      3.7179452      3.5714146
 Leave Link  202 at Wed Aug 26 19:47:11 2020, MaxMem=  2097152000 cpu:         0.0
 (Enter /opt/cluster/programs/g09/g09_d.01/g09/l301.exe)
 Standard basis: def2QZVP (5D, 7F)
 Ernie: Thresh=  0.10000D-02 Tol=  0.10000D-05 Strict=F.
 There are   638 symmetry adapted cartesian basis functions of A   symmetry.
 There are   528 symmetry adapted basis functions of A   symmetry.
   528 basis functions,   748 primitive gaussians,   638 cartesian basis functions
    17 alpha electrons       17 beta electrons
       nuclear repulsion energy       133.0299189553 Hartrees.
 IExCor=  419 DFT=T Ex+Corr=B2PLYPD3 ExCW=0 ScaHFX=  0.530000
 ScaDFX=  0.470000  0.470000  0.730000  0.730000 ScalE2=  0.270000  0.270000
 IRadAn=      0 IRanWt=     -1 IRanGd=            0 ICorTp=0 IEmpDi=141
 NAtoms=   14 NActive=   14 NUniq=   14 SFac= 1.00D+00 NAtFMM=   60 NAOKFM=F Big=F
 Integral buffers will be    131072 words long.
 Regular integral format.
 Two-electron integral symmetry is turned on.
 R6Disp:  Grimme-D3(BJ) Dispersion energy=       -0.0066748898 Hartrees.
 Nuclear repulsion after empirical dispersion term =      133.0232440654 Hartrees.
 Leave Link  301 at Wed Aug 26 19:47:13 2020, MaxMem=  2097152000 cpu:         0.5
 (Enter /opt/cluster/programs/g09/g09_d.01/g09/l302.exe)
 NPDir=0 NMtPBC=     1 NCelOv=     1 NCel=       1 NClECP=     1 NCelD=      1
         NCelK=      1 NCelE2=     1 NClLst=     1 CellRange=     0.0.
 One-electron integrals computed using PRISM.
   1 Symmetry operations used in ECPInt.
 ECPInt:  NShTT=   14196 NPrTT=   30597 LenC2=   13895 LenP2D=   26016.
 LDataN:  DoStor=T MaxTD1= 8 Len=  415
 NBasis=   528 RedAO= T EigKep=  2.11D-05  NBF=   528
 NBsUse=   528 1.00D-06 EigRej= -1.00D+00 NBFU=   528
 Precomputing XC quadrature grid using
 IXCGrd= 4 IRadAn=           0 IRanWt=          -1 IRanGd=           0 AccXCQ= 0.00D+00.
 Generated NRdTot=       0 NPtTot=           0 NUsed=           0 NTot=          32
 NSgBfM=   638   638   638   638   638 MxSgAt=    14 MxSgA2=    14.
 Leave Link  302 at Wed Aug 26 19:47:14 2020, MaxMem=  2097152000 cpu:         4.5
 (Enter /opt/cluster/programs/g09/g09_d.01/g09/l303.exe)
 DipDrv:  MaxL=1.
 Leave Link  303 at Wed Aug 26 19:47:18 2020, MaxMem=  2097152000 cpu:         0.5
 (Enter /opt/cluster/programs/g09/g09_d.01/g09/l401.exe)
 ExpMin= 7.60D-02 ExpMax= 6.70D+04 ExpMxC= 6.47D+02 IAcc=2 IRadAn=         4 AccDes= 0.00D+00
 Harris functional with IExCor=  419 and IRadAn=       4 diagonalized for initial guess.
 HarFok:  IExCor=  419 AccDes= 0.00D+00 IRadAn=         4 IDoV= 1 UseB2=F ITyADJ=14
 ICtDFT=  3500011 ScaDFX=  1.000000  1.000000  1.000000  1.000000
 FoFCou: FMM=F IPFlag=           0 FMFlag=      100000 FMFlg1=           0
         NFxFlg=           0 DoJE=T BraDBF=F KetDBF=T FulRan=T
         wScrn=  0.000000 ICntrl=     500 IOpCl=  0 I1Cent=   200000004 NGrid=           0
         NMat0=    1 NMatS0=      1 NMatT0=    0 NMatD0=    1 NMtDS0=    0 NMtDT0=    0
 Petite list used in FoFCou.
 Harris En= -158.285226791848    
 JPrj=0 DoOrth=F DoCkMO=F.
 Leave Link  401 at Wed Aug 26 19:47:22 2020, MaxMem=  2097152000 cpu:        14.1
 (Enter /opt/cluster/programs/g09/g09_d.01/g09/l502.exe)
 Closed shell SCF:
 Using DIIS extrapolation, IDIIS=  1040.
 Integral symmetry usage will be decided dynamically.
 IVT=     1249338 IEndB=     1249338 NGot=  2097152000 MDV=  2096326985
 LenX=  2096326985 LenY=  2095919303
 Requested convergence on RMS density matrix=1.00D-08 within 128 cycles.
 Requested convergence on MAX density matrix=1.00D-06.
 Requested convergence on             energy=1.00D-06.
 No special actions if energy rises.
 Fock matrices will be formed incrementally for  20 cycles.
 Integral accuracy reduced to 1.0D-05 until final iterations.

 Cycle   1  Pass 0  IDiag  1:
 FoFJK:  IHMeth= 1 ICntrl=       0 DoSepK=F KAlg= 0 I1Cent=   0 FoldK=F
 IRaf= 940000000 NMat=   1 IRICut=       1 DoRegI=T DoRafI=F ISym2E= 0.
 FoFCou: FMM=F IPFlag=           0 FMFlag=      100000 FMFlg1=           0
         NFxFlg=           0 DoJE=F BraDBF=F KetDBF=F FulRan=T
         wScrn=  0.000000 ICntrl=       0 IOpCl=  0 I1Cent=           0 NGrid=           0
         NMat0=    1 NMatS0=      1 NMatT0=    0 NMatD0=    1 NMtDS0=    0 NMtDT0=    0
 Symmetry not used in FoFCou.
 E= -157.256833164496    
 DIIS: error= 4.01D-02 at cycle   1 NSaved=   1.
 NSaved= 1 IEnMin= 1 EnMin= -157.256833164496     IErMin= 1 ErrMin= 4.01D-02
 ErrMax= 4.01D-02  0.00D+00 EMaxC= 1.00D-01 BMatC= 5.02D-01 BMatP= 5.02D-01
 IDIUse=3 WtCom= 5.99D-01 WtEn= 4.01D-01
 Coeff-Com:  0.100D+01
 Coeff-En:   0.100D+01
 Coeff:      0.100D+01
 Gap=     0.434 Goal=   None    Shift=    0.000
 GapD=    0.434 DampG=2.000 DampE=0.500 DampFc=1.0000 IDamp=-1.
 RMSDP=1.20D-03 MaxDP=7.69D-02              OVMax= 3.02D-01

 Cycle   2  Pass 0  IDiag  1:
 RMSU=  1.14D-03    CP:  8.77D-01
 E= -157.381199063817     Delta-E=       -0.124365899321 Rises=F Damp=F
 DIIS: error= 3.43D-02 at cycle   2 NSaved=   2.
 NSaved= 2 IEnMin= 2 EnMin= -157.381199063817     IErMin= 2 ErrMin= 3.43D-02
 ErrMax= 3.43D-02  0.00D+00 EMaxC= 1.00D-01 BMatC= 2.70D-01 BMatP= 5.02D-01
 IDIUse=3 WtCom= 6.57D-01 WtEn= 3.43D-01
 Coeff-Com:  0.414D+00 0.586D+00
 Coeff-En:   0.395D+00 0.605D+00
 Coeff:      0.408D+00 0.592D+00
 Gap=     0.493 Goal=   None    Shift=    0.000
 RMSDP=7.54D-04 MaxDP=3.47D-02 DE=-1.24D-01 OVMax= 1.45D-01

 Cycle   3  Pass 0  IDiag  1:
 RMSU=  3.20D-04    CP:  9.25D-01  4.14D-01
 E= -157.660891662500     Delta-E=       -0.279692598683 Rises=F Damp=F
 DIIS: error= 3.67D-03 at cycle   3 NSaved=   3.
 NSaved= 3 IEnMin= 3 EnMin= -157.660891662500     IErMin= 3 ErrMin= 3.67D-03
 ErrMax= 3.67D-03  0.00D+00 EMaxC= 1.00D-01 BMatC= 5.11D-03 BMatP= 2.70D-01
 IDIUse=3 WtCom= 9.63D-01 WtEn= 3.67D-02
 Coeff-Com:  0.498D-02 0.111D+00 0.884D+00
 Coeff-En:   0.000D+00 0.000D+00 0.100D+01
 Coeff:      0.480D-02 0.107D+00 0.888D+00
 Gap=     0.417 Goal=   None    Shift=    0.000
 RMSDP=9.23D-05 MaxDP=6.00D-03 DE=-2.80D-01 OVMax= 1.99D-02

 Cycle   4  Pass 0  IDiag  1:
 RMSU=  7.19D-05    CP:  9.16D-01  4.57D-01  1.06D+00
 E= -157.666043247665     Delta-E=       -0.005151585165 Rises=F Damp=F
 DIIS: error= 1.42D-03 at cycle   4 NSaved=   4.
 NSaved= 4 IEnMin= 4 EnMin= -157.666043247665     IErMin= 4 ErrMin= 1.42D-03
 ErrMax= 1.42D-03  0.00D+00 EMaxC= 1.00D-01 BMatC= 3.77D-04 BMatP= 5.11D-03
 IDIUse=3 WtCom= 9.86D-01 WtEn= 1.42D-02
 Coeff-Com: -0.106D-01 0.153D-01 0.293D+00 0.703D+00
 Coeff-En:   0.000D+00 0.000D+00 0.000D+00 0.100D+01
 Coeff:     -0.105D-01 0.151D-01 0.289D+00 0.707D+00
 Gap=     0.420 Goal=   None    Shift=    0.000
 RMSDP=2.46D-05 MaxDP=1.76D-03 DE=-5.15D-03 OVMax= 4.83D-03

 Cycle   5  Pass 0  IDiag  1:
 RMSU=  1.76D-05    CP:  9.17D-01  4.49D-01  1.09D+00  8.74D-01
 E= -157.666386218399     Delta-E=       -0.000342970734 Rises=F Damp=F
 DIIS: error= 2.95D-04 at cycle   5 NSaved=   5.
 NSaved= 5 IEnMin= 5 EnMin= -157.666386218399     IErMin= 5 ErrMin= 2.95D-04
 ErrMax= 2.95D-04  0.00D+00 EMaxC= 1.00D-01 BMatC= 2.76D-05 BMatP= 3.77D-04
 IDIUse=3 WtCom= 9.97D-01 WtEn= 2.95D-03
 Coeff-Com: -0.350D-02-0.254D-02 0.437D-01 0.247D+00 0.715D+00
 Coeff-En:   0.000D+00 0.000D+00 0.000D+00 0.000D+00 0.100D+01
 Coeff:     -0.349D-02-0.253D-02 0.435D-01 0.246D+00 0.716D+00
 Gap=     0.419 Goal=   None    Shift=    0.000
 RMSDP=6.78D-06 MaxDP=4.83D-04 DE=-3.43D-04 OVMax= 1.17D-03

 Initial convergence to 1.0D-05 achieved.  Increase integral accuracy.
 Cycle   6  Pass 1  IDiag  1:
 E= -157.666448631778     Delta-E=       -0.000062413380 Rises=F Damp=F
 DIIS: error= 3.80D-05 at cycle   1 NSaved=   1.
 NSaved= 1 IEnMin= 1 EnMin= -157.666448631778     IErMin= 1 ErrMin= 3.80D-05
 ErrMax= 3.80D-05  0.00D+00 EMaxC= 1.00D-01 BMatC= 1.06D-06 BMatP= 1.06D-06
 IDIUse=1 WtCom= 1.00D+00 WtEn= 0.00D+00
 Coeff-Com:  0.100D+01
 Coeff:      0.100D+01
 Gap=     0.419 Goal=   None    Shift=    0.000
 RMSDP=6.78D-06 MaxDP=4.83D-04 DE=-6.24D-05 OVMax= 3.48D-04

 Cycle   7  Pass 1  IDiag  1:
 RMSU=  2.49D-05    CP:  1.00D+00
 E= -157.666449422699     Delta-E=       -0.000000790921 Rises=F Damp=F
 DIIS: error= 3.00D-05 at cycle   2 NSaved=   2.
 NSaved= 2 IEnMin= 2 EnMin= -157.666449422699     IErMin= 2 ErrMin= 3.00D-05
 ErrMax= 3.00D-05  0.00D+00 EMaxC= 1.00D-01 BMatC= 2.91D-07 BMatP= 1.06D-06
 IDIUse=1 WtCom= 1.00D+00 WtEn= 0.00D+00
 Coeff-Com:  0.294D+00 0.706D+00
 Coeff:      0.294D+00 0.706D+00
 Gap=     0.419 Goal=   None    Shift=    0.000
 RMSDP=9.49D-07 MaxDP=6.89D-05 DE=-7.91D-07 OVMax= 1.61D-04

 Cycle   8  Pass 1  IDiag  1:
 RMSU=  7.75D-07    CP:  1.00D+00  1.02D+00
 E= -157.666449686024     Delta-E=       -0.000000263325 Rises=F Damp=F
 DIIS: error= 1.15D-05 at cycle   3 NSaved=   3.
 NSaved= 3 IEnMin= 3 EnMin= -157.666449686024     IErMin= 3 ErrMin= 1.15D-05
 ErrMax= 1.15D-05  0.00D+00 EMaxC= 1.00D-01 BMatC= 4.41D-08 BMatP= 2.91D-07
 IDIUse=1 WtCom= 1.00D+00 WtEn= 0.00D+00
 Coeff-Com: -0.304D-01 0.252D+00 0.778D+00
 Coeff:     -0.304D-01 0.252D+00 0.778D+00
 Gap=     0.419 Goal=   None    Shift=    0.000
 RMSDP=4.03D-07 MaxDP=2.44D-05 DE=-2.63D-07 OVMax= 6.08D-05

 Cycle   9  Pass 1  IDiag  1:
 RMSU=  2.77D-07    CP:  1.00D+00  1.03D+00  9.08D-01
 E= -157.666449734395     Delta-E=       -0.000000048370 Rises=F Damp=F
 DIIS: error= 1.62D-06 at cycle   4 NSaved=   4.
 NSaved= 4 IEnMin= 4 EnMin= -157.666449734395     IErMin= 4 ErrMin= 1.62D-06
 ErrMax= 1.62D-06  0.00D+00 EMaxC= 1.00D-01 BMatC= 9.47D-10 BMatP= 4.41D-08
 IDIUse=1 WtCom= 1.00D+00 WtEn= 0.00D+00
 Coeff-Com: -0.182D-01 0.184D-01 0.147D+00 0.853D+00
 Coeff:     -0.182D-01 0.184D-01 0.147D+00 0.853D+00
 Gap=     0.419 Goal=   None    Shift=    0.000
 RMSDP=7.20D-08 MaxDP=3.51D-06 DE=-4.84D-08 OVMax= 1.18D-05

 Cycle  10  Pass 1  IDiag  1:
 RMSU=  5.40D-08    CP:  1.00D+00  1.03D+00  9.44D-01  1.13D+00
 E= -157.666449735674     Delta-E=       -0.000000001280 Rises=F Damp=F
 DIIS: error= 3.60D-07 at cycle   5 NSaved=   5.
 NSaved= 5 IEnMin= 5 EnMin= -157.666449735674     IErMin= 5 ErrMin= 3.60D-07
 ErrMax= 3.60D-07  0.00D+00 EMaxC= 1.00D-01 BMatC= 9.57D-11 BMatP= 9.47D-10
 IDIUse=1 WtCom= 1.00D+00 WtEn= 0.00D+00
 Coeff-Com: -0.150D-02-0.175D-01-0.365D-01 0.186D+00 0.870D+00
 Coeff:     -0.150D-02-0.175D-01-0.365D-01 0.186D+00 0.870D+00
 Gap=     0.419 Goal=   None    Shift=    0.000
 RMSDP=2.34D-08 MaxDP=1.19D-06 DE=-1.28D-09 OVMax= 4.21D-06

 Cycle  11  Pass 1  IDiag  1:
 RMSU=  1.47D-08    CP:  1.00D+00  1.03D+00  9.51D-01  1.19D+00  1.05D+00
 E= -157.666449735792     Delta-E=       -0.000000000118 Rises=F Damp=F
 DIIS: error= 1.82D-07 at cycle   6 NSaved=   6.
 NSaved= 6 IEnMin= 6 EnMin= -157.666449735792     IErMin= 6 ErrMin= 1.82D-07
 ErrMax= 1.82D-07  0.00D+00 EMaxC= 1.00D-01 BMatC= 1.41D-11 BMatP= 9.57D-11
 IDIUse=1 WtCom= 1.00D+00 WtEn= 0.00D+00
 Coeff-Com:  0.561D-03-0.825D-02-0.245D-01 0.216D-01 0.359D+00 0.651D+00
 Coeff:      0.561D-03-0.825D-02-0.245D-01 0.216D-01 0.359D+00 0.651D+00
 Gap=     0.419 Goal=   None    Shift=    0.000
 RMSDP=5.15D-09 MaxDP=2.96D-07 DE=-1.18D-10 OVMax= 9.35D-07

 SCF Done:  E(RB2PLYPD3) =  -157.666449736     A.U. after   11 cycles
            NFock= 11  Conv=0.52D-08     -V/T= 1.9945
 KE= 1.585355337893D+02 PE=-6.317469335424D+02 EE= 1.825217059519D+02
 Leave Link  502 at Wed Aug 26 19:54:16 2020, MaxMem=  2097152000 cpu:      3222.6
 (Enter /opt/cluster/programs/g09/g09_d.01/g09/l801.exe)
 DoSCS=T DFT=T ScalE2(SS,OS)=  0.270000  0.270000
 ExpMin= 7.60D-02 ExpMax= 6.70D+04 ExpMxC= 6.47D+02 IAcc=3 IRadAn=         5 AccDes= 0.00D+00
 HarFok:  IExCor=  205 AccDes= 0.00D+00 IRadAn=         5 IDoV=-2 UseB2=F ITyADJ=14
 ICtDFT= 12500011 ScaDFX=  1.000000  1.000000  1.000000  1.000000
 Largest valence mixing into a core orbital is  1.23D-04
 Largest core mixing into a valence orbital is  1.57D-05
 Range of M.O.s used for correlation:     5   528
 NBasis=   528 NAE=    17 NBE=    17 NFC=     4 NFV=     0
 NROrb=    524 NOA=    13 NOB=    13 NVA=   511 NVB=   511

 **** Warning!!: The largest alpha MO coefficient is  0.43271195D+02

 Leave Link  801 at Wed Aug 26 19:54:22 2020, MaxMem=  2097152000 cpu:         1.0
 (Enter /opt/cluster/programs/g09/g09_d.01/g09/l906.exe)
 DoSCS=T DFT=T ScalE2(SS,OS)=  0.270000  0.270000
 FulOut=F Deriv=F AODrv=F NAtomX=    14
   MMem=         463  MDisk=          13 MDiskD=          13
  W3Min=     4238234 MinDsk=     6904766 NBas6D=         638
 NBas2D=      205689    NTT=      203841    LW2=     4508827
    MDV=  2095895304 MDiskM=        7293 NBas2p=      191146
 Fully direct method using O(OVN) memory.
 IMap=   1   2   3   4   5   6   7   8   9  10  11  12  13
 JobTyp=1 Pass  1:  I=   1 to  13 NPSUse=  8 ParTrn=T ParDer=T DoDerP=F.
 Spin components of T(2) and E(2):
     alpha-alpha T2 =       0.4101863556D-01 E2=     -0.2665902495D-01
     alpha-beta  T2 =       0.2756533620D+00 E2=     -0.1969675467D+00
     beta-beta   T2 =       0.4101863556D-01 E2=     -0.2665902495D-01
 The integrals were generated   1 times.
 E2(B2PLYPD3) =    -0.2502855966D+00 E(B2PLYPD3) =    -0.15791673533237D+03
 Leave Link  906 at Wed Aug 26 19:57:51 2020, MaxMem=  2097152000 cpu:      1653.6
 (Enter /opt/cluster/programs/g09/g09_d.01/g09/l601.exe)
 Copying SCF densities to generalized density rwf, IOpCl= 0 IROHF=0.

 **********************************************************************

            Population analysis using the SCF density.

 **********************************************************************

 Orbital symmetries:
       Occupied  (A) (A) (A) (A) (A) (A) (A) (A) (A) (A) (A) (A)
                 (A) (A) (A) (A) (A)
       Virtual   (A) (A) (A) (A) (A) (A) (A) (A) (A) (A) (A) (A)
                 (A) (A) (A) (A) (A) (A) (A) (A) (A) (A) (A) (A)
                 (A) (A) (A) (A) (A) (A) (A) (A) (A) (A) (A) (A)
                 (A) (A) (A) (A) (A) (A) (A) (A) (A) (A) (A) (A)
                 (A) (A) (A) (A) (A) (A) (A) (A) (A) (A) (A) (A)
                 (A) (A) (A) (A) (A) (A) (A) (A) (A) (A) (A) (A)
                 (A) (A) (A) (A) (A) (A) (A) (A) (A) (A) (A) (A)
                 (A) (A) (A) (A) (A) (A) (A) (A) (A) (A) (A) (A)
                 (A) (A) (A) (A) (A) (A) (A) (A) (A) (A) (A) (A)
                 (A) (A) (A) (A) (A) (A) (A) (A) (A) (A) (A) (A)
                 (A) (A) (A) (A) (A) (A) (A) (A) (A) (A) (A) (A)
                 (A) (A) (A) (A) (A) (A) (A) (A) (A) (A) (A) (A)
                 (A) (A) (A) (A) (A) (A) (A) (A) (A) (A) (A) (A)
                 (A) (A) (A) (A) (A) (A) (A) (A) (A) (A) (A) (A)
                 (A) (A) (A) (A) (A) (A) (A) (A) (A) (A) (A) (A)
                 (A) (A) (A) (A) (A) (A) (A) (A) (A) (A) (A) (A)
                 (A) (A) (A) (A) (A) (A) (A) (A) (A) (A) (A) (A)
                 (A) (A) (A) (A) (A) (A) (A) (A) (A) (A) (A) (A)
                 (A) (A) (A) (A) (A) (A) (A) (A) (A) (A) (A) (A)
                 (A) (A) (A) (A) (A) (A) (A) (A) (A) (A) (A) (A)
                 (A) (A) (A) (A) (A) (A) (A) (A) (A) (A) (A) (A)
                 (A) (A) (A) (A) (A) (A) (A) (A) (A) (A) (A) (A)
                 (A) (A) (A) (A) (A) (A) (A) (A) (A) (A) (A) (A)
                 (A) (A) (A) (A) (A) (A) (A) (A) (A) (A) (A) (A)
                 (A) (A) (A) (A) (A) (A) (A) (A) (A) (A) (A) (A)
                 (A) (A) (A) (A) (A) (A) (A) (A) (A) (A) (A) (A)
                 (A) (A) (A) (A) (A) (A) (A) (A) (A) (A) (A) (A)
                 (A) (A) (A) (A) (A) (A) (A) (A) (A) (A) (A) (A)
                 (A) (A) (A) (A) (A) (A) (A) (A) (A) (A) (A) (A)
                 (A) (A) (A) (A) (A) (A) (A) (A) (A) (A) (A) (A)
                 (A) (A) (A) (A) (A) (A) (A) (A) (A) (A) (A) (A)
                 (A) (A) (A) (A) (A) (A) (A) (A) (A) (A) (A) (A)
                 (A) (A) (A) (A) (A) (A) (A) (A) (A) (A) (A) (A)
                 (A) (A) (A) (A) (A) (A) (A) (A) (A) (A) (A) (A)
                 (A) (A) (A) (A) (A) (A) (A) (A) (A) (A) (A) (A)
                 (A) (A) (A) (A) (A) (A) (A) (A) (A) (A) (A) (A)
                 (A) (A) (A) (A) (A) (A) (A) (A) (A) (A) (A) (A)
                 (A) (A) (A) (A) (A) (A) (A) (A) (A) (A) (A) (A)
                 (A) (A) (A) (A) (A) (A) (A) (A) (A) (A) (A) (A)
                 (A) (A) (A) (A) (A) (A) (A) (A) (A) (A) (A) (A)
                 (A) (A) (A) (A) (A) (A) (A) (A) (A) (A) (A) (A)
                 (A) (A) (A) (A) (A) (A) (A) (A) (A) (A) (A) (A)
                 (A) (A) (A) (A) (A) (A) (A)
 The electronic state is 1-A.
 Alpha  occ. eigenvalues --  -10.64877 -10.61145 -10.59673 -10.56094  -0.94902
 Alpha  occ. eigenvalues --   -0.89501  -0.75521  -0.67419  -0.54346  -0.51897
 Alpha  occ. eigenvalues --   -0.50088  -0.46387  -0.42157  -0.40891  -0.38776
 Alpha  occ. eigenvalues --   -0.37170  -0.36509
 Alpha virt. eigenvalues --    0.05380   0.06065   0.07499   0.08226   0.10542
 Alpha virt. eigenvalues --    0.11353   0.11789   0.14287   0.14331   0.15378
 Alpha virt. eigenvalues --    0.15736   0.17600   0.18589   0.19634   0.21704
 Alpha virt. eigenvalues --    0.22464   0.22955   0.24376   0.26449   0.29221
 Alpha virt. eigenvalues --    0.30045   0.31078   0.31677   0.32383   0.33779
 Alpha virt. eigenvalues --    0.34756   0.35913   0.37330   0.38024   0.40778
 Alpha virt. eigenvalues --    0.42188   0.42722   0.44002   0.45432   0.48030
 Alpha virt. eigenvalues --    0.48985   0.51761   0.53253   0.55561   0.60041
 Alpha virt. eigenvalues --    0.60312   0.62680   0.64278   0.66212   0.67776
 Alpha virt. eigenvalues --    0.68170   0.70086   0.70309   0.71028   0.72765
 Alpha virt. eigenvalues --    0.74117   0.75667   0.77186   0.77386   0.78309
 Alpha virt. eigenvalues --    0.80920   0.82112   0.84499   0.85834   0.86901
 Alpha virt. eigenvalues --    0.88179   0.88787   0.90137   0.90820   0.92334
 Alpha virt. eigenvalues --    0.93527   0.94459   0.95951   0.98249   0.98684
 Alpha virt. eigenvalues --    0.99555   1.00511   1.01961   1.03870   1.05220
 Alpha virt. eigenvalues --    1.06796   1.07841   1.09726   1.10576   1.11354
 Alpha virt. eigenvalues --    1.12881   1.13929   1.16484   1.18831   1.19717
 Alpha virt. eigenvalues --    1.21283   1.21629   1.26970   1.27380   1.28031
 Alpha virt. eigenvalues --    1.29403   1.31396   1.32553   1.35039   1.35746
 Alpha virt. eigenvalues --    1.36419   1.41102   1.41878   1.44330   1.46489
 Alpha virt. eigenvalues --    1.48468   1.50484   1.52452   1.54227   1.57794
 Alpha virt. eigenvalues --    1.63889   1.70200   1.71805   1.73205   1.76306
 Alpha virt. eigenvalues --    1.79256   1.81181   1.86250   1.87703   1.90470
 Alpha virt. eigenvalues --    1.91977   1.94235   1.95161   1.95646   1.98052
 Alpha virt. eigenvalues --    1.99558   2.00054   2.01701   2.02079   2.04421
 Alpha virt. eigenvalues --    2.05625   2.05976   2.07124   2.07646   2.10489
 Alpha virt. eigenvalues --    2.11690   2.13212   2.13947   2.14541   2.18206
 Alpha virt. eigenvalues --    2.18890   2.20500   2.21376   2.21517   2.23502
 Alpha virt. eigenvalues --    2.25694   2.26939   2.28123   2.29747   2.30880
 Alpha virt. eigenvalues --    2.33114   2.35785   2.37555   2.38897   2.39615
 Alpha virt. eigenvalues --    2.41241   2.41495   2.44201   2.44659   2.46753
 Alpha virt. eigenvalues --    2.47985   2.48569   2.53404   2.54840   2.56208
 Alpha virt. eigenvalues --    2.56698   2.58150   2.60630   2.62513   2.64715
 Alpha virt. eigenvalues --    2.65448   2.65545   2.67193   2.68477   2.70263
 Alpha virt. eigenvalues --    2.70537   2.73082   2.73628   2.76855   2.77376
 Alpha virt. eigenvalues --    2.79178   2.79874   2.81413   2.81923   2.83887
 Alpha virt. eigenvalues --    2.85537   2.89851   2.92470   2.95320   2.96542
 Alpha virt. eigenvalues --    2.99286   2.99875   3.00415   3.02984   3.05009
 Alpha virt. eigenvalues --    3.05971   3.07987   3.10695   3.11376   3.14279
 Alpha virt. eigenvalues --    3.15893   3.16136   3.18464   3.19052   3.22838
 Alpha virt. eigenvalues --    3.24260   3.25513   3.26607   3.30557   3.30779
 Alpha virt. eigenvalues --    3.32636   3.36307   3.36856   3.38345   3.42261
 Alpha virt. eigenvalues --    3.44249   3.44904   3.47368   3.47954   3.51699
 Alpha virt. eigenvalues --    3.52588   3.53446   3.55688   3.58457   3.60787
 Alpha virt. eigenvalues --    3.62943   3.64942   3.67269   3.71071   3.73134
 Alpha virt. eigenvalues --    3.76417   3.78205   3.80591   3.88225   3.89174
 Alpha virt. eigenvalues --    3.93770   3.96097   3.97295   4.00910   4.01895
 Alpha virt. eigenvalues --    4.12639   4.13986   4.14630   4.15737   4.17466
 Alpha virt. eigenvalues --    4.20028   4.22535   4.25552   4.28591   4.33562
 Alpha virt. eigenvalues --    4.37785   4.43076   4.48573   4.52292   4.54116
 Alpha virt. eigenvalues --    4.69911   4.88801   4.91895   4.97876   5.04409
 Alpha virt. eigenvalues --    5.12776   5.15204   5.25667   5.28695   5.34563
 Alpha virt. eigenvalues --    5.39391   5.43517   5.45015   5.46990   5.51950
 Alpha virt. eigenvalues --    5.52124   5.53495   5.56350   5.60407   5.61692
 Alpha virt. eigenvalues --    5.67030   5.68879   5.69837   5.71802   5.72642
 Alpha virt. eigenvalues --    5.74623   5.77136   5.79194   5.81714   5.82820
 Alpha virt. eigenvalues --    5.84564   5.86517   5.88186   5.90168   5.91824
 Alpha virt. eigenvalues --    5.94171   5.95867   5.96388   6.00500   6.00712
 Alpha virt. eigenvalues --    6.02815   6.03563   6.05098   6.06270   6.07201
 Alpha virt. eigenvalues --    6.08688   6.10362   6.11873   6.13157   6.14113
 Alpha virt. eigenvalues --    6.17005   6.17973   6.19966   6.22481   6.24388
 Alpha virt. eigenvalues --    6.25071   6.26289   6.27481   6.30728   6.31524
 Alpha virt. eigenvalues --    6.32804   6.37142   6.37929   6.39453   6.41115
 Alpha virt. eigenvalues --    6.43879   6.48249   6.50676   6.52301   6.54123
 Alpha virt. eigenvalues --    6.55893   6.58505   6.59964   6.61214   6.62995
 Alpha virt. eigenvalues --    6.65085   6.68235   6.71582   6.74187   6.76257
 Alpha virt. eigenvalues --    6.77479   6.78562   6.81860   6.84475   6.85775
 Alpha virt. eigenvalues --    6.88300   6.89640   6.91396   6.93437   6.98847
 Alpha virt. eigenvalues --    7.00363   7.02041   7.04073   7.05882   7.07950
 Alpha virt. eigenvalues --    7.10128   7.11437   7.13499   7.15775   7.19579
 Alpha virt. eigenvalues --    7.21335   7.23351   7.25602   7.26372   7.28936
 Alpha virt. eigenvalues --    7.31574   7.33943   7.35263   7.37768   7.38895
 Alpha virt. eigenvalues --    7.40841   7.43687   7.46092   7.51502   7.55280
 Alpha virt. eigenvalues --    7.55931   7.59137   7.59822   7.61180   7.62594
 Alpha virt. eigenvalues --    7.64608   7.68670   7.69777   7.71433   7.72312
 Alpha virt. eigenvalues --    7.73875   7.75843   7.77304   7.81434   7.84045
 Alpha virt. eigenvalues --    7.85397   7.86877   7.88571   7.91316   7.94193
 Alpha virt. eigenvalues --    7.94373   7.96767   7.99186   8.01258   8.03857
 Alpha virt. eigenvalues --    8.08139   8.10569   8.13062   8.14148   8.15092
 Alpha virt. eigenvalues --    8.17345   8.19795   8.22547   8.23305   8.26774
 Alpha virt. eigenvalues --    8.28207   8.29950   8.31162   8.32911   8.34098
 Alpha virt. eigenvalues --    8.34706   8.40544   8.41552   8.44496   8.45795
 Alpha virt. eigenvalues --    8.47956   8.49549   8.52182   8.54092   8.55306
 Alpha virt. eigenvalues --    8.56955   8.58950   8.59397   8.62365   8.63939
 Alpha virt. eigenvalues --    8.65207   8.68005   8.71278   8.73997   8.75787
 Alpha virt. eigenvalues --    8.77217   8.78179   8.80919   8.81460   8.83013
 Alpha virt. eigenvalues --    8.87251   8.89498   8.90991   8.92889   8.95659
 Alpha virt. eigenvalues --    8.96801   8.98376   8.99565   9.03064   9.07355
 Alpha virt. eigenvalues --    9.09790   9.12588   9.15308   9.16564   9.20495
 Alpha virt. eigenvalues --    9.21508   9.23167   9.26299   9.29648   9.31273
 Alpha virt. eigenvalues --    9.34368   9.35654   9.39963   9.41963   9.43763
 Alpha virt. eigenvalues --    9.46101   9.48214   9.49091   9.52557   9.57501
 Alpha virt. eigenvalues --    9.59531   9.63363   9.65905   9.68274   9.70057
 Alpha virt. eigenvalues --    9.75285   9.78465   9.80576   9.83334   9.87286
 Alpha virt. eigenvalues --    9.92457   9.96406  10.01831  10.07552  10.12343
 Alpha virt. eigenvalues --   10.15189  10.26764  10.31036  10.36925  10.70611
 Alpha virt. eigenvalues --   10.79409  10.94470  11.02372  11.09445  11.13221
 Alpha virt. eigenvalues --   11.19141  11.33045  11.38163  11.42973  11.48993
 Alpha virt. eigenvalues --   11.54021  11.62072  11.71621  11.81461  11.95659
 Alpha virt. eigenvalues --   12.11868  12.32943  12.47912  12.56158  12.64483
 Alpha virt. eigenvalues --   12.84947  13.66706  14.49467  28.90473  29.36915
 Alpha virt. eigenvalues --   29.48702  30.39970 148.47902 149.04711 149.22694
 Alpha virt. eigenvalues --  150.22526
          Condensed to atoms (all electrons):
               1          2          3          4          5          6
     1  C    4.817270   0.354253   0.404822   0.386246   0.389300  -0.055188
     2  C    0.354253   4.840184  -0.027297  -0.062475  -0.052289   0.353591
     3  H    0.404822  -0.027297   0.640494  -0.037333  -0.031652   0.007996
     4  H    0.386246  -0.062475  -0.037333   0.722556  -0.017118  -0.029018
     5  H    0.389300  -0.052289  -0.031652  -0.017118   0.662084   0.000814
     6  C   -0.055188   0.353591   0.007996  -0.029018   0.000814   4.681227
     7  H   -0.063644   0.427570  -0.009202  -0.004671   0.011825  -0.045995
     8  H   -0.033147   0.392822  -0.001051   0.009719  -0.005061  -0.047588
     9  C    0.007132  -0.056674  -0.000548   0.002403  -0.000346   0.350328
    10  H    0.004098  -0.029521  -0.000410   0.001971   0.002152   0.385860
    11  H   -0.024313  -0.056078   0.000600  -0.002348   0.001690   0.415402
    12  H    0.000183  -0.008147  -0.000003  -0.000071  -0.000015  -0.003671
    13  H   -0.000254   0.004904   0.000010   0.000232   0.000012  -0.008854
    14  H    0.000854  -0.002406  -0.000004   0.000347  -0.000027  -0.024352
               7          8          9         10         11         12
     1  C   -0.063644  -0.033147   0.007132   0.004098  -0.024313   0.000183
     2  C    0.427570   0.392822  -0.056674  -0.029521  -0.056078  -0.008147
     3  H   -0.009202  -0.001051  -0.000548  -0.000410   0.000600  -0.000003
     4  H   -0.004671   0.009719   0.002403   0.001971  -0.002348  -0.000071
     5  H    0.011825  -0.005061  -0.000346   0.002152   0.001690  -0.000015
     6  C   -0.045995  -0.047588   0.350328   0.385860   0.415402  -0.003671
     7  H    0.623332  -0.041934  -0.018194   0.010737  -0.007421  -0.001096
     8  H   -0.041934   0.701395   0.003511  -0.006331   0.010078   0.002439
     9  C   -0.018194   0.003511   5.134182  -0.050220  -0.035450   0.427106
    10  H    0.010737  -0.006331  -0.050220   0.727727  -0.043327  -0.007351
    11  H   -0.007421   0.010078  -0.035450  -0.043327   0.679822   0.007705
    12  H   -0.001096   0.002439   0.427106  -0.007351   0.007705   0.315827
    13  H    0.000039  -0.000019   0.455713  -0.002271  -0.008967  -0.012488
    14  H    0.002541   0.000260   0.326156   0.006119  -0.001028   0.008175
              13         14
     1  C   -0.000254   0.000854
     2  C    0.004904  -0.002406
     3  H    0.000010  -0.000004
     4  H    0.000232   0.000347
     5  H    0.000012  -0.000027
     6  C   -0.008854  -0.024352
     7  H    0.000039   0.002541
     8  H   -0.000019   0.000260
     9  C    0.455713   0.326156
    10  H   -0.002271   0.006119
    11  H   -0.008967  -0.001028
    12  H   -0.012488   0.008175
    13  H    0.378957  -0.002305
    14  H   -0.002305   0.677853
 Mulliken charges:
               1
     1  C   -0.187611
     2  C   -0.078437
     3  H    0.053578
     4  H    0.029560
     5  H    0.038630
     6  C    0.019447
     7  H    0.116112
     8  H    0.014907
     9  C   -0.545098
    10  H    0.000765
    11  H    0.063635
    12  H    0.271408
    13  H    0.195288
    14  H    0.007816
 Sum of Mulliken charges =   0.00000
 Mulliken charges with hydrogens summed into heavy atoms:
               1
     1  C   -0.065844
     2  C    0.052582
     6  C    0.083847
     9  C   -0.070586
 Electronic spatial extent (au):  <R**2>=            417.5639
 Charge=              0.0000 electrons
 Dipole moment (field-independent basis, Debye):
    X=              0.5039    Y=              0.1089    Z=              0.0042  Tot=              0.5155
 Quadrupole moment (field-independent basis, Debye-Ang):
   XX=            -28.3739   YY=            -29.3230   ZZ=            -28.7874
   XY=              1.1667   XZ=              1.1193   YZ=              0.7054
 Traceless Quadrupole moment (field-independent basis, Debye-Ang):
   XX=              0.4542   YY=             -0.4949   ZZ=              0.0407
   XY=              1.1667   XZ=              1.1193   YZ=              0.7054
 Octapole moment (field-independent basis, Debye-Ang**2):
  XXX=             11.7512  YYY=              0.0537  ZZZ=              0.8399  XYY=              1.4946
  XXY=              0.1555  XXZ=              1.5160  XZZ=              1.2290  YZZ=             -0.0558
  YYZ=              0.1179  XYZ=             -0.8760
 Hexadecapole moment (field-independent basis, Debye-Ang**3):
 XXXX=           -421.7170 YYYY=            -95.0340 ZZZZ=            -74.1301 XXXY=             12.2840
 XXXZ=              8.8530 YYYX=              4.1146 YYYZ=              1.5279 ZZZX=              2.5801
 ZZZY=             -1.2757 XXYY=            -88.9102 XXZZ=            -85.2828 YYZZ=            -25.8987
 XXYZ=              5.1876 YYXZ=             -0.3701 ZZXY=              0.5710
 N-N= 1.330232440654D+02 E-N=-6.317469483266D+02  KE= 1.585355337893D+02
 Leave Link  601 at Wed Aug 26 19:57:58 2020, MaxMem=  2097152000 cpu:         1.0
 (Enter /opt/cluster/programs/g09/g09_d.01/g09/l9999.exe)
 1\1\GINC-NODE27\SP\RB2PLYPD3-FC\def2QZVP\C4H10\BOITTIER\26-Aug-2020\0\
 \#p B2PLYPD3/Def2QZVP\\butane_opt\\0,1\C,0,-3.897769,0.212601,-0.16179
 \C,0,-2.709844,-0.568119,0.315691\H,0,-4.86705,-0.295451,-0.744942\H,0
 ,-3.325277,0.787691,-1.10904\H,0,-4.279729,1.030564,0.719183\C,0,-1.41
 3112,0.199247,0.143897\H,0,-2.679188,-1.191382,-0.363318\H,0,-2.71483,
 -1.26067,1.306632\C,0,-0.198412,-0.699979,-0.127232\H,0,-1.144066,0.93
 8201,1.058379\H,0,-1.705207,0.791669,-0.587019\H,0,0.118215,-0.976466,
 0.467883\H,0,0.473181,-0.344673,-0.280021\H,0,-0.250792,-1.71414,-1.11
 682\\Version=ES64L-G09RevD.01\State=1-A\HF=-157.6664497\MP2=-157.91673
 53\RMSD=5.151e-09\PG=C01 [X(C4H10)]\\@


 THERE ARE PEOPLE SO ADDICTED TO EXAGERATING THEY
 CAN'T TELL THE TRUTH WITHOUT LYING. -- FORTUNE COOKIE
 Job cpu time:       0 days  1 hours 21 minutes 40.6 seconds.
 File lengths (MBytes):  RWF=    152 Int=      0 D2E=      0 Chk=     14 Scr=      1
 Normal termination of Gaussian 09 at Wed Aug 26 19:58:22 2020.
