 Entering Gaussian System, Link 0=/opt/cluster/programs/g09/g09_d.01/g09//g09
 Input=/home/boittier/MDCM/nms_sampling/butane_geom.xyz.dir/energies/butane_opt_666_energy.com
 Output=/scratch/boittier/butane_opt_666_energy/butane_opt_666_energy.out
 Initial command:
 /opt/cluster/programs/g09/g09_d.01/g09/l1.exe "/scratch/boittier/butane_opt_666_energy/Gau-234337.inp" -scrdir="/scratch/boittier/butane_opt_666_energy/"
 Entering Link 1 = /opt/cluster/programs/g09/g09_d.01/g09/l1.exe PID=    234338.
  
 Copyright (c) 1988,1990,1992,1993,1995,1998,2003,2009,2013,
            Gaussian, Inc.  All Rights Reserved.
  
 This is part of the Gaussian(R) 09 program.  It is based on
 the Gaussian(R) 03 system (copyright 2003, Gaussian, Inc.),
 the Gaussian(R) 98 system (copyright 1998, Gaussian, Inc.),
 the Gaussian(R) 94 system (copyright 1995, Gaussian, Inc.),
 the Gaussian 92(TM) system (copyright 1992, Gaussian, Inc.),
 the Gaussian 90(TM) system (copyright 1990, Gaussian, Inc.),
 the Gaussian 88(TM) system (copyright 1988, Gaussian, Inc.),
 the Gaussian 86(TM) system (copyright 1986, Carnegie Mellon
 University), and the Gaussian 82(TM) system (copyright 1983,
 Carnegie Mellon University). Gaussian is a federally registered
 trademark of Gaussian, Inc.
  
 This software contains proprietary and confidential information,
 including trade secrets, belonging to Gaussian, Inc.
  
 This software is provided under written license and may be
 used, copied, transmitted, or stored only in accord with that
 written license.
  
 The following legend is applicable only to US Government
 contracts under FAR:
  
                    RESTRICTED RIGHTS LEGEND
  
 Use, reproduction and disclosure by the US Government is
 subject to restrictions as set forth in subparagraphs (a)
 and (c) of the Commercial Computer Software - Restricted
 Rights clause in FAR 52.227-19.
  
 Gaussian, Inc.
 340 Quinnipiac St., Bldg. 40, Wallingford CT 06492
  
  
 ---------------------------------------------------------------
 Warning -- This program may not be used in any manner that
 competes with the business of Gaussian, Inc. or will provide
 assistance to any competitor of Gaussian, Inc.  The licensee
 of this program is prohibited from giving any competitor of
 Gaussian, Inc. access to this program.  By using this program,
 the user acknowledges that Gaussian, Inc. is engaged in the
 business of creating and licensing software in the field of
 computational chemistry and represents and warrants to the
 licensee that it is not a competitor of Gaussian, Inc. and that
 it will not use this program in any manner prohibited above.
 ---------------------------------------------------------------
  

 Cite this work as:
 Gaussian 09, Revision D.01,
 M. J. Frisch, G. W. Trucks, H. B. Schlegel, G. E. Scuseria, 
 M. A. Robb, J. R. Cheeseman, G. Scalmani, V. Barone, B. Mennucci, 
 G. A. Petersson, H. Nakatsuji, M. Caricato, X. Li, H. P. Hratchian, 
 A. F. Izmaylov, J. Bloino, G. Zheng, J. L. Sonnenberg, M. Hada, 
 M. Ehara, K. Toyota, R. Fukuda, J. Hasegawa, M. Ishida, T. Nakajima, 
 Y. Honda, O. Kitao, H. Nakai, T. Vreven, J. A. Montgomery, Jr., 
 J. E. Peralta, F. Ogliaro, M. Bearpark, J. J. Heyd, E. Brothers, 
 K. N. Kudin, V. N. Staroverov, T. Keith, R. Kobayashi, J. Normand, 
 K. Raghavachari, A. Rendell, J. C. Burant, S. S. Iyengar, J. Tomasi, 
 M. Cossi, N. Rega, J. M. Millam, M. Klene, J. E. Knox, J. B. Cross, 
 V. Bakken, C. Adamo, J. Jaramillo, R. Gomperts, R. E. Stratmann, 
 O. Yazyev, A. J. Austin, R. Cammi, C. Pomelli, J. W. Ochterski, 
 R. L. Martin, K. Morokuma, V. G. Zakrzewski, G. A. Voth, 
 P. Salvador, J. J. Dannenberg, S. Dapprich, A. D. Daniels, 
 O. Farkas, J. B. Foresman, J. V. Ortiz, J. Cioslowski, 
 and D. J. Fox, Gaussian, Inc., Wallingford CT, 2013.
 
 ******************************************
 Gaussian 09:  ES64L-G09RevD.01 24-Apr-2013
                26-Aug-2020 
 ******************************************
 %chk=/home/boittier/MDCM/nms_sampling/butane_geom.xyz.dir/butane_opt_666.chk
 %nproc=8
 Will use up to    8 processors via shared memory.
 %mem=16000MB
 --------------------
 #p B2PLYPD3/Def2QZVP
 --------------------
 1/38=1/1;
 2/12=2,17=6,18=5,40=1/2;
 3/5=45,7=101,11=9,16=1,25=1,30=1,74=-60/1,2,3;
 4//1;
 5/5=2,38=5/2;
 8/10=1/1;
 9/16=-3/6;
 6/7=2,8=2,9=2,10=2/1;
 99/5=1,9=1/99;
 Leave Link    1 at Wed Aug 26 22:33:27 2020, MaxMem=  2097152000 cpu:         0.2
 (Enter /opt/cluster/programs/g09/g09_d.01/g09/l101.exe)
 ----------
 butane_opt
 ----------
 Symbolic Z-matrix:
 Charge =  0 Multiplicity = 1
 C                    -4.01677   0.34003   0.14504 
 C                    -2.72691  -0.73831  -0.03772 
 H                    -4.79498  -0.10747   0.15412 
 H                    -4.01435   0.74948  -0.61627 
 H                    -3.93924   1.13772   1.10718 
 C                    -1.35385   0.18749  -0.19593 
 H                    -2.6726   -1.39912  -0.95361 
 H                    -2.61194  -1.3252    0.70567 
 C                    -0.17341  -0.66287   0.20083 
 H                    -1.31583   0.54955   0.53451 
 H                    -0.9526    1.04994  -1.35313 
 H                    -0.25397  -0.72228   0.81839 
 H                     0.74677  -0.22309   0.56904 
 H                     0.00058  -1.68477  -0.8809 
 
 NAtoms=     14 NQM=       14 NQMF=       0 NMMI=      0 NMMIF=      0
                NMic=       0 NMicF=      0.
                    Isotopes and Nuclear Properties:
 (Nuclear quadrupole moments (NQMom) in fm**2, nuclear magnetic moments (NMagM)
  in nuclear magnetons)

  Atom         1           2           3           4           5           6           7           8           9          10
 IAtWgt=          12          12           1           1           1          12           1           1          12           1
 AtmWgt=  12.0000000  12.0000000   1.0078250   1.0078250   1.0078250  12.0000000   1.0078250   1.0078250  12.0000000   1.0078250
 NucSpn=           0           0           1           1           1           0           1           1           0           1
 AtZEff=   0.0000000   0.0000000   0.0000000   0.0000000   0.0000000   0.0000000   0.0000000   0.0000000   0.0000000   0.0000000
 NQMom=    0.0000000   0.0000000   0.0000000   0.0000000   0.0000000   0.0000000   0.0000000   0.0000000   0.0000000   0.0000000
 NMagM=    0.0000000   0.0000000   2.7928460   2.7928460   2.7928460   0.0000000   2.7928460   2.7928460   0.0000000   2.7928460
 AtZNuc=   6.0000000   6.0000000   1.0000000   1.0000000   1.0000000   6.0000000   1.0000000   1.0000000   6.0000000   1.0000000

  Atom        11          12          13          14
 IAtWgt=           1           1           1           1
 AtmWgt=   1.0078250   1.0078250   1.0078250   1.0078250
 NucSpn=           1           1           1           1
 AtZEff=   0.0000000   0.0000000   0.0000000   0.0000000
 NQMom=    0.0000000   0.0000000   0.0000000   0.0000000
 NMagM=    2.7928460   2.7928460   2.7928460   2.7928460
 AtZNuc=   1.0000000   1.0000000   1.0000000   1.0000000
 Leave Link  101 at Wed Aug 26 22:33:27 2020, MaxMem=  2097152000 cpu:         0.5
 (Enter /opt/cluster/programs/g09/g09_d.01/g09/l202.exe)
                          Input orientation:                          
 ---------------------------------------------------------------------
 Center     Atomic      Atomic             Coordinates (Angstroms)
 Number     Number       Type             X           Y           Z
 ---------------------------------------------------------------------
      1          6           0       -4.016770    0.340030    0.145035
      2          6           0       -2.726909   -0.738313   -0.037721
      3          1           0       -4.794980   -0.107473    0.154116
      4          1           0       -4.014354    0.749483   -0.616273
      5          1           0       -3.939239    1.137721    1.107184
      6          6           0       -1.353850    0.187492   -0.195925
      7          1           0       -2.672602   -1.399118   -0.953612
      8          1           0       -2.611939   -1.325195    0.705668
      9          6           0       -0.173405   -0.662867    0.200831
     10          1           0       -1.315827    0.549549    0.534512
     11          1           0       -0.952601    1.049942   -1.353127
     12          1           0       -0.253969   -0.722282    0.818387
     13          1           0        0.746772   -0.223094    0.569043
     14          1           0        0.000582   -1.684770   -0.880901
 ---------------------------------------------------------------------
                    Distance matrix (angstroms):
                    1          2          3          4          5
     1  C    0.000000
     2  C    1.691143   0.000000
     3  H    0.897748   2.170640   0.000000
     4  H    0.864435   2.050798   1.391851   0.000000
     5  H    1.252219   2.509991   1.786376   1.768241   0.000000
     6  C    2.688989   1.663561   3.471442   2.751510   3.047173
     7  H    2.457325   1.130694   2.720275   2.555500   3.505253
     8  H    2.249630   0.954084   2.559829   2.831711   2.826463
     9  C    3.972451   2.565732   4.655062   4.173162   4.271428
    10  H    2.736911   1.994290   3.561023   2.940464   2.748852
    11  H    3.483905   2.841886   4.286638   3.163473   3.870509
    12  H    3.967440   2.616985   4.630338   4.285421   4.138143
    13  H    4.815415   3.563716   5.558466   5.001920   4.909187
    14  H    4.614269   3.007647   5.153304   4.702694   5.238428
                    6          7          8          9         10
     6  C    0.000000
     7  H    2.197846   0.000000
     8  H    2.164227   1.662033   0.000000
     9  C    1.507971   2.849700   2.576817   0.000000
    10  H    0.816131   2.802259   2.285578   1.698948   0.000000
    11  H    1.497978   3.019257   3.554338   2.440419   1.986330
    12  H    1.751073   3.073739   2.436438   0.625617   1.680976
    13  H    2.272965   3.923472   3.537546   1.084300   2.202835
    14  H    2.410196   2.689386   3.077623   1.498233   2.954405
                   11         12         13         14
    11  H    0.000000
    12  H    2.888657   0.000000
    13  H    2.864128   1.145794   0.000000
    14  H    2.934315   1.969457   2.189894   0.000000
 Stoichiometry    C4H10
 Framework group  C1[X(C4H10)]
 Deg. of freedom    36
 Full point group                 C1      NOp   1
 Largest Abelian subgroup         C1      NOp   1
 Largest concise Abelian subgroup C1      NOp   1
                         Standard orientation:                         
 ---------------------------------------------------------------------
 Center     Atomic      Atomic             Coordinates (Angstroms)
 Number     Number       Type             X           Y           Z
 ---------------------------------------------------------------------
      1          6           0       -2.044485   -0.178256   -0.086325
      2          6           0       -0.573836    0.646531    0.043608
      3          1           0       -2.725776    0.405976   -0.107932
      4          1           0       -2.107334   -0.551483    0.690848
      5          1           0       -2.130845   -1.012670   -1.016029
      6          6           0        0.604908   -0.512571    0.229290
      7          1           0       -0.384126    1.320183    0.931680
      8          1           0       -0.362361    1.172708   -0.723655
      9          6           0        1.917201    0.086631   -0.209826
     10          1           0        0.564235   -0.903080   -0.486194
     11          1           0        0.855239   -1.389778    1.417473
     12          1           0        1.840166    0.136333   -0.828689
     13          1           0        2.733928   -0.530973   -0.566515
     14          1           0        2.294145    1.098776    0.828527
 ---------------------------------------------------------------------
 Rotational constants (GHZ):     19.6315820      3.4881645      3.2743686
 Leave Link  202 at Wed Aug 26 22:33:27 2020, MaxMem=  2097152000 cpu:         0.1
 (Enter /opt/cluster/programs/g09/g09_d.01/g09/l301.exe)
 Standard basis: def2QZVP (5D, 7F)
 Ernie: Thresh=  0.10000D-02 Tol=  0.10000D-05 Strict=F.
 There are   638 symmetry adapted cartesian basis functions of A   symmetry.
 There are   528 symmetry adapted basis functions of A   symmetry.
   528 basis functions,   748 primitive gaussians,   638 cartesian basis functions
    17 alpha electrons       17 beta electrons
       nuclear repulsion energy       130.6627980180 Hartrees.
 IExCor=  419 DFT=T Ex+Corr=B2PLYPD3 ExCW=0 ScaHFX=  0.530000
 ScaDFX=  0.470000  0.470000  0.730000  0.730000 ScalE2=  0.270000  0.270000
 IRadAn=      0 IRanWt=     -1 IRanGd=            0 ICorTp=0 IEmpDi=141
 NAtoms=   14 NActive=   14 NUniq=   14 SFac= 1.00D+00 NAtFMM=   60 NAOKFM=F Big=F
 Integral buffers will be    131072 words long.
 Regular integral format.
 Two-electron integral symmetry is turned on.
 R6Disp:  Grimme-D3(BJ) Dispersion energy=       -0.0071856202 Hartrees.
 Nuclear repulsion after empirical dispersion term =      130.6556123978 Hartrees.
 Leave Link  301 at Wed Aug 26 22:33:27 2020, MaxMem=  2097152000 cpu:         0.5
 (Enter /opt/cluster/programs/g09/g09_d.01/g09/l302.exe)
 NPDir=0 NMtPBC=     1 NCelOv=     1 NCel=       1 NClECP=     1 NCelD=      1
         NCelK=      1 NCelE2=     1 NClLst=     1 CellRange=     0.0.
 One-electron integrals computed using PRISM.
   1 Symmetry operations used in ECPInt.
 ECPInt:  NShTT=   14196 NPrTT=   30597 LenC2=   13845 LenP2D=   25826.
 LDataN:  DoStor=T MaxTD1= 8 Len=  415
 NBasis=   528 RedAO= T EigKep=  1.87D-05  NBF=   528
 NBsUse=   528 1.00D-06 EigRej= -1.00D+00 NBFU=   528
 Precomputing XC quadrature grid using
 IXCGrd= 4 IRadAn=           0 IRanWt=          -1 IRanGd=           0 AccXCQ= 0.00D+00.
 Generated NRdTot=       0 NPtTot=           0 NUsed=           0 NTot=          32
 NSgBfM=   638   638   638   638   638 MxSgAt=    14 MxSgA2=    14.
 Leave Link  302 at Wed Aug 26 22:33:28 2020, MaxMem=  2097152000 cpu:         4.7
 (Enter /opt/cluster/programs/g09/g09_d.01/g09/l303.exe)
 DipDrv:  MaxL=1.
 Leave Link  303 at Wed Aug 26 22:33:28 2020, MaxMem=  2097152000 cpu:         0.5
 (Enter /opt/cluster/programs/g09/g09_d.01/g09/l401.exe)
 ExpMin= 7.60D-02 ExpMax= 6.70D+04 ExpMxC= 6.47D+02 IAcc=2 IRadAn=         4 AccDes= 0.00D+00
 Harris functional with IExCor=  419 and IRadAn=       4 diagonalized for initial guess.
 HarFok:  IExCor=  419 AccDes= 0.00D+00 IRadAn=         4 IDoV= 1 UseB2=F ITyADJ=14
 ICtDFT=  3500011 ScaDFX=  1.000000  1.000000  1.000000  1.000000
 FoFCou: FMM=F IPFlag=           0 FMFlag=      100000 FMFlg1=           0
         NFxFlg=           0 DoJE=T BraDBF=F KetDBF=T FulRan=T
         wScrn=  0.000000 ICntrl=     500 IOpCl=  0 I1Cent=   200000004 NGrid=           0
         NMat0=    1 NMatS0=      1 NMatT0=    0 NMatD0=    1 NMtDS0=    0 NMtDT0=    0
 Petite list used in FoFCou.
 Harris En= -158.043589568312    
 JPrj=0 DoOrth=F DoCkMO=F.
 Leave Link  401 at Wed Aug 26 22:33:30 2020, MaxMem=  2097152000 cpu:        14.5
 (Enter /opt/cluster/programs/g09/g09_d.01/g09/l502.exe)
 Closed shell SCF:
 Using DIIS extrapolation, IDIIS=  1040.
 Integral symmetry usage will be decided dynamically.
 IVT=     1249338 IEndB=     1249338 NGot=  2097152000 MDV=  2096326985
 LenX=  2096326985 LenY=  2095919303
 Requested convergence on RMS density matrix=1.00D-08 within 128 cycles.
 Requested convergence on MAX density matrix=1.00D-06.
 Requested convergence on             energy=1.00D-06.
 No special actions if energy rises.
 Fock matrices will be formed incrementally for  20 cycles.
 Integral accuracy reduced to 1.0D-05 until final iterations.

 Cycle   1  Pass 0  IDiag  1:
 FoFJK:  IHMeth= 1 ICntrl=       0 DoSepK=F KAlg= 0 I1Cent=   0 FoldK=F
 IRaf= 930000000 NMat=   1 IRICut=       1 DoRegI=T DoRafI=F ISym2E= 0.
 FoFCou: FMM=F IPFlag=           0 FMFlag=      100000 FMFlg1=           0
         NFxFlg=           0 DoJE=F BraDBF=F KetDBF=F FulRan=T
         wScrn=  0.000000 ICntrl=       0 IOpCl=  0 I1Cent=           0 NGrid=           0
         NMat0=    1 NMatS0=      1 NMatT0=    0 NMatD0=    1 NMtDS0=    0 NMtDT0=    0
 Symmetry not used in FoFCou.
 E= -156.845432312133    
 DIIS: error= 3.64D-02 at cycle   1 NSaved=   1.
 NSaved= 1 IEnMin= 1 EnMin= -156.845432312133     IErMin= 1 ErrMin= 3.64D-02
 ErrMax= 3.64D-02  0.00D+00 EMaxC= 1.00D-01 BMatC= 5.99D-01 BMatP= 5.99D-01
 IDIUse=3 WtCom= 6.36D-01 WtEn= 3.64D-01
 Coeff-Com:  0.100D+01
 Coeff-En:   0.100D+01
 Coeff:      0.100D+01
 Gap=     0.298 Goal=   None    Shift=    0.000
 GapD=    0.298 DampG=1.000 DampE=0.500 DampFc=0.5000 IDamp=-1.
 Damping current iteration by 5.00D-01
 RMSDP=1.76D-03 MaxDP=9.86D-02              OVMax= 3.20D-01

 Cycle   2  Pass 0  IDiag  1:
 RMSU=  8.50D-04    CP:  9.30D-01
 E= -157.099613800117     Delta-E=       -0.254181487984 Rises=F Damp=T
 DIIS: error= 7.48D-03 at cycle   2 NSaved=   2.
 NSaved= 2 IEnMin= 2 EnMin= -157.099613800117     IErMin= 2 ErrMin= 7.48D-03
 ErrMax= 7.48D-03  0.00D+00 EMaxC= 1.00D-01 BMatC= 4.12D-02 BMatP= 5.99D-01
 IDIUse=3 WtCom= 9.25D-01 WtEn= 7.48D-02
 Coeff-Com: -0.122D+00 0.112D+01
 Coeff-En:   0.000D+00 0.100D+01
 Coeff:     -0.113D+00 0.111D+01
 Gap=     0.447 Goal=   None    Shift=    0.000
 RMSDP=6.36D-04 MaxDP=4.84D-02 DE=-2.54D-01 OVMax= 2.13D-01

 Cycle   3  Pass 0  IDiag  1:
 RMSU=  4.94D-04    CP:  9.06D-01  5.36D-01
 E= -157.345892124013     Delta-E=       -0.246278323896 Rises=F Damp=F
 DIIS: error= 4.66D-03 at cycle   3 NSaved=   3.
 NSaved= 3 IEnMin= 3 EnMin= -157.345892124013     IErMin= 3 ErrMin= 4.66D-03
 ErrMax= 4.66D-03  0.00D+00 EMaxC= 1.00D-01 BMatC= 6.56D-03 BMatP= 4.12D-02
 IDIUse=3 WtCom= 9.53D-01 WtEn= 4.66D-02
 Coeff-Com: -0.884D-01 0.262D+00 0.827D+00
 Coeff-En:   0.000D+00 0.000D+00 0.100D+01
 Coeff:     -0.843D-01 0.250D+00 0.835D+00
 Gap=     0.374 Goal=   None    Shift=    0.000
 RMSDP=1.12D-04 MaxDP=1.20D-02 DE=-2.46D-01 OVMax= 3.11D-02

 Cycle   4  Pass 0  IDiag  1:
 RMSU=  1.03D-04    CP:  8.99D-01  5.67D-01  1.05D+00
 E= -157.352318770444     Delta-E=       -0.006426646432 Rises=F Damp=F
 DIIS: error= 1.58D-03 at cycle   4 NSaved=   4.
 NSaved= 4 IEnMin= 4 EnMin= -157.352318770444     IErMin= 4 ErrMin= 1.58D-03
 ErrMax= 1.58D-03  0.00D+00 EMaxC= 1.00D-01 BMatC= 1.02D-03 BMatP= 6.56D-03
 IDIUse=3 WtCom= 9.84D-01 WtEn= 1.58D-02
 Coeff-Com: -0.268D-01 0.395D-01 0.340D+00 0.647D+00
 Coeff-En:   0.000D+00 0.000D+00 0.000D+00 0.100D+01
 Coeff:     -0.264D-01 0.389D-01 0.335D+00 0.653D+00
 Gap=     0.378 Goal=   None    Shift=    0.000
 RMSDP=4.35D-05 MaxDP=2.95D-03 DE=-6.43D-03 OVMax= 8.07D-03

 Cycle   5  Pass 0  IDiag  1:
 RMSU=  3.07D-05    CP:  8.99D-01  5.43D-01  1.09D+00  8.48D-01
 E= -157.353316923757     Delta-E=       -0.000998153312 Rises=F Damp=F
 DIIS: error= 2.48D-04 at cycle   5 NSaved=   5.
 NSaved= 5 IEnMin= 5 EnMin= -157.353316923757     IErMin= 5 ErrMin= 2.48D-04
 ErrMax= 2.48D-04  0.00D+00 EMaxC= 1.00D-01 BMatC= 2.91D-05 BMatP= 1.02D-03
 IDIUse=3 WtCom= 9.98D-01 WtEn= 2.48D-03
 Coeff-Com:  0.811D-03-0.980D-02 0.248D-01 0.155D+00 0.829D+00
 Coeff-En:   0.000D+00 0.000D+00 0.000D+00 0.000D+00 0.100D+01
 Coeff:      0.809D-03-0.978D-02 0.247D-01 0.154D+00 0.830D+00
 Gap=     0.378 Goal=   None    Shift=    0.000
 RMSDP=1.29D-05 MaxDP=7.21D-04 DE=-9.98D-04 OVMax= 1.57D-03

 Cycle   6  Pass 0  IDiag  1:
 RMSU=  8.46D-06    CP:  8.99D-01  5.37D-01  1.10D+00  8.96D-01  1.11D+00
 E= -157.353348465580     Delta-E=       -0.000031541823 Rises=F Damp=F
 DIIS: error= 4.36D-05 at cycle   6 NSaved=   6.
 NSaved= 6 IEnMin= 6 EnMin= -157.353348465580     IErMin= 6 ErrMin= 4.36D-05
 ErrMax= 4.36D-05  0.00D+00 EMaxC= 1.00D-01 BMatC= 1.15D-06 BMatP= 2.91D-05
 IDIUse=1 WtCom= 1.00D+00 WtEn= 0.00D+00
 Coeff-Com:  0.166D-02-0.344D-02-0.127D-01-0.178D-01 0.919D-01 0.940D+00
 Coeff:      0.166D-02-0.344D-02-0.127D-01-0.178D-01 0.919D-01 0.940D+00
 Gap=     0.378 Goal=   None    Shift=    0.000
 RMSDP=3.84D-06 MaxDP=1.95D-04 DE=-3.15D-05 OVMax= 5.33D-04

 Initial convergence to 1.0D-05 achieved.  Increase integral accuracy.
 Cycle   7  Pass 1  IDiag  1:
 E= -157.353312885469     Delta-E=        0.000035580111 Rises=F Damp=F
 DIIS: error= 6.22D-05 at cycle   1 NSaved=   1.
 NSaved= 1 IEnMin= 1 EnMin= -157.353312885469     IErMin= 1 ErrMin= 6.22D-05
 ErrMax= 6.22D-05  0.00D+00 EMaxC= 1.00D-01 BMatC= 1.13D-06 BMatP= 1.13D-06
 IDIUse=1 WtCom= 1.00D+00 WtEn= 0.00D+00
 Coeff-Com:  0.100D+01
 Coeff:      0.100D+01
 Gap=     0.378 Goal=   None    Shift=    0.000
 RMSDP=3.84D-06 MaxDP=1.95D-04 DE= 3.56D-05 OVMax= 2.26D-04

 Cycle   8  Pass 1  IDiag  1:
 RMSU=  3.79D-05    CP:  1.00D+00
 E= -157.353313271556     Delta-E=       -0.000000386087 Rises=F Damp=F
 DIIS: error= 1.87D-05 at cycle   2 NSaved=   2.
 NSaved= 2 IEnMin= 2 EnMin= -157.353313271556     IErMin= 2 ErrMin= 1.87D-05
 ErrMax= 1.87D-05  0.00D+00 EMaxC= 1.00D-01 BMatC= 2.10D-07 BMatP= 1.13D-06
 IDIUse=1 WtCom= 1.00D+00 WtEn= 0.00D+00
 Coeff-Com:  0.237D+00 0.763D+00
 Coeff:      0.237D+00 0.763D+00
 Gap=     0.378 Goal=   None    Shift=    0.000
 RMSDP=1.06D-06 MaxDP=7.25D-05 DE=-3.86D-07 OVMax= 1.58D-04

 Cycle   9  Pass 1  IDiag  1:
 RMSU=  7.05D-07    CP:  1.00D+00  1.02D+00
 E= -157.353313425061     Delta-E=       -0.000000153505 Rises=F Damp=F
 DIIS: error= 9.30D-06 at cycle   3 NSaved=   3.
 NSaved= 3 IEnMin= 3 EnMin= -157.353313425061     IErMin= 3 ErrMin= 9.30D-06
 ErrMax= 9.30D-06  0.00D+00 EMaxC= 1.00D-01 BMatC= 4.95D-08 BMatP= 2.10D-07
 IDIUse=1 WtCom= 1.00D+00 WtEn= 0.00D+00
 Coeff-Com: -0.906D-02 0.322D+00 0.687D+00
 Coeff:     -0.906D-02 0.322D+00 0.687D+00
 Gap=     0.378 Goal=   None    Shift=    0.000
 RMSDP=3.84D-07 MaxDP=2.72D-05 DE=-1.54D-07 OVMax= 4.84D-05

 Cycle  10  Pass 1  IDiag  1:
 RMSU=  2.25D-07    CP:  1.00D+00  1.03D+00  8.66D-01
 E= -157.353313471438     Delta-E=       -0.000000046377 Rises=F Damp=F
 DIIS: error= 5.77D-07 at cycle   4 NSaved=   4.
 NSaved= 4 IEnMin= 4 EnMin= -157.353313471438     IErMin= 4 ErrMin= 5.77D-07
 ErrMax= 5.77D-07  0.00D+00 EMaxC= 1.00D-01 BMatC= 1.60D-10 BMatP= 4.95D-08
 IDIUse=1 WtCom= 1.00D+00 WtEn= 0.00D+00
 Coeff-Com: -0.326D-02 0.689D-01 0.153D+00 0.781D+00
 Coeff:     -0.326D-02 0.689D-01 0.153D+00 0.781D+00
 Gap=     0.378 Goal=   None    Shift=    0.000
 RMSDP=3.23D-08 MaxDP=1.58D-06 DE=-4.64D-08 OVMax= 5.24D-06

 Cycle  11  Pass 1  IDiag  1:
 RMSU=  2.44D-08    CP:  1.00D+00  1.03D+00  8.77D-01  1.07D+00
 E= -157.353313471644     Delta-E=       -0.000000000205 Rises=F Damp=F
 DIIS: error= 3.11D-07 at cycle   5 NSaved=   5.
 NSaved= 5 IEnMin= 5 EnMin= -157.353313471644     IErMin= 5 ErrMin= 3.11D-07
 ErrMax= 3.11D-07  0.00D+00 EMaxC= 1.00D-01 BMatC= 3.08D-11 BMatP= 1.60D-10
 IDIUse=1 WtCom= 1.00D+00 WtEn= 0.00D+00
 Coeff-Com:  0.814D-03-0.419D-01-0.885D-01 0.223D+00 0.907D+00
 Coeff:      0.814D-03-0.419D-01-0.885D-01 0.223D+00 0.907D+00
 Gap=     0.378 Goal=   None    Shift=    0.000
 RMSDP=1.80D-08 MaxDP=9.77D-07 DE=-2.05D-10 OVMax= 3.31D-06

 Cycle  12  Pass 1  IDiag  1:
 RMSU=  1.17D-08    CP:  1.00D+00  1.03D+00  8.82D-01  1.12D+00  1.35D+00
 E= -157.353313471682     Delta-E=       -0.000000000038 Rises=F Damp=F
 DIIS: error= 4.41D-08 at cycle   6 NSaved=   6.
 NSaved= 6 IEnMin= 6 EnMin= -157.353313471682     IErMin= 6 ErrMin= 4.41D-08
 ErrMax= 4.41D-08  0.00D+00 EMaxC= 1.00D-01 BMatC= 1.29D-12 BMatP= 3.08D-11
 IDIUse=1 WtCom= 1.00D+00 WtEn= 0.00D+00
 Coeff-Com:  0.376D-03-0.151D-01-0.325D-01 0.316D-01 0.260D+00 0.756D+00
 Coeff:      0.376D-03-0.151D-01-0.325D-01 0.316D-01 0.260D+00 0.756D+00
 Gap=     0.378 Goal=   None    Shift=    0.000
 RMSDP=2.76D-09 MaxDP=1.09D-07 DE=-3.84D-11 OVMax= 4.03D-07

 SCF Done:  E(RB2PLYPD3) =  -157.353313472     A.U. after   12 cycles
            NFock= 12  Conv=0.28D-08     -V/T= 1.9883
 KE= 1.592131036114D+02 PE=-6.269517005930D+02 EE= 1.797296711121D+02
 Leave Link  502 at Wed Aug 26 22:40:21 2020, MaxMem=  2097152000 cpu:      3275.6
 (Enter /opt/cluster/programs/g09/g09_d.01/g09/l801.exe)
 DoSCS=T DFT=T ScalE2(SS,OS)=  0.270000  0.270000
 ExpMin= 7.60D-02 ExpMax= 6.70D+04 ExpMxC= 6.47D+02 IAcc=3 IRadAn=         5 AccDes= 0.00D+00
 HarFok:  IExCor=  205 AccDes= 0.00D+00 IRadAn=         5 IDoV=-2 UseB2=F ITyADJ=14
 ICtDFT= 12500011 ScaDFX=  1.000000  1.000000  1.000000  1.000000
 Largest valence mixing into a core orbital is  1.14D-04
 Largest core mixing into a valence orbital is  1.25D-05
 Range of M.O.s used for correlation:     5   528
 NBasis=   528 NAE=    17 NBE=    17 NFC=     4 NFV=     0
 NROrb=    524 NOA=    13 NOB=    13 NVA=   511 NVB=   511

 **** Warning!!: The largest alpha MO coefficient is  0.31413386D+02

 Leave Link  801 at Wed Aug 26 22:40:21 2020, MaxMem=  2097152000 cpu:         1.1
 (Enter /opt/cluster/programs/g09/g09_d.01/g09/l906.exe)
 DoSCS=T DFT=T ScalE2(SS,OS)=  0.270000  0.270000
 FulOut=F Deriv=F AODrv=F NAtomX=    14
   MMem=         463  MDisk=          13 MDiskD=          13
  W3Min=     4238234 MinDsk=     6904766 NBas6D=         638
 NBas2D=      205689    NTT=      203841    LW2=     4508827
    MDV=  2095905518 MDiskM=        7293 NBas2p=      188775
 Fully direct method using O(OVN) memory.
 IMap=   1   2   3   4   5   6   7   8   9  10  11  12  13
 JobTyp=1 Pass  1:  I=   1 to  13 NPSUse=  8 ParTrn=T ParDer=T DoDerP=F.
 Spin components of T(2) and E(2):
     alpha-alpha T2 =       0.4153139191D-01 E2=     -0.2653823407D-01
     alpha-beta  T2 =       0.2873726933D+00 E2=     -0.1989125339D+00
     beta-beta   T2 =       0.4153139191D-01 E2=     -0.2653823407D-01
 The integrals were generated   1 times.
 E2(B2PLYPD3) =    -0.2519890020D+00 E(B2PLYPD3) =    -0.15760530247371D+03
 Leave Link  906 at Wed Aug 26 22:44:41 2020, MaxMem=  2097152000 cpu:      2074.7
 (Enter /opt/cluster/programs/g09/g09_d.01/g09/l601.exe)
 Copying SCF densities to generalized density rwf, IOpCl= 0 IROHF=0.

 **********************************************************************

            Population analysis using the SCF density.

 **********************************************************************

 Orbital symmetries:
       Occupied  (A) (A) (A) (A) (A) (A) (A) (A) (A) (A) (A) (A)
                 (A) (A) (A) (A) (A)
       Virtual   (A) (A) (A) (A) (A) (A) (A) (A) (A) (A) (A) (A)
                 (A) (A) (A) (A) (A) (A) (A) (A) (A) (A) (A) (A)
                 (A) (A) (A) (A) (A) (A) (A) (A) (A) (A) (A) (A)
                 (A) (A) (A) (A) (A) (A) (A) (A) (A) (A) (A) (A)
                 (A) (A) (A) (A) (A) (A) (A) (A) (A) (A) (A) (A)
                 (A) (A) (A) (A) (A) (A) (A) (A) (A) (A) (A) (A)
                 (A) (A) (A) (A) (A) (A) (A) (A) (A) (A) (A) (A)
                 (A) (A) (A) (A) (A) (A) (A) (A) (A) (A) (A) (A)
                 (A) (A) (A) (A) (A) (A) (A) (A) (A) (A) (A) (A)
                 (A) (A) (A) (A) (A) (A) (A) (A) (A) (A) (A) (A)
                 (A) (A) (A) (A) (A) (A) (A) (A) (A) (A) (A) (A)
                 (A) (A) (A) (A) (A) (A) (A) (A) (A) (A) (A) (A)
                 (A) (A) (A) (A) (A) (A) (A) (A) (A) (A) (A) (A)
                 (A) (A) (A) (A) (A) (A) (A) (A) (A) (A) (A) (A)
                 (A) (A) (A) (A) (A) (A) (A) (A) (A) (A) (A) (A)
                 (A) (A) (A) (A) (A) (A) (A) (A) (A) (A) (A) (A)
                 (A) (A) (A) (A) (A) (A) (A) (A) (A) (A) (A) (A)
                 (A) (A) (A) (A) (A) (A) (A) (A) (A) (A) (A) (A)
                 (A) (A) (A) (A) (A) (A) (A) (A) (A) (A) (A) (A)
                 (A) (A) (A) (A) (A) (A) (A) (A) (A) (A) (A) (A)
                 (A) (A) (A) (A) (A) (A) (A) (A) (A) (A) (A) (A)
                 (A) (A) (A) (A) (A) (A) (A) (A) (A) (A) (A) (A)
                 (A) (A) (A) (A) (A) (A) (A) (A) (A) (A) (A) (A)
                 (A) (A) (A) (A) (A) (A) (A) (A) (A) (A) (A) (A)
                 (A) (A) (A) (A) (A) (A) (A) (A) (A) (A) (A) (A)
                 (A) (A) (A) (A) (A) (A) (A) (A) (A) (A) (A) (A)
                 (A) (A) (A) (A) (A) (A) (A) (A) (A) (A) (A) (A)
                 (A) (A) (A) (A) (A) (A) (A) (A) (A) (A) (A) (A)
                 (A) (A) (A) (A) (A) (A) (A) (A) (A) (A) (A) (A)
                 (A) (A) (A) (A) (A) (A) (A) (A) (A) (A) (A) (A)
                 (A) (A) (A) (A) (A) (A) (A) (A) (A) (A) (A) (A)
                 (A) (A) (A) (A) (A) (A) (A) (A) (A) (A) (A) (A)
                 (A) (A) (A) (A) (A) (A) (A) (A) (A) (A) (A) (A)
                 (A) (A) (A) (A) (A) (A) (A) (A) (A) (A) (A) (A)
                 (A) (A) (A) (A) (A) (A) (A) (A) (A) (A) (A) (A)
                 (A) (A) (A) (A) (A) (A) (A) (A) (A) (A) (A) (A)
                 (A) (A) (A) (A) (A) (A) (A) (A) (A) (A) (A) (A)
                 (A) (A) (A) (A) (A) (A) (A) (A) (A) (A) (A) (A)
                 (A) (A) (A) (A) (A) (A) (A) (A) (A) (A) (A) (A)
                 (A) (A) (A) (A) (A) (A) (A) (A) (A) (A) (A) (A)
                 (A) (A) (A) (A) (A) (A) (A) (A) (A) (A) (A) (A)
                 (A) (A) (A) (A) (A) (A) (A) (A) (A) (A) (A) (A)
                 (A) (A) (A) (A) (A) (A) (A)
 The electronic state is 1-A.
 Alpha  occ. eigenvalues --  -10.62120 -10.61589 -10.59862 -10.58177  -0.96258
 Alpha  occ. eigenvalues --   -0.86952  -0.78801  -0.71446  -0.54386  -0.52613
 Alpha  occ. eigenvalues --   -0.47499  -0.46934  -0.44911  -0.40808  -0.38056
 Alpha  occ. eigenvalues --   -0.37158  -0.33684
 Alpha virt. eigenvalues --    0.04112   0.06269   0.06908   0.07721   0.09519
 Alpha virt. eigenvalues --    0.11006   0.12447   0.13714   0.14309   0.15071
 Alpha virt. eigenvalues --    0.15881   0.17066   0.18048   0.19229   0.20665
 Alpha virt. eigenvalues --    0.22340   0.22745   0.23546   0.25413   0.27435
 Alpha virt. eigenvalues --    0.28406   0.28932   0.30957   0.31608   0.32407
 Alpha virt. eigenvalues --    0.34769   0.35867   0.37132   0.38762   0.39570
 Alpha virt. eigenvalues --    0.42123   0.44010   0.45197   0.45598   0.46105
 Alpha virt. eigenvalues --    0.50220   0.51676   0.54066   0.56141   0.57755
 Alpha virt. eigenvalues --    0.59298   0.61745   0.64177   0.65872   0.67273
 Alpha virt. eigenvalues --    0.68386   0.69279   0.69594   0.70561   0.72596
 Alpha virt. eigenvalues --    0.73147   0.74615   0.74941   0.75879   0.77908
 Alpha virt. eigenvalues --    0.78625   0.80435   0.82187   0.83937   0.85700
 Alpha virt. eigenvalues --    0.86690   0.88178   0.88589   0.90508   0.90979
 Alpha virt. eigenvalues --    0.93356   0.93597   0.94542   0.96136   0.97959
 Alpha virt. eigenvalues --    0.98632   1.00473   1.00837   1.02097   1.03454
 Alpha virt. eigenvalues --    1.04974   1.06716   1.06884   1.09282   1.11407
 Alpha virt. eigenvalues --    1.11633   1.13991   1.14734   1.15002   1.17577
 Alpha virt. eigenvalues --    1.18947   1.19344   1.21034   1.24199   1.25911
 Alpha virt. eigenvalues --    1.28049   1.31719   1.33555   1.35960   1.36136
 Alpha virt. eigenvalues --    1.37063   1.41426   1.41838   1.44767   1.46614
 Alpha virt. eigenvalues --    1.50561   1.53990   1.55636   1.59142   1.61995
 Alpha virt. eigenvalues --    1.66588   1.69284   1.70508   1.73308   1.74554
 Alpha virt. eigenvalues --    1.80165   1.81927   1.85471   1.86449   1.87466
 Alpha virt. eigenvalues --    1.89138   1.91593   1.92455   1.94383   1.95370
 Alpha virt. eigenvalues --    1.96236   1.98208   2.00089   2.00476   2.01553
 Alpha virt. eigenvalues --    2.04271   2.05683   2.06247   2.08128   2.09481
 Alpha virt. eigenvalues --    2.11674   2.12914   2.13011   2.15149   2.16015
 Alpha virt. eigenvalues --    2.16243   2.18259   2.20446   2.21472   2.22224
 Alpha virt. eigenvalues --    2.22995   2.24209   2.25545   2.27188   2.28549
 Alpha virt. eigenvalues --    2.30093   2.31693   2.33741   2.35125   2.35548
 Alpha virt. eigenvalues --    2.37057   2.38241   2.41093   2.42356   2.43635
 Alpha virt. eigenvalues --    2.46435   2.47535   2.49125   2.51544   2.52997
 Alpha virt. eigenvalues --    2.53468   2.53620   2.56233   2.56989   2.58918
 Alpha virt. eigenvalues --    2.59238   2.62799   2.64359   2.65360   2.66158
 Alpha virt. eigenvalues --    2.66662   2.69156   2.70778   2.72619   2.73020
 Alpha virt. eigenvalues --    2.74536   2.75251   2.78210   2.79039   2.80472
 Alpha virt. eigenvalues --    2.81970   2.84845   2.86958   2.89147   2.90664
 Alpha virt. eigenvalues --    2.92110   2.96603   2.97402   2.97787   2.99018
 Alpha virt. eigenvalues --    3.00070   3.05355   3.06730   3.08003   3.10293
 Alpha virt. eigenvalues --    3.11812   3.13822   3.16051   3.17008   3.18177
 Alpha virt. eigenvalues --    3.21869   3.22855   3.23082   3.27306   3.28638
 Alpha virt. eigenvalues --    3.31045   3.33167   3.34413   3.36335   3.41453
 Alpha virt. eigenvalues --    3.41799   3.44400   3.47734   3.50355   3.53196
 Alpha virt. eigenvalues --    3.54481   3.58389   3.59964   3.60932   3.64723
 Alpha virt. eigenvalues --    3.65106   3.67282   3.70126   3.75024   3.78398
 Alpha virt. eigenvalues --    3.80745   3.82095   3.85364   3.87740   3.91498
 Alpha virt. eigenvalues --    3.93653   3.96666   3.98199   4.00177   4.05219
 Alpha virt. eigenvalues --    4.07562   4.09684   4.11025   4.12159   4.20267
 Alpha virt. eigenvalues --    4.20377   4.23282   4.28052   4.34923   4.35837
 Alpha virt. eigenvalues --    4.41004   4.47800   4.48717   4.50309   4.57632
 Alpha virt. eigenvalues --    4.60678   4.65154   4.68206   4.85044   5.01967
 Alpha virt. eigenvalues --    5.09138   5.16691   5.21157   5.26926   5.29684
 Alpha virt. eigenvalues --    5.33754   5.36077   5.41949   5.49520   5.50114
 Alpha virt. eigenvalues --    5.51694   5.54363   5.56851   5.58379   5.60311
 Alpha virt. eigenvalues --    5.64144   5.65114   5.66411   5.67756   5.71008
 Alpha virt. eigenvalues --    5.74250   5.75131   5.76638   5.77526   5.79421
 Alpha virt. eigenvalues --    5.82293   5.83300   5.86094   5.86491   5.91016
 Alpha virt. eigenvalues --    5.91275   5.92165   5.93994   5.97112   5.98304
 Alpha virt. eigenvalues --    6.00067   6.01347   6.02148   6.03938   6.05111
 Alpha virt. eigenvalues --    6.06912   6.09668   6.09918   6.11504   6.12844
 Alpha virt. eigenvalues --    6.15194   6.16368   6.18056   6.21790   6.22842
 Alpha virt. eigenvalues --    6.24221   6.26744   6.27715   6.31147   6.33524
 Alpha virt. eigenvalues --    6.34646   6.34928   6.38701   6.39321   6.42046
 Alpha virt. eigenvalues --    6.45226   6.46865   6.48087   6.51876   6.53554
 Alpha virt. eigenvalues --    6.56502   6.58337   6.59750   6.62800   6.63118
 Alpha virt. eigenvalues --    6.63638   6.65833   6.68436   6.69786   6.73419
 Alpha virt. eigenvalues --    6.74288   6.77008   6.78809   6.81313   6.82761
 Alpha virt. eigenvalues --    6.85619   6.87883   6.88769   6.91099   6.96163
 Alpha virt. eigenvalues --    6.99594   7.00056   7.03555   7.04338   7.04827
 Alpha virt. eigenvalues --    7.06942   7.09758   7.10019   7.12644   7.14223
 Alpha virt. eigenvalues --    7.17444   7.20123   7.21260   7.22445   7.26122
 Alpha virt. eigenvalues --    7.28358   7.30776   7.32698   7.33478   7.38236
 Alpha virt. eigenvalues --    7.40136   7.42424   7.47233   7.48652   7.51526
 Alpha virt. eigenvalues --    7.55873   7.58234   7.59529   7.61271   7.64711
 Alpha virt. eigenvalues --    7.65384   7.69344   7.69863   7.72314   7.74560
 Alpha virt. eigenvalues --    7.76742   7.77226   7.81154   7.83245   7.85207
 Alpha virt. eigenvalues --    7.85729   7.88696   7.91809   7.93488   7.95630
 Alpha virt. eigenvalues --    7.96884   7.99615   7.99934   8.01043   8.03559
 Alpha virt. eigenvalues --    8.04425   8.07422   8.09309   8.12852   8.14711
 Alpha virt. eigenvalues --    8.15429   8.17651   8.19568   8.20856   8.22109
 Alpha virt. eigenvalues --    8.24156   8.25470   8.27543   8.28926   8.29863
 Alpha virt. eigenvalues --    8.33605   8.35011   8.36037   8.38569   8.40893
 Alpha virt. eigenvalues --    8.43124   8.45135   8.48972   8.49118   8.50576
 Alpha virt. eigenvalues --    8.53364   8.54355   8.56558   8.59159   8.60571
 Alpha virt. eigenvalues --    8.61095   8.62081   8.66937   8.69696   8.70832
 Alpha virt. eigenvalues --    8.75982   8.77608   8.78895   8.80016   8.81062
 Alpha virt. eigenvalues --    8.83372   8.85620   8.89745   8.89921   8.91576
 Alpha virt. eigenvalues --    8.94255   8.95364   8.97638   9.01604   9.05141
 Alpha virt. eigenvalues --    9.07140   9.12445   9.13342   9.15966   9.16927
 Alpha virt. eigenvalues --    9.20572   9.22659   9.26472   9.30981   9.34220
 Alpha virt. eigenvalues --    9.38553   9.38683   9.42539   9.45951   9.52141
 Alpha virt. eigenvalues --    9.55832   9.59260   9.63339   9.68167   9.76472
 Alpha virt. eigenvalues --    9.77911   9.78803   9.83575   9.85894   9.91615
 Alpha virt. eigenvalues --    9.93382   9.99233  10.01474  10.05420  10.08810
 Alpha virt. eigenvalues --   10.17005  10.18543  10.27796  10.32390  10.40222
 Alpha virt. eigenvalues --   10.50370  10.75959  10.77622  10.88015  10.93447
 Alpha virt. eigenvalues --   11.02601  11.12508  11.22741  11.25206  11.26824
 Alpha virt. eigenvalues --   11.33667  11.43500  11.46379  11.59824  11.71852
 Alpha virt. eigenvalues --   11.76082  11.83381  11.87794  11.96118  12.04777
 Alpha virt. eigenvalues --   12.13779  12.19767  12.32812  12.82106  12.89720
 Alpha virt. eigenvalues --   13.00857  13.67727  16.63612  29.32699  29.39571
 Alpha virt. eigenvalues --   29.68251  29.97248 149.01823 149.08578 149.45567
 Alpha virt. eigenvalues --  149.72865
          Condensed to atoms (all electrons):
               1          2          3          4          5          6
     1  C    4.723118   0.358596   0.430757   0.445507   0.387649  -0.051370
     2  C    0.358596   4.804788  -0.027952  -0.027301  -0.025541   0.342181
     3  H    0.430757  -0.027952   0.593878  -0.048979  -0.025777   0.006416
     4  H    0.445507  -0.027301  -0.048979   0.514395  -0.017684  -0.007748
     5  H    0.387649  -0.025541  -0.025777  -0.017684   0.647532  -0.002474
     6  C   -0.051370   0.342181   0.006416  -0.007748  -0.002474   5.060020
     7  H   -0.021299   0.388710  -0.002313  -0.001590   0.003968  -0.045301
     8  H   -0.035134   0.394505  -0.002371   0.006290  -0.001137  -0.021936
     9  C    0.007056  -0.060169  -0.000544  -0.000060   0.000144   0.328931
    10  H   -0.004975  -0.037653   0.000241   0.000423   0.001371   0.416160
    11  H   -0.000884  -0.022286  -0.000105   0.001548   0.000271   0.353258
    12  H    0.000458  -0.010592   0.000037  -0.000026  -0.000001  -0.015782
    13  H   -0.000719   0.010969   0.000036  -0.000050  -0.000010  -0.022005
    14  H    0.000421  -0.006283   0.000027   0.000069  -0.000012  -0.051268
               7          8          9         10         11         12
     1  C   -0.021299  -0.035134   0.007056  -0.004975  -0.000884   0.000458
     2  C    0.388710   0.394505  -0.060169  -0.037653  -0.022286  -0.010592
     3  H   -0.002313  -0.002371  -0.000544   0.000241  -0.000105   0.000037
     4  H   -0.001590   0.006290  -0.000060   0.000423   0.001548  -0.000026
     5  H    0.003968  -0.001137   0.000144   0.001371   0.000271  -0.000001
     6  C   -0.045301  -0.021936   0.328931   0.416160   0.353258  -0.015782
     7  H    0.673020  -0.048059  -0.002703   0.009163  -0.000170  -0.000202
     8  H   -0.048059   0.619359  -0.003594  -0.003527   0.003820   0.003208
     9  C   -0.002703  -0.003594   5.608019  -0.081188  -0.045158   0.272859
    10  H    0.009163  -0.003527  -0.081188   0.394166   0.000112  -0.005045
    11  H   -0.000170   0.003820  -0.045158   0.000112   0.684239   0.011961
    12  H   -0.000202   0.003208   0.272859  -0.005045   0.011961   0.205099
    13  H   -0.000808  -0.000298   0.409589  -0.001684  -0.010807  -0.079485
    14  H    0.005681   0.001144   0.322538   0.011632   0.001706   0.028033
              13         14
     1  C   -0.000719   0.000421
     2  C    0.010969  -0.006283
     3  H    0.000036   0.000027
     4  H   -0.000050   0.000069
     5  H   -0.000010  -0.000012
     6  C   -0.022005  -0.051268
     7  H   -0.000808   0.005681
     8  H   -0.000298   0.001144
     9  C    0.409589   0.322538
    10  H   -0.001684   0.011632
    11  H   -0.010807   0.001706
    12  H   -0.079485   0.028033
    13  H    0.660812  -0.021657
    14  H   -0.021657   0.684100
 Mulliken charges:
               1
     1  C   -0.239181
     2  C   -0.081973
     3  H    0.076650
     4  H    0.135205
     5  H    0.031700
     6  C   -0.289081
     7  H    0.041904
     8  H    0.087730
     9  C   -0.755719
    10  H    0.300803
    11  H    0.022493
    12  H    0.589479
    13  H    0.056119
    14  H    0.023870
 Sum of Mulliken charges =   0.00000
 Mulliken charges with hydrogens summed into heavy atoms:
               1
     1  C    0.004375
     2  C    0.047661
     6  C    0.034215
     9  C   -0.086251
 Electronic spatial extent (au):  <R**2>=            441.9256
 Charge=              0.0000 electrons
 Dipole moment (field-independent basis, Debye):
    X=             -0.4012    Y=             -0.0032    Z=             -0.7575  Tot=              0.8571
 Quadrupole moment (field-independent basis, Debye-Ang):
   XX=            -29.2806   YY=            -29.4066   ZZ=            -27.3268
   XY=             -1.0405   XZ=             -1.4295   YZ=              0.8901
 Traceless Quadrupole moment (field-independent basis, Debye-Ang):
   XX=             -0.6093   YY=             -0.7353   ZZ=              1.3446
   XY=             -1.0405   XZ=             -1.4295   YZ=              0.8901
 Octapole moment (field-independent basis, Debye-Ang**2):
  XXX=             -8.7503  YYY=              0.6283  ZZZ=             -3.2482  XYY=             -1.8674
  XXY=             -2.0951  XXZ=             -3.1516  XZZ=              1.2398  YZZ=             -0.4065
  YYZ=             -0.8388  XYZ=              0.9649
 Hexadecapole moment (field-independent basis, Debye-Ang**3):
 XXXX=           -471.5112 YYYY=           -106.4883 ZZZZ=            -66.4701 XXXY=            -10.8991
 XXXZ=            -16.9834 YYYX=             -4.0498 YYYZ=              1.1766 ZZZX=             -6.0757
 ZZZY=              0.8158 XXYY=            -96.5053 XXZZ=            -83.0676 YYZZ=            -25.0523
 XXYZ=              4.1606 YYXZ=              0.9962 ZZXY=             -0.2478
 N-N= 1.306556123978D+02 E-N=-6.269517118516D+02  KE= 1.592131036114D+02
 Leave Link  601 at Wed Aug 26 22:44:43 2020, MaxMem=  2097152000 cpu:         1.1
 (Enter /opt/cluster/programs/g09/g09_d.01/g09/l9999.exe)
 1\1\GINC-NODE34\SP\RB2PLYPD3-FC\def2QZVP\C4H10\BOITTIER\26-Aug-2020\0\
 \#p B2PLYPD3/Def2QZVP\\butane_opt\\0,1\C,0,-4.01677,0.34003,0.145035\C
 ,0,-2.726909,-0.738313,-0.037721\H,0,-4.79498,-0.107473,0.154116\H,0,-
 4.014354,0.749483,-0.616273\H,0,-3.939239,1.137721,1.107184\C,0,-1.353
 85,0.187492,-0.195925\H,0,-2.672602,-1.399118,-0.953612\H,0,-2.611939,
 -1.325195,0.705668\C,0,-0.173405,-0.662867,0.200831\H,0,-1.315827,0.54
 9549,0.534512\H,0,-0.952601,1.049942,-1.353127\H,0,-0.253969,-0.722282
 ,0.818387\H,0,0.746772,-0.223094,0.569043\H,0,0.000582,-1.68477,-0.880
 901\\Version=ES64L-G09RevD.01\State=1-A\HF=-157.3533135\MP2=-157.60530
 25\RMSD=2.758e-09\PG=C01 [X(C4H10)]\\@


 THE MOST INCOMPREHENSIBLE THING ABOUT THE WORLD
 IS THAT IT IS COMPREHENSIBLE. -- A. EINSTEIN
 Job cpu time:       0 days  1 hours 29 minutes 33.9 seconds.
 File lengths (MBytes):  RWF=    152 Int=      0 D2E=      0 Chk=     14 Scr=      1
 Normal termination of Gaussian 09 at Wed Aug 26 22:44:44 2020.
