 Entering Gaussian System, Link 0=/opt/cluster/programs/g09/g09_d.01/g09//g09
 Input=/home/boittier/MDCM/nms_sampling/butane_geom.xyz.dir/energies/butane_opt_1708_energy.com
 Output=/scratch/boittier/butane_opt_1708_energy/butane_opt_1708_energy.out
 Initial command:
 /opt/cluster/programs/g09/g09_d.01/g09/l1.exe "/scratch/boittier/butane_opt_1708_energy/Gau-124344.inp" -scrdir="/scratch/boittier/butane_opt_1708_energy/"
 Entering Link 1 = /opt/cluster/programs/g09/g09_d.01/g09/l1.exe PID=    124345.
  
 Copyright (c) 1988,1990,1992,1993,1995,1998,2003,2009,2013,
            Gaussian, Inc.  All Rights Reserved.
  
 This is part of the Gaussian(R) 09 program.  It is based on
 the Gaussian(R) 03 system (copyright 2003, Gaussian, Inc.),
 the Gaussian(R) 98 system (copyright 1998, Gaussian, Inc.),
 the Gaussian(R) 94 system (copyright 1995, Gaussian, Inc.),
 the Gaussian 92(TM) system (copyright 1992, Gaussian, Inc.),
 the Gaussian 90(TM) system (copyright 1990, Gaussian, Inc.),
 the Gaussian 88(TM) system (copyright 1988, Gaussian, Inc.),
 the Gaussian 86(TM) system (copyright 1986, Carnegie Mellon
 University), and the Gaussian 82(TM) system (copyright 1983,
 Carnegie Mellon University). Gaussian is a federally registered
 trademark of Gaussian, Inc.
  
 This software contains proprietary and confidential information,
 including trade secrets, belonging to Gaussian, Inc.
  
 This software is provided under written license and may be
 used, copied, transmitted, or stored only in accord with that
 written license.
  
 The following legend is applicable only to US Government
 contracts under FAR:
  
                    RESTRICTED RIGHTS LEGEND
  
 Use, reproduction and disclosure by the US Government is
 subject to restrictions as set forth in subparagraphs (a)
 and (c) of the Commercial Computer Software - Restricted
 Rights clause in FAR 52.227-19.
  
 Gaussian, Inc.
 340 Quinnipiac St., Bldg. 40, Wallingford CT 06492
  
  
 ---------------------------------------------------------------
 Warning -- This program may not be used in any manner that
 competes with the business of Gaussian, Inc. or will provide
 assistance to any competitor of Gaussian, Inc.  The licensee
 of this program is prohibited from giving any competitor of
 Gaussian, Inc. access to this program.  By using this program,
 the user acknowledges that Gaussian, Inc. is engaged in the
 business of creating and licensing software in the field of
 computational chemistry and represents and warrants to the
 licensee that it is not a competitor of Gaussian, Inc. and that
 it will not use this program in any manner prohibited above.
 ---------------------------------------------------------------
  

 Cite this work as:
 Gaussian 09, Revision D.01,
 M. J. Frisch, G. W. Trucks, H. B. Schlegel, G. E. Scuseria, 
 M. A. Robb, J. R. Cheeseman, G. Scalmani, V. Barone, B. Mennucci, 
 G. A. Petersson, H. Nakatsuji, M. Caricato, X. Li, H. P. Hratchian, 
 A. F. Izmaylov, J. Bloino, G. Zheng, J. L. Sonnenberg, M. Hada, 
 M. Ehara, K. Toyota, R. Fukuda, J. Hasegawa, M. Ishida, T. Nakajima, 
 Y. Honda, O. Kitao, H. Nakai, T. Vreven, J. A. Montgomery, Jr., 
 J. E. Peralta, F. Ogliaro, M. Bearpark, J. J. Heyd, E. Brothers, 
 K. N. Kudin, V. N. Staroverov, T. Keith, R. Kobayashi, J. Normand, 
 K. Raghavachari, A. Rendell, J. C. Burant, S. S. Iyengar, J. Tomasi, 
 M. Cossi, N. Rega, J. M. Millam, M. Klene, J. E. Knox, J. B. Cross, 
 V. Bakken, C. Adamo, J. Jaramillo, R. Gomperts, R. E. Stratmann, 
 O. Yazyev, A. J. Austin, R. Cammi, C. Pomelli, J. W. Ochterski, 
 R. L. Martin, K. Morokuma, V. G. Zakrzewski, G. A. Voth, 
 P. Salvador, J. J. Dannenberg, S. Dapprich, A. D. Daniels, 
 O. Farkas, J. B. Foresman, J. V. Ortiz, J. Cioslowski, 
 and D. J. Fox, Gaussian, Inc., Wallingford CT, 2013.
 
 ******************************************
 Gaussian 09:  ES64L-G09RevD.01 24-Apr-2013
                26-Aug-2020 
 ******************************************
 %chk=/home/boittier/MDCM/nms_sampling/butane_geom.xyz.dir/butane_opt_1708.chk
 %nproc=8
 Will use up to    8 processors via shared memory.
 %mem=16000MB
 --------------------
 #p B2PLYPD3/Def2QZVP
 --------------------
 1/38=1/1;
 2/12=2,17=6,18=5,40=1/2;
 3/5=45,7=101,11=9,16=1,25=1,30=1,74=-60/1,2,3;
 4//1;
 5/5=2,38=5/2;
 8/10=1/1;
 9/16=-3/6;
 6/7=2,8=2,9=2,10=2/1;
 99/5=1,9=1/99;
 Leave Link    1 at Wed Aug 26 12:49:24 2020, MaxMem=  2097152000 cpu:         0.2
 (Enter /opt/cluster/programs/g09/g09_d.01/g09/l101.exe)
 ----------
 butane_opt
 ----------
 Symbolic Z-matrix:
 Charge =  0 Multiplicity = 1
 C                    -3.95904   0.26573  -0.11566 
 C                    -2.73894  -0.60504   0.28121 
 H                    -5.16291  -0.61574  -0.78196 
 H                    -3.47486   0.6714   -0.89535 
 H                    -4.41074   1.20009   0.73275 
 C                    -1.38378   0.18832   0.07429 
 H                    -2.57338  -0.97226  -0.40769 
 H                    -2.93238  -1.44983   1.31431 
 C                    -0.12104  -0.70593  -0.11495 
 H                    -1.36284   1.25579   1.29045 
 H                    -1.50365   0.71956  -0.71174 
 H                     0.297    -1.34986   0.69786 
 H                     0.77872  -0.18001  -0.05627 
 H                    -0.24342  -1.53792  -1.20908 
 
 NAtoms=     14 NQM=       14 NQMF=       0 NMMI=      0 NMMIF=      0
                NMic=       0 NMicF=      0.
                    Isotopes and Nuclear Properties:
 (Nuclear quadrupole moments (NQMom) in fm**2, nuclear magnetic moments (NMagM)
  in nuclear magnetons)

  Atom         1           2           3           4           5           6           7           8           9          10
 IAtWgt=          12          12           1           1           1          12           1           1          12           1
 AtmWgt=  12.0000000  12.0000000   1.0078250   1.0078250   1.0078250  12.0000000   1.0078250   1.0078250  12.0000000   1.0078250
 NucSpn=           0           0           1           1           1           0           1           1           0           1
 AtZEff=   0.0000000   0.0000000   0.0000000   0.0000000   0.0000000   0.0000000   0.0000000   0.0000000   0.0000000   0.0000000
 NQMom=    0.0000000   0.0000000   0.0000000   0.0000000   0.0000000   0.0000000   0.0000000   0.0000000   0.0000000   0.0000000
 NMagM=    0.0000000   0.0000000   2.7928460   2.7928460   2.7928460   0.0000000   2.7928460   2.7928460   0.0000000   2.7928460
 AtZNuc=   6.0000000   6.0000000   1.0000000   1.0000000   1.0000000   6.0000000   1.0000000   1.0000000   6.0000000   1.0000000

  Atom        11          12          13          14
 IAtWgt=           1           1           1           1
 AtmWgt=   1.0078250   1.0078250   1.0078250   1.0078250
 NucSpn=           1           1           1           1
 AtZEff=   0.0000000   0.0000000   0.0000000   0.0000000
 NQMom=    0.0000000   0.0000000   0.0000000   0.0000000
 NMagM=    2.7928460   2.7928460   2.7928460   2.7928460
 AtZNuc=   1.0000000   1.0000000   1.0000000   1.0000000
 Leave Link  101 at Wed Aug 26 12:49:24 2020, MaxMem=  2097152000 cpu:         0.5
 (Enter /opt/cluster/programs/g09/g09_d.01/g09/l202.exe)
                          Input orientation:                          
 ---------------------------------------------------------------------
 Center     Atomic      Atomic             Coordinates (Angstroms)
 Number     Number       Type             X           Y           Z
 ---------------------------------------------------------------------
      1          6           0       -3.959039    0.265731   -0.115663
      2          6           0       -2.738942   -0.605042    0.281212
      3          1           0       -5.162906   -0.615736   -0.781956
      4          1           0       -3.474864    0.671403   -0.895348
      5          1           0       -4.410744    1.200089    0.732754
      6          6           0       -1.383783    0.188321    0.074287
      7          1           0       -2.573376   -0.972260   -0.407693
      8          1           0       -2.932382   -1.449826    1.314308
      9          6           0       -0.121042   -0.705929   -0.114951
     10          1           0       -1.362835    1.255795    1.290452
     11          1           0       -1.503649    0.719557   -0.711738
     12          1           0        0.297004   -1.349859    0.697864
     13          1           0        0.778715   -0.180013   -0.056273
     14          1           0       -0.243418   -1.537921   -1.209076
 ---------------------------------------------------------------------
                    Distance matrix (angstroms):
                    1          2          3          4          5
     1  C    0.000000
     2  C    1.550610   0.000000
     3  H    1.634083   2.646893   0.000000
     4  H    1.003446   1.885520   2.125811   0.000000
     5  H    1.340475   2.501462   2.481394   1.950922   0.000000
     6  C    2.583412   1.583887   3.957453   2.355033   3.258795
     7  H    1.880948   0.798030   2.640615   1.937038   3.065231
     8  H    2.458043   1.348468   3.172580   3.110704   3.089629
     9  C    3.959084   2.649627   5.086592   3.708663   4.770016
    10  H    3.114107   2.524866   4.715723   3.095142   3.099013
    11  H    2.567139   2.065541   3.895908   1.980333   3.281565
    12  H    4.624485   3.153620   5.704334   4.566269   5.354096
    13  H    4.759047   3.559278   6.001611   4.418358   5.427498
    14  H    4.272535   3.052681   5.023367   3.927058   5.351075
                    6          7          8          9         10
     6  C    0.000000
     7  H    1.730429   0.000000
     8  H    2.572807   1.822702   0.000000
     9  C    1.558849   2.484064   3.240339   0.000000
    10  H    1.618332   3.051776   3.128008   2.713958   0.000000
    11  H    0.956250   2.024600   3.294292   2.073588   2.077533
    12  H    2.362179   3.099019   3.289214   1.118068   3.145737
    13  H    2.197524   3.462321   4.154896   1.043836   2.908857
    14  H    2.434618   2.528021   3.688598   1.379962   3.912235
                   11         12         13         14
    11  H    0.000000
    12  H    3.084123   0.000000
    13  H    2.539300   1.472857   0.000000
    14  H    2.632819   1.990940   2.053686   0.000000
 Stoichiometry    C4H10
 Framework group  C1[X(C4H10)]
 Deg. of freedom    36
 Full point group                 C1      NOp   1
 Largest Abelian subgroup         C1      NOp   1
 Largest concise Abelian subgroup C1      NOp   1
                         Standard orientation:                         
 ---------------------------------------------------------------------
 Center     Atomic      Atomic             Coordinates (Angstroms)
 Number     Number       Type             X           Y           Z
 ---------------------------------------------------------------------
      1          6           0       -1.961597    0.106764   -0.160511
      2          6           0       -0.605123   -0.457666    0.335260
      3          1           0       -2.984681   -1.070068   -0.648970
      4          1           0       -1.556893    0.463777   -1.006478
      5          1           0       -2.576793    1.067662    0.543110
      6          6           0        0.584760    0.522344   -0.028690
      7          1           0       -0.374261   -0.893766   -0.291933
      8          1           0       -0.645097   -1.148921    1.492384
      9          6           0        1.988811   -0.150106   -0.109083
     10          1           0        0.409488    1.755306    1.004790
     11          1           0        0.372692    0.892230   -0.884625
     12          1           0        2.514454   -0.571840    0.783057
     13          1           0        2.778519    0.530818   -0.157008
     14          1           0        2.021464   -1.153217   -1.056183
 ---------------------------------------------------------------------
 Rotational constants (GHZ):     19.3177137      3.3984090      3.2346159
 Leave Link  202 at Wed Aug 26 12:49:24 2020, MaxMem=  2097152000 cpu:         0.0
 (Enter /opt/cluster/programs/g09/g09_d.01/g09/l301.exe)
 Standard basis: def2QZVP (5D, 7F)
 Ernie: Thresh=  0.10000D-02 Tol=  0.10000D-05 Strict=F.
 There are   638 symmetry adapted cartesian basis functions of A   symmetry.
 There are   528 symmetry adapted basis functions of A   symmetry.
   528 basis functions,   748 primitive gaussians,   638 cartesian basis functions
    17 alpha electrons       17 beta electrons
       nuclear repulsion energy       125.8761224017 Hartrees.
 IExCor=  419 DFT=T Ex+Corr=B2PLYPD3 ExCW=0 ScaHFX=  0.530000
 ScaDFX=  0.470000  0.470000  0.730000  0.730000 ScalE2=  0.270000  0.270000
 IRadAn=      0 IRanWt=     -1 IRanGd=            0 ICorTp=0 IEmpDi=141
 NAtoms=   14 NActive=   14 NUniq=   14 SFac= 1.00D+00 NAtFMM=   60 NAOKFM=F Big=F
 Integral buffers will be    131072 words long.
 Regular integral format.
 Two-electron integral symmetry is turned on.
 R6Disp:  Grimme-D3(BJ) Dispersion energy=       -0.0074603847 Hartrees.
 Nuclear repulsion after empirical dispersion term =      125.8686620169 Hartrees.
 Leave Link  301 at Wed Aug 26 12:49:24 2020, MaxMem=  2097152000 cpu:         0.5
 (Enter /opt/cluster/programs/g09/g09_d.01/g09/l302.exe)
 NPDir=0 NMtPBC=     1 NCelOv=     1 NCel=       1 NClECP=     1 NCelD=      1
         NCelK=      1 NCelE2=     1 NClLst=     1 CellRange=     0.0.
 One-electron integrals computed using PRISM.
   1 Symmetry operations used in ECPInt.
 ECPInt:  NShTT=   14196 NPrTT=   30597 LenC2=   13778 LenP2D=   25585.
 LDataN:  DoStor=T MaxTD1= 8 Len=  415
 NBasis=   528 RedAO= T EigKep=  2.19D-05  NBF=   528
 NBsUse=   528 1.00D-06 EigRej= -1.00D+00 NBFU=   528
 Precomputing XC quadrature grid using
 IXCGrd= 4 IRadAn=           0 IRanWt=          -1 IRanGd=           0 AccXCQ= 0.00D+00.
 Generated NRdTot=       0 NPtTot=           0 NUsed=           0 NTot=          32
 NSgBfM=   638   638   638   638   638 MxSgAt=    14 MxSgA2=    14.
 Leave Link  302 at Wed Aug 26 12:49:25 2020, MaxMem=  2097152000 cpu:         4.7
 (Enter /opt/cluster/programs/g09/g09_d.01/g09/l303.exe)
 DipDrv:  MaxL=1.
 Leave Link  303 at Wed Aug 26 12:49:25 2020, MaxMem=  2097152000 cpu:         0.5
 (Enter /opt/cluster/programs/g09/g09_d.01/g09/l401.exe)
 ExpMin= 7.60D-02 ExpMax= 6.70D+04 ExpMxC= 6.47D+02 IAcc=2 IRadAn=         4 AccDes= 0.00D+00
 Harris functional with IExCor=  419 and IRadAn=       4 diagonalized for initial guess.
 HarFok:  IExCor=  419 AccDes= 0.00D+00 IRadAn=         4 IDoV= 1 UseB2=F ITyADJ=14
 ICtDFT=  3500011 ScaDFX=  1.000000  1.000000  1.000000  1.000000
 FoFCou: FMM=F IPFlag=           0 FMFlag=      100000 FMFlg1=           0
         NFxFlg=           0 DoJE=T BraDBF=F KetDBF=T FulRan=T
         wScrn=  0.000000 ICntrl=     500 IOpCl=  0 I1Cent=   200000004 NGrid=           0
         NMat0=    1 NMatS0=      1 NMatT0=    0 NMatD0=    1 NMtDS0=    0 NMtDT0=    0
 Petite list used in FoFCou.
 Harris En= -158.226576063680    
 JPrj=0 DoOrth=F DoCkMO=F.
 Leave Link  401 at Wed Aug 26 12:49:26 2020, MaxMem=  2097152000 cpu:        14.7
 (Enter /opt/cluster/programs/g09/g09_d.01/g09/l502.exe)
 Closed shell SCF:
 Using DIIS extrapolation, IDIIS=  1040.
 Integral symmetry usage will be decided dynamically.
 IVT=     1249338 IEndB=     1249338 NGot=  2097152000 MDV=  2096326985
 LenX=  2096326985 LenY=  2095919303
 Requested convergence on RMS density matrix=1.00D-08 within 128 cycles.
 Requested convergence on MAX density matrix=1.00D-06.
 Requested convergence on             energy=1.00D-06.
 No special actions if energy rises.
 Fock matrices will be formed incrementally for  20 cycles.
 Integral accuracy reduced to 1.0D-05 until final iterations.

 Cycle   1  Pass 0  IDiag  1:
 FoFJK:  IHMeth= 1 ICntrl=       0 DoSepK=F KAlg= 0 I1Cent=   0 FoldK=F
 IRaf= 930000000 NMat=   1 IRICut=       1 DoRegI=T DoRafI=F ISym2E= 0.
 FoFCou: FMM=F IPFlag=           0 FMFlag=      100000 FMFlg1=           0
         NFxFlg=           0 DoJE=F BraDBF=F KetDBF=F FulRan=T
         wScrn=  0.000000 ICntrl=       0 IOpCl=  0 I1Cent=           0 NGrid=           0
         NMat0=    1 NMatS0=      1 NMatT0=    0 NMatD0=    1 NMtDS0=    0 NMtDT0=    0
 Symmetry not used in FoFCou.
 E= -157.428023496223    
 DIIS: error= 1.93D-02 at cycle   1 NSaved=   1.
 NSaved= 1 IEnMin= 1 EnMin= -157.428023496223     IErMin= 1 ErrMin= 1.93D-02
 ErrMax= 1.93D-02  0.00D+00 EMaxC= 1.00D-01 BMatC= 3.46D-01 BMatP= 3.46D-01
 IDIUse=3 WtCom= 8.07D-01 WtEn= 1.93D-01
 Coeff-Com:  0.100D+01
 Coeff-En:   0.100D+01
 Coeff:      0.100D+01
 Gap=     0.311 Goal=   None    Shift=    0.000
 GapD=    0.311 DampG=1.000 DampE=0.500 DampFc=0.5000 IDamp=-1.
 Damping current iteration by 5.00D-01
 RMSDP=1.17D-03 MaxDP=7.75D-02              OVMax= 2.40D-01

 Cycle   2  Pass 0  IDiag  1:
 RMSU=  5.58D-04    CP:  9.40D-01
 E= -157.566094550484     Delta-E=       -0.138071054261 Rises=F Damp=T
 DIIS: error= 7.48D-03 at cycle   2 NSaved=   2.
 NSaved= 2 IEnMin= 2 EnMin= -157.566094550484     IErMin= 2 ErrMin= 7.48D-03
 ErrMax= 7.48D-03  0.00D+00 EMaxC= 1.00D-01 BMatC= 3.33D-02 BMatP= 3.46D-01
 IDIUse=3 WtCom= 9.25D-01 WtEn= 7.48D-02
 Coeff-Com: -0.799D-01 0.108D+01
 Coeff-En:   0.154D-01 0.985D+00
 Coeff:     -0.728D-01 0.107D+01
 Gap=     0.411 Goal=   None    Shift=    0.000
 RMSDP=3.47D-04 MaxDP=1.56D-02 DE=-1.38D-01 OVMax= 1.74D-01

 Cycle   3  Pass 0  IDiag  1:
 RMSU=  3.12D-04    CP:  9.31D-01  7.31D-01
 E= -157.714510043315     Delta-E=       -0.148415492831 Rises=F Damp=F
 DIIS: error= 3.47D-03 at cycle   3 NSaved=   3.
 NSaved= 3 IEnMin= 3 EnMin= -157.714510043315     IErMin= 3 ErrMin= 3.47D-03
 ErrMax= 3.47D-03  0.00D+00 EMaxC= 1.00D-01 BMatC= 5.69D-03 BMatP= 3.33D-02
 IDIUse=3 WtCom= 9.65D-01 WtEn= 3.47D-02
 Coeff-Com: -0.111D+00 0.255D+00 0.857D+00
 Coeff-En:   0.000D+00 0.000D+00 0.100D+01
 Coeff:     -0.108D+00 0.246D+00 0.862D+00
 Gap=     0.348 Goal=   None    Shift=    0.000
 RMSDP=9.60D-05 MaxDP=9.15D-03 DE=-1.48D-01 OVMax= 3.20D-02

 Cycle   4  Pass 0  IDiag  1:
 RMSU=  7.40D-05    CP:  9.23D-01  8.32D-01  9.99D-01
 E= -157.720807102540     Delta-E=       -0.006297059224 Rises=F Damp=F
 DIIS: error= 1.04D-03 at cycle   4 NSaved=   4.
 NSaved= 4 IEnMin= 4 EnMin= -157.720807102540     IErMin= 4 ErrMin= 1.04D-03
 ErrMax= 1.04D-03  0.00D+00 EMaxC= 1.00D-01 BMatC= 5.78D-04 BMatP= 5.69D-03
 IDIUse=3 WtCom= 9.90D-01 WtEn= 1.04D-02
 Coeff-Com: -0.384D-01 0.591D-01 0.349D+00 0.631D+00
 Coeff-En:   0.000D+00 0.000D+00 0.000D+00 0.100D+01
 Coeff:     -0.380D-01 0.585D-01 0.345D+00 0.634D+00
 Gap=     0.349 Goal=   None    Shift=    0.000
 RMSDP=2.74D-05 MaxDP=2.68D-03 DE=-6.30D-03 OVMax= 6.37D-03

 Cycle   5  Pass 0  IDiag  1:
 RMSU=  1.97D-05    CP:  9.24D-01  8.14D-01  1.04D+00  8.56D-01
 E= -157.721363353511     Delta-E=       -0.000556250971 Rises=F Damp=F
 DIIS: error= 1.83D-04 at cycle   5 NSaved=   5.
 NSaved= 5 IEnMin= 5 EnMin= -157.721363353511     IErMin= 5 ErrMin= 1.83D-04
 ErrMax= 1.83D-04  0.00D+00 EMaxC= 1.00D-01 BMatC= 2.12D-05 BMatP= 5.78D-04
 IDIUse=3 WtCom= 9.98D-01 WtEn= 1.83D-03
 Coeff-Com: -0.788D-03-0.532D-02 0.303D-01 0.172D+00 0.804D+00
 Coeff-En:   0.000D+00 0.000D+00 0.000D+00 0.000D+00 0.100D+01
 Coeff:     -0.786D-03-0.531D-02 0.302D-01 0.171D+00 0.804D+00
 Gap=     0.349 Goal=   None    Shift=    0.000
 RMSDP=8.02D-06 MaxDP=5.04D-04 DE=-5.56D-04 OVMax= 1.54D-03

 Initial convergence to 1.0D-05 achieved.  Increase integral accuracy.
 Cycle   6  Pass 1  IDiag  1:
 E= -157.721420860254     Delta-E=       -0.000057506744 Rises=F Damp=F
 DIIS: error= 6.00D-05 at cycle   1 NSaved=   1.
 NSaved= 1 IEnMin= 1 EnMin= -157.721420860254     IErMin= 1 ErrMin= 6.00D-05
 ErrMax= 6.00D-05  0.00D+00 EMaxC= 1.00D-01 BMatC= 1.29D-06 BMatP= 1.29D-06
 IDIUse=1 WtCom= 1.00D+00 WtEn= 0.00D+00
 Coeff-Com:  0.100D+01
 Coeff:      0.100D+01
 Gap=     0.349 Goal=   None    Shift=    0.000
 RMSDP=8.02D-06 MaxDP=5.04D-04 DE=-5.75D-05 OVMax= 4.94D-04

 Cycle   7  Pass 1  IDiag  1:
 RMSU=  2.09D-05    CP:  1.00D+00
 E= -157.721421810892     Delta-E=       -0.000000950638 Rises=F Damp=F
 DIIS: error= 3.30D-05 at cycle   2 NSaved=   2.
 NSaved= 2 IEnMin= 2 EnMin= -157.721421810892     IErMin= 2 ErrMin= 3.30D-05
 ErrMax= 3.30D-05  0.00D+00 EMaxC= 1.00D-01 BMatC= 6.06D-07 BMatP= 1.29D-06
 IDIUse=1 WtCom= 1.00D+00 WtEn= 0.00D+00
 Coeff-Com:  0.380D+00 0.620D+00
 Coeff:      0.380D+00 0.620D+00
 Gap=     0.349 Goal=   None    Shift=    0.000
 RMSDP=1.07D-06 MaxDP=8.66D-05 DE=-9.51D-07 OVMax= 3.21D-04

 Cycle   8  Pass 1  IDiag  1:
 RMSU=  9.97D-07    CP:  1.00D+00  1.02D+00
 E= -157.721422418780     Delta-E=       -0.000000607887 Rises=F Damp=F
 DIIS: error= 1.44D-05 at cycle   3 NSaved=   3.
 NSaved= 3 IEnMin= 3 EnMin= -157.721422418780     IErMin= 3 ErrMin= 1.44D-05
 ErrMax= 1.44D-05  0.00D+00 EMaxC= 1.00D-01 BMatC= 6.79D-08 BMatP= 6.06D-07
 IDIUse=1 WtCom= 1.00D+00 WtEn= 0.00D+00
 Coeff-Com: -0.385D-01 0.220D+00 0.818D+00
 Coeff:     -0.385D-01 0.220D+00 0.818D+00
 Gap=     0.349 Goal=   None    Shift=    0.000
 RMSDP=5.10D-07 MaxDP=3.19D-05 DE=-6.08D-07 OVMax= 7.85D-05

 Cycle   9  Pass 1  IDiag  1:
 RMSU=  3.71D-07    CP:  1.00D+00  1.03D+00  9.04D-01
 E= -157.721422501664     Delta-E=       -0.000000082885 Rises=F Damp=F
 DIIS: error= 1.76D-06 at cycle   4 NSaved=   4.
 NSaved= 4 IEnMin= 4 EnMin= -157.721422501664     IErMin= 4 ErrMin= 1.76D-06
 ErrMax= 1.76D-06  0.00D+00 EMaxC= 1.00D-01 BMatC= 1.20D-09 BMatP= 6.79D-08
 IDIUse=1 WtCom= 1.00D+00 WtEn= 0.00D+00
 Coeff-Com: -0.236D-01-0.158D-02 0.888D-01 0.936D+00
 Coeff:     -0.236D-01-0.158D-02 0.888D-01 0.936D+00
 Gap=     0.349 Goal=   None    Shift=    0.000
 RMSDP=9.58D-08 MaxDP=4.77D-06 DE=-8.29D-08 OVMax= 1.77D-05

 Cycle  10  Pass 1  IDiag  1:
 RMSU=  6.72D-08    CP:  1.00D+00  1.04D+00  9.29D-01  1.17D+00
 E= -157.721422504052     Delta-E=       -0.000000002387 Rises=F Damp=F
 DIIS: error= 5.12D-07 at cycle   5 NSaved=   5.
 NSaved= 5 IEnMin= 5 EnMin= -157.721422504052     IErMin= 5 ErrMin= 5.12D-07
 ErrMax= 5.12D-07  0.00D+00 EMaxC= 1.00D-01 BMatC= 1.07D-10 BMatP= 1.20D-09
 IDIUse=1 WtCom= 1.00D+00 WtEn= 0.00D+00
 Coeff-Com: -0.910D-03-0.164D-01-0.478D-01 0.155D+00 0.911D+00
 Coeff:     -0.910D-03-0.164D-01-0.478D-01 0.155D+00 0.911D+00
 Gap=     0.349 Goal=   None    Shift=    0.000
 RMSDP=3.40D-08 MaxDP=2.18D-06 DE=-2.39D-09 OVMax= 5.44D-06

 Cycle  11  Pass 1  IDiag  1:
 RMSU=  1.92D-08    CP:  1.00D+00  1.03D+00  9.35D-01  1.23D+00  1.01D+00
 E= -157.721422504215     Delta-E=       -0.000000000163 Rises=F Damp=F
 DIIS: error= 2.09D-07 at cycle   6 NSaved=   6.
 NSaved= 6 IEnMin= 6 EnMin= -157.721422504215     IErMin= 6 ErrMin= 2.09D-07
 ErrMax= 2.09D-07  0.00D+00 EMaxC= 1.00D-01 BMatC= 2.02D-11 BMatP= 1.07D-10
 IDIUse=1 WtCom= 1.00D+00 WtEn= 0.00D+00
 Coeff-Com:  0.886D-03-0.684D-02-0.248D-01 0.175D-01 0.389D+00 0.624D+00
 Coeff:      0.886D-03-0.684D-02-0.248D-01 0.175D-01 0.389D+00 0.624D+00
 Gap=     0.349 Goal=   None    Shift=    0.000
 RMSDP=5.59D-09 MaxDP=3.26D-07 DE=-1.63D-10 OVMax= 1.24D-06

 SCF Done:  E(RB2PLYPD3) =  -157.721422504     A.U. after   11 cycles
            NFock= 11  Conv=0.56D-08     -V/T= 2.0055
 KE= 1.568511785327D+02 PE=-6.160555749728D+02 EE= 1.756143119190D+02
 Leave Link  502 at Wed Aug 26 12:55:13 2020, MaxMem=  2097152000 cpu:      2765.3
 (Enter /opt/cluster/programs/g09/g09_d.01/g09/l801.exe)
 DoSCS=T DFT=T ScalE2(SS,OS)=  0.270000  0.270000
 ExpMin= 7.60D-02 ExpMax= 6.70D+04 ExpMxC= 6.47D+02 IAcc=3 IRadAn=         5 AccDes= 0.00D+00
 HarFok:  IExCor=  205 AccDes= 0.00D+00 IRadAn=         5 IDoV=-2 UseB2=F ITyADJ=14
 ICtDFT= 12500011 ScaDFX=  1.000000  1.000000  1.000000  1.000000
 Largest valence mixing into a core orbital is  1.24D-04
 Largest core mixing into a valence orbital is  1.81D-05
 Range of M.O.s used for correlation:     5   528
 NBasis=   528 NAE=    17 NBE=    17 NFC=     4 NFV=     0
 NROrb=    524 NOA=    13 NOB=    13 NVA=   511 NVB=   511

 **** Warning!!: The largest alpha MO coefficient is  0.31966142D+02

 Leave Link  801 at Wed Aug 26 12:55:13 2020, MaxMem=  2097152000 cpu:         1.1
 (Enter /opt/cluster/programs/g09/g09_d.01/g09/l906.exe)
 DoSCS=T DFT=T ScalE2(SS,OS)=  0.270000  0.270000
 FulOut=F Deriv=F AODrv=F NAtomX=    14
   MMem=         463  MDisk=          13 MDiskD=          13
  W3Min=     4238234 MinDsk=     6904766 NBas6D=         638
 NBas2D=      205689    NTT=      203841    LW2=     4508827
    MDV=  2095914580 MDiskM=        7293 NBas2p=      187037
 Fully direct method using O(OVN) memory.
 IMap=   1   2   3   4   5   6   7   8   9  10  11  12  13
 JobTyp=1 Pass  1:  I=   1 to  13 NPSUse=  8 ParTrn=T ParDer=T DoDerP=F.
 Spin components of T(2) and E(2):
     alpha-alpha T2 =       0.4551636388D-01 E2=     -0.2683305927D-01
     alpha-beta  T2 =       0.3314290581D+00 E2=     -0.2041146840D+00
     beta-beta   T2 =       0.4551636388D-01 E2=     -0.2683305927D-01
 The integrals were generated   1 times.
 E2(B2PLYPD3) =    -0.2577808025D+00 E(B2PLYPD3) =    -0.15797920330675D+03
 Leave Link  906 at Wed Aug 26 12:59:28 2020, MaxMem=  2097152000 cpu:      2035.4
 (Enter /opt/cluster/programs/g09/g09_d.01/g09/l601.exe)
 Copying SCF densities to generalized density rwf, IOpCl= 0 IROHF=0.

 **********************************************************************

            Population analysis using the SCF density.

 **********************************************************************

 Orbital symmetries:
       Occupied  (A) (A) (A) (A) (A) (A) (A) (A) (A) (A) (A) (A)
                 (A) (A) (A) (A) (A)
       Virtual   (A) (A) (A) (A) (A) (A) (A) (A) (A) (A) (A) (A)
                 (A) (A) (A) (A) (A) (A) (A) (A) (A) (A) (A) (A)
                 (A) (A) (A) (A) (A) (A) (A) (A) (A) (A) (A) (A)
                 (A) (A) (A) (A) (A) (A) (A) (A) (A) (A) (A) (A)
                 (A) (A) (A) (A) (A) (A) (A) (A) (A) (A) (A) (A)
                 (A) (A) (A) (A) (A) (A) (A) (A) (A) (A) (A) (A)
                 (A) (A) (A) (A) (A) (A) (A) (A) (A) (A) (A) (A)
                 (A) (A) (A) (A) (A) (A) (A) (A) (A) (A) (A) (A)
                 (A) (A) (A) (A) (A) (A) (A) (A) (A) (A) (A) (A)
                 (A) (A) (A) (A) (A) (A) (A) (A) (A) (A) (A) (A)
                 (A) (A) (A) (A) (A) (A) (A) (A) (A) (A) (A) (A)
                 (A) (A) (A) (A) (A) (A) (A) (A) (A) (A) (A) (A)
                 (A) (A) (A) (A) (A) (A) (A) (A) (A) (A) (A) (A)
                 (A) (A) (A) (A) (A) (A) (A) (A) (A) (A) (A) (A)
                 (A) (A) (A) (A) (A) (A) (A) (A) (A) (A) (A) (A)
                 (A) (A) (A) (A) (A) (A) (A) (A) (A) (A) (A) (A)
                 (A) (A) (A) (A) (A) (A) (A) (A) (A) (A) (A) (A)
                 (A) (A) (A) (A) (A) (A) (A) (A) (A) (A) (A) (A)
                 (A) (A) (A) (A) (A) (A) (A) (A) (A) (A) (A) (A)
                 (A) (A) (A) (A) (A) (A) (A) (A) (A) (A) (A) (A)
                 (A) (A) (A) (A) (A) (A) (A) (A) (A) (A) (A) (A)
                 (A) (A) (A) (A) (A) (A) (A) (A) (A) (A) (A) (A)
                 (A) (A) (A) (A) (A) (A) (A) (A) (A) (A) (A) (A)
                 (A) (A) (A) (A) (A) (A) (A) (A) (A) (A) (A) (A)
                 (A) (A) (A) (A) (A) (A) (A) (A) (A) (A) (A) (A)
                 (A) (A) (A) (A) (A) (A) (A) (A) (A) (A) (A) (A)
                 (A) (A) (A) (A) (A) (A) (A) (A) (A) (A) (A) (A)
                 (A) (A) (A) (A) (A) (A) (A) (A) (A) (A) (A) (A)
                 (A) (A) (A) (A) (A) (A) (A) (A) (A) (A) (A) (A)
                 (A) (A) (A) (A) (A) (A) (A) (A) (A) (A) (A) (A)
                 (A) (A) (A) (A) (A) (A) (A) (A) (A) (A) (A) (A)
                 (A) (A) (A) (A) (A) (A) (A) (A) (A) (A) (A) (A)
                 (A) (A) (A) (A) (A) (A) (A) (A) (A) (A) (A) (A)
                 (A) (A) (A) (A) (A) (A) (A) (A) (A) (A) (A) (A)
                 (A) (A) (A) (A) (A) (A) (A) (A) (A) (A) (A) (A)
                 (A) (A) (A) (A) (A) (A) (A) (A) (A) (A) (A) (A)
                 (A) (A) (A) (A) (A) (A) (A) (A) (A) (A) (A) (A)
                 (A) (A) (A) (A) (A) (A) (A) (A) (A) (A) (A) (A)
                 (A) (A) (A) (A) (A) (A) (A) (A) (A) (A) (A) (A)
                 (A) (A) (A) (A) (A) (A) (A) (A) (A) (A) (A) (A)
                 (A) (A) (A) (A) (A) (A) (A) (A) (A) (A) (A) (A)
                 (A) (A) (A) (A) (A) (A) (A) (A) (A) (A) (A) (A)
                 (A) (A) (A) (A) (A) (A) (A)
 The electronic state is 1-A.
 Alpha  occ. eigenvalues --  -10.66721 -10.66402 -10.64492 -10.61772  -0.94470
 Alpha  occ. eigenvalues --   -0.83670  -0.73199  -0.68791  -0.53196  -0.49940
 Alpha  occ. eigenvalues --   -0.47946  -0.44932  -0.42321  -0.40259  -0.39001
 Alpha  occ. eigenvalues --   -0.35457  -0.32787
 Alpha virt. eigenvalues --    0.02104   0.03936   0.05007   0.07459   0.08428
 Alpha virt. eigenvalues --    0.09549   0.11244   0.12684   0.13725   0.14533
 Alpha virt. eigenvalues --    0.15175   0.15594   0.17887   0.18799   0.19072
 Alpha virt. eigenvalues --    0.21241   0.21749   0.22487   0.24928   0.26155
 Alpha virt. eigenvalues --    0.27254   0.28986   0.29716   0.30676   0.31300
 Alpha virt. eigenvalues --    0.32828   0.33034   0.34367   0.36341   0.38085
 Alpha virt. eigenvalues --    0.39591   0.39622   0.42907   0.44923   0.45790
 Alpha virt. eigenvalues --    0.46972   0.48216   0.50377   0.53625   0.54699
 Alpha virt. eigenvalues --    0.57937   0.60182   0.61179   0.63409   0.65148
 Alpha virt. eigenvalues --    0.66684   0.67238   0.69099   0.70211   0.70653
 Alpha virt. eigenvalues --    0.71427   0.71734   0.73034   0.73928   0.75522
 Alpha virt. eigenvalues --    0.77787   0.80079   0.81863   0.82807   0.83746
 Alpha virt. eigenvalues --    0.85830   0.87455   0.87725   0.88295   0.90138
 Alpha virt. eigenvalues --    0.91033   0.91556   0.92313   0.93166   0.94667
 Alpha virt. eigenvalues --    0.96855   0.98014   0.98350   0.99044   1.00761
 Alpha virt. eigenvalues --    1.01274   1.02338   1.04219   1.06474   1.07276
 Alpha virt. eigenvalues --    1.07964   1.09644   1.11940   1.13941   1.16622
 Alpha virt. eigenvalues --    1.18579   1.21140   1.21570   1.22273   1.24599
 Alpha virt. eigenvalues --    1.26057   1.27418   1.29140   1.31100   1.33009
 Alpha virt. eigenvalues --    1.33967   1.36383   1.37860   1.38767   1.41100
 Alpha virt. eigenvalues --    1.42417   1.46318   1.47168   1.48781   1.55340
 Alpha virt. eigenvalues --    1.57429   1.61927   1.65187   1.69668   1.71095
 Alpha virt. eigenvalues --    1.77298   1.81504   1.83292   1.84913   1.86560
 Alpha virt. eigenvalues --    1.88475   1.88888   1.90978   1.91680   1.93586
 Alpha virt. eigenvalues --    1.96257   1.96693   1.97069   1.97980   2.00518
 Alpha virt. eigenvalues --    2.01996   2.02291   2.04565   2.06522   2.07612
 Alpha virt. eigenvalues --    2.08554   2.10054   2.10392   2.12164   2.13263
 Alpha virt. eigenvalues --    2.13749   2.15533   2.16401   2.17986   2.19605
 Alpha virt. eigenvalues --    2.20889   2.22319   2.23494   2.25236   2.26050
 Alpha virt. eigenvalues --    2.27090   2.27434   2.30521   2.31691   2.32285
 Alpha virt. eigenvalues --    2.33380   2.34972   2.37394   2.38734   2.39931
 Alpha virt. eigenvalues --    2.40796   2.41989   2.42777   2.44316   2.45395
 Alpha virt. eigenvalues --    2.47319   2.48332   2.49806   2.51616   2.52173
 Alpha virt. eigenvalues --    2.54440   2.55118   2.56099   2.59555   2.60382
 Alpha virt. eigenvalues --    2.60627   2.62422   2.62598   2.64669   2.65884
 Alpha virt. eigenvalues --    2.66980   2.67743   2.70271   2.73001   2.74175
 Alpha virt. eigenvalues --    2.75401   2.77849   2.79090   2.79660   2.80966
 Alpha virt. eigenvalues --    2.82314   2.82951   2.86224   2.88132   2.90593
 Alpha virt. eigenvalues --    2.93425   2.94489   2.95342   2.96569   2.98245
 Alpha virt. eigenvalues --    2.99209   3.00580   3.03768   3.06207   3.08663
 Alpha virt. eigenvalues --    3.09739   3.11427   3.13618   3.13968   3.16041
 Alpha virt. eigenvalues --    3.17605   3.19710   3.22052   3.25556   3.27598
 Alpha virt. eigenvalues --    3.28337   3.30436   3.31902   3.33525   3.35506
 Alpha virt. eigenvalues --    3.37648   3.40630   3.43306   3.46956   3.48381
 Alpha virt. eigenvalues --    3.51267   3.53458   3.55724   3.59024   3.60454
 Alpha virt. eigenvalues --    3.64392   3.65275   3.66011   3.71666   3.74945
 Alpha virt. eigenvalues --    3.79594   3.82359   3.83255   3.85272   3.86948
 Alpha virt. eigenvalues --    3.88513   3.93815   3.96659   3.97696   4.01358
 Alpha virt. eigenvalues --    4.03427   4.06468   4.11108   4.13132   4.17014
 Alpha virt. eigenvalues --    4.20407   4.25039   4.30823   4.35648   4.38736
 Alpha virt. eigenvalues --    4.39630   4.56887   4.76255   4.80411   4.95922
 Alpha virt. eigenvalues --    5.00844   5.03756   5.06773   5.09354   5.16642
 Alpha virt. eigenvalues --    5.18172   5.21272   5.25081   5.27878   5.29657
 Alpha virt. eigenvalues --    5.33464   5.37173   5.39701   5.40874   5.44118
 Alpha virt. eigenvalues --    5.49739   5.53057   5.56193   5.58411   5.62205
 Alpha virt. eigenvalues --    5.63105   5.64371   5.68557   5.71307   5.74234
 Alpha virt. eigenvalues --    5.76053   5.76646   5.78523   5.82595   5.83575
 Alpha virt. eigenvalues --    5.85611   5.88102   5.88663   5.89250   5.90286
 Alpha virt. eigenvalues --    5.90599   5.91963   5.93455   5.94306   5.96661
 Alpha virt. eigenvalues --    5.97289   5.98053   5.99458   6.01150   6.01736
 Alpha virt. eigenvalues --    6.02795   6.05467   6.07320   6.08136   6.09726
 Alpha virt. eigenvalues --    6.10927   6.12472   6.14025   6.16477   6.17208
 Alpha virt. eigenvalues --    6.18705   6.21858   6.23574   6.24783   6.26819
 Alpha virt. eigenvalues --    6.28130   6.30334   6.34208   6.34933   6.36861
 Alpha virt. eigenvalues --    6.37107   6.40177   6.40367   6.42260   6.45917
 Alpha virt. eigenvalues --    6.47527   6.49220   6.52202   6.55390   6.57043
 Alpha virt. eigenvalues --    6.57556   6.59044   6.62805   6.64248   6.65672
 Alpha virt. eigenvalues --    6.68431   6.68815   6.72063   6.75035   6.78170
 Alpha virt. eigenvalues --    6.79262   6.80464   6.82125   6.83272   6.88111
 Alpha virt. eigenvalues --    6.89696   6.92831   6.94547   6.95555   6.99287
 Alpha virt. eigenvalues --    7.01133   7.01655   7.03674   7.04889   7.06245
 Alpha virt. eigenvalues --    7.07822   7.10481   7.11738   7.13403   7.14784
 Alpha virt. eigenvalues --    7.18100   7.20285   7.22325   7.23170   7.26258
 Alpha virt. eigenvalues --    7.28491   7.30440   7.32033   7.33799   7.35987
 Alpha virt. eigenvalues --    7.38944   7.39736   7.41179   7.45184   7.45328
 Alpha virt. eigenvalues --    7.49376   7.52494   7.54432   7.54662   7.56348
 Alpha virt. eigenvalues --    7.60115   7.61513   7.65989   7.68736   7.70775
 Alpha virt. eigenvalues --    7.74170   7.78043   7.79032   7.83747   7.84806
 Alpha virt. eigenvalues --    7.85610   7.85652   7.88003   7.89146   7.92663
 Alpha virt. eigenvalues --    7.93861   7.94640   7.96809   7.98338   8.00081
 Alpha virt. eigenvalues --    8.05282   8.05586   8.06411   8.08318   8.10820
 Alpha virt. eigenvalues --    8.12732   8.13796   8.15280   8.16676   8.17797
 Alpha virt. eigenvalues --    8.19878   8.21969   8.22909   8.23038   8.24402
 Alpha virt. eigenvalues --    8.26564   8.26972   8.28346   8.31499   8.32965
 Alpha virt. eigenvalues --    8.34039   8.36315   8.37211   8.39188   8.41457
 Alpha virt. eigenvalues --    8.43134   8.46084   8.49868   8.50907   8.51928
 Alpha virt. eigenvalues --    8.54331   8.56228   8.57952   8.60896   8.62862
 Alpha virt. eigenvalues --    8.65436   8.68549   8.69324   8.71548   8.72667
 Alpha virt. eigenvalues --    8.77888   8.78935   8.79377   8.80953   8.85420
 Alpha virt. eigenvalues --    8.87448   8.89935   8.91651   8.92076   8.92899
 Alpha virt. eigenvalues --    8.93595   8.97407   8.98539   9.01643   9.04699
 Alpha virt. eigenvalues --    9.05749   9.07089   9.11573   9.14207   9.17860
 Alpha virt. eigenvalues --    9.19596   9.23888   9.26336   9.29735   9.32812
 Alpha virt. eigenvalues --    9.35386   9.36809   9.42199   9.45530   9.47032
 Alpha virt. eigenvalues --    9.53020   9.56652   9.64968   9.66134   9.78620
 Alpha virt. eigenvalues --    9.80186   9.85066   9.95830   9.98160  10.01304
 Alpha virt. eigenvalues --   10.01650  10.08161  10.19054  10.35805  10.41840
 Alpha virt. eigenvalues --   10.47527  10.65620  10.68472  10.73937  10.77145
 Alpha virt. eigenvalues --   10.78585  10.84223  10.95756  11.06526  11.17182
 Alpha virt. eigenvalues --   11.22530  11.65941  11.84345  11.87220  12.05116
 Alpha virt. eigenvalues --   12.21269  12.87580  13.12960  28.88249  29.05304
 Alpha virt. eigenvalues --   29.27294  29.40428 148.51284 148.70127 148.92089
 Alpha virt. eigenvalues --  149.09410
          Condensed to atoms (all electrons):
               1          2          3          4          5          6
     1  C    4.834567   0.338964   0.347157   0.378251   0.385382  -0.048845
     2  C    0.338964   5.150865  -0.027470  -0.065048  -0.031581   0.351662
     3  H    0.347157  -0.027470   0.725743  -0.023449  -0.020897   0.007770
     4  H    0.378251  -0.065048  -0.023449   0.661514  -0.028411  -0.017217
     5  H    0.385382  -0.031581  -0.020897  -0.028411   0.629429  -0.001038
     6  C   -0.048845   0.351662   0.007770  -0.017217  -0.001038   4.907751
     7  H   -0.021957   0.388943  -0.004275  -0.013689   0.007128  -0.075061
     8  H   -0.036359   0.370372  -0.001905   0.010000  -0.002105  -0.025441
     9  C    0.005221  -0.044275  -0.000534   0.000436  -0.000017   0.369218
    10  H    0.003707  -0.046333  -0.000337   0.000154   0.003851   0.330358
    11  H   -0.009323  -0.030767  -0.000026   0.003603   0.000528   0.402280
    12  H    0.000107  -0.004656  -0.000019  -0.000078   0.000015  -0.024829
    13  H   -0.000540   0.006137   0.000028   0.000070   0.000001  -0.038807
    14  H    0.000163  -0.000185   0.000029   0.000075   0.000004  -0.040093
               7          8          9         10         11         12
     1  C   -0.021957  -0.036359   0.005221   0.003707  -0.009323   0.000107
     2  C    0.388943   0.370372  -0.044275  -0.046333  -0.030767  -0.004656
     3  H   -0.004275  -0.001905  -0.000534  -0.000337  -0.000026  -0.000019
     4  H   -0.013689   0.010000   0.000436   0.000154   0.003603  -0.000078
     5  H    0.007128  -0.002105  -0.000017   0.003851   0.000528   0.000015
     6  C   -0.075061  -0.025441   0.369218   0.330358   0.402280  -0.024829
     7  H    0.369698  -0.014585  -0.005572   0.014290  -0.010853  -0.000094
     8  H   -0.014585   0.655823  -0.000412  -0.003193   0.005557   0.001417
     9  C   -0.005572  -0.000412   4.706198  -0.021025  -0.038647   0.392249
    10  H    0.014290  -0.003193  -0.021025   0.786202  -0.024378  -0.002045
    11  H   -0.010853   0.005557  -0.038647  -0.024378   0.583737   0.006710
    12  H   -0.000094   0.001417   0.392249  -0.002045   0.006710   0.677850
    13  H   -0.000311   0.000001   0.397607  -0.003778  -0.005546  -0.061704
    14  H    0.004859  -0.000106   0.370700   0.005297  -0.003908  -0.026330
              13         14
     1  C   -0.000540   0.000163
     2  C    0.006137  -0.000185
     3  H    0.000028   0.000029
     4  H    0.000070   0.000075
     5  H    0.000001   0.000004
     6  C   -0.038807  -0.040093
     7  H   -0.000311   0.004859
     8  H    0.000001  -0.000106
     9  C    0.397607   0.370700
    10  H   -0.003778   0.005297
    11  H   -0.005546  -0.003908
    12  H   -0.061704  -0.026330
    13  H    0.655067  -0.015700
    14  H   -0.015700   0.682461
 Mulliken charges:
               1
     1  C   -0.176494
     2  C   -0.356628
     3  H   -0.001816
     4  H    0.093790
     5  H    0.057709
     6  C   -0.097706
     7  H    0.361478
     8  H    0.040935
     9  C   -0.131147
    10  H   -0.042771
    11  H    0.121034
    12  H    0.041407
    13  H    0.067474
    14  H    0.022735
 Sum of Mulliken charges =   0.00000
 Mulliken charges with hydrogens summed into heavy atoms:
               1
     1  C   -0.026812
     2  C    0.045785
     6  C   -0.019443
     9  C    0.000470
 Electronic spatial extent (au):  <R**2>=            461.0397
 Charge=              0.0000 electrons
 Dipole moment (field-independent basis, Debye):
    X=              0.9606    Y=             -0.1552    Z=             -0.5318  Tot=              1.1089
 Quadrupole moment (field-independent basis, Debye-Ang):
   XX=            -30.6779   YY=            -31.0443   ZZ=            -29.7684
   XY=             -1.0176   XZ=             -0.0190   YZ=             -0.1449
 Traceless Quadrupole moment (field-independent basis, Debye-Ang):
   XX=             -0.1811   YY=             -0.5474   ZZ=              0.7285
   XY=             -1.0176   XZ=             -0.0190   YZ=             -0.1449
 Octapole moment (field-independent basis, Debye-Ang**2):
  XXX=             17.4896  YYY=             -2.2991  ZZZ=             -1.2256  XYY=             -0.5155
  XXY=              2.0090  XXZ=              4.0945  XZZ=              0.8484  YZZ=             -1.0675
  YYZ=             -1.0788  XYZ=             -0.8893
 Hexadecapole moment (field-independent basis, Debye-Ang**3):
 XXXX=           -515.4166 YYYY=           -120.1937 ZZZZ=            -79.7307 XXXY=             -3.2895
 XXXZ=              5.0293 YYYX=             -4.4017 YYYZ=             -1.7203 ZZZX=             -1.5530
 ZZZY=             -5.2657 XXYY=           -101.3530 XXZZ=           -101.9360 YYZZ=            -29.5413
 XXYZ=              3.4220 YYXZ=             -2.9585 ZZXY=             -2.2024
 N-N= 1.258686620169D+02 E-N=-6.160555366271D+02  KE= 1.568511785327D+02
 Leave Link  601 at Wed Aug 26 12:59:29 2020, MaxMem=  2097152000 cpu:         1.1
 (Enter /opt/cluster/programs/g09/g09_d.01/g09/l9999.exe)
 1\1\GINC-NODE37\SP\RB2PLYPD3-FC\def2QZVP\C4H10\BOITTIER\26-Aug-2020\0\
 \#p B2PLYPD3/Def2QZVP\\butane_opt\\0,1\C,0,-3.959039,0.265731,-0.11566
 3\C,0,-2.738942,-0.605042,0.281212\H,0,-5.162906,-0.615736,-0.781956\H
 ,0,-3.474864,0.671403,-0.895348\H,0,-4.410744,1.200089,0.732754\C,0,-1
 .383783,0.188321,0.074287\H,0,-2.573376,-0.97226,-0.407693\H,0,-2.9323
 82,-1.449826,1.314308\C,0,-0.121042,-0.705929,-0.114951\H,0,-1.362835,
 1.255795,1.290452\H,0,-1.503649,0.719557,-0.711738\H,0,0.297004,-1.349
 859,0.697864\H,0,0.778715,-0.180013,-0.056273\H,0,-0.243418,-1.537921,
 -1.209076\\Version=ES64L-G09RevD.01\State=1-A\HF=-157.7214225\MP2=-157
 .9792033\RMSD=5.589e-09\PG=C01 [X(C4H10)]\\@


 HAPPINESS IS NOT HAVING WHAT YOU WANT --
 HAPPINESS IS WANTING WHAT YOU HAVE!

              -- FROM MRS. SEVERN'S DESK
 Job cpu time:       0 days  1 hours 20 minutes 24.5 seconds.
 File lengths (MBytes):  RWF=    152 Int=      0 D2E=      0 Chk=     14 Scr=      1
 Normal termination of Gaussian 09 at Wed Aug 26 12:59:30 2020.
