 Entering Gaussian System, Link 0=/opt/cluster/programs/g09/g09_d.01/g09//g09
 Input=/home/boittier/MDCM/big_basis_set/cyanomethane/cyanomethane_opt_freq.com
 Output=/scratch/boittier/cyanomethane_opt_freq/cyanomethane_opt_freq.out
 Initial command:
 /opt/cluster/programs/g09/g09_d.01/g09/l1.exe "/scratch/boittier/cyanomethane_opt_freq/Gau-178920.inp" -scrdir="/scratch/boittier/cyanomethane_opt_freq/"
 Entering Link 1 = /opt/cluster/programs/g09/g09_d.01/g09/l1.exe PID=    178921.
  
 Copyright (c) 1988,1990,1992,1993,1995,1998,2003,2009,2013,
            Gaussian, Inc.  All Rights Reserved.
  
 This is part of the Gaussian(R) 09 program.  It is based on
 the Gaussian(R) 03 system (copyright 2003, Gaussian, Inc.),
 the Gaussian(R) 98 system (copyright 1998, Gaussian, Inc.),
 the Gaussian(R) 94 system (copyright 1995, Gaussian, Inc.),
 the Gaussian 92(TM) system (copyright 1992, Gaussian, Inc.),
 the Gaussian 90(TM) system (copyright 1990, Gaussian, Inc.),
 the Gaussian 88(TM) system (copyright 1988, Gaussian, Inc.),
 the Gaussian 86(TM) system (copyright 1986, Carnegie Mellon
 University), and the Gaussian 82(TM) system (copyright 1983,
 Carnegie Mellon University). Gaussian is a federally registered
 trademark of Gaussian, Inc.
  
 This software contains proprietary and confidential information,
 including trade secrets, belonging to Gaussian, Inc.
  
 This software is provided under written license and may be
 used, copied, transmitted, or stored only in accord with that
 written license.
  
 The following legend is applicable only to US Government
 contracts under FAR:
  
                    RESTRICTED RIGHTS LEGEND
  
 Use, reproduction and disclosure by the US Government is
 subject to restrictions as set forth in subparagraphs (a)
 and (c) of the Commercial Computer Software - Restricted
 Rights clause in FAR 52.227-19.
  
 Gaussian, Inc.
 340 Quinnipiac St., Bldg. 40, Wallingford CT 06492
  
  
 ---------------------------------------------------------------
 Warning -- This program may not be used in any manner that
 competes with the business of Gaussian, Inc. or will provide
 assistance to any competitor of Gaussian, Inc.  The licensee
 of this program is prohibited from giving any competitor of
 Gaussian, Inc. access to this program.  By using this program,
 the user acknowledges that Gaussian, Inc. is engaged in the
 business of creating and licensing software in the field of
 computational chemistry and represents and warrants to the
 licensee that it is not a competitor of Gaussian, Inc. and that
 it will not use this program in any manner prohibited above.
 ---------------------------------------------------------------
  

 Cite this work as:
 Gaussian 09, Revision D.01,
 M. J. Frisch, G. W. Trucks, H. B. Schlegel, G. E. Scuseria, 
 M. A. Robb, J. R. Cheeseman, G. Scalmani, V. Barone, B. Mennucci, 
 G. A. Petersson, H. Nakatsuji, M. Caricato, X. Li, H. P. Hratchian, 
 A. F. Izmaylov, J. Bloino, G. Zheng, J. L. Sonnenberg, M. Hada, 
 M. Ehara, K. Toyota, R. Fukuda, J. Hasegawa, M. Ishida, T. Nakajima, 
 Y. Honda, O. Kitao, H. Nakai, T. Vreven, J. A. Montgomery, Jr., 
 J. E. Peralta, F. Ogliaro, M. Bearpark, J. J. Heyd, E. Brothers, 
 K. N. Kudin, V. N. Staroverov, T. Keith, R. Kobayashi, J. Normand, 
 K. Raghavachari, A. Rendell, J. C. Burant, S. S. Iyengar, J. Tomasi, 
 M. Cossi, N. Rega, J. M. Millam, M. Klene, J. E. Knox, J. B. Cross, 
 V. Bakken, C. Adamo, J. Jaramillo, R. Gomperts, R. E. Stratmann, 
 O. Yazyev, A. J. Austin, R. Cammi, C. Pomelli, J. W. Ochterski, 
 R. L. Martin, K. Morokuma, V. G. Zakrzewski, G. A. Voth, 
 P. Salvador, J. J. Dannenberg, S. Dapprich, A. D. Daniels, 
 O. Farkas, J. B. Foresman, J. V. Ortiz, J. Cioslowski, 
 and D. J. Fox, Gaussian, Inc., Wallingford CT, 2013.
 
 ******************************************
 Gaussian 09:  ES64L-G09RevD.01 24-Apr-2013
                20-Aug-2020 
 ******************************************
 %chk=cyanomethane_opt.chk
 %nproc=8
 Will use up to    8 processors via shared memory.
 %mem=16GB
 -------------------------------------
 #p B2PLYPD3/Def2QZVP opt freq=NoRaman
 -------------------------------------
 1/18=20,19=15,38=1/1,3;
 2/9=110,12=2,17=6,18=5,40=1/2;
 3/5=45,7=101,11=9,16=1,25=1,30=1,71=1,74=-60/1,2,3;
 4//1;
 5/5=2,38=5/2;
 8/6=4,10=1/1;
 9/15=2,16=-3/6;
 10/5=1/2;
 6/7=2,8=2,9=2,10=2/1;
 7/12=2/1,2,3,16;
 1/18=20,19=15/3(2);
 2/9=110/2;
 99//99;
 2/9=110/2;
 3/5=45,7=101,11=9,16=1,25=1,30=1,71=1,74=-60/1,2,3;
 4/5=5,16=3,69=1/1;
 5/5=2,38=5/2;
 8/6=4,10=1/1;
 9/15=2,16=-3/6;
 10/5=1/2;
 7/12=2/1,2,3,16;
 1/18=20,19=15/3(-8);
 2/9=110/2;
 6/7=2,8=2,9=2,10=2/1;
 99//99;
 Leave Link    1 at Thu Aug 20 12:33:36 2020, MaxMem=  2147483648 cpu:         0.3
 (Enter /opt/cluster/programs/g09/g09_d.01/g09/l101.exe)
 ----------------
 cyanomethane_opt
 ----------------
 Symbolic Z-matrix:
 Charge =  0 Multiplicity = 1
 C                    -6.59773  -0.99261   1.15181 
 C                    -5.2532   -0.54796   0.87784 
 N                    -4.17307  -0.8886    0.76896 
 H                    -6.65502  -1.2154    2.21632 
 H                    -6.60222  -1.94978   0.6245 
 H                    -7.47481  -0.43803   0.83372 
 
 NAtoms=      6 NQM=        6 NQMF=       0 NMMI=      0 NMMIF=      0
                NMic=       0 NMicF=      0.
                    Isotopes and Nuclear Properties:
 (Nuclear quadrupole moments (NQMom) in fm**2, nuclear magnetic moments (NMagM)
  in nuclear magnetons)

  Atom         1           2           3           4           5           6
 IAtWgt=          12          12          14           1           1           1
 AtmWgt=  12.0000000  12.0000000  14.0030740   1.0078250   1.0078250   1.0078250
 NucSpn=           0           0           2           1           1           1
 AtZEff=   0.0000000   0.0000000   0.0000000   0.0000000   0.0000000   0.0000000
 NQMom=    0.0000000   0.0000000   2.0440000   0.0000000   0.0000000   0.0000000
 NMagM=    0.0000000   0.0000000   0.4037610   2.7928460   2.7928460   2.7928460
 AtZNuc=   6.0000000   6.0000000   7.0000000   1.0000000   1.0000000   1.0000000
 Leave Link  101 at Thu Aug 20 12:33:37 2020, MaxMem=  2147483648 cpu:         2.2
 (Enter /opt/cluster/programs/g09/g09_d.01/g09/l103.exe)

 GradGradGradGradGradGradGradGradGradGradGradGradGradGradGradGradGradGrad
 Berny optimization.
 Initialization pass.
                           ----------------------------
                           !    Initial Parameters    !
                           ! (Angstroms and Degrees)  !
 --------------------------                            --------------------------
 ! Name  Definition              Value          Derivative Info.                !
 --------------------------------------------------------------------------------
 ! R1    R(1,2)                  1.4424         estimate D2E/DX2                !
 ! R2    R(1,4)                  1.0891         estimate D2E/DX2                !
 ! R3    R(1,5)                  1.0928         estimate D2E/DX2                !
 ! R4    R(1,6)                  1.0854         estimate D2E/DX2                !
 ! R5    R(2,3)                  1.1378         estimate D2E/DX2                !
 ! A1    A(2,1,4)              107.3225         estimate D2E/DX2                !
 ! A2    A(2,1,5)              100.497          estimate D2E/DX2                !
 ! A3    A(2,1,6)              122.6894         estimate D2E/DX2                !
 ! A4    A(4,1,5)              106.9925         estimate D2E/DX2                !
 ! A5    A(4,1,6)              110.3942         estimate D2E/DX2                !
 ! A6    A(5,1,6)              107.6261         estimate D2E/DX2                !
 ! A7    A(1,2,3)              144.173          estimate D2E/DX2                !
 ! D1    D(4,1,2,3)             73.4488         estimate D2E/DX2                !
 ! D2    D(5,1,2,3)            -38.2133         estimate D2E/DX2                !
 ! D3    D(6,1,2,3)           -157.2139         estimate D2E/DX2                !
 --------------------------------------------------------------------------------
 Trust Radius=3.00D-01 FncErr=1.00D-07 GrdErr=1.00D-07
 Number of steps in this run=     25 maximum allowed number of steps=    100.
 GradGradGradGradGradGradGradGradGradGradGradGradGradGradGradGradGradGrad

 Leave Link  103 at Thu Aug 20 12:33:37 2020, MaxMem=  2147483648 cpu:         0.1
 (Enter /opt/cluster/programs/g09/g09_d.01/g09/l202.exe)
                          Input orientation:                          
 ---------------------------------------------------------------------
 Center     Atomic      Atomic             Coordinates (Angstroms)
 Number     Number       Type             X           Y           Z
 ---------------------------------------------------------------------
      1          6           0       -6.597730   -0.992610    1.151810
      2          6           0       -5.253200   -0.547960    0.877840
      3          7           0       -4.173070   -0.888600    0.768960
      4          1           0       -6.655020   -1.215400    2.216320
      5          1           0       -6.602220   -1.949780    0.624500
      6          1           0       -7.474810   -0.438030    0.833720
 ---------------------------------------------------------------------
                    Distance matrix (angstroms):
                    1          2          3          4          5
     1  C    0.000000
     2  C    1.442406   0.000000
     3  N    2.456902   1.137792   0.000000
     4  H    1.089082   2.049903   2.891665   0.000000
     5  H    1.092818   1.961921   2.654758   1.753851   0.000000
     6  H    1.085361   2.224766   3.332971   1.785481   1.758003
                    6
     6  H    0.000000
 Stoichiometry    C2H3N
 Framework group  C1[X(C2H3N)]
 Deg. of freedom    12
 Full point group                 C1      NOp   1
 Largest Abelian subgroup         C1      NOp   1
 Largest concise Abelian subgroup C1      NOp   1
                         Standard orientation:                         
 ---------------------------------------------------------------------
 Center     Atomic      Atomic             Coordinates (Angstroms)
 Number     Number       Type             X           Y           Z
 ---------------------------------------------------------------------
      1          6           0        1.117562    0.042888    0.000882
      2          6           0       -0.283067   -0.301412    0.016041
      3          7           0       -1.337978    0.124215   -0.007944
      4          1           0        1.359807    0.458945    0.977772
      5          1           0        1.110424    0.874810   -0.707713
      6          1           0        1.888648   -0.652114   -0.315990
 ---------------------------------------------------------------------
 Rotational constants (GHZ):    117.5873389     10.3481985     10.1092493
 Leave Link  202 at Thu Aug 20 12:33:37 2020, MaxMem=  2147483648 cpu:         0.0
 (Enter /opt/cluster/programs/g09/g09_d.01/g09/l301.exe)
 Standard basis: def2QZVP (5D, 7F)
 Ernie: Thresh=  0.10000D-02 Tol=  0.10000D-05 Strict=F.
 There are   321 symmetry adapted cartesian basis functions of A   symmetry.
 There are   261 symmetry adapted basis functions of A   symmetry.
   261 basis functions,   390 primitive gaussians,   321 cartesian basis functions
    11 alpha electrons       11 beta electrons
       nuclear repulsion energy        59.8146274609 Hartrees.
 IExCor=  419 DFT=T Ex+Corr=B2PLYPD3 ExCW=0 ScaHFX=  0.530000
 ScaDFX=  0.470000  0.470000  0.730000  0.730000 ScalE2=  0.270000  0.270000
 IRadAn=      0 IRanWt=     -1 IRanGd=            0 ICorTp=0 IEmpDi=141
 NAtoms=    6 NActive=    6 NUniq=    6 SFac= 1.00D+00 NAtFMM=   60 NAOKFM=F Big=F
 Integral buffers will be    131072 words long.
 Regular integral format.
 Two-electron integral symmetry is turned on.
 R6Disp:  Grimme-D3(BJ) Dispersion energy=       -0.0021485976 Hartrees.
 Nuclear repulsion after empirical dispersion term =       59.8124788633 Hartrees.
 Leave Link  301 at Thu Aug 20 12:33:37 2020, MaxMem=  2147483648 cpu:         0.4
 (Enter /opt/cluster/programs/g09/g09_d.01/g09/l302.exe)
 NPDir=0 NMtPBC=     1 NCelOv=     1 NCel=       1 NClECP=     1 NCelD=      1
         NCelK=      1 NCelE2=     1 NClLst=     1 CellRange=     0.0.
 One-electron integrals computed using PRISM.
   1 Symmetry operations used in ECPInt.
 ECPInt:  NShTT=    3321 NPrTT=    8136 LenC2=    3304 LenP2D=    7187.
 LDataN:  DoStor=T MaxTD1= 8 Len=  415
 NBasis=   261 RedAO= T EigKep=  7.74D-05  NBF=   261
 NBsUse=   261 1.00D-06 EigRej= -1.00D+00 NBFU=   261
 Precomputing XC quadrature grid using
 IXCGrd= 4 IRadAn=           0 IRanWt=          -1 IRanGd=           0 AccXCQ= 0.00D+00.
 Generated NRdTot=       0 NPtTot=           0 NUsed=           0 NTot=          32
 NSgBfM=   321   321   321   321   321 MxSgAt=     6 MxSgA2=     6.
 Leave Link  302 at Thu Aug 20 12:33:37 2020, MaxMem=  2147483648 cpu:         1.9
 (Enter /opt/cluster/programs/g09/g09_d.01/g09/l303.exe)
 DipDrv:  MaxL=1.
 Leave Link  303 at Thu Aug 20 12:33:37 2020, MaxMem=  2147483648 cpu:         0.2
 (Enter /opt/cluster/programs/g09/g09_d.01/g09/l401.exe)
 ExpMin= 7.60D-02 ExpMax= 9.07D+04 ExpMxC= 8.76D+02 IAcc=2 IRadAn=         4 AccDes= 0.00D+00
 Harris functional with IExCor=  419 and IRadAn=       4 diagonalized for initial guess.
 HarFok:  IExCor=  419 AccDes= 0.00D+00 IRadAn=         4 IDoV= 1 UseB2=F ITyADJ=14
 ICtDFT=  3500011 ScaDFX=  1.000000  1.000000  1.000000  1.000000
 FoFCou: FMM=F IPFlag=           0 FMFlag=      100000 FMFlg1=           0
         NFxFlg=           0 DoJE=T BraDBF=F KetDBF=T FulRan=T
         wScrn=  0.000000 ICntrl=     500 IOpCl=  0 I1Cent=   200000004 NGrid=           0
         NMat0=    1 NMatS0=      1 NMatT0=    0 NMatD0=    1 NMtDS0=    0 NMtDT0=    0
 Petite list used in FoFCou.
 Harris En= -132.836402707273    
 JPrj=0 DoOrth=F DoCkMO=F.
 Leave Link  401 at Thu Aug 20 12:33:38 2020, MaxMem=  2147483648 cpu:         3.6
 (Enter /opt/cluster/programs/g09/g09_d.01/g09/l502.exe)
 Closed shell SCF:
 Using DIIS extrapolation, IDIIS=  1040.
 Integral symmetry usage will be decided dynamically.
 Keep R1 ints in memory in canonical form, NReq=601554820.
 IVT=      332521 IEndB=      332521 NGot=  2147483648 MDV=  1562621792
 LenX=  1562621792 LenY=  1562518310
 Requested convergence on RMS density matrix=1.00D-08 within 128 cycles.
 Requested convergence on MAX density matrix=1.00D-06.
 Requested convergence on             energy=1.00D-06.
 No special actions if energy rises.
 FoFCou: FMM=F IPFlag=           0 FMFlag=           0 FMFlg1=           0
         NFxFlg=           0 DoJE=F BraDBF=F KetDBF=F FulRan=T
         wScrn=  0.000000 ICntrl=     600 IOpCl=  0 I1Cent=           0 NGrid=           0
         NMat0=    1 NMatS0=  34191 NMatT0=    0 NMatD0=    1 NMtDS0=    0 NMtDT0=    0
 Symmetry not used in FoFCou.
 Integral accuracy reduced to 1.0D-05 until final iterations.

 Cycle   1  Pass 0  IDiag  1:
 E= -132.393990640136    
 DIIS: error= 2.49D-02 at cycle   1 NSaved=   1.
 NSaved= 1 IEnMin= 1 EnMin= -132.393990640136     IErMin= 1 ErrMin= 2.49D-02
 ErrMax= 2.49D-02  0.00D+00 EMaxC= 1.00D-01 BMatC= 1.97D-01 BMatP= 1.97D-01
 IDIUse=3 WtCom= 7.51D-01 WtEn= 2.49D-01
 Coeff-Com:  0.100D+01
 Coeff-En:   0.100D+01
 Coeff:      0.100D+01
 Gap=     0.404 Goal=   None    Shift=    0.000
 GapD=    0.404 DampG=2.000 DampE=0.500 DampFc=1.0000 IDamp=-1.
 RMSDP=1.32D-03 MaxDP=7.41D-02              OVMax= 1.58D-01

 Cycle   2  Pass 0  IDiag  1:
 E= -132.429119329596     Delta-E=       -0.035128689460 Rises=F Damp=F
 DIIS: error= 2.08D-02 at cycle   2 NSaved=   2.
 NSaved= 2 IEnMin= 2 EnMin= -132.429119329596     IErMin= 2 ErrMin= 2.08D-02
 ErrMax= 2.08D-02  0.00D+00 EMaxC= 1.00D-01 BMatC= 9.94D-02 BMatP= 1.97D-01
 IDIUse=3 WtCom= 7.92D-01 WtEn= 2.08D-01
 Coeff-Com:  0.399D+00 0.601D+00
 Coeff-En:   0.397D+00 0.603D+00
 Coeff:      0.399D+00 0.601D+00
 Gap=     0.438 Goal=   None    Shift=    0.000
 RMSDP=7.66D-04 MaxDP=3.58D-02 DE=-3.51D-02 OVMax= 1.26D-01

 Cycle   3  Pass 0  IDiag  1:
 E= -132.498183119903     Delta-E=       -0.069063790307 Rises=F Damp=F
 DIIS: error= 9.85D-03 at cycle   3 NSaved=   3.
 NSaved= 3 IEnMin= 3 EnMin= -132.498183119903     IErMin= 3 ErrMin= 9.85D-03
 ErrMax= 9.85D-03  0.00D+00 EMaxC= 1.00D-01 BMatC= 1.96D-02 BMatP= 9.94D-02
 IDIUse=3 WtCom= 9.01D-01 WtEn= 9.85D-02
 Coeff-Com:  0.981D-01 0.320D+00 0.582D+00
 Coeff-En:   0.000D+00 0.108D+00 0.892D+00
 Coeff:      0.884D-01 0.299D+00 0.613D+00
 Gap=     0.408 Goal=   None    Shift=    0.000
 RMSDP=2.61D-04 MaxDP=9.50D-03 DE=-6.91D-02 OVMax= 5.78D-02

 Cycle   4  Pass 0  IDiag  1:
 E= -132.511820412840     Delta-E=       -0.013637292937 Rises=F Damp=F
 DIIS: error= 3.82D-03 at cycle   4 NSaved=   4.
 NSaved= 4 IEnMin= 4 EnMin= -132.511820412840     IErMin= 4 ErrMin= 3.82D-03
 ErrMax= 3.82D-03  0.00D+00 EMaxC= 1.00D-01 BMatC= 2.87D-03 BMatP= 1.96D-02
 IDIUse=3 WtCom= 9.62D-01 WtEn= 3.82D-02
 Coeff-Com: -0.124D-01 0.552D-01 0.324D+00 0.633D+00
 Coeff-En:   0.000D+00 0.000D+00 0.130D+00 0.870D+00
 Coeff:     -0.119D-01 0.531D-01 0.317D+00 0.642D+00
 Gap=     0.409 Goal=   None    Shift=    0.000
 RMSDP=8.33D-05 MaxDP=2.80D-03 DE=-1.36D-02 OVMax= 1.47D-02

 Cycle   5  Pass 0  IDiag  1:
 E= -132.514288570539     Delta-E=       -0.002468157700 Rises=F Damp=F
 DIIS: error= 3.30D-04 at cycle   5 NSaved=   5.
 NSaved= 5 IEnMin= 5 EnMin= -132.514288570539     IErMin= 5 ErrMin= 3.30D-04
 ErrMax= 3.30D-04  0.00D+00 EMaxC= 1.00D-01 BMatC= 1.25D-05 BMatP= 2.87D-03
 IDIUse=3 WtCom= 9.97D-01 WtEn= 3.30D-03
 Coeff-Com: -0.396D-02 0.552D-02 0.535D-01 0.147D+00 0.798D+00
 Coeff-En:   0.000D+00 0.000D+00 0.000D+00 0.000D+00 0.100D+01
 Coeff:     -0.395D-02 0.550D-02 0.533D-01 0.146D+00 0.799D+00
 Gap=     0.409 Goal=   None    Shift=    0.000
 RMSDP=8.46D-06 MaxDP=3.47D-04 DE=-2.47D-03 OVMax= 1.23D-03

 Initial convergence to 1.0D-05 achieved.  Increase integral accuracy.
 Cycle   6  Pass 1  IDiag  1:
 E= -132.514307777788     Delta-E=       -0.000019207249 Rises=F Damp=F
 DIIS: error= 6.24D-05 at cycle   1 NSaved=   1.
 NSaved= 1 IEnMin= 1 EnMin= -132.514307777788     IErMin= 1 ErrMin= 6.24D-05
 ErrMax= 6.24D-05  0.00D+00 EMaxC= 1.00D-01 BMatC= 8.15D-07 BMatP= 8.15D-07
 IDIUse=1 WtCom= 1.00D+00 WtEn= 0.00D+00
 Coeff-Com:  0.100D+01
 Coeff:      0.100D+01
 Gap=     0.409 Goal=   None    Shift=    0.000
 RMSDP=8.46D-06 MaxDP=3.47D-04 DE=-1.92D-05 OVMax= 4.52D-04

 Cycle   7  Pass 1  IDiag  1:
 E= -132.514308599955     Delta-E=       -0.000000822167 Rises=F Damp=F
 DIIS: error= 5.60D-05 at cycle   2 NSaved=   2.
 NSaved= 2 IEnMin= 2 EnMin= -132.514308599955     IErMin= 2 ErrMin= 5.60D-05
 ErrMax= 5.60D-05  0.00D+00 EMaxC= 1.00D-01 BMatC= 3.85D-07 BMatP= 8.15D-07
 IDIUse=1 WtCom= 1.00D+00 WtEn= 0.00D+00
 Coeff-Com:  0.391D+00 0.609D+00
 Coeff:      0.391D+00 0.609D+00
 Gap=     0.409 Goal=   None    Shift=    0.000
 RMSDP=1.24D-06 MaxDP=5.09D-05 DE=-8.22D-07 OVMax= 2.56D-04

 Cycle   8  Pass 1  IDiag  1:
 E= -132.514308967053     Delta-E=       -0.000000367098 Rises=F Damp=F
 DIIS: error= 1.96D-05 at cycle   3 NSaved=   3.
 NSaved= 3 IEnMin= 3 EnMin= -132.514308967053     IErMin= 3 ErrMin= 1.96D-05
 ErrMax= 1.96D-05  0.00D+00 EMaxC= 1.00D-01 BMatC= 5.56D-08 BMatP= 3.85D-07
 IDIUse=1 WtCom= 1.00D+00 WtEn= 0.00D+00
 Coeff-Com:  0.682D-01 0.251D+00 0.681D+00
 Coeff:      0.682D-01 0.251D+00 0.681D+00
 Gap=     0.409 Goal=   None    Shift=    0.000
 RMSDP=6.96D-07 MaxDP=2.75D-05 DE=-3.67D-07 OVMax= 1.37D-04

 Cycle   9  Pass 1  IDiag  1:
 E= -132.514309029783     Delta-E=       -0.000000062730 Rises=F Damp=F
 DIIS: error= 1.17D-05 at cycle   4 NSaved=   4.
 NSaved= 4 IEnMin= 4 EnMin= -132.514309029783     IErMin= 4 ErrMin= 1.17D-05
 ErrMax= 1.17D-05  0.00D+00 EMaxC= 1.00D-01 BMatC= 1.90D-08 BMatP= 5.56D-08
 IDIUse=1 WtCom= 1.00D+00 WtEn= 0.00D+00
 Coeff-Com: -0.129D+00-0.103D+00 0.421D+00 0.812D+00
 Coeff:     -0.129D+00-0.103D+00 0.421D+00 0.812D+00
 Gap=     0.409 Goal=   None    Shift=    0.000
 RMSDP=5.32D-07 MaxDP=2.04D-05 DE=-6.27D-08 OVMax= 1.17D-04

 Cycle  10  Pass 1  IDiag  1:
 E= -132.514309064202     Delta-E=       -0.000000034419 Rises=F Damp=F
 DIIS: error= 2.28D-06 at cycle   5 NSaved=   5.
 NSaved= 5 IEnMin= 5 EnMin= -132.514309064202     IErMin= 5 ErrMin= 2.28D-06
 ErrMax= 2.28D-06  0.00D+00 EMaxC= 1.00D-01 BMatC= 5.62D-10 BMatP= 1.90D-08
 IDIUse=1 WtCom= 1.00D+00 WtEn= 0.00D+00
 Coeff-Com: -0.142D-01-0.282D-01-0.323D-01 0.440D-01 0.103D+01
 Coeff:     -0.142D-01-0.282D-01-0.323D-01 0.440D-01 0.103D+01
 Gap=     0.409 Goal=   None    Shift=    0.000
 RMSDP=1.30D-07 MaxDP=5.33D-06 DE=-3.44D-08 OVMax= 3.23D-05

 Cycle  11  Pass 1  IDiag  1:
 E= -132.514309066325     Delta-E=       -0.000000002123 Rises=F Damp=F
 DIIS: error= 7.13D-07 at cycle   6 NSaved=   6.
 NSaved= 6 IEnMin= 6 EnMin= -132.514309066325     IErMin= 6 ErrMin= 7.13D-07
 ErrMax= 7.13D-07  0.00D+00 EMaxC= 1.00D-01 BMatC= 1.09D-10 BMatP= 5.62D-10
 IDIUse=1 WtCom= 1.00D+00 WtEn= 0.00D+00
 Coeff-Com:  0.195D-01 0.112D-01-0.809D-01-0.130D+00 0.286D+00 0.895D+00
 Coeff:      0.195D-01 0.112D-01-0.809D-01-0.130D+00 0.286D+00 0.895D+00
 Gap=     0.409 Goal=   None    Shift=    0.000
 RMSDP=5.63D-08 MaxDP=1.93D-06 DE=-2.12D-09 OVMax= 1.09D-05

 Cycle  12  Pass 1  IDiag  1:
 E= -132.514309066574     Delta-E=       -0.000000000249 Rises=F Damp=F
 DIIS: error= 1.31D-07 at cycle   7 NSaved=   7.
 NSaved= 7 IEnMin= 7 EnMin= -132.514309066574     IErMin= 7 ErrMin= 1.31D-07
 ErrMax= 1.31D-07  0.00D+00 EMaxC= 1.00D-01 BMatC= 2.33D-12 BMatP= 1.09D-10
 IDIUse=1 WtCom= 1.00D+00 WtEn= 0.00D+00
 Coeff-Com:  0.139D-02 0.161D-02-0.485D-04-0.961D-02-0.447D-01 0.272D-01
 Coeff-Com:  0.102D+01
 Coeff:      0.139D-02 0.161D-02-0.485D-04-0.961D-02-0.447D-01 0.272D-01
 Coeff:      0.102D+01
 Gap=     0.409 Goal=   None    Shift=    0.000
 RMSDP=1.04D-08 MaxDP=5.09D-07 DE=-2.49D-10 OVMax= 1.72D-06

 Cycle  13  Pass 1  IDiag  1:
 E= -132.514309066579     Delta-E=       -0.000000000004 Rises=F Damp=F
 DIIS: error= 4.02D-08 at cycle   8 NSaved=   8.
 NSaved= 8 IEnMin= 8 EnMin= -132.514309066579     IErMin= 8 ErrMin= 4.02D-08
 ErrMax= 4.02D-08  0.00D+00 EMaxC= 1.00D-01 BMatC= 2.18D-13 BMatP= 2.33D-12
 IDIUse=1 WtCom= 1.00D+00 WtEn= 0.00D+00
 Coeff-Com: -0.874D-03-0.324D-03 0.540D-02 0.565D-02-0.267D-01-0.460D-01
 Coeff-Com:  0.215D+00 0.848D+00
 Coeff:     -0.874D-03-0.324D-03 0.540D-02 0.565D-02-0.267D-01-0.460D-01
 Coeff:      0.215D+00 0.848D+00
 Gap=     0.409 Goal=   None    Shift=    0.000
 RMSDP=2.04D-09 MaxDP=6.99D-08 DE=-4.49D-12 OVMax= 2.43D-07

 SCF Done:  E(RB2PLYPD3) =  -132.514309067     A.U. after   13 cycles
            NFock= 13  Conv=0.20D-08     -V/T= 2.0023
 KE= 1.322155467434D+02 PE=-4.283657748369D+02 EE= 1.038234401636D+02
 Leave Link  502 at Thu Aug 20 12:34:01 2020, MaxMem=  2147483648 cpu:        98.4
 (Enter /opt/cluster/programs/g09/g09_d.01/g09/l801.exe)
 DoSCS=T DFT=T ScalE2(SS,OS)=  0.270000  0.270000
 ExpMin= 7.60D-02 ExpMax= 9.07D+04 ExpMxC= 8.76D+02 IAcc=3 IRadAn=         5 AccDes= 0.00D+00
 HarFok:  IExCor=  205 AccDes= 0.00D+00 IRadAn=         5 IDoV=-2 UseB2=F ITyADJ=14
 ICtDFT= 12500011 ScaDFX=  1.000000  1.000000  1.000000  1.000000
 Largest valence mixing into a core orbital is  1.14D-04
 Largest core mixing into a valence orbital is  1.81D-05
 Range of M.O.s used for correlation:     4   261
 NBasis=   261 NAE=    11 NBE=    11 NFC=     3 NFV=     0
 NROrb=    258 NOA=     8 NOB=     8 NVA=   250 NVB=   250

 **** Warning!!: The largest alpha MO coefficient is  0.22287756D+02

 Leave Link  801 at Thu Aug 20 12:34:01 2020, MaxMem=  2147483648 cpu:         0.6
 (Enter /opt/cluster/programs/g09/g09_d.01/g09/l906.exe)
 DoSCS=T DFT=T ScalE2(SS,OS)=  0.270000  0.270000
 Frozen-core derivative calculation, NFC=   3 NFV=   0.
 FulOut=F Deriv=T AODrv=T NAtomX=     6
   MMem=         126  MDisk=           8 MDiskD=           8
  W3Min=      921591 MinDsk=     2062991 NBas6D=         321
 NBas2D=       52689    NTT=       51681    LW2=     9246618
    MDV=  2146733229 MDiskM=       14847 NBas2p=       52437
 Fully direct method using O(ONN) memory.
 IMap=   1   2   3   4   5   6   7   8   9  10  11
 JobTyp=1 Pass  1:  I=   4 to  11 NPSUse=  8 ParTrn=T ParDer=T DoDerP=T.
 Spin components of T(2) and E(2):
     alpha-alpha T2 =       0.3534922392D-01 E2=     -0.2139576485D-01
     alpha-beta  T2 =       0.2098741337D+00 E2=     -0.1378803360D+00
     beta-beta   T2 =       0.3534922392D-01 E2=     -0.2139576485D-01
 The integrals were generated   1 times.
 E2(B2PLYPD3) =    -0.1806718657D+00 E(B2PLYPD3) =    -0.13269498093224D+03
 Leave Link  906 at Thu Aug 20 12:34:42 2020, MaxMem=  2147483648 cpu:       330.5
 (Enter /opt/cluster/programs/g09/g09_d.01/g09/l1002.exe)
 Minotr:  Closed shell wavefunction.
          Computing MP2/KS-MP2 derivatives.
          Using Z-Vector for PSCF gradient.
          Skipping F1 and S1 gradient terms here.
          IDoAtm=111111
          Frozen-core window.
          Direct CPHF calculation.
          Differentiating once with respect to electric field.
                with respect to dipole field.
          Differentiating once with respect to nuclear coordinates.
          Requested convergence is 1.0D-10 RMS, and 1.0D-09 maximum.
          NewPWx=F KeepS1=T KeepF1=T KeepIn=T MapXYZ=F SortEE=F KeepMc=T.
          MDV=    2147483326 using IRadAn=       0.
 Using stored XC quadrature information.
 Keep R1 ints in memory in canonical form, NReq=601224195.
 FoFCou: FMM=F IPFlag=           0 FMFlag=           0 FMFlg1=           0
         NFxFlg=           0 DoJE=F BraDBF=F KetDBF=F FulRan=T
         wScrn=  0.000000 ICntrl=     600 IOpCl=  0 I1Cent=           0 NGrid=           0
         NMat0=    1 NMatS0=  34191 NMatT0=    0 NMatD0=    1 NMtDS0=    0 NMtDT0=    0
 Symmetry not used in FoFCou.
          Solving linear equations separately, MaxMat=       0.
          There are     1 degrees of freedom in the 1st order CPHF.  IDoFFX=0 NUNeed=     1.
 LinEq1:  Iter=  0 NonCon=     1 RMS=1.41D-03 Max=1.53D-02 NDo=     1
 AX will form     1 AO Fock derivatives at one time.
 LinEq1:  Iter=  1 NonCon=     1 RMS=5.43D-04 Max=5.38D-03 NDo=     1
 LinEq1:  Iter=  2 NonCon=     1 RMS=2.19D-04 Max=3.82D-03 NDo=     1
 LinEq1:  Iter=  3 NonCon=     1 RMS=2.09D-04 Max=4.41D-03 NDo=     1
 LinEq1:  Iter=  4 NonCon=     1 RMS=5.84D-05 Max=9.49D-04 NDo=     1
 LinEq1:  Iter=  5 NonCon=     1 RMS=2.13D-05 Max=2.34D-04 NDo=     1
 LinEq1:  Iter=  6 NonCon=     1 RMS=6.69D-06 Max=7.81D-05 NDo=     1
 LinEq1:  Iter=  7 NonCon=     1 RMS=1.41D-06 Max=1.87D-05 NDo=     1
 LinEq1:  Iter=  8 NonCon=     1 RMS=3.33D-07 Max=3.46D-06 NDo=     1
 LinEq1:  Iter=  9 NonCon=     1 RMS=5.06D-08 Max=5.74D-07 NDo=     1
 LinEq1:  Iter= 10 NonCon=     1 RMS=8.60D-09 Max=1.02D-07 NDo=     1
 LinEq1:  Iter= 11 NonCon=     1 RMS=1.82D-09 Max=3.09D-08 NDo=     1
 LinEq1:  Iter= 12 NonCon=     1 RMS=4.25D-10 Max=6.81D-09 NDo=     1
 LinEq1:  Iter= 13 NonCon=     0 RMS=7.97D-11 Max=7.57D-10 NDo=     1
 Linear equations converged to 1.000D-10 1.000D-09 after    13 iterations.
 End of Minotr F.D. properties file   721 does not exist.
 End of Minotr F.D. properties file   722 does not exist.
 End of Minotr F.D. properties file   788 does not exist.
 Leave Link 1002 at Thu Aug 20 12:35:12 2020, MaxMem=  2147483648 cpu:       133.7
 (Enter /opt/cluster/programs/g09/g09_d.01/g09/l601.exe)
 Copying SCF densities to generalized density rwf, IOpCl= 0 IROHF=0.

 **********************************************************************

            Population analysis using the SCF density.

 **********************************************************************

 Orbital symmetries:
       Occupied  (A) (A) (A) (A) (A) (A) (A) (A) (A) (A) (A)
       Virtual   (A) (A) (A) (A) (A) (A) (A) (A) (A) (A) (A) (A)
                 (A) (A) (A) (A) (A) (A) (A) (A) (A) (A) (A) (A)
                 (A) (A) (A) (A) (A) (A) (A) (A) (A) (A) (A) (A)
                 (A) (A) (A) (A) (A) (A) (A) (A) (A) (A) (A) (A)
                 (A) (A) (A) (A) (A) (A) (A) (A) (A) (A) (A) (A)
                 (A) (A) (A) (A) (A) (A) (A) (A) (A) (A) (A) (A)
                 (A) (A) (A) (A) (A) (A) (A) (A) (A) (A) (A) (A)
                 (A) (A) (A) (A) (A) (A) (A) (A) (A) (A) (A) (A)
                 (A) (A) (A) (A) (A) (A) (A) (A) (A) (A) (A) (A)
                 (A) (A) (A) (A) (A) (A) (A) (A) (A) (A) (A) (A)
                 (A) (A) (A) (A) (A) (A) (A) (A) (A) (A) (A) (A)
                 (A) (A) (A) (A) (A) (A) (A) (A) (A) (A) (A) (A)
                 (A) (A) (A) (A) (A) (A) (A) (A) (A) (A) (A) (A)
                 (A) (A) (A) (A) (A) (A) (A) (A) (A) (A) (A) (A)
                 (A) (A) (A) (A) (A) (A) (A) (A) (A) (A) (A) (A)
                 (A) (A) (A) (A) (A) (A) (A) (A) (A) (A) (A) (A)
                 (A) (A) (A) (A) (A) (A) (A) (A) (A) (A) (A) (A)
                 (A) (A) (A) (A) (A) (A) (A) (A) (A) (A) (A) (A)
                 (A) (A) (A) (A) (A) (A) (A) (A) (A) (A) (A) (A)
                 (A) (A) (A) (A) (A) (A) (A) (A) (A) (A) (A) (A)
                 (A) (A) (A) (A) (A) (A) (A) (A) (A) (A)
 The electronic state is 1-A.
 Alpha  occ. eigenvalues --  -14.84056 -10.66527 -10.65576  -1.05694  -0.88444
 Alpha  occ. eigenvalues --   -0.59467  -0.53853  -0.53256  -0.45176  -0.39532
 Alpha  occ. eigenvalues --   -0.38889
 Alpha virt. eigenvalues --    0.02002   0.07332   0.07989   0.10376   0.11168
 Alpha virt. eigenvalues --    0.12118   0.15208   0.16727   0.17684   0.18791
 Alpha virt. eigenvalues --    0.20115   0.27949   0.32852   0.34414   0.34829
 Alpha virt. eigenvalues --    0.36895   0.38687   0.39401   0.43926   0.46101
 Alpha virt. eigenvalues --    0.49139   0.55810   0.57481   0.62047   0.65160
 Alpha virt. eigenvalues --    0.67555   0.69000   0.70237   0.72527   0.75019
 Alpha virt. eigenvalues --    0.77433   0.81312   0.82032   0.85505   0.87591
 Alpha virt. eigenvalues --    0.89824   0.90891   0.96409   1.00465   1.01653
 Alpha virt. eigenvalues --    1.05578   1.07644   1.08465   1.09607   1.10390
 Alpha virt. eigenvalues --    1.17932   1.21704   1.22486   1.25262   1.27978
 Alpha virt. eigenvalues --    1.35084   1.40501   1.43084   1.45956   1.51769
 Alpha virt. eigenvalues --    1.56494   1.58954   1.63156   1.75920   1.79969
 Alpha virt. eigenvalues --    1.81025   1.86148   1.89809   1.91776   1.93339
 Alpha virt. eigenvalues --    1.95854   1.97451   2.02958   2.04299   2.07255
 Alpha virt. eigenvalues --    2.12114   2.14270   2.17993   2.20119   2.22208
 Alpha virt. eigenvalues --    2.27187   2.30878   2.32492   2.34551   2.37587
 Alpha virt. eigenvalues --    2.38283   2.44941   2.49459   2.57794   2.59006
 Alpha virt. eigenvalues --    2.59581   2.63291   2.67025   2.69449   2.69765
 Alpha virt. eigenvalues --    2.76578   2.79610   2.84485   2.88870   2.93286
 Alpha virt. eigenvalues --    2.96751   3.00338   3.01351   3.08866   3.10997
 Alpha virt. eigenvalues --    3.16594   3.19531   3.21251   3.25737   3.28413
 Alpha virt. eigenvalues --    3.30455   3.34799   3.36362   3.39603   3.48542
 Alpha virt. eigenvalues --    3.52604   3.55897   3.62713   3.70639   3.75776
 Alpha virt. eigenvalues --    3.83330   3.85811   3.91841   3.93221   3.95377
 Alpha virt. eigenvalues --    3.97254   4.01042   4.06921   4.23886   4.27009
 Alpha virt. eigenvalues --    4.49757   4.91734   4.94106   4.99167   4.99461
 Alpha virt. eigenvalues --    5.04703   5.14557   5.20146   5.31044   5.38331
 Alpha virt. eigenvalues --    5.47120   5.50675   5.58993   5.67368   5.69250
 Alpha virt. eigenvalues --    5.76870   5.82685   5.85909   5.90519   5.91487
 Alpha virt. eigenvalues --    5.98068   5.98665   5.99819   6.01424   6.05240
 Alpha virt. eigenvalues --    6.07925   6.12768   6.14938   6.16237   6.19512
 Alpha virt. eigenvalues --    6.20037   6.25112   6.29154   6.31070   6.33381
 Alpha virt. eigenvalues --    6.40159   6.48812   6.53894   6.55505   6.63810
 Alpha virt. eigenvalues --    6.70846   6.73890   6.79064   6.82554   6.97506
 Alpha virt. eigenvalues --    7.00380   7.02771   7.05517   7.11402   7.12965
 Alpha virt. eigenvalues --    7.24292   7.34383   7.40257   7.47779   7.50109
 Alpha virt. eigenvalues --    7.53852   7.58818   7.60761   7.62615   7.68106
 Alpha virt. eigenvalues --    7.69744   7.72406   7.78174   7.85138   7.86986
 Alpha virt. eigenvalues --    7.91603   7.94746   7.98391   8.04835   8.10886
 Alpha virt. eigenvalues --    8.24352   8.27432   8.29385   8.41989   8.43082
 Alpha virt. eigenvalues --    8.45677   8.48219   8.53061   8.53517   8.56770
 Alpha virt. eigenvalues --    8.58114   8.62402   8.65804   8.68101   8.69711
 Alpha virt. eigenvalues --    8.75527   8.82896   8.88793   8.96318   8.99697
 Alpha virt. eigenvalues --    9.03552   9.04497   9.11800   9.18689   9.25750
 Alpha virt. eigenvalues --    9.31992   9.39478   9.66831   9.70531   9.82850
 Alpha virt. eigenvalues --    9.87726   9.94046   9.96745   9.98871  10.01373
 Alpha virt. eigenvalues --   10.04735  10.11697  10.24200  10.32527  10.38168
 Alpha virt. eigenvalues --   10.60376  10.71395  11.13017  11.62266  11.85287
 Alpha virt. eigenvalues --   11.90034  12.00753  13.24197  13.42331  29.00064
 Alpha virt. eigenvalues --   29.40878  38.28524 148.64814 149.02397 198.22804
          Condensed to atoms (all electrons):
               1          2          3          4          5          6
     1  C    4.590392   0.349630  -0.054577   0.408332   0.419792   0.404891
     2  C    0.349630   4.815045   0.928024  -0.043012  -0.052329  -0.029451
     3  N   -0.054577   0.928024   6.334185  -0.004902  -0.010938   0.005025
     4  H    0.408332  -0.043012  -0.004902   0.601979  -0.021511  -0.035859
     5  H    0.419792  -0.052329  -0.010938  -0.021511   0.595099  -0.036316
     6  H    0.404891  -0.029451   0.005025  -0.035859  -0.036316   0.609701
 Mulliken charges:
               1
     1  C   -0.118460
     2  C    0.032094
     3  N   -0.196818
     4  H    0.094972
     5  H    0.106203
     6  H    0.082008
 Sum of Mulliken charges =   0.00000
 Mulliken charges with hydrogens summed into heavy atoms:
               1
     1  C    0.164724
     2  C    0.032094
     3  N   -0.196818
 Electronic spatial extent (au):  <R**2>=            151.7379
 Charge=              0.0000 electrons
 Dipole moment (field-independent basis, Debye):
    X=              3.6965    Y=             -0.0986    Z=              0.0022  Tot=              3.6978
 Quadrupole moment (field-independent basis, Debye-Ang):
   XX=            -20.7769   YY=            -17.7833   ZZ=            -17.6952
   XY=              0.3719   XZ=             -0.0403   YZ=              0.0365
 Traceless Quadrupole moment (field-independent basis, Debye-Ang):
   XX=             -2.0251   YY=              0.9685   ZZ=              1.0566
   XY=              0.3719   XZ=             -0.0403   YZ=              0.0365
 Octapole moment (field-independent basis, Debye-Ang**2):
  XXX=             11.6260  YYY=              0.9146  ZZZ=              0.5087  XYY=              1.6508
  XXY=             -1.1151  XXZ=             -0.1906  XZZ=              1.7508  YZZ=              0.9145
  YYZ=             -0.4350  XYZ=              0.3183
 Hexadecapole moment (field-independent basis, Debye-Ang**3):
 XXXX=           -161.6473 YYYY=            -28.0375 ZZZZ=            -24.5225 XXXY=             -0.6669
 XXXZ=             -0.8347 YYYX=             -0.3046 YYYZ=             -0.3694 ZZZX=              0.8839
 ZZZY=              0.2348 XXYY=            -29.8980 XXZZ=            -29.4807 YYZZ=             -8.3354
 XXYZ=              0.9650 YYXZ=             -0.5055 ZZXY=              0.7040
 N-N= 5.981247886334D+01 E-N=-4.283657736286D+02  KE= 1.322155467434D+02
 No NMR shielding tensors so no spin-rotation constants.
 Leave Link  601 at Thu Aug 20 12:35:12 2020, MaxMem=  2147483648 cpu:         1.4
 (Enter /opt/cluster/programs/g09/g09_d.01/g09/l701.exe)
 Compute integral first derivatives.
 ... and contract with generalized density number  2.
 R6Disp: Adding Grimme-D3(BJ) dispersion energy 1st derivatives to the gradient.
   1 Symmetry operations used in ECPInt.
 ECPInt:  NShTT=    3321 NPrTT=    8136 LenC2=    3304 LenP2D=    7187.
 LDataN:  DoStor=T MaxTD1= 9 Len=  602
 Leave Link  701 at Thu Aug 20 12:35:12 2020, MaxMem=  2147483648 cpu:         1.8
 (Enter /opt/cluster/programs/g09/g09_d.01/g09/l702.exe)
 L702 exits ... SP integral derivatives will be done elsewhere.
 Leave Link  702 at Thu Aug 20 12:35:12 2020, MaxMem=  2147483648 cpu:         0.1
 (Enter /opt/cluster/programs/g09/g09_d.01/g09/l703.exe)
 Compute integral first derivatives, UseDBF=F ICtDFT=           0.
 Integral derivatives from FoFJK, PRISM(SPDF).
 Calling FoFJK, ICntrl=  10002127 FMM=F ISym2X=0 I1Cent= 0 IOpClX= 0 NMat=1 NMatS=1 NMatT=0.
 FoFJK:  IHMeth= 1 ICntrl=10002127 DoSepK=F KAlg= 0 I1Cent=   0 FoldK=F
 IRaf=         0 NMat=   1 IRICut=       1 DoRegI=T DoRafI=F ISym2E= 0.
 FoFCou: FMM=F IPFlag=           0 FMFlag=      100000 FMFlg1=         800
         NFxFlg=           0 DoJE=F BraDBF=F KetDBF=F FulRan=T
         wScrn=  0.000000 ICntrl=10002127 IOpCl=  0 I1Cent=           0 NGrid=           0
         NMat0=    1 NMatS0=      1 NMatT0=    0 NMatD0=    1 NMtDS0=    0 NMtDT0=    0
 Symmetry not used in FoFCou.
 Leave Link  703 at Thu Aug 20 12:35:28 2020, MaxMem=  2147483648 cpu:       121.2
 (Enter /opt/cluster/programs/g09/g09_d.01/g09/l716.exe)
 Dipole        = 1.41006315D+00-3.60765538D-02-1.61879164D-04
 ***** Axes restored to original set *****
 -------------------------------------------------------------------
 Center     Atomic                   Forces (Hartrees/Bohr)
 Number     Number              X              Y              Z
 -------------------------------------------------------------------
      1        6          -0.018908255   -0.013417953    0.001549317
      2        6          -0.036030984   -0.006098474    0.005558988
      3        7           0.059513507    0.007875021   -0.009259646
      4        1          -0.003802973    0.002795043   -0.001017943
      5        1          -0.008603791    0.000700564    0.003188748
      6        1           0.007832495    0.008145799   -0.000019464
 -------------------------------------------------------------------
 Cartesian Forces:  Max     0.059513507 RMS     0.017999385
 Leave Link  716 at Thu Aug 20 12:35:28 2020, MaxMem=  2147483648 cpu:         0.2
 (Enter /opt/cluster/programs/g09/g09_d.01/g09/l103.exe)

 GradGradGradGradGradGradGradGradGradGradGradGradGradGradGradGradGradGrad
 Berny optimization.
 FormGI is forming the generalized inverse of G from B-inverse, IUseBI=4.
 Internal  Forces:  Max     0.055276378 RMS     0.022437149
 Search for a local minimum.
 Step number   1 out of a maximum of   25
 All quantities printed in internal units (Hartrees-Bohrs-Radians)
 RMS Force = .22437D-01 SwitMx=.10000D-02 MixMth= 1
 Mixed Optimization -- RFO/linear search
 Second derivative matrix not updated -- first step.
 The second derivative matrix:
                          R1        R2        R3        R4        R5
           R1           0.39257
           R2           0.00000   0.34919
           R3           0.00000   0.00000   0.34489
           R4           0.00000   0.00000   0.00000   0.35354
           R5           0.00000   0.00000   0.00000   0.00000   1.43502
           A1           0.00000   0.00000   0.00000   0.00000   0.00000
           A2           0.00000   0.00000   0.00000   0.00000   0.00000
           A3           0.00000   0.00000   0.00000   0.00000   0.00000
           A4           0.00000   0.00000   0.00000   0.00000   0.00000
           A5           0.00000   0.00000   0.00000   0.00000   0.00000
           A6           0.00000   0.00000   0.00000   0.00000   0.00000
           A7           0.00000   0.00000   0.00000   0.00000   0.00000
           D1           0.00000   0.00000   0.00000   0.00000   0.00000
           D2           0.00000   0.00000   0.00000   0.00000   0.00000
           D3           0.00000   0.00000   0.00000   0.00000   0.00000
                          A1        A2        A3        A4        A5
           A1           0.16000
           A2           0.00000   0.16000
           A3           0.00000   0.00000   0.16000
           A4           0.00000   0.00000   0.00000   0.16000
           A5           0.00000   0.00000   0.00000   0.00000   0.16000
           A6           0.00000   0.00000   0.00000   0.00000   0.00000
           A7           0.00000   0.00000   0.00000   0.00000   0.00000
           D1           0.00000   0.00000   0.00000   0.00000   0.00000
           D2           0.00000   0.00000   0.00000   0.00000   0.00000
           D3           0.00000   0.00000   0.00000   0.00000   0.00000
                          A6        A7        D1        D2        D3
           A6           0.16000
           A7           0.00000   0.25000
           D1           0.00000   0.00000   0.01528
           D2           0.00000   0.00000   0.00000   0.01528
           D3           0.00000   0.00000   0.00000   0.00000   0.01528
 ITU=  0
     Eigenvalues ---    0.01528   0.08830   0.11133   0.16000   0.16000
     Eigenvalues ---    0.16000   0.25000   0.34489   0.34919   0.35354
     Eigenvalues ---    0.39257   1.43502
 RFO step:  Lambda=-2.04952163D-02 EMin= 1.52781007D-02
 Linear search not attempted -- first point.
 Iteration  1 RMS(Cart)=  0.13319739 RMS(Int)=  0.01242080
 Iteration  2 RMS(Cart)=  0.01218132 RMS(Int)=  0.00229324
 Iteration  3 RMS(Cart)=  0.00011412 RMS(Int)=  0.00229161
 Iteration  4 RMS(Cart)=  0.00000016 RMS(Int)=  0.00229161
 ITry= 1 IFail=0 DXMaxC= 2.76D-01 DCOld= 1.00D+10 DXMaxT= 3.00D-01 DXLimC= 3.00D+00 Rises=F
 Variable       Old X    -DE/DX   Delta X   Delta X   Delta X     New X
                                 (Linear)    (Quad)   (Total)
    R1        2.72575   0.02314   0.00000   0.05602   0.05602   2.78177
    R2        2.05807  -0.00137   0.00000  -0.00370  -0.00370   2.05437
    R3        2.06513  -0.00212   0.00000  -0.00579  -0.00579   2.05933
    R4        2.05104  -0.00216   0.00000  -0.00578  -0.00578   2.04526
    R5        2.15012   0.05503   0.00000   0.03780   0.03780   2.18792
    A1        1.87313   0.00586   0.00000   0.02341   0.01992   1.89305
    A2        1.75400   0.01871   0.00000   0.11790   0.11784   1.87184
    A3        2.14133  -0.02098   0.00000  -0.12314  -0.12399   2.01735
    A4        1.86737  -0.00051   0.00000   0.01456   0.01156   1.87893
    A5        1.92674  -0.00032   0.00000  -0.02152  -0.02519   1.90156
    A6        1.87843   0.00067   0.00000   0.01594   0.01814   1.89657
    A7        2.51629   0.05528   0.00000   0.20435   0.20435   2.72065
    D1        1.28192   0.00713   0.00000   0.05313   0.05290   1.33482
    D2       -0.66695  -0.00186   0.00000  -0.01865  -0.02292  -0.68987
    D3       -2.74390  -0.00648   0.00000  -0.06836  -0.06385  -2.80775
         Item               Value     Threshold  Converged?
 Maximum Force            0.055276     0.000450     NO 
 RMS     Force            0.022437     0.000300     NO 
 Maximum Displacement     0.276382     0.001800     NO 
 RMS     Displacement     0.136223     0.001200     NO 
 Predicted change in Energy=-1.108044D-02
 Lowest energy point so far.  Saving SCF results.
 GradGradGradGradGradGradGradGradGradGradGradGradGradGradGradGradGradGrad

 Leave Link  103 at Thu Aug 20 12:35:28 2020, MaxMem=  2147483648 cpu:         0.2
 (Enter /opt/cluster/programs/g09/g09_d.01/g09/l202.exe)
                          Input orientation:                          
 ---------------------------------------------------------------------
 Center     Atomic      Atomic             Coordinates (Angstroms)
 Number     Number       Type             X           Y           Z
 ---------------------------------------------------------------------
      1          6           0       -6.605651   -1.056033    1.152194
      2          6           0       -5.227476   -0.614466    0.882784
      3          7           0       -4.085555   -0.742345    0.740799
      4          1           0       -6.710385   -1.224815    2.221018
      5          1           0       -6.741669   -2.014286    0.651383
      6          1           0       -7.385314   -0.380435    0.824973
 ---------------------------------------------------------------------
                    Distance matrix (angstroms):
                    1          2          3          4          5
     1  C    0.000000
     2  C    1.472050   0.000000
     3  N    2.572650   1.157798   0.000000
     4  H    1.087126   2.088640   3.051812   0.000000
     5  H    1.089752   2.075048   2.946314   1.757270   0.000000
     6  H    1.082303   2.171262   3.320613   1.765630   1.764619
                    6
     6  H    0.000000
 Stoichiometry    C2H3N
 Framework group  C1[X(C2H3N)]
 Deg. of freedom    12
 Full point group                 C1      NOp   1
 RotChk:  IX=0 Diff= 1.08D-01
 Largest Abelian subgroup         C1      NOp   1
 Largest concise Abelian subgroup C1      NOp   1
                         Standard orientation:                         
 ---------------------------------------------------------------------
 Center     Atomic      Atomic             Coordinates (Angstroms)
 Number     Number       Type             X           Y           Z
 ---------------------------------------------------------------------
      1          6           0        1.164454    0.035503   -0.001447
      2          6           0       -0.287640   -0.206054    0.001001
      3          7           0       -1.407677    0.087213   -0.001480
      4          1           0        1.464692    0.338934    0.998367
      5          1           0        1.351356    0.874336   -0.671512
      6          1           0        1.776811   -0.800454   -0.313816
 ---------------------------------------------------------------------
 Rotational constants (GHZ):    136.0188218      9.4907840      9.3852254
 Leave Link  202 at Thu Aug 20 12:35:28 2020, MaxMem=  2147483648 cpu:         0.0
 (Enter /opt/cluster/programs/g09/g09_d.01/g09/l301.exe)
 Standard basis: def2QZVP (5D, 7F)
 Ernie: Thresh=  0.10000D-02 Tol=  0.10000D-05 Strict=F.
 There are   321 symmetry adapted cartesian basis functions of A   symmetry.
 There are   261 symmetry adapted basis functions of A   symmetry.
   261 basis functions,   390 primitive gaussians,   321 cartesian basis functions
    11 alpha electrons       11 beta electrons
       nuclear repulsion energy        58.5444860977 Hartrees.
 IExCor=  419 DFT=T Ex+Corr=B2PLYPD3 ExCW=0 ScaHFX=  0.530000
 ScaDFX=  0.470000  0.470000  0.730000  0.730000 ScalE2=  0.270000  0.270000
 IRadAn=      0 IRanWt=     -1 IRanGd=            0 ICorTp=0 IEmpDi=141
 NAtoms=    6 NActive=    6 NUniq=    6 SFac= 1.00D+00 NAtFMM=   60 NAOKFM=F Big=F
 Integral buffers will be    131072 words long.
 Regular integral format.
 Two-electron integral symmetry is turned on.
 R6Disp:  Grimme-D3(BJ) Dispersion energy=       -0.0021144592 Hartrees.
 Nuclear repulsion after empirical dispersion term =       58.5423716385 Hartrees.
 Leave Link  301 at Thu Aug 20 12:35:28 2020, MaxMem=  2147483648 cpu:         0.4
 (Enter /opt/cluster/programs/g09/g09_d.01/g09/l302.exe)
 NPDir=0 NMtPBC=     1 NCelOv=     1 NCel=       1 NClECP=     1 NCelD=      1
         NCelK=      1 NCelE2=     1 NClLst=     1 CellRange=     0.0.
 One-electron integrals computed using PRISM.
   1 Symmetry operations used in ECPInt.
 ECPInt:  NShTT=    3321 NPrTT=    8136 LenC2=    3298 LenP2D=    7133.
 LDataN:  DoStor=T MaxTD1= 8 Len=  415
 NBasis=   261 RedAO= T EigKep=  8.36D-05  NBF=   261
 NBsUse=   261 1.00D-06 EigRej= -1.00D+00 NBFU=   261
 Precomputing XC quadrature grid using
 IXCGrd= 4 IRadAn=           0 IRanWt=          -1 IRanGd=           0 AccXCQ= 0.00D+00.
 Generated NRdTot=       0 NPtTot=           0 NUsed=           0 NTot=          32
 NSgBfM=   321   321   321   321   321 MxSgAt=     6 MxSgA2=     6.
 Leave Link  302 at Thu Aug 20 12:35:28 2020, MaxMem=  2147483648 cpu:         1.8
 (Enter /opt/cluster/programs/g09/g09_d.01/g09/l303.exe)
 DipDrv:  MaxL=1.
 Leave Link  303 at Thu Aug 20 12:35:28 2020, MaxMem=  2147483648 cpu:         0.2
 (Enter /opt/cluster/programs/g09/g09_d.01/g09/l401.exe)
 Initial guess from the checkpoint file:  "cyanomethane_opt.chk"
 B after Tr=     0.000000    0.000000    0.000000
         Rot=    0.999771   -0.018946    0.000854    0.009929 Ang=  -2.45 deg.
 Guess basis will be translated and rotated to current coordinates.
 JPrj=2 DoOrth=T DoCkMO=T.
 Generating alternative initial guess.
 ExpMin= 7.60D-02 ExpMax= 9.07D+04 ExpMxC= 8.76D+02 IAcc=2 IRadAn=         4 AccDes= 0.00D+00
 Harris functional with IExCor=  419 and IRadAn=       4 diagonalized for initial guess.
 HarFok:  IExCor=  419 AccDes= 0.00D+00 IRadAn=         4 IDoV= 1 UseB2=F ITyADJ=14
 ICtDFT=  3500011 ScaDFX=  1.000000  1.000000  1.000000  1.000000
 FoFCou: FMM=F IPFlag=           0 FMFlag=      100000 FMFlg1=           0
         NFxFlg=           0 DoJE=T BraDBF=F KetDBF=T FulRan=T
         wScrn=  0.000000 ICntrl=     500 IOpCl=  0 I1Cent=   200000004 NGrid=           0
         NMat0=    1 NMatS0=      1 NMatT0=    0 NMatD0=    1 NMtDS0=    0 NMtDT0=    0
 Petite list used in FoFCou.
 Harris En= -132.844265704692    
 Leave Link  401 at Thu Aug 20 12:35:29 2020, MaxMem=  2147483648 cpu:         4.5
 (Enter /opt/cluster/programs/g09/g09_d.01/g09/l502.exe)
 Closed shell SCF:
 Using DIIS extrapolation, IDIIS=  1040.
 Integral symmetry usage will be decided dynamically.
 Keep R1 ints in memory in canonical form, NReq=601554820.
 IVT=      332521 IEndB=      332521 NGot=  2147483648 MDV=  1562621792
 LenX=  1562621792 LenY=  1562518310
 Requested convergence on RMS density matrix=1.00D-08 within 128 cycles.
 Requested convergence on MAX density matrix=1.00D-06.
 Requested convergence on             energy=1.00D-06.
 No special actions if energy rises.
 FoFCou: FMM=F IPFlag=           0 FMFlag=           0 FMFlg1=           0
         NFxFlg=           0 DoJE=F BraDBF=F KetDBF=F FulRan=T
         wScrn=  0.000000 ICntrl=     600 IOpCl=  0 I1Cent=           0 NGrid=           0
         NMat0=    1 NMatS0=  34191 NMatT0=    0 NMatD0=    1 NMtDS0=    0 NMtDT0=    0
 Symmetry not used in FoFCou.
 Integral accuracy reduced to 1.0D-05 until final iterations.

 Cycle   1  Pass 0  IDiag  1:
 E= -132.507732695923    
 DIIS: error= 6.48D-03 at cycle   1 NSaved=   1.
 NSaved= 1 IEnMin= 1 EnMin= -132.507732695923     IErMin= 1 ErrMin= 6.48D-03
 ErrMax= 6.48D-03  0.00D+00 EMaxC= 1.00D-01 BMatC= 1.77D-02 BMatP= 1.77D-02
 IDIUse=3 WtCom= 9.35D-01 WtEn= 6.48D-02
 Coeff-Com:  0.100D+01
 Coeff-En:   0.100D+01
 Coeff:      0.100D+01
 Gap=     1.722 Goal=   None    Shift=    0.000
 GapD=    1.722 DampG=2.000 DampE=1.000 DampFc=2.0000 IDamp=-1.
 RMSDP=3.80D-04 MaxDP=1.20D-02              OVMax= 5.10D-02

 Cycle   2  Pass 0  IDiag  1:
 E= -132.526161183783     Delta-E=       -0.018428487860 Rises=F Damp=F
 DIIS: error= 1.61D-03 at cycle   2 NSaved=   2.
 NSaved= 2 IEnMin= 2 EnMin= -132.526161183783     IErMin= 2 ErrMin= 1.61D-03
 ErrMax= 1.61D-03  0.00D+00 EMaxC= 1.00D-01 BMatC= 5.34D-04 BMatP= 1.77D-02
 IDIUse=3 WtCom= 9.84D-01 WtEn= 1.61D-02
 Coeff-Com: -0.100D+00 0.110D+01
 Coeff-En:   0.000D+00 0.100D+01
 Coeff:     -0.987D-01 0.110D+01
 Gap=     0.420 Goal=   None    Shift=    0.000
 RMSDP=9.09D-05 MaxDP=2.16D-03 DE=-1.84D-02 OVMax= 1.76D-02

 Cycle   3  Pass 0  IDiag  1:
 E= -132.527254813677     Delta-E=       -0.001093629893 Rises=F Damp=F
 DIIS: error= 8.15D-04 at cycle   3 NSaved=   3.
 NSaved= 3 IEnMin= 3 EnMin= -132.527254813677     IErMin= 3 ErrMin= 8.15D-04
 ErrMax= 8.15D-04  0.00D+00 EMaxC= 1.00D-01 BMatC= 6.54D-05 BMatP= 5.34D-04
 IDIUse=3 WtCom= 9.92D-01 WtEn= 8.15D-03
 Coeff-Com: -0.350D-01 0.193D+00 0.842D+00
 Coeff-En:   0.000D+00 0.000D+00 0.100D+01
 Coeff:     -0.347D-01 0.191D+00 0.843D+00
 Gap=     0.417 Goal=   None    Shift=    0.000
 RMSDP=2.46D-05 MaxDP=6.85D-04 DE=-1.09D-03 OVMax= 5.46D-03

 Cycle   4  Pass 0  IDiag  1:
 E= -132.527359199887     Delta-E=       -0.000104386211 Rises=F Damp=F
 DIIS: error= 2.21D-04 at cycle   4 NSaved=   4.
 NSaved= 4 IEnMin= 4 EnMin= -132.527359199887     IErMin= 4 ErrMin= 2.21D-04
 ErrMax= 2.21D-04  0.00D+00 EMaxC= 1.00D-01 BMatC= 1.13D-05 BMatP= 6.54D-05
 IDIUse=3 WtCom= 9.98D-01 WtEn= 2.21D-03
 Coeff-Com:  0.783D-02-0.123D+00 0.168D+00 0.948D+00
 Coeff-En:   0.000D+00 0.000D+00 0.000D+00 0.100D+01
 Coeff:      0.781D-02-0.123D+00 0.167D+00 0.948D+00
 Gap=     0.418 Goal=   None    Shift=    0.000
 RMSDP=1.28D-05 MaxDP=5.53D-04 DE=-1.04D-04 OVMax= 2.81D-03

 Cycle   5  Pass 0  IDiag  1:
 E= -132.527380107181     Delta-E=       -0.000020907294 Rises=F Damp=F
 DIIS: error= 6.14D-05 at cycle   5 NSaved=   5.
 NSaved= 5 IEnMin= 5 EnMin= -132.527380107181     IErMin= 5 ErrMin= 6.14D-05
 ErrMax= 6.14D-05  0.00D+00 EMaxC= 1.00D-01 BMatC= 5.26D-07 BMatP= 1.13D-05
 IDIUse=1 WtCom= 1.00D+00 WtEn= 0.00D+00
 Coeff-Com:  0.320D-02-0.272D-01-0.338D-01 0.891D-01 0.969D+00
 Coeff:      0.320D-02-0.272D-01-0.338D-01 0.891D-01 0.969D+00
 Gap=     0.418 Goal=   None    Shift=    0.000
 RMSDP=3.22D-06 MaxDP=9.37D-05 DE=-2.09D-05 OVMax= 6.86D-04

 Initial convergence to 1.0D-05 achieved.  Increase integral accuracy.
 Cycle   6  Pass 1  IDiag  1:
 E= -132.527385542623     Delta-E=       -0.000005435442 Rises=F Damp=F
 DIIS: error= 2.24D-05 at cycle   1 NSaved=   1.
 NSaved= 1 IEnMin= 1 EnMin= -132.527385542623     IErMin= 1 ErrMin= 2.24D-05
 ErrMax= 2.24D-05  0.00D+00 EMaxC= 1.00D-01 BMatC= 1.08D-07 BMatP= 1.08D-07
 IDIUse=1 WtCom= 1.00D+00 WtEn= 0.00D+00
 Coeff-Com:  0.100D+01
 Coeff:      0.100D+01
 Gap=     0.418 Goal=   None    Shift=    0.000
 RMSDP=3.22D-06 MaxDP=9.37D-05 DE=-5.44D-06 OVMax= 1.83D-04

 Cycle   7  Pass 1  IDiag  1:
 E= -132.527385616643     Delta-E=       -0.000000074020 Rises=F Damp=F
 DIIS: error= 2.24D-05 at cycle   2 NSaved=   2.
 NSaved= 2 IEnMin= 2 EnMin= -132.527385616643     IErMin= 1 ErrMin= 2.24D-05
 ErrMax= 2.24D-05  0.00D+00 EMaxC= 1.00D-01 BMatC= 7.75D-08 BMatP= 1.08D-07
 IDIUse=1 WtCom= 1.00D+00 WtEn= 0.00D+00
 Coeff-Com:  0.448D+00 0.552D+00
 Coeff:      0.448D+00 0.552D+00
 Gap=     0.418 Goal=   None    Shift=    0.000
 RMSDP=5.66D-07 MaxDP=1.90D-05 DE=-7.40D-08 OVMax= 1.06D-04

 Cycle   8  Pass 1  IDiag  1:
 E= -132.527385681125     Delta-E=       -0.000000064482 Rises=F Damp=F
 DIIS: error= 9.17D-06 at cycle   3 NSaved=   3.
 NSaved= 3 IEnMin= 3 EnMin= -132.527385681125     IErMin= 3 ErrMin= 9.17D-06
 ErrMax= 9.17D-06  0.00D+00 EMaxC= 1.00D-01 BMatC= 1.46D-08 BMatP= 7.75D-08
 IDIUse=1 WtCom= 1.00D+00 WtEn= 0.00D+00
 Coeff-Com:  0.788D-01 0.287D+00 0.634D+00
 Coeff:      0.788D-01 0.287D+00 0.634D+00
 Gap=     0.418 Goal=   None    Shift=    0.000
 RMSDP=2.74D-07 MaxDP=1.07D-05 DE=-6.45D-08 OVMax= 6.01D-05

 Cycle   9  Pass 1  IDiag  1:
 E= -132.527385696359     Delta-E=       -0.000000015234 Rises=F Damp=F
 DIIS: error= 4.22D-06 at cycle   4 NSaved=   4.
 NSaved= 4 IEnMin= 4 EnMin= -132.527385696359     IErMin= 4 ErrMin= 4.22D-06
 ErrMax= 4.22D-06  0.00D+00 EMaxC= 1.00D-01 BMatC= 2.14D-09 BMatP= 1.46D-08
 IDIUse=1 WtCom= 1.00D+00 WtEn= 0.00D+00
 Coeff-Com: -0.894D-01-0.279D-01 0.265D+00 0.852D+00
 Coeff:     -0.894D-01-0.279D-01 0.265D+00 0.852D+00
 Gap=     0.418 Goal=   None    Shift=    0.000
 RMSDP=1.52D-07 MaxDP=5.68D-06 DE=-1.52D-08 OVMax= 3.11D-05

 Cycle  10  Pass 1  IDiag  1:
 E= -132.527385700349     Delta-E=       -0.000000003990 Rises=F Damp=F
 DIIS: error= 8.40D-07 at cycle   5 NSaved=   5.
 NSaved= 5 IEnMin= 5 EnMin= -132.527385700349     IErMin= 5 ErrMin= 8.40D-07
 ErrMax= 8.40D-07  0.00D+00 EMaxC= 1.00D-01 BMatC= 9.19D-11 BMatP= 2.14D-09
 IDIUse=1 WtCom= 1.00D+00 WtEn= 0.00D+00
 Coeff-Com: -0.620D-03-0.341D-01-0.978D-01-0.887D-01 0.122D+01
 Coeff:     -0.620D-03-0.341D-01-0.978D-01-0.887D-01 0.122D+01
 Gap=     0.418 Goal=   None    Shift=    0.000
 RMSDP=6.38D-08 MaxDP=2.32D-06 DE=-3.99D-09 OVMax= 1.67D-05

 Cycle  11  Pass 1  IDiag  1:
 E= -132.527385700808     Delta-E=       -0.000000000459 Rises=F Damp=F
 DIIS: error= 3.49D-07 at cycle   6 NSaved=   6.
 NSaved= 6 IEnMin= 6 EnMin= -132.527385700808     IErMin= 6 ErrMin= 3.49D-07
 ErrMax= 3.49D-07  0.00D+00 EMaxC= 1.00D-01 BMatC= 1.11D-11 BMatP= 9.19D-11
 IDIUse=1 WtCom= 1.00D+00 WtEn= 0.00D+00
 Coeff-Com:  0.549D-02-0.869D-02-0.461D-01-0.857D-01 0.354D+00 0.781D+00
 Coeff:      0.549D-02-0.869D-02-0.461D-01-0.857D-01 0.354D+00 0.781D+00
 Gap=     0.418 Goal=   None    Shift=    0.000
 RMSDP=1.32D-08 MaxDP=4.81D-07 DE=-4.59D-10 OVMax= 3.01D-06

 Cycle  12  Pass 1  IDiag  1:
 E= -132.527385700830     Delta-E=       -0.000000000022 Rises=F Damp=F
 DIIS: error= 8.10D-08 at cycle   7 NSaved=   7.
 NSaved= 7 IEnMin= 7 EnMin= -132.527385700830     IErMin= 7 ErrMin= 8.10D-08
 ErrMax= 8.10D-08  0.00D+00 EMaxC= 1.00D-01 BMatC= 7.42D-13 BMatP= 1.11D-11
 IDIUse=1 WtCom= 1.00D+00 WtEn= 0.00D+00
 Coeff-Com: -0.625D-03 0.489D-02 0.168D-01 0.197D-01-0.185D+00-0.646D-01
 Coeff-Com:  0.121D+01
 Coeff:     -0.625D-03 0.489D-02 0.168D-01 0.197D-01-0.185D+00-0.646D-01
 Coeff:      0.121D+01
 Gap=     0.418 Goal=   None    Shift=    0.000
 RMSDP=6.54D-09 MaxDP=2.27D-07 DE=-2.23D-11 OVMax= 1.21D-06

 SCF Done:  E(RB2PLYPD3) =  -132.527385701     A.U. after   12 cycles
            NFock= 12  Conv=0.65D-08     -V/T= 2.0037
 KE= 1.320366726750D+02 PE=-4.256801095290D+02 EE= 1.025736795147D+02
 Leave Link  502 at Thu Aug 20 12:35:51 2020, MaxMem=  2147483648 cpu:        94.0
 (Enter /opt/cluster/programs/g09/g09_d.01/g09/l801.exe)
 DoSCS=T DFT=T ScalE2(SS,OS)=  0.270000  0.270000
 ExpMin= 7.60D-02 ExpMax= 9.07D+04 ExpMxC= 8.76D+02 IAcc=3 IRadAn=         5 AccDes= 0.00D+00
 HarFok:  IExCor=  205 AccDes= 0.00D+00 IRadAn=         5 IDoV=-2 UseB2=F ITyADJ=14
 ICtDFT= 12500011 ScaDFX=  1.000000  1.000000  1.000000  1.000000
 Largest valence mixing into a core orbital is  1.16D-04
 Largest core mixing into a valence orbital is  1.94D-05
 Range of M.O.s used for correlation:     4   261
 NBasis=   261 NAE=    11 NBE=    11 NFC=     3 NFV=     0
 NROrb=    258 NOA=     8 NOB=     8 NVA=   250 NVB=   250

 **** Warning!!: The largest alpha MO coefficient is  0.28152321D+02

 Leave Link  801 at Thu Aug 20 12:35:51 2020, MaxMem=  2147483648 cpu:         0.6
 (Enter /opt/cluster/programs/g09/g09_d.01/g09/l906.exe)
 DoSCS=T DFT=T ScalE2(SS,OS)=  0.270000  0.270000
 Frozen-core derivative calculation, NFC=   3 NFV=   0.
 FulOut=F Deriv=T AODrv=T NAtomX=     6
   MMem=         126  MDisk=           8 MDiskD=           8
  W3Min=      921591 MinDsk=     2062991 NBas6D=         321
 NBas2D=       52689    NTT=       51681    LW2=     9246618
    MDV=  2146734221 MDiskM=       14847 NBas2p=       52340
 Fully direct method using O(ONN) memory.
 IMap=   1   2   3   4   5   6   7   8   9  10  11
 JobTyp=1 Pass  1:  I=   4 to  11 NPSUse=  8 ParTrn=T ParDer=T DoDerP=T.
 Spin components of T(2) and E(2):
     alpha-alpha T2 =       0.3620928472D-01 E2=     -0.2150670616D-01
     alpha-beta  T2 =       0.2131257561D+00 E2=     -0.1384294060D+00
     beta-beta   T2 =       0.3620928472D-01 E2=     -0.2150670616D-01
 The integrals were generated   1 times.
 E2(B2PLYPD3) =    -0.1814428183D+00 E(B2PLYPD3) =    -0.13270882851916D+03
 Leave Link  906 at Thu Aug 20 12:36:33 2020, MaxMem=  2147483648 cpu:       336.4
 (Enter /opt/cluster/programs/g09/g09_d.01/g09/l1002.exe)
 Minotr:  Closed shell wavefunction.
          Computing MP2/KS-MP2 derivatives.
          Using Z-Vector for PSCF gradient.
          Skipping F1 and S1 gradient terms here.
          IDoAtm=111111
          Frozen-core window.
          Direct CPHF calculation.
          Differentiating once with respect to electric field.
                with respect to dipole field.
          Differentiating once with respect to nuclear coordinates.
          Requested convergence is 1.0D-10 RMS, and 1.0D-09 maximum.
          NewPWx=F KeepS1=T KeepF1=T KeepIn=T MapXYZ=F SortEE=F KeepMc=T.
          MDV=    2147483326 using IRadAn=       0.
 Using stored XC quadrature information.
 Keep R1 ints in memory in canonical form, NReq=601224195.
 FoFCou: FMM=F IPFlag=           0 FMFlag=           0 FMFlg1=           0
         NFxFlg=           0 DoJE=F BraDBF=F KetDBF=F FulRan=T
         wScrn=  0.000000 ICntrl=     600 IOpCl=  0 I1Cent=           0 NGrid=           0
         NMat0=    1 NMatS0=  34191 NMatT0=    0 NMatD0=    1 NMtDS0=    0 NMtDT0=    0
 Symmetry not used in FoFCou.
          Solving linear equations separately, MaxMat=       0.
          There are     1 degrees of freedom in the 1st order CPHF.  IDoFFX=0 NUNeed=     1.
 LinEq1:  Iter=  0 NonCon=     1 RMS=1.46D-03 Max=1.45D-02 NDo=     1
 AX will form     1 AO Fock derivatives at one time.
 LinEq1:  Iter=  1 NonCon=     1 RMS=5.60D-04 Max=6.56D-03 NDo=     1
 LinEq1:  Iter=  2 NonCon=     1 RMS=2.47D-04 Max=4.23D-03 NDo=     1
 LinEq1:  Iter=  3 NonCon=     1 RMS=1.96D-04 Max=3.67D-03 NDo=     1
 LinEq1:  Iter=  4 NonCon=     1 RMS=4.55D-05 Max=9.03D-04 NDo=     1
 LinEq1:  Iter=  5 NonCon=     1 RMS=1.84D-05 Max=2.09D-04 NDo=     1
 LinEq1:  Iter=  6 NonCon=     1 RMS=6.62D-06 Max=9.33D-05 NDo=     1
 LinEq1:  Iter=  7 NonCon=     1 RMS=1.29D-06 Max=1.83D-05 NDo=     1
 LinEq1:  Iter=  8 NonCon=     1 RMS=3.60D-07 Max=4.39D-06 NDo=     1
 LinEq1:  Iter=  9 NonCon=     1 RMS=5.86D-08 Max=6.70D-07 NDo=     1
 LinEq1:  Iter= 10 NonCon=     1 RMS=1.06D-08 Max=2.29D-07 NDo=     1
 LinEq1:  Iter= 11 NonCon=     1 RMS=2.15D-09 Max=2.52D-08 NDo=     1
 LinEq1:  Iter= 12 NonCon=     1 RMS=4.33D-10 Max=5.09D-09 NDo=     1
 LinEq1:  Iter= 13 NonCon=     1 RMS=6.57D-11 Max=1.15D-09 NDo=     1
 LinEq1:  Iter= 14 NonCon=     0 RMS=1.19D-11 Max=1.93D-10 NDo=     1
 Linear equations converged to 1.000D-10 1.000D-09 after    14 iterations.
 End of Minotr F.D. properties file   721 does not exist.
 End of Minotr F.D. properties file   722 does not exist.
 End of Minotr F.D. properties file   788 does not exist.
 Leave Link 1002 at Thu Aug 20 12:37:03 2020, MaxMem=  2147483648 cpu:       141.8
 (Enter /opt/cluster/programs/g09/g09_d.01/g09/l701.exe)
 Compute integral first derivatives.
 ... and contract with generalized density number  2.
 R6Disp: Adding Grimme-D3(BJ) dispersion energy 1st derivatives to the gradient.
   1 Symmetry operations used in ECPInt.
 ECPInt:  NShTT=    3321 NPrTT=    8136 LenC2=    3298 LenP2D=    7133.
 LDataN:  DoStor=T MaxTD1= 9 Len=  602
 Leave Link  701 at Thu Aug 20 12:37:04 2020, MaxMem=  2147483648 cpu:         1.8
 (Enter /opt/cluster/programs/g09/g09_d.01/g09/l702.exe)
 L702 exits ... SP integral derivatives will be done elsewhere.
 Leave Link  702 at Thu Aug 20 12:37:04 2020, MaxMem=  2147483648 cpu:         0.1
 (Enter /opt/cluster/programs/g09/g09_d.01/g09/l703.exe)
 Compute integral first derivatives, UseDBF=F ICtDFT=           0.
 Integral derivatives from FoFJK, PRISM(SPDF).
 Calling FoFJK, ICntrl=  10002127 FMM=F ISym2X=0 I1Cent= 0 IOpClX= 0 NMat=1 NMatS=1 NMatT=0.
 FoFJK:  IHMeth= 1 ICntrl=10002127 DoSepK=F KAlg= 0 I1Cent=   0 FoldK=F
 IRaf=         0 NMat=   1 IRICut=       1 DoRegI=T DoRafI=F ISym2E= 0.
 FoFCou: FMM=F IPFlag=           0 FMFlag=      100000 FMFlg1=         800
         NFxFlg=           0 DoJE=F BraDBF=F KetDBF=F FulRan=T
         wScrn=  0.000000 ICntrl=10002127 IOpCl=  0 I1Cent=           0 NGrid=           0
         NMat0=    1 NMatS0=      1 NMatT0=    0 NMatD0=    1 NMtDS0=    0 NMtDT0=    0
 Symmetry not used in FoFCou.
 Leave Link  703 at Thu Aug 20 12:37:20 2020, MaxMem=  2147483648 cpu:       123.4
 (Enter /opt/cluster/programs/g09/g09_d.01/g09/l716.exe)
 Dipole        = 1.50435508D+00-2.41719846D-02 3.02801051D-03
 ***** Axes restored to original set *****
 -------------------------------------------------------------------
 Center     Atomic                   Forces (Hartrees/Bohr)
 Number     Number              X              Y              Z
 -------------------------------------------------------------------
      1        6           0.001225842    0.002207583    0.000654643
      2        6          -0.004733469   -0.024710814    0.002976922
      3        7           0.001935716    0.014828250   -0.002348411
      4        1          -0.000557741    0.001594898    0.000134422
      5        1           0.000135622    0.002222568   -0.000176987
      6        1           0.001994029    0.003857515   -0.001240590
 -------------------------------------------------------------------
 Cartesian Forces:  Max     0.024710814 RMS     0.007094966
 Leave Link  716 at Thu Aug 20 12:37:21 2020, MaxMem=  2147483648 cpu:         0.2
 (Enter /opt/cluster/programs/g09/g09_d.01/g09/l103.exe)

 GradGradGradGradGradGradGradGradGradGradGradGradGradGradGradGradGradGrad
 Berny optimization.
 Using GEDIIS/GDIIS optimizer.
 FormGI is forming the generalized inverse of G from B-inverse, IUseBI=4.
 Internal  Forces:  Max     0.033083820 RMS     0.008973292
 Search for a local minimum.
 Step number   2 out of a maximum of   25
 All quantities printed in internal units (Hartrees-Bohrs-Radians)
 RMS Force = .89733D-02 SwitMx=.10000D-02 MixMth= 1
 Mixed Optimization -- RFO/linear search
 Update second derivatives using D2CorX and points    1    2
 DE= -1.38D-02 DEPred=-1.11D-02 R= 1.25D+00
 TightC=F SS=  1.41D+00  RLast= 2.91D-01 DXNew= 5.0454D-01 8.7238D-01
 Trust test= 1.25D+00 RLast= 2.91D-01 DXMaxT set to 5.05D-01
 The second derivative matrix:
                          R1        R2        R3        R4        R5
           R1           0.43247
           R2          -0.00146   0.34924
           R3           0.00182  -0.00011   0.34468
           R4          -0.00559   0.00022  -0.00015   0.35429
           R5           0.06046  -0.00188   0.00480  -0.00918   1.51248
           A1           0.00592  -0.00022   0.00026  -0.00083   0.00902
           A2           0.01722  -0.00048   0.00170  -0.00273   0.01976
           A3          -0.00793   0.00005  -0.00187   0.00163  -0.00154
           A4          -0.00814   0.00040   0.00024   0.00093  -0.01663
           A5           0.00202  -0.00015  -0.00041  -0.00011   0.00655
           A6          -0.00605   0.00032   0.00033   0.00064  -0.01339
           A7          -0.00930   0.00123   0.00504  -0.00059  -0.05215
           D1           0.01039  -0.00046   0.00000  -0.00129   0.01907
           D2           0.00051  -0.00003  -0.00004  -0.00005   0.00119
           D3          -0.01231   0.00054   0.00000   0.00153  -0.02260
                          A1        A2        A3        A4        A5
           A1           0.16088
           A2           0.00258   0.16460
           A3          -0.00121   0.00126   0.15383
           A4          -0.00119  -0.00543   0.00479   0.16036
           A5           0.00029   0.00243  -0.00298   0.00064   0.15925
           A6          -0.00088  -0.00450   0.00432  -0.00004   0.00073
           A7          -0.00124  -0.02104   0.02998  -0.00963   0.00889
           D1           0.00153   0.00597  -0.00452  -0.00111  -0.00029
           D2           0.00007   0.00041  -0.00042   0.00003  -0.00008
           D3          -0.00181  -0.00708   0.00536   0.00132   0.00034
                          A6        A7        D1        D2        D3
           A6           0.15966
           A7          -0.00994   0.14993
           D1          -0.00058   0.00652   0.01720
           D2           0.00005   0.00103   0.00003   0.01527
           D3           0.00069  -0.00770  -0.00228  -0.00004   0.01799
 ITU=  1  0
 Use linear search instead of GDIIS.
     Eigenvalues ---    0.01529   0.09546   0.10165   0.13040   0.16000
     Eigenvalues ---    0.16481   0.18345   0.34478   0.34921   0.35390
     Eigenvalues ---    0.43170   1.51881
 RFO step:  Lambda=-5.66541621D-03 EMin= 1.52893052D-02
 Quartic linear search produced a step of  0.80268.
 Iteration  1 RMS(Cart)=  0.10816726 RMS(Int)=  0.02969469
 Iteration  2 RMS(Cart)=  0.03674612 RMS(Int)=  0.00566968
 Iteration  3 RMS(Cart)=  0.00258891 RMS(Int)=  0.00318674
 Iteration  4 RMS(Cart)=  0.00007229 RMS(Int)=  0.00318583
 Iteration  5 RMS(Cart)=  0.00000002 RMS(Int)=  0.00318583
 ITry= 1 IFail=0 DXMaxC= 3.13D-01 DCOld= 1.00D+10 DXMaxT= 5.05D-01 DXLimC= 3.00D+00 Rises=F
 Variable       Old X    -DE/DX   Delta X   Delta X   Delta X     New X
                                 (Linear)    (Quad)   (Total)
    R1        2.78177  -0.00570   0.04497  -0.05520  -0.01023   2.77154
    R2        2.05437  -0.00006  -0.00297   0.00162  -0.00135   2.05302
    R3        2.05933  -0.00189  -0.00465  -0.00665  -0.01130   2.04803
    R4        2.04526   0.00135  -0.00464   0.00975   0.00511   2.05037
    R5        2.18792   0.00056   0.03035  -0.02025   0.01010   2.19802
    A1        1.89305   0.00162   0.01599   0.00438   0.01545   1.90849
    A2        1.87184   0.00144   0.09459  -0.03099   0.06227   1.93411
    A3        2.01735  -0.00729  -0.09952  -0.02772  -0.12857   1.88877
    A4        1.87893   0.00211   0.00928   0.03573   0.04028   1.91921
    A5        1.90156   0.00087  -0.02022   0.00872  -0.01674   1.88481
    A6        1.89657   0.00184   0.01456   0.01412   0.03090   1.92747
    A7        2.72065   0.03308   0.16403   0.12883   0.29286   3.01350
    D1        1.33482   0.00215   0.04246  -0.00002   0.04185   1.37667
    D2       -0.68987  -0.00190  -0.01840  -0.02786  -0.05184  -0.74171
    D3       -2.80775  -0.00057  -0.05125  -0.00464  -0.04972  -2.85747
         Item               Value     Threshold  Converged?
 Maximum Force            0.033084     0.000450     NO 
 RMS     Force            0.008973     0.000300     NO 
 Maximum Displacement     0.312595     0.001800     NO 
 RMS     Displacement     0.142459     0.001200     NO 
 Predicted change in Energy=-4.464657D-03
 Lowest energy point so far.  Saving SCF results.
 GradGradGradGradGradGradGradGradGradGradGradGradGradGradGradGradGradGrad

 Leave Link  103 at Thu Aug 20 12:37:22 2020, MaxMem=  2147483648 cpu:         0.1
 (Enter /opt/cluster/programs/g09/g09_d.01/g09/l202.exe)
                          Input orientation:                          
 ---------------------------------------------------------------------
 Center     Atomic      Atomic             Coordinates (Angstroms)
 Number     Number       Type             X           Y           Z
 ---------------------------------------------------------------------
      1          6           0       -6.606324   -1.120708    1.161068
      2          6           0       -5.215348   -0.737471    0.897758
      3          7           0       -4.078614   -0.576927    0.710782
      4          1           0       -6.755339   -1.221197    2.232509
      5          1           0       -6.849562   -2.052880    0.664632
      6          1           0       -7.250864   -0.323197    0.806402
 ---------------------------------------------------------------------
                    Distance matrix (angstroms):
                    1          2          3          4          5
     1  C    0.000000
     2  C    1.466635   0.000000
     3  N    2.624457   1.163142   0.000000
     4  H    1.086412   2.094546   3.145727   0.000000
     5  H    1.083770   2.110759   3.139860   1.777305   0.000000
     6  H    1.085008   2.079253   3.183817   1.756625   1.781277
                    6
     6  H    0.000000
 Stoichiometry    C2H3N
 Framework group  C1[X(C2H3N)]
 Deg. of freedom    12
 Full point group                 C1      NOp   1
 RotChk:  IX=0 Diff= 6.19D-01
 Largest Abelian subgroup         C1      NOp   1
 Largest concise Abelian subgroup C1      NOp   1
                         Standard orientation:                         
 ---------------------------------------------------------------------
 Center     Atomic      Atomic             Coordinates (Angstroms)
 Number     Number       Type             X           Y           Z
 ---------------------------------------------------------------------
      1          6           0        1.185156    0.016834    0.004587
      2          6           0       -0.279444   -0.053683   -0.026907
      3          7           0       -1.439278    0.024673    0.012394
      4          1           0        1.535594   -0.222037    1.004799
      5          1           0        1.529493    1.003592   -0.282295
      6          1           0        1.575583   -0.733169   -0.675343
 ---------------------------------------------------------------------
 Rotational constants (GHZ):    156.8818323      9.1744778      9.1599604
 Leave Link  202 at Thu Aug 20 12:37:22 2020, MaxMem=  2147483648 cpu:         0.0
 (Enter /opt/cluster/programs/g09/g09_d.01/g09/l301.exe)
 Standard basis: def2QZVP (5D, 7F)
 Ernie: Thresh=  0.10000D-02 Tol=  0.10000D-05 Strict=F.
 There are   321 symmetry adapted cartesian basis functions of A   symmetry.
 There are   261 symmetry adapted basis functions of A   symmetry.
   261 basis functions,   390 primitive gaussians,   321 cartesian basis functions
    11 alpha electrons       11 beta electrons
       nuclear repulsion energy        58.3082805030 Hartrees.
 IExCor=  419 DFT=T Ex+Corr=B2PLYPD3 ExCW=0 ScaHFX=  0.530000
 ScaDFX=  0.470000  0.470000  0.730000  0.730000 ScalE2=  0.270000  0.270000
 IRadAn=      0 IRanWt=     -1 IRanGd=            0 ICorTp=0 IEmpDi=141
 NAtoms=    6 NActive=    6 NUniq=    6 SFac= 1.00D+00 NAtFMM=   60 NAOKFM=F Big=F
 Integral buffers will be    131072 words long.
 Regular integral format.
 Two-electron integral symmetry is turned on.
 R6Disp:  Grimme-D3(BJ) Dispersion energy=       -0.0021014840 Hartrees.
 Nuclear repulsion after empirical dispersion term =       58.3061790190 Hartrees.
 Leave Link  301 at Thu Aug 20 12:37:23 2020, MaxMem=  2147483648 cpu:         0.4
 (Enter /opt/cluster/programs/g09/g09_d.01/g09/l302.exe)
 NPDir=0 NMtPBC=     1 NCelOv=     1 NCel=       1 NClECP=     1 NCelD=      1
         NCelK=      1 NCelE2=     1 NClLst=     1 CellRange=     0.0.
 One-electron integrals computed using PRISM.
   1 Symmetry operations used in ECPInt.
 ECPInt:  NShTT=    3321 NPrTT=    8136 LenC2=    3292 LenP2D=    7123.
 LDataN:  DoStor=T MaxTD1= 8 Len=  415
 NBasis=   261 RedAO= T EigKep=  8.45D-05  NBF=   261
 NBsUse=   261 1.00D-06 EigRej= -1.00D+00 NBFU=   261
 Precomputing XC quadrature grid using
 IXCGrd= 4 IRadAn=           0 IRanWt=          -1 IRanGd=           0 AccXCQ= 0.00D+00.
 Generated NRdTot=       0 NPtTot=           0 NUsed=           0 NTot=          32
 NSgBfM=   321   321   321   321   321 MxSgAt=     6 MxSgA2=     6.
 Leave Link  302 at Thu Aug 20 12:37:23 2020, MaxMem=  2147483648 cpu:         1.9
 (Enter /opt/cluster/programs/g09/g09_d.01/g09/l303.exe)
 DipDrv:  MaxL=1.
 Leave Link  303 at Thu Aug 20 12:37:23 2020, MaxMem=  2147483648 cpu:         0.2
 (Enter /opt/cluster/programs/g09/g09_d.01/g09/l401.exe)
 Initial guess from the checkpoint file:  "cyanomethane_opt.chk"
 B after Tr=     0.000000    0.000000    0.000000
         Rot=    0.976241   -0.216439   -0.002629    0.010031 Ang= -25.03 deg.
 Guess basis will be translated and rotated to current coordinates.
 JPrj=2 DoOrth=T DoCkMO=T.
 Generating alternative initial guess.
 ExpMin= 7.60D-02 ExpMax= 9.07D+04 ExpMxC= 8.76D+02 IAcc=2 IRadAn=         4 AccDes= 0.00D+00
 Harris functional with IExCor=  419 and IRadAn=       4 diagonalized for initial guess.
 HarFok:  IExCor=  419 AccDes= 0.00D+00 IRadAn=         4 IDoV= 1 UseB2=F ITyADJ=14
 ICtDFT=  3500011 ScaDFX=  1.000000  1.000000  1.000000  1.000000
 FoFCou: FMM=F IPFlag=           0 FMFlag=      100000 FMFlg1=           0
         NFxFlg=           0 DoJE=T BraDBF=F KetDBF=T FulRan=T
         wScrn=  0.000000 ICntrl=     500 IOpCl=  0 I1Cent=   200000004 NGrid=           0
         NMat0=    1 NMatS0=      1 NMatT0=    0 NMatD0=    1 NMtDS0=    0 NMtDT0=    0
 Petite list used in FoFCou.
 Harris En= -132.850011334122    
 Leave Link  401 at Thu Aug 20 12:37:24 2020, MaxMem=  2147483648 cpu:         4.7
 (Enter /opt/cluster/programs/g09/g09_d.01/g09/l502.exe)
 Closed shell SCF:
 Using DIIS extrapolation, IDIIS=  1040.
 Integral symmetry usage will be decided dynamically.
 Keep R1 ints in memory in canonical form, NReq=601554820.
 IVT=      332521 IEndB=      332521 NGot=  2147483648 MDV=  1562621792
 LenX=  1562621792 LenY=  1562518310
 Requested convergence on RMS density matrix=1.00D-08 within 128 cycles.
 Requested convergence on MAX density matrix=1.00D-06.
 Requested convergence on             energy=1.00D-06.
 No special actions if energy rises.
 FoFCou: FMM=F IPFlag=           0 FMFlag=           0 FMFlg1=           0
         NFxFlg=           0 DoJE=F BraDBF=F KetDBF=F FulRan=T
         wScrn=  0.000000 ICntrl=     600 IOpCl=  0 I1Cent=           0 NGrid=           0
         NMat0=    1 NMatS0=  34191 NMatT0=    0 NMatD0=    1 NMtDS0=    0 NMtDT0=    0
 Symmetry not used in FoFCou.
 Integral accuracy reduced to 1.0D-05 until final iterations.

 Cycle   1  Pass 0  IDiag  1:
 E= -132.502156224128    
 DIIS: error= 9.61D-03 at cycle   1 NSaved=   1.
 NSaved= 1 IEnMin= 1 EnMin= -132.502156224128     IErMin= 1 ErrMin= 9.61D-03
 ErrMax= 9.61D-03  0.00D+00 EMaxC= 1.00D-01 BMatC= 2.92D-02 BMatP= 2.92D-02
 IDIUse=3 WtCom= 9.04D-01 WtEn= 9.61D-02
 Coeff-Com:  0.100D+01
 Coeff-En:   0.100D+01
 Coeff:      0.100D+01
 Gap=     1.786 Goal=   None    Shift=    0.000
 GapD=    1.786 DampG=2.000 DampE=1.000 DampFc=2.0000 IDamp=-1.
 RMSDP=5.05D-04 MaxDP=1.90D-02              OVMax= 6.51D-02

 Cycle   2  Pass 0  IDiag  1:
 E= -132.532232919587     Delta-E=       -0.030076695459 Rises=F Damp=F
 DIIS: error= 1.67D-03 at cycle   2 NSaved=   2.
 NSaved= 2 IEnMin= 2 EnMin= -132.532232919587     IErMin= 2 ErrMin= 1.67D-03
 ErrMax= 1.67D-03  0.00D+00 EMaxC= 1.00D-01 BMatC= 7.56D-04 BMatP= 2.92D-02
 IDIUse=3 WtCom= 9.83D-01 WtEn= 1.67D-02
 Coeff-Com: -0.111D+00 0.111D+01
 Coeff-En:   0.000D+00 0.100D+01
 Coeff:     -0.109D+00 0.111D+01
 Gap=     0.426 Goal=   None    Shift=    0.000
 RMSDP=1.06D-04 MaxDP=3.19D-03 DE=-3.01D-02 OVMax= 2.18D-02

 Cycle   3  Pass 0  IDiag  1:
 E= -132.533847653434     Delta-E=       -0.001614733847 Rises=F Damp=F
 DIIS: error= 9.30D-04 at cycle   3 NSaved=   3.
 NSaved= 3 IEnMin= 3 EnMin= -132.533847653434     IErMin= 3 ErrMin= 9.30D-04
 ErrMax= 9.30D-04  0.00D+00 EMaxC= 1.00D-01 BMatC= 1.09D-04 BMatP= 7.56D-04
 IDIUse=3 WtCom= 9.91D-01 WtEn= 9.30D-03
 Coeff-Com: -0.318D-01 0.190D+00 0.842D+00
 Coeff-En:   0.000D+00 0.000D+00 0.100D+01
 Coeff:     -0.315D-01 0.188D+00 0.843D+00
 Gap=     0.424 Goal=   None    Shift=    0.000
 RMSDP=3.60D-05 MaxDP=1.07D-03 DE=-1.61D-03 OVMax= 6.78D-03

 Cycle   4  Pass 0  IDiag  1:
 E= -132.533897743326     Delta-E=       -0.000050089892 Rises=F Damp=F
 DIIS: error= 1.02D-03 at cycle   4 NSaved=   4.
 NSaved= 4 IEnMin= 4 EnMin= -132.533897743326     IErMin= 3 ErrMin= 9.30D-04
 ErrMax= 1.02D-03  0.00D+00 EMaxC= 1.00D-01 BMatC= 1.27D-04 BMatP= 1.09D-04
 IDIUse=3 WtCom= 2.39D-01 WtEn= 7.61D-01
 Coeff-Com:  0.391D-02-0.117D+00 0.569D+00 0.544D+00
 Coeff-En:   0.000D+00 0.000D+00 0.368D+00 0.632D+00
 Coeff:      0.932D-03-0.280D-01 0.416D+00 0.611D+00
 Gap=     0.426 Goal=   None    Shift=    0.000
 RMSDP=2.46D-05 MaxDP=8.35D-04 DE=-5.01D-05 OVMax= 5.28D-03

 Cycle   5  Pass 0  IDiag  1:
 E= -132.533992254938     Delta-E=       -0.000094511612 Rises=F Damp=F
 DIIS: error= 5.04D-04 at cycle   5 NSaved=   5.
 NSaved= 5 IEnMin= 5 EnMin= -132.533992254938     IErMin= 5 ErrMin= 5.04D-04
 ErrMax= 5.04D-04  0.00D+00 EMaxC= 1.00D-01 BMatC= 2.83D-05 BMatP= 1.09D-04
 IDIUse=3 WtCom= 9.95D-01 WtEn= 5.04D-03
 Coeff-Com:  0.445D-02-0.532D-01-0.840D-01 0.328D+00 0.805D+00
 Coeff-En:   0.000D+00 0.000D+00 0.000D+00 0.149D+00 0.851D+00
 Coeff:      0.443D-02-0.529D-01-0.835D-01 0.327D+00 0.805D+00
 Gap=     0.425 Goal=   None    Shift=    0.000
[...]
                                                                        X                                                            
                                                                        X                                                            
                                                                        X                                                            
                                                                        X                                                            
                                                                        X                                                            
                                                                        X                                                            
                                                                        X                                                            
                                                                        X                                                            
                                                                        X                                                            
                                                                        X                                                            
                                                                        X                                                            
 
 ***** Axes restored to original set *****
 -------------------------------------------------------------------
 Center     Atomic                   Forces (Hartrees/Bohr)
 Number     Number              X              Y              Z
 -------------------------------------------------------------------
      1        6          -0.000012791   -0.000013303    0.000014671
      2        6           0.000003102   -0.000003235   -0.000002796
      3        7           0.000002381    0.000002293   -0.000000279
      4        1           0.000005937    0.000005546   -0.000001623
      5        1           0.000001896    0.000008484   -0.000003213
      6        1          -0.000000524    0.000000215   -0.000006760
 -------------------------------------------------------------------
 Cartesian Forces:  Max     0.000014671 RMS     0.000006647
 Force constants in Cartesian coordinates: 
                1             2             3             4             5 
      1  0.515028D+00
      2 -0.935331D-02  0.553403D+00
      3  0.752763D-02  0.175294D-02  0.554149D+00
      4 -0.263859D+00 -0.445951D-01  0.358516D-01  0.140260D+01
      5 -0.446089D-01 -0.806668D-01  0.827428D-02  0.299596D+00  0.171876D+00
      6  0.358545D-01  0.826446D-02 -0.770243D-01 -0.240852D+00 -0.555206D-01
      7 -0.202200D-02 -0.462423D-02  0.371972D-02 -0.108382D+01 -0.241535D+00
      8 -0.462988D-02  0.169834D-01  0.857604D-03 -0.241530D+00 -0.915634D-01
      9  0.372084D-02  0.857086D-03  0.173583D-01  0.194181D+00  0.447565D-01
     10 -0.507795D-01 -0.399812D-02  0.380591D-01 -0.112590D-01 -0.462192D-02
     11 -0.394790D-02 -0.478354D-01  0.275233D-01 -0.236800D-02 -0.359763D-02
     12  0.375823D-01  0.274415D-01 -0.312509D+00  0.636309D-02  0.140435D-02
     13 -0.604450D-01 -0.553042D-01 -0.297301D-01 -0.152046D-01 -0.325877D-01
     14 -0.549138D-01 -0.246904D+00 -0.108976D+00 -0.627839D-02 -0.551403D-02
     15 -0.294847D-01 -0.108856D+00 -0.103798D+00  0.251777D-03  0.886726D-02
     16 -0.137923D+00  0.117875D+00 -0.554280D-01 -0.284610D-01  0.237578D-01
     17  0.117454D+00 -0.194980D+00  0.705675D-01 -0.482395D-02  0.946559D-02
     18 -0.552006D-01  0.705398D-01 -0.781752D-01  0.420532D-02 -0.778183D-02
                6             7             8             9            10 
      6  0.147444D+00
      7  0.194181D+00  0.108527D+01
      8  0.447555D-01  0.246099D+00  0.742624D-01
      9 -0.718744D-01 -0.197851D+00 -0.456020D-01  0.542020D-01
     10  0.378322D-01 -0.105982D-02 -0.141265D-03 -0.411444D-02  0.587565D-01
     11  0.825214D-02 -0.253784D-03  0.962308D-03 -0.860794D-03  0.625856D-02
     12 -0.285058D-02 -0.256649D-02 -0.524356D-03  0.498141D-03 -0.441400D-01
     13 -0.163190D-01 -0.348815D-03  0.330605D-02  0.251248D-02  0.710655D-03
     14  0.168684D-03  0.201246D-02  0.101682D-02 -0.626090D-03  0.217250D-02
     15  0.301253D-02  0.169818D-02 -0.105343D-02 -0.269542D-03 -0.808620D-02
     16 -0.106961D-01  0.197573D-02 -0.310405D-02  0.155193D-02  0.363119D-02
     17 -0.592018D-02 -0.169896D-02 -0.166155D-02  0.147528D-02  0.330241D-03
     18  0.129268D-02  0.819260D-03  0.156670D-02  0.854737D-04 -0.195507D-01
               11            12            13            14            15 
     11  0.480923D-01
     12 -0.306551D-01  0.336909D+00
     13  0.523772D-02  0.156112D-02  0.695781D-01
     14  0.444842D-02  0.225752D-02  0.631764D-01  0.265583D+00
     15 -0.279674D-01 -0.128216D-01  0.315103D-01  0.118313D+00  0.108613D+00
     16 -0.492661D-02  0.119999D-02  0.570970D-02 -0.616917D-02  0.411066D-02
     17 -0.207003D-02  0.760923D-04  0.161718D-01 -0.186308D-01  0.106962D-01
     18  0.237079D-01 -0.922560D-02  0.104651D-01 -0.111376D-01  0.526380D-02
               16            17            18 
     16  0.155067D+00
     17 -0.127433D+00  0.207877D+00
     18  0.592615D-01 -0.768949D-01  0.807588D-01
 FormGI is forming the generalized inverse of G from B-inverse, IUseBI=4.
 Force constants in internal coordinates: 
                1             2             3             4             5 
      1  0.344006D+00
      2  0.749286D-02  0.347013D+00
      3  0.749611D-02  0.243881D-02  0.347027D+00
      4  0.749280D-02  0.243995D-02  0.243491D-02  0.346991D+00
      5  0.318801D-02 -0.258517D-02 -0.258477D-02 -0.258449D-02  0.117866D+01
      6  0.184542D-01  0.653129D-02 -0.680611D-02 -0.680606D-02  0.737286D-03
      7  0.184548D-01 -0.680203D-02  0.655373D-02 -0.680326D-02  0.738072D-03
      8  0.184519D-01 -0.680430D-02 -0.680141D-02  0.654150D-02  0.737314D-03
      9 -0.188457D-01  0.555009D-02  0.553334D-02 -0.386217D-02 -0.753649D-03
     10 -0.188373D-01  0.553479D-02 -0.386295D-02  0.554645D-02 -0.752172D-03
     11 -0.188417D-01 -0.385998D-02  0.553156D-02  0.553112D-02 -0.753367D-03
     12  0.200589D-05 -0.422316D-03 -0.115821D-02  0.158428D-02  0.501465D-05
     13 -0.355506D-05  0.665279D-05  0.669077D-02 -0.669327D-02  0.000000D+00
     14  0.271951D-05 -0.669289D-02  0.000000D+00  0.668766D-02  0.000000D+00
     15  0.000000D+00  0.668616D-02 -0.669122D-02  0.563167D-05  0.000000D+00
                6             7             8             9            10 
      6  0.111799D+00
      7 -0.223337D-01  0.111804D+00
      8 -0.223149D-01 -0.223380D-01  0.111766D+00
      9 -0.356062D-01 -0.356074D-01  0.267525D-02  0.665411D-01
     10 -0.356256D-01  0.268034D-02 -0.356036D-01  0.171880D-02  0.665551D-01
     11  0.267578D-02 -0.356174D-01 -0.356003D-01  0.171990D-02  0.171591D-02
     12 -0.435379D-02 -0.117774D-01  0.161462D-01  0.461458D-02 -0.337858D-02
     13  0.157351D-05  0.124573D-01 -0.124529D-01  0.186855D-01 -0.186891D-01
     14 -0.124557D-01  0.000000D+00  0.124520D-01 -0.186862D-01  0.183783D-05
     15  0.124533D-01 -0.124565D-01  0.109985D-05  0.000000D+00  0.186875D-01
               11            12            13            14            15 
     11  0.665466D-01
     12 -0.125212D-02  0.836299D-01
     13 -0.133165D-05 -0.258468D-02  0.206698D-01
     14  0.186856D-01  0.189627D-02 -0.103342D-01  0.206689D-01
     15 -0.186845D-01  0.685169D-03 -0.103356D-01 -0.103346D-01  0.206700D-01
 Leave Link  716 at Thu Aug 20 13:50:30 2020, MaxMem=  2147483648 cpu:         0.8
 (Enter /opt/cluster/programs/g09/g09_d.01/g09/l103.exe)

 GradGradGradGradGradGradGradGradGradGradGradGradGradGradGradGradGradGrad
 Berny optimization.
 FormGI is forming the generalized inverse of G from B-inverse, IUseBI=4.
 Internal  Forces:  Max     0.000009267 RMS     0.000004567
 Search for a local minimum.
 Step number   1 out of a maximum of    2
 All quantities printed in internal units (Hartrees-Bohrs-Radians)
 Second derivative matrix not updated -- analytic derivatives used.
 The second derivative matrix:
                          R1        R2        R3        R4        R5
           R1           0.34401
           R2           0.00749   0.34701
           R3           0.00750   0.00244   0.34703
           R4           0.00749   0.00244   0.00243   0.34699
           R5           0.00319  -0.00259  -0.00258  -0.00258   1.17866
           A1           0.01845   0.00653  -0.00681  -0.00681   0.00074
           A2           0.01845  -0.00680   0.00655  -0.00680   0.00074
           A3           0.01845  -0.00680  -0.00680   0.00654   0.00074
           A4          -0.01885   0.00555   0.00553  -0.00386  -0.00075
           A5          -0.01884   0.00553  -0.00386   0.00555  -0.00075
           A6          -0.01884  -0.00386   0.00553   0.00553  -0.00075
           A7           0.00000  -0.00042  -0.00116   0.00158   0.00001
           D1           0.00000   0.00001   0.00669  -0.00669   0.00000
           D2           0.00000  -0.00669   0.00000   0.00669   0.00000
           D3           0.00000   0.00669  -0.00669   0.00001   0.00000
                          A1        A2        A3        A4        A5
           A1           0.11180
           A2          -0.02233   0.11180
           A3          -0.02231  -0.02234   0.11177
           A4          -0.03561  -0.03561   0.00268   0.06654
           A5          -0.03563   0.00268  -0.03560   0.00172   0.06656
           A6           0.00268  -0.03562  -0.03560   0.00172   0.00172
           A7          -0.00435  -0.01178   0.01615   0.00461  -0.00338
           D1           0.00000   0.01246  -0.01245   0.01869  -0.01869
           D2          -0.01246   0.00000   0.01245  -0.01869   0.00000
           D3           0.01245  -0.01246   0.00000   0.00000   0.01869
                          A6        A7        D1        D2        D3
           A6           0.06655
           A7          -0.00125   0.08363
           D1           0.00000  -0.00258   0.02067
           D2           0.01869   0.00190  -0.01033   0.02067
           D3          -0.01868   0.00069  -0.01034  -0.01033   0.02067
 ITU=  0
     Eigenvalues ---    0.00000   0.07432   0.07726   0.08045   0.12678
     Eigenvalues ---    0.15108   0.15714   0.34246   0.34619   0.34623
     Eigenvalues ---    0.36373   1.17870
 Eigenvalue     1 is  -3.60D-10 should be greater than     0.000000 Eigenvector:
                          D3        D1        D2        A7        A1
   1                   -0.57735  -0.57735  -0.57735  -0.00002   0.00000
                          A3        A6        A4        A2        A5
   1                    0.00000   0.00000   0.00000   0.00000   0.00000
 Angle between quadratic step and forces=  88.81 degrees.
 Linear search not attempted -- first point.
 Iteration  1 RMS(Cart)=  0.00002226 RMS(Int)=  0.00004701
 SLEqS3 Cycle:   181 Max:0.291242E-04 RMS:0.126476E-04 Conv:0.136929E-08
 SLEqS3 Cycle:   181 Max:0.362790E-04 RMS:0.157960E-04 Conv:0.136929E-08
 Iteration  2 RMS(Cart)=  0.00003837 RMS(Int)=  0.00001552
 SLEqS3 Cycle:   181 Max:0.346897E-04 RMS:0.149439E-04 Conv:0.376438E-10
 SLEqS3 Cycle:   181 Max:0.334476E-04 RMS:0.979513E-05 Conv:0.376438E-10
 Iteration  3 RMS(Cart)=  0.00000759 RMS(Int)=  0.00001150
 SLEqS3 Cycle:   181 Max:0.198970E-04 RMS:0.761711E-05 Conv:0.632424E-08
 SLEqS3 Cycle:   181 Max:0.309296E-04 RMS:0.999835E-05 Conv:0.632424E-08
 Iteration  4 RMS(Cart)=  0.00000510 RMS(Int)=  0.00000973
 SLEqS3 Cycle:   181 Max:0.132224E-04 RMS:0.511228E-05 Conv:0.872072E-09
 SLEqS3 Cycle:   181 Max:0.246921E-04 RMS:0.746269E-05 Conv:0.872072E-09
 Iteration  5 RMS(Cart)=  0.00000386 RMS(Int)=  0.00000818
 SLEqS3 Cycle:   181 Max:0.232490E-04 RMS:0.743378E-05 Conv:0.251269E-08
 SLEqS3 Cycle:   181 Max:0.227368E-04 RMS:0.711628E-05 Conv:0.251269E-08
 Iteration  6 RMS(Cart)=  0.00000319 RMS(Int)=  0.00000710
 SLEqS3 Cycle:   181 Max:0.807036E-05 RMS:0.264403E-05 Conv:0.650108E-09
 SLEqS3 Cycle:   181 Max:0.229487E-04 RMS:0.721190E-05 Conv:0.650108E-09
 Iteration  7 RMS(Cart)=  0.00000061 RMS(Int)=  0.00000707
 ITry= 1 IFail=0 DXMaxC= 5.71D-05 DCOld= 1.00D+10 DXMaxT= 3.00D-01 DXLimC= 3.00D+00 Rises=F
 Variable       Old X    -DE/DX   Delta X   Delta X   Delta X     New X
                                 (Linear)    (Quad)   (Total)
    R1        2.75073   0.00001   0.00000   0.00003   0.00003   2.75076
    R2        2.05316   0.00000   0.00000  -0.00002  -0.00002   2.05315
    R3        2.05316  -0.00001   0.00000  -0.00002  -0.00002   2.05314
    R4        2.05314   0.00000   0.00000   0.00001   0.00001   2.05315
    R5        2.18295   0.00000   0.00000   0.00000   0.00000   2.18294
    A1        1.92065  -0.00001   0.00000  -0.00003  -0.00003   1.92062
    A2        1.92066   0.00000   0.00000  -0.00002  -0.00002   1.92064
    A3        1.92069   0.00000   0.00000  -0.00004  -0.00004   1.92065
    A4        1.90044   0.00001   0.00000   0.00010   0.00010   1.90054
    A5        1.90048   0.00001   0.00000   0.00005   0.00005   1.90052
    A6        1.90056   0.00000   0.00000  -0.00005  -0.00005   1.90051
    A7        3.14154   0.00000   0.00000   0.00005   0.00003   3.14157
    D1        1.30667   0.00000   0.00000  -0.00417  -0.00417   1.30250
    D2       -0.78764   0.00000   0.00000  -0.00426  -0.00426  -0.79190
    D3       -2.88213   0.00000   0.00000  -0.00416  -0.00416  -2.88629
         Item               Value     Threshold  Converged?
 Maximum Force            0.000009     0.000450     YES
 RMS     Force            0.000005     0.000300     YES
 Maximum Displacement     0.000057     0.001800     YES
 RMS     Displacement     0.000035     0.001200     YES
 Predicted change in Energy=-1.276925D-09
 Optimization completed.
    -- Stationary point found.
                           ----------------------------
                           !   Optimized Parameters   !
                           ! (Angstroms and Degrees)  !
 --------------------------                            --------------------------
 ! Name  Definition              Value          Derivative Info.                !
 --------------------------------------------------------------------------------
 ! R1    R(1,2)                  1.4556         -DE/DX =    0.0                 !
 ! R2    R(1,4)                  1.0865         -DE/DX =    0.0                 !
 ! R3    R(1,5)                  1.0865         -DE/DX =    0.0                 !
 ! R4    R(1,6)                  1.0865         -DE/DX =    0.0                 !
 ! R5    R(2,3)                  1.1552         -DE/DX =    0.0                 !
 ! A1    A(2,1,4)              110.045          -DE/DX =    0.0                 !
 ! A2    A(2,1,5)              110.0459         -DE/DX =    0.0                 !
 ! A3    A(2,1,6)              110.0475         -DE/DX =    0.0                 !
 ! A4    A(4,1,5)              108.8871         -DE/DX =    0.0                 !
 ! A5    A(4,1,6)              108.8894         -DE/DX =    0.0                 !
 ! A6    A(5,1,6)              108.8941         -DE/DX =    0.0                 !
 ! A7    A(1,2,3)              179.9972         -DE/DX =    0.0                 !
 ! D1    D(4,1,2,3)             74.8668         -DE/DX =    0.0                 !
 ! D2    D(5,1,2,3)            -45.1285         -DE/DX =    0.0                 !
 ! D3    D(6,1,2,3)           -165.134          -DE/DX =    0.0                 !
 --------------------------------------------------------------------------------
 GradGradGradGradGradGradGradGradGradGradGradGradGradGradGradGradGradGrad

 Leave Link  103 at Thu Aug 20 13:50:31 2020, MaxMem=  2147483648 cpu:         2.8
 (Enter /opt/cluster/programs/g09/g09_d.01/g09/l9999.exe)
 1\1\GINC-NODE27\Freq\RB2PLYPD3-FC\def2QZVP\C2H3N1\BOITTIER\20-Aug-2020
 \0\\#P Geom=AllCheck Guess=TCheck SCRF=Check GenChk RB2PLYPD3(FC)/def2
 QZVP Freq\\cyanomethane_opt\\0,1\C,-6.5973547914,-1.1140392815,1.16618
 54544\C,-5.201510843,-0.7922461564,0.9075184121\N,-4.0937712503,-0.536
 9290419,0.702254065\H,-6.7617952484,-1.226779859,2.2342223023\H,-6.863
 6633965,-2.0428560479,0.6693617427\H,-7.2379544704,-0.3195296134,0.793
 6080234\\Version=ES64L-G09RevD.01\State=1-A\HF=-132.5359011\MP2=-132.7
 163625\RMSD=5.019e-10\RMSF=6.647e-06\ZeroPoint=0.0453469\Thermal=0.048
 9755\Dipole=-1.5052778,-0.3469887,0.2789562\DipoleDeriv=0.0431389,-0.0
 202362,0.016291,-0.0202567,0.1262894,0.0037699,0.0162728,0.0037486,0.1
 279185,0.1305658,0.0182725,-0.0146665,0.0182627,0.0556642,-0.0033902,-
 0.0146749,-0.0034002,0.0541965,-0.2256994,0.0230937,-0.0185835,0.02311
 09,-0.3206819,-0.0042823,-0.0185787,-0.0042776,-0.3225541,0.0245707,-0
 .0171537,-0.0065136,-0.0196421,0.1008543,0.0072739,0.0283393,0.0148639
 ,-0.0150572,0.0242236,-0.010567,0.020251,-0.039696,0.0149146,-0.044019
 6,0.0019059,-0.0536359,0.0712348,0.0032004,0.0065907,0.0032217,0.03822
 11,0.0229595,0.0406483,-0.0132643,0.042701,0.0842617\Polar=37.7108198,
 3.3947912,23.765644,-2.7293692,-0.6291358,23.4889753\PG=C01 [X(C2H3N1)
 ]\NImag=0\\0.51502793,-0.00935331,0.55340295,0.00752763,0.00175294,0.5
 5414905,-0.26385864,-0.04459508,0.03585163,1.40259970,-0.04460892,-0.0
 8066676,0.00827428,0.29959572,0.17187624,0.03585453,0.00826446,-0.0770
 2433,-0.24085240,-0.05552059,0.14744407,-0.00202200,-0.00462423,0.0037
 1972,-1.08381640,-0.24153493,0.19418073,1.08527131,-0.00462988,0.01698
 344,0.00085760,-0.24153030,-0.09156341,0.04475550,0.24609945,0.0742624
 0,0.00372084,0.00085709,0.01735828,0.19418058,0.04475653,-0.07187438,-
 0.19785139,-0.04560202,0.05420202,-0.05077947,-0.00399812,0.03805914,-
 0.01125905,-0.00462192,0.03783220,-0.00105982,-0.00014127,-0.00411444,
 0.05875650,-0.00394790,-0.04783536,0.02752330,-0.00236800,-0.00359763,
 0.00825214,-0.00025378,0.00096231,-0.00086079,0.00625856,0.04809229,0.
 03758233,0.02744152,-0.31250945,0.00636309,0.00140435,-0.00285058,-0.0
 0256649,-0.00052436,0.00049814,-0.04414004,-0.03065513,0.33690913,-0.0
 6044498,-0.05530419,-0.02973007,-0.01520463,-0.03258770,-0.01631898,-0
 .00034882,0.00330605,0.00251248,0.00071065,0.00523772,0.00156112,0.069
 57807,-0.05491376,-0.24690383,-0.10897567,-0.00627839,-0.00551403,0.00
 016868,0.00201246,0.00101682,-0.00062609,0.00217250,0.00444842,0.00225
 752,0.06317636,0.26558340,-0.02948474,-0.10885580,-0.10379837,0.000251
 78,0.00886726,0.00301253,0.00169818,-0.00105343,-0.00026954,-0.0080862
 0,-0.02796737,-0.01282164,0.03151033,0.11831315,0.10861322,-0.13792284
 ,0.11787494,-0.05542803,-0.02846097,0.02375775,-0.01069608,0.00197573,
 -0.00310405,0.00155193,0.00363119,-0.00492661,0.00119999,0.00570970,-0
 .00616917,0.00411066,0.15506720,0.11745377,-0.19498044,0.07056754,-0.0
 0482395,0.00946559,-0.00592018,-0.00169896,-0.00166155,0.00147528,0.00
 033024,-0.00207003,0.00007609,0.01617176,-0.01863078,0.01069620,-0.127
 43287,0.20787720,-0.05520058,0.07053980,-0.07817517,0.00420532,-0.0077
 8183,0.00129268,0.00081926,0.00156670,0.00008547,-0.01955066,0.0237078
 5,-0.00922560,0.01046512,-0.01113759,0.00526380,0.05926154,-0.07689492
 ,0.08075882\\0.00001279,0.00001330,-0.00001467,-0.00000310,0.00000323,
 0.00000280,-0.00000238,-0.00000229,0.00000028,-0.00000594,-0.00000555,
 0.00000162,-0.00000190,-0.00000848,0.00000321,0.00000052,-0.00000021,0
 .00000676\\\@


    UPON JULIA'S CLOTHES

 WHENAS IN SILKS MY JULIA GOES,
 THEN, THEN, METHINKS, HOW SWEETLY FLOWS
 THAT LIQUEFACTION OF HER CLOTHES.

 NEXT, WHEN I CAST MINE EYES, AND SEE
 THAT BRAVE VIBRATION, EACH WAY FREE,
 O, HOW THAT GLITTERING TAKETH ME!
     -- ROBERT HERRICK, 1648
 Job cpu time:       0 days  5 hours 15 minutes 26.5 seconds.
 File lengths (MBytes):  RWF=  10758 Int=      0 D2E=      0 Chk=      8 Scr=      1
 Normal termination of Gaussian 09 at Thu Aug 20 13:50:34 2020.
