6
	Energy:      12.3352148
C         -6.59773       -0.99261        1.15181
C         -5.25320       -0.54796        0.87784
N         -4.17307       -0.88860        0.76896
H         -6.65502       -1.21540        2.21632
H         -6.60222       -1.94978        0.62450
H         -7.47481       -0.43803        0.83372
