acrolein_opt                                                            
Freq      RB2PLYPD3-FC                                                def2QZVP            
Number of atoms                            I                8
Info1-9                                    I   N=           9
          19          17        1002           0           0         100
           6           2           1
Charge                                     I                0
Multiplicity                               I                1
Number of electrons                        I               30
Number of alpha electrons                  I               15
Number of beta electrons                   I               15
Number of basis functions                  I              348
Number of independent functions            I              348
Number of point charges in /Mol/           I                0
Number of translation vectors              I                0
Atomic numbers                             I   N=           8
           6           8           6           6           1           1
           1           1
Nuclear charges                            R   N=           8
  6.00000000E+00  8.00000000E+00  6.00000000E+00  6.00000000E+00  1.00000000E+00
  1.00000000E+00  1.00000000E+00  1.00000000E+00
Current cartesian coordinates              R   N=          24
 -1.26888001E+00  6.58256499E-01  1.39421169E-04 -3.37870447E+00 -2.27449145E-01
 -7.42477088E-05  1.06007304E+00 -8.51910409E-01  3.41557065E-05  3.31479046E+00
  2.69888995E-01 -3.77813145E-05  8.45057141E-01 -2.88299019E+00  3.28909236E-05
  3.46376358E+00  2.30861091E+00 -2.91985494E-05  5.05584472E+00 -7.90726246E-01
 -9.22342032E-05 -9.70930593E-01  2.72728818E+00 -1.32249865E-04
Force Field                                I                0
Int Atom Types                             I   N=           8
           0           0           0           0           0           0
           0           0
MM charges                                 R   N=           8
  0.00000000E+00  0.00000000E+00  0.00000000E+00  0.00000000E+00  0.00000000E+00
  0.00000000E+00  0.00000000E+00  0.00000000E+00
Integer atomic weights                     I   N=           8
          12          16          12          12           1           1
           1           1
Real atomic weights                        R   N=           8
  1.20000000E+01  1.59949146E+01  1.20000000E+01  1.20000000E+01  1.00782504E+00
  1.00782504E+00  1.00782504E+00  1.00782504E+00
Atom fragment info                         I   N=           8
           0           0           0           0           0           0
           0           0
Atom residue num                           I   N=           8
           0           0           0           0           0           0
           0           0
Nuclear spins                              I   N=           8
           0           0           0           0           1           1
           1           1
Nuclear ZEff                               R   N=           8
 -3.60000000E+00 -5.60000000E+00 -3.60000000E+00 -3.60000000E+00 -1.00000000E+00
 -1.00000000E+00 -1.00000000E+00 -1.00000000E+00
Nuclear ZNuc                               R   N=           8
  6.00000000E+00  8.00000000E+00  6.00000000E+00  6.00000000E+00  1.00000000E+00
  1.00000000E+00  1.00000000E+00  1.00000000E+00
Nuclear QMom                               R   N=           8
  0.00000000E+00  0.00000000E+00  0.00000000E+00  0.00000000E+00  0.00000000E+00
  0.00000000E+00  0.00000000E+00  0.00000000E+00
Nuclear GFac                               R   N=           8
  0.00000000E+00  0.00000000E+00  0.00000000E+00  0.00000000E+00  2.79284600E+00
  2.79284600E+00  2.79284600E+00  2.79284600E+00
MicOpt                                     I   N=           8
          -1          -1          -1          -1          -1          -1
          -1          -1
Number of contracted shells                I              108
Number of primitive shells                 I              168
Pure/Cartesian d shells                    I                0
Pure/Cartesian f shells                    I                0
Highest angular momentum                   I                4
Largest degree of contraction              I                8
Shell types                                I   N=         108
           0           0           0           0           0           0
           0           1           1           1           1          -2
          -2          -2          -3          -3          -4           0
           0           0           0           0           0           0
           1           1           1           1          -2          -2
          -2          -3          -3          -4           0           0
           0           0           0           0           0           1
           1           1           1          -2          -2          -2
          -3          -3          -4           0           0           0
           0           0           0           0           1           1
           1           1          -2          -2          -2          -3
          -3          -4           0           0           0           0
           1           1           1          -2          -2          -3
           0           0           0           0           1           1
           1          -2          -2          -3           0           0
           0           0           1           1           1          -2
          -2          -3           0           0           0           0
           1           1           1          -2          -2          -3
Number of primitives per shell             I   N=         108
           8           2           1           1           1           1
           1           5           1           1           1           1
           1           1           1           1           1           8
           2           1           1           1           1           1
           5           1           1           1           1           1
           1           1           1           1           8           2
           1           1           1           1           1           5
           1           1           1           1           1           1
           1           1           1           8           2           1
           1           1           1           1           5           1
           1           1           1           1           1           1
           1           1           4           1           1           1
           1           1           1           1           1           1
           4           1           1           1           1           1
           1           1           1           1           4           1
           1           1           1           1           1           1
           1           1           4           1           1           1
           1           1           1           1           1           1
Shell to atom map                          I   N=         108
           1           1           1           1           1           1
           1           1           1           1           1           1
           1           1           1           1           1           2
           2           2           2           2           2           2
           2           2           2           2           2           2
           2           2           2           2           3           3
           3           3           3           3           3           3
           3           3           3           3           3           3
           3           3           3           4           4           4
           4           4           4           4           4           4
           4           4           4           4           4           4
           4           4           5           5           5           5
           5           5           5           5           5           5
           6           6           6           6           6           6
           6           6           6           6           7           7
           7           7           7           7           7           7
           7           7           8           8           8           8
           8           8           8           8           8           8
Primitive exponents                        R   N=         168
  6.70250710E+04  1.00399865E+04  2.28493169E+03  6.47141221E+02  2.11094723E+02
  7.61776439E+01  2.96338392E+01  1.21877851E+01  5.30260063E+01  1.52585028E+01
  5.24039575E+00  2.29050224E+00  6.96732830E-01  2.75993374E-01  1.07398844E-01
  1.05125551E+02  2.48844611E+01  7.86372308E+00  2.84070018E+00  1.12271373E+00
  4.60507256E-01  1.89375309E-01  7.59837916E-02  1.84800000E+00  6.49000000E-01
  2.28000000E-01  1.41900000E+00  4.85000000E-01  1.01100000E+00  1.16506469E+05
  1.75043497E+04  3.99345132E+03  1.13300632E+03  3.69995696E+02  1.33620743E+02
  5.20356436E+01  2.14619393E+01  8.98350513E+01  2.64280108E+01  9.28228246E+00
  4.09477285E+00  1.32553491E+00  5.18772308E-01  1.97726765E-01  1.91152558E+02
  4.52333567E+01  1.43534659E+01  5.24223718E+00  2.07924186E+00  8.42823714E-01
  3.36176949E-01  1.28639980E-01  3.77500000E+00  1.30000000E+00  4.44000000E-01
  2.66600000E+00  8.59000000E-01  1.84600000E+00  6.70250710E+04  1.00399865E+04
  2.28493169E+03  6.47141221E+02  2.11094723E+02  7.61776439E+01  2.96338392E+01
  1.21877851E+01  5.30260063E+01  1.52585028E+01  5.24039575E+00  2.29050224E+00
  6.96732830E-01  2.75993374E-01  1.07398844E-01  1.05125551E+02  2.48844611E+01
  7.86372308E+00  2.84070018E+00  1.12271373E+00  4.60507256E-01  1.89375309E-01
  7.59837916E-02  1.84800000E+00  6.49000000E-01  2.28000000E-01  1.41900000E+00
  4.85000000E-01  1.01100000E+00  6.70250710E+04  1.00399865E+04  2.28493169E+03
  6.47141221E+02  2.11094723E+02  7.61776439E+01  2.96338392E+01  1.21877851E+01
  5.30260063E+01  1.52585028E+01  5.24039575E+00  2.29050224E+00  6.96732830E-01
  2.75993374E-01  1.07398844E-01  1.05125551E+02  2.48844611E+01  7.86372308E+00
  2.84070018E+00  1.12271373E+00  4.60507256E-01  1.89375309E-01  7.59837916E-02
  1.84800000E+00  6.49000000E-01  2.28000000E-01  1.41900000E+00  4.85000000E-01
  1.01100000E+00  1.90691690E+02  2.86055320E+01  6.50959430E+00  1.84124550E+00
  5.98537250E-01  2.13976240E-01  8.03162860E-02  2.29200000E+00  8.38000000E-01
  2.92000000E-01  2.06200000E+00  6.62000000E-01  1.39700000E+00  1.90691690E+02
  2.86055320E+01  6.50959430E+00  1.84124550E+00  5.98537250E-01  2.13976240E-01
  8.03162860E-02  2.29200000E+00  8.38000000E-01  2.92000000E-01  2.06200000E+00
  6.62000000E-01  1.39700000E+00  1.90691690E+02  2.86055320E+01  6.50959430E+00
  1.84124550E+00  5.98537250E-01  2.13976240E-01  8.03162860E-02  2.29200000E+00
  8.38000000E-01  2.92000000E-01  2.06200000E+00  6.62000000E-01  1.39700000E+00
  1.90691690E+02  2.86055320E+01  6.50959430E+00  1.84124550E+00  5.98537250E-01
  2.13976240E-01  8.03162860E-02  2.29200000E+00  8.38000000E-01  2.92000000E-01
  2.06200000E+00  6.62000000E-01  1.39700000E+00
Contraction coefficients                   R   N=         168
  7.09883366E-05  5.51759078E-04  2.89330111E-03  1.21111499E-02  4.28226973E-02
  1.29053329E-01  3.18146478E-01  5.91790275E-01  9.13649169E-02  9.28761090E-01
  1.00000000E+00  1.00000000E+00  1.00000000E+00  1.00000000E+00  1.00000000E+00
  2.49653501E-03  1.95463956E-02  8.88349466E-02  2.94789686E-01  7.02715999E-01
  1.00000000E+00  1.00000000E+00  1.00000000E+00  1.00000000E+00  1.00000000E+00
  1.00000000E+00  1.00000000E+00  1.00000000E+00  1.00000000E+00  7.19875758E-05
  5.57148772E-04  2.91300317E-03  1.21720511E-02  4.30037618E-02  1.29647624E-01
  3.19696086E-01  5.89314588E-01  9.48480528E-02  9.25363788E-01  1.00000000E+00
  1.00000000E+00  1.00000000E+00  1.00000000E+00  1.00000000E+00  2.53595741E-03
  2.02338243E-02  9.45180200E-02  3.09154328E-01  6.84689495E-01  1.00000000E+00
  1.00000000E+00  1.00000000E+00  1.00000000E+00  1.00000000E+00  1.00000000E+00
  1.00000000E+00  1.00000000E+00  1.00000000E+00  7.09883366E-05  5.51759078E-04
  2.89330111E-03  1.21111499E-02  4.28226973E-02  1.29053329E-01  3.18146478E-01
  5.91790275E-01  9.13649169E-02  9.28761090E-01  1.00000000E+00  1.00000000E+00
  1.00000000E+00  1.00000000E+00  1.00000000E+00  2.49653501E-03  1.95463956E-02
  8.88349466E-02  2.94789686E-01  7.02715999E-01  1.00000000E+00  1.00000000E+00
  1.00000000E+00  1.00000000E+00  1.00000000E+00  1.00000000E+00  1.00000000E+00
  1.00000000E+00  1.00000000E+00  7.09883366E-05  5.51759078E-04  2.89330111E-03
  1.21111499E-02  4.28226973E-02  1.29053329E-01  3.18146478E-01  5.91790275E-01
  9.13649169E-02  9.28761090E-01  1.00000000E+00  1.00000000E+00  1.00000000E+00
  1.00000000E+00  1.00000000E+00  2.49653501E-03  1.95463956E-02  8.88349466E-02
  2.94789686E-01  7.02715999E-01  1.00000000E+00  1.00000000E+00  1.00000000E+00
  1.00000000E+00  1.00000000E+00  1.00000000E+00  1.00000000E+00  1.00000000E+00
  1.00000000E+00  5.34263696E-03  4.12523382E-02  2.10993526E-01  8.12128546E-01
  1.00000000E+00  1.00000000E+00  1.00000000E+00  1.00000000E+00  1.00000000E+00
  1.00000000E+00  1.00000000E+00  1.00000000E+00  1.00000000E+00  5.34263696E-03
  4.12523382E-02  2.10993526E-01  8.12128546E-01  1.00000000E+00  1.00000000E+00
  1.00000000E+00  1.00000000E+00  1.00000000E+00  1.00000000E+00  1.00000000E+00
  1.00000000E+00  1.00000000E+00  5.34263696E-03  4.12523382E-02  2.10993526E-01
  8.12128546E-01  1.00000000E+00  1.00000000E+00  1.00000000E+00  1.00000000E+00
  1.00000000E+00  1.00000000E+00  1.00000000E+00  1.00000000E+00  1.00000000E+00
  5.34263696E-03  4.12523382E-02  2.10993526E-01  8.12128546E-01  1.00000000E+00
  1.00000000E+00  1.00000000E+00  1.00000000E+00  1.00000000E+00  1.00000000E+00
  1.00000000E+00  1.00000000E+00  1.00000000E+00
Coordinates of each shell                  R   N=         324
 -1.26888001E+00  6.58256499E-01  1.39421169E-04 -1.26888001E+00  6.58256499E-01
  1.39421169E-04 -1.26888001E+00  6.58256499E-01  1.39421169E-04 -1.26888001E+00
  6.58256499E-01  1.39421169E-04 -1.26888001E+00  6.58256499E-01  1.39421169E-04
 -1.26888001E+00  6.58256499E-01  1.39421169E-04 -1.26888001E+00  6.58256499E-01
  1.39421169E-04 -1.26888001E+00  6.58256499E-01  1.39421169E-04 -1.26888001E+00
  6.58256499E-01  1.39421169E-04 -1.26888001E+00  6.58256499E-01  1.39421169E-04
 -1.26888001E+00  6.58256499E-01  1.39421169E-04 -1.26888001E+00  6.58256499E-01
  1.39421169E-04 -1.26888001E+00  6.58256499E-01  1.39421169E-04 -1.26888001E+00
  6.58256499E-01  1.39421169E-04 -1.26888001E+00  6.58256499E-01  1.39421169E-04
 -1.26888001E+00  6.58256499E-01  1.39421169E-04 -1.26888001E+00  6.58256499E-01
  1.39421169E-04 -3.37870447E+00 -2.27449145E-01 -7.42477088E-05 -3.37870447E+00
 -2.27449145E-01 -7.42477088E-05 -3.37870447E+00 -2.27449145E-01 -7.42477088E-05
 -3.37870447E+00 -2.27449145E-01 -7.42477088E-05 -3.37870447E+00 -2.27449145E-01
 -7.42477088E-05 -3.37870447E+00 -2.27449145E-01 -7.42477088E-05 -3.37870447E+00
 -2.27449145E-01 -7.42477088E-05 -3.37870447E+00 -2.27449145E-01 -7.42477088E-05
 -3.37870447E+00 -2.27449145E-01 -7.42477088E-05 -3.37870447E+00 -2.27449145E-01
 -7.42477088E-05 -3.37870447E+00 -2.27449145E-01 -7.42477088E-05 -3.37870447E+00
 -2.27449145E-01 -7.42477088E-05 -3.37870447E+00 -2.27449145E-01 -7.42477088E-05
 -3.37870447E+00 -2.27449145E-01 -7.42477088E-05 -3.37870447E+00 -2.27449145E-01
 -7.42477088E-05 -3.37870447E+00 -2.27449145E-01 -7.42477088E-05 -3.37870447E+00
 -2.27449145E-01 -7.42477088E-05  1.06007304E+00 -8.51910409E-01  3.41557065E-05
  1.06007304E+00 -8.51910409E-01  3.41557065E-05  1.06007304E+00 -8.51910409E-01
  3.41557065E-05  1.06007304E+00 -8.51910409E-01  3.41557065E-05  1.06007304E+00
 -8.51910409E-01  3.41557065E-05  1.06007304E+00 -8.51910409E-01  3.41557065E-05
  1.06007304E+00 -8.51910409E-01  3.41557065E-05  1.06007304E+00 -8.51910409E-01
  3.41557065E-05  1.06007304E+00 -8.51910409E-01  3.41557065E-05  1.06007304E+00
 -8.51910409E-01  3.41557065E-05  1.06007304E+00 -8.51910409E-01  3.41557065E-05
  1.06007304E+00 -8.51910409E-01  3.41557065E-05  1.06007304E+00 -8.51910409E-01
  3.41557065E-05  1.06007304E+00 -8.51910409E-01  3.41557065E-05  1.06007304E+00
 -8.51910409E-01  3.41557065E-05  1.06007304E+00 -8.51910409E-01  3.41557065E-05
  1.06007304E+00 -8.51910409E-01  3.41557065E-05  3.31479046E+00  2.69888995E-01
 -3.77813145E-05  3.31479046E+00  2.69888995E-01 -3.77813145E-05  3.31479046E+00
  2.69888995E-01 -3.77813145E-05  3.31479046E+00  2.69888995E-01 -3.77813145E-05
  3.31479046E+00  2.69888995E-01 -3.77813145E-05  3.31479046E+00  2.69888995E-01
 -3.77813145E-05  3.31479046E+00  2.69888995E-01 -3.77813145E-05  3.31479046E+00
  2.69888995E-01 -3.77813145E-05  3.31479046E+00  2.69888995E-01 -3.77813145E-05
  3.31479046E+00  2.69888995E-01 -3.77813145E-05  3.31479046E+00  2.69888995E-01
 -3.77813145E-05  3.31479046E+00  2.69888995E-01 -3.77813145E-05  3.31479046E+00
  2.69888995E-01 -3.77813145E-05  3.31479046E+00  2.69888995E-01 -3.77813145E-05
  3.31479046E+00  2.69888995E-01 -3.77813145E-05  3.31479046E+00  2.69888995E-01
 -3.77813145E-05  3.31479046E+00  2.69888995E-01 -3.77813145E-05  8.45057141E-01
 -2.88299019E+00  3.28909236E-05  8.45057141E-01 -2.88299019E+00  3.28909236E-05
  8.45057141E-01 -2.88299019E+00  3.28909236E-05  8.45057141E-01 -2.88299019E+00
  3.28909236E-05  8.45057141E-01 -2.88299019E+00  3.28909236E-05  8.45057141E-01
 -2.88299019E+00  3.28909236E-05  8.45057141E-01 -2.88299019E+00  3.28909236E-05
  8.45057141E-01 -2.88299019E+00  3.28909236E-05  8.45057141E-01 -2.88299019E+00
  3.28909236E-05  8.45057141E-01 -2.88299019E+00  3.28909236E-05  3.46376358E+00
  2.30861091E+00 -2.91985494E-05  3.46376358E+00  2.30861091E+00 -2.91985494E-05
  3.46376358E+00  2.30861091E+00 -2.91985494E-05  3.46376358E+00  2.30861091E+00
 -2.91985494E-05  3.46376358E+00  2.30861091E+00 -2.91985494E-05  3.46376358E+00
  2.30861091E+00 -2.91985494E-05  3.46376358E+00  2.30861091E+00 -2.91985494E-05
  3.46376358E+00  2.30861091E+00 -2.91985494E-05  3.46376358E+00  2.30861091E+00
 -2.91985494E-05  3.46376358E+00  2.30861091E+00 -2.91985494E-05  5.05584472E+00
 -7.90726246E-01 -9.22342032E-05  5.05584472E+00 -7.90726246E-01 -9.22342032E-05
  5.05584472E+00 -7.90726246E-01 -9.22342032E-05  5.05584472E+00 -7.90726246E-01
 -9.22342032E-05  5.05584472E+00 -7.90726246E-01 -9.22342032E-05  5.05584472E+00
 -7.90726246E-01 -9.22342032E-05  5.05584472E+00 -7.90726246E-01 -9.22342032E-05
  5.05584472E+00 -7.90726246E-01 -9.22342032E-05  5.05584472E+00 -7.90726246E-01
 -9.22342032E-05  5.05584472E+00 -7.90726246E-01 -9.22342032E-05 -9.70930593E-01
  2.72728818E+00 -1.32249865E-04 -9.70930593E-01  2.72728818E+00 -1.32249865E-04
 -9.70930593E-01  2.72728818E+00 -1.32249865E-04 -9.70930593E-01  2.72728818E+00
 -1.32249865E-04 -9.70930593E-01  2.72728818E+00 -1.32249865E-04 -9.70930593E-01
  2.72728818E+00 -1.32249865E-04 -9.70930593E-01  2.72728818E+00 -1.32249865E-04
 -9.70930593E-01  2.72728818E+00 -1.32249865E-04 -9.70930593E-01  2.72728818E+00
 -1.32249865E-04 -9.70930593E-01  2.72728818E+00 -1.32249865E-04
Constraint Structure                       R   N=          24
 -1.26888001E+00  6.58256499E-01  1.39421169E-04 -3.37870447E+00 -2.27449145E-01
 -7.42477088E-05  1.06007304E+00 -8.51910409E-01  3.41557065E-05  3.31479046E+00
  2.69888995E-01 -3.77813145E-05  8.45057141E-01 -2.88299019E+00  3.28909236E-05
  3.46376358E+00  2.30861091E+00 -2.91985494E-05  5.05584472E+00 -7.90726246E-01
 -9.22342032E-05 -9.70930593E-01  2.72728818E+00 -1.32249865E-04
Num ILSW                                   I              100
ILSW                                       I   N=         100
           0           0           0           0           2           0
           0           0           0           0         419          -1
           0           0           0           0           2           0
           0           0           0           0           1           0
           1           0           0           0           0           0
           0           0      100000           0          -1           0
           0           0           0           0           0           0
           0           0           0           1           1           0
           0           0           1           0           0           0
           0           0         141          41           0           0
           0           0          60           0           0           0
           0           0           0           8           0           0
           0           0           0           0           0           0
           0           0           0           0           0           0
           0           0           0           0           0           0
           0           0           0           0           0           0
           0           0           0           0
Num RLSW                                   I               41
RLSW                                       R   N=          41
  4.70000000E-01  4.70000000E-01  7.30000000E-01  7.30000000E-01  5.30000000E-01
  0.00000000E+00  0.00000000E+00  1.00000000E+00  0.00000000E+00  0.00000000E+00
  0.00000000E+00  0.00000000E+00  1.00000000E+00  0.00000000E+00  0.00000000E+00
  0.00000000E+00  0.00000000E+00  1.00000000E+00  0.00000000E+00  0.00000000E+00
  0.00000000E+00  0.00000000E+00  1.00000000E+00  0.00000000E+00  0.00000000E+00
  0.00000000E+00  0.00000000E+00  1.00000000E+00  0.00000000E+00  0.00000000E+00
  0.00000000E+00  0.00000000E+00  1.00000000E+00  0.00000000E+00  0.00000000E+00
  0.00000000E+00  0.00000000E+00  0.00000000E+00  2.70000000E-01  2.70000000E-01
  0.00000000E+00
ECP-MxAtEC                                 I           250000
ECP-MaxLECP                                I               10
ECP-MaxAtL                                 I          2250000
ECP-MxTECP                                 I         11250000
ECP-LenNCZ                                 I                0
ECP-KFirst                                 I   N=          80
           0           0           0           0           0           0
           0           0           0           0           0           0
           0           0           0           0           0           0
           0           0           0           0           0           0
           0           0           0           0           0           0
           0           0           0           0           0           0
           0           0           0           0           0           0
           0           0           0           0           0           0
           0           0           0           0           0           0
           0           0           0           0           0           0
           0           0           0           0           0           0
           0           0           0           0           0           0
           0           0           0           0           0           0
           0           0
ECP-KLast                                  I   N=          80
           0           0           0           0           0           0
           0           0           0           0           0           0
           0           0           0           0           0           0
           0           0           0           0           0           0
           0           0           0           0           0           0
           0           0           0           0           0           0
           0           0           0           0           0           0
           0           0           0           0           0           0
           0           0           0           0           0           0
           0           0           0           0           0           0
           0           0           0           0           0           0
           0           0           0           0           0           0
           0           0           0           0           0           0
           0           0
ECP-LMax                                   I   N=           8
           0           0           0           0           0           0
           0           0
ECP-LPSkip                                 I   N=           8
           1           1           1           1           1           1
           1           1
ECP-RNFroz                                 R   N=           8
  0.00000000E+00  0.00000000E+00  0.00000000E+00  0.00000000E+00  0.00000000E+00
  0.00000000E+00  0.00000000E+00  0.00000000E+00
ECP-NLP                                    I                0
ECP-CLP1                                   R      0.000000000000000E+00
ECP-CLP2                                   R      0.000000000000000E+00
ECP-ZLP                                    R      0.000000000000000E+00
MxBond                                     I                3
NBond                                      I   N=           8
           3           1           3           3           1           1
           1           1
IBond                                      I   N=          24
           2           3           8           1           0           0
           1           4           5           3           6           7
           3           0           0           4           0           0
           4           0           0           1           0           0
RBond                                      R   N=          24
  2.00000000E+00  1.00000000E+00  1.00000000E+00  2.00000000E+00  0.00000000E+00
  0.00000000E+00  1.00000000E+00  2.00000000E+00  1.00000000E+00  2.00000000E+00
  1.00000000E+00  1.00000000E+00  1.00000000E+00  0.00000000E+00  0.00000000E+00
  1.00000000E+00  0.00000000E+00  0.00000000E+00  1.00000000E+00  0.00000000E+00
  0.00000000E+00  1.00000000E+00  0.00000000E+00  0.00000000E+00
Virial Ratio                               R      2.003278099267262E+00
SCF Energy                                 R     -1.916175049898341E+02
MP2 Energy                                 R     -1.918645521180585E+02
Total Energy                               R     -1.918645521180585E+02
Post-SCF wavefunction norm                 R      1.645332671542146E+00
RMS Force                                  R      3.182163816056671E-05
RMS Density                                R      1.871061323500527E-09
External E-field                           R   N=          35
  0.00000000E+00  0.00000000E+00  0.00000000E+00  0.00000000E+00  0.00000000E+00
  0.00000000E+00  0.00000000E+00  0.00000000E+00  0.00000000E+00  0.00000000E+00
  0.00000000E+00  0.00000000E+00  0.00000000E+00  0.00000000E+00  0.00000000E+00
  0.00000000E+00  0.00000000E+00  0.00000000E+00  0.00000000E+00  0.00000000E+00
  0.00000000E+00  0.00000000E+00  0.00000000E+00  0.00000000E+00  0.00000000E+00
  0.00000000E+00  0.00000000E+00  0.00000000E+00  0.00000000E+00  0.00000000E+00
  0.00000000E+00  0.00000000E+00  0.00000000E+00  0.00000000E+00  0.00000000E+00
IOpCl                                      I                0
IROHF                                      I                0
Alpha Orbital Energies                     R   N=         348
 -1.97279651E+01 -1.07155236E+01 -1.06542618E+01 -1.06436623E+01 -1.19495013E+00
 -9.30428719E-01 -7.54619663E-01 -6.70367908E-01 -5.65369360E-01 -5.64708546E-01
 -5.05955182E-01 -4.69873995E-01 -4.67733908E-01 -3.46974204E-01 -3.38449328E-01
 -1.73349387E-02  5.76147896E-02  7.17872779E-02  8.21212226E-02  9.74217787E-02
  1.25793332E-01  1.40269570E-01  1.53592631E-01  1.74753398E-01  1.98233321E-01
  1.99661985E-01  2.15831169E-01  2.55295500E-01  2.64229800E-01  2.87853982E-01
  3.19818585E-01  3.35596065E-01  3.60115254E-01  3.73147367E-01  3.87537690E-01
  3.95170416E-01  4.15868852E-01  4.31494577E-01  4.50822892E-01  4.58804300E-01
  4.67835268E-01  4.91162707E-01  5.40165533E-01  5.42597140E-01  5.70112766E-01
  5.79852380E-01  6.44673925E-01  6.59625801E-01  6.77282888E-01  7.10549500E-01
  7.50475829E-01  7.63479055E-01  7.82209665E-01  8.00911918E-01  8.09195508E-01
  8.15630187E-01  8.23645484E-01  8.25987844E-01  8.41635794E-01  8.63950027E-01
  8.81387393E-01  9.18980115E-01  9.22260698E-01  9.37400690E-01  9.60519484E-01
  9.62778096E-01  9.76167055E-01  1.00907543E+00  1.02259005E+00  1.07992289E+00
  1.09421969E+00  1.12458251E+00  1.16012035E+00  1.17445604E+00  1.17955142E+00
  1.20179172E+00  1.25909086E+00  1.28352283E+00  1.34621176E+00  1.40540648E+00
  1.42412981E+00  1.47184104E+00  1.48609120E+00  1.55253865E+00  1.57248150E+00
  1.62444887E+00  1.63668535E+00  1.65150330E+00  1.66852131E+00  1.69145069E+00
  1.74845630E+00  1.76288213E+00  1.76961009E+00  1.81943756E+00  1.82752942E+00
  1.86112597E+00  1.90205720E+00  1.90921845E+00  1.93720644E+00  1.93832925E+00
  1.96142936E+00  1.98661653E+00  1.99868566E+00  2.01756287E+00  2.02708128E+00
  2.06171288E+00  2.10326991E+00  2.11482939E+00  2.13879728E+00  2.14317779E+00
  2.16795222E+00  2.18433812E+00  2.19953344E+00  2.23409358E+00  2.26508631E+00
  2.29393187E+00  2.35414474E+00  2.36902505E+00  2.39237519E+00  2.43669965E+00
  2.46085930E+00  2.46620080E+00  2.49038845E+00  2.49196989E+00  2.53782407E+00
  2.55288443E+00  2.57094139E+00  2.59235345E+00  2.61246159E+00  2.64630517E+00
  2.65381867E+00  2.65766394E+00  2.67519980E+00  2.70009427E+00  2.74684947E+00
  2.75837877E+00  2.78321167E+00  2.86244390E+00  2.87515672E+00  2.87978629E+00
  2.89167608E+00  2.96302645E+00  2.99730283E+00  3.01107377E+00  3.06055199E+00
  3.17494229E+00  3.19030311E+00  3.29802796E+00  3.30090048E+00  3.33803198E+00
  3.36069725E+00  3.40260908E+00  3.42649712E+00  3.45340316E+00  3.50096948E+00