cyanomethane_opt                                                        
Freq      RB2PLYPD3-FC                                                def2QZVP            
Number of atoms                            I                6
Info1-9                                    I   N=           9
          17          15        1002           0           0         100
           6           2           1
Charge                                     I                0
Multiplicity                               I                1
Number of electrons                        I               22
Number of alpha electrons                  I               11
Number of beta electrons                   I               11
Number of basis functions                  I              261
Number of independent functions            I              261
Number of point charges in /Mol/           I                0
Number of translation vectors              I                0
Atomic numbers                             I   N=           6
           6           6           7           1           1           1
Nuclear charges                            R   N=           6
  6.00000000E+00  6.00000000E+00  7.00000000E+00  1.00000000E+00  1.00000000E+00
  1.00000000E+00
Current cartesian coordinates              R   N=          18
  2.22403593E+00 -1.59257260E-06 -1.60667568E-05 -5.26693839E-01 -4.83595771E-05
 -1.28612900E-05 -2.70964023E+00  2.09395466E-05  6.34414386E-06  2.92777394E+00
  2.09467045E-01  1.91736570E+00  2.92777591E+00  1.55587002E+00 -1.13996945E+00
  2.92787921E+00 -1.76518393E+00 -7.77267084E-01
Force Field                                I                0
Int Atom Types                             I   N=           6
           0           0           0           0           0           0
MM charges                                 R   N=           6
  0.00000000E+00  0.00000000E+00  0.00000000E+00  0.00000000E+00  0.00000000E+00
  0.00000000E+00
Integer atomic weights                     I   N=           6
          12          12          14           1           1           1
Real atomic weights                        R   N=           6
  1.20000000E+01  1.20000000E+01  1.40030740E+01  1.00782504E+00  1.00782504E+00
  1.00782504E+00
Atom fragment info                         I   N=           6
           0           0           0           0           0           0
Atom residue num                           I   N=           6
           0           0           0           0           0           0
Nuclear spins                              I   N=           6
           0           0           2           1           1           1
Nuclear ZEff                               R   N=           6
 -3.60000000E+00 -3.60000000E+00 -4.55000000E+00 -1.00000000E+00 -1.00000000E+00
 -1.00000000E+00
Nuclear ZNuc                               R   N=           6
  6.00000000E+00  6.00000000E+00  7.00000000E+00  1.00000000E+00  1.00000000E+00
  1.00000000E+00
Nuclear QMom                               R   N=           6
  0.00000000E+00  0.00000000E+00  2.04400000E+00  0.00000000E+00  0.00000000E+00
  0.00000000E+00
Nuclear GFac                               R   N=           6
  0.00000000E+00  0.00000000E+00  4.03761000E-01  2.79284600E+00  2.79284600E+00
  2.79284600E+00
MicOpt                                     I   N=           6
          -1          -1          -1          -1          -1          -1
Number of contracted shells                I               81
Number of primitive shells                 I              126
Pure/Cartesian d shells                    I                0
Pure/Cartesian f shells                    I                0
Highest angular momentum                   I                4
Largest degree of contraction              I                8
Shell types                                I   N=          81
           0           0           0           0           0           0
           0           1           1           1           1          -2
          -2          -2          -3          -3          -4           0
           0           0           0           0           0           0
           1           1           1           1          -2          -2
          -2          -3          -3          -4           0           0
           0           0           0           0           0           1
           1           1           1          -2          -2          -2
          -3          -3          -4           0           0           0
           0           1           1           1          -2          -2
          -3           0           0           0           0           1
           1           1          -2          -2          -3           0
           0           0           0           1           1           1
          -2          -2          -3
Number of primitives per shell             I   N=          81
           8           2           1           1           1           1
           1           5           1           1           1           1
           1           1           1           1           1           8
           2           1           1           1           1           1
           5           1           1           1           1           1
           1           1           1           1           8           2
           1           1           1           1           1           5
           1           1           1           1           1           1
           1           1           1           4           1           1
           1           1           1           1           1           1
           1           4           1           1           1           1
           1           1           1           1           1           4
           1           1           1           1           1           1
           1           1           1
Shell to atom map                          I   N=          81
           1           1           1           1           1           1
           1           1           1           1           1           1
           1           1           1           1           1           2
           2           2           2           2           2           2
           2           2           2           2           2           2
           2           2           2           2           3           3
           3           3           3           3           3           3
           3           3           3           3           3           3
           3           3           3           4           4           4
           4           4           4           4           4           4
           4           5           5           5           5           5
           5           5           5           5           5           6
           6           6           6           6           6           6
           6           6           6
Primitive exponents                        R   N=         126
  6.70250710E+04  1.00399865E+04  2.28493169E+03  6.47141221E+02  2.11094723E+02
  7.61776439E+01  2.96338392E+01  1.21877851E+01  5.30260063E+01  1.52585028E+01
  5.24039575E+00  2.29050224E+00  6.96732830E-01  2.75993374E-01  1.07398844E-01
  1.05125551E+02  2.48844611E+01  7.86372308E+00  2.84070018E+00  1.12271373E+00
  4.60507256E-01  1.89375309E-01  7.59837916E-02  1.84800000E+00  6.49000000E-01
  2.28000000E-01  1.41900000E+00  4.85000000E-01  1.01100000E+00  6.70250710E+04
  1.00399865E+04  2.28493169E+03  6.47141221E+02  2.11094723E+02  7.61776439E+01
  2.96338392E+01  1.21877851E+01  5.30260063E+01  1.52585028E+01  5.24039575E+00
  2.29050224E+00  6.96732830E-01  2.75993374E-01  1.07398844E-01  1.05125551E+02
  2.48844611E+01  7.86372308E+00  2.84070018E+00  1.12271373E+00  4.60507256E-01
  1.89375309E-01  7.59837916E-02  1.84800000E+00  6.49000000E-01  2.28000000E-01
  1.41900000E+00  4.85000000E-01  1.01100000E+00  9.07268892E+04  1.35905288E+04
  3.09298838E+03  8.75998764E+02  2.85744700E+02  1.03119134E+02  4.01285568E+01
  1.65280957E+01  6.93909610E+01  2.04282006E+01  7.12925880E+00  3.13243049E+00
  9.87557787E-01  3.87657213E-01  1.49098831E-01  1.50057427E+02  3.54915995E+01
  1.12478642E+01  4.09003052E+00  1.62205731E+00  6.64422615E-01  2.70997701E-01
  1.06887500E-01  2.83700000E+00  9.68000000E-01  3.35000000E-01  2.02700000E+00
  6.85000000E-01  1.42700000E+00  1.90691690E+02  2.86055320E+01  6.50959430E+00
  1.84124550E+00  5.98537250E-01  2.13976240E-01  8.03162860E-02  2.29200000E+00
  8.38000000E-01  2.92000000E-01  2.06200000E+00  6.62000000E-01  1.39700000E+00
  1.90691690E+02  2.86055320E+01  6.50959430E+00  1.84124550E+00  5.98537250E-01
  2.13976240E-01  8.03162860E-02  2.29200000E+00  8.38000000E-01  2.92000000E-01
  2.06200000E+00  6.62000000E-01  1.39700000E+00  1.90691690E+02  2.86055320E+01
  6.50959430E+00  1.84124550E+00  5.98537250E-01  2.13976240E-01  8.03162860E-02
  2.29200000E+00  8.38000000E-01  2.92000000E-01  2.06200000E+00  6.62000000E-01
  1.39700000E+00
Contraction coefficients                   R   N=         126
  7.09883366E-05  5.51759078E-04  2.89330111E-03  1.21111499E-02  4.28226973E-02
  1.29053329E-01  3.18146478E-01  5.91790275E-01  9.13649169E-02  9.28761090E-01
  1.00000000E+00  1.00000000E+00  1.00000000E+00  1.00000000E+00  1.00000000E+00
  2.49653501E-03  1.95463956E-02  8.88349466E-02  2.94789686E-01  7.02715999E-01
  1.00000000E+00  1.00000000E+00  1.00000000E+00  1.00000000E+00  1.00000000E+00
  1.00000000E+00  1.00000000E+00  1.00000000E+00  1.00000000E+00  7.09883366E-05
  5.51759078E-04  2.89330111E-03  1.21111499E-02  4.28226973E-02  1.29053329E-01
  3.18146478E-01  5.91790275E-01  9.13649169E-02  9.28761090E-01  1.00000000E+00
  1.00000000E+00  1.00000000E+00  1.00000000E+00  1.00000000E+00  2.49653501E-03
  1.95463956E-02  8.88349466E-02  2.94789686E-01  7.02715999E-01  1.00000000E+00
  1.00000000E+00  1.00000000E+00  1.00000000E+00  1.00000000E+00  1.00000000E+00
  1.00000000E+00  1.00000000E+00  1.00000000E+00  7.09823459E-05  5.51712516E-04
  2.89306784E-03  1.21112122E-02  4.28341278E-02  1.29198809E-01  3.18818920E-01
  5.90844885E-01  9.46592132E-02  9.25496499E-01  1.00000000E+00  1.00000000E+00
  1.00000000E+00  1.00000000E+00  1.00000000E+00 -2.45005116E-03 -1.94862675E-02
 -9.03555190E-02 -2.99446873E-01 -6.96789730E-01  1.00000000E+00  1.00000000E+00
  1.00000000E+00  1.00000000E+00  1.00000000E+00  1.00000000E+00  1.00000000E+00
  1.00000000E+00  1.00000000E+00  5.34263696E-03  4.12523382E-02  2.10993526E-01
  8.12128546E-01  1.00000000E+00  1.00000000E+00  1.00000000E+00  1.00000000E+00
  1.00000000E+00  1.00000000E+00  1.00000000E+00  1.00000000E+00  1.00000000E+00
  5.34263696E-03  4.12523382E-02  2.10993526E-01  8.12128546E-01  1.00000000E+00
  1.00000000E+00  1.00000000E+00  1.00000000E+00  1.00000000E+00  1.00000000E+00
  1.00000000E+00  1.00000000E+00  1.00000000E+00  5.34263696E-03  4.12523382E-02
  2.10993526E-01  8.12128546E-01  1.00000000E+00  1.00000000E+00  1.00000000E+00
  1.00000000E+00  1.00000000E+00  1.00000000E+00  1.00000000E+00  1.00000000E+00
  1.00000000E+00
Coordinates of each shell                  R   N=         243
  2.22403593E+00 -1.59257260E-06 -1.60667568E-05  2.22403593E+00 -1.59257260E-06
 -1.60667568E-05  2.22403593E+00 -1.59257260E-06 -1.60667568E-05  2.22403593E+00
 -1.59257260E-06 -1.60667568E-05  2.22403593E+00 -1.59257260E-06 -1.60667568E-05
  2.22403593E+00 -1.59257260E-06 -1.60667568E-05  2.22403593E+00 -1.59257260E-06
 -1.60667568E-05  2.22403593E+00 -1.59257260E-06 -1.60667568E-05  2.22403593E+00
 -1.59257260E-06 -1.60667568E-05  2.22403593E+00 -1.59257260E-06 -1.60667568E-05
  2.22403593E+00 -1.59257260E-06 -1.60667568E-05  2.22403593E+00 -1.59257260E-06
 -1.60667568E-05  2.22403593E+00 -1.59257260E-06 -1.60667568E-05  2.22403593E+00
 -1.59257260E-06 -1.60667568E-05  2.22403593E+00 -1.59257260E-06 -1.60667568E-05
  2.22403593E+00 -1.59257260E-06 -1.60667568E-05  2.22403593E+00 -1.59257260E-06
 -1.60667568E-05 -5.26693839E-01 -4.83595771E-05 -1.28612900E-05 -5.26693839E-01
 -4.83595771E-05 -1.28612900E-05 -5.26693839E-01 -4.83595771E-05 -1.28612900E-05
 -5.26693839E-01 -4.83595771E-05 -1.28612900E-05 -5.26693839E-01 -4.83595771E-05
 -1.28612900E-05 -5.26693839E-01 -4.83595771E-05 -1.28612900E-05 -5.26693839E-01
 -4.83595771E-05 -1.28612900E-05 -5.26693839E-01 -4.83595771E-05 -1.28612900E-05
 -5.26693839E-01 -4.83595771E-05 -1.28612900E-05 -5.26693839E-01 -4.83595771E-05
 -1.28612900E-05 -5.26693839E-01 -4.83595771E-05 -1.28612900E-05 -5.26693839E-01
 -4.83595771E-05 -1.28612900E-05 -5.26693839E-01 -4.83595771E-05 -1.28612900E-05
 -5.26693839E-01 -4.83595771E-05 -1.28612900E-05 -5.26693839E-01 -4.83595771E-05
 -1.28612900E-05 -5.26693839E-01 -4.83595771E-05 -1.28612900E-05 -5.26693839E-01
 -4.83595771E-05 -1.28612900E-05 -2.70964023E+00  2.09395466E-05  6.34414386E-06
 -2.70964023E+00  2.09395466E-05  6.34414386E-06 -2.70964023E+00  2.09395466E-05
  6.34414386E-06 -2.70964023E+00  2.09395466E-05  6.34414386E-06 -2.70964023E+00
  2.09395466E-05  6.34414386E-06 -2.70964023E+00  2.09395466E-05  6.34414386E-06
 -2.70964023E+00  2.09395466E-05  6.34414386E-06 -2.70964023E+00  2.09395466E-05
  6.34414386E-06 -2.70964023E+00  2.09395466E-05  6.34414386E-06 -2.70964023E+00
  2.09395466E-05  6.34414386E-06 -2.70964023E+00  2.09395466E-05  6.34414386E-06
 -2.70964023E+00  2.09395466E-05  6.34414386E-06 -2.70964023E+00  2.09395466E-05
  6.34414386E-06 -2.70964023E+00  2.09395466E-05  6.34414386E-06 -2.70964023E+00
  2.09395466E-05  6.34414386E-06 -2.70964023E+00  2.09395466E-05  6.34414386E-06
 -2.70964023E+00  2.09395466E-05  6.34414386E-06  2.92777394E+00  2.09467045E-01
  1.91736570E+00  2.92777394E+00  2.09467045E-01  1.91736570E+00  2.92777394E+00
  2.09467045E-01  1.91736570E+00  2.92777394E+00  2.09467045E-01  1.91736570E+00
  2.92777394E+00  2.09467045E-01  1.91736570E+00  2.92777394E+00  2.09467045E-01
  1.91736570E+00  2.92777394E+00  2.09467045E-01  1.91736570E+00  2.92777394E+00
  2.09467045E-01  1.91736570E+00  2.92777394E+00  2.09467045E-01  1.91736570E+00
  2.92777394E+00  2.09467045E-01  1.91736570E+00  2.92777591E+00  1.55587002E+00
 -1.13996945E+00  2.92777591E+00  1.55587002E+00 -1.13996945E+00  2.92777591E+00
  1.55587002E+00 -1.13996945E+00  2.92777591E+00  1.55587002E+00 -1.13996945E+00
  2.92777591E+00  1.55587002E+00 -1.13996945E+00  2.92777591E+00  1.55587002E+00
 -1.13996945E+00  2.92777591E+00  1.55587002E+00 -1.13996945E+00  2.92777591E+00
  1.55587002E+00 -1.13996945E+00  2.92777591E+00  1.55587002E+00 -1.13996945E+00
  2.92777591E+00  1.55587002E+00 -1.13996945E+00  2.92787921E+00 -1.76518393E+00
 -7.77267084E-01  2.92787921E+00 -1.76518393E+00 -7.77267084E-01  2.92787921E+00
 -1.76518393E+00 -7.77267084E-01  2.92787921E+00 -1.76518393E+00 -7.77267084E-01
  2.92787921E+00 -1.76518393E+00 -7.77267084E-01  2.92787921E+00 -1.76518393E+00
 -7.77267084E-01  2.92787921E+00 -1.76518393E+00 -7.77267084E-01  2.92787921E+00
 -1.76518393E+00 -7.77267084E-01  2.92787921E+00 -1.76518393E+00 -7.77267084E-01
  2.92787921E+00 -1.76518393E+00 -7.77267084E-01
Constraint Structure                       R   N=          18
  2.22403593E+00 -1.59257260E-06 -1.60667568E-05 -5.26693839E-01 -4.83595771E-05
 -1.28612900E-05 -2.70964023E+00  2.09395466E-05  6.34414386E-06  2.92777394E+00
  2.09467045E-01  1.91736570E+00  2.92777591E+00  1.55587002E+00 -1.13996945E+00
  2.92787921E+00 -1.76518393E+00 -7.77267084E-01
Num ILSW                                   I              100
ILSW                                       I   N=         100
           0           0           0           0           2           0
           0           0           0           0         419          -1
           0           0           0           0           2           0
           0           0           0           0           1           0
           1           0           0           0           0           0
           0           0      100000           0          -1           0
           0           0           0           0           0           0
           0           0           0           1           1           0
           0           0           1           0           0           0
           0           0         141          41           0           0
           0           0          60           0           0           0
           0           0           0           6           0           0
           0           0           0           0           0           0
           0           0           0           0           0           0
           0           0           0           0           0           0
           0           0           0           0           0           0
           0           0           0           0
Num RLSW                                   I               41
RLSW                                       R   N=          41
  4.70000000E-01  4.70000000E-01  7.30000000E-01  7.30000000E-01  5.30000000E-01
  0.00000000E+00  0.00000000E+00  1.00000000E+00  0.00000000E+00  0.00000000E+00
  0.00000000E+00  0.00000000E+00  1.00000000E+00  0.00000000E+00  0.00000000E+00
  0.00000000E+00  0.00000000E+00  1.00000000E+00  0.00000000E+00  0.00000000E+00
  0.00000000E+00  0.00000000E+00  1.00000000E+00  0.00000000E+00  0.00000000E+00
  0.00000000E+00  0.00000000E+00  1.00000000E+00  0.00000000E+00  0.00000000E+00
  0.00000000E+00  0.00000000E+00  1.00000000E+00  0.00000000E+00  0.00000000E+00
  0.00000000E+00  0.00000000E+00  0.00000000E+00  2.70000000E-01  2.70000000E-01
  0.00000000E+00
ECP-MxAtEC                                 I           250000
ECP-MaxLECP                                I               10
ECP-MaxAtL                                 I          2250000
ECP-MxTECP                                 I         11250000
ECP-LenNCZ                                 I                0
ECP-KFirst                                 I   N=          60
           0           0           0           0           0           0
           0           0           0           0           0           0
           0           0           0           0           0           0
           0           0           0           0           0           0
           0           0           0           0           0           0
           0           0           0           0           0           0
           0           0           0           0           0           0
           0           0           0           0           0           0
           0           0           0           0           0           0
           0           0           0           0           0           0
ECP-KLast                                  I   N=          60
           0           0           0           0           0           0
           0           0           0           0           0           0
           0           0           0           0           0           0
           0           0           0           0           0           0
           0           0           0           0           0           0
           0           0           0           0           0           0
           0           0           0           0           0           0
           0           0           0           0           0           0
           0           0           0           0           0           0
           0           0           0           0           0           0
ECP-LMax                                   I   N=           6
           0           0           0           0           0           0
ECP-LPSkip                                 I   N=           6
           1           1           1           1           1           1
ECP-RNFroz                                 R   N=           6
  0.00000000E+00  0.00000000E+00  0.00000000E+00  0.00000000E+00  0.00000000E+00
  0.00000000E+00
ECP-NLP                                    I                0
ECP-CLP1                                   R      0.000000000000000E+00
ECP-CLP2                                   R      0.000000000000000E+00
ECP-ZLP                                    R      0.000000000000000E+00
MxBond                                     I                4
NBond                                      I   N=           6
           4           2           1           1           1           1
IBond                                      I   N=          24
           2           4           5           6           1           3
           0           0           2           0           0           0
           1           0           0           0           1           0
           0           0           1           0           0           0
RBond                                      R   N=          24
  1.00000000E+00  1.00000000E+00  1.00000000E+00  1.00000000E+00  1.00000000E+00
  3.00000000E+00  0.00000000E+00  0.00000000E+00  3.00000000E+00  0.00000000E+00
  0.00000000E+00  0.00000000E+00  1.00000000E+00  0.00000000E+00  0.00000000E+00
  0.00000000E+00  1.00000000E+00  0.00000000E+00  0.00000000E+00  0.00000000E+00
  1.00000000E+00  0.00000000E+00  0.00000000E+00  0.00000000E+00
Virial Ratio                               R      2.003589844770063E+00
SCF Energy                                 R     -1.325359010982698E+02
MP2 Energy                                 R     -1.327163625395984E+02
Total Energy                               R     -1.327163625395984E+02
Post-SCF wavefunction norm                 R      1.599952900075515E+00
RMS Force                                  R      6.647016802861169E-06
RMS Density                                R      5.018992641575825E-10
External E-field                           R   N=          35
  0.00000000E+00  0.00000000E+00  0.00000000E+00  0.00000000E+00  0.00000000E+00
  0.00000000E+00  0.00000000E+00  0.00000000E+00  0.00000000E+00  0.00000000E+00
  0.00000000E+00  0.00000000E+00  0.00000000E+00  0.00000000E+00  0.00000000E+00
  0.00000000E+00  0.00000000E+00  0.00000000E+00  0.00000000E+00  0.00000000E+00
  0.00000000E+00  0.00000000E+00  0.00000000E+00  0.00000000E+00  0.00000000E+00
  0.00000000E+00  0.00000000E+00  0.00000000E+00  0.00000000E+00  0.00000000E+00
  0.00000000E+00  0.00000000E+00  0.00000000E+00  0.00000000E+00  0.00000000E+00
IOpCl                                      I                0
IROHF                                      I                0
Alpha Orbital Energies                     R   N=         261
 -1.48419965E+01 -1.06701836E+01 -1.06625686E+01 -1.04088896E+00 -8.93157073E-01
 -5.97753488E-01 -5.39977629E-01 -5.39963875E-01 -4.47860733E-01 -3.90436268E-01
 -3.90433915E-01  3.78135454E-02  7.93977533E-02  7.93994302E-02  1.01814387E-01
  1.14542160E-01  1.14551637E-01  1.54234664E-01  1.63370891E-01  1.63384103E-01
  2.00953704E-01  2.00980205E-01  2.53688596E-01  3.27699312E-01  3.46857331E-01
  3.46865326E-01  3.88694639E-01  4.00384442E-01  4.00392917E-01  4.02104571E-01
  4.74218111E-01  5.11036089E-01  5.11046099E-01  5.93426961E-01  5.93443215E-01
  6.13902993E-01  6.74296408E-01  6.74306512E-01  6.92419495E-01  7.00774488E-01
  7.92480409E-01  7.92492778E-01  8.24371243E-01  8.24373269E-01  8.34694676E-01
  8.66410048E-01  9.25278563E-01  9.25279602E-01  9.62764089E-01  9.62781825E-01
  9.70151389E-01  1.05883285E+00  1.07948305E+00  1.07950291E+00  1.12230310E+00
  1.13651831E+00  1.13654954E+00  1.22813226E+00  1.22813939E+00  1.23405264E+00
  1.35620401E+00  1.35622074E+00  1.47269628E+00  1.47356184E+00  1.47358291E+00
  1.54511669E+00  1.65962122E+00  1.65964565E+00  1.69897729E+00  1.74530503E+00
  1.78451595E+00  1.78552251E+00  1.78553123E+00  1.89110261E+00  1.92412818E+00
  1.92413434E+00  1.93764222E+00  1.99380147E+00  1.99381326E+00  2.01077334E+00
  2.05401593E+00  2.05402652E+00  2.13506172E+00  2.13507897E+00  2.20894380E+00
  2.21090784E+00  2.23118869E+00  2.23122160E+00  2.24013692E+00  2.35399268E+00
  2.35400650E+00  2.43175956E+00  2.51130474E+00  2.51132844E+00  2.57776282E+00
  2.57778390E+00  2.60057238E+00  2.67092218E+00  2.70293408E+00  2.72370732E+00
  2.72372684E+00  2.77734276E+00  2.77735554E+00  2.86921880E+00  2.90319871E+00
  2.90320805E+00  2.92821874E+00  2.94567665E+00  2.96509089E+00  2.96511474E+00
  3.08297815E+00  3.11230058E+00  3.11231331E+00  3.21346319E+00  3.30999165E+00
  3.31007627E+00  3.36844496E+00  3.36845969E+00  3.37723681E+00  3.41075555E+00
  3.48565478E+00  3.55246683E+00  3.55246996E+00  3.73611611E+00  3.74232240E+00
  3.74233768E+00  3.88205371E+00  3.92243833E+00  3.92244950E+00  3.98116233E+00
  3.98120882E+00  4.01406109E+00  4.05509971E+00  4.05512159E+00  4.25971740E+00
  4.25972360E+00  4.56005096E+00  4.91062661E+00  4.91062852E+00  5.08254383E+00
  5.11250032E+00  5.11251786E+00  5.20244634E+00  5.20245823E+00  5.20410192E+00
  5.20711444E+00  5.30367554E+00  5.45187358E+00  5.45188080E+00  5.46486871E+00
  5.65955009E+00  5.65957286E+00  5.86051157E+00  5.86052130E+00  5.91593119E+00
  5.93929471E+00  5.93930943E+00  5.99692267E+00  5.99693392E+00  5.99696282E+00
  6.03301537E+00  6.03304804E+00  6.04935243E+00  6.05436170E+00  6.07926369E+00
  6.13698951E+00  6.19647545E+00  6.19648492E+00  6.23783449E+00  6.32175988E+00
  6.32177980E+00  6.42744232E+00  6.44488241E+00  6.44497120E+00  6.58579778E+00
  6.61223770E+00  6.61227694E+00  6.64158730E+00  6.90974000E+00  6.90976869E+00
  6.96164183E+00  6.96165820E+00  7.02693257E+00  7.02695177E+00  7.10300149E+00
  7.11159205E+00  7.13923825E+00  7.21247950E+00  7.21250154E+00  7.48887678E+00
  7.49525162E+00  7.49529370E+00  7.51402546E+00  7.59673089E+00  7.59678061E+00
  7.61802842E+00  7.66086292E+00  7.74770118E+00  7.74772600E+00  7.81332055E+00
  7.87576716E+00  7.87582824E+00  7.94868319E+00  7.94875719E+00  8.03736409E+00
  8.30867823E+00  8.30871187E+00  8.31492514E+00  8.43684613E+00  8.43685999E+00
  8.47438274E+00  8.47440695E+00  8.49002919E+00  8.49674575E+00  8.57346451E+00
  8.57351195E+00  8.59762634E+00  8.66483190E+00  8.66603066E+00  8.66606637E+00
  8.66872123E+00  8.68126979E+00  8.82960024E+00  8.87521416E+00  8.87523090E+00
  9.04441243E+00  9.08476496E+00  9.08484901E+00  9.12406139E+00  9.12407027E+00
  9.16296560E+00  9.26702745E+00  9.26706847E+00  9.75470483E+00  9.75471436E+00
  9.86293612E+00  9.86299785E+00  9.93708131E+00  9.99376243E+00  9.99381987E+00
  1.00970108E+01  1.01643257E+01  1.01667871E+01  1.01668047E+01  1.03194738E+01
  1.04706736E+01  1.04707663E+01  1.06491636E+01  1.13807385E+01  1.17757646E+01
  1.17757868E+01  1.20284565E+01  1.20284774E+01  1.31258202E+01  1.35559304E+01
  2.92051531E+01  2.95674959E+01  3.83231249E+01  1.48862735E+02  1.49199554E+02
  1.98242868E+02
Alpha MO coefficients                      R   N=       68121
  1.25934262E-06 -2.61352084E-06  8.71437219E-06 -8.29716907E-06 -4.97684319E-05
 -1.00018452E-03 -7.13581940E-04  2.83745644E-05  8.04161665E-10  1.63898063E-10
 -1.71584937E-04 -2.14818337E-08 -1.02207658E-08 -1.22147151E-03  7.57768753E-08
 -5.07024070E-08  3.66486970E-04 -4.54187450E-09  8.85546568E-09  9.41332213E-06
  9.55092273E-11 -6.67701746E-11 -1.63044473E-05 -7.68310480E-10 -6.79372653E-05
 -1.20499428E-09  5.63529710E-10  1.17675488E-04  7.10299126E-09 -2.03946624E-04
 -4.06459342E-08 -3.13597642E-08  3.53314411E-04 -5.88706661E-08 -1.62370334E-06
  6.22477167E-06 -6.72595967E-07 -1.25828156E-06 -2.11262696E-10 -8.03532409E-06
 -1.76129597E-07  1.92111536E-06  5.54064529E-05  7.95553685E-07  1.49582864E-06
 -6.07713116E-09 -7.15175593E-05  2.15413508E-07  1.60501933E-05 -5.40440483E-06
 -7.56018982E-10 -2.39264430E-05 -2.58843396E-06 -6.12724506E-06 -2.43163030E-09
  3.16546429E-05 -9.73022283E-07  6.99465607E-05 -2.81045391E-05  1.03846530E-04
 -3.28115564E-04  5.26513106E-04  7.12574011E-03  4.07142789E-03 -5.15730007E-05
  3.01545789E-09  1.28964291E-09 -4.23365881E-03  1.17376157E-07  3.11233953E-08
 -3.93612673E-03  5.81586928E-08  1.63191095E-08  4.13465288E-04  1.56467721E-08
  5.48426382E-09 -4.71584070E-05 -6.34087503E-10  9.54333826E-11  8.16803534E-05
 -3.96119563E-09 -4.55192937E-04 -1.84443045E-08 -5.77978066E-10  7.88418843E-04
 -6.18098324E-08 -8.03551297E-04 -3.52014757E-08  4.40811825E-09  1.39178127E-03
 -1.53066077E-07  7.68124627E-07  1.09902867E-04  3.16523473E-07  5.99447803E-07
 -3.57940053E-10 -1.41883353E-04  9.32662005E-08 -3.68153511E-06  9.05658670E-05
 -1.52744095E-06 -2.85138766E-06  1.09703776E-09 -1.16921669E-04 -3.88762711E-07
 -2.58290236E-05 -8.59206452E-07  4.28949900E-11  3.85038321E-05 -4.12280919E-07
 -9.72162547E-07  7.82261068E-12 -5.09357851E-05 -1.51197406E-07  5.56728792E-01
 -4.02808541E-03  3.64331704E-01  1.73997223E-01  1.46421072E-02 -9.44236094E-03
 -5.16442224E-03 -2.17940847E-03  8.56072605E-08  2.10168094E-08 -2.52361903E-03
  9.47678320E-08  2.35222122E-08 -4.55006989E-03  1.14639014E-07  3.97864950E-08
 -8.30209401E-04  1.91895276E-08  3.22652747E-09 -1.55443457E-04 -4.80788650E-09
  2.19506663E-10  2.69235093E-04 -1.89784742E-08  2.33304609E-04  7.36378995E-09
 -3.99353427E-10 -4.04093328E-04  3.14584701E-08  8.64125216E-04  2.64456475E-08
 -1.01840124E-09 -1.49670598E-03  8.53157384E-08 -1.51483446E-07 -7.73459650E-05
 -6.10778551E-08 -1.21004262E-07  2.71603414E-11  9.98531566E-05 -2.59140059E-08
  4.04321224E-07  2.80214324E-04  1.61224629E-07  3.25982432E-07 -1.39342943E-10
 -3.61754641E-04  7.86502545E-08 -5.47295296E-06  7.97077032E-09 -2.06547887E-11
  8.15506565E-06  3.29333880E-09  9.59989407E-09  4.38860552E-11 -1.07901635E-05
  3.25495048E-09 -5.89774047E-06  3.10804323E-05  7.11766045E-04 -2.05816311E-04
 -1.02804492E-06 -1.03800984E-08 -8.51845891E-08  5.50324821E-07 -1.45031952E-06
 -1.33206122E-05  3.38875795E-06 -2.77060385E-05 -2.53754990E-04 -1.61926428E-06
 -1.53067134E-06  3.73492423E-08  3.13803655E-06 -1.67208768E-07  3.95091773E-05