methanol_opt                                                            
Freq      RB2PLYPD3-FC                                                def2QZVP            
Number of atoms                            I                6
Info1-9                                    I   N=           9
          17          15        1002           0           0         100
           6           2           1
Charge                                     I                0
Multiplicity                               I                1
Number of electrons                        I               18
Number of alpha electrons                  I                9
Number of beta electrons                   I                9
Number of basis functions                  I              234
Number of independent functions            I              234
Number of point charges in /Mol/           I                0
Number of translation vectors              I                0
Atomic numbers                             I   N=           6
           6           8           1           1           1           1
Nuclear charges                            R   N=           6
  6.00000000E+00  8.00000000E+00  1.00000000E+00  1.00000000E+00  1.00000000E+00
  1.00000000E+00
Current cartesian coordinates              R   N=          18
 -1.25853209E+00 -3.80677070E-02 -5.20417043E-18  1.41279448E+00  2.30053936E-01
 -1.44849410E-16 -1.93501569E+00 -1.02530938E+00  1.67877837E+00 -1.93501412E+00
 -1.02532749E+00 -1.67876823E+00 -2.04104866E+00  1.85742730E+00 -1.05406682E-05
  2.15991516E+00 -1.41881567E+00  3.11276497E-07
Force Field                                I                0
Int Atom Types                             I   N=           6
           0           0           0           0           0           0
MM charges                                 R   N=           6
  0.00000000E+00  0.00000000E+00  0.00000000E+00  0.00000000E+00  0.00000000E+00
  0.00000000E+00
Integer atomic weights                     I   N=           6
          12          16           1           1           1           1
Real atomic weights                        R   N=           6
  1.20000000E+01  1.59949146E+01  1.00782504E+00  1.00782504E+00  1.00782504E+00
  1.00782504E+00
Atom fragment info                         I   N=           6
           0           0           0           0           0           0
Atom residue num                           I   N=           6
           0           0           0           0           0           0
Nuclear spins                              I   N=           6
           0           0           1           1           1           1
Nuclear ZEff                               R   N=           6
 -3.60000000E+00 -5.60000000E+00 -1.00000000E+00 -1.00000000E+00 -1.00000000E+00
 -1.00000000E+00
Nuclear ZNuc                               R   N=           6
  6.00000000E+00  8.00000000E+00  1.00000000E+00  1.00000000E+00  1.00000000E+00
  1.00000000E+00
Nuclear QMom                               R   N=           6
  0.00000000E+00  0.00000000E+00  0.00000000E+00  0.00000000E+00  0.00000000E+00
  0.00000000E+00
Nuclear GFac                               R   N=           6
  0.00000000E+00  0.00000000E+00  2.79284600E+00  2.79284600E+00  2.79284600E+00
  2.79284600E+00
MicOpt                                     I   N=           6
          -1          -1          -1          -1          -1          -1
Number of contracted shells                I               74
Number of primitive shells                 I              110
Pure/Cartesian d shells                    I                0
Pure/Cartesian f shells                    I                0
Highest angular momentum                   I                4
Largest degree of contraction              I                8
Shell types                                I   N=          74
           0           0           0           0           0           0
           0           1           1           1           1          -2
          -2          -2          -3          -3          -4           0
           0           0           0           0           0           0
           1           1           1           1          -2          -2
          -2          -3          -3          -4           0           0
           0           0           1           1           1          -2
          -2          -3           0           0           0           0
           1           1           1          -2          -2          -3
           0           0           0           0           1           1
           1          -2          -2          -3           0           0
           0           0           1           1           1          -2
          -2          -3
Number of primitives per shell             I   N=          74
           8           2           1           1           1           1
           1           5           1           1           1           1
           1           1           1           1           1           8
           2           1           1           1           1           1
           5           1           1           1           1           1
           1           1           1           1           4           1
           1           1           1           1           1           1
           1           1           4           1           1           1
           1           1           1           1           1           1
           4           1           1           1           1           1
           1           1           1           1           4           1
           1           1           1           1           1           1
           1           1
Shell to atom map                          I   N=          74
           1           1           1           1           1           1
           1           1           1           1           1           1
           1           1           1           1           1           2
           2           2           2           2           2           2
           2           2           2           2           2           2
           2           2           2           2           3           3
           3           3           3           3           3           3
           3           3           4           4           4           4
           4           4           4           4           4           4
           5           5           5           5           5           5
           5           5           5           5           6           6
           6           6           6           6           6           6
           6           6
Primitive exponents                        R   N=         110
  6.70250710E+04  1.00399865E+04  2.28493169E+03  6.47141221E+02  2.11094723E+02
  7.61776439E+01  2.96338392E+01  1.21877851E+01  5.30260063E+01  1.52585028E+01
  5.24039575E+00  2.29050224E+00  6.96732830E-01  2.75993374E-01  1.07398844E-01
  1.05125551E+02  2.48844611E+01  7.86372308E+00  2.84070018E+00  1.12271373E+00
  4.60507256E-01  1.89375309E-01  7.59837916E-02  1.84800000E+00  6.49000000E-01
  2.28000000E-01  1.41900000E+00  4.85000000E-01  1.01100000E+00  1.16506469E+05
  1.75043497E+04  3.99345132E+03  1.13300632E+03  3.69995696E+02  1.33620743E+02
  5.20356436E+01  2.14619393E+01  8.98350513E+01  2.64280108E+01  9.28228246E+00
  4.09477285E+00  1.32553491E+00  5.18772308E-01  1.97726765E-01  1.91152558E+02
  4.52333567E+01  1.43534659E+01  5.24223718E+00  2.07924186E+00  8.42823714E-01
  3.36176949E-01  1.28639980E-01  3.77500000E+00  1.30000000E+00  4.44000000E-01
  2.66600000E+00  8.59000000E-01  1.84600000E+00  1.90691690E+02  2.86055320E+01
  6.50959430E+00  1.84124550E+00  5.98537250E-01  2.13976240E-01  8.03162860E-02
  2.29200000E+00  8.38000000E-01  2.92000000E-01  2.06200000E+00  6.62000000E-01
  1.39700000E+00  1.90691690E+02  2.86055320E+01  6.50959430E+00  1.84124550E+00
  5.98537250E-01  2.13976240E-01  8.03162860E-02  2.29200000E+00  8.38000000E-01
  2.92000000E-01  2.06200000E+00  6.62000000E-01  1.39700000E+00  1.90691690E+02
  2.86055320E+01  6.50959430E+00  1.84124550E+00  5.98537250E-01  2.13976240E-01
  8.03162860E-02  2.29200000E+00  8.38000000E-01  2.92000000E-01  2.06200000E+00
  6.62000000E-01  1.39700000E+00  1.90691690E+02  2.86055320E+01  6.50959430E+00
  1.84124550E+00  5.98537250E-01  2.13976240E-01  8.03162860E-02  2.29200000E+00
  8.38000000E-01  2.92000000E-01  2.06200000E+00  6.62000000E-01  1.39700000E+00
Contraction coefficients                   R   N=         110
  7.09883366E-05  5.51759078E-04  2.89330111E-03  1.21111499E-02  4.28226973E-02
  1.29053329E-01  3.18146478E-01  5.91790275E-01  9.13649169E-02  9.28761090E-01
  1.00000000E+00  1.00000000E+00  1.00000000E+00  1.00000000E+00  1.00000000E+00
  2.49653501E-03  1.95463956E-02  8.88349466E-02  2.94789686E-01  7.02715999E-01
  1.00000000E+00  1.00000000E+00  1.00000000E+00  1.00000000E+00  1.00000000E+00
  1.00000000E+00  1.00000000E+00  1.00000000E+00  1.00000000E+00  7.19875758E-05
  5.57148772E-04  2.91300317E-03  1.21720511E-02  4.30037618E-02  1.29647624E-01
  3.19696086E-01  5.89314588E-01  9.48480528E-02  9.25363788E-01  1.00000000E+00
  1.00000000E+00  1.00000000E+00  1.00000000E+00  1.00000000E+00  2.53595741E-03
  2.02338243E-02  9.45180200E-02  3.09154328E-01  6.84689495E-01  1.00000000E+00
  1.00000000E+00  1.00000000E+00  1.00000000E+00  1.00000000E+00  1.00000000E+00
  1.00000000E+00  1.00000000E+00  1.00000000E+00  5.34263696E-03  4.12523382E-02
  2.10993526E-01  8.12128546E-01  1.00000000E+00  1.00000000E+00  1.00000000E+00
  1.00000000E+00  1.00000000E+00  1.00000000E+00  1.00000000E+00  1.00000000E+00
  1.00000000E+00  5.34263696E-03  4.12523382E-02  2.10993526E-01  8.12128546E-01
  1.00000000E+00  1.00000000E+00  1.00000000E+00  1.00000000E+00  1.00000000E+00
  1.00000000E+00  1.00000000E+00  1.00000000E+00  1.00000000E+00  5.34263696E-03
  4.12523382E-02  2.10993526E-01  8.12128546E-01  1.00000000E+00  1.00000000E+00
  1.00000000E+00  1.00000000E+00  1.00000000E+00  1.00000000E+00  1.00000000E+00
  1.00000000E+00  1.00000000E+00  5.34263696E-03  4.12523382E-02  2.10993526E-01
  8.12128546E-01  1.00000000E+00  1.00000000E+00  1.00000000E+00  1.00000000E+00
  1.00000000E+00  1.00000000E+00  1.00000000E+00  1.00000000E+00  1.00000000E+00
Coordinates of each shell                  R   N=         222
 -1.25853209E+00 -3.80677070E-02 -5.20417043E-18 -1.25853209E+00 -3.80677070E-02
 -5.20417043E-18 -1.25853209E+00 -3.80677070E-02 -5.20417043E-18 -1.25853209E+00
 -3.80677070E-02 -5.20417043E-18 -1.25853209E+00 -3.80677070E-02 -5.20417043E-18
 -1.25853209E+00 -3.80677070E-02 -5.20417043E-18 -1.25853209E+00 -3.80677070E-02
 -5.20417043E-18 -1.25853209E+00 -3.80677070E-02 -5.20417043E-18 -1.25853209E+00
 -3.80677070E-02 -5.20417043E-18 -1.25853209E+00 -3.80677070E-02 -5.20417043E-18
 -1.25853209E+00 -3.80677070E-02 -5.20417043E-18 -1.25853209E+00 -3.80677070E-02
 -5.20417043E-18 -1.25853209E+00 -3.80677070E-02 -5.20417043E-18 -1.25853209E+00
 -3.80677070E-02 -5.20417043E-18 -1.25853209E+00 -3.80677070E-02 -5.20417043E-18
 -1.25853209E+00 -3.80677070E-02 -5.20417043E-18 -1.25853209E+00 -3.80677070E-02
 -5.20417043E-18  1.41279448E+00  2.30053936E-01 -1.44849410E-16  1.41279448E+00
  2.30053936E-01 -1.44849410E-16  1.41279448E+00  2.30053936E-01 -1.44849410E-16
  1.41279448E+00  2.30053936E-01 -1.44849410E-16  1.41279448E+00  2.30053936E-01
 -1.44849410E-16  1.41279448E+00  2.30053936E-01 -1.44849410E-16  1.41279448E+00
  2.30053936E-01 -1.44849410E-16  1.41279448E+00  2.30053936E-01 -1.44849410E-16
  1.41279448E+00  2.30053936E-01 -1.44849410E-16  1.41279448E+00  2.30053936E-01
 -1.44849410E-16  1.41279448E+00  2.30053936E-01 -1.44849410E-16  1.41279448E+00
  2.30053936E-01 -1.44849410E-16  1.41279448E+00  2.30053936E-01 -1.44849410E-16
  1.41279448E+00  2.30053936E-01 -1.44849410E-16  1.41279448E+00  2.30053936E-01
 -1.44849410E-16  1.41279448E+00  2.30053936E-01 -1.44849410E-16  1.41279448E+00
  2.30053936E-01 -1.44849410E-16 -1.93501569E+00 -1.02530938E+00  1.67877837E+00
 -1.93501569E+00 -1.02530938E+00  1.67877837E+00 -1.93501569E+00 -1.02530938E+00
  1.67877837E+00 -1.93501569E+00 -1.02530938E+00  1.67877837E+00 -1.93501569E+00
 -1.02530938E+00  1.67877837E+00 -1.93501569E+00 -1.02530938E+00  1.67877837E+00
 -1.93501569E+00 -1.02530938E+00  1.67877837E+00 -1.93501569E+00 -1.02530938E+00
  1.67877837E+00 -1.93501569E+00 -1.02530938E+00  1.67877837E+00 -1.93501569E+00
 -1.02530938E+00  1.67877837E+00 -1.93501412E+00 -1.02532749E+00 -1.67876823E+00
 -1.93501412E+00 -1.02532749E+00 -1.67876823E+00 -1.93501412E+00 -1.02532749E+00
 -1.67876823E+00 -1.93501412E+00 -1.02532749E+00 -1.67876823E+00 -1.93501412E+00
 -1.02532749E+00 -1.67876823E+00 -1.93501412E+00 -1.02532749E+00 -1.67876823E+00
 -1.93501412E+00 -1.02532749E+00 -1.67876823E+00 -1.93501412E+00 -1.02532749E+00
 -1.67876823E+00 -1.93501412E+00 -1.02532749E+00 -1.67876823E+00 -1.93501412E+00
 -1.02532749E+00 -1.67876823E+00 -2.04104866E+00  1.85742730E+00 -1.05406682E-05
 -2.04104866E+00  1.85742730E+00 -1.05406682E-05 -2.04104866E+00  1.85742730E+00
 -1.05406682E-05 -2.04104866E+00  1.85742730E+00 -1.05406682E-05 -2.04104866E+00
  1.85742730E+00 -1.05406682E-05 -2.04104866E+00  1.85742730E+00 -1.05406682E-05
 -2.04104866E+00  1.85742730E+00 -1.05406682E-05 -2.04104866E+00  1.85742730E+00
 -1.05406682E-05 -2.04104866E+00  1.85742730E+00 -1.05406682E-05 -2.04104866E+00
  1.85742730E+00 -1.05406682E-05  2.15991516E+00 -1.41881567E+00  3.11276497E-07
  2.15991516E+00 -1.41881567E+00  3.11276497E-07  2.15991516E+00 -1.41881567E+00
  3.11276497E-07  2.15991516E+00 -1.41881567E+00  3.11276497E-07  2.15991516E+00
 -1.41881567E+00  3.11276497E-07  2.15991516E+00 -1.41881567E+00  3.11276497E-07
  2.15991516E+00 -1.41881567E+00  3.11276497E-07  2.15991516E+00 -1.41881567E+00
  3.11276497E-07  2.15991516E+00 -1.41881567E+00  3.11276497E-07  2.15991516E+00
 -1.41881567E+00  3.11276497E-07
Constraint Structure                       R   N=          18
 -1.25853209E+00 -3.80677070E-02 -5.20417043E-18  1.41279448E+00  2.30053936E-01
 -1.44849410E-16 -1.93501569E+00 -1.02530938E+00  1.67877837E+00 -1.93501412E+00
 -1.02532749E+00 -1.67876823E+00 -2.04104866E+00  1.85742730E+00 -1.05406682E-05
  2.15991516E+00 -1.41881567E+00  3.11276497E-07
Num ILSW                                   I              100
ILSW                                       I   N=         100
           0           0           0           0           2           0
           0           0           0           0         419          -1
           0           0           0           0           2           0
           0           0           0           0           1           0
           1           0           0           0           0           0
           0           0      100000           0          -1           0
           0           0           0           0           0           0
           0           0           0           1           1           0
           0           0           1           0           0           0
           0           0         141          41           0           0
           0           0          60           0           0           0
           0           0           0           6           0           0
           0           0           0           0           0           0
           0           0           0           0           0           0
           0           0           0           0           0           0
           0           0           0           0           0           0
           0           0           0           0
Num RLSW                                   I               41
RLSW                                       R   N=          41
  4.70000000E-01  4.70000000E-01  7.30000000E-01  7.30000000E-01  5.30000000E-01
  0.00000000E+00  0.00000000E+00  1.00000000E+00  0.00000000E+00  0.00000000E+00
  0.00000000E+00  0.00000000E+00  1.00000000E+00  0.00000000E+00  0.00000000E+00
  0.00000000E+00  0.00000000E+00  1.00000000E+00  0.00000000E+00  0.00000000E+00
  0.00000000E+00  0.00000000E+00  1.00000000E+00  0.00000000E+00  0.00000000E+00
  0.00000000E+00  0.00000000E+00  1.00000000E+00  0.00000000E+00  0.00000000E+00
  0.00000000E+00  0.00000000E+00  1.00000000E+00  0.00000000E+00  0.00000000E+00
  0.00000000E+00  0.00000000E+00  0.00000000E+00  2.70000000E-01  2.70000000E-01
  0.00000000E+00
ECP-MxAtEC                                 I           250000
ECP-MaxLECP                                I               10
ECP-MaxAtL                                 I          2250000
ECP-MxTECP                                 I         11250000
ECP-LenNCZ                                 I                0
ECP-KFirst                                 I   N=          60
           0           0           0           0           0           0
           0           0           0           0           0           0
           0           0           0           0           0           0
           0           0           0           0           0           0
           0           0           0           0           0           0
           0           0           0           0           0           0
           0           0           0           0           0           0
           0           0           0           0           0           0
           0           0           0           0           0           0
           0           0           0           0           0           0
ECP-KLast                                  I   N=          60
           0           0           0           0           0           0
           0           0           0           0           0           0
           0           0           0           0           0           0
           0           0           0           0           0           0
           0           0           0           0           0           0
           0           0           0           0           0           0
           0           0           0           0           0           0
           0           0           0           0           0           0
           0           0           0           0           0           0
           0           0           0           0           0           0
ECP-LMax                                   I   N=           6
           0           0           0           0           0           0
ECP-LPSkip                                 I   N=           6
           1           1           1           1           1           1
ECP-RNFroz                                 R   N=           6
  0.00000000E+00  0.00000000E+00  0.00000000E+00  0.00000000E+00  0.00000000E+00
  0.00000000E+00
ECP-NLP                                    I                0
ECP-CLP1                                   R      0.000000000000000E+00
ECP-CLP2                                   R      0.000000000000000E+00
ECP-ZLP                                    R      0.000000000000000E+00
MxBond                                     I                4
NBond                                      I   N=           6
           4           2           1           1           1           1
IBond                                      I   N=          24
           2           3           4           5           1           6
           0           0           1           0           0           0
           1           0           0           0           1           0
           0           0           2           0           0           0
RBond                                      R   N=          24
  1.00000000E+00  1.00000000E+00  1.00000000E+00  1.00000000E+00  1.00000000E+00
  1.00000000E+00  0.00000000E+00  0.00000000E+00  1.00000000E+00  0.00000000E+00
  0.00000000E+00  0.00000000E+00  1.00000000E+00  0.00000000E+00  0.00000000E+00
  0.00000000E+00  1.00000000E+00  0.00000000E+00  0.00000000E+00  0.00000000E+00
  1.00000000E+00  0.00000000E+00  0.00000000E+00  0.00000000E+00
Virial Ratio                               R      2.003071620984025E+00
SCF Energy                                 R     -1.155531397960831E+02
MP2 Energy                                 R     -1.157003225056131E+02
Total Energy                               R     -1.157003225056131E+02
Post-SCF wavefunction norm                 R      1.531485874647012E+00
RMS Force                                  R      8.689245578537486E-05
RMS Density                                R      1.113364609284263E-09
External E-field                           R   N=          35
  0.00000000E+00  0.00000000E+00  0.00000000E+00  0.00000000E+00  0.00000000E+00
  0.00000000E+00  0.00000000E+00  0.00000000E+00  0.00000000E+00  0.00000000E+00
  0.00000000E+00  0.00000000E+00  0.00000000E+00  0.00000000E+00  0.00000000E+00
  0.00000000E+00  0.00000000E+00  0.00000000E+00  0.00000000E+00  0.00000000E+00
  0.00000000E+00  0.00000000E+00  0.00000000E+00  0.00000000E+00  0.00000000E+00
  0.00000000E+00  0.00000000E+00  0.00000000E+00  0.00000000E+00  0.00000000E+00
  0.00000000E+00  0.00000000E+00  0.00000000E+00  0.00000000E+00  0.00000000E+00
IOpCl                                      I                0
IROHF                                      I                0
Alpha Orbital Energies                     R   N=         234
 -1.97248437E+01 -1.06555834E+01 -1.16124747E+00 -7.87435966E-01 -5.87284483E-01
 -5.17863095E-01 -4.98809465E-01 -4.10888778E-01 -3.53750564E-01  4.97284185E-02
  8.25879871E-02  1.23832051E-01  1.24468190E-01  1.48553479E-01  1.72667675E-01
  1.80827540E-01  2.91379781E-01  3.33480231E-01  3.34932938E-01  3.51877209E-01
  3.89301756E-01  3.98912867E-01  4.09351162E-01  4.39026790E-01  4.54630495E-01
  5.32113755E-01  5.59089677E-01  5.91447811E-01  6.66785745E-01  7.11998752E-01
  7.27651947E-01  7.61727316E-01  7.90649800E-01  8.01381121E-01  8.24409370E-01
  8.58321266E-01  8.80153570E-01  9.32819435E-01  9.74181557E-01  9.98310295E-01
  1.02367208E+00  1.02978601E+00  1.09444843E+00  1.11282392E+00  1.13464392E+00
  1.14771733E+00  1.21067363E+00  1.29174287E+00  1.41444761E+00  1.42209926E+00
  1.44193331E+00  1.45462552E+00  1.47490859E+00  1.51509269E+00  1.77593318E+00
  1.82683339E+00  1.85197105E+00  1.87277533E+00  1.88041435E+00  1.91679667E+00
  1.95732504E+00  1.96268121E+00  1.98485170E+00  2.03467270E+00  2.07139386E+00
  2.14589569E+00  2.18626176E+00  2.21962425E+00  2.22742787E+00  2.25311208E+00
  2.28278153E+00  2.30864154E+00  2.36674234E+00  2.39741257E+00  2.44151860E+00
  2.49287995E+00  2.56664971E+00  2.59767383E+00  2.63980614E+00  2.64421486E+00
  2.67881567E+00  2.68128885E+00  2.78391537E+00  2.79321220E+00  2.86228144E+00
  2.89235750E+00  2.92846259E+00  2.95483599E+00  2.96242856E+00  2.98862731E+00
  3.07019594E+00  3.08707682E+00  3.12708290E+00  3.24072203E+00  3.25252275E+00
  3.26436128E+00  3.38404269E+00  3.39470069E+00  3.45621742E+00  3.52060947E+00
  3.65515931E+00  3.69800361E+00  3.90011767E+00  3.91140170E+00  3.92677719E+00
  4.01027847E+00  4.01250711E+00  4.06361132E+00  4.15587718E+00  4.22056284E+00
  4.23942904E+00  4.29543160E+00  4.37341879E+00  4.56484528E+00  4.58519442E+00
  4.60073412E+00  4.62237080E+00  4.83901958E+00  5.22235451E+00  5.30927442E+00
  5.48475804E+00  5.49628202E+00  5.51642595E+00  5.54875221E+00  5.58692272E+00
  5.71558285E+00  5.82045474E+00  5.82613582E+00  5.87166752E+00  5.92755742E+00
  5.94003998E+00  6.01027845E+00  6.05581898E+00  6.14066949E+00  6.18763791E+00
  6.24879866E+00  6.28320482E+00  6.28953717E+00  6.32281100E+00  6.36561557E+00
  6.37586788E+00  6.45719177E+00  6.51763479E+00  6.51977189E+00  6.59033072E+00
  6.68628871E+00  6.73810395E+00  6.79318004E+00  6.89322478E+00  6.92162179E+00
  6.92601811E+00  7.01191453E+00  7.08758250E+00  7.18230595E+00  7.35117510E+00
  7.36953969E+00  7.43268535E+00  7.47866224E+00  7.51007212E+00  7.53519385E+00
  7.56064970E+00  7.60592661E+00  7.62997685E+00  7.65115432E+00  7.76066462E+00
  7.76317863E+00  7.76843437E+00  7.82412029E+00  7.88191084E+00  7.89281625E+00
  7.90138620E+00  8.00763496E+00  8.09680175E+00  8.12343157E+00  8.19105648E+00
  8.26979925E+00  8.39314175E+00  8.43522937E+00  8.43690413E+00  8.46950489E+00
  8.51499105E+00  8.52697925E+00  8.56202274E+00  8.56431872E+00  8.57330088E+00
  8.69116833E+00  8.77638448E+00  8.80609866E+00  8.85694527E+00  8.91005093E+00
  9.00562831E+00  9.03007193E+00  9.07166098E+00  9.10038562E+00  9.20528154E+00
  9.51566215E+00  9.63813453E+00  9.77134085E+00  9.80188081E+00  9.86879660E+00
  9.98926330E+00  9.99286302E+00  1.00966781E+01  1.01825335E+01  1.02146544E+01
  1.02922248E+01  1.04404643E+01  1.05842384E+01  1.06105915E+01  1.07579812E+01
  1.09528434E+01  1.11333753E+01  1.15056772E+01  1.16307743E+01  1.16397402E+01
  1.17475757E+01  1.18289216E+01  1.19461895E+01  1.20090201E+01  1.20817051E+01
  1.22499178E+01  1.25036510E+01  1.27579098E+01  1.28693913E+01  1.32614999E+01
  1.34310228E+01  1.41109382E+01  1.43138884E+01  1.45893722E+01  1.69042322E+01
  2.92584541E+01  4.88024474E+01  1.48855890E+02  2.54553171E+02
Alpha MO coefficients                      R   N=       54756
 -5.76779882E-06  5.79069764E-06 -4.39519785E-05  1.58810272E-04 -1.24954430E-03
  2.55720349E-03 -1.73143818E-04 -1.47007613E-04 -2.25737881E-05  1.17521572E-10
  1.22270966E-03  8.16100969E-05 -4.49349738E-10  1.93490938E-04  1.04372166E-03
 -8.51301655E-09 -2.88142939E-06 -1.69733169E-04  4.01264753E-10  5.94930366E-05
  3.21644930E-11  1.10134862E-10 -7.56162265E-05 -2.35696523E-05 -4.30545042E-04
 -1.65418034E-10 -3.63558480E-10  5.98095179E-04  2.34665001E-04 -6.04153461E-04
  3.60906211E-10 -3.94456429E-09 -1.16230610E-05  2.44739821E-04 -6.07349797E-10
 -2.83127862E-05  4.09128321E-05 -5.07584462E-10 -1.01807799E-10  2.96273158E-05
  3.66198840E-05  8.52568587E-10 -3.48904203E-04 -1.13465311E-04  1.23038029E-09
 -2.45047374E-10  3.51584395E-04  2.39119426E-05  3.49183122E-05 -1.16503726E-11
  2.61738190E-11 -5.75796655E-05  9.62678327E-06 -9.41911653E-11  1.73015025E-10
  9.66697240E-05  2.73325406E-05  5.62879234E-01 -3.18821784E-03  3.62534597E-01
  1.67885153E-01  1.35485746E-02 -6.60947591E-03 -1.98393765E-03 -8.92822544E-04
 -1.72975896E-03  6.10583302E-10  5.54836046E-04  2.34308201E-03 -9.76818844E-10
 -1.22083051E-04  1.56844038E-03  5.22580983E-10 -3.93229772E-05  2.31979242E-04
  2.22374838E-10 -1.72100635E-04 -2.21011223E-11 -6.45162420E-11 -3.99861081E-05
 -8.14154498E-05  4.66777401E-04  1.03420748E-10  1.77289345E-10  2.27609515E-04
  2.39340569E-04  8.99638478E-04 -7.40755839E-10  9.74016042E-10  3.89317214E-04
  7.65254848E-04  7.19989159E-12  1.94417904E-05  1.74999339E-05 -2.27454279E-11
  3.56346401E-11 -5.60363351E-05  4.54528619E-06  1.32799993E-10 -5.66282739E-05
 -3.01967230E-04  2.58268144E-10 -2.08301214E-11  4.98275190E-04 -2.29673116E-04
 -4.69037193E-05  4.02988436E-11 -5.36700027E-11 -2.32798395E-05 -2.29127897E-05
  5.21128603E-11 -2.03466312E-11 -5.84480076E-05 -7.95083554E-05 -2.75275834E-05
 -1.05568531E-04  4.35454331E-04 -8.04753439E-05 -1.23534300E-05 -8.40017981E-06
  8.09133833E-06  5.85749155E-05  2.94535809E-05 -2.90154703E-05  1.73995789E-04
  1.32294508E-04  4.82438955E-05  7.66145637E-06 -4.70625440E-06 -3.43958201E-06
  1.21556164E-06  2.77106257E-06 -9.59274661E-06 -4.73356522E-05 -7.23145035E-05
  3.87837982E-06  4.44897823E-05  3.75707965E-06  1.24076756E-05  2.18253185E-05
  4.61862677E-06 -1.09543951E-05 -1.39286910E-05  1.86508529E-06 -2.75275140E-05
 -1.05569374E-04  4.35446609E-04 -8.04753518E-05 -1.23534784E-05 -8.40026331E-06
 -8.09131128E-06  5.85748075E-05  2.94534249E-05  2.90152099E-05  1.73995065E-04
  1.32293270E-04 -4.82471771E-05  7.66144407E-06  4.70619425E-06  3.43969482E-06
  1.21558757E-06  2.77095165E-06 -9.59401523E-06  4.73350383E-05  7.23141028E-05
  3.87759400E-06  4.44906346E-05 -3.75755507E-06  1.24074193E-05  2.18251017E-05
 -4.61897475E-06  1.09543705E-05 -1.39288628E-05  1.86513779E-06 -8.47962149E-06
 -1.56195715E-04 -1.02792085E-03  2.44503163E-04  2.06456146E-06  2.71835534E-05
 -1.27799989E-10 -1.54492424E-05 -1.20381181E-04  5.44462961E-10 -2.89233775E-04
  1.82813796E-04 -1.19274780E-09 -4.99191304E-06  4.70587347E-11 -4.67837583E-11
 -4.82902711E-06 -5.48113934E-07 -4.46452045E-05 -1.31889627E-10 -1.12535429E-09
 -1.24713379E-04 -1.95452810E-05 -3.22849811E-10  1.52742653E-06  2.32646611E-05
 -3.40365687E-10 -1.00386488E-10 -1.96538475E-05  2.18544708E-05 -1.35000395E-04
  3.51827785E-03  2.16069434E-03 -5.52276783E-05  2.67335835E-05 -1.14663381E-06
 -6.17467110E-11 -9.56295973E-04  1.63524640E-03 -5.78884527E-11 -6.20960416E-04
  1.10725734E-03 -4.07961118E-11 -9.97307306E-05  5.57640887E-11 -5.70767628E-11
 -8.36221227E-05 -1.78406995E-04 -2.73398815E-04 -8.13322446E-11  8.79879832E-11
 -1.48732129E-04 -4.78722395E-04 -3.84858605E-11  3.67405804E-05 -2.59410194E-06
 -2.16471678E-11 -1.96317198E-11  7.61317542E-05  9.25624307E-05  5.49364100E-01
 -4.38548404E-03  3.65490266E-01  1.81752092E-01  1.44974577E-02 -4.74133288E-03
 -5.03296428E-04  1.26498096E-03  3.25661514E-05 -2.29817860E-10 -2.81420576E-03
 -1.62867348E-04  4.54652496E-10 -8.19428690E-04 -1.03842244E-04 -2.27748407E-09
 -2.28948424E-04  3.64905781E-05  5.65712526E-10 -6.91004560E-05  8.72443882E-11
  8.58222949E-11  1.02101613E-04  2.11097681E-05  3.79109549E-04 -3.18508930E-10
  6.20609475E-11 -6.33253573E-04 -1.18139162E-04  2.42562436E-04  3.28048969E-10
  1.26085388E-09 -4.37934304E-04 -1.44178211E-04  2.56598010E-09 -1.21840536E-04
 -2.03175349E-04  2.05179515E-09  2.14457149E-10  1.62434318E-04 -2.59873874E-05
  2.99722566E-09 -6.05221448E-05 -2.37543157E-04  2.78939629E-09 -2.18958313E-10
  5.38291500E-05 -1.15815129E-04 -3.71611644E-05 -2.29106046E-09  3.33241368E-11