water_opt                                                               
Freq      RB2PLYPD3-FC                                                def2QZVP            
Number of atoms                            I                3
Info1-9                                    I   N=           9
          14          12        1002           0           0         100
           6           2           1
Charge                                     I                0
Multiplicity                               I                1
Number of electrons                        I               10
Number of alpha electrons                  I                5
Number of beta electrons                   I                5
Number of basis functions                  I              117
Number of independent functions            I              117
Number of point charges in /Mol/           I                0
Number of translation vectors              I                0
Atomic numbers                             I   N=           3
           8           1           1
Nuclear charges                            R   N=           3
  8.00000000E+00  1.00000000E+00  1.00000000E+00
Current cartesian coordinates              R   N=           9
  4.85722573E-17  2.77555756E-16  2.20925473E-01  4.85722573E-17 -1.43539119E+00
 -8.83701893E-01  0.00000000E+00  1.43539119E+00 -8.83701893E-01
Force Field                                I                0
Int Atom Types                             I   N=           3
           0           0           0
MM charges                                 R   N=           3
  0.00000000E+00  0.00000000E+00  0.00000000E+00
Integer atomic weights                     I   N=           3
          16           1           1
Real atomic weights                        R   N=           3
  1.59949146E+01  1.00782504E+00  1.00782504E+00
Atom fragment info                         I   N=           3
           0           0           0
Atom residue num                           I   N=           3
           0           0           0
Nuclear spins                              I   N=           3
           0           1           1
Nuclear ZEff                               R   N=           3
 -5.60000000E+00 -1.00000000E+00 -1.00000000E+00
Nuclear ZNuc                               R   N=           3
  8.00000000E+00  1.00000000E+00  1.00000000E+00
Nuclear QMom                               R   N=           3
  0.00000000E+00  0.00000000E+00  0.00000000E+00
Nuclear GFac                               R   N=           3
  0.00000000E+00  2.79284600E+00  2.79284600E+00
MicOpt                                     I   N=           3
          -1          -1          -1
Number of contracted shells                I               37
Number of primitive shells                 I               55
Pure/Cartesian d shells                    I                0
Pure/Cartesian f shells                    I                0
Highest angular momentum                   I                4
Largest degree of contraction              I                8
Shell types                                I   N=          37
           0           0           0           0           0           0
           0           1           1           1           1          -2
          -2          -2          -3          -3          -4           0
           0           0           0           1           1           1
          -2          -2          -3           0           0           0
           0           1           1           1          -2          -2
          -3
Number of primitives per shell             I   N=          37
           8           2           1           1           1           1
           1           5           1           1           1           1
           1           1           1           1           1           4
           1           1           1           1           1           1
           1           1           1           4           1           1
           1           1           1           1           1           1
           1
Shell to atom map                          I   N=          37
           1           1           1           1           1           1
           1           1           1           1           1           1
           1           1           1           1           1           2
           2           2           2           2           2           2
           2           2           2           3           3           3
           3           3           3           3           3           3
           3
Primitive exponents                        R   N=          55
  1.16506469E+05  1.75043497E+04  3.99345132E+03  1.13300632E+03  3.69995696E+02
  1.33620743E+02  5.20356436E+01  2.14619393E+01  8.98350513E+01  2.64280108E+01
  9.28228246E+00  4.09477285E+00  1.32553491E+00  5.18772308E-01  1.97726765E-01
  1.91152558E+02  4.52333567E+01  1.43534659E+01  5.24223718E+00  2.07924186E+00
  8.42823714E-01  3.36176949E-01  1.28639980E-01  3.77500000E+00  1.30000000E+00
  4.44000000E-01  2.66600000E+00  8.59000000E-01  1.84600000E+00  1.90691690E+02
  2.86055320E+01  6.50959430E+00  1.84124550E+00  5.98537250E-01  2.13976240E-01
  8.03162860E-02  2.29200000E+00  8.38000000E-01  2.92000000E-01  2.06200000E+00
  6.62000000E-01  1.39700000E+00  1.90691690E+02  2.86055320E+01  6.50959430E+00
  1.84124550E+00  5.98537250E-01  2.13976240E-01  8.03162860E-02  2.29200000E+00
  8.38000000E-01  2.92000000E-01  2.06200000E+00  6.62000000E-01  1.39700000E+00
Contraction coefficients                   R   N=          55
  7.19875758E-05  5.57148772E-04  2.91300317E-03  1.21720511E-02  4.30037618E-02
  1.29647624E-01  3.19696086E-01  5.89314588E-01  9.48480528E-02  9.25363788E-01
  1.00000000E+00  1.00000000E+00  1.00000000E+00  1.00000000E+00  1.00000000E+00
  2.53595741E-03  2.02338243E-02  9.45180200E-02  3.09154328E-01  6.84689495E-01
  1.00000000E+00  1.00000000E+00  1.00000000E+00  1.00000000E+00  1.00000000E+00
  1.00000000E+00  1.00000000E+00  1.00000000E+00  1.00000000E+00  5.34263696E-03
  4.12523382E-02  2.10993526E-01  8.12128546E-01  1.00000000E+00  1.00000000E+00
  1.00000000E+00  1.00000000E+00  1.00000000E+00  1.00000000E+00  1.00000000E+00
  1.00000000E+00  1.00000000E+00  5.34263696E-03  4.12523382E-02  2.10993526E-01
  8.12128546E-01  1.00000000E+00  1.00000000E+00  1.00000000E+00  1.00000000E+00
  1.00000000E+00  1.00000000E+00  1.00000000E+00  1.00000000E+00  1.00000000E+00
Coordinates of each shell                  R   N=         111
  4.85722573E-17  2.77555756E-16  2.20925473E-01  4.85722573E-17  2.77555756E-16
  2.20925473E-01  4.85722573E-17  2.77555756E-16  2.20925473E-01  4.85722573E-17
  2.77555756E-16  2.20925473E-01  4.85722573E-17  2.77555756E-16  2.20925473E-01
  4.85722573E-17  2.77555756E-16  2.20925473E-01  4.85722573E-17  2.77555756E-16
  2.20925473E-01  4.85722573E-17  2.77555756E-16  2.20925473E-01  4.85722573E-17
  2.77555756E-16  2.20925473E-01  4.85722573E-17  2.77555756E-16  2.20925473E-01
  4.85722573E-17  2.77555756E-16  2.20925473E-01  4.85722573E-17  2.77555756E-16
  2.20925473E-01  4.85722573E-17  2.77555756E-16  2.20925473E-01  4.85722573E-17
  2.77555756E-16  2.20925473E-01  4.85722573E-17  2.77555756E-16  2.20925473E-01
  4.85722573E-17  2.77555756E-16  2.20925473E-01  4.85722573E-17  2.77555756E-16
  2.20925473E-01  4.85722573E-17 -1.43539119E+00 -8.83701893E-01  4.85722573E-17
 -1.43539119E+00 -8.83701893E-01  4.85722573E-17 -1.43539119E+00 -8.83701893E-01
  4.85722573E-17 -1.43539119E+00 -8.83701893E-01  4.85722573E-17 -1.43539119E+00
 -8.83701893E-01  4.85722573E-17 -1.43539119E+00 -8.83701893E-01  4.85722573E-17
 -1.43539119E+00 -8.83701893E-01  4.85722573E-17 -1.43539119E+00 -8.83701893E-01
  4.85722573E-17 -1.43539119E+00 -8.83701893E-01  4.85722573E-17 -1.43539119E+00
 -8.83701893E-01  5.55111512E-17  1.43539119E+00 -8.83701893E-01  5.55111512E-17
  1.43539119E+00 -8.83701893E-01  5.55111512E-17  1.43539119E+00 -8.83701893E-01
  5.55111512E-17  1.43539119E+00 -8.83701893E-01  5.55111512E-17  1.43539119E+00
 -8.83701893E-01  5.55111512E-17  1.43539119E+00 -8.83701893E-01  5.55111512E-17
  1.43539119E+00 -8.83701893E-01  5.55111512E-17  1.43539119E+00 -8.83701893E-01
  5.55111512E-17  1.43539119E+00 -8.83701893E-01  5.55111512E-17  1.43539119E+00
 -8.83701893E-01
Constraint Structure                       R   N=           9
  4.85722573E-17  2.77555756E-16  2.20925473E-01  4.85722573E-17 -1.43539119E+00
 -8.83701893E-01  5.55111512E-17  1.43539119E+00 -8.83701893E-01
Num ILSW                                   I              100
ILSW                                       I   N=         100
           0           0           0           0           2           0
           0           0           0           0         419          -1
           0           0           0           0           2           0
           0           0           0           0           1           0
           1           0           0           0           0           0
           0           0      100000           0          -1           0
           0           0           0           0           0           0
           0           0           0           1           1           0
           0           0           1           0           0           0
           0           0         141          41           0           0
           0           0          60           0           0           0
           0           0           0           3           0           0
           0           0           0           0           0           0
           0           0           0           0           0           0
           0           0           0           0           0           0
           0           0           0           0           0           0
           0           0           0           0
Num RLSW                                   I               41
RLSW                                       R   N=          41
  4.70000000E-01  4.70000000E-01  7.30000000E-01  7.30000000E-01  5.30000000E-01
  0.00000000E+00  0.00000000E+00  1.00000000E+00  0.00000000E+00  0.00000000E+00
  0.00000000E+00  0.00000000E+00  1.00000000E+00  0.00000000E+00  0.00000000E+00
  0.00000000E+00  0.00000000E+00  1.00000000E+00  0.00000000E+00  0.00000000E+00
  0.00000000E+00  0.00000000E+00  1.00000000E+00  0.00000000E+00  0.00000000E+00
  0.00000000E+00  0.00000000E+00  1.00000000E+00  0.00000000E+00  0.00000000E+00
  0.00000000E+00  0.00000000E+00  1.00000000E+00  0.00000000E+00  0.00000000E+00
  0.00000000E+00  0.00000000E+00  0.00000000E+00  2.70000000E-01  2.70000000E-01
  0.00000000E+00
ECP-MxAtEC                                 I           250000
ECP-MaxLECP                                I               10
ECP-MaxAtL                                 I          2250000
ECP-MxTECP                                 I         11250000
ECP-LenNCZ                                 I                0
ECP-KFirst                                 I   N=          30
           0           0           0           0           0           0
           0           0           0           0           0           0
           0           0           0           0           0           0
           0           0           0           0           0           0
           0           0           0           0           0           0
ECP-KLast                                  I   N=          30
           0           0           0           0           0           0
           0           0           0           0           0           0
           0           0           0           0           0           0
           0           0           0           0           0           0
           0           0           0           0           0           0
ECP-LMax                                   I   N=           3
           0           0           0
ECP-LPSkip                                 I   N=           3
           1           1           1
ECP-RNFroz                                 R   N=           3
  0.00000000E+00  0.00000000E+00  0.00000000E+00
ECP-NLP                                    I                0
ECP-CLP1                                   R      0.000000000000000E+00
ECP-CLP2                                   R      0.000000000000000E+00
ECP-ZLP                                    R      0.000000000000000E+00
MxBond                                     I                2
NBond                                      I   N=           3
           2           1           1
IBond                                      I   N=           6
           2           3           1           0           1           0
RBond                                      R   N=           6
  1.00000000E+00  1.00000000E+00  1.00000000E+00  0.00000000E+00  1.00000000E+00
  0.00000000E+00
Virial Ratio                               R      2.002734830984386E+00
SCF Energy                                 R     -7.633514794052523E+01
MP2 Energy                                 R     -7.642512812813817E+01
Total Energy                               R     -7.642512812813817E+01
Post-SCF wavefunction norm                 R      1.479824085545866E+00
RMS Force                                  R      6.224634815917371E-05
RMS Density                                R      1.960999841183425E-10
External E-field                           R   N=          35
  0.00000000E+00  0.00000000E+00  0.00000000E+00  0.00000000E+00  0.00000000E+00
  0.00000000E+00  0.00000000E+00  0.00000000E+00  0.00000000E+00  0.00000000E+00
  0.00000000E+00  0.00000000E+00  0.00000000E+00  0.00000000E+00  0.00000000E+00
  0.00000000E+00  0.00000000E+00  0.00000000E+00  0.00000000E+00  0.00000000E+00
  0.00000000E+00  0.00000000E+00  0.00000000E+00  0.00000000E+00  0.00000000E+00
  0.00000000E+00  0.00000000E+00  0.00000000E+00  0.00000000E+00  0.00000000E+00
  0.00000000E+00  0.00000000E+00  0.00000000E+00  0.00000000E+00  0.00000000E+00
IOpCl                                      I                0
IROHF                                      I                0
Alpha Orbital Energies                     R   N=         117
 -1.97311935E+01 -1.15676355E+00 -6.13226214E-01 -4.74312628E-01 -3.99636484E-01
  4.54349061E-02  1.02077698E-01  2.75097278E-01  3.04119173E-01  3.10137213E-01
  3.58868571E-01  4.39793160E-01  5.02951701E-01  5.62357556E-01  6.22411160E-01
  6.56224011E-01  8.11528939E-01  9.38276961E-01  9.59302792E-01  1.03922259E+00
  1.08513232E+00  1.33623371E+00  1.33987337E+00  1.35469459E+00  1.42275982E+00
  1.43544705E+00  1.48950298E+00  1.84061160E+00  1.93352595E+00  2.03760140E+00
  2.05163652E+00  2.14482887E+00  2.31252878E+00  2.33532678E+00  2.36225916E+00
  2.37692136E+00  2.44716066E+00  2.56292906E+00  2.60520527E+00  2.69446442E+00
  2.72802737E+00  2.91773586E+00  2.99110542E+00  3.17663544E+00  3.17715459E+00
  3.32915279E+00  3.79210143E+00  3.90385437E+00  3.93986862E+00  3.95455278E+00
  4.13608522E+00  4.18132184E+00  4.30605554E+00  4.31605921E+00  4.49675126E+00
  4.70439349E+00  4.86162899E+00  4.90026187E+00  5.35243724E+00  5.44455303E+00
  5.45660351E+00  5.79986727E+00  5.99074650E+00  6.06218067E+00  6.14518388E+00
  6.50553576E+00  6.61010890E+00  6.84849932E+00  7.15692064E+00  7.17871686E+00
  7.21968844E+00  7.24167123E+00  7.32898052E+00  7.42317348E+00  7.45906285E+00
  7.47640605E+00  7.55399079E+00  7.78008928E+00  7.87934191E+00  7.92826147E+00
  7.95657856E+00  7.98957068E+00  8.10567255E+00  8.16525943E+00  8.40905131E+00
  8.59598126E+00  8.70622955E+00  8.87148204E+00  8.89108311E+00  9.15834883E+00
  9.16363977E+00  9.97722049E+00  9.99477369E+00  1.03907076E+01  1.04574852E+01
  1.08817524E+01  1.08872225E+01  1.10907120E+01  1.12230896E+01  1.12854399E+01
  1.14956577E+01  1.16345133E+01  1.19193143E+01  1.19760139E+01  1.20339369E+01
  1.20721498E+01  1.23782790E+01  1.30452051E+01  1.37233352E+01  1.37235740E+01
  1.38606673E+01  1.42824172E+01  1.46090864E+01  1.68268149E+01  1.68698878E+01
  4.87614386E+01  2.54499946E+02
Alpha MO coefficients                      R   N=       13689
  5.62869038E-01 -3.17872631E-03  3.62491480E-01  1.67948827E-01  1.38771271E-02
 -8.27436926E-03 -3.24387952E-03  0.00000000E+00  0.00000000E+00 -2.02320900E-03
  0.00000000E+00  0.00000000E+00  2.84792857E-03  0.00000000E+00  0.00000000E+00
  2.45058946E-03  0.00000000E+00  0.00000000E+00  2.87267566E-04  6.83109036E-05
  0.00000000E+00  0.00000000E+00 -2.20298224E-04  0.00000000E+00 -2.38955319E-04
  0.00000000E+00  0.00000000E+00  6.32852978E-04  0.00000000E+00 -3.69260614E-04
  0.00000000E+00  0.00000000E+00  1.15760650E-03  0.00000000E+00  2.57365539E-05
  0.00000000E+00  0.00000000E+00  5.48038307E-05  0.00000000E+00  0.00000000E+00
  0.00000000E+00 -2.41542232E-04  0.00000000E+00  0.00000000E+00 -7.42202336E-04
  0.00000000E+00  0.00000000E+00  0.00000000E+00  7.83580393E-05  0.00000000E+00
  0.00000000E+00  1.32400563E-04  0.00000000E+00  0.00000000E+00  0.00000000E+00
 -3.17727566E-05  0.00000000E+00 -1.36967633E-04  3.45883274E-03  2.01031365E-03
 -5.93553261E-05  0.00000000E+00 -3.23117937E-05  3.28628587E-05  0.00000000E+00
  1.61496162E-03  9.90693462E-04  0.00000000E+00  9.58995532E-04  6.42878366E-04
 -1.72488054E-05  0.00000000E+00  1.69402132E-04 -1.31390937E-04  0.00000000E+00
 -9.85575595E-05  0.00000000E+00  3.70360247E-04 -3.76706196E-04  0.00000000E+00
 -5.07516788E-05  0.00000000E+00 -6.20207111E-05 -2.13602333E-05  0.00000000E+00
  0.00000000E+00 -4.54803871E-05 -1.36967633E-04  3.45883274E-03  2.01031365E-03
 -5.93553261E-05  0.00000000E+00  3.23117937E-05  3.28628587E-05  0.00000000E+00
 -1.61496162E-03  9.90693462E-04  0.00000000E+00 -9.58995532E-04  6.42878366E-04
 -1.72488054E-05  0.00000000E+00 -1.69402132E-04 -1.31390937E-04  0.00000000E+00
 -9.85575595E-05  0.00000000E+00 -3.70360247E-04 -3.76706196E-04  0.00000000E+00
 -5.07516788E-05  0.00000000E+00  6.20207111E-05 -2.13602333E-05  0.00000000E+00
  0.00000000E+00  4.54803871E-05 -1.17083414E-01 -1.75732568E-02 -1.40889487E-01
 -7.04942156E-02  2.85688648E-01  4.71584150E-01  1.91393480E-01  0.00000000E+00
  0.00000000E+00 -5.40114857E-02  0.00000000E+00  0.00000000E+00 -5.76101062E-02
  0.00000000E+00  0.00000000E+00 -3.53712568E-02  0.00000000E+00  0.00000000E+00
 -2.84482787E-03  3.41283191E-04  0.00000000E+00  0.00000000E+00 -1.01287469E-03
  0.00000000E+00  2.08802488E-03  0.00000000E+00  0.00000000E+00 -7.20563269E-03
  0.00000000E+00  2.06099037E-03  0.00000000E+00  0.00000000E+00 -5.41779936E-03
  0.00000000E+00  4.85022029E-04  0.00000000E+00  0.00000000E+00  1.20499771E-03
  0.00000000E+00  0.00000000E+00  0.00000000E+00  7.09143612E-04  0.00000000E+00
  0.00000000E+00  2.49742659E-03  0.00000000E+00  0.00000000E+00  0.00000000E+00
 -1.48791323E-04  0.00000000E+00  0.00000000E+00 -3.00689244E-04  0.00000000E+00
  0.00000000E+00  0.00000000E+00  9.32882650E-05  0.00000000E+00  5.45361957E-02
  8.07217551E-02  3.05794421E-02  3.29156682E-03  0.00000000E+00  5.61840078E-03
  3.78561067E-03  0.00000000E+00  9.19715449E-03  5.59353405E-03  0.00000000E+00
  4.60303895E-03  1.55358373E-03 -6.26910315E-06  0.00000000E+00  1.73563223E-03
 -1.29688676E-03  0.00000000E+00 -2.44253441E-04  0.00000000E+00  4.90335466E-04
 -7.87961951E-04  0.00000000E+00 -1.10918255E-04  0.00000000E+00  1.39333797E-04
 -2.71741814E-04  0.00000000E+00  0.00000000E+00 -1.86999391E-04  5.45361957E-02
  8.07217551E-02  3.05794421E-02  3.29156682E-03  0.00000000E+00 -5.61840078E-03
  3.78561067E-03  0.00000000E+00 -9.19715449E-03  5.59353405E-03  0.00000000E+00
 -4.60303895E-03  1.55358373E-03 -6.26910315E-06  0.00000000E+00 -1.73563223E-03
 -1.29688676E-03  0.00000000E+00 -2.44253441E-04  0.00000000E+00 -4.90335466E-04
 -7.87961951E-04  0.00000000E+00 -1.10918255E-04  0.00000000E+00 -1.39333797E-04
 -2.71741814E-04  0.00000000E+00  0.00000000E+00  1.86999391E-04  0.00000000E+00
  0.00000000E+00  0.00000000E+00  0.00000000E+00  0.00000000E+00  0.00000000E+00
  0.00000000E+00  0.00000000E+00  2.84606617E-01  0.00000000E+00  0.00000000E+00
  2.59765980E-01  0.00000000E+00  0.00000000E+00  1.95558535E-01  0.00000000E+00
  0.00000000E+00  5.35807047E-02  0.00000000E+00  0.00000000E+00  0.00000000E+00
 -4.96251283E-03  0.00000000E+00  0.00000000E+00  0.00000000E+00  0.00000000E+00
 -1.55581408E-02  0.00000000E+00  0.00000000E+00  0.00000000E+00  0.00000000E+00
 -1.22951506E-02  0.00000000E+00  0.00000000E+00  0.00000000E+00  0.00000000E+00
  5.16482077E-04  0.00000000E+00  0.00000000E+00  0.00000000E+00 -1.40044764E-03
  0.00000000E+00  0.00000000E+00  1.24401088E-04  0.00000000E+00  0.00000000E+00
  0.00000000E+00 -2.10244997E-03  0.00000000E+00  0.00000000E+00  2.26646441E-04
  0.00000000E+00  0.00000000E+00  0.00000000E+00  3.06458124E-04  0.00000000E+00
  0.00000000E+00 -8.34956028E-02 -1.60304759E-01 -1.48727709E-01 -2.77612265E-02
  0.00000000E+00 -3.60105828E-03 -4.78056412E-03  0.00000000E+00 -1.17639198E-02
 -1.60325071E-02  0.00000000E+00 -7.80409754E-03 -1.36764273E-02 -8.53482713E-04
  0.00000000E+00 -2.60955486E-03  1.09365809E-03  0.00000000E+00 -2.25914183E-03
  0.00000000E+00 -4.57110924E-03  1.58459593E-03  0.00000000E+00  1.77416113E-04
  0.00000000E+00 -9.40477531E-04  8.78980562E-04  0.00000000E+00  0.00000000E+00
  2.97113450E-04  8.34956028E-02  1.60304759E-01  1.48727709E-01  2.77612265E-02
  0.00000000E+00 -3.60105828E-03  4.78056412E-03  0.00000000E+00 -1.17639198E-02
  1.60325071E-02  0.00000000E+00 -7.80409754E-03  1.36764273E-02  8.53482713E-04
  0.00000000E+00 -2.60955486E-03 -1.09365809E-03  0.00000000E+00  2.25914183E-03
  0.00000000E+00 -4.57110924E-03 -1.58459593E-03  0.00000000E+00 -1.77416113E-04
  0.00000000E+00 -9.40477531E-04 -8.78980562E-04  0.00000000E+00  0.00000000E+00
  2.97113450E-04 -4.11241072E-02 -6.27662254E-03 -5.15266483E-02 -2.26876479E-02
  9.91983395E-02  2.23152428E-01  2.59841404E-01  0.00000000E+00  0.00000000E+00
  3.10002354E-01  0.00000000E+00  0.00000000E+00  2.86307530E-01  0.00000000E+00
  0.00000000E+00  2.21222336E-01  0.00000000E+00  0.00000000E+00  1.33870368E-01
 -2.28337493E-03  0.00000000E+00  0.00000000E+00  1.60013143E-03  0.00000000E+00
 -7.75530306E-03  0.00000000E+00  0.00000000E+00  1.40894943E-03  0.00000000E+00
 -8.17956477E-03  0.00000000E+00  0.00000000E+00 -1.80155514E-03  0.00000000E+00
 -2.65200184E-05  0.00000000E+00  0.00000000E+00 -1.42926659E-03  0.00000000E+00
  0.00000000E+00  0.00000000E+00  8.84054698E-04  0.00000000E+00  0.00000000E+00
  8.42052991E-04  0.00000000E+00  0.00000000E+00  0.00000000E+00 -1.47164168E-04
  0.00000000E+00  0.00000000E+00 -1.30793162E-04  0.00000000E+00  0.00000000E+00
  0.00000000E+00  1.03525494E-04  0.00000000E+00 -4.81849317E-02 -1.11583759E-01
 -1.13844278E-01 -5.93424844E-03  0.00000000E+00 -3.60278050E-03  7.64647830E-04
  0.00000000E+00 -1.84131556E-02 -4.81115579E-06  0.00000000E+00 -2.08595573E-02
  1.45802334E-02  9.60672818E-04  0.00000000E+00 -1.37874075E-03  1.74157325E-03
  0.00000000E+00  4.79023813E-03  0.00000000E+00  5.76987893E-04  5.21147540E-03
  0.00000000E+00  5.60611475E-04  0.00000000E+00  8.19713795E-04  3.50214007E-04
  0.00000000E+00  0.00000000E+00  7.42969955E-04 -4.81849317E-02 -1.11583759E-01
 -1.13844278E-01 -5.93424844E-03  0.00000000E+00  3.60278050E-03  7.64647830E-04
  0.00000000E+00  1.84131556E-02 -4.81115579E-06  0.00000000E+00  2.08595573E-02
  1.45802334E-02  9.60672818E-04  0.00000000E+00  1.37874075E-03  1.74157325E-03
  0.00000000E+00  4.79023813E-03  0.00000000E+00 -5.76987893E-04  5.21147540E-03
  0.00000000E+00  5.60611475E-04  0.00000000E+00 -8.19713795E-04  3.50214007E-04
  0.00000000E+00  0.00000000E+00 -7.42969955E-04  0.00000000E+00  0.00000000E+00
  0.00000000E+00  0.00000000E+00  0.00000000E+00  0.00000000E+00  0.00000000E+00
  3.51895186E-01  0.00000000E+00  0.00000000E+00  3.32508933E-01  0.00000000E+00
  0.00000000E+00  2.99585149E-01  0.00000000E+00  0.00000000E+00  1.95307616E-01
  0.00000000E+00  0.00000000E+00  0.00000000E+00 -2.24547271E-03  0.00000000E+00
  0.00000000E+00  0.00000000E+00  0.00000000E+00 -7.29114282E-03  0.00000000E+00
  0.00000000E+00  0.00000000E+00  0.00000000E+00 -1.11972442E-02  0.00000000E+00
  0.00000000E+00  0.00000000E+00  0.00000000E+00  4.77011586E-04  0.00000000E+00
  0.00000000E+00  0.00000000E+00 -1.22512622E-03  0.00000000E+00  0.00000000E+00
  5.53982630E-04  0.00000000E+00  0.00000000E+00  0.00000000E+00 -1.61052630E-03
  0.00000000E+00  0.00000000E+00 -2.11241257E-05  0.00000000E+00  0.00000000E+00
  0.00000000E+00  9.78384276E-05  0.00000000E+00  0.00000000E+00  0.00000000E+00
  0.00000000E+00  0.00000000E+00  0.00000000E+00  0.00000000E+00  4.22785685E-03
  0.00000000E+00  0.00000000E+00  1.49341335E-02  0.00000000E+00  0.00000000E+00
  3.35995893E-02  0.00000000E+00  0.00000000E+00  0.00000000E+00  1.19696298E-03
  0.00000000E+00  0.00000000E+00  1.43292407E-03  0.00000000E+00  4.67703316E-03
  0.00000000E+00  0.00000000E+00  7.34993130E-03  0.00000000E+00  4.04171560E-04
  0.00000000E+00  0.00000000E+00  1.30987483E-03 -1.16531889E-03  0.00000000E+00
  0.00000000E+00  0.00000000E+00  0.00000000E+00  0.00000000E+00  4.22785685E-03
  0.00000000E+00  0.00000000E+00  1.49341335E-02  0.00000000E+00  0.00000000E+00
  3.35995893E-02  0.00000000E+00  0.00000000E+00  0.00000000E+00  1.19696298E-03
  0.00000000E+00  0.00000000E+00 -1.43292407E-03  0.00000000E+00  4.67703316E-03
  0.00000000E+00  0.00000000E+00 -7.34993130E-03  0.00000000E+00  4.04171560E-04
  0.00000000E+00  0.00000000E+00 -1.30987483E-03 -1.16531889E-03  0.00000000E+00
 -3.35098400E-02 -6.44506630E-03 -3.80525380E-02 -3.21223733E-02  1.48619303E-01
 -1.29227483E-01  9.97276838E-01  0.00000000E+00  0.00000000E+00 -8.80616941E-02
  0.00000000E+00  0.00000000E+00 -4.24170592E-02  0.00000000E+00  0.00000000E+00
 -1.59143414E-01  0.00000000E+00  0.00000000E+00 -1.13645589E-01  5.84489382E-04
  0.00000000E+00  0.00000000E+00 -2.27262456E-04  0.00000000E+00  9.48515404E-04
  0.00000000E+00  0.00000000E+00  9.86498355E-03  0.00000000E+00  4.06357784E-03
  0.00000000E+00  0.00000000E+00 -2.58892955E-02  0.00000000E+00 -1.44455641E-03
  0.00000000E+00  0.00000000E+00 -3.25202155E-03  0.00000000E+00  0.00000000E+00
  0.00000000E+00  4.89380122E-03  0.00000000E+00  0.00000000E+00  1.29307381E-02
  0.00000000E+00  0.00000000E+00  0.00000000E+00 -4.55723327E-04  0.00000000E+00
  0.00000000E+00 -7.57776921E-04  0.00000000E+00  0.00000000E+00  0.00000000E+00
  7.64384320E-04  0.00000000E+00 -8.25891719E-03 -1.02073115E-01  7.05292820E-02
 -8.59655425E-01  0.00000000E+00 -9.88052500E-04 -2.43283799E-03  0.00000000E+00
  2.96816733E-02  2.18718146E-02  0.00000000E+00  8.02923513E-04 -7.32198005E-03
 -4.91153113E-04  0.00000000E+00 -5.45299579E-05 -1.08141260E-03  0.00000000E+00
 -1.47220978E-03  0.00000000E+00  2.50897473E-02 -1.37754510E-02  0.00000000E+00
 -2.54184187E-03  0.00000000E+00  1.65252019E-03 -4.84845701E-03  0.00000000E+00
  0.00000000E+00 -2.50301308E-03 -8.25891719E-03 -1.02073115E-01  7.05292820E-02
 -8.59655425E-01  0.00000000E+00  9.88052500E-04 -2.43283799E-03  0.00000000E+00
 -2.96816733E-02  2.18718146E-02  0.00000000E+00 -8.02923513E-04 -7.32198005E-03
 -4.91153113E-04  0.00000000E+00  5.45299579E-05 -1.08141260E-03  0.00000000E+00
 -1.47220978E-03  0.00000000E+00 -2.50897473E-02 -1.37754510E-02  0.00000000E+00
 -2.54184187E-03  0.00000000E+00 -1.65252019E-03 -4.84845701E-03  0.00000000E+00
  0.00000000E+00  2.50301308E-03  0.00000000E+00  0.00000000E+00  0.00000000E+00
  0.00000000E+00  0.00000000E+00  0.00000000E+00  0.00000000E+00  0.00000000E+00
  1.25356857E-01  0.00000000E+00  0.00000000E+00  1.24330045E-01  0.00000000E+00
  0.00000000E+00 -2.75225364E-01  0.00000000E+00  0.00000000E+00  7.43058212E-01
  0.00000000E+00  0.00000000E+00  0.00000000E+00 -2.24853255E-03  0.00000000E+00
  0.00000000E+00  0.00000000E+00  0.00000000E+00  1.29664782E-02  0.00000000E+00
  0.00000000E+00  0.00000000E+00  0.00000000E+00  9.68951464E-02  0.00000000E+00
  0.00000000E+00  0.00000000E+00  0.00000000E+00  2.40295971E-04  0.00000000E+00
  0.00000000E+00  0.00000000E+00 -1.00001245E-03  0.00000000E+00  0.00000000E+00
 -6.83757821E-03  0.00000000E+00  0.00000000E+00  0.00000000E+00  1.26922609E-02
  0.00000000E+00  0.00000000E+00 -1.20831038E-03  0.00000000E+00  0.00000000E+00
  0.00000000E+00 -1.41889438E-03  0.00000000E+00  0.00000000E+00  4.66954450E-03
 -6.73931691E-02 -3.45868885E-01  2.15640305E+00  0.00000000E+00  1.97779634E-03
  3.18133246E-03  0.00000000E+00 -5.44880364E-02 -5.59233541E-02  0.00000000E+00
 -8.46040843E-02 -6.07958323E-02 -3.81685702E-04  0.00000000E+00 -1.71661245E-03
  1.41213221E-03  0.00000000E+00 -7.81944101E-03  0.00000000E+00 -1.68070560E-02
  3.93027623E-03  0.00000000E+00 -6.22945777E-04  0.00000000E+00 -1.37595650E-03
  3.79599619E-04  0.00000000E+00  0.00000000E+00 -3.42690448E-04 -4.66954450E-03
  6.73931691E-02  3.45868885E-01 -2.15640305E+00  0.00000000E+00  1.97779634E-03
 -3.18133246E-03  0.00000000E+00 -5.44880364E-02  5.59233541E-02  0.00000000E+00
 -8.46040843E-02  6.07958323E-02  3.81685702E-04  0.00000000E+00 -1.71661245E-03
 -1.41213221E-03  0.00000000E+00  7.81944101E-03  0.00000000E+00 -1.68070560E-02
 -3.93027623E-03  0.00000000E+00  6.22945777E-04  0.00000000E+00 -1.37595650E-03
 -3.79599619E-04  0.00000000E+00  0.00000000E+00 -3.42690448E-04 -2.21766572E-02
 -4.19325182E-03 -2.60008572E-02 -1.84438819E-02 -4.23079045E-03  6.59963033E-01
  4.76972186E+00  0.00000000E+00  0.00000000E+00  1.32455826E-01  0.00000000E+00
  0.00000000E+00 -5.89810991E-02  0.00000000E+00  0.00000000E+00 -4.13793336E-01
  0.00000000E+00  0.00000000E+00 -2.29649327E+00  3.65620805E-03  0.00000000E+00
  0.00000000E+00  6.50264829E-04  0.00000000E+00 -2.17975043E-02  0.00000000E+00
  0.00000000E+00 -4.71669479E-03  0.00000000E+00  1.08992020E-02  0.00000000E+00