 Entering Gaussian System, Link 0=/opt/cluster/programs/g09/g09_d.01/g09//g09
 Input=/home/boittier/MDCM/nms_sampling/h2o_geom.xyz.dir/energies/h2o_1669_energy.com
 Output=/scratch/boittier/h2o_1669_energy/h2o_1669_energy.out
 Initial command:
 /opt/cluster/programs/g09/g09_d.01/g09/l1.exe "/scratch/boittier/h2o_1669_energy/Gau-101995.inp" -scrdir="/scratch/boittier/h2o_1669_energy/"
 Entering Link 1 = /opt/cluster/programs/g09/g09_d.01/g09/l1.exe PID=    101996.
  
 Copyright (c) 1988,1990,1992,1993,1995,1998,2003,2009,2013,
            Gaussian, Inc.  All Rights Reserved.
  
 This is part of the Gaussian(R) 09 program.  It is based on
 the Gaussian(R) 03 system (copyright 2003, Gaussian, Inc.),
 the Gaussian(R) 98 system (copyright 1998, Gaussian, Inc.),
 the Gaussian(R) 94 system (copyright 1995, Gaussian, Inc.),
 the Gaussian 92(TM) system (copyright 1992, Gaussian, Inc.),
 the Gaussian 90(TM) system (copyright 1990, Gaussian, Inc.),
 the Gaussian 88(TM) system (copyright 1988, Gaussian, Inc.),
 the Gaussian 86(TM) system (copyright 1986, Carnegie Mellon
 University), and the Gaussian 82(TM) system (copyright 1983,
 Carnegie Mellon University). Gaussian is a federally registered
 trademark of Gaussian, Inc.
  
 This software contains proprietary and confidential information,
 including trade secrets, belonging to Gaussian, Inc.
  
 This software is provided under written license and may be
 used, copied, transmitted, or stored only in accord with that
 written license.
  
 The following legend is applicable only to US Government
 contracts under FAR:
  
                    RESTRICTED RIGHTS LEGEND
  
 Use, reproduction and disclosure by the US Government is
 subject to restrictions as set forth in subparagraphs (a)
 and (c) of the Commercial Computer Software - Restricted
 Rights clause in FAR 52.227-19.
  
 Gaussian, Inc.
 340 Quinnipiac St., Bldg. 40, Wallingford CT 06492
  
  
 ---------------------------------------------------------------
 Warning -- This program may not be used in any manner that
 competes with the business of Gaussian, Inc. or will provide
 assistance to any competitor of Gaussian, Inc.  The licensee
 of this program is prohibited from giving any competitor of
 Gaussian, Inc. access to this program.  By using this program,
 the user acknowledges that Gaussian, Inc. is engaged in the
 business of creating and licensing software in the field of
 computational chemistry and represents and warrants to the
 licensee that it is not a competitor of Gaussian, Inc. and that
 it will not use this program in any manner prohibited above.
 ---------------------------------------------------------------
  

 Cite this work as:
 Gaussian 09, Revision D.01,
 M. J. Frisch, G. W. Trucks, H. B. Schlegel, G. E. Scuseria, 
 M. A. Robb, J. R. Cheeseman, G. Scalmani, V. Barone, B. Mennucci, 
 G. A. Petersson, H. Nakatsuji, M. Caricato, X. Li, H. P. Hratchian, 
 A. F. Izmaylov, J. Bloino, G. Zheng, J. L. Sonnenberg, M. Hada, 
 M. Ehara, K. Toyota, R. Fukuda, J. Hasegawa, M. Ishida, T. Nakajima, 
 Y. Honda, O. Kitao, H. Nakai, T. Vreven, J. A. Montgomery, Jr., 
 J. E. Peralta, F. Ogliaro, M. Bearpark, J. J. Heyd, E. Brothers, 
 K. N. Kudin, V. N. Staroverov, T. Keith, R. Kobayashi, J. Normand, 
 K. Raghavachari, A. Rendell, J. C. Burant, S. S. Iyengar, J. Tomasi, 
 M. Cossi, N. Rega, J. M. Millam, M. Klene, J. E. Knox, J. B. Cross, 
 V. Bakken, C. Adamo, J. Jaramillo, R. Gomperts, R. E. Stratmann, 
 O. Yazyev, A. J. Austin, R. Cammi, C. Pomelli, J. W. Ochterski, 
 R. L. Martin, K. Morokuma, V. G. Zakrzewski, G. A. Voth, 
 P. Salvador, J. J. Dannenberg, S. Dapprich, A. D. Daniels, 
 O. Farkas, J. B. Foresman, J. V. Ortiz, J. Cioslowski, 
 and D. J. Fox, Gaussian, Inc., Wallingford CT, 2013.
 
 ******************************************
 Gaussian 09:  ES64L-G09RevD.01 24-Apr-2013
                26-Aug-2020 
 ******************************************
 %chk=/home/boittier/MDCM/nms_sampling/h2o_geom.xyz.dir/h2o_1669.chk
 %nproc=8
 Will use up to    8 processors via shared memory.
 %mem=16000MB
 --------------------
 #p B2PLYPD3/Def2QZVP
 --------------------
 1/38=1/1;
 2/12=2,17=6,18=5,40=1/2;
 3/5=45,7=101,11=9,16=1,25=1,30=1,74=-60/1,2,3;
 4//1;
 5/5=2,38=5/2;
 8/10=1/1;
 9/16=-3/6;
 6/7=2,8=2,9=2,10=2/1;
 99/5=1,9=1/99;
 Leave Link    1 at Wed Aug 26 09:15:54 2020, MaxMem=  2097152000 cpu:         0.2
 (Enter /opt/cluster/programs/g09/g09_d.01/g09/l101.exe)
 ---
 h2o
 ---
 Symbolic Z-matrix:
 Charge =  0 Multiplicity = 1
 O                    -5.3266   -0.7644    0.91133 
 H                    -4.36893  -0.75477   0.9928 
 H                    -5.60931   0.16926   0.83103 
 
 NAtoms=      3 NQM=        3 NQMF=       0 NMMI=      0 NMMIF=      0
                NMic=       0 NMicF=      0.
                    Isotopes and Nuclear Properties:
 (Nuclear quadrupole moments (NQMom) in fm**2, nuclear magnetic moments (NMagM)
  in nuclear magnetons)

  Atom         1           2           3
 IAtWgt=          16           1           1
 AtmWgt=  15.9949146   1.0078250   1.0078250
 NucSpn=           0           1           1
 AtZEff=   0.0000000   0.0000000   0.0000000
 NQMom=    0.0000000   0.0000000   0.0000000
 NMagM=    0.0000000   2.7928460   2.7928460
 AtZNuc=   8.0000000   1.0000000   1.0000000
 Leave Link  101 at Wed Aug 26 09:15:54 2020, MaxMem=  2097152000 cpu:         0.5
 (Enter /opt/cluster/programs/g09/g09_d.01/g09/l202.exe)
                          Input orientation:                          
 ---------------------------------------------------------------------
 Center     Atomic      Atomic             Coordinates (Angstroms)
 Number     Number       Type             X           Y           Z
 ---------------------------------------------------------------------
      1          8           0       -5.326605   -0.764403    0.911329
      2          1           0       -4.368927   -0.754774    0.992800
      3          1           0       -5.609308    0.169264    0.831025
 ---------------------------------------------------------------------
                    Distance matrix (angstroms):
                    1          2          3
     1  O    0.000000
     2  H    0.961185   0.000000
     3  H    0.978828   1.555173   0.000000
 Stoichiometry    H2O
 Framework group  CS[SG(H2O)]
 Deg. of freedom     3
 Full point group                 CS      NOp   2
 Largest Abelian subgroup         CS      NOp   2
 Largest concise Abelian subgroup C1      NOp   1
                         Standard orientation:                         
 ---------------------------------------------------------------------
 Center     Atomic      Atomic             Coordinates (Angstroms)
 Number     Number       Type             X           Y           Z
 ---------------------------------------------------------------------
      1          8           0        0.000000    0.115991    0.000000
      2          1           0        0.777446   -0.449212    0.000000
      3          1           0       -0.777446   -0.478719    0.000000
 ---------------------------------------------------------------------
 Rotational constants (GHZ):    839.9722632    414.5264307    277.5536602
 Leave Link  202 at Wed Aug 26 09:15:58 2020, MaxMem=  2097152000 cpu:         0.0
 (Enter /opt/cluster/programs/g09/g09_d.01/g09/l301.exe)
 Standard basis: def2QZVP (5D, 7F)
 Ernie: Thresh=  0.10000D-02 Tol=  0.10000D-05 Strict=F.
 There are    96 symmetry adapted cartesian basis functions of A'  symmetry.
 There are    46 symmetry adapted cartesian basis functions of A"  symmetry.
 There are    77 symmetry adapted basis functions of A'  symmetry.
 There are    40 symmetry adapted basis functions of A"  symmetry.
   117 basis functions,   168 primitive gaussians,   142 cartesian basis functions
     5 alpha electrons        5 beta electrons
       nuclear repulsion energy         9.0696279538 Hartrees.
 IExCor=  419 DFT=T Ex+Corr=B2PLYPD3 ExCW=0 ScaHFX=  0.530000
 ScaDFX=  0.470000  0.470000  0.730000  0.730000 ScalE2=  0.270000  0.270000
 IRadAn=      0 IRanWt=     -1 IRanGd=            0 ICorTp=0 IEmpDi=141
 NAtoms=    3 NActive=    3 NUniq=    3 SFac= 1.00D+00 NAtFMM=   60 NAOKFM=F Big=F
 Integral buffers will be    131072 words long.
 Regular integral format.
 Two-electron integral symmetry is turned on.
 R6Disp:  Grimme-D3(BJ) Dispersion energy=       -0.0002342644 Hartrees.
 Nuclear repulsion after empirical dispersion term =        9.0693936895 Hartrees.
 Leave Link  301 at Wed Aug 26 09:15:58 2020, MaxMem=  2097152000 cpu:         0.5
 (Enter /opt/cluster/programs/g09/g09_d.01/g09/l302.exe)
 NPDir=0 NMtPBC=     1 NCelOv=     1 NCel=       1 NClECP=     1 NCelD=      1
         NCelK=      1 NCelE2=     1 NClLst=     1 CellRange=     0.0.
 One-electron integrals computed using PRISM.
   1 Symmetry operations used in ECPInt.
 ECPInt:  NShTT=     703 NPrTT=    1591 LenC2=     704 LenP2D=    1541.
 LDataN:  DoStor=T MaxTD1= 8 Len=  415
 NBasis=   117 RedAO= T EigKep=  4.71D-04  NBF=    77    40
 NBsUse=   117 1.00D-06 EigRej= -1.00D+00 NBFU=    77    40
 Precomputing XC quadrature grid using
 IXCGrd= 4 IRadAn=           0 IRanWt=          -1 IRanGd=           0 AccXCQ= 0.00D+00.
 Generated NRdTot=       0 NPtTot=           0 NUsed=           0 NTot=          32
 NSgBfM=   142   142   142   142   142 MxSgAt=     3 MxSgA2=     3.
 Leave Link  302 at Wed Aug 26 09:15:59 2020, MaxMem=  2097152000 cpu:         1.5
 (Enter /opt/cluster/programs/g09/g09_d.01/g09/l303.exe)
 DipDrv:  MaxL=1.
 Leave Link  303 at Wed Aug 26 09:15:59 2020, MaxMem=  2097152000 cpu:         0.2
 (Enter /opt/cluster/programs/g09/g09_d.01/g09/l401.exe)
 ExpMin= 8.03D-02 ExpMax= 1.17D+05 ExpMxC= 1.13D+03 IAcc=2 IRadAn=         4 AccDes= 0.00D+00
 Harris functional with IExCor=  419 and IRadAn=       4 diagonalized for initial guess.
 HarFok:  IExCor=  419 AccDes= 0.00D+00 IRadAn=         4 IDoV= 1 UseB2=F ITyADJ=14
 ICtDFT=  3500011 ScaDFX=  1.000000  1.000000  1.000000  1.000000
 FoFCou: FMM=F IPFlag=           0 FMFlag=      100000 FMFlg1=           0
         NFxFlg=           0 DoJE=T BraDBF=F KetDBF=T FulRan=T
         wScrn=  0.000000 ICntrl=     500 IOpCl=  0 I1Cent=   200000004 NGrid=           0
         NMat0=    1 NMatS0=      1 NMatT0=    0 NMatD0=    1 NMtDS0=    0 NMtDT0=    0
 Petite list used in FoFCou.
 Harris En= -76.5066536498838    
 JPrj=0 DoOrth=F DoCkMO=F.
 Initial guess orbital symmetries:
       Occupied  (A') (A') (A') (A') (A")
       Virtual   (A') (A') (A') (A") (A') (A') (A') (A') (A") (A")
                 (A') (A') (A') (A') (A') (A') (A') (A") (A") (A")
                 (A') (A') (A') (A") (A') (A') (A") (A') (A") (A')
                 (A') (A") (A') (A') (A") (A") (A') (A') (A') (A')
                 (A') (A") (A") (A") (A') (A') (A') (A") (A') (A')
                 (A") (A') (A') (A") (A') (A') (A") (A') (A") (A')
                 (A") (A') (A') (A') (A") (A") (A') (A") (A') (A')
                 (A') (A') (A") (A") (A') (A") (A') (A") (A') (A')
                 (A') (A") (A") (A') (A') (A') (A") (A') (A') (A")
                 (A') (A') (A") (A') (A") (A") (A') (A") (A') (A")
                 (A') (A') (A') (A') (A') (A") (A") (A') (A') (A')
                 (A') (A')
 The electronic state of the initial guess is 1-A'.
 Leave Link  401 at Wed Aug 26 09:15:59 2020, MaxMem=  2097152000 cpu:         1.8
 (Enter /opt/cluster/programs/g09/g09_d.01/g09/l502.exe)
 Closed shell SCF:
 Using DIIS extrapolation, IDIIS=  1040.
 Integral symmetry usage will be decided dynamically.
 Keep R1 ints in memory in symmetry-blocked form, NReq=35980147.
 IVT=       81231 IEndB=       81231 NGot=  2097152000 MDV=  2085001127
 LenX=  2085001127 LenY=  2084980522
 Requested convergence on RMS density matrix=1.00D-08 within 128 cycles.
 Requested convergence on MAX density matrix=1.00D-06.
 Requested convergence on             energy=1.00D-06.
 No special actions if energy rises.
 FoFCou: FMM=F IPFlag=           0 FMFlag=           0 FMFlg1=           0
         NFxFlg=           0 DoJE=F BraDBF=F KetDBF=F FulRan=T
         wScrn=  0.000000 ICntrl=     600 IOpCl=  0 I1Cent=           0 NGrid=           0
         NMat0=    1 NMatS0=   6903 NMatT0=    0 NMatD0=    1 NMtDS0=    0 NMtDT0=    0
 Petite list used in FoFCou.
 Integral accuracy reduced to 1.0D-05 until final iterations.

 Cycle   1  Pass 0  IDiag  1:
 E= -76.2479062799742    
 DIIS: error= 4.52D-02 at cycle   1 NSaved=   1.
 NSaved= 1 IEnMin= 1 EnMin= -76.2479062799742     IErMin= 1 ErrMin= 4.52D-02
 ErrMax= 4.52D-02  0.00D+00 EMaxC= 1.00D-01 BMatC= 1.66D-01 BMatP= 1.66D-01
 IDIUse=3 WtCom= 5.48D-01 WtEn= 4.52D-01
 Coeff-Com:  0.100D+01
 Coeff-En:   0.100D+01
 Coeff:      0.100D+01
 Gap=     0.295 Goal=   None    Shift=    0.000
 GapD=    0.295 DampG=1.000 DampE=0.500 DampFc=0.5000 IDamp=-1.
 Damping current iteration by 5.00D-01
 RMSDP=2.37D-03 MaxDP=7.45D-02              OVMax= 1.70D-01

 Cycle   2  Pass 0  IDiag  1:
 E= -76.2857557960734     Delta-E=       -0.037849516099 Rises=F Damp=T
 DIIS: error= 1.57D-02 at cycle   2 NSaved=   2.
 NSaved= 2 IEnMin= 2 EnMin= -76.2857557960734     IErMin= 2 ErrMin= 1.57D-02
 ErrMax= 1.57D-02  0.00D+00 EMaxC= 1.00D-01 BMatC= 1.07D-02 BMatP= 1.66D-01
 IDIUse=3 WtCom= 8.43D-01 WtEn= 1.57D-01
 Coeff-Com:  0.174D-01 0.983D+00
 Coeff-En:   0.142D+00 0.858D+00
 Coeff:      0.370D-01 0.963D+00
 Gap=     0.442 Goal=   None    Shift=    0.000
 RMSDP=3.41D-04 MaxDP=1.20D-02 DE=-3.78D-02 OVMax= 1.02D-01

 Cycle   3  Pass 0  IDiag  1:
 E= -76.3339338260949     Delta-E=       -0.048178030022 Rises=F Damp=F
 DIIS: error= 3.89D-03 at cycle   3 NSaved=   3.
 NSaved= 3 IEnMin= 3 EnMin= -76.3339338260949     IErMin= 3 ErrMin= 3.89D-03
 ErrMax= 3.89D-03  0.00D+00 EMaxC= 1.00D-01 BMatC= 5.54D-04 BMatP= 1.07D-02
 IDIUse=3 WtCom= 9.61D-01 WtEn= 3.89D-02
 Coeff-Com: -0.560D-01 0.737D-01 0.982D+00
 Coeff-En:   0.000D+00 0.000D+00 0.100D+01
 Coeff:     -0.538D-01 0.708D-01 0.983D+00
 Gap=     0.441 Goal=   None    Shift=    0.000
 RMSDP=8.31D-05 MaxDP=2.59D-03 DE=-4.82D-02 OVMax= 6.53D-03

 Cycle   4  Pass 0  IDiag  1:
 E= -76.3343205247033     Delta-E=       -0.000386698608 Rises=F Damp=F
 DIIS: error= 2.76D-04 at cycle   4 NSaved=   4.
 NSaved= 4 IEnMin= 4 EnMin= -76.3343205247033     IErMin= 4 ErrMin= 2.76D-04
 ErrMax= 2.76D-04  0.00D+00 EMaxC= 1.00D-01 BMatC= 4.96D-06 BMatP= 5.54D-04
 IDIUse=3 WtCom= 9.97D-01 WtEn= 2.76D-03
 Coeff-Com:  0.429D-03-0.539D-02 0.617D-01 0.943D+00
 Coeff-En:   0.000D+00 0.000D+00 0.000D+00 0.100D+01
 Coeff:      0.428D-03-0.538D-02 0.616D-01 0.943D+00
 Gap=     0.442 Goal=   None    Shift=    0.000
 RMSDP=1.20D-05 MaxDP=4.20D-04 DE=-3.87D-04 OVMax= 7.85D-04

 Cycle   5  Pass 0  IDiag  1:
 E= -76.3343240063680     Delta-E=       -0.000003481665 Rises=F Damp=F
 DIIS: error= 5.85D-05 at cycle   5 NSaved=   5.
 NSaved= 5 IEnMin= 5 EnMin= -76.3343240063680     IErMin= 5 ErrMin= 5.85D-05
 ErrMax= 5.85D-05  0.00D+00 EMaxC= 1.00D-01 BMatC= 8.10D-08 BMatP= 4.96D-06
 IDIUse=1 WtCom= 1.00D+00 WtEn= 0.00D+00
 Coeff-Com:  0.233D-02-0.343D-02-0.344D-01 0.921D-02 0.103D+01
 Coeff:      0.233D-02-0.343D-02-0.344D-01 0.921D-02 0.103D+01
 Gap=     0.443 Goal=   None    Shift=    0.000
 RMSDP=2.77D-06 MaxDP=8.61D-05 DE=-3.48D-06 OVMax= 1.99D-04

 Initial convergence to 1.0D-05 achieved.  Increase integral accuracy.
 Cycle   6  Pass 1  IDiag  1:
 E= -76.3343180999981     Delta-E=        0.000005906370 Rises=F Damp=F
 DIIS: error= 1.28D-05 at cycle   1 NSaved=   1.
 NSaved= 1 IEnMin= 1 EnMin= -76.3343180999981     IErMin= 1 ErrMin= 1.28D-05
 ErrMax= 1.28D-05  0.00D+00 EMaxC= 1.00D-01 BMatC= 1.36D-08 BMatP= 1.36D-08
 IDIUse=1 WtCom= 1.00D+00 WtEn= 0.00D+00
 Coeff-Com:  0.100D+01
 Coeff:      0.100D+01
 Gap=     0.443 Goal=   None    Shift=    0.000
 RMSDP=2.77D-06 MaxDP=8.61D-05 DE= 5.91D-06 OVMax= 4.32D-05

 Cycle   7  Pass 1  IDiag  1:
 E= -76.3343181061219     Delta-E=       -0.000000006124 Rises=F Damp=F
 DIIS: error= 6.22D-06 at cycle   2 NSaved=   2.
 NSaved= 2 IEnMin= 2 EnMin= -76.3343181061219     IErMin= 2 ErrMin= 6.22D-06
 ErrMax= 6.22D-06  0.00D+00 EMaxC= 1.00D-01 BMatC= 1.30D-09 BMatP= 1.36D-08
 IDIUse=1 WtCom= 1.00D+00 WtEn= 0.00D+00
 Coeff-Com:  0.100D+00 0.900D+00
 Coeff:      0.100D+00 0.900D+00
 Gap=     0.443 Goal=   None    Shift=    0.000
 RMSDP=2.30D-07 MaxDP=7.49D-06 DE=-6.12D-09 OVMax= 2.24D-05

 Cycle   8  Pass 1  IDiag  1:
 E= -76.3343181066670     Delta-E=       -0.000000000545 Rises=F Damp=F
 DIIS: error= 4.58D-06 at cycle   3 NSaved=   3.
 NSaved= 3 IEnMin= 3 EnMin= -76.3343181066670     IErMin= 3 ErrMin= 4.58D-06
 ErrMax= 4.58D-06  0.00D+00 EMaxC= 1.00D-01 BMatC= 9.58D-10 BMatP= 1.30D-09
 IDIUse=1 WtCom= 1.00D+00 WtEn= 0.00D+00
 Coeff-Com: -0.361D-01 0.464D+00 0.572D+00
 Coeff:     -0.361D-01 0.464D+00 0.572D+00
 Gap=     0.443 Goal=   None    Shift=    0.000
 RMSDP=1.03D-07 MaxDP=3.57D-06 DE=-5.45D-10 OVMax= 9.13D-06

 Cycle   9  Pass 1  IDiag  1:
 E= -76.3343181073099     Delta-E=       -0.000000000643 Rises=F Damp=F
 DIIS: error= 4.97D-07 at cycle   4 NSaved=   4.
 NSaved= 4 IEnMin= 4 EnMin= -76.3343181073099     IErMin= 4 ErrMin= 4.97D-07
 ErrMax= 4.97D-07  0.00D+00 EMaxC= 1.00D-01 BMatC= 7.08D-12 BMatP= 9.58D-10
 IDIUse=1 WtCom= 1.00D+00 WtEn= 0.00D+00
 Coeff-Com: -0.177D-02-0.102D+00-0.664D-01 0.117D+01
 Coeff:     -0.177D-02-0.102D+00-0.664D-01 0.117D+01
 Gap=     0.443 Goal=   None    Shift=    0.000
 RMSDP=3.12D-08 MaxDP=9.23D-07 DE=-6.43D-10 OVMax= 2.46D-06

 Cycle  10  Pass 1  IDiag  1:
 E= -76.3343181073250     Delta-E=       -0.000000000015 Rises=F Damp=F
 DIIS: error= 7.19D-08 at cycle   5 NSaved=   5.
 NSaved= 5 IEnMin= 5 EnMin= -76.3343181073250     IErMin= 5 ErrMin= 7.19D-08
 ErrMax= 7.19D-08  0.00D+00 EMaxC= 1.00D-01 BMatC= 2.71D-13 BMatP= 7.08D-12
 IDIUse=1 WtCom= 1.00D+00 WtEn= 0.00D+00
 Coeff-Com:  0.169D-02-0.415D-01-0.402D-01 0.178D+00 0.902D+00
 Coeff:      0.169D-02-0.415D-01-0.402D-01 0.178D+00 0.902D+00
 Gap=     0.443 Goal=   None    Shift=    0.000
 RMSDP=4.01D-09 MaxDP=1.03D-07 DE=-1.51D-11 OVMax= 4.04D-07

 SCF Done:  E(RB2PLYPD3) =  -76.3343181073     A.U. after   10 cycles
            NFock= 10  Conv=0.40D-08     -V/T= 2.0033
 KE= 7.608184398456D+01 PE=-1.989564855752D+02 EE= 3.747092979380D+01
 Leave Link  502 at Wed Aug 26 09:16:01 2020, MaxMem=  2097152000 cpu:        13.5
 (Enter /opt/cluster/programs/g09/g09_d.01/g09/l801.exe)
 DoSCS=T DFT=T ScalE2(SS,OS)=  0.270000  0.270000
 ExpMin= 8.03D-02 ExpMax= 1.17D+05 ExpMxC= 1.13D+03 IAcc=3 IRadAn=         5 AccDes= 0.00D+00
 HarFok:  IExCor=  205 AccDes= 0.00D+00 IRadAn=         5 IDoV=-2 UseB2=F ITyADJ=14
 ICtDFT= 12500011 ScaDFX=  1.000000  1.000000  1.000000  1.000000
 Largest valence mixing into a core orbital is  6.79D-05
 Largest core mixing into a valence orbital is  1.01D-05
 Range of M.O.s used for correlation:     2   117
 NBasis=   117 NAE=     5 NBE=     5 NFC=     1 NFV=     0
 NROrb=    116 NOA=     4 NOB=     4 NVA=   112 NVB=   112

 **** Warning!!: The largest alpha MO coefficient is  0.15593610D+02

 Leave Link  801 at Wed Aug 26 09:16:01 2020, MaxMem=  2097152000 cpu:         0.4
 (Enter /opt/cluster/programs/g09/g09_d.01/g09/l906.exe)
 DoSCS=T DFT=T ScalE2(SS,OS)=  0.270000  0.270000
 FulOut=F Deriv=F AODrv=F NAtomX=     3
   MMem=       16445  MDisk=           4 MDiskD=           4
  W3Min=       63616 MinDsk=      271641 NBas6D=         142
 NBas2D=       10573    NTT=       10153    LW2=     4508827
    MDV=  2097048997 MDiskM=       32786 NBas2p=       10573
 Fully in-core method, ICMem=   125836233.
 IMap=   1   2   3   4
 JobTyp=1 Pass  1 fully in-core, NPsUse=  8.
 Compute canonical integrals.
 FoFCou: FMM=F IPFlag=           0 FMFlag=           0 FMFlg1=           0
         NFxFlg=           0 DoJE=F BraDBF=F KetDBF=F FulRan=T
         wScrn=  0.000000 ICntrl=     600 IOpCl=  1 I1Cent=           0 NGrid=           0
         NMat0=    1 NMatS0=  10573 NMatT0=    0 NMatD0=    1 NMtDS0=    0 NMtDT0=    0
 Symmetry not used in FoFCou.
 Spin components of T(2) and E(2):
     alpha-alpha T2 =       0.1232853214D-01 E2=     -0.1078603899D-01
     alpha-beta  T2 =       0.7166714912D-01 E2=     -0.6873818162D-01
     beta-beta   T2 =       0.1232853214D-01 E2=     -0.1078603899D-01
 The integrals were generated   1 times.
 E2(B2PLYPD3) =    -0.9031025960D-01 E(B2PLYPD3) =    -0.76424628366928D+02
 Leave Link  906 at Wed Aug 26 09:16:03 2020, MaxMem=  2097152000 cpu:        13.0
 (Enter /opt/cluster/programs/g09/g09_d.01/g09/l601.exe)
 Copying SCF densities to generalized density rwf, IOpCl= 0 IROHF=0.

 **********************************************************************

            Population analysis using the SCF density.

 **********************************************************************

 Orbital symmetries:
       Occupied  (A') (A') (A') (A') (A")
       Virtual   (A') (A') (A') (A") (A') (A') (A') (A') (A") (A")
                 (A') (A') (A') (A') (A') (A') (A") (A') (A") (A')
                 (A") (A') (A') (A") (A') (A') (A") (A') (A") (A')
                 (A') (A") (A') (A') (A") (A") (A') (A') (A') (A')
                 (A') (A") (A") (A') (A") (A') (A') (A") (A') (A')
                 (A") (A') (A') (A") (A') (A') (A") (A') (A") (A')
                 (A") (A') (A') (A") (A') (A") (A') (A") (A') (A')
                 (A') (A') (A") (A") (A') (A") (A') (A") (A') (A')
                 (A') (A") (A') (A") (A') (A') (A") (A') (A') (A")
                 (A') (A') (A") (A') (A") (A") (A') (A") (A') (A")
                 (A') (A') (A') (A') (A') (A") (A") (A') (A') (A')
                 (A') (A')
 The electronic state is 1-A'.
 Alpha  occ. eigenvalues --  -19.73226  -1.15024  -0.61107  -0.46950  -0.39823
 Alpha virt. eigenvalues --    0.04438   0.10068   0.27550   0.30447   0.30932
 Alpha virt. eigenvalues --    0.35104   0.43658   0.50533   0.55830   0.62665
 Alpha virt. eigenvalues --    0.65869   0.80714   0.93289   0.96208   1.03399
 Alpha virt. eigenvalues --    1.07390   1.32845   1.33974   1.35654   1.43111
 Alpha virt. eigenvalues --    1.43811   1.48754   1.84251   1.94624   2.04347
 Alpha virt. eigenvalues --    2.04764   2.13548   2.31411   2.33618   2.34707
 Alpha virt. eigenvalues --    2.37184   2.42911   2.56111   2.59933   2.69378
 Alpha virt. eigenvalues --    2.72852   2.94211   2.99206   3.13731   3.16202
 Alpha virt. eigenvalues --    3.31483   3.77625   3.90802   3.93487   3.95528
 Alpha virt. eigenvalues --    4.14802   4.16212   4.30144   4.31783   4.49213
 Alpha virt. eigenvalues --    4.66926   4.82803   4.90084   5.32218   5.39866
 Alpha virt. eigenvalues --    5.46869   5.83213   5.96974   6.05297   6.10505
 Alpha virt. eigenvalues --    6.42544   6.62626   6.80241   7.16721   7.16895
 Alpha virt. eigenvalues --    7.21855   7.23645   7.32145   7.39038   7.44102
 Alpha virt. eigenvalues --    7.45026   7.54359   7.79605   7.88694   7.91696
 Alpha virt. eigenvalues --    7.93823   7.98389   8.09179   8.17061   8.38076
 Alpha virt. eigenvalues --    8.58617   8.64751   8.84112   8.84384   9.04204
 Alpha virt. eigenvalues --    9.11836   9.89874   9.93434  10.35059  10.46810
 Alpha virt. eigenvalues --   10.82459  10.89068  11.04176  11.17699  11.29092
 Alpha virt. eigenvalues --   11.49023  11.59682  11.87859  11.91296  12.03242
 Alpha virt. eigenvalues --   12.05728  12.32423  12.90956  13.57936  13.72313
 Alpha virt. eigenvalues --   13.74423  14.20990  14.57292  16.65366  16.82521
 Alpha virt. eigenvalues --   48.70206 254.43372
          Condensed to atoms (all electrons):
               1          2          3
     1  O    7.782771   0.337739   0.335414
     2  H    0.337739   0.458940  -0.020924
     3  H    0.335414  -0.020924   0.453830
 Mulliken charges:
               1
     1  O   -0.455924
     2  H    0.224245
     3  H    0.231679
 Sum of Mulliken charges =   0.00000
 Mulliken charges with hydrogens summed into heavy atoms:
               1
     1  O    0.000000
 Electronic spatial extent (au):  <R**2>=             19.8019
 Charge=              0.0000 electrons
 Dipole moment (field-independent basis, Debye):
    X=              0.0086    Y=             -1.9386    Z=              0.0000  Tot=              1.9386
 Quadrupole moment (field-independent basis, Debye-Ang):
   XX=             -4.2293   YY=             -6.3887   ZZ=             -7.6229
   XY=              0.0502   XZ=              0.0000   YZ=              0.0000
 Traceless Quadrupole moment (field-independent basis, Debye-Ang):
   XX=              1.8510   YY=             -0.3084   ZZ=             -1.5426
   XY=              0.0502   XZ=              0.0000   YZ=              0.0000
 Octapole moment (field-independent basis, Debye-Ang**2):
  XXX=              0.0272  YYY=             -1.1280  ZZZ=              0.0000  XYY=             -0.0333
  XXY=             -1.3977  XXZ=              0.0000  XZZ=              0.0101  YZZ=             -0.2725
  YYZ=              0.0000  XYZ=              0.0000
 Hexadecapole moment (field-independent basis, Debye-Ang**3):
 XXXX=             -6.2136 YYYY=             -7.4579 ZZZZ=             -6.8002 XXXY=             -0.0022
 XXXZ=              0.0000 YYYX=             -0.0007 YYYZ=              0.0000 ZZZX=              0.0000
 ZZZY=              0.0000 XXYY=             -1.9526 XXZZ=             -2.5291 YYZZ=             -2.4285
 XXYZ=              0.0000 YYXZ=              0.0000 ZZXY=             -0.0133
 N-N= 9.069393689472D+00 E-N=-1.989564852270D+02  KE= 7.608184398456D+01
 Symmetry A'   KE= 7.156513161483D+01
 Symmetry A"   KE= 4.516712369731D+00
 Leave Link  601 at Wed Aug 26 09:16:03 2020, MaxMem=  2097152000 cpu:         0.3
 (Enter /opt/cluster/programs/g09/g09_d.01/g09/l9999.exe)
 1\1\GINC-NODE22\SP\RB2PLYPD3-FC\def2QZVP\H2O1\BOITTIER\26-Aug-2020\0\\
 #p B2PLYPD3/Def2QZVP\\h2o\\0,1\O,0,-5.326605,-0.764403,0.911329\H,0,-4
 .368927,-0.754774,0.9928\H,0,-5.609308,0.169264,0.831025\\Version=ES64
 L-G09RevD.01\State=1-A'\HF=-76.3343181\MP2=-76.4246284\RMSD=4.005e-09\
 PG=CS [SG(H2O1)]\\@


      LET US REMEMBER, PLEASE, THAT THE SEARCH FOR THE CONSTITUTION
      OF THE WORLD IS ONE OF THE GREATEST AND NOBLEST PROBLEMS PRESENTED 
      BY NATURE.

                                                  -- GALILEO
 Job cpu time:       0 days  0 hours  0 minutes 32.3 seconds.
 File lengths (MBytes):  RWF=      8 Int=      0 D2E=      0 Chk=      2 Scr=      1
 Normal termination of Gaussian 09 at Wed Aug 26 09:16:03 2020.
