 Entering Gaussian System, Link 0=/opt/cluster/programs/g09/g09_d.01/g09//g09
 Input=/home/boittier/MDCM/nms_sampling/h2o_geom.xyz.dir/energies/h2o_168_energy.com
 Output=/scratch/boittier/h2o_168_energy/h2o_168_energy.out
 Initial command:
 /opt/cluster/programs/g09/g09_d.01/g09/l1.exe "/scratch/boittier/h2o_168_energy/Gau-148112.inp" -scrdir="/scratch/boittier/h2o_168_energy/"
 Entering Link 1 = /opt/cluster/programs/g09/g09_d.01/g09/l1.exe PID=    148113.
  
 Copyright (c) 1988,1990,1992,1993,1995,1998,2003,2009,2013,
            Gaussian, Inc.  All Rights Reserved.
  
 This is part of the Gaussian(R) 09 program.  It is based on
 the Gaussian(R) 03 system (copyright 2003, Gaussian, Inc.),
 the Gaussian(R) 98 system (copyright 1998, Gaussian, Inc.),
 the Gaussian(R) 94 system (copyright 1995, Gaussian, Inc.),
 the Gaussian 92(TM) system (copyright 1992, Gaussian, Inc.),
 the Gaussian 90(TM) system (copyright 1990, Gaussian, Inc.),
 the Gaussian 88(TM) system (copyright 1988, Gaussian, Inc.),
 the Gaussian 86(TM) system (copyright 1986, Carnegie Mellon
 University), and the Gaussian 82(TM) system (copyright 1983,
 Carnegie Mellon University). Gaussian is a federally registered
 trademark of Gaussian, Inc.
  
 This software contains proprietary and confidential information,
 including trade secrets, belonging to Gaussian, Inc.
  
 This software is provided under written license and may be
 used, copied, transmitted, or stored only in accord with that
 written license.
  
 The following legend is applicable only to US Government
 contracts under FAR:
  
                    RESTRICTED RIGHTS LEGEND
  
 Use, reproduction and disclosure by the US Government is
 subject to restrictions as set forth in subparagraphs (a)
 and (c) of the Commercial Computer Software - Restricted
 Rights clause in FAR 52.227-19.
  
 Gaussian, Inc.
 340 Quinnipiac St., Bldg. 40, Wallingford CT 06492
  
  
 ---------------------------------------------------------------
 Warning -- This program may not be used in any manner that
 competes with the business of Gaussian, Inc. or will provide
 assistance to any competitor of Gaussian, Inc.  The licensee
 of this program is prohibited from giving any competitor of
 Gaussian, Inc. access to this program.  By using this program,
 the user acknowledges that Gaussian, Inc. is engaged in the
 business of creating and licensing software in the field of
 computational chemistry and represents and warrants to the
 licensee that it is not a competitor of Gaussian, Inc. and that
 it will not use this program in any manner prohibited above.
 ---------------------------------------------------------------
  

 Cite this work as:
 Gaussian 09, Revision D.01,
 M. J. Frisch, G. W. Trucks, H. B. Schlegel, G. E. Scuseria, 
 M. A. Robb, J. R. Cheeseman, G. Scalmani, V. Barone, B. Mennucci, 
 G. A. Petersson, H. Nakatsuji, M. Caricato, X. Li, H. P. Hratchian, 
 A. F. Izmaylov, J. Bloino, G. Zheng, J. L. Sonnenberg, M. Hada, 
 M. Ehara, K. Toyota, R. Fukuda, J. Hasegawa, M. Ishida, T. Nakajima, 
 Y. Honda, O. Kitao, H. Nakai, T. Vreven, J. A. Montgomery, Jr., 
 J. E. Peralta, F. Ogliaro, M. Bearpark, J. J. Heyd, E. Brothers, 
 K. N. Kudin, V. N. Staroverov, T. Keith, R. Kobayashi, J. Normand, 
 K. Raghavachari, A. Rendell, J. C. Burant, S. S. Iyengar, J. Tomasi, 
 M. Cossi, N. Rega, J. M. Millam, M. Klene, J. E. Knox, J. B. Cross, 
 V. Bakken, C. Adamo, J. Jaramillo, R. Gomperts, R. E. Stratmann, 
 O. Yazyev, A. J. Austin, R. Cammi, C. Pomelli, J. W. Ochterski, 
 R. L. Martin, K. Morokuma, V. G. Zakrzewski, G. A. Voth, 
 P. Salvador, J. J. Dannenberg, S. Dapprich, A. D. Daniels, 
 O. Farkas, J. B. Foresman, J. V. Ortiz, J. Cioslowski, 
 and D. J. Fox, Gaussian, Inc., Wallingford CT, 2013.
 
 ******************************************
 Gaussian 09:  ES64L-G09RevD.01 24-Apr-2013
                26-Aug-2020 
 ******************************************
 %chk=/home/boittier/MDCM/nms_sampling/h2o_geom.xyz.dir/h2o_168.chk
 %nproc=8
 Will use up to    8 processors via shared memory.
 %mem=16000MB
 --------------------
 #p B2PLYPD3/Def2QZVP
 --------------------
 1/38=1/1;
 2/12=2,17=6,18=5,40=1/2;
 3/5=45,7=101,11=9,16=1,25=1,30=1,74=-60/1,2,3;
 4//1;
 5/5=2,38=5/2;
 8/10=1/1;
 9/16=-3/6;
 6/7=2,8=2,9=2,10=2/1;
 99/5=1,9=1/99;
 Leave Link    1 at Wed Aug 26 09:17:55 2020, MaxMem=  2097152000 cpu:         0.2
 (Enter /opt/cluster/programs/g09/g09_d.01/g09/l101.exe)
 ---
 h2o
 ---
 Symbolic Z-matrix:
 Charge =  0 Multiplicity = 1
 O                    -5.3266   -0.76549   0.91707 
 H                    -4.36893  -0.72476   0.95373 
 H                    -5.60931   0.15661   0.77862 
 
 NAtoms=      3 NQM=        3 NQMF=       0 NMMI=      0 NMMIF=      0
                NMic=       0 NMicF=      0.
                    Isotopes and Nuclear Properties:
 (Nuclear quadrupole moments (NQMom) in fm**2, nuclear magnetic moments (NMagM)
  in nuclear magnetons)

  Atom         1           2           3
 IAtWgt=          16           1           1
 AtmWgt=  15.9949146   1.0078250   1.0078250
 NucSpn=           0           1           1
 AtZEff=   0.0000000   0.0000000   0.0000000
 NQMom=    0.0000000   0.0000000   0.0000000
 NMagM=    0.0000000   2.7928460   2.7928460
 AtZNuc=   8.0000000   1.0000000   1.0000000
 Leave Link  101 at Wed Aug 26 09:17:55 2020, MaxMem=  2097152000 cpu:         0.5
 (Enter /opt/cluster/programs/g09/g09_d.01/g09/l202.exe)
                          Input orientation:                          
 ---------------------------------------------------------------------
 Center     Atomic      Atomic             Coordinates (Angstroms)
 Number     Number       Type             X           Y           Z
 ---------------------------------------------------------------------
      1          8           0       -5.326605   -0.765488    0.917065
      2          1           0       -4.368927   -0.724762    0.953728
      3          1           0       -5.609308    0.156613    0.778622
 ---------------------------------------------------------------------
                    Distance matrix (angstroms):
                    1          2          3
     1  O    0.000000
     2  H    0.959244   0.000000
     3  H    0.974350   1.531675   0.000000
 Stoichiometry    H2O
 Framework group  CS[SG(H2O)]
 Deg. of freedom     3
 Full point group                 CS      NOp   2
 Largest Abelian subgroup         CS      NOp   2
 Largest concise Abelian subgroup C1      NOp   1
                         Standard orientation:                         
 ---------------------------------------------------------------------
 Center     Atomic      Atomic             Coordinates (Angstroms)
 Number     Number       Type             X           Y           Z
 ---------------------------------------------------------------------
      1          8           0        0.000000    0.118025    0.000000
      2          1           0        0.765738   -0.459726    0.000000
      3          1           0       -0.765738   -0.484473    0.000000
 ---------------------------------------------------------------------
 Rotational constants (GHZ):    811.1485264    427.3682863    279.8986272
 Leave Link  202 at Wed Aug 26 09:17:55 2020, MaxMem=  2097152000 cpu:         0.0
 (Enter /opt/cluster/programs/g09/g09_d.01/g09/l301.exe)
 Standard basis: def2QZVP (5D, 7F)
 Ernie: Thresh=  0.10000D-02 Tol=  0.10000D-05 Strict=F.
 There are    96 symmetry adapted cartesian basis functions of A'  symmetry.
 There are    46 symmetry adapted cartesian basis functions of A"  symmetry.
 There are    77 symmetry adapted basis functions of A'  symmetry.
 There are    40 symmetry adapted basis functions of A"  symmetry.
   117 basis functions,   168 primitive gaussians,   142 cartesian basis functions
     5 alpha electrons        5 beta electrons
       nuclear repulsion energy         9.1036365025 Hartrees.
 IExCor=  419 DFT=T Ex+Corr=B2PLYPD3 ExCW=0 ScaHFX=  0.530000
 ScaDFX=  0.470000  0.470000  0.730000  0.730000 ScalE2=  0.270000  0.270000
 IRadAn=      0 IRanWt=     -1 IRanGd=            0 ICorTp=0 IEmpDi=141
 NAtoms=    3 NActive=    3 NUniq=    3 SFac= 1.00D+00 NAtFMM=   60 NAOKFM=F Big=F
 Integral buffers will be    131072 words long.
 Regular integral format.
 Two-electron integral symmetry is turned on.
 R6Disp:  Grimme-D3(BJ) Dispersion energy=       -0.0002342936 Hartrees.
 Nuclear repulsion after empirical dispersion term =        9.1034022089 Hartrees.
 Leave Link  301 at Wed Aug 26 09:17:55 2020, MaxMem=  2097152000 cpu:         0.4
 (Enter /opt/cluster/programs/g09/g09_d.01/g09/l302.exe)
 NPDir=0 NMtPBC=     1 NCelOv=     1 NCel=       1 NClECP=     1 NCelD=      1
         NCelK=      1 NCelE2=     1 NClLst=     1 CellRange=     0.0.
 One-electron integrals computed using PRISM.
   1 Symmetry operations used in ECPInt.
 ECPInt:  NShTT=     703 NPrTT=    1591 LenC2=     704 LenP2D=    1543.
 LDataN:  DoStor=T MaxTD1= 8 Len=  415
 NBasis=   117 RedAO= T EigKep=  4.63D-04  NBF=    77    40
 NBsUse=   117 1.00D-06 EigRej= -1.00D+00 NBFU=    77    40
 Precomputing XC quadrature grid using
 IXCGrd= 4 IRadAn=           0 IRanWt=          -1 IRanGd=           0 AccXCQ= 0.00D+00.
 Generated NRdTot=       0 NPtTot=           0 NUsed=           0 NTot=          32
 NSgBfM=   142   142   142   142   142 MxSgAt=     3 MxSgA2=     3.
 Leave Link  302 at Wed Aug 26 09:17:55 2020, MaxMem=  2097152000 cpu:         1.7
 (Enter /opt/cluster/programs/g09/g09_d.01/g09/l303.exe)
 DipDrv:  MaxL=1.
 Leave Link  303 at Wed Aug 26 09:17:55 2020, MaxMem=  2097152000 cpu:         0.2
 (Enter /opt/cluster/programs/g09/g09_d.01/g09/l401.exe)
 ExpMin= 8.03D-02 ExpMax= 1.17D+05 ExpMxC= 1.13D+03 IAcc=2 IRadAn=         4 AccDes= 0.00D+00
 Harris functional with IExCor=  419 and IRadAn=       4 diagonalized for initial guess.
 HarFok:  IExCor=  419 AccDes= 0.00D+00 IRadAn=         4 IDoV= 1 UseB2=F ITyADJ=14
 ICtDFT=  3500011 ScaDFX=  1.000000  1.000000  1.000000  1.000000
 FoFCou: FMM=F IPFlag=           0 FMFlag=      100000 FMFlg1=           0
         NFxFlg=           0 DoJE=T BraDBF=F KetDBF=T FulRan=T
         wScrn=  0.000000 ICntrl=     500 IOpCl=  0 I1Cent=   200000004 NGrid=           0
         NMat0=    1 NMatS0=      1 NMatT0=    0 NMatD0=    1 NMtDS0=    0 NMtDT0=    0
 Petite list used in FoFCou.
 Harris En= -76.5069068309146    
 JPrj=0 DoOrth=F DoCkMO=F.
 Initial guess orbital symmetries:
       Occupied  (A') (A') (A') (A') (A")
       Virtual   (A') (A') (A') (A") (A') (A') (A') (A') (A") (A")
                 (A') (A') (A') (A') (A') (A') (A') (A") (A") (A")
                 (A') (A') (A') (A") (A') (A') (A") (A') (A") (A')
                 (A') (A") (A') (A') (A") (A") (A') (A') (A') (A')
                 (A') (A") (A") (A') (A") (A') (A') (A") (A') (A')
                 (A") (A') (A') (A") (A') (A') (A") (A') (A") (A')
                 (A") (A') (A') (A') (A") (A") (A') (A") (A') (A')
                 (A') (A') (A") (A") (A") (A') (A') (A") (A') (A')
                 (A') (A") (A') (A") (A') (A') (A") (A') (A') (A")
                 (A') (A') (A") (A') (A") (A") (A') (A") (A') (A")
                 (A') (A') (A') (A') (A') (A") (A") (A') (A') (A')
                 (A') (A')
 The electronic state of the initial guess is 1-A'.
 Leave Link  401 at Wed Aug 26 09:17:55 2020, MaxMem=  2097152000 cpu:         1.9
 (Enter /opt/cluster/programs/g09/g09_d.01/g09/l502.exe)
 Closed shell SCF:
 Using DIIS extrapolation, IDIIS=  1040.
 Integral symmetry usage will be decided dynamically.
 Keep R1 ints in memory in symmetry-blocked form, NReq=35980147.
 IVT=       81231 IEndB=       81231 NGot=  2097152000 MDV=  2085001127
 LenX=  2085001127 LenY=  2084980522
 Requested convergence on RMS density matrix=1.00D-08 within 128 cycles.
 Requested convergence on MAX density matrix=1.00D-06.
 Requested convergence on             energy=1.00D-06.
 No special actions if energy rises.
 FoFCou: FMM=F IPFlag=           0 FMFlag=           0 FMFlg1=           0
         NFxFlg=           0 DoJE=F BraDBF=F KetDBF=F FulRan=T
         wScrn=  0.000000 ICntrl=     600 IOpCl=  0 I1Cent=           0 NGrid=           0
         NMat0=    1 NMatS0=   6903 NMatT0=    0 NMatD0=    1 NMtDS0=    0 NMtDT0=    0
 Petite list used in FoFCou.
 Integral accuracy reduced to 1.0D-05 until final iterations.

 Cycle   1  Pass 0  IDiag  1:
 E= -76.2481102946803    
 DIIS: error= 4.57D-02 at cycle   1 NSaved=   1.
 NSaved= 1 IEnMin= 1 EnMin= -76.2481102946803     IErMin= 1 ErrMin= 4.57D-02
 ErrMax= 4.57D-02  0.00D+00 EMaxC= 1.00D-01 BMatC= 1.67D-01 BMatP= 1.67D-01
 IDIUse=3 WtCom= 5.43D-01 WtEn= 4.57D-01
 Coeff-Com:  0.100D+01
 Coeff-En:   0.100D+01
 Coeff:      0.100D+01
 Gap=     0.295 Goal=   None    Shift=    0.000
 GapD=    0.295 DampG=1.000 DampE=0.500 DampFc=0.5000 IDamp=-1.
 Damping current iteration by 5.00D-01
 RMSDP=2.37D-03 MaxDP=7.60D-02              OVMax= 1.69D-01

 Cycle   2  Pass 0  IDiag  1:
 E= -76.2860825409145     Delta-E=       -0.037972246234 Rises=F Damp=T
 DIIS: error= 1.57D-02 at cycle   2 NSaved=   2.
 NSaved= 2 IEnMin= 2 EnMin= -76.2860825409145     IErMin= 2 ErrMin= 1.57D-02
 ErrMax= 1.57D-02  0.00D+00 EMaxC= 1.00D-01 BMatC= 1.06D-02 BMatP= 1.67D-01
 IDIUse=3 WtCom= 8.43D-01 WtEn= 1.57D-01
 Coeff-Com:  0.165D-01 0.983D+00
 Coeff-En:   0.141D+00 0.859D+00
 Coeff:      0.360D-01 0.964D+00
 Gap=     0.443 Goal=   None    Shift=    0.000
 RMSDP=3.44D-04 MaxDP=1.19D-02 DE=-3.80D-02 OVMax= 1.02D-01

 Cycle   3  Pass 0  IDiag  1:
 E= -76.3342569477532     Delta-E=       -0.048174406839 Rises=F Damp=F
 DIIS: error= 3.88D-03 at cycle   3 NSaved=   3.
 NSaved= 3 IEnMin= 3 EnMin= -76.3342569477532     IErMin= 3 ErrMin= 3.88D-03
 ErrMax= 3.88D-03  0.00D+00 EMaxC= 1.00D-01 BMatC= 5.51D-04 BMatP= 1.06D-02
 IDIUse=3 WtCom= 9.61D-01 WtEn= 3.88D-02
 Coeff-Com: -0.559D-01 0.731D-01 0.983D+00
 Coeff-En:   0.000D+00 0.000D+00 0.100D+01
 Coeff:     -0.538D-01 0.703D-01 0.983D+00
 Gap=     0.442 Goal=   None    Shift=    0.000
 RMSDP=8.36D-05 MaxDP=2.67D-03 DE=-4.82D-02 OVMax= 6.51D-03

 Cycle   4  Pass 0  IDiag  1:
 E= -76.3346410727697     Delta-E=       -0.000384125017 Rises=F Damp=F
 DIIS: error= 2.79D-04 at cycle   4 NSaved=   4.
 NSaved= 4 IEnMin= 4 EnMin= -76.3346410727697     IErMin= 4 ErrMin= 2.79D-04
 ErrMax= 2.79D-04  0.00D+00 EMaxC= 1.00D-01 BMatC= 4.79D-06 BMatP= 5.51D-04
 IDIUse=3 WtCom= 9.97D-01 WtEn= 2.79D-03
 Coeff-Com:  0.147D-02-0.670D-02 0.448D-01 0.960D+00
 Coeff-En:   0.000D+00 0.000D+00 0.000D+00 0.100D+01
 Coeff:      0.146D-02-0.668D-02 0.447D-01 0.961D+00
 Gap=     0.443 Goal=   None    Shift=    0.000
 RMSDP=1.19D-05 MaxDP=4.26D-04 DE=-3.84D-04 OVMax= 7.87D-04

 Cycle   5  Pass 0  IDiag  1:
 E= -76.3346444697202     Delta-E=       -0.000003396950 Rises=F Damp=F
 DIIS: error= 5.58D-05 at cycle   5 NSaved=   5.
 NSaved= 5 IEnMin= 5 EnMin= -76.3346444697202     IErMin= 5 ErrMin= 5.58D-05
 ErrMax= 5.58D-05  0.00D+00 EMaxC= 1.00D-01 BMatC= 7.38D-08 BMatP= 4.79D-06
 IDIUse=1 WtCom= 1.00D+00 WtEn= 0.00D+00
 Coeff-Com:  0.228D-02-0.338D-02-0.333D-01 0.233D-01 0.101D+01
 Coeff:      0.228D-02-0.338D-02-0.333D-01 0.233D-01 0.101D+01
 Gap=     0.443 Goal=   None    Shift=    0.000
 RMSDP=2.56D-06 MaxDP=8.01D-05 DE=-3.40D-06 OVMax= 1.87D-04

 Initial convergence to 1.0D-05 achieved.  Increase integral accuracy.
 Cycle   6  Pass 1  IDiag  1:
 E= -76.3346387809754     Delta-E=        0.000005688745 Rises=F Damp=F
 DIIS: error= 1.35D-05 at cycle   1 NSaved=   1.
 NSaved= 1 IEnMin= 1 EnMin= -76.3346387809754     IErMin= 1 ErrMin= 1.35D-05
 ErrMax= 1.35D-05  0.00D+00 EMaxC= 1.00D-01 BMatC= 1.31D-08 BMatP= 1.31D-08
 IDIUse=1 WtCom= 1.00D+00 WtEn= 0.00D+00
 Coeff-Com:  0.100D+01
 Coeff:      0.100D+01
 Gap=     0.443 Goal=   None    Shift=    0.000
 RMSDP=2.56D-06 MaxDP=8.01D-05 DE= 5.69D-06 OVMax= 4.17D-05

 Cycle   7  Pass 1  IDiag  1:
 E= -76.3346387869158     Delta-E=       -0.000000005940 Rises=F Damp=F
 DIIS: error= 6.17D-06 at cycle   2 NSaved=   2.
 NSaved= 2 IEnMin= 2 EnMin= -76.3346387869158     IErMin= 2 ErrMin= 6.17D-06
 ErrMax= 6.17D-06  0.00D+00 EMaxC= 1.00D-01 BMatC= 1.22D-09 BMatP= 1.31D-08
 IDIUse=1 WtCom= 1.00D+00 WtEn= 0.00D+00
 Coeff-Com:  0.971D-01 0.903D+00
 Coeff:      0.971D-01 0.903D+00
 Gap=     0.443 Goal=   None    Shift=    0.000
 RMSDP=2.24D-07 MaxDP=7.25D-06 DE=-5.94D-09 OVMax= 2.18D-05

 Cycle   8  Pass 1  IDiag  1:
 E= -76.3346387874322     Delta-E=       -0.000000000516 Rises=F Damp=F
 DIIS: error= 4.49D-06 at cycle   3 NSaved=   3.
 NSaved= 3 IEnMin= 3 EnMin= -76.3346387874322     IErMin= 3 ErrMin= 4.49D-06
 ErrMax= 4.49D-06  0.00D+00 EMaxC= 1.00D-01 BMatC= 9.05D-10 BMatP= 1.22D-09
 IDIUse=1 WtCom= 1.00D+00 WtEn= 0.00D+00
 Coeff-Com: -0.361D-01 0.465D+00 0.571D+00
 Coeff:     -0.361D-01 0.465D+00 0.571D+00
 Gap=     0.443 Goal=   None    Shift=    0.000
 RMSDP=1.01D-07 MaxDP=3.55D-06 DE=-5.16D-10 OVMax= 8.79D-06

 Cycle   9  Pass 1  IDiag  1:
 E= -76.3346387880374     Delta-E=       -0.000000000605 Rises=F Damp=F
 DIIS: error= 5.05D-07 at cycle   4 NSaved=   4.
 NSaved= 4 IEnMin= 4 EnMin= -76.3346387880374     IErMin= 4 ErrMin= 5.05D-07
 ErrMax= 5.05D-07  0.00D+00 EMaxC= 1.00D-01 BMatC= 6.81D-12 BMatP= 9.05D-10
 IDIUse=1 WtCom= 1.00D+00 WtEn= 0.00D+00
 Coeff-Com: -0.243D-02-0.942D-01-0.569D-01 0.115D+01
 Coeff:     -0.243D-02-0.942D-01-0.569D-01 0.115D+01
 Gap=     0.443 Goal=   None    Shift=    0.000
 RMSDP=2.97D-08 MaxDP=8.91D-07 DE=-6.05D-10 OVMax= 2.39D-06

 Cycle  10  Pass 1  IDiag  1:
 E= -76.3346387880524     Delta-E=       -0.000000000015 Rises=F Damp=F
 DIIS: error= 7.25D-08 at cycle   5 NSaved=   5.
 NSaved= 5 IEnMin= 5 EnMin= -76.3346387880524     IErMin= 5 ErrMin= 7.25D-08
 ErrMax= 7.25D-08  0.00D+00 EMaxC= 1.00D-01 BMatC= 2.71D-13 BMatP= 6.81D-12
 IDIUse=1 WtCom= 1.00D+00 WtEn= 0.00D+00
 Coeff-Com:  0.172D-02-0.411D-01-0.401D-01 0.168D+00 0.911D+00
 Coeff:      0.172D-02-0.411D-01-0.401D-01 0.168D+00 0.911D+00
 Gap=     0.443 Goal=   None    Shift=    0.000
 RMSDP=4.10D-09 MaxDP=1.07D-07 DE=-1.49D-11 OVMax= 4.05D-07

 SCF Done:  E(RB2PLYPD3) =  -76.3346387881     A.U. after   10 cycles
            NFock= 10  Conv=0.41D-08     -V/T= 2.0031
 KE= 7.609663300786D+01 PE=-1.990273399991D+02 EE= 3.749266599437D+01
 Leave Link  502 at Wed Aug 26 09:17:57 2020, MaxMem=  2097152000 cpu:        13.2
 (Enter /opt/cluster/programs/g09/g09_d.01/g09/l801.exe)
 DoSCS=T DFT=T ScalE2(SS,OS)=  0.270000  0.270000
 ExpMin= 8.03D-02 ExpMax= 1.17D+05 ExpMxC= 1.13D+03 IAcc=3 IRadAn=         5 AccDes= 0.00D+00
 HarFok:  IExCor=  205 AccDes= 0.00D+00 IRadAn=         5 IDoV=-2 UseB2=F ITyADJ=14
 ICtDFT= 12500011 ScaDFX=  1.000000  1.000000  1.000000  1.000000
 Largest valence mixing into a core orbital is  6.79D-05
 Largest core mixing into a valence orbital is  1.01D-05
 Range of M.O.s used for correlation:     2   117
 NBasis=   117 NAE=     5 NBE=     5 NFC=     1 NFV=     0
 NROrb=    116 NOA=     4 NOB=     4 NVA=   112 NVB=   112

 **** Warning!!: The largest alpha MO coefficient is  0.15557580D+02

 Leave Link  801 at Wed Aug 26 09:17:57 2020, MaxMem=  2097152000 cpu:         0.4
 (Enter /opt/cluster/programs/g09/g09_d.01/g09/l906.exe)
 DoSCS=T DFT=T ScalE2(SS,OS)=  0.270000  0.270000
 FulOut=F Deriv=F AODrv=F NAtomX=     3
   MMem=       16445  MDisk=           4 MDiskD=           4
  W3Min=       63616 MinDsk=      271641 NBas6D=         142
 NBas2D=       10573    NTT=       10153    LW2=     4508827
    MDV=  2097048983 MDiskM=       32786 NBas2p=       10573
 Fully in-core method, ICMem=   125836233.
 IMap=   1   2   3   4
 JobTyp=1 Pass  1 fully in-core, NPsUse=  8.
 Compute canonical integrals.
 FoFCou: FMM=F IPFlag=           0 FMFlag=           0 FMFlg1=           0
         NFxFlg=           0 DoJE=F BraDBF=F KetDBF=F FulRan=T
         wScrn=  0.000000 ICntrl=     600 IOpCl=  1 I1Cent=           0 NGrid=           0
         NMat0=    1 NMatS0=  10573 NMatT0=    0 NMatD0=    1 NMtDS0=    0 NMtDT0=    0
 Symmetry not used in FoFCou.
 Spin components of T(2) and E(2):
     alpha-alpha T2 =       0.1229886654D-01 E2=     -0.1078096133D-01
     alpha-beta  T2 =       0.7143982303D-01 E2=     -0.6869453285D-01
     beta-beta   T2 =       0.1229886654D-01 E2=     -0.1078096133D-01
 The integrals were generated   1 times.
 E2(B2PLYPD3) =    -0.9025645551D-01 E(B2PLYPD3) =    -0.76424895243559D+02
 Leave Link  906 at Wed Aug 26 09:17:59 2020, MaxMem=  2097152000 cpu:        12.5
 (Enter /opt/cluster/programs/g09/g09_d.01/g09/l601.exe)
 Copying SCF densities to generalized density rwf, IOpCl= 0 IROHF=0.

 **********************************************************************

            Population analysis using the SCF density.

 **********************************************************************

 Orbital symmetries:
       Occupied  (A') (A') (A') (A') (A")
       Virtual   (A') (A') (A') (A") (A') (A') (A') (A') (A") (A")
                 (A') (A') (A') (A') (A') (A') (A") (A') (A") (A')
                 (A") (A') (A') (A") (A') (A') (A") (A') (A") (A')
                 (A') (A") (A') (A') (A") (A") (A') (A') (A') (A')
                 (A') (A") (A") (A') (A") (A') (A') (A") (A') (A')
                 (A") (A') (A') (A") (A') (A') (A") (A') (A") (A')
                 (A") (A') (A') (A") (A') (A") (A') (A") (A') (A')
                 (A') (A') (A") (A") (A") (A') (A') (A") (A') (A')
                 (A') (A") (A') (A") (A') (A') (A") (A') (A') (A")
                 (A') (A') (A") (A') (A") (A") (A') (A") (A') (A')
                 (A") (A') (A') (A') (A') (A") (A") (A') (A') (A')
                 (A') (A')
 The electronic state is 1-A'.
 Alpha  occ. eigenvalues --  -19.73253  -1.15295  -0.60930  -0.47332  -0.39895
 Alpha virt. eigenvalues --    0.04446   0.10129   0.27563   0.30432   0.30824
 Alpha virt. eigenvalues --    0.35539   0.43754   0.50206   0.56140   0.62153
 Alpha virt. eigenvalues --    0.65829   0.80942   0.93564   0.96100   1.03265
 Alpha virt. eigenvalues --    1.08078   1.33527   1.33962   1.35455   1.42381
 Alpha virt. eigenvalues --    1.43694   1.48892   1.84275   1.93247   2.03507
 Alpha virt. eigenvalues --    2.04981   2.14311   2.30671   2.33481   2.35725
 Alpha virt. eigenvalues --    2.37512   2.44079   2.56164   2.60238   2.68902
 Alpha virt. eigenvalues --    2.72307   2.91641   2.99090   3.16478   3.17108
 Alpha virt. eigenvalues --    3.32005   3.78195   3.90727   3.94057   3.95999
 Alpha virt. eigenvalues --    4.13681   4.17347   4.30027   4.31826   4.49251
 Alpha virt. eigenvalues --    4.68217   4.83420   4.89055   5.33077   5.41115
 Alpha virt. eigenvalues --    5.45563   5.80162   5.97410   6.05266   6.13117
 Alpha virt. eigenvalues --    6.47514   6.59457   6.82585   7.13672   7.17078
 Alpha virt. eigenvalues --    7.21608   7.23593   7.32643   7.40152   7.44441
 Alpha virt. eigenvalues --    7.46640   7.54852   7.78966   7.88177   7.93858
 Alpha virt. eigenvalues --    7.94593   7.98227   8.10608   8.17123   8.39023
 Alpha virt. eigenvalues --    8.57366   8.65714   8.83522   8.85544   9.11471
 Alpha virt. eigenvalues --    9.12164   9.96218   9.96559  10.37014  10.43537
 Alpha virt. eigenvalues --   10.82556  10.88243  11.06406  11.19147  11.28381
 Alpha virt. eigenvalues --   11.49686  11.62058  11.88148  11.92331  12.02129
 Alpha virt. eigenvalues --   12.04655  12.35420  12.97297  13.61732  13.73051
 Alpha virt. eigenvalues --   13.78665  14.22414  14.57041  16.70017  16.84422
 Alpha virt. eigenvalues --   48.71957 254.45317
          Condensed to atoms (all electrons):
               1          2          3
     1  O    7.777838   0.336774   0.334841
     2  H    0.336774   0.462589  -0.020876
     3  H    0.334841  -0.020876   0.458096
 Mulliken charges:
               1
     1  O   -0.449453
     2  H    0.221514
     3  H    0.227939
 Sum of Mulliken charges =   0.00000
 Mulliken charges with hydrogens summed into heavy atoms:
               1
     1  O    0.000000
 Electronic spatial extent (au):  <R**2>=             19.7550
 Charge=              0.0000 electrons
 Dipole moment (field-independent basis, Debye):
    X=              0.0077    Y=             -1.9648    Z=              0.0000  Tot=              1.9648
 Quadrupole moment (field-independent basis, Debye-Ang):
   XX=             -4.3151   YY=             -6.3335   ZZ=             -7.6120
   XY=              0.0409   XZ=              0.0000   YZ=              0.0000
 Traceless Quadrupole moment (field-independent basis, Debye-Ang):
   XX=              1.7718   YY=             -0.2466   ZZ=             -1.5252
   XY=              0.0409   XZ=              0.0000   YZ=              0.0000
 Octapole moment (field-independent basis, Debye-Ang**2):
  XXX=              0.0238  YYY=             -1.1645  ZZZ=              0.0000  XYY=             -0.0277
  XXY=             -1.3833  XXZ=              0.0000  XZZ=              0.0087  YZZ=             -0.2781
  YYZ=              0.0000  XYZ=              0.0000
 Hexadecapole moment (field-independent basis, Debye-Ang**3):
 XXXX=             -6.2517 YYYY=             -7.4419 ZZZZ=             -6.7795 XXXY=             -0.0038
 XXXZ=              0.0000 YYYX=             -0.0002 YYYZ=              0.0000 ZZZX=              0.0000
 ZZZY=              0.0000 XXYY=             -1.9343 XXZZ=             -2.5103 YYZZ=             -2.4261
 XXYZ=              0.0000 YYXZ=              0.0000 ZZXY=             -0.0112
 N-N= 9.103402208866D+00 E-N=-1.990273396093D+02  KE= 7.609663300786D+01
 Symmetry A'   KE= 7.157857439504D+01
 Symmetry A"   KE= 4.518058612825D+00
 Leave Link  601 at Wed Aug 26 09:17:59 2020, MaxMem=  2097152000 cpu:         0.3
 (Enter /opt/cluster/programs/g09/g09_d.01/g09/l9999.exe)
 1\1\GINC-NODE19\SP\RB2PLYPD3-FC\def2QZVP\H2O1\BOITTIER\26-Aug-2020\0\\
 #p B2PLYPD3/Def2QZVP\\h2o\\0,1\O,0,-5.326605,-0.765488,0.917065\H,0,-4
 .368927,-0.724762,0.953728\H,0,-5.609308,0.156613,0.778622\\Version=ES
 64L-G09RevD.01\State=1-A'\HF=-76.3346388\MP2=-76.4248952\RMSD=4.101e-0
 9\PG=CS [SG(H2O1)]\\@


 THEORY:  SUPPOSITION WHICH HAS SCIENTIFIC BASIS,
          BUT NOT EXPERIMENTALLY PROVEN.
 FACT:    A THEORY WHICH HAS BEEN PROVEN BY ENOUGH 
          MONEY TO PAY FOR THE EXPERIMENTS.

                          --  THE WIZARD OF ID
 Job cpu time:       0 days  0 hours  0 minutes 31.6 seconds.
 File lengths (MBytes):  RWF=      8 Int=      0 D2E=      0 Chk=      2 Scr=      1
 Normal termination of Gaussian 09 at Wed Aug 26 09:17:59 2020.
