 Entering Gaussian System, Link 0=/opt/cluster/programs/g09/g09_d.01/g09//g09
 Input=/home/boittier/MDCM/nms_sampling/h2o_geom.xyz.dir/energies/h2o_1458_energy.com
 Output=/scratch/boittier/h2o_1458_energy/h2o_1458_energy.out
 Initial command:
 /opt/cluster/programs/g09/g09_d.01/g09/l1.exe "/scratch/boittier/h2o_1458_energy/Gau-206726.inp" -scrdir="/scratch/boittier/h2o_1458_energy/"
 Entering Link 1 = /opt/cluster/programs/g09/g09_d.01/g09/l1.exe PID=    206727.
  
 Copyright (c) 1988,1990,1992,1993,1995,1998,2003,2009,2013,
            Gaussian, Inc.  All Rights Reserved.
  
 This is part of the Gaussian(R) 09 program.  It is based on
 the Gaussian(R) 03 system (copyright 2003, Gaussian, Inc.),
 the Gaussian(R) 98 system (copyright 1998, Gaussian, Inc.),
 the Gaussian(R) 94 system (copyright 1995, Gaussian, Inc.),
 the Gaussian 92(TM) system (copyright 1992, Gaussian, Inc.),
 the Gaussian 90(TM) system (copyright 1990, Gaussian, Inc.),
 the Gaussian 88(TM) system (copyright 1988, Gaussian, Inc.),
 the Gaussian 86(TM) system (copyright 1986, Carnegie Mellon
 University), and the Gaussian 82(TM) system (copyright 1983,
 Carnegie Mellon University). Gaussian is a federally registered
 trademark of Gaussian, Inc.
  
 This software contains proprietary and confidential information,
 including trade secrets, belonging to Gaussian, Inc.
  
 This software is provided under written license and may be
 used, copied, transmitted, or stored only in accord with that
 written license.
  
 The following legend is applicable only to US Government
 contracts under FAR:
  
                    RESTRICTED RIGHTS LEGEND
  
 Use, reproduction and disclosure by the US Government is
 subject to restrictions as set forth in subparagraphs (a)
 and (c) of the Commercial Computer Software - Restricted
 Rights clause in FAR 52.227-19.
  
 Gaussian, Inc.
 340 Quinnipiac St., Bldg. 40, Wallingford CT 06492
  
  
 ---------------------------------------------------------------
 Warning -- This program may not be used in any manner that
 competes with the business of Gaussian, Inc. or will provide
 assistance to any competitor of Gaussian, Inc.  The licensee
 of this program is prohibited from giving any competitor of
 Gaussian, Inc. access to this program.  By using this program,
 the user acknowledges that Gaussian, Inc. is engaged in the
 business of creating and licensing software in the field of
 computational chemistry and represents and warrants to the
 licensee that it is not a competitor of Gaussian, Inc. and that
 it will not use this program in any manner prohibited above.
 ---------------------------------------------------------------
  

 Cite this work as:
 Gaussian 09, Revision D.01,
 M. J. Frisch, G. W. Trucks, H. B. Schlegel, G. E. Scuseria, 
 M. A. Robb, J. R. Cheeseman, G. Scalmani, V. Barone, B. Mennucci, 
 G. A. Petersson, H. Nakatsuji, M. Caricato, X. Li, H. P. Hratchian, 
 A. F. Izmaylov, J. Bloino, G. Zheng, J. L. Sonnenberg, M. Hada, 
 M. Ehara, K. Toyota, R. Fukuda, J. Hasegawa, M. Ishida, T. Nakajima, 
 Y. Honda, O. Kitao, H. Nakai, T. Vreven, J. A. Montgomery, Jr., 
 J. E. Peralta, F. Ogliaro, M. Bearpark, J. J. Heyd, E. Brothers, 
 K. N. Kudin, V. N. Staroverov, T. Keith, R. Kobayashi, J. Normand, 
 K. Raghavachari, A. Rendell, J. C. Burant, S. S. Iyengar, J. Tomasi, 
 M. Cossi, N. Rega, J. M. Millam, M. Klene, J. E. Knox, J. B. Cross, 
 V. Bakken, C. Adamo, J. Jaramillo, R. Gomperts, R. E. Stratmann, 
 O. Yazyev, A. J. Austin, R. Cammi, C. Pomelli, J. W. Ochterski, 
 R. L. Martin, K. Morokuma, V. G. Zakrzewski, G. A. Voth, 
 P. Salvador, J. J. Dannenberg, S. Dapprich, A. D. Daniels, 
 O. Farkas, J. B. Foresman, J. V. Ortiz, J. Cioslowski, 
 and D. J. Fox, Gaussian, Inc., Wallingford CT, 2013.
 
 ******************************************
 Gaussian 09:  ES64L-G09RevD.01 24-Apr-2013
                26-Aug-2020 
 ******************************************
 %chk=/home/boittier/MDCM/nms_sampling/h2o_geom.xyz.dir/h2o_1458.chk
 %nproc=8
 Will use up to    8 processors via shared memory.
 %mem=16000MB
 --------------------
 #p B2PLYPD3/Def2QZVP
 --------------------
 1/38=1/1;
 2/12=2,17=6,18=5,40=1/2;
 3/5=45,7=101,11=9,16=1,25=1,30=1,74=-60/1,2,3;
 4//1;
 5/5=2,38=5/2;
 8/10=1/1;
 9/16=-3/6;
 6/7=2,8=2,9=2,10=2/1;
 99/5=1,9=1/99;
 Leave Link    1 at Wed Aug 26 08:54:54 2020, MaxMem=  2097152000 cpu:         0.3
 (Enter /opt/cluster/programs/g09/g09_d.01/g09/l101.exe)
 ---
 h2o
 ---
 Symbolic Z-matrix:
 Charge =  0 Multiplicity = 1
 O                    -5.3266   -0.76556   0.91828 
 H                    -4.36893  -0.78856   0.94529 
 H                    -5.60931   0.22161   0.76926 
 
 NAtoms=      3 NQM=        3 NQMF=       0 NMMI=      0 NMMIF=      0
                NMic=       0 NMicF=      0.
                    Isotopes and Nuclear Properties:
 (Nuclear quadrupole moments (NQMom) in fm**2, nuclear magnetic moments (NMagM)
  in nuclear magnetons)

  Atom         1           2           3
 IAtWgt=          16           1           1
 AtmWgt=  15.9949146   1.0078250   1.0078250
 NucSpn=           0           1           1
 AtZEff=   0.0000000   0.0000000   0.0000000
 NQMom=    0.0000000   0.0000000   0.0000000
 NMagM=    0.0000000   2.7928460   2.7928460
 AtZNuc=   8.0000000   1.0000000   1.0000000
 Leave Link  101 at Wed Aug 26 08:54:54 2020, MaxMem=  2097152000 cpu:         0.5
 (Enter /opt/cluster/programs/g09/g09_d.01/g09/l202.exe)
                          Input orientation:                          
 ---------------------------------------------------------------------
 Center     Atomic      Atomic             Coordinates (Angstroms)
 Number     Number       Type             X           Y           Z
 ---------------------------------------------------------------------
      1          8           0       -5.326605   -0.765563    0.918278
      2          1           0       -4.368927   -0.788555    0.945289
      3          1           0       -5.609308    0.221611    0.769258
 ---------------------------------------------------------------------
                    Distance matrix (angstroms):
                    1          2          3
     1  O    0.000000
     2  H    0.958335   0.000000
     3  H    1.037613   1.609338   0.000000
 Stoichiometry    H2O
 Framework group  CS[SG(H2O)]
 Deg. of freedom     3
 Full point group                 CS      NOp   2
 Largest Abelian subgroup         CS      NOp   2
 Largest concise Abelian subgroup C1      NOp   1
                         Standard orientation:                         
 ---------------------------------------------------------------------
 Center     Atomic      Atomic             Coordinates (Angstroms)
 Number     Number       Type             X           Y           Z
 ---------------------------------------------------------------------
      1          8           0        0.000000    0.118327    0.000000
      2          1           0        0.801886   -0.406444    0.000000
      3          1           0       -0.801886   -0.540171    0.000000
 ---------------------------------------------------------------------
 Rotational constants (GHZ):    817.2919673    384.8047701    261.6244083
 Leave Link  202 at Wed Aug 26 08:54:54 2020, MaxMem=  2097152000 cpu:         0.0
 (Enter /opt/cluster/programs/g09/g09_d.01/g09/l301.exe)
 Standard basis: def2QZVP (5D, 7F)
 Ernie: Thresh=  0.10000D-02 Tol=  0.10000D-05 Strict=F.
 There are    96 symmetry adapted cartesian basis functions of A'  symmetry.
 There are    46 symmetry adapted cartesian basis functions of A"  symmetry.
 There are    77 symmetry adapted basis functions of A'  symmetry.
 There are    40 symmetry adapted basis functions of A"  symmetry.
   117 basis functions,   168 primitive gaussians,   142 cartesian basis functions
     5 alpha electrons        5 beta electrons
       nuclear repulsion energy         8.8262485890 Hartrees.
 IExCor=  419 DFT=T Ex+Corr=B2PLYPD3 ExCW=0 ScaHFX=  0.530000
 ScaDFX=  0.470000  0.470000  0.730000  0.730000 ScalE2=  0.270000  0.270000
 IRadAn=      0 IRanWt=     -1 IRanGd=            0 ICorTp=0 IEmpDi=141
 NAtoms=    3 NActive=    3 NUniq=    3 SFac= 1.00D+00 NAtFMM=   60 NAOKFM=F Big=F
 Integral buffers will be    131072 words long.
 Regular integral format.
 Two-electron integral symmetry is turned on.
 R6Disp:  Grimme-D3(BJ) Dispersion energy=       -0.0002344224 Hartrees.
 Nuclear repulsion after empirical dispersion term =        8.8260141665 Hartrees.
 Leave Link  301 at Wed Aug 26 08:54:54 2020, MaxMem=  2097152000 cpu:         0.5
 (Enter /opt/cluster/programs/g09/g09_d.01/g09/l302.exe)
 NPDir=0 NMtPBC=     1 NCelOv=     1 NCel=       1 NClECP=     1 NCelD=      1
         NCelK=      1 NCelE2=     1 NClLst=     1 CellRange=     0.0.
 One-electron integrals computed using PRISM.
   1 Symmetry operations used in ECPInt.
 ECPInt:  NShTT=     703 NPrTT=    1591 LenC2=     704 LenP2D=    1541.
 LDataN:  DoStor=T MaxTD1= 8 Len=  415
 NBasis=   117 RedAO= T EigKep=  5.14D-04  NBF=    77    40
 NBsUse=   117 1.00D-06 EigRej= -1.00D+00 NBFU=    77    40
 Precomputing XC quadrature grid using
 IXCGrd= 4 IRadAn=           0 IRanWt=          -1 IRanGd=           0 AccXCQ= 0.00D+00.
 Generated NRdTot=       0 NPtTot=           0 NUsed=           0 NTot=          32
 NSgBfM=   142   142   142   142   142 MxSgAt=     3 MxSgA2=     3.
 Leave Link  302 at Wed Aug 26 08:54:55 2020, MaxMem=  2097152000 cpu:         1.6
 (Enter /opt/cluster/programs/g09/g09_d.01/g09/l303.exe)
 DipDrv:  MaxL=1.
 Leave Link  303 at Wed Aug 26 08:54:55 2020, MaxMem=  2097152000 cpu:         0.2
 (Enter /opt/cluster/programs/g09/g09_d.01/g09/l401.exe)
 ExpMin= 8.03D-02 ExpMax= 1.17D+05 ExpMxC= 1.13D+03 IAcc=2 IRadAn=         4 AccDes= 0.00D+00
 Harris functional with IExCor=  419 and IRadAn=       4 diagonalized for initial guess.
 HarFok:  IExCor=  419 AccDes= 0.00D+00 IRadAn=         4 IDoV= 1 UseB2=F ITyADJ=14
 ICtDFT=  3500011 ScaDFX=  1.000000  1.000000  1.000000  1.000000
 FoFCou: FMM=F IPFlag=           0 FMFlag=      100000 FMFlg1=           0
         NFxFlg=           0 DoJE=T BraDBF=F KetDBF=T FulRan=T
         wScrn=  0.000000 ICntrl=     500 IOpCl=  0 I1Cent=   200000004 NGrid=           0
         NMat0=    1 NMatS0=      1 NMatT0=    0 NMatD0=    1 NMtDS0=    0 NMtDT0=    0
 Petite list used in FoFCou.
 Harris En= -76.5007058893015    
 JPrj=0 DoOrth=F DoCkMO=F.
 Initial guess orbital symmetries:
       Occupied  (A') (A') (A') (A') (A")
       Virtual   (A') (A') (A') (A') (A") (A') (A') (A') (A") (A")
                 (A') (A') (A') (A') (A') (A') (A') (A") (A") (A")
                 (A') (A') (A') (A") (A') (A') (A") (A') (A') (A")
                 (A') (A") (A') (A') (A") (A") (A') (A') (A') (A')
                 (A') (A") (A") (A') (A") (A') (A') (A") (A') (A')
                 (A") (A') (A') (A") (A') (A') (A") (A') (A") (A')
                 (A") (A') (A') (A') (A") (A') (A") (A') (A") (A')
                 (A') (A') (A") (A") (A') (A') (A") (A") (A') (A')
                 (A") (A') (A') (A") (A') (A') (A") (A') (A') (A")
                 (A') (A') (A") (A') (A") (A") (A') (A") (A') (A")
                 (A') (A') (A') (A') (A") (A') (A") (A') (A') (A')
                 (A') (A')
 The electronic state of the initial guess is 1-A'.
 Leave Link  401 at Wed Aug 26 08:54:55 2020, MaxMem=  2097152000 cpu:         1.7
 (Enter /opt/cluster/programs/g09/g09_d.01/g09/l502.exe)
 Closed shell SCF:
 Using DIIS extrapolation, IDIIS=  1040.
 Integral symmetry usage will be decided dynamically.
 Keep R1 ints in memory in symmetry-blocked form, NReq=35980147.
 IVT=       81231 IEndB=       81231 NGot=  2097152000 MDV=  2085001127
 LenX=  2085001127 LenY=  2084980522
 Requested convergence on RMS density matrix=1.00D-08 within 128 cycles.
 Requested convergence on MAX density matrix=1.00D-06.
 Requested convergence on             energy=1.00D-06.
 No special actions if energy rises.
 FoFCou: FMM=F IPFlag=           0 FMFlag=           0 FMFlg1=           0
         NFxFlg=           0 DoJE=F BraDBF=F KetDBF=F FulRan=T
         wScrn=  0.000000 ICntrl=     600 IOpCl=  0 I1Cent=           0 NGrid=           0
         NMat0=    1 NMatS0=   6903 NMatT0=    0 NMatD0=    1 NMtDS0=    0 NMtDT0=    0
 Petite list used in FoFCou.
 Integral accuracy reduced to 1.0D-05 until final iterations.

 Cycle   1  Pass 0  IDiag  1:
 E= -76.2436461256011    
 DIIS: error= 3.79D-02 at cycle   1 NSaved=   1.
 NSaved= 1 IEnMin= 1 EnMin= -76.2436461256011     IErMin= 1 ErrMin= 3.79D-02
 ErrMax= 3.79D-02  0.00D+00 EMaxC= 1.00D-01 BMatC= 1.62D-01 BMatP= 1.62D-01
 IDIUse=3 WtCom= 6.21D-01 WtEn= 3.79D-01
 Coeff-Com:  0.100D+01
 Coeff-En:   0.100D+01
 Coeff:      0.100D+01
 Gap=     0.291 Goal=   None    Shift=    0.000
 GapD=    0.291 DampG=1.000 DampE=0.500 DampFc=0.5000 IDamp=-1.
 Damping current iteration by 5.00D-01
 RMSDP=2.38D-03 MaxDP=7.47D-02              OVMax= 1.74D-01

 Cycle   2  Pass 0  IDiag  1:
 E= -76.2798609315614     Delta-E=       -0.036214805960 Rises=F Damp=T
 DIIS: error= 1.41D-02 at cycle   2 NSaved=   2.
 NSaved= 2 IEnMin= 2 EnMin= -76.2798609315614     IErMin= 2 ErrMin= 1.41D-02
 ErrMax= 1.41D-02  0.00D+00 EMaxC= 1.00D-01 BMatC= 1.11D-02 BMatP= 1.62D-01
 IDIUse=3 WtCom= 8.59D-01 WtEn= 1.41D-01
 Coeff-Com:  0.302D-01 0.970D+00
 Coeff-En:   0.165D+00 0.835D+00
 Coeff:      0.491D-01 0.951D+00
 Gap=     0.436 Goal=   None    Shift=    0.000
 RMSDP=3.51D-04 MaxDP=1.27D-02 DE=-3.62D-02 OVMax= 1.03D-01

 Cycle   3  Pass 0  IDiag  1:
 E= -76.3280257126860     Delta-E=       -0.048164781125 Rises=F Damp=F
 DIIS: error= 2.85D-03 at cycle   3 NSaved=   3.
 NSaved= 3 IEnMin= 3 EnMin= -76.3280257126860     IErMin= 3 ErrMin= 2.85D-03
 ErrMax= 2.85D-03  0.00D+00 EMaxC= 1.00D-01 BMatC= 6.15D-04 BMatP= 1.11D-02
 IDIUse=3 WtCom= 9.71D-01 WtEn= 2.85D-02
 Coeff-Com: -0.585D-01 0.793D-01 0.979D+00
 Coeff-En:   0.000D+00 0.000D+00 0.100D+01
 Coeff:     -0.568D-01 0.771D-01 0.980D+00
 Gap=     0.435 Goal=   None    Shift=    0.000
 RMSDP=8.51D-05 MaxDP=2.43D-03 DE=-4.82D-02 OVMax= 7.02D-03

 Cycle   4  Pass 0  IDiag  1:
 E= -76.3284627701699     Delta-E=       -0.000437057484 Rises=F Damp=F
 DIIS: error= 2.52D-04 at cycle   4 NSaved=   4.
 NSaved= 4 IEnMin= 4 EnMin= -76.3284627701699     IErMin= 4 ErrMin= 2.52D-04
 ErrMax= 2.52D-04  0.00D+00 EMaxC= 1.00D-01 BMatC= 5.06D-06 BMatP= 6.15D-04
 IDIUse=3 WtCom= 9.97D-01 WtEn= 2.52D-03
 Coeff-Com: -0.245D-02-0.160D-02 0.962D-01 0.908D+00
 Coeff-En:   0.000D+00 0.000D+00 0.000D+00 0.100D+01
 Coeff:     -0.245D-02-0.160D-02 0.960D-01 0.908D+00
 Gap=     0.436 Goal=   None    Shift=    0.000
 RMSDP=1.21D-05 MaxDP=4.07D-04 DE=-4.37D-04 OVMax= 8.03D-04

 Cycle   5  Pass 0  IDiag  1:
 E= -76.3284664311343     Delta-E=       -0.000003660964 Rises=F Damp=F
 DIIS: error= 7.03D-05 at cycle   5 NSaved=   5.
 NSaved= 5 IEnMin= 5 EnMin= -76.3284664311343     IErMin= 5 ErrMin= 7.03D-05
 ErrMax= 7.03D-05  0.00D+00 EMaxC= 1.00D-01 BMatC= 1.26D-07 BMatP= 5.06D-06
 IDIUse=1 WtCom= 1.00D+00 WtEn= 0.00D+00
 Coeff-Com:  0.283D-02-0.416D-02-0.411D-01-0.232D-01 0.107D+01
 Coeff:      0.283D-02-0.416D-02-0.411D-01-0.232D-01 0.107D+01
 Gap=     0.436 Goal=   None    Shift=    0.000
 RMSDP=3.50D-06 MaxDP=1.06D-04 DE=-3.66D-06 OVMax= 2.65D-04

 Initial convergence to 1.0D-05 achieved.  Increase integral accuracy.
 Cycle   6  Pass 1  IDiag  1:
 E= -76.3284630234681     Delta-E=        0.000003407666 Rises=F Damp=F
 DIIS: error= 1.06D-05 at cycle   1 NSaved=   1.
 NSaved= 1 IEnMin= 1 EnMin= -76.3284630234681     IErMin= 1 ErrMin= 1.06D-05
 ErrMax= 1.06D-05  0.00D+00 EMaxC= 1.00D-01 BMatC= 1.40D-08 BMatP= 1.40D-08
 IDIUse=1 WtCom= 1.00D+00 WtEn= 0.00D+00
 Coeff-Com:  0.100D+01
 Coeff:      0.100D+01
 Gap=     0.436 Goal=   None    Shift=    0.000
 RMSDP=3.50D-06 MaxDP=1.06D-04 DE= 3.41D-06 OVMax= 5.24D-05

 Cycle   7  Pass 1  IDiag  1:
 E= -76.3284630310555     Delta-E=       -0.000000007587 Rises=F Damp=F
 DIIS: error= 6.94D-06 at cycle   2 NSaved=   2.
 NSaved= 2 IEnMin= 2 EnMin= -76.3284630310555     IErMin= 2 ErrMin= 6.94D-06
 ErrMax= 6.94D-06  0.00D+00 EMaxC= 1.00D-01 BMatC= 1.84D-09 BMatP= 1.40D-08
 IDIUse=1 WtCom= 1.00D+00 WtEn= 0.00D+00
 Coeff-Com:  0.138D+00 0.862D+00
 Coeff:      0.138D+00 0.862D+00
 Gap=     0.436 Goal=   None    Shift=    0.000
 RMSDP=2.61D-07 MaxDP=8.60D-06 DE=-7.59D-09 OVMax= 2.53D-05

 Cycle   8  Pass 1  IDiag  1:
 E= -76.3284630318977     Delta-E=       -0.000000000842 Rises=F Damp=F
 DIIS: error= 3.73D-06 at cycle   3 NSaved=   3.
 NSaved= 3 IEnMin= 3 EnMin= -76.3284630318977     IErMin= 3 ErrMin= 3.73D-06
 ErrMax= 3.73D-06  0.00D+00 EMaxC= 1.00D-01 BMatC= 1.19D-09 BMatP= 1.84D-09
 IDIUse=1 WtCom= 1.00D+00 WtEn= 0.00D+00
 Coeff-Com: -0.426D-01 0.444D+00 0.598D+00
 Coeff:     -0.426D-01 0.444D+00 0.598D+00
 Gap=     0.436 Goal=   None    Shift=    0.000
 RMSDP=1.19D-07 MaxDP=3.94D-06 DE=-8.42D-10 OVMax= 1.13D-05

 Cycle   9  Pass 1  IDiag  1:
 E= -76.3284630327255     Delta-E=       -0.000000000828 Rises=F Damp=F
 DIIS: error= 5.80D-07 at cycle   4 NSaved=   4.
 NSaved= 4 IEnMin= 4 EnMin= -76.3284630327255     IErMin= 4 ErrMin= 5.80D-07
 ErrMax= 5.80D-07  0.00D+00 EMaxC= 1.00D-01 BMatC= 1.08D-11 BMatP= 1.19D-09
 IDIUse=1 WtCom= 1.00D+00 WtEn= 0.00D+00
 Coeff-Com: -0.495D-02-0.783D-01-0.322D-01 0.112D+01
 Coeff:     -0.495D-02-0.783D-01-0.322D-01 0.112D+01
 Gap=     0.436 Goal=   None    Shift=    0.000
 RMSDP=3.49D-08 MaxDP=1.05D-06 DE=-8.28D-10 OVMax= 2.80D-06

 Cycle  10  Pass 1  IDiag  1:
 E= -76.3284630327478     Delta-E=       -0.000000000022 Rises=F Damp=F
 DIIS: error= 1.07D-07 at cycle   5 NSaved=   5.
 NSaved= 5 IEnMin= 5 EnMin= -76.3284630327478     IErMin= 5 ErrMin= 1.07D-07
 ErrMax= 1.07D-07  0.00D+00 EMaxC= 1.00D-01 BMatC= 5.65D-13 BMatP= 1.08D-11
 IDIUse=1 WtCom= 1.00D+00 WtEn= 0.00D+00
 Coeff-Com:  0.204D-02-0.445D-01-0.449D-01 0.175D+00 0.912D+00
 Coeff:      0.204D-02-0.445D-01-0.449D-01 0.175D+00 0.912D+00
 Gap=     0.436 Goal=   None    Shift=    0.000
 RMSDP=6.17D-09 MaxDP=1.58D-07 DE=-2.23D-11 OVMax= 5.89D-07

 SCF Done:  E(RB2PLYPD3) =  -76.3284630327     A.U. after   10 cycles
            NFock= 10  Conv=0.62D-08     -V/T= 2.0044
 KE= 7.599375198092D+01 PE=-1.984317605505D+02 EE= 3.728353137029D+01
 Leave Link  502 at Wed Aug 26 08:54:58 2020, MaxMem=  2097152000 cpu:        25.1
 (Enter /opt/cluster/programs/g09/g09_d.01/g09/l801.exe)
 DoSCS=T DFT=T ScalE2(SS,OS)=  0.270000  0.270000
 ExpMin= 8.03D-02 ExpMax= 1.17D+05 ExpMxC= 1.13D+03 IAcc=3 IRadAn=         5 AccDes= 0.00D+00
 HarFok:  IExCor=  205 AccDes= 0.00D+00 IRadAn=         5 IDoV=-2 UseB2=F ITyADJ=14
 ICtDFT= 12500011 ScaDFX=  1.000000  1.000000  1.000000  1.000000
 Largest valence mixing into a core orbital is  6.87D-05
 Largest core mixing into a valence orbital is  1.06D-05
 Range of M.O.s used for correlation:     2   117
 NBasis=   117 NAE=     5 NBE=     5 NFC=     1 NFV=     0
 NROrb=    116 NOA=     4 NOB=     4 NVA=   112 NVB=   112

 **** Warning!!: The largest alpha MO coefficient is  0.14889967D+02

 Leave Link  801 at Wed Aug 26 08:54:58 2020, MaxMem=  2097152000 cpu:         0.4
 (Enter /opt/cluster/programs/g09/g09_d.01/g09/l906.exe)
 DoSCS=T DFT=T ScalE2(SS,OS)=  0.270000  0.270000
 FulOut=F Deriv=F AODrv=F NAtomX=     3
   MMem=       16445  MDisk=           4 MDiskD=           4
  W3Min=       63616 MinDsk=      271641 NBas6D=         142
 NBas2D=       10573    NTT=       10153    LW2=     4508827
    MDV=  2097049025 MDiskM=       32786 NBas2p=       10573
 Fully in-core method, ICMem=   125836233.
 IMap=   1   2   3   4
 JobTyp=1 Pass  1 fully in-core, NPsUse=  8.
 Compute canonical integrals.
 FoFCou: FMM=F IPFlag=           0 FMFlag=           0 FMFlg1=           0
         NFxFlg=           0 DoJE=F BraDBF=F KetDBF=F FulRan=T
         wScrn=  0.000000 ICntrl=     600 IOpCl=  1 I1Cent=           0 NGrid=           0
         NMat0=    1 NMatS0=  10573 NMatT0=    0 NMatD0=    1 NMtDS0=    0 NMtDT0=    0
 Symmetry not used in FoFCou.
 Spin components of T(2) and E(2):
     alpha-alpha T2 =       0.1274340537D-01 E2=     -0.1088535947D-01
     alpha-beta  T2 =       0.7465664290D-01 E2=     -0.6945149448D-01
     beta-beta   T2 =       0.1274340537D-01 E2=     -0.1088535947D-01
 The integrals were generated   1 times.
 E2(B2PLYPD3) =    -0.9122221342D-01 E(B2PLYPD3) =    -0.76419685246163D+02
 Leave Link  906 at Wed Aug 26 08:55:00 2020, MaxMem=  2097152000 cpu:        15.3
 (Enter /opt/cluster/programs/g09/g09_d.01/g09/l601.exe)
 Copying SCF densities to generalized density rwf, IOpCl= 0 IROHF=0.

 **********************************************************************

            Population analysis using the SCF density.

 **********************************************************************

 Orbital symmetries:
       Occupied  (A') (A') (A') (A') (A")
       Virtual   (A') (A') (A') (A') (A") (A') (A') (A') (A") (A")
                 (A') (A') (A') (A') (A') (A') (A") (A') (A") (A')
                 (A") (A') (A') (A") (A') (A') (A") (A') (A') (A")
                 (A') (A") (A') (A') (A") (A") (A') (A') (A') (A')
                 (A') (A") (A") (A') (A") (A') (A') (A") (A') (A')
                 (A") (A') (A') (A") (A') (A') (A") (A') (A") (A')
                 (A") (A') (A') (A') (A") (A") (A') (A') (A") (A')
                 (A') (A') (A") (A") (A') (A') (A") (A") (A') (A')
                 (A") (A') (A') (A") (A') (A') (A") (A') (A') (A")
                 (A') (A') (A") (A') (A") (A") (A') (A") (A') (A")
                 (A') (A') (A') (A') (A") (A') (A") (A') (A') (A')
                 (A') (A')
 The electronic state is 1-A'.
 Alpha  occ. eigenvalues --  -19.73581  -1.13856  -0.60013  -0.46406  -0.39584
 Alpha virt. eigenvalues --    0.04025   0.09788   0.27648   0.29941   0.30512
 Alpha virt. eigenvalues --    0.34156   0.43065   0.50463   0.55296   0.62708
 Alpha virt. eigenvalues --    0.66451   0.79780   0.91790   0.96735   1.01263
 Alpha virt. eigenvalues --    1.06826   1.31983   1.33982   1.35686   1.43680
 Alpha virt. eigenvalues --    1.44221   1.48502   1.84557   1.95102   2.02933
 Alpha virt. eigenvalues --    2.04693   2.12500   2.28938   2.32552   2.33477
 Alpha virt. eigenvalues --    2.36352   2.40402   2.55861   2.59347   2.66861
 Alpha virt. eigenvalues --    2.72855   2.95132   2.99088   3.08366   3.13730
 Alpha virt. eigenvalues --    3.30619   3.73701   3.91197   3.92490   3.97646
 Alpha virt. eigenvalues --    4.12435   4.16431   4.27897   4.31898   4.48418
 Alpha virt. eigenvalues --    4.59349   4.71399   4.90645   5.27734   5.30866
 Alpha virt. eigenvalues --    5.49542   5.85162   5.93658   6.02649   6.05708
 Alpha virt. eigenvalues --    6.31102   6.56179   6.75077   7.08470   7.12094
 Alpha virt. eigenvalues --    7.19601   7.20840   7.23443   7.30488   7.41165
 Alpha virt. eigenvalues --    7.44003   7.53771   7.81195   7.88134   7.88172
 Alpha virt. eigenvalues --    7.97206   7.98956   8.07968   8.18124   8.32606
 Alpha virt. eigenvalues --    8.44412   8.56246   8.71336   8.82424   8.90903
 Alpha virt. eigenvalues --    9.05084   9.76000   9.86072  10.29305  10.42051
 Alpha virt. eigenvalues --   10.56864  10.87377  10.94313  11.10082  11.27049
 Alpha virt. eigenvalues --   11.48034  11.55631  11.75358  11.76717  12.01575
 Alpha virt. eigenvalues --   12.05065  12.26388  12.66614  13.21623  13.41122
 Alpha virt. eigenvalues --   13.76258  14.14060  14.48382  15.97519  16.86090
 Alpha virt. eigenvalues --   48.58556 254.30651
          Condensed to atoms (all electrons):
               1          2          3
     1  O    7.814441   0.335338   0.324184
     2  H    0.335338   0.462288  -0.020253
     3  H    0.324184  -0.020253   0.444731
 Mulliken charges:
               1
     1  O   -0.473964
     2  H    0.222627
     3  H    0.251337
 Sum of Mulliken charges =   0.00000
 Mulliken charges with hydrogens summed into heavy atoms:
               1
     1  O    0.000000
 Electronic spatial extent (au):  <R**2>=             20.1810
 Charge=              0.0000 electrons
 Dipole moment (field-independent basis, Debye):
    X=              0.0378    Y=             -1.9439    Z=              0.0000  Tot=              1.9442
 Quadrupole moment (field-independent basis, Debye-Ang):
   XX=             -4.1378   YY=             -6.4103   ZZ=             -7.6859
   XY=              0.2330   XZ=              0.0000   YZ=              0.0000
 Traceless Quadrupole moment (field-independent basis, Debye-Ang):
   XX=              1.9402   YY=             -0.3323   ZZ=             -1.6079
   XY=              0.2330   XZ=              0.0000   YZ=              0.0000
 Octapole moment (field-independent basis, Debye-Ang**2):
  XXX=              0.1227  YYY=             -1.0988  ZZZ=              0.0000  XYY=             -0.1611
  XXY=             -1.4749  XXZ=              0.0000  XZZ=              0.0456  YZZ=             -0.2496
  YYZ=              0.0000  XYZ=              0.0000
 Hexadecapole moment (field-independent basis, Debye-Ang**3):
 XXXX=             -6.3795 YYYY=             -7.6788 ZZZZ=             -6.8947 XXXY=             -0.0065
 XXXZ=              0.0000 YYYX=             -0.0022 YYYZ=              0.0000 ZZZX=              0.0000
 ZZZY=              0.0000 XXYY=             -1.9841 XXZZ=             -2.6145 YYZZ=             -2.4890
 XXYZ=              0.0000 YYXZ=              0.0000 ZZXY=             -0.0639
 N-N= 8.826014166541D+00 E-N=-1.984317603003D+02  KE= 7.599375198092D+01
 Symmetry A'   KE= 7.147257433722D+01
 Symmetry A"   KE= 4.521177643701D+00
 Leave Link  601 at Wed Aug 26 08:55:00 2020, MaxMem=  2097152000 cpu:         0.3
 (Enter /opt/cluster/programs/g09/g09_d.01/g09/l9999.exe)
 1\1\GINC-NODE39\SP\RB2PLYPD3-FC\def2QZVP\H2O1\BOITTIER\26-Aug-2020\0\\
 #p B2PLYPD3/Def2QZVP\\h2o\\0,1\O,0,-5.326605,-0.765563,0.918278\H,0,-4
 .368927,-0.788555,0.945289\H,0,-5.609308,0.221611,0.769258\\Version=ES
 64L-G09RevD.01\State=1-A'\HF=-76.328463\MP2=-76.4196852\RMSD=6.170e-09
 \PG=CS [SG(H2O1)]\\@


 SCIENCE IS LONG AND LIFE IS SHORT.

                     DON MOSER IN THE FEBRUARY 1979 SMITHSONIAN
 Job cpu time:       0 days  0 hours  0 minutes 46.4 seconds.
 File lengths (MBytes):  RWF=      8 Int=      0 D2E=      0 Chk=      2 Scr=      1
 Normal termination of Gaussian 09 at Wed Aug 26 08:55:01 2020.
