 Entering Gaussian System, Link 0=/opt/cluster/programs/g09/g09_d.01/g09//g09
 Input=/home/boittier/MDCM/nms_sampling/h2o_geom.xyz.dir/energies/h2o_1262_energy.com
 Output=/scratch/boittier/h2o_1262_energy/h2o_1262_energy.out
 Initial command:
 /opt/cluster/programs/g09/g09_d.01/g09/l1.exe "/scratch/boittier/h2o_1262_energy/Gau-27625.inp" -scrdir="/scratch/boittier/h2o_1262_energy/"
 Entering Link 1 = /opt/cluster/programs/g09/g09_d.01/g09/l1.exe PID=     27626.
  
 Copyright (c) 1988,1990,1992,1993,1995,1998,2003,2009,2013,
            Gaussian, Inc.  All Rights Reserved.
  
 This is part of the Gaussian(R) 09 program.  It is based on
 the Gaussian(R) 03 system (copyright 2003, Gaussian, Inc.),
 the Gaussian(R) 98 system (copyright 1998, Gaussian, Inc.),
 the Gaussian(R) 94 system (copyright 1995, Gaussian, Inc.),
 the Gaussian 92(TM) system (copyright 1992, Gaussian, Inc.),
 the Gaussian 90(TM) system (copyright 1990, Gaussian, Inc.),
 the Gaussian 88(TM) system (copyright 1988, Gaussian, Inc.),
 the Gaussian 86(TM) system (copyright 1986, Carnegie Mellon
 University), and the Gaussian 82(TM) system (copyright 1983,
 Carnegie Mellon University). Gaussian is a federally registered
 trademark of Gaussian, Inc.
  
 This software contains proprietary and confidential information,
 including trade secrets, belonging to Gaussian, Inc.
  
 This software is provided under written license and may be
 used, copied, transmitted, or stored only in accord with that
 written license.
  
 The following legend is applicable only to US Government
 contracts under FAR:
  
                    RESTRICTED RIGHTS LEGEND
  
 Use, reproduction and disclosure by the US Government is
 subject to restrictions as set forth in subparagraphs (a)
 and (c) of the Commercial Computer Software - Restricted
 Rights clause in FAR 52.227-19.
  
 Gaussian, Inc.
 340 Quinnipiac St., Bldg. 40, Wallingford CT 06492
  
  
 ---------------------------------------------------------------
 Warning -- This program may not be used in any manner that
 competes with the business of Gaussian, Inc. or will provide
 assistance to any competitor of Gaussian, Inc.  The licensee
 of this program is prohibited from giving any competitor of
 Gaussian, Inc. access to this program.  By using this program,
 the user acknowledges that Gaussian, Inc. is engaged in the
 business of creating and licensing software in the field of
 computational chemistry and represents and warrants to the
 licensee that it is not a competitor of Gaussian, Inc. and that
 it will not use this program in any manner prohibited above.
 ---------------------------------------------------------------
  

 Cite this work as:
 Gaussian 09, Revision D.01,
 M. J. Frisch, G. W. Trucks, H. B. Schlegel, G. E. Scuseria, 
 M. A. Robb, J. R. Cheeseman, G. Scalmani, V. Barone, B. Mennucci, 
 G. A. Petersson, H. Nakatsuji, M. Caricato, X. Li, H. P. Hratchian, 
 A. F. Izmaylov, J. Bloino, G. Zheng, J. L. Sonnenberg, M. Hada, 
 M. Ehara, K. Toyota, R. Fukuda, J. Hasegawa, M. Ishida, T. Nakajima, 
 Y. Honda, O. Kitao, H. Nakai, T. Vreven, J. A. Montgomery, Jr., 
 J. E. Peralta, F. Ogliaro, M. Bearpark, J. J. Heyd, E. Brothers, 
 K. N. Kudin, V. N. Staroverov, T. Keith, R. Kobayashi, J. Normand, 
 K. Raghavachari, A. Rendell, J. C. Burant, S. S. Iyengar, J. Tomasi, 
 M. Cossi, N. Rega, J. M. Millam, M. Klene, J. E. Knox, J. B. Cross, 
 V. Bakken, C. Adamo, J. Jaramillo, R. Gomperts, R. E. Stratmann, 
 O. Yazyev, A. J. Austin, R. Cammi, C. Pomelli, J. W. Ochterski, 
 R. L. Martin, K. Morokuma, V. G. Zakrzewski, G. A. Voth, 
 P. Salvador, J. J. Dannenberg, S. Dapprich, A. D. Daniels, 
 O. Farkas, J. B. Foresman, J. V. Ortiz, J. Cioslowski, 
 and D. J. Fox, Gaussian, Inc., Wallingford CT, 2013.
 
 ******************************************
 Gaussian 09:  ES64L-G09RevD.01 24-Apr-2013
                26-Aug-2020 
 ******************************************
 %chk=/home/boittier/MDCM/nms_sampling/h2o_geom.xyz.dir/h2o_1262.chk
 %nproc=8
 Will use up to    8 processors via shared memory.
 %mem=16000MB
 --------------------
 #p B2PLYPD3/Def2QZVP
 --------------------
 1/38=1/1;
 2/12=2,17=6,18=5,40=1/2;
 3/5=45,7=101,11=9,16=1,25=1,30=1,74=-60/1,2,3;
 4//1;
 5/5=2,38=5/2;
 8/10=1/1;
 9/16=-3/6;
 6/7=2,8=2,9=2,10=2/1;
 99/5=1,9=1/99;
 Leave Link    1 at Wed Aug 26 08:35:47 2020, MaxMem=  2097152000 cpu:         0.4
 (Enter /opt/cluster/programs/g09/g09_d.01/g09/l101.exe)
 ---
 h2o
 ---
 Symbolic Z-matrix:
 Charge =  0 Multiplicity = 1
 O                    -5.3266   -0.76083   0.91615 
 H                    -4.36893  -0.72359   0.93197 
 H                    -5.60931   0.08094   0.81407 
 
 NAtoms=      3 NQM=        3 NQMF=       0 NMMI=      0 NMMIF=      0
                NMic=       0 NMicF=      0.
                    Isotopes and Nuclear Properties:
 (Nuclear quadrupole moments (NQMom) in fm**2, nuclear magnetic moments (NMagM)
  in nuclear magnetons)

  Atom         1           2           3
 IAtWgt=          16           1           1
 AtmWgt=  15.9949146   1.0078250   1.0078250
 NucSpn=           0           1           1
 AtZEff=   0.0000000   0.0000000   0.0000000
 NQMom=    0.0000000   0.0000000   0.0000000
 NMagM=    0.0000000   2.7928460   2.7928460
 AtZNuc=   8.0000000   1.0000000   1.0000000
 Leave Link  101 at Wed Aug 26 08:35:47 2020, MaxMem=  2097152000 cpu:         0.5
 (Enter /opt/cluster/programs/g09/g09_d.01/g09/l202.exe)
                          Input orientation:                          
 ---------------------------------------------------------------------
 Center     Atomic      Atomic             Coordinates (Angstroms)
 Number     Number       Type             X           Y           Z
 ---------------------------------------------------------------------
      1          8           0       -5.326605   -0.760832    0.916148
      2          1           0       -4.368927   -0.723592    0.931965
      3          1           0       -5.609308    0.080943    0.814065
 ---------------------------------------------------------------------
                    Distance matrix (angstroms):
                    1          2          3
     1  O    0.000000
     2  H    0.958532   0.000000
     3  H    0.893827   1.483146   0.000000
 Stoichiometry    H2O
 Framework group  CS[SG(H2O)]
 Deg. of freedom     3
 Full point group                 CS      NOp   2
 Largest Abelian subgroup         CS      NOp   2
 Largest concise Abelian subgroup C1      NOp   1
                         Standard orientation:                         
 ---------------------------------------------------------------------
 Center     Atomic      Atomic             Coordinates (Angstroms)
 Number     Number       Type             X           Y           Z
 ---------------------------------------------------------------------
      1          8           0        0.000000    0.111162    0.000000
      2          1           0        0.739611   -0.498559    0.000000
      3          1           0       -0.739611   -0.390737    0.000000
 ---------------------------------------------------------------------
 Rotational constants (GHZ):    923.5305264    453.5640078    304.1767987
 Leave Link  202 at Wed Aug 26 08:35:48 2020, MaxMem=  2097152000 cpu:         0.0
 (Enter /opt/cluster/programs/g09/g09_d.01/g09/l301.exe)
 Standard basis: def2QZVP (5D, 7F)
 Ernie: Thresh=  0.10000D-02 Tol=  0.10000D-05 Strict=F.
 There are    96 symmetry adapted cartesian basis functions of A'  symmetry.
 There are    46 symmetry adapted cartesian basis functions of A"  symmetry.
 There are    77 symmetry adapted basis functions of A'  symmetry.
 There are    40 symmetry adapted basis functions of A"  symmetry.
   117 basis functions,   168 primitive gaussians,   142 cartesian basis functions
     5 alpha electrons        5 beta electrons
       nuclear repulsion energy         9.5096381050 Hartrees.
 IExCor=  419 DFT=T Ex+Corr=B2PLYPD3 ExCW=0 ScaHFX=  0.530000
 ScaDFX=  0.470000  0.470000  0.730000  0.730000 ScalE2=  0.270000  0.270000
 IRadAn=      0 IRanWt=     -1 IRanGd=            0 ICorTp=0 IEmpDi=141
 NAtoms=    3 NActive=    3 NUniq=    3 SFac= 1.00D+00 NAtFMM=   60 NAOKFM=F Big=F
 Integral buffers will be    131072 words long.
 Regular integral format.
 Two-electron integral symmetry is turned on.
 R6Disp:  Grimme-D3(BJ) Dispersion energy=       -0.0002342906 Hartrees.
 Nuclear repulsion after empirical dispersion term =        9.5094038144 Hartrees.
 Leave Link  301 at Wed Aug 26 08:35:49 2020, MaxMem=  2097152000 cpu:         0.5
 (Enter /opt/cluster/programs/g09/g09_d.01/g09/l302.exe)
 NPDir=0 NMtPBC=     1 NCelOv=     1 NCel=       1 NClECP=     1 NCelD=      1
         NCelK=      1 NCelE2=     1 NClLst=     1 CellRange=     0.0.
 One-electron integrals computed using PRISM.
   1 Symmetry operations used in ECPInt.
 ECPInt:  NShTT=     703 NPrTT=    1591 LenC2=     704 LenP2D=    1546.
 LDataN:  DoStor=T MaxTD1= 8 Len=  415
 NBasis=   117 RedAO= T EigKep=  3.22D-04  NBF=    77    40
 NBsUse=   117 1.00D-06 EigRej= -1.00D+00 NBFU=    77    40
 Precomputing XC quadrature grid using
 IXCGrd= 4 IRadAn=           0 IRanWt=          -1 IRanGd=           0 AccXCQ= 0.00D+00.
 Generated NRdTot=       0 NPtTot=           0 NUsed=           0 NTot=          32
 NSgBfM=   142   142   142   142   142 MxSgAt=     3 MxSgA2=     3.
 Leave Link  302 at Wed Aug 26 08:35:50 2020, MaxMem=  2097152000 cpu:         1.8
 (Enter /opt/cluster/programs/g09/g09_d.01/g09/l303.exe)
 DipDrv:  MaxL=1.
 Leave Link  303 at Wed Aug 26 08:35:50 2020, MaxMem=  2097152000 cpu:         0.2
 (Enter /opt/cluster/programs/g09/g09_d.01/g09/l401.exe)
 ExpMin= 8.03D-02 ExpMax= 1.17D+05 ExpMxC= 1.13D+03 IAcc=2 IRadAn=         4 AccDes= 0.00D+00
 Harris functional with IExCor=  419 and IRadAn=       4 diagonalized for initial guess.
 HarFok:  IExCor=  419 AccDes= 0.00D+00 IRadAn=         4 IDoV= 1 UseB2=F ITyADJ=14
 ICtDFT=  3500011 ScaDFX=  1.000000  1.000000  1.000000  1.000000
 FoFCou: FMM=F IPFlag=           0 FMFlag=      100000 FMFlg1=           0
         NFxFlg=           0 DoJE=T BraDBF=F KetDBF=T FulRan=T
         wScrn=  0.000000 ICntrl=     500 IOpCl=  0 I1Cent=   200000004 NGrid=           0
         NMat0=    1 NMatS0=      1 NMatT0=    0 NMatD0=    1 NMtDS0=    0 NMtDT0=    0
 Petite list used in FoFCou.
 Harris En= -76.5072291635656    
 JPrj=0 DoOrth=F DoCkMO=F.
 Initial guess orbital symmetries:
       Occupied  (A') (A') (A') (A') (A")
       Virtual   (A') (A') (A') (A") (A') (A') (A') (A') (A") (A")
                 (A') (A') (A') (A') (A') (A') (A') (A") (A") (A")
                 (A') (A') (A') (A") (A') (A') (A") (A") (A') (A')
                 (A') (A") (A') (A') (A") (A") (A') (A') (A') (A')
                 (A') (A") (A") (A") (A') (A') (A') (A") (A') (A')
                 (A") (A') (A') (A") (A') (A') (A") (A') (A") (A')
                 (A") (A') (A') (A') (A") (A') (A") (A") (A') (A')
                 (A') (A') (A") (A") (A") (A') (A') (A") (A') (A')
                 (A') (A") (A') (A") (A') (A') (A') (A") (A') (A")
                 (A') (A') (A") (A") (A') (A") (A') (A") (A') (A')
                 (A") (A') (A') (A') (A") (A') (A") (A') (A') (A')
                 (A') (A')
 The electronic state of the initial guess is 1-A'.
 Leave Link  401 at Wed Aug 26 08:35:51 2020, MaxMem=  2097152000 cpu:         2.0
 (Enter /opt/cluster/programs/g09/g09_d.01/g09/l502.exe)
 Closed shell SCF:
 Using DIIS extrapolation, IDIIS=  1040.
 Integral symmetry usage will be decided dynamically.
 Keep R1 ints in memory in symmetry-blocked form, NReq=35980147.
 IVT=       81231 IEndB=       81231 NGot=  2097152000 MDV=  2085001127
 LenX=  2085001127 LenY=  2084980522
 Requested convergence on RMS density matrix=1.00D-08 within 128 cycles.
 Requested convergence on MAX density matrix=1.00D-06.
 Requested convergence on             energy=1.00D-06.
 No special actions if energy rises.
 FoFCou: FMM=F IPFlag=           0 FMFlag=           0 FMFlg1=           0
         NFxFlg=           0 DoJE=F BraDBF=F KetDBF=F FulRan=T
         wScrn=  0.000000 ICntrl=     600 IOpCl=  0 I1Cent=           0 NGrid=           0
         NMat0=    1 NMatS0=   6903 NMatT0=    0 NMatD0=    1 NMtDS0=    0 NMtDT0=    0
 Petite list used in FoFCou.
 Integral accuracy reduced to 1.0D-05 until final iterations.

 Cycle   1  Pass 0  IDiag  1:
 E= -76.2381671377120    
 DIIS: error= 4.47D-02 at cycle   1 NSaved=   1.
 NSaved= 1 IEnMin= 1 EnMin= -76.2381671377120     IErMin= 1 ErrMin= 4.47D-02
 ErrMax= 4.47D-02  0.00D+00 EMaxC= 1.00D-01 BMatC= 1.80D-01 BMatP= 1.80D-01
 IDIUse=3 WtCom= 5.53D-01 WtEn= 4.47D-01
 Coeff-Com:  0.100D+01
 Coeff-En:   0.100D+01
 Coeff:      0.100D+01
 Gap=     0.296 Goal=   None    Shift=    0.000
 GapD=    0.296 DampG=1.000 DampE=0.500 DampFc=0.5000 IDamp=-1.
 Damping current iteration by 5.00D-01
 RMSDP=2.40D-03 MaxDP=7.25D-02              OVMax= 1.76D-01

 Cycle   2  Pass 0  IDiag  1:
 E= -76.2803759416620     Delta-E=       -0.042208803950 Rises=F Damp=T
 DIIS: error= 1.64D-02 at cycle   2 NSaved=   2.
 NSaved= 2 IEnMin= 2 EnMin= -76.2803759416620     IErMin= 2 ErrMin= 1.64D-02
 ErrMax= 1.64D-02  0.00D+00 EMaxC= 1.00D-01 BMatC= 1.03D-02 BMatP= 1.80D-01
 IDIUse=3 WtCom= 8.36D-01 WtEn= 1.64D-01
 Coeff-Com:  0.104D-02 0.999D+00
 Coeff-En:   0.109D+00 0.891D+00
 Coeff:      0.187D-01 0.981D+00
 Gap=     0.451 Goal=   None    Shift=    0.000
 RMSDP=3.49D-04 MaxDP=1.16D-02 DE=-4.22D-02 OVMax= 1.03D-01

 Cycle   3  Pass 0  IDiag  1:
 E= -76.3311734310014     Delta-E=       -0.050797489339 Rises=F Damp=F
 DIIS: error= 3.10D-03 at cycle   3 NSaved=   3.
 NSaved= 3 IEnMin= 3 EnMin= -76.3311734310014     IErMin= 3 ErrMin= 3.10D-03
 ErrMax= 3.10D-03  0.00D+00 EMaxC= 1.00D-01 BMatC= 5.23D-04 BMatP= 1.03D-02
 IDIUse=3 WtCom= 9.69D-01 WtEn= 3.10D-02
 Coeff-Com: -0.535D-01 0.682D-01 0.985D+00
 Coeff-En:   0.000D+00 0.000D+00 0.100D+01
 Coeff:     -0.519D-01 0.661D-01 0.986D+00
 Gap=     0.450 Goal=   None    Shift=    0.000
 RMSDP=8.49D-05 MaxDP=3.01D-03 DE=-5.08D-02 OVMax= 6.01D-03

 Cycle   4  Pass 0  IDiag  1:
 E= -76.3315318530833     Delta-E=       -0.000358422082 Rises=F Damp=F
 DIIS: error= 2.41D-04 at cycle   4 NSaved=   4.
 NSaved= 4 IEnMin= 4 EnMin= -76.3315318530833     IErMin= 4 ErrMin= 2.41D-04
 ErrMax= 2.41D-04  0.00D+00 EMaxC= 1.00D-01 BMatC= 3.38D-06 BMatP= 5.23D-04
 IDIUse=3 WtCom= 9.98D-01 WtEn= 2.41D-03
 Coeff-Com:  0.429D-02-0.961D-02-0.118D-01 0.102D+01
 Coeff-En:   0.000D+00 0.000D+00 0.000D+00 0.100D+01
 Coeff:      0.428D-02-0.958D-02-0.118D-01 0.102D+01
 Gap=     0.451 Goal=   None    Shift=    0.000
 RMSDP=1.21D-05 MaxDP=4.09D-04 DE=-3.58D-04 OVMax= 6.74D-04

 Cycle   5  Pass 0  IDiag  1:
 E= -76.3315343634087     Delta-E=       -0.000002510325 Rises=F Damp=F
 DIIS: error= 3.78D-05 at cycle   5 NSaved=   5.
 NSaved= 5 IEnMin= 5 EnMin= -76.3315343634087     IErMin= 5 ErrMin= 3.78D-05
 ErrMax= 3.78D-05  0.00D+00 EMaxC= 1.00D-01 BMatC= 4.80D-08 BMatP= 3.38D-06
 IDIUse=1 WtCom= 1.00D+00 WtEn= 0.00D+00
 Coeff-Com:  0.183D-02-0.272D-02-0.270D-01 0.638D-01 0.964D+00
 Coeff:      0.183D-02-0.272D-02-0.270D-01 0.638D-01 0.964D+00
 Gap=     0.451 Goal=   None    Shift=    0.000
 RMSDP=2.09D-06 MaxDP=6.13D-05 DE=-2.51D-06 OVMax= 1.32D-04

 Initial convergence to 1.0D-05 achieved.  Increase integral accuracy.
 Cycle   6  Pass 1  IDiag  1:
 E= -76.3315332740196     Delta-E=        0.000001089389 Rises=F Damp=F
 DIIS: error= 1.06D-05 at cycle   1 NSaved=   1.
 NSaved= 1 IEnMin= 1 EnMin= -76.3315332740196     IErMin= 1 ErrMin= 1.06D-05
 ErrMax= 1.06D-05  0.00D+00 EMaxC= 1.00D-01 BMatC= 1.25D-08 BMatP= 1.25D-08
 IDIUse=1 WtCom= 1.00D+00 WtEn= 0.00D+00
 Coeff-Com:  0.100D+01
 Coeff:      0.100D+01
 Gap=     0.451 Goal=   None    Shift=    0.000
 RMSDP=2.09D-06 MaxDP=6.13D-05 DE= 1.09D-06 OVMax= 3.97D-05

 Cycle   7  Pass 1  IDiag  1:
 E= -76.3315332793085     Delta-E=       -0.000000005289 Rises=F Damp=F
 DIIS: error= 5.05D-06 at cycle   2 NSaved=   2.
 NSaved= 2 IEnMin= 2 EnMin= -76.3315332793085     IErMin= 2 ErrMin= 5.05D-06
 ErrMax= 5.05D-06  0.00D+00 EMaxC= 1.00D-01 BMatC= 8.32D-10 BMatP= 1.25D-08
 IDIUse=1 WtCom= 1.00D+00 WtEn= 0.00D+00
 Coeff-Com:  0.700D-01 0.930D+00
 Coeff:      0.700D-01 0.930D+00
 Gap=     0.451 Goal=   None    Shift=    0.000
 RMSDP=1.89D-07 MaxDP=5.89D-06 DE=-5.29D-09 OVMax= 1.80D-05

 Cycle   8  Pass 1  IDiag  1:
 E= -76.3315332797209     Delta-E=       -0.000000000412 Rises=F Damp=F
 DIIS: error= 3.19D-06 at cycle   3 NSaved=   3.
 NSaved= 3 IEnMin= 3 EnMin= -76.3315332797209     IErMin= 3 ErrMin= 3.19D-06
 ErrMax= 3.19D-06  0.00D+00 EMaxC= 1.00D-01 BMatC= 5.80D-10 BMatP= 8.32D-10
 IDIUse=1 WtCom= 1.00D+00 WtEn= 0.00D+00
 Coeff-Com: -0.288D-01 0.453D+00 0.576D+00
 Coeff:     -0.288D-01 0.453D+00 0.576D+00
 Gap=     0.451 Goal=   None    Shift=    0.000
 RMSDP=8.51D-08 MaxDP=3.09D-06 DE=-4.12D-10 OVMax= 7.14D-06

 Cycle   9  Pass 1  IDiag  1:
 E= -76.3315332801028     Delta-E=       -0.000000000382 Rises=F Damp=F
 DIIS: error= 5.01D-07 at cycle   4 NSaved=   4.
 NSaved= 4 IEnMin= 4 EnMin= -76.3315332801028     IErMin= 4 ErrMin= 5.01D-07
 ErrMax= 5.01D-07  0.00D+00 EMaxC= 1.00D-01 BMatC= 7.87D-12 BMatP= 5.80D-10
 IDIUse=1 WtCom= 1.00D+00 WtEn= 0.00D+00
 Coeff-Com: -0.667D-02-0.384D-01 0.338D-01 0.101D+01
 Coeff:     -0.667D-02-0.384D-01 0.338D-01 0.101D+01
 Gap=     0.451 Goal=   None    Shift=    0.000
 RMSDP=2.54D-08 MaxDP=7.11D-07 DE=-3.82D-10 OVMax= 1.97D-06

 Cycle  10  Pass 1  IDiag  1:
 E= -76.3315332801151     Delta-E=       -0.000000000012 Rises=F Damp=F
 DIIS: error= 8.63D-08 at cycle   5 NSaved=   5.
 NSaved= 5 IEnMin= 5 EnMin= -76.3315332801151     IErMin= 5 ErrMin= 8.63D-08
 ErrMax= 8.63D-08  0.00D+00 EMaxC= 1.00D-01 BMatC= 4.14D-13 BMatP= 7.87D-12
 IDIUse=1 WtCom= 1.00D+00 WtEn= 0.00D+00
 Coeff-Com:  0.178D-02-0.445D-01-0.462D-01 0.101D+00 0.988D+00
 Coeff:      0.178D-02-0.445D-01-0.462D-01 0.101D+00 0.988D+00
 Gap=     0.451 Goal=   None    Shift=    0.000
 RMSDP=6.29D-09 MaxDP=1.49D-07 DE=-1.23D-11 OVMax= 5.81D-07

 SCF Done:  E(RB2PLYPD3) =  -76.3315332801     A.U. after   10 cycles
            NFock= 10  Conv=0.63D-08     -V/T= 2.0009
 KE= 7.626120321229D+01 PE=-1.999044996336D+02 EE= 3.780235932678D+01
 Leave Link  502 at Wed Aug 26 08:35:53 2020, MaxMem=  2097152000 cpu:        13.9
 (Enter /opt/cluster/programs/g09/g09_d.01/g09/l801.exe)
 DoSCS=T DFT=T ScalE2(SS,OS)=  0.270000  0.270000
 ExpMin= 8.03D-02 ExpMax= 1.17D+05 ExpMxC= 1.13D+03 IAcc=3 IRadAn=         5 AccDes= 0.00D+00
 HarFok:  IExCor=  205 AccDes= 0.00D+00 IRadAn=         5 IDoV=-2 UseB2=F ITyADJ=14
 ICtDFT= 12500011 ScaDFX=  1.000000  1.000000  1.000000  1.000000
 Largest valence mixing into a core orbital is  6.64D-05
 Largest core mixing into a valence orbital is  9.35D-06
 Range of M.O.s used for correlation:     2   117
 NBasis=   117 NAE=     5 NBE=     5 NFC=     1 NFV=     0
 NROrb=    116 NOA=     4 NOB=     4 NVA=   112 NVB=   112

 **** Warning!!: The largest alpha MO coefficient is  0.16983225D+02

 Leave Link  801 at Wed Aug 26 08:35:53 2020, MaxMem=  2097152000 cpu:         0.4
 (Enter /opt/cluster/programs/g09/g09_d.01/g09/l906.exe)
 DoSCS=T DFT=T ScalE2(SS,OS)=  0.270000  0.270000
 FulOut=F Deriv=F AODrv=F NAtomX=     3
   MMem=       16445  MDisk=           4 MDiskD=           4
  W3Min=       63616 MinDsk=      271641 NBas6D=         142
 NBas2D=       10573    NTT=       10153    LW2=     4508827
    MDV=  2097048983 MDiskM=       32786 NBas2p=       10573
 Fully in-core method, ICMem=   125836233.
 IMap=   1   2   3   4
 JobTyp=1 Pass  1 fully in-core, NPsUse=  8.
 Compute canonical integrals.
 FoFCou: FMM=F IPFlag=           0 FMFlag=           0 FMFlg1=           0
         NFxFlg=           0 DoJE=F BraDBF=F KetDBF=F FulRan=T
         wScrn=  0.000000 ICntrl=     600 IOpCl=  1 I1Cent=           0 NGrid=           0
         NMat0=    1 NMatS0=  10573 NMatT0=    0 NMatD0=    1 NMtDS0=    0 NMtDT0=    0
 Symmetry not used in FoFCou.
 Spin components of T(2) and E(2):
     alpha-alpha T2 =       0.1168346935D-01 E2=     -0.1062063337D-01
     alpha-beta  T2 =       0.6749025180D-01 E2=     -0.6766477402D-01
     beta-beta   T2 =       0.1168346935D-01 E2=     -0.1062063337D-01
 The integrals were generated   1 times.
 E2(B2PLYPD3) =    -0.8890604077D-01 E(B2PLYPD3) =    -0.76420439320884D+02
 Leave Link  906 at Wed Aug 26 08:35:55 2020, MaxMem=  2097152000 cpu:        13.7
 (Enter /opt/cluster/programs/g09/g09_d.01/g09/l601.exe)
 Copying SCF densities to generalized density rwf, IOpCl= 0 IROHF=0.

 **********************************************************************

            Population analysis using the SCF density.

 **********************************************************************

 Orbital symmetries:
       Occupied  (A') (A') (A') (A') (A")
       Virtual   (A') (A') (A') (A") (A') (A') (A') (A') (A") (A")
                 (A') (A') (A') (A') (A') (A') (A") (A') (A") (A')
                 (A") (A') (A') (A") (A') (A') (A") (A') (A") (A')
                 (A') (A") (A') (A') (A") (A") (A') (A') (A') (A')
                 (A') (A") (A") (A') (A") (A') (A') (A') (A") (A')
                 (A") (A') (A') (A') (A") (A') (A") (A') (A") (A')
                 (A") (A') (A') (A') (A") (A') (A") (A") (A') (A')
                 (A') (A') (A") (A") (A") (A') (A') (A") (A') (A')
                 (A') (A") (A') (A") (A') (A') (A') (A") (A') (A")
                 (A') (A') (A") (A") (A') (A") (A') (A") (A') (A')
                 (A") (A') (A') (A') (A") (A') (A") (A') (A') (A')
                 (A') (A')
 The electronic state is 1-A'.
 Alpha  occ. eigenvalues --  -19.72508  -1.17254  -0.63134  -0.47568  -0.40222
 Alpha virt. eigenvalues --    0.04870   0.10472   0.27248   0.30329   0.31538
 Alpha virt. eigenvalues --    0.37074   0.45054   0.50866   0.56358   0.62959
 Alpha virt. eigenvalues --    0.64749   0.81837   0.94200   0.95426   1.05607
 Alpha virt. eigenvalues --    1.11758   1.33435   1.34214   1.35563   1.42193
 Alpha virt. eigenvalues --    1.42943   1.49073   1.83077   1.94633   2.05275
 Alpha virt. eigenvalues --    2.05666   2.14749   2.33289   2.33806   2.37098
 Alpha virt. eigenvalues --    2.38707   2.46562   2.56710   2.61543   2.70667
 Alpha virt. eigenvalues --    2.76812   2.93914   2.99640   3.19004   3.20890
 Alpha virt. eigenvalues --    3.38899   3.82996   3.88681   3.92982   3.93556
 Alpha virt. eigenvalues --    4.14380   4.19992   4.30337   4.32332   4.52568
 Alpha virt. eigenvalues --    4.78123   4.88288   5.06211   5.44543   5.46701
 Alpha virt. eigenvalues --    5.61664   5.82026   6.09186   6.10343   6.19367
 Alpha virt. eigenvalues --    6.59482   6.66178   6.94735   7.17498   7.22106
 Alpha virt. eigenvalues --    7.23294   7.26826   7.32258   7.40944   7.46462
 Alpha virt. eigenvalues --    7.49859   7.64568   7.73094   7.86695   7.92324
 Alpha virt. eigenvalues --    7.97181   8.03894   8.09052   8.14562   8.45657
 Alpha virt. eigenvalues --    8.76748   8.78023   9.01053   9.18259   9.30010
 Alpha virt. eigenvalues --    9.43383  10.02436  10.07514  10.45778  10.55559
 Alpha virt. eigenvalues --   10.87901  11.05046  11.16329  11.33132  11.41353
 Alpha virt. eigenvalues --   11.49841  11.67379  12.00463  12.05612  12.24661
 Alpha virt. eigenvalues --   12.28052  12.50392  13.31573  13.69314  14.00527
 Alpha virt. eigenvalues --   14.17770  14.68618  14.82470  16.73187  17.18564
 Alpha virt. eigenvalues --   48.92825 254.69904
          Condensed to atoms (all electrons):
               1          2          3
     1  O    7.718944   0.343883   0.351315
     2  H    0.343883   0.454391  -0.023127
     3  H    0.351315  -0.023127   0.482522
 Mulliken charges:
               1
     1  O   -0.414142
     2  H    0.224852
     3  H    0.189290
 Sum of Mulliken charges =   0.00000
 Mulliken charges with hydrogens summed into heavy atoms:
               1
     1  O    0.000000
 Electronic spatial extent (au):  <R**2>=             19.2279
 Charge=              0.0000 electrons
 Dipole moment (field-independent basis, Debye):
    X=             -0.0319    Y=             -1.9130    Z=              0.0000  Tot=              1.9133
 Quadrupole moment (field-independent basis, Debye-Ang):
   XX=             -4.3469   YY=             -6.3382   ZZ=             -7.5201
   XY=             -0.1775   XZ=              0.0000   YZ=              0.0000
 Traceless Quadrupole moment (field-independent basis, Debye-Ang):
   XX=              1.7215   YY=             -0.2698   ZZ=             -1.4517
   XY=             -0.1775   XZ=              0.0000   YZ=              0.0000
 Octapole moment (field-independent basis, Debye-Ang**2):
  XXX=             -0.0976  YYY=             -1.1864  ZZZ=              0.0000  XYY=              0.1086
  XXY=             -1.2718  XXZ=              0.0000  XZZ=             -0.0367  YZZ=             -0.2984
  YYZ=              0.0000  XYZ=              0.0000
 Hexadecapole moment (field-independent basis, Debye-Ang**3):
 XXXX=             -5.9219 YYYY=             -7.1464 ZZZZ=             -6.6544 XXXY=              0.0088
 XXXZ=              0.0000 YYYX=              0.0023 YYYZ=              0.0000 ZZZX=              0.0000
 ZZZY=              0.0000 XXYY=             -1.8950 XXZZ=             -2.3987 YYZZ=             -2.3483
 XXYZ=              0.0000 YYXZ=              0.0000 ZZXY=              0.0435
 N-N= 9.509403814378D+00 E-N=-1.999044989214D+02  KE= 7.626120321229D+01
 Symmetry A'   KE= 7.174730089159D+01
 Symmetry A"   KE= 4.513902320694D+00
 Leave Link  601 at Wed Aug 26 08:35:55 2020, MaxMem=  2097152000 cpu:         0.3
 (Enter /opt/cluster/programs/g09/g09_d.01/g09/l9999.exe)
 1\1\GINC-NODE07\SP\RB2PLYPD3-FC\def2QZVP\H2O1\BOITTIER\26-Aug-2020\0\\
 #p B2PLYPD3/Def2QZVP\\h2o\\0,1\O,0,-5.326605,-0.760832,0.916148\H,0,-4
 .368927,-0.723592,0.931965\H,0,-5.609308,0.080943,0.814065\\Version=ES
 64L-G09RevD.01\State=1-A'\HF=-76.3315333\MP2=-76.4204393\RMSD=6.287e-0
 9\PG=CS [SG(H2O1)]\\@


 WE THE UNWILLING
 LED BY THE UNQUALIFIED
 HAVE BEEN DOING THE UNBELIEVABLE SO LONG WITH SO LITTLE
 THAT WE NOW ATTEMPT THE IMPOSSIBLE WITH NOTHING.

                                    -- ANONYMOUS
 Job cpu time:       0 days  0 hours  0 minutes 34.1 seconds.
 File lengths (MBytes):  RWF=      8 Int=      0 D2E=      0 Chk=      2 Scr=      1
 Normal termination of Gaussian 09 at Wed Aug 26 08:35:55 2020.
