 Entering Gaussian System, Link 0=/opt/cluster/programs/g09/g09_d.01/g09//g09
 Input=/home/boittier/MDCM/nms_sampling/h2o_geom.xyz.dir/energies/h2o_176_energy.com
 Output=/scratch/boittier/h2o_176_energy/h2o_176_energy.out
 Initial command:
 /opt/cluster/programs/g09/g09_d.01/g09/l1.exe "/scratch/boittier/h2o_176_energy/Gau-170376.inp" -scrdir="/scratch/boittier/h2o_176_energy/"
 Entering Link 1 = /opt/cluster/programs/g09/g09_d.01/g09/l1.exe PID=    170377.
  
 Copyright (c) 1988,1990,1992,1993,1995,1998,2003,2009,2013,
            Gaussian, Inc.  All Rights Reserved.
  
 This is part of the Gaussian(R) 09 program.  It is based on
 the Gaussian(R) 03 system (copyright 2003, Gaussian, Inc.),
 the Gaussian(R) 98 system (copyright 1998, Gaussian, Inc.),
 the Gaussian(R) 94 system (copyright 1995, Gaussian, Inc.),
 the Gaussian 92(TM) system (copyright 1992, Gaussian, Inc.),
 the Gaussian 90(TM) system (copyright 1990, Gaussian, Inc.),
 the Gaussian 88(TM) system (copyright 1988, Gaussian, Inc.),
 the Gaussian 86(TM) system (copyright 1986, Carnegie Mellon
 University), and the Gaussian 82(TM) system (copyright 1983,
 Carnegie Mellon University). Gaussian is a federally registered
 trademark of Gaussian, Inc.
  
 This software contains proprietary and confidential information,
 including trade secrets, belonging to Gaussian, Inc.
  
 This software is provided under written license and may be
 used, copied, transmitted, or stored only in accord with that
 written license.
  
 The following legend is applicable only to US Government
 contracts under FAR:
  
                    RESTRICTED RIGHTS LEGEND
  
 Use, reproduction and disclosure by the US Government is
 subject to restrictions as set forth in subparagraphs (a)
 and (c) of the Commercial Computer Software - Restricted
 Rights clause in FAR 52.227-19.
  
 Gaussian, Inc.
 340 Quinnipiac St., Bldg. 40, Wallingford CT 06492
  
  
 ---------------------------------------------------------------
 Warning -- This program may not be used in any manner that
 competes with the business of Gaussian, Inc. or will provide
 assistance to any competitor of Gaussian, Inc.  The licensee
 of this program is prohibited from giving any competitor of
 Gaussian, Inc. access to this program.  By using this program,
 the user acknowledges that Gaussian, Inc. is engaged in the
 business of creating and licensing software in the field of
 computational chemistry and represents and warrants to the
 licensee that it is not a competitor of Gaussian, Inc. and that
 it will not use this program in any manner prohibited above.
 ---------------------------------------------------------------
  

 Cite this work as:
 Gaussian 09, Revision D.01,
 M. J. Frisch, G. W. Trucks, H. B. Schlegel, G. E. Scuseria, 
 M. A. Robb, J. R. Cheeseman, G. Scalmani, V. Barone, B. Mennucci, 
 G. A. Petersson, H. Nakatsuji, M. Caricato, X. Li, H. P. Hratchian, 
 A. F. Izmaylov, J. Bloino, G. Zheng, J. L. Sonnenberg, M. Hada, 
 M. Ehara, K. Toyota, R. Fukuda, J. Hasegawa, M. Ishida, T. Nakajima, 
 Y. Honda, O. Kitao, H. Nakai, T. Vreven, J. A. Montgomery, Jr., 
 J. E. Peralta, F. Ogliaro, M. Bearpark, J. J. Heyd, E. Brothers, 
 K. N. Kudin, V. N. Staroverov, T. Keith, R. Kobayashi, J. Normand, 
 K. Raghavachari, A. Rendell, J. C. Burant, S. S. Iyengar, J. Tomasi, 
 M. Cossi, N. Rega, J. M. Millam, M. Klene, J. E. Knox, J. B. Cross, 
 V. Bakken, C. Adamo, J. Jaramillo, R. Gomperts, R. E. Stratmann, 
 O. Yazyev, A. J. Austin, R. Cammi, C. Pomelli, J. W. Ochterski, 
 R. L. Martin, K. Morokuma, V. G. Zakrzewski, G. A. Voth, 
 P. Salvador, J. J. Dannenberg, S. Dapprich, A. D. Daniels, 
 O. Farkas, J. B. Foresman, J. V. Ortiz, J. Cioslowski, 
 and D. J. Fox, Gaussian, Inc., Wallingford CT, 2013.
 
 ******************************************
 Gaussian 09:  ES64L-G09RevD.01 24-Apr-2013
                26-Aug-2020 
 ******************************************
 %chk=/home/boittier/MDCM/nms_sampling/h2o_geom.xyz.dir/h2o_176.chk
 %nproc=8
 Will use up to    8 processors via shared memory.
 %mem=16000MB
 --------------------
 #p B2PLYPD3/Def2QZVP
 --------------------
 1/38=1/1;
 2/12=2,17=6,18=5,40=1/2;
 3/5=45,7=101,11=9,16=1,25=1,30=1,74=-60/1,2,3;
 4//1;
 5/5=2,38=5/2;
 8/10=1/1;
 9/16=-3/6;
 6/7=2,8=2,9=2,10=2/1;
 99/5=1,9=1/99;
 Leave Link    1 at Wed Aug 26 08:25:50 2020, MaxMem=  2097152000 cpu:         0.2
 (Enter /opt/cluster/programs/g09/g09_d.01/g09/l101.exe)
 ---
 h2o
 ---
 Symbolic Z-matrix:
 Charge =  0 Multiplicity = 1
 O                    -5.3266   -0.76519   0.91893 
 H                    -4.36893  -0.72503   0.93707 
 H                    -5.60931   0.15209   0.76564 
 
 NAtoms=      3 NQM=        3 NQMF=       0 NMMI=      0 NMMIF=      0
                NMic=       0 NMicF=      0.
                    Isotopes and Nuclear Properties:
 (Nuclear quadrupole moments (NQMom) in fm**2, nuclear magnetic moments (NMagM)
  in nuclear magnetons)

  Atom         1           2           3
 IAtWgt=          16           1           1
 AtmWgt=  15.9949146   1.0078250   1.0078250
 NucSpn=           0           1           1
 AtZEff=   0.0000000   0.0000000   0.0000000
 NQMom=    0.0000000   0.0000000   0.0000000
 NMagM=    0.0000000   2.7928460   2.7928460
 AtZNuc=   8.0000000   1.0000000   1.0000000
 Leave Link  101 at Wed Aug 26 08:25:51 2020, MaxMem=  2097152000 cpu:         0.4
 (Enter /opt/cluster/programs/g09/g09_d.01/g09/l202.exe)
                          Input orientation:                          
 ---------------------------------------------------------------------
 Center     Atomic      Atomic             Coordinates (Angstroms)
 Number     Number       Type             X           Y           Z
 ---------------------------------------------------------------------
      1          8           0       -5.326605   -0.765188    0.918930
      2          1           0       -4.368927   -0.725034    0.937069
      3          1           0       -5.609308    0.152094    0.765643
 ---------------------------------------------------------------------
                    Distance matrix (angstroms):
                    1          2          3
     1  O    0.000000
     2  H    0.958691   0.000000
     3  H    0.972021   1.528818   0.000000
 Stoichiometry    H2O
 Framework group  CS[SG(H2O)]
 Deg. of freedom     3
 Full point group                 CS      NOp   2
 Largest Abelian subgroup         CS      NOp   2
 Largest concise Abelian subgroup C1      NOp   1
                         Standard orientation:                         
 ---------------------------------------------------------------------
 Center     Atomic      Atomic             Coordinates (Angstroms)
 Number     Number       Type             X           Y           Z
 ---------------------------------------------------------------------
      1          8           0        0.000000    0.117921    0.000000
      2          1           0        0.764331   -0.460772    0.000000
      3          1           0       -0.764331   -0.482597    0.000000
 ---------------------------------------------------------------------
 Rotational constants (GHZ):    812.4779560    428.9939936    280.7539575
 Leave Link  202 at Wed Aug 26 08:25:51 2020, MaxMem=  2097152000 cpu:         0.0
 (Enter /opt/cluster/programs/g09/g09_d.01/g09/l301.exe)
 Standard basis: def2QZVP (5D, 7F)
 Ernie: Thresh=  0.10000D-02 Tol=  0.10000D-05 Strict=F.
 There are    96 symmetry adapted cartesian basis functions of A'  symmetry.
 There are    46 symmetry adapted cartesian basis functions of A"  symmetry.
 There are    77 symmetry adapted basis functions of A'  symmetry.
 There are    40 symmetry adapted basis functions of A"  symmetry.
   117 basis functions,   168 primitive gaussians,   142 cartesian basis functions
     5 alpha electrons        5 beta electrons
       nuclear repulsion energy         9.1172412414 Hartrees.
 IExCor=  419 DFT=T Ex+Corr=B2PLYPD3 ExCW=0 ScaHFX=  0.530000
 ScaDFX=  0.470000  0.470000  0.730000  0.730000 ScalE2=  0.270000  0.270000
 IRadAn=      0 IRanWt=     -1 IRanGd=            0 ICorTp=0 IEmpDi=141
 NAtoms=    3 NActive=    3 NUniq=    3 SFac= 1.00D+00 NAtFMM=   60 NAOKFM=F Big=F
 Integral buffers will be    131072 words long.
 Regular integral format.
 Two-electron integral symmetry is turned on.
 R6Disp:  Grimme-D3(BJ) Dispersion energy=       -0.0002342928 Hartrees.
 Nuclear repulsion after empirical dispersion term =        9.1170069486 Hartrees.
 Leave Link  301 at Wed Aug 26 08:25:51 2020, MaxMem=  2097152000 cpu:         0.4
 (Enter /opt/cluster/programs/g09/g09_d.01/g09/l302.exe)
 NPDir=0 NMtPBC=     1 NCelOv=     1 NCel=       1 NClECP=     1 NCelD=      1
         NCelK=      1 NCelE2=     1 NClLst=     1 CellRange=     0.0.
 One-electron integrals computed using PRISM.
   1 Symmetry operations used in ECPInt.
 ECPInt:  NShTT=     703 NPrTT=    1591 LenC2=     704 LenP2D=    1543.
 LDataN:  DoStor=T MaxTD1= 8 Len=  415
 NBasis=   117 RedAO= T EigKep=  4.59D-04  NBF=    77    40
 NBsUse=   117 1.00D-06 EigRej= -1.00D+00 NBFU=    77    40
 Precomputing XC quadrature grid using
 IXCGrd= 4 IRadAn=           0 IRanWt=          -1 IRanGd=           0 AccXCQ= 0.00D+00.
 Generated NRdTot=       0 NPtTot=           0 NUsed=           0 NTot=          32
 NSgBfM=   142   142   142   142   142 MxSgAt=     3 MxSgA2=     3.
 Leave Link  302 at Wed Aug 26 08:25:51 2020, MaxMem=  2097152000 cpu:         1.4
 (Enter /opt/cluster/programs/g09/g09_d.01/g09/l303.exe)
 DipDrv:  MaxL=1.
 Leave Link  303 at Wed Aug 26 08:25:51 2020, MaxMem=  2097152000 cpu:         0.2
 (Enter /opt/cluster/programs/g09/g09_d.01/g09/l401.exe)
 ExpMin= 8.03D-02 ExpMax= 1.17D+05 ExpMxC= 1.13D+03 IAcc=2 IRadAn=         4 AccDes= 0.00D+00
 Harris functional with IExCor=  419 and IRadAn=       4 diagonalized for initial guess.
 HarFok:  IExCor=  419 AccDes= 0.00D+00 IRadAn=         4 IDoV= 1 UseB2=F ITyADJ=14
 ICtDFT=  3500011 ScaDFX=  1.000000  1.000000  1.000000  1.000000
 FoFCou: FMM=F IPFlag=           0 FMFlag=      100000 FMFlg1=           0
         NFxFlg=           0 DoJE=T BraDBF=F KetDBF=T FulRan=T
         wScrn=  0.000000 ICntrl=     500 IOpCl=  0 I1Cent=   200000004 NGrid=           0
         NMat0=    1 NMatS0=      1 NMatT0=    0 NMatD0=    1 NMtDS0=    0 NMtDT0=    0
 Petite list used in FoFCou.
 Harris En= -76.5070709445104    
 JPrj=0 DoOrth=F DoCkMO=F.
 Initial guess orbital symmetries:
       Occupied  (A') (A') (A') (A') (A")
       Virtual   (A') (A') (A') (A") (A') (A') (A') (A') (A") (A")
                 (A') (A') (A') (A') (A') (A') (A') (A") (A") (A")
                 (A') (A') (A') (A") (A') (A') (A") (A') (A") (A')
                 (A') (A") (A') (A') (A") (A") (A') (A') (A') (A')
                 (A') (A") (A") (A') (A") (A') (A') (A") (A') (A')
                 (A") (A') (A') (A") (A') (A') (A") (A') (A") (A')
                 (A") (A') (A') (A') (A") (A") (A') (A") (A') (A')
                 (A') (A') (A") (A") (A") (A') (A') (A") (A') (A')
                 (A') (A") (A') (A") (A') (A') (A") (A') (A') (A")
                 (A') (A') (A") (A') (A") (A") (A') (A") (A') (A")
                 (A') (A') (A') (A') (A') (A") (A") (A') (A') (A')
                 (A') (A')
 The electronic state of the initial guess is 1-A'.
 Leave Link  401 at Wed Aug 26 08:25:51 2020, MaxMem=  2097152000 cpu:         1.5
 (Enter /opt/cluster/programs/g09/g09_d.01/g09/l502.exe)
 Closed shell SCF:
 Using DIIS extrapolation, IDIIS=  1040.
 Integral symmetry usage will be decided dynamically.
 Keep R1 ints in memory in symmetry-blocked form, NReq=35980147.
 IVT=       81231 IEndB=       81231 NGot=  2097152000 MDV=  2085001127
 LenX=  2085001127 LenY=  2084980522
 Requested convergence on RMS density matrix=1.00D-08 within 128 cycles.
 Requested convergence on MAX density matrix=1.00D-06.
 Requested convergence on             energy=1.00D-06.
 No special actions if energy rises.
 FoFCou: FMM=F IPFlag=           0 FMFlag=           0 FMFlg1=           0
         NFxFlg=           0 DoJE=F BraDBF=F KetDBF=F FulRan=T
         wScrn=  0.000000 ICntrl=     600 IOpCl=  0 I1Cent=           0 NGrid=           0
         NMat0=    1 NMatS0=   6903 NMatT0=    0 NMatD0=    1 NMtDS0=    0 NMtDT0=    0
 Petite list used in FoFCou.
 Integral accuracy reduced to 1.0D-05 until final iterations.

 Cycle   1  Pass 0  IDiag  1:
 E= -76.2480647716288    
 DIIS: error= 4.60D-02 at cycle   1 NSaved=   1.
 NSaved= 1 IEnMin= 1 EnMin= -76.2480647716288     IErMin= 1 ErrMin= 4.60D-02
 ErrMax= 4.60D-02  0.00D+00 EMaxC= 1.00D-01 BMatC= 1.67D-01 BMatP= 1.67D-01
 IDIUse=3 WtCom= 5.40D-01 WtEn= 4.60D-01
 Coeff-Com:  0.100D+01
 Coeff-En:   0.100D+01
 Coeff:      0.100D+01
 Gap=     0.295 Goal=   None    Shift=    0.000
 GapD=    0.295 DampG=1.000 DampE=0.500 DampFc=0.5000 IDamp=-1.
 Damping current iteration by 5.00D-01
 RMSDP=2.37D-03 MaxDP=7.60D-02              OVMax= 1.69D-01

 Cycle   2  Pass 0  IDiag  1:
 E= -76.2861489977753     Delta-E=       -0.038084226147 Rises=F Damp=T
 DIIS: error= 1.57D-02 at cycle   2 NSaved=   2.
 NSaved= 2 IEnMin= 2 EnMin= -76.2861489977753     IErMin= 2 ErrMin= 1.57D-02
 ErrMax= 1.57D-02  0.00D+00 EMaxC= 1.00D-01 BMatC= 1.06D-02 BMatP= 1.67D-01
 IDIUse=3 WtCom= 8.43D-01 WtEn= 1.57D-01
 Coeff-Com:  0.159D-01 0.984D+00
 Coeff-En:   0.140D+00 0.860D+00
 Coeff:      0.354D-01 0.965D+00
 Gap=     0.444 Goal=   None    Shift=    0.000
 RMSDP=3.44D-04 MaxDP=1.19D-02 DE=-3.81D-02 OVMax= 1.02D-01

 Cycle   3  Pass 0  IDiag  1:
 E= -76.3343684878036     Delta-E=       -0.048219490028 Rises=F Damp=F
 DIIS: error= 3.89D-03 at cycle   3 NSaved=   3.
 NSaved= 3 IEnMin= 3 EnMin= -76.3343684878036     IErMin= 3 ErrMin= 3.89D-03
 ErrMax= 3.89D-03  0.00D+00 EMaxC= 1.00D-01 BMatC= 5.48D-04 BMatP= 1.06D-02
 IDIUse=3 WtCom= 9.61D-01 WtEn= 3.89D-02
 Coeff-Com: -0.558D-01 0.728D-01 0.983D+00
 Coeff-En:   0.000D+00 0.000D+00 0.100D+01
 Coeff:     -0.536D-01 0.700D-01 0.984D+00
 Gap=     0.443 Goal=   None    Shift=    0.000
 RMSDP=8.35D-05 MaxDP=2.68D-03 DE=-4.82D-02 OVMax= 6.49D-03

 Cycle   4  Pass 0  IDiag  1:
 E= -76.3347505510273     Delta-E=       -0.000382063224 Rises=F Damp=F
 DIIS: error= 2.79D-04 at cycle   4 NSaved=   4.
 NSaved= 4 IEnMin= 4 EnMin= -76.3347505510273     IErMin= 4 ErrMin= 2.79D-04
 ErrMax= 2.79D-04  0.00D+00 EMaxC= 1.00D-01 BMatC= 4.75D-06 BMatP= 5.48D-04
 IDIUse=3 WtCom= 9.97D-01 WtEn= 2.79D-03
 Coeff-Com:  0.164D-02-0.691D-02 0.420D-01 0.963D+00
 Coeff-En:   0.000D+00 0.000D+00 0.000D+00 0.100D+01
 Coeff:      0.164D-02-0.689D-02 0.418D-01 0.963D+00
 Gap=     0.444 Goal=   None    Shift=    0.000
 RMSDP=1.19D-05 MaxDP=4.26D-04 DE=-3.82D-04 OVMax= 7.85D-04

 Cycle   5  Pass 0  IDiag  1:
 E= -76.3347539221854     Delta-E=       -0.000003371158 Rises=F Damp=F
 DIIS: error= 5.50D-05 at cycle   5 NSaved=   5.
 NSaved= 5 IEnMin= 5 EnMin= -76.3347539221854     IErMin= 5 ErrMin= 5.50D-05
 ErrMax= 5.50D-05  0.00D+00 EMaxC= 1.00D-01 BMatC= 7.20D-08 BMatP= 4.75D-06
 IDIUse=1 WtCom= 1.00D+00 WtEn= 0.00D+00
 Coeff-Com:  0.226D-02-0.334D-02-0.330D-01 0.253D-01 0.101D+01
 Coeff:      0.226D-02-0.334D-02-0.330D-01 0.253D-01 0.101D+01
 Gap=     0.444 Goal=   None    Shift=    0.000
 RMSDP=2.52D-06 MaxDP=7.89D-05 DE=-3.37D-06 OVMax= 1.84D-04

 Initial convergence to 1.0D-05 achieved.  Increase integral accuracy.
 Cycle   6  Pass 1  IDiag  1:
 E= -76.3347482271550     Delta-E=        0.000005695030 Rises=F Damp=F
 DIIS: error= 1.37D-05 at cycle   1 NSaved=   1.
 NSaved= 1 IEnMin= 1 EnMin= -76.3347482271550     IErMin= 1 ErrMin= 1.37D-05
 ErrMax= 1.37D-05  0.00D+00 EMaxC= 1.00D-01 BMatC= 1.30D-08 BMatP= 1.30D-08
 IDIUse=1 WtCom= 1.00D+00 WtEn= 0.00D+00
 Coeff-Com:  0.100D+01
 Coeff:      0.100D+01
 Gap=     0.444 Goal=   None    Shift=    0.000
 RMSDP=2.52D-06 MaxDP=7.89D-05 DE= 5.70D-06 OVMax= 4.14D-05

 Cycle   7  Pass 1  IDiag  1:
 E= -76.3347482330475     Delta-E=       -0.000000005892 Rises=F Damp=F
 DIIS: error= 6.13D-06 at cycle   2 NSaved=   2.
 NSaved= 2 IEnMin= 2 EnMin= -76.3347482330475     IErMin= 2 ErrMin= 6.13D-06
 ErrMax= 6.13D-06  0.00D+00 EMaxC= 1.00D-01 BMatC= 1.20D-09 BMatP= 1.30D-08
 IDIUse=1 WtCom= 1.00D+00 WtEn= 0.00D+00
 Coeff-Com:  0.956D-01 0.904D+00
 Coeff:      0.956D-01 0.904D+00
 Gap=     0.444 Goal=   None    Shift=    0.000
 RMSDP=2.22D-07 MaxDP=7.19D-06 DE=-5.89D-09 OVMax= 2.17D-05

 Cycle   8  Pass 1  IDiag  1:
 E= -76.3347482335554     Delta-E=       -0.000000000508 Rises=F Damp=F
 DIIS: error= 4.47D-06 at cycle   3 NSaved=   3.
 NSaved= 3 IEnMin= 3 EnMin= -76.3347482335554     IErMin= 3 ErrMin= 4.47D-06
 ErrMax= 4.47D-06  0.00D+00 EMaxC= 1.00D-01 BMatC= 8.92D-10 BMatP= 1.20D-09
 IDIUse=1 WtCom= 1.00D+00 WtEn= 0.00D+00
 Coeff-Com: -0.359D-01 0.465D+00 0.571D+00
 Coeff:     -0.359D-01 0.465D+00 0.571D+00
 Gap=     0.444 Goal=   None    Shift=    0.000
 RMSDP=1.00D-07 MaxDP=3.53D-06 DE=-5.08D-10 OVMax= 8.70D-06

 Cycle   9  Pass 1  IDiag  1:
 E= -76.3347482341513     Delta-E=       -0.000000000596 Rises=F Damp=F
 DIIS: error= 5.03D-07 at cycle   4 NSaved=   4.
 NSaved= 4 IEnMin= 4 EnMin= -76.3347482341513     IErMin= 4 ErrMin= 5.03D-07
 ErrMax= 5.03D-07  0.00D+00 EMaxC= 1.00D-01 BMatC= 6.75D-12 BMatP= 8.92D-10
 IDIUse=1 WtCom= 1.00D+00 WtEn= 0.00D+00
 Coeff-Com: -0.247D-02-0.936D-01-0.559D-01 0.115D+01
 Coeff:     -0.247D-02-0.936D-01-0.559D-01 0.115D+01
 Gap=     0.444 Goal=   None    Shift=    0.000
 RMSDP=2.95D-08 MaxDP=8.84D-07 DE=-5.96D-10 OVMax= 2.37D-06

 Cycle  10  Pass 1  IDiag  1:
 E= -76.3347482341660     Delta-E=       -0.000000000015 Rises=F Damp=F
 DIIS: error= 7.22D-08 at cycle   5 NSaved=   5.
 NSaved= 5 IEnMin= 5 EnMin= -76.3347482341660     IErMin= 5 ErrMin= 7.22D-08
 ErrMax= 7.22D-08  0.00D+00 EMaxC= 1.00D-01 BMatC= 2.68D-13 BMatP= 6.75D-12
 IDIUse=1 WtCom= 1.00D+00 WtEn= 0.00D+00
 Coeff-Com:  0.172D-02-0.411D-01-0.401D-01 0.167D+00 0.913D+00
 Coeff:      0.172D-02-0.411D-01-0.401D-01 0.167D+00 0.913D+00
 Gap=     0.444 Goal=   None    Shift=    0.000
 RMSDP=4.09D-09 MaxDP=1.07D-07 DE=-1.47D-11 OVMax= 4.04D-07

 SCF Done:  E(RB2PLYPD3) =  -76.3347482342     A.U. after   10 cycles
            NFock= 10  Conv=0.41D-08     -V/T= 2.0031
 KE= 7.610191317333D+01 PE=-1.990566355877D+02 EE= 3.750296723155D+01
 Leave Link  502 at Wed Aug 26 08:25:53 2020, MaxMem=  2097152000 cpu:        11.5
 (Enter /opt/cluster/programs/g09/g09_d.01/g09/l801.exe)
 DoSCS=T DFT=T ScalE2(SS,OS)=  0.270000  0.270000
 ExpMin= 8.03D-02 ExpMax= 1.17D+05 ExpMxC= 1.13D+03 IAcc=3 IRadAn=         5 AccDes= 0.00D+00
 HarFok:  IExCor=  205 AccDes= 0.00D+00 IRadAn=         5 IDoV=-2 UseB2=F ITyADJ=14
 ICtDFT= 12500011 ScaDFX=  1.000000  1.000000  1.000000  1.000000
 Largest valence mixing into a core orbital is  6.79D-05
 Largest core mixing into a valence orbital is  1.00D-05
 Range of M.O.s used for correlation:     2   117
 NBasis=   117 NAE=     5 NBE=     5 NFC=     1 NFV=     0
 NROrb=    116 NOA=     4 NOB=     4 NVA=   112 NVB=   112

 **** Warning!!: The largest alpha MO coefficient is  0.15594307D+02

 Leave Link  801 at Wed Aug 26 08:25:53 2020, MaxMem=  2097152000 cpu:         0.4
 (Enter /opt/cluster/programs/g09/g09_d.01/g09/l906.exe)
 DoSCS=T DFT=T ScalE2(SS,OS)=  0.270000  0.270000
 FulOut=F Deriv=F AODrv=F NAtomX=     3
   MMem=       16445  MDisk=           4 MDiskD=           4
  W3Min=       63616 MinDsk=      271641 NBas6D=         142
 NBas2D=       10573    NTT=       10153    LW2=     4508827
    MDV=  2097048983 MDiskM=       32786 NBas2p=       10573
 Fully in-core method, ICMem=   125836233.
 IMap=   1   2   3   4
 JobTyp=1 Pass  1 fully in-core, NPsUse=  8.
 Compute canonical integrals.
 FoFCou: FMM=F IPFlag=           0 FMFlag=           0 FMFlg1=           0
         NFxFlg=           0 DoJE=F BraDBF=F KetDBF=F FulRan=T
         wScrn=  0.000000 ICntrl=     600 IOpCl=  1 I1Cent=           0 NGrid=           0
         NMat0=    1 NMatS0=  10573 NMatT0=    0 NMatD0=    1 NMtDS0=    0 NMtDT0=    0
 Symmetry not used in FoFCou.
 Spin components of T(2) and E(2):
     alpha-alpha T2 =       0.1227770169D-01 E2=     -0.1077575115D-01
     alpha-beta  T2 =       0.7129615422D-01 E2=     -0.6865903836D-01
     beta-beta   T2 =       0.1227770169D-01 E2=     -0.1077575115D-01
 The integrals were generated   1 times.
 E2(B2PLYPD3) =    -0.9021054066D-01 E(B2PLYPD3) =    -0.76424958774825D+02
 Leave Link  906 at Wed Aug 26 08:25:54 2020, MaxMem=  2097152000 cpu:        11.8
 (Enter /opt/cluster/programs/g09/g09_d.01/g09/l601.exe)
 Copying SCF densities to generalized density rwf, IOpCl= 0 IROHF=0.

 **********************************************************************

            Population analysis using the SCF density.

 **********************************************************************

 Orbital symmetries:
       Occupied  (A') (A') (A') (A') (A")
       Virtual   (A') (A') (A') (A") (A') (A') (A') (A') (A") (A")
                 (A') (A') (A') (A') (A') (A') (A") (A') (A") (A')
                 (A") (A') (A') (A") (A') (A') (A") (A') (A") (A')
                 (A') (A") (A') (A') (A") (A") (A') (A') (A') (A')
                 (A') (A") (A") (A') (A") (A') (A') (A") (A') (A')
                 (A") (A') (A') (A") (A') (A') (A") (A') (A") (A')
                 (A") (A') (A') (A") (A') (A") (A') (A") (A') (A')
                 (A') (A') (A") (A") (A") (A') (A') (A") (A') (A')
                 (A') (A") (A') (A") (A') (A') (A') (A") (A') (A")
                 (A') (A') (A") (A') (A") (A") (A') (A") (A') (A')
                 (A") (A') (A') (A') (A') (A") (A") (A') (A') (A')
                 (A') (A')
 The electronic state is 1-A'.
 Alpha  occ. eigenvalues --  -19.73233  -1.15365  -0.60985  -0.47362  -0.39909
 Alpha virt. eigenvalues --    0.04462   0.10144   0.27555   0.30428   0.30852
 Alpha virt. eigenvalues --    0.35609   0.43792   0.50209   0.56167   0.62148
 Alpha virt. eigenvalues --    0.65795   0.80983   0.93618   0.96070   1.03364
 Alpha virt. eigenvalues --    1.08169   1.33568   1.33964   1.35451   1.42340
 Alpha virt. eigenvalues --    1.43666   1.48907   1.84242   1.93215   2.03502
 Alpha virt. eigenvalues --    2.05031   2.14366   2.30734   2.33484   2.35844
 Alpha virt. eigenvalues --    2.37563   2.44223   2.56188   2.60293   2.68977
 Alpha virt. eigenvalues --    2.72362   2.91566   2.99088   3.16763   3.17249
 Alpha virt. eigenvalues --    3.32160   3.78372   3.90671   3.94063   3.95928
 Alpha virt. eigenvalues --    4.13627   4.17518   4.30121   4.31796   4.49311
 Alpha virt. eigenvalues --    4.68613   4.83885   4.89153   5.33443   5.41638
 Alpha virt. eigenvalues --    5.45570   5.80015   5.97681   6.05414   6.13436
 Alpha virt. eigenvalues --    6.48189   6.59600   6.83025   7.13878   7.17227
 Alpha virt. eigenvalues --    7.21662   7.23697   7.32709   7.40611   7.44655
 Alpha virt. eigenvalues --    7.46851   7.54950   7.78798   7.88124   7.93683
 Alpha virt. eigenvalues --    7.94878   7.98328   8.10660   8.17030   8.39343
 Alpha virt. eigenvalues --    8.57658   8.66549   8.84068   8.86115   9.12254
 Alpha virt. eigenvalues --    9.13006   9.96855   9.96970  10.37412  10.43774
 Alpha virt. eigenvalues --   10.83390  10.88361  11.06898  11.19702  11.28388
 Alpha virt. eigenvalues --   11.49688  11.62364  11.88763  11.93182  12.02194
 Alpha virt. eigenvalues --   12.05086  12.35897  12.98665  13.63349  13.73146
 Alpha virt. eigenvalues --   13.80017  14.23351  14.57640  16.72376  16.84829
 Alpha virt. eigenvalues --   48.72680 254.46121
          Condensed to atoms (all electrons):
               1          2          3
     1  O    7.776042   0.336966   0.335270
     2  H    0.336966   0.462672  -0.020919
     3  H    0.335270  -0.020919   0.458652
 Mulliken charges:
               1
     1  O   -0.448278
     2  H    0.221281
     3  H    0.226997
 Sum of Mulliken charges =   0.00000
 Mulliken charges with hydrogens summed into heavy atoms:
               1
     1  O    0.000000
 Electronic spatial extent (au):  <R**2>=             19.7358
 Charge=              0.0000 electrons
 Dipole moment (field-independent basis, Debye):
    X=              0.0068    Y=             -1.9647    Z=              0.0000  Tot=              1.9647
 Quadrupole moment (field-independent basis, Debye-Ang):
   XX=             -4.3205   YY=             -6.3312   ZZ=             -7.6087
   XY=              0.0360   XZ=              0.0000   YZ=              0.0000
 Traceless Quadrupole moment (field-independent basis, Debye-Ang):
   XX=              1.7663   YY=             -0.2444   ZZ=             -1.5219
   XY=              0.0360   XZ=              0.0000   YZ=              0.0000
 Octapole moment (field-independent basis, Debye-Ang**2):
  XXX=              0.0210  YYY=             -1.1668  ZZZ=              0.0000  XYY=             -0.0244
  XXY=             -1.3791  XXZ=              0.0000  XZZ=              0.0076  YZZ=             -0.2791
  YYZ=              0.0000  XYZ=              0.0000
 Hexadecapole moment (field-independent basis, Debye-Ang**3):
 XXXX=             -6.2433 YYYY=             -7.4311 ZZZZ=             -6.7745 XXXY=             -0.0033
 XXXZ=              0.0000 YYYX=             -0.0002 YYYZ=              0.0000 ZZZX=              0.0000
 ZZZY=              0.0000 XXYY=             -1.9323 XXZZ=             -2.5058 YYZZ=             -2.4233
 XXYZ=              0.0000 YYXZ=              0.0000 ZZXY=             -0.0099
 N-N= 9.117006948629D+00 E-N=-1.990566351898D+02  KE= 7.610191317333D+01
 Symmetry A'   KE= 7.158399937927D+01
 Symmetry A"   KE= 4.517913794061D+00
 Leave Link  601 at Wed Aug 26 08:25:54 2020, MaxMem=  2097152000 cpu:         0.2
 (Enter /opt/cluster/programs/g09/g09_d.01/g09/l9999.exe)
 1\1\GINC-NODE35\SP\RB2PLYPD3-FC\def2QZVP\H2O1\BOITTIER\26-Aug-2020\0\\
 #p B2PLYPD3/Def2QZVP\\h2o\\0,1\O,0,-5.326605,-0.765188,0.91893\H,0,-4.
 368927,-0.725034,0.937069\H,0,-5.609308,0.152094,0.765643\\Version=ES6
 4L-G09RevD.01\State=1-A'\HF=-76.3347482\MP2=-76.4249588\RMSD=4.091e-09
 \PG=CS [SG(H2O1)]\\@


 THE NUMBERS ARE MEANINGLESS, BUT THE TRENDS ARE IMPORTANT.
     -- LARRY BURGGRAF
 Job cpu time:       0 days  0 hours  0 minutes 28.4 seconds.
 File lengths (MBytes):  RWF=      8 Int=      0 D2E=      0 Chk=      2 Scr=      1
 Normal termination of Gaussian 09 at Wed Aug 26 08:25:54 2020.
