 Entering Gaussian System, Link 0=/opt/cluster/programs/g09/g09_d.01/g09//g09
 Input=/home/boittier/MDCM/nms_sampling/h2o_geom.xyz.dir/energies/h2o_274_energy.com
 Output=/scratch/boittier/h2o_274_energy/h2o_274_energy.out
 Initial command:
 /opt/cluster/programs/g09/g09_d.01/g09/l1.exe "/scratch/boittier/h2o_274_energy/Gau-116421.inp" -scrdir="/scratch/boittier/h2o_274_energy/"
 Entering Link 1 = /opt/cluster/programs/g09/g09_d.01/g09/l1.exe PID=    116422.
  
 Copyright (c) 1988,1990,1992,1993,1995,1998,2003,2009,2013,
            Gaussian, Inc.  All Rights Reserved.
  
 This is part of the Gaussian(R) 09 program.  It is based on
 the Gaussian(R) 03 system (copyright 2003, Gaussian, Inc.),
 the Gaussian(R) 98 system (copyright 1998, Gaussian, Inc.),
 the Gaussian(R) 94 system (copyright 1995, Gaussian, Inc.),
 the Gaussian 92(TM) system (copyright 1992, Gaussian, Inc.),
 the Gaussian 90(TM) system (copyright 1990, Gaussian, Inc.),
 the Gaussian 88(TM) system (copyright 1988, Gaussian, Inc.),
 the Gaussian 86(TM) system (copyright 1986, Carnegie Mellon
 University), and the Gaussian 82(TM) system (copyright 1983,
 Carnegie Mellon University). Gaussian is a federally registered
 trademark of Gaussian, Inc.
  
 This software contains proprietary and confidential information,
 including trade secrets, belonging to Gaussian, Inc.
  
 This software is provided under written license and may be
 used, copied, transmitted, or stored only in accord with that
 written license.
  
 The following legend is applicable only to US Government
 contracts under FAR:
  
                    RESTRICTED RIGHTS LEGEND
  
 Use, reproduction and disclosure by the US Government is
 subject to restrictions as set forth in subparagraphs (a)
 and (c) of the Commercial Computer Software - Restricted
 Rights clause in FAR 52.227-19.
  
 Gaussian, Inc.
 340 Quinnipiac St., Bldg. 40, Wallingford CT 06492
  
  
 ---------------------------------------------------------------
 Warning -- This program may not be used in any manner that
 competes with the business of Gaussian, Inc. or will provide
 assistance to any competitor of Gaussian, Inc.  The licensee
 of this program is prohibited from giving any competitor of
 Gaussian, Inc. access to this program.  By using this program,
 the user acknowledges that Gaussian, Inc. is engaged in the
 business of creating and licensing software in the field of
 computational chemistry and represents and warrants to the
 licensee that it is not a competitor of Gaussian, Inc. and that
 it will not use this program in any manner prohibited above.
 ---------------------------------------------------------------
  

 Cite this work as:
 Gaussian 09, Revision D.01,
 M. J. Frisch, G. W. Trucks, H. B. Schlegel, G. E. Scuseria, 
 M. A. Robb, J. R. Cheeseman, G. Scalmani, V. Barone, B. Mennucci, 
 G. A. Petersson, H. Nakatsuji, M. Caricato, X. Li, H. P. Hratchian, 
 A. F. Izmaylov, J. Bloino, G. Zheng, J. L. Sonnenberg, M. Hada, 
 M. Ehara, K. Toyota, R. Fukuda, J. Hasegawa, M. Ishida, T. Nakajima, 
 Y. Honda, O. Kitao, H. Nakai, T. Vreven, J. A. Montgomery, Jr., 
 J. E. Peralta, F. Ogliaro, M. Bearpark, J. J. Heyd, E. Brothers, 
 K. N. Kudin, V. N. Staroverov, T. Keith, R. Kobayashi, J. Normand, 
 K. Raghavachari, A. Rendell, J. C. Burant, S. S. Iyengar, J. Tomasi, 
 M. Cossi, N. Rega, J. M. Millam, M. Klene, J. E. Knox, J. B. Cross, 
 V. Bakken, C. Adamo, J. Jaramillo, R. Gomperts, R. E. Stratmann, 
 O. Yazyev, A. J. Austin, R. Cammi, C. Pomelli, J. W. Ochterski, 
 R. L. Martin, K. Morokuma, V. G. Zakrzewski, G. A. Voth, 
 P. Salvador, J. J. Dannenberg, S. Dapprich, A. D. Daniels, 
 O. Farkas, J. B. Foresman, J. V. Ortiz, J. Cioslowski, 
 and D. J. Fox, Gaussian, Inc., Wallingford CT, 2013.
 
 ******************************************
 Gaussian 09:  ES64L-G09RevD.01 24-Apr-2013
                26-Aug-2020 
 ******************************************
 %chk=/home/boittier/MDCM/nms_sampling/h2o_geom.xyz.dir/h2o_274.chk
 %nproc=8
 Will use up to    8 processors via shared memory.
 %mem=16000MB
 --------------------
 #p B2PLYPD3/Def2QZVP
 --------------------
 1/38=1/1;
 2/12=2,17=6,18=5,40=1/2;
 3/5=45,7=101,11=9,16=1,25=1,30=1,74=-60/1,2,3;
 4//1;
 5/5=2,38=5/2;
 8/10=1/1;
 9/16=-3/6;
 6/7=2,8=2,9=2,10=2/1;
 99/5=1,9=1/99;
 Leave Link    1 at Wed Aug 26 09:53:32 2020, MaxMem=  2097152000 cpu:         0.2
 (Enter /opt/cluster/programs/g09/g09_d.01/g09/l101.exe)
 ---
 h2o
 ---
 Symbolic Z-matrix:
 Charge =  0 Multiplicity = 1
 O                    -5.3266   -0.7631    0.91988 
 H                    -4.36893  -0.74526   0.91675 
 H                    -5.60931   0.13886   0.77101 
 
 NAtoms=      3 NQM=        3 NQMF=       0 NMMI=      0 NMMIF=      0
                NMic=       0 NMicF=      0.
                    Isotopes and Nuclear Properties:
 (Nuclear quadrupole moments (NQMom) in fm**2, nuclear magnetic moments (NMagM)
  in nuclear magnetons)

  Atom         1           2           3
 IAtWgt=          16           1           1
 AtmWgt=  15.9949146   1.0078250   1.0078250
 NucSpn=           0           1           1
 AtZEff=   0.0000000   0.0000000   0.0000000
 NQMom=    0.0000000   0.0000000   0.0000000
 NMagM=    0.0000000   2.7928460   2.7928460
 AtZNuc=   8.0000000   1.0000000   1.0000000
 Leave Link  101 at Wed Aug 26 09:53:32 2020, MaxMem=  2097152000 cpu:         0.5
 (Enter /opt/cluster/programs/g09/g09_d.01/g09/l202.exe)
                          Input orientation:                          
 ---------------------------------------------------------------------
 Center     Atomic      Atomic             Coordinates (Angstroms)
 Number     Number       Type             X           Y           Z
 ---------------------------------------------------------------------
      1          8           0       -5.326605   -0.763098    0.919878
      2          1           0       -4.368927   -0.745259    0.916746
      3          1           0       -5.609308    0.138864    0.771008
 ---------------------------------------------------------------------
                    Distance matrix (angstroms):
                    1          2          3
     1  O    0.000000
     2  H    0.957849   0.000000
     3  H    0.956880   1.530182   0.000000
 Stoichiometry    H2O
 Framework group  CS[SG(H2O)]
 Deg. of freedom     3
 Full point group                 CS      NOp   2
 Largest Abelian subgroup         CS      NOp   2
 Largest concise Abelian subgroup C1      NOp   1
                         Standard orientation:                         
 ---------------------------------------------------------------------
 Center     Atomic      Atomic             Coordinates (Angstroms)
 Number     Number       Type             X           Y           Z
 ---------------------------------------------------------------------
      1          8           0        0.000000    0.115097    0.000000
      2          1           0        0.765091   -0.461194    0.000000
      3          1           0       -0.765091   -0.459581    0.000000
 ---------------------------------------------------------------------
 Rotational constants (GHZ):    852.4739883    428.3267288    285.0852517
 Leave Link  202 at Wed Aug 26 09:53:32 2020, MaxMem=  2097152000 cpu:         0.0
 (Enter /opt/cluster/programs/g09/g09_d.01/g09/l301.exe)
 Standard basis: def2QZVP (5D, 7F)
 Ernie: Thresh=  0.10000D-02 Tol=  0.10000D-05 Strict=F.
 There are    96 symmetry adapted cartesian basis functions of A'  symmetry.
 There are    46 symmetry adapted cartesian basis functions of A"  symmetry.
 There are    77 symmetry adapted basis functions of A'  symmetry.
 There are    40 symmetry adapted basis functions of A"  symmetry.
   117 basis functions,   168 primitive gaussians,   142 cartesian basis functions
     5 alpha electrons        5 beta electrons
       nuclear repulsion energy         9.1897282485 Hartrees.
 IExCor=  419 DFT=T Ex+Corr=B2PLYPD3 ExCW=0 ScaHFX=  0.530000
 ScaDFX=  0.470000  0.470000  0.730000  0.730000 ScalE2=  0.270000  0.270000
 IRadAn=      0 IRanWt=     -1 IRanGd=            0 ICorTp=0 IEmpDi=141
 NAtoms=    3 NActive=    3 NUniq=    3 SFac= 1.00D+00 NAtFMM=   60 NAOKFM=F Big=F
 Integral buffers will be    131072 words long.
 Regular integral format.
 Two-electron integral symmetry is turned on.
 R6Disp:  Grimme-D3(BJ) Dispersion energy=       -0.0002342627 Hartrees.
 Nuclear repulsion after empirical dispersion term =        9.1894939858 Hartrees.
 Leave Link  301 at Wed Aug 26 09:53:33 2020, MaxMem=  2097152000 cpu:         0.4
 (Enter /opt/cluster/programs/g09/g09_d.01/g09/l302.exe)
 NPDir=0 NMtPBC=     1 NCelOv=     1 NCel=       1 NClECP=     1 NCelD=      1
         NCelK=      1 NCelE2=     1 NClLst=     1 CellRange=     0.0.
 One-electron integrals computed using PRISM.
   1 Symmetry operations used in ECPInt.
 ECPInt:  NShTT=     703 NPrTT=    1591 LenC2=     704 LenP2D=    1543.
 LDataN:  DoStor=T MaxTD1= 8 Len=  415
 NBasis=   117 RedAO= T EigKep=  4.35D-04  NBF=    77    40
 NBsUse=   117 1.00D-06 EigRej= -1.00D+00 NBFU=    77    40
 Precomputing XC quadrature grid using
 IXCGrd= 4 IRadAn=           0 IRanWt=          -1 IRanGd=           0 AccXCQ= 0.00D+00.
 Generated NRdTot=       0 NPtTot=           0 NUsed=           0 NTot=          32
 NSgBfM=   142   142   142   142   142 MxSgAt=     3 MxSgA2=     3.
 Leave Link  302 at Wed Aug 26 09:53:33 2020, MaxMem=  2097152000 cpu:         1.4
 (Enter /opt/cluster/programs/g09/g09_d.01/g09/l303.exe)
 DipDrv:  MaxL=1.
 Leave Link  303 at Wed Aug 26 09:53:33 2020, MaxMem=  2097152000 cpu:         0.2
 (Enter /opt/cluster/programs/g09/g09_d.01/g09/l401.exe)
 ExpMin= 8.03D-02 ExpMax= 1.17D+05 ExpMxC= 1.13D+03 IAcc=2 IRadAn=         4 AccDes= 0.00D+00
 Harris functional with IExCor=  419 and IRadAn=       4 diagonalized for initial guess.
 HarFok:  IExCor=  419 AccDes= 0.00D+00 IRadAn=         4 IDoV= 1 UseB2=F ITyADJ=14
 ICtDFT=  3500011 ScaDFX=  1.000000  1.000000  1.000000  1.000000
 FoFCou: FMM=F IPFlag=           0 FMFlag=      100000 FMFlg1=           0
         NFxFlg=           0 DoJE=T BraDBF=F KetDBF=T FulRan=T
         wScrn=  0.000000 ICntrl=     500 IOpCl=  0 I1Cent=   200000004 NGrid=           0
         NMat0=    1 NMatS0=      1 NMatT0=    0 NMatD0=    1 NMtDS0=    0 NMtDT0=    0
 Petite list used in FoFCou.
 Harris En= -76.5080284576265    
 JPrj=0 DoOrth=F DoCkMO=F.
 Initial guess orbital symmetries:
       Occupied  (A') (A') (A') (A') (A")
       Virtual   (A') (A') (A') (A") (A') (A') (A') (A') (A") (A")
                 (A') (A') (A') (A') (A') (A') (A') (A") (A") (A")
                 (A') (A') (A') (A") (A') (A') (A") (A') (A") (A')
                 (A') (A") (A') (A') (A") (A") (A') (A') (A') (A')
                 (A') (A") (A") (A") (A') (A') (A') (A") (A') (A')
                 (A") (A') (A') (A") (A') (A') (A") (A') (A") (A')
                 (A") (A') (A') (A') (A") (A") (A') (A") (A') (A')
                 (A') (A') (A") (A") (A") (A') (A') (A") (A') (A')
                 (A') (A") (A") (A') (A') (A') (A") (A') (A') (A")
                 (A') (A') (A") (A') (A") (A") (A') (A") (A') (A")
                 (A') (A') (A') (A') (A') (A") (A") (A') (A') (A')
                 (A') (A')
 The electronic state of the initial guess is 1-A'.
 Leave Link  401 at Wed Aug 26 09:53:33 2020, MaxMem=  2097152000 cpu:         1.5
 (Enter /opt/cluster/programs/g09/g09_d.01/g09/l502.exe)
 Closed shell SCF:
 Using DIIS extrapolation, IDIIS=  1040.
 Integral symmetry usage will be decided dynamically.
 Keep R1 ints in memory in symmetry-blocked form, NReq=35980147.
 IVT=       81231 IEndB=       81231 NGot=  2097152000 MDV=  2085001127
 LenX=  2085001127 LenY=  2084980522
 Requested convergence on RMS density matrix=1.00D-08 within 128 cycles.
 Requested convergence on MAX density matrix=1.00D-06.
 Requested convergence on             energy=1.00D-06.
 No special actions if energy rises.
 FoFCou: FMM=F IPFlag=           0 FMFlag=           0 FMFlg1=           0
         NFxFlg=           0 DoJE=F BraDBF=F KetDBF=F FulRan=T
         wScrn=  0.000000 ICntrl=     600 IOpCl=  0 I1Cent=           0 NGrid=           0
         NMat0=    1 NMatS0=   6903 NMatT0=    0 NMatD0=    1 NMtDS0=    0 NMtDT0=    0
 Petite list used in FoFCou.
 Integral accuracy reduced to 1.0D-05 until final iterations.

 Cycle   1  Pass 0  IDiag  1:
 E= -76.2473570257515    
 DIIS: error= 4.85D-02 at cycle   1 NSaved=   1.
 NSaved= 1 IEnMin= 1 EnMin= -76.2473570257515     IErMin= 1 ErrMin= 4.85D-02
 ErrMax= 4.85D-02  0.00D+00 EMaxC= 1.00D-01 BMatC= 1.69D-01 BMatP= 1.69D-01
 IDIUse=3 WtCom= 5.15D-01 WtEn= 4.85D-01
 Coeff-Com:  0.100D+01
 Coeff-En:   0.100D+01
 Coeff:      0.100D+01
 Gap=     0.296 Goal=   None    Shift=    0.000
 GapD=    0.296 DampG=1.000 DampE=0.500 DampFc=0.5000 IDamp=-1.
 Damping current iteration by 5.00D-01
 RMSDP=2.37D-03 MaxDP=7.45D-02              OVMax= 1.71D-01

 Cycle   2  Pass 0  IDiag  1:
 E= -76.2862093694505     Delta-E=       -0.038852343699 Rises=F Damp=T
 DIIS: error= 1.63D-02 at cycle   2 NSaved=   2.
 NSaved= 2 IEnMin= 2 EnMin= -76.2862093694505     IErMin= 2 ErrMin= 1.63D-02
 ErrMax= 1.63D-02  0.00D+00 EMaxC= 1.00D-01 BMatC= 1.05D-02 BMatP= 1.69D-01
 IDIUse=3 WtCom= 8.37D-01 WtEn= 1.63D-01
 Coeff-Com:  0.124D-01 0.988D+00
 Coeff-En:   0.133D+00 0.867D+00
 Coeff:      0.320D-01 0.968D+00
 Gap=     0.445 Goal=   None    Shift=    0.000
 RMSDP=3.41D-04 MaxDP=1.18D-02 DE=-3.89D-02 OVMax= 1.02D-01

 Cycle   3  Pass 0  IDiag  1:
 E= -76.3348131686782     Delta-E=       -0.048603799228 Rises=F Damp=F
 DIIS: error= 3.96D-03 at cycle   3 NSaved=   3.
 NSaved= 3 IEnMin= 3 EnMin= -76.3348131686782     IErMin= 3 ErrMin= 3.96D-03
 ErrMax= 3.96D-03  0.00D+00 EMaxC= 1.00D-01 BMatC= 5.32D-04 BMatP= 1.05D-02
 IDIUse=3 WtCom= 9.60D-01 WtEn= 3.96D-02
 Coeff-Com: -0.549D-01 0.711D-01 0.984D+00
 Coeff-En:   0.000D+00 0.000D+00 0.100D+01
 Coeff:     -0.527D-01 0.683D-01 0.984D+00
 Gap=     0.444 Goal=   None    Shift=    0.000
 RMSDP=8.27D-05 MaxDP=2.68D-03 DE=-4.86D-02 OVMax= 6.33D-03

 Cycle   4  Pass 0  IDiag  1:
 E= -76.3351825183775     Delta-E=       -0.000369349699 Rises=F Damp=F
 DIIS: error= 2.71D-04 at cycle   4 NSaved=   4.
 NSaved= 4 IEnMin= 4 EnMin= -76.3351825183775     IErMin= 4 ErrMin= 2.71D-04
 ErrMax= 2.71D-04  0.00D+00 EMaxC= 1.00D-01 BMatC= 4.64D-06 BMatP= 5.32D-04
 IDIUse=3 WtCom= 9.97D-01 WtEn= 2.71D-03
 Coeff-Com:  0.194D-02-0.723D-02 0.378D-01 0.967D+00
 Coeff-En:   0.000D+00 0.000D+00 0.000D+00 0.100D+01
 Coeff:      0.193D-02-0.721D-02 0.377D-01 0.968D+00
 Gap=     0.445 Goal=   None    Shift=    0.000
 RMSDP=1.20D-05 MaxDP=4.24D-04 DE=-3.69D-04 OVMax= 7.65D-04

 Cycle   5  Pass 0  IDiag  1:
 E= -76.3351857927879     Delta-E=       -0.000003274410 Rises=F Damp=F
 DIIS: error= 5.21D-05 at cycle   5 NSaved=   5.
 NSaved= 5 IEnMin= 5 EnMin= -76.3351857927879     IErMin= 5 ErrMin= 5.21D-05
 ErrMax= 5.21D-05  0.00D+00 EMaxC= 1.00D-01 BMatC= 6.56D-08 BMatP= 4.64D-06
 IDIUse=1 WtCom= 1.00D+00 WtEn= 0.00D+00
 Coeff-Com:  0.213D-02-0.314D-02-0.314D-01 0.273D-01 0.101D+01
 Coeff:      0.213D-02-0.314D-02-0.314D-01 0.273D-01 0.101D+01
 Gap=     0.445 Goal=   None    Shift=    0.000
 RMSDP=2.45D-06 MaxDP=7.60D-05 DE=-3.27D-06 OVMax= 1.72D-04

 Initial convergence to 1.0D-05 achieved.  Increase integral accuracy.
 Cycle   6  Pass 1  IDiag  1:
 E= -76.3351797531745     Delta-E=        0.000006039613 Rises=F Damp=F
 DIIS: error= 1.48D-05 at cycle   1 NSaved=   1.
 NSaved= 1 IEnMin= 1 EnMin= -76.3351797531745     IErMin= 1 ErrMin= 1.48D-05
 ErrMax= 1.48D-05  0.00D+00 EMaxC= 1.00D-01 BMatC= 1.33D-08 BMatP= 1.33D-08
 IDIUse=1 WtCom= 1.00D+00 WtEn= 0.00D+00
 Coeff-Com:  0.100D+01
 Coeff:      0.100D+01
 Gap=     0.445 Goal=   None    Shift=    0.000
 RMSDP=2.45D-06 MaxDP=7.60D-05 DE= 6.04D-06 OVMax= 4.07D-05

 Cycle   7  Pass 1  IDiag  1:
 E= -76.3351797588953     Delta-E=       -0.000000005721 Rises=F Damp=F
 DIIS: error= 5.90D-06 at cycle   2 NSaved=   2.
 NSaved= 2 IEnMin= 2 EnMin= -76.3351797588953     IErMin= 2 ErrMin= 5.90D-06
 ErrMax= 5.90D-06  0.00D+00 EMaxC= 1.00D-01 BMatC= 1.11D-09 BMatP= 1.33D-08
 IDIUse=1 WtCom= 1.00D+00 WtEn= 0.00D+00
 Coeff-Com:  0.880D-01 0.912D+00
 Coeff:      0.880D-01 0.912D+00
 Gap=     0.445 Goal=   None    Shift=    0.000
 RMSDP=2.16D-07 MaxDP=6.99D-06 DE=-5.72D-09 OVMax= 2.10D-05

 Cycle   8  Pass 1  IDiag  1:
 E= -76.3351797593710     Delta-E=       -0.000000000476 Rises=F Damp=F
 DIIS: error= 4.49D-06 at cycle   3 NSaved=   3.
 NSaved= 3 IEnMin= 3 EnMin= -76.3351797593710     IErMin= 3 ErrMin= 4.49D-06
 ErrMax= 4.49D-06  0.00D+00 EMaxC= 1.00D-01 BMatC= 8.41D-10 BMatP= 1.11D-09
 IDIUse=1 WtCom= 1.00D+00 WtEn= 0.00D+00
 Coeff-Com: -0.342D-01 0.467D+00 0.568D+00
 Coeff:     -0.342D-01 0.467D+00 0.568D+00
 Gap=     0.445 Goal=   None    Shift=    0.000
 RMSDP=9.73D-08 MaxDP=3.42D-06 DE=-4.76D-10 OVMax= 8.38D-06

 Cycle   9  Pass 1  IDiag  1:
 E= -76.3351797599291     Delta-E=       -0.000000000558 Rises=F Damp=F
 DIIS: error= 4.83D-07 at cycle   4 NSaved=   4.
 NSaved= 4 IEnMin= 4 EnMin= -76.3351797599291     IErMin= 4 ErrMin= 4.83D-07
 ErrMax= 4.83D-07  0.00D+00 EMaxC= 1.00D-01 BMatC= 6.52D-12 BMatP= 8.41D-10
 IDIUse=1 WtCom= 1.00D+00 WtEn= 0.00D+00
 Coeff-Com: -0.224D-02-0.964D-01-0.574D-01 0.116D+01
 Coeff:     -0.224D-02-0.964D-01-0.574D-01 0.116D+01
 Gap=     0.445 Goal=   None    Shift=    0.000
 RMSDP=2.95D-08 MaxDP=8.60D-07 DE=-5.58D-10 OVMax= 2.30D-06

 Cycle  10  Pass 1  IDiag  1:
 E= -76.3351797599431     Delta-E=       -0.000000000014 Rises=F Damp=F
 DIIS: error= 6.98D-08 at cycle   5 NSaved=   5.
 NSaved= 5 IEnMin= 5 EnMin= -76.3351797599431     IErMin= 5 ErrMin= 6.98D-08
 ErrMax= 6.98D-08  0.00D+00 EMaxC= 1.00D-01 BMatC= 2.50D-13 BMatP= 6.52D-12
 IDIUse=1 WtCom= 1.00D+00 WtEn= 0.00D+00
 Coeff-Com:  0.166D-02-0.411D-01-0.398D-01 0.168D+00 0.911D+00
 Coeff:      0.166D-02-0.411D-01-0.398D-01 0.168D+00 0.911D+00
 Gap=     0.445 Goal=   None    Shift=    0.000
 RMSDP=3.94D-09 MaxDP=1.01D-07 DE=-1.40D-11 OVMax= 3.97D-07

 SCF Done:  E(RB2PLYPD3) =  -76.3351797599     A.U. after   10 cycles
            NFock= 10  Conv=0.39D-08     -V/T= 2.0027
 KE= 7.612875017297D+01 PE=-1.992151084587D+02 EE= 3.756168453995D+01
 Leave Link  502 at Wed Aug 26 09:53:35 2020, MaxMem=  2097152000 cpu:        11.4
 (Enter /opt/cluster/programs/g09/g09_d.01/g09/l801.exe)
 DoSCS=T DFT=T ScalE2(SS,OS)=  0.270000  0.270000
 ExpMin= 8.03D-02 ExpMax= 1.17D+05 ExpMxC= 1.13D+03 IAcc=3 IRadAn=         5 AccDes= 0.00D+00
 HarFok:  IExCor=  205 AccDes= 0.00D+00 IRadAn=         5 IDoV=-2 UseB2=F ITyADJ=14
 ICtDFT= 12500011 ScaDFX=  1.000000  1.000000  1.000000  1.000000
 Largest valence mixing into a core orbital is  6.76D-05
 Largest core mixing into a valence orbital is  9.92D-06
 Range of M.O.s used for correlation:     2   117
 NBasis=   117 NAE=     5 NBE=     5 NFC=     1 NFV=     0
 NROrb=    116 NOA=     4 NOB=     4 NVA=   112 NVB=   112

 **** Warning!!: The largest alpha MO coefficient is  0.15932350D+02

 Leave Link  801 at Wed Aug 26 09:53:35 2020, MaxMem=  2097152000 cpu:         0.4
 (Enter /opt/cluster/programs/g09/g09_d.01/g09/l906.exe)
 DoSCS=T DFT=T ScalE2(SS,OS)=  0.270000  0.270000
 FulOut=F Deriv=F AODrv=F NAtomX=     3
   MMem=       16445  MDisk=           4 MDiskD=           4
  W3Min=       63616 MinDsk=      271641 NBas6D=         142
 NBas2D=       10573    NTT=       10153    LW2=     4508827
    MDV=  2097048983 MDiskM=       32786 NBas2p=       10573
 Fully in-core method, ICMem=   125836233.
 IMap=   1   2   3   4
 JobTyp=1 Pass  1 fully in-core, NPsUse=  8.
 Compute canonical integrals.
 FoFCou: FMM=F IPFlag=           0 FMFlag=           0 FMFlg1=           0
         NFxFlg=           0 DoJE=F BraDBF=F KetDBF=F FulRan=T
         wScrn=  0.000000 ICntrl=     600 IOpCl=  1 I1Cent=           0 NGrid=           0
         NMat0=    1 NMatS0=  10573 NMatT0=    0 NMatD0=    1 NMtDS0=    0 NMtDT0=    0
 Symmetry not used in FoFCou.
 Spin components of T(2) and E(2):
     alpha-alpha T2 =       0.1214352166D-01 E2=     -0.1074017601D-01
     alpha-beta  T2 =       0.7041843554D-01 E2=     -0.6842827353D-01
     beta-beta   T2 =       0.1214352166D-01 E2=     -0.1074017601D-01
 The integrals were generated   1 times.
 E2(B2PLYPD3) =    -0.8990862556D-01 E(B2PLYPD3) =    -0.76425088385498D+02
 Leave Link  906 at Wed Aug 26 09:53:36 2020, MaxMem=  2097152000 cpu:        11.3
 (Enter /opt/cluster/programs/g09/g09_d.01/g09/l601.exe)
 Copying SCF densities to generalized density rwf, IOpCl= 0 IROHF=0.

 **********************************************************************

            Population analysis using the SCF density.

 **********************************************************************

 Orbital symmetries:
       Occupied  (A') (A') (A') (A') (A")
       Virtual   (A') (A') (A') (A") (A') (A') (A') (A') (A") (A")
                 (A') (A') (A') (A') (A') (A') (A") (A') (A") (A')
                 (A") (A') (A') (A") (A') (A') (A") (A') (A") (A')
                 (A') (A") (A') (A') (A") (A") (A') (A') (A') (A')
                 (A') (A") (A") (A') (A") (A') (A') (A") (A') (A')
                 (A") (A') (A') (A") (A') (A') (A") (A') (A") (A')
                 (A") (A') (A') (A') (A") (A") (A') (A") (A') (A')
                 (A') (A') (A") (A") (A") (A') (A') (A") (A') (A')
                 (A') (A") (A') (A") (A') (A') (A') (A") (A') (A")
                 (A') (A') (A") (A') (A") (A") (A') (A") (A') (A')
                 (A") (A') (A') (A') (A') (A") (A") (A') (A') (A')
                 (A') (A')
 The electronic state is 1-A'.
 Alpha  occ. eigenvalues --  -19.73049  -1.15638  -0.61605  -0.47207  -0.39942
 Alpha virt. eigenvalues --    0.04579   0.10196   0.27482   0.30413   0.31158
 Alpha virt. eigenvalues --    0.35722   0.44004   0.50549   0.56060   0.62628
 Alpha virt. eigenvalues --    0.65567   0.81098   0.93740   0.95939   1.04277
 Alpha virt. eigenvalues --    1.08210   1.33195   1.34005   1.35610   1.42729
 Alpha virt. eigenvalues --    1.43567   1.48878   1.83978   1.94322   2.04726
 Alpha virt. eigenvalues --    2.04825   2.14045   2.32020   2.33652   2.35702
 Alpha virt. eigenvalues --    2.37539   2.44149   2.56313   2.60397   2.69964
 Alpha virt. eigenvalues --    2.73383   2.93566   2.99169   3.16201   3.17365
 Alpha virt. eigenvalues --    3.32904   3.79316   3.90300   3.93593   3.94876
 Alpha virt. eigenvalues --    4.14350   4.17644   4.30867   4.31499   4.49878
 Alpha virt. eigenvalues --    4.70444   4.86540   4.91471   5.35510   5.44111
 Alpha virt. eigenvalues --    5.47361   5.82112   5.99403   6.06598   6.13183
 Alpha virt. eigenvalues --    6.48209   6.63662   6.84173   7.18011   7.18661
 Alpha virt. eigenvalues --    7.22262   7.24326   7.32648   7.43378   7.46133
 Alpha virt. eigenvalues --    7.46617   7.54968   7.78068   7.88185   7.92375
 Alpha virt. eigenvalues --    7.93830   7.99305   8.09565   8.16332   8.40972
 Alpha virt. eigenvalues --    8.61305   8.71799   8.89171   8.89806   9.11783
 Alpha virt. eigenvalues --    9.18293   9.96269   9.96311  10.38371  10.48782
 Alpha virt. eigenvalues --   10.88722  10.91530  11.08863  11.22282  11.28992
 Alpha virt. eigenvalues --   11.49152  11.62334  11.93147  11.98706  12.06634
 Alpha virt. eigenvalues --   12.07244  12.36632  13.02986  13.72463  13.73457
 Alpha virt. eigenvalues --   13.85946  14.29720  14.62473  16.81509  16.89674
 Alpha virt. eigenvalues --   48.76585 254.50490
          Condensed to atoms (all electrons):
               1          2          3
     1  O    7.766437   0.339341   0.339463
     2  H    0.339341   0.459141  -0.021322
     3  H    0.339463  -0.021322   0.459458
 Mulliken charges:
               1
     1  O   -0.445241
     2  H    0.222840
     3  H    0.222401
 Sum of Mulliken charges =   0.00000
 Mulliken charges with hydrogens summed into heavy atoms:
               1
     1  O    0.000000
 Electronic spatial extent (au):  <R**2>=             19.6334
 Charge=              0.0000 electrons
 Dipole moment (field-independent basis, Debye):
    X=             -0.0005    Y=             -1.9375    Z=              0.0000  Tot=              1.9375
 Quadrupole moment (field-independent basis, Debye-Ang):
   XX=             -4.2781   YY=             -6.3679   ZZ=             -7.5932
   XY=             -0.0027   XZ=              0.0000   YZ=              0.0000
 Traceless Quadrupole moment (field-independent basis, Debye-Ang):
   XX=              1.8016   YY=             -0.2882   ZZ=             -1.5135
   XY=             -0.0027   XZ=              0.0000   YZ=              0.0000
 Octapole moment (field-independent basis, Debye-Ang**2):
  XXX=             -0.0015  YYY=             -1.1488  ZZZ=              0.0000  XYY=              0.0018
  XXY=             -1.3610  XXZ=              0.0000  XZZ=             -0.0006  YZZ=             -0.2817
  YYZ=              0.0000  XYZ=              0.0000
 Hexadecapole moment (field-independent basis, Debye-Ang**3):
 XXXX=             -6.1417 YYYY=             -7.3652 ZZZZ=             -6.7564 XXXY=              0.0001
 XXXZ=              0.0000 YYYX=              0.0000 YYYZ=              0.0000 ZZZX=              0.0000
 ZZZY=              0.0000 XXYY=             -1.9345 XXZZ=             -2.4896 YYZZ=             -2.4044
 XXYZ=              0.0000 YYXZ=              0.0000 ZZXY=              0.0007
 N-N= 9.189493985847D+00 E-N=-1.992151080415D+02  KE= 7.612875017297D+01
 Symmetry A'   KE= 7.161316260729D+01
 Symmetry A"   KE= 4.515587565685D+00
 Leave Link  601 at Wed Aug 26 09:53:37 2020, MaxMem=  2097152000 cpu:         0.2
 (Enter /opt/cluster/programs/g09/g09_d.01/g09/l9999.exe)
 1\1\GINC-NODE30\SP\RB2PLYPD3-FC\def2QZVP\H2O1\BOITTIER\26-Aug-2020\0\\
 #p B2PLYPD3/Def2QZVP\\h2o\\0,1\O,0,-5.326605,-0.763098,0.919878\H,0,-4
 .368927,-0.745259,0.916746\H,0,-5.609308,0.138864,0.771008\\Version=ES
 64L-G09RevD.01\State=1-A'\HF=-76.3351798\MP2=-76.4250884\RMSD=3.944e-0
 9\PG=CS [SG(H2O1)]\\@


 Happiness is a conscious choice, not an automatic response.
 -- Mildred Barthel
 Job cpu time:       0 days  0 hours  0 minutes 27.9 seconds.
 File lengths (MBytes):  RWF=      8 Int=      0 D2E=      0 Chk=      2 Scr=      1
 Normal termination of Gaussian 09 at Wed Aug 26 09:53:37 2020.
