 Entering Gaussian System, Link 0=/opt/cluster/programs/g09/g09_d.01/g09//g09
 Input=/home/boittier/MDCM/nms_sampling/h2o_geom.xyz.dir/energies/h2o_137_energy.com
 Output=/scratch/boittier/h2o_137_energy/h2o_137_energy.out
 Initial command:
 /opt/cluster/programs/g09/g09_d.01/g09/l1.exe "/scratch/boittier/h2o_137_energy/Gau-92622.inp" -scrdir="/scratch/boittier/h2o_137_energy/"
 Entering Link 1 = /opt/cluster/programs/g09/g09_d.01/g09/l1.exe PID=     92623.
  
 Copyright (c) 1988,1990,1992,1993,1995,1998,2003,2009,2013,
            Gaussian, Inc.  All Rights Reserved.
  
 This is part of the Gaussian(R) 09 program.  It is based on
 the Gaussian(R) 03 system (copyright 2003, Gaussian, Inc.),
 the Gaussian(R) 98 system (copyright 1998, Gaussian, Inc.),
 the Gaussian(R) 94 system (copyright 1995, Gaussian, Inc.),
 the Gaussian 92(TM) system (copyright 1992, Gaussian, Inc.),
 the Gaussian 90(TM) system (copyright 1990, Gaussian, Inc.),
 the Gaussian 88(TM) system (copyright 1988, Gaussian, Inc.),
 the Gaussian 86(TM) system (copyright 1986, Carnegie Mellon
 University), and the Gaussian 82(TM) system (copyright 1983,
 Carnegie Mellon University). Gaussian is a federally registered
 trademark of Gaussian, Inc.
  
 This software contains proprietary and confidential information,
 including trade secrets, belonging to Gaussian, Inc.
  
 This software is provided under written license and may be
 used, copied, transmitted, or stored only in accord with that
 written license.
  
 The following legend is applicable only to US Government
 contracts under FAR:
  
                    RESTRICTED RIGHTS LEGEND
  
 Use, reproduction and disclosure by the US Government is
 subject to restrictions as set forth in subparagraphs (a)
 and (c) of the Commercial Computer Software - Restricted
 Rights clause in FAR 52.227-19.
  
 Gaussian, Inc.
 340 Quinnipiac St., Bldg. 40, Wallingford CT 06492
  
  
 ---------------------------------------------------------------
 Warning -- This program may not be used in any manner that
 competes with the business of Gaussian, Inc. or will provide
 assistance to any competitor of Gaussian, Inc.  The licensee
 of this program is prohibited from giving any competitor of
 Gaussian, Inc. access to this program.  By using this program,
 the user acknowledges that Gaussian, Inc. is engaged in the
 business of creating and licensing software in the field of
 computational chemistry and represents and warrants to the
 licensee that it is not a competitor of Gaussian, Inc. and that
 it will not use this program in any manner prohibited above.
 ---------------------------------------------------------------
  

 Cite this work as:
 Gaussian 09, Revision D.01,
 M. J. Frisch, G. W. Trucks, H. B. Schlegel, G. E. Scuseria, 
 M. A. Robb, J. R. Cheeseman, G. Scalmani, V. Barone, B. Mennucci, 
 G. A. Petersson, H. Nakatsuji, M. Caricato, X. Li, H. P. Hratchian, 
 A. F. Izmaylov, J. Bloino, G. Zheng, J. L. Sonnenberg, M. Hada, 
 M. Ehara, K. Toyota, R. Fukuda, J. Hasegawa, M. Ishida, T. Nakajima, 
 Y. Honda, O. Kitao, H. Nakai, T. Vreven, J. A. Montgomery, Jr., 
 J. E. Peralta, F. Ogliaro, M. Bearpark, J. J. Heyd, E. Brothers, 
 K. N. Kudin, V. N. Staroverov, T. Keith, R. Kobayashi, J. Normand, 
 K. Raghavachari, A. Rendell, J. C. Burant, S. S. Iyengar, J. Tomasi, 
 M. Cossi, N. Rega, J. M. Millam, M. Klene, J. E. Knox, J. B. Cross, 
 V. Bakken, C. Adamo, J. Jaramillo, R. Gomperts, R. E. Stratmann, 
 O. Yazyev, A. J. Austin, R. Cammi, C. Pomelli, J. W. Ochterski, 
 R. L. Martin, K. Morokuma, V. G. Zakrzewski, G. A. Voth, 
 P. Salvador, J. J. Dannenberg, S. Dapprich, A. D. Daniels, 
 O. Farkas, J. B. Foresman, J. V. Ortiz, J. Cioslowski, 
 and D. J. Fox, Gaussian, Inc., Wallingford CT, 2013.
 
 ******************************************
 Gaussian 09:  ES64L-G09RevD.01 24-Apr-2013
                26-Aug-2020 
 ******************************************
 %chk=/home/boittier/MDCM/nms_sampling/h2o_geom.xyz.dir/h2o_137.chk
 %nproc=8
 Will use up to    8 processors via shared memory.
 %mem=16000MB
 --------------------
 #p B2PLYPD3/Def2QZVP
 --------------------
 1/38=1/1;
 2/12=2,17=6,18=5,40=1/2;
 3/5=45,7=101,11=9,16=1,25=1,30=1,74=-60/1,2,3;
 4//1;
 5/5=2,38=5/2;
 8/10=1/1;
 9/16=-3/6;
 6/7=2,8=2,9=2,10=2/1;
 99/5=1,9=1/99;
 Leave Link    1 at Wed Aug 26 08:47:03 2020, MaxMem=  2097152000 cpu:         0.2
 (Enter /opt/cluster/programs/g09/g09_d.01/g09/l101.exe)
 ---
 h2o
 ---
 Symbolic Z-matrix:
 Charge =  0 Multiplicity = 1
 O                    -5.3266   -0.76354   0.92222 
 H                    -4.36893  -0.71058   0.90048 
 H                    -5.60931   0.1112    0.74935 
 
 NAtoms=      3 NQM=        3 NQMF=       0 NMMI=      0 NMMIF=      0
                NMic=       0 NMicF=      0.
                    Isotopes and Nuclear Properties:
 (Nuclear quadrupole moments (NQMom) in fm**2, nuclear magnetic moments (NMagM)
  in nuclear magnetons)

  Atom         1           2           3
 IAtWgt=          16           1           1
 AtmWgt=  15.9949146   1.0078250   1.0078250
 NucSpn=           0           1           1
 AtZEff=   0.0000000   0.0000000   0.0000000
 NQMom=    0.0000000   0.0000000   0.0000000
 NMagM=    0.0000000   2.7928460   2.7928460
 AtZNuc=   8.0000000   1.0000000   1.0000000
 Leave Link  101 at Wed Aug 26 08:47:03 2020, MaxMem=  2097152000 cpu:         0.5
 (Enter /opt/cluster/programs/g09/g09_d.01/g09/l202.exe)
                          Input orientation:                          
 ---------------------------------------------------------------------
 Center     Atomic      Atomic             Coordinates (Angstroms)
 Number     Number       Type             X           Y           Z
 ---------------------------------------------------------------------
      1          8           0       -5.326605   -0.763536    0.922224
      2          1           0       -4.368927   -0.710579    0.900476
      3          1           0       -5.609308    0.111195    0.749353
 ---------------------------------------------------------------------
                    Distance matrix (angstroms):
                    1          2          3
     1  O    0.000000
     2  H    0.959388   0.000000
     3  H    0.935393   1.495559   0.000000
 Stoichiometry    H2O
 Framework group  CS[SG(H2O)]
 Deg. of freedom     3
 Full point group                 CS      NOp   2
 Largest Abelian subgroup         CS      NOp   2
 Largest concise Abelian subgroup C1      NOp   1
                         Standard orientation:                         
 ---------------------------------------------------------------------
 Center     Atomic      Atomic             Coordinates (Angstroms)
 Number     Number       Type             X           Y           Z
 ---------------------------------------------------------------------
      1          8           0        0.000000    0.116365    0.000000
      2          1           0        0.747524   -0.484994    0.000000
      3          1           0       -0.747524   -0.445923    0.000000
 ---------------------------------------------------------------------
 Rotational constants (GHZ):    835.2295913    448.0342446    291.6091364
 Leave Link  202 at Wed Aug 26 08:47:04 2020, MaxMem=  2097152000 cpu:         0.0
 (Enter /opt/cluster/programs/g09/g09_d.01/g09/l301.exe)
 Standard basis: def2QZVP (5D, 7F)
 Ernie: Thresh=  0.10000D-02 Tol=  0.10000D-05 Strict=F.
 There are    96 symmetry adapted cartesian basis functions of A'  symmetry.
 There are    46 symmetry adapted cartesian basis functions of A"  symmetry.
 There are    77 symmetry adapted basis functions of A'  symmetry.
 There are    40 symmetry adapted basis functions of A"  symmetry.
   117 basis functions,   168 primitive gaussians,   142 cartesian basis functions
     5 alpha electrons        5 beta electrons
       nuclear repulsion energy         9.2922755176 Hartrees.
 IExCor=  419 DFT=T Ex+Corr=B2PLYPD3 ExCW=0 ScaHFX=  0.530000
 ScaDFX=  0.470000  0.470000  0.730000  0.730000 ScalE2=  0.270000  0.270000
 IRadAn=      0 IRanWt=     -1 IRanGd=            0 ICorTp=0 IEmpDi=141
 NAtoms=    3 NActive=    3 NUniq=    3 SFac= 1.00D+00 NAtFMM=   60 NAOKFM=F Big=F
 Integral buffers will be    131072 words long.
 Regular integral format.
 Two-electron integral symmetry is turned on.
 R6Disp:  Grimme-D3(BJ) Dispersion energy=       -0.0002342959 Hartrees.
 Nuclear repulsion after empirical dispersion term =        9.2920412218 Hartrees.
 Leave Link  301 at Wed Aug 26 08:47:04 2020, MaxMem=  2097152000 cpu:         0.4
 (Enter /opt/cluster/programs/g09/g09_d.01/g09/l302.exe)
 NPDir=0 NMtPBC=     1 NCelOv=     1 NCel=       1 NClECP=     1 NCelD=      1
         NCelK=      1 NCelE2=     1 NClLst=     1 CellRange=     0.0.
 One-electron integrals computed using PRISM.
   1 Symmetry operations used in ECPInt.
 ECPInt:  NShTT=     703 NPrTT=    1591 LenC2=     704 LenP2D=    1544.
 LDataN:  DoStor=T MaxTD1= 8 Len=  415
 NBasis=   117 RedAO= T EigKep=  4.02D-04  NBF=    77    40
 NBsUse=   117 1.00D-06 EigRej= -1.00D+00 NBFU=    77    40
 Precomputing XC quadrature grid using
 IXCGrd= 4 IRadAn=           0 IRanWt=          -1 IRanGd=           0 AccXCQ= 0.00D+00.
 Generated NRdTot=       0 NPtTot=           0 NUsed=           0 NTot=          32
 NSgBfM=   142   142   142   142   142 MxSgAt=     3 MxSgA2=     3.
 Leave Link  302 at Wed Aug 26 08:47:04 2020, MaxMem=  2097152000 cpu:         1.7
 (Enter /opt/cluster/programs/g09/g09_d.01/g09/l303.exe)
 DipDrv:  MaxL=1.
 Leave Link  303 at Wed Aug 26 08:47:04 2020, MaxMem=  2097152000 cpu:         0.2
 (Enter /opt/cluster/programs/g09/g09_d.01/g09/l401.exe)
 ExpMin= 8.03D-02 ExpMax= 1.17D+05 ExpMxC= 1.13D+03 IAcc=2 IRadAn=         4 AccDes= 0.00D+00
 Harris functional with IExCor=  419 and IRadAn=       4 diagonalized for initial guess.
 HarFok:  IExCor=  419 AccDes= 0.00D+00 IRadAn=         4 IDoV= 1 UseB2=F ITyADJ=14
 ICtDFT=  3500011 ScaDFX=  1.000000  1.000000  1.000000  1.000000
 FoFCou: FMM=F IPFlag=           0 FMFlag=      100000 FMFlg1=           0
         NFxFlg=           0 DoJE=T BraDBF=F KetDBF=T FulRan=T
         wScrn=  0.000000 ICntrl=     500 IOpCl=  0 I1Cent=   200000004 NGrid=           0
         NMat0=    1 NMatS0=      1 NMatT0=    0 NMatD0=    1 NMtDS0=    0 NMtDT0=    0
 Petite list used in FoFCou.
 Harris En= -76.5082469472833    
 JPrj=0 DoOrth=F DoCkMO=F.
 Initial guess orbital symmetries:
       Occupied  (A') (A') (A') (A') (A")
       Virtual   (A') (A') (A') (A") (A') (A') (A') (A') (A") (A")
                 (A') (A') (A') (A') (A') (A') (A') (A") (A") (A")
                 (A') (A') (A') (A") (A') (A') (A") (A') (A") (A')
                 (A') (A") (A') (A') (A") (A") (A') (A') (A') (A')
                 (A') (A") (A") (A") (A') (A') (A') (A") (A') (A')
                 (A") (A') (A') (A") (A') (A') (A") (A') (A") (A')
                 (A") (A') (A') (A') (A") (A") (A') (A") (A') (A')
                 (A') (A') (A") (A") (A") (A') (A') (A") (A') (A')
                 (A') (A") (A') (A") (A') (A') (A') (A") (A') (A")
                 (A') (A') (A") (A") (A') (A") (A') (A") (A') (A')
                 (A") (A') (A') (A') (A') (A") (A") (A') (A') (A')
                 (A') (A')
 The electronic state of the initial guess is 1-A'.
 Leave Link  401 at Wed Aug 26 08:47:04 2020, MaxMem=  2097152000 cpu:         1.9
 (Enter /opt/cluster/programs/g09/g09_d.01/g09/l502.exe)
 Closed shell SCF:
 Using DIIS extrapolation, IDIIS=  1040.
 Integral symmetry usage will be decided dynamically.
 Keep R1 ints in memory in symmetry-blocked form, NReq=35980147.
 IVT=       81231 IEndB=       81231 NGot=  2097152000 MDV=  2085001127
 LenX=  2085001127 LenY=  2084980522
 Requested convergence on RMS density matrix=1.00D-08 within 128 cycles.
 Requested convergence on MAX density matrix=1.00D-06.
 Requested convergence on             energy=1.00D-06.
 No special actions if energy rises.
 FoFCou: FMM=F IPFlag=           0 FMFlag=           0 FMFlg1=           0
         NFxFlg=           0 DoJE=F BraDBF=F KetDBF=F FulRan=T
         wScrn=  0.000000 ICntrl=     600 IOpCl=  0 I1Cent=           0 NGrid=           0
         NMat0=    1 NMatS0=   6903 NMatT0=    0 NMatD0=    1 NMtDS0=    0 NMtDT0=    0
 Petite list used in FoFCou.
 Integral accuracy reduced to 1.0D-05 until final iterations.

 Cycle   1  Pass 0  IDiag  1:
 E= -76.2458815495933    
 DIIS: error= 4.47D-02 at cycle   1 NSaved=   1.
 NSaved= 1 IEnMin= 1 EnMin= -76.2458815495933     IErMin= 1 ErrMin= 4.47D-02
 ErrMax= 4.47D-02  0.00D+00 EMaxC= 1.00D-01 BMatC= 1.72D-01 BMatP= 1.72D-01
 IDIUse=3 WtCom= 5.53D-01 WtEn= 4.47D-01
 Coeff-Com:  0.100D+01
 Coeff-En:   0.100D+01
 Coeff:      0.100D+01
 Gap=     0.296 Goal=   None    Shift=    0.000
 GapD=    0.296 DampG=1.000 DampE=0.500 DampFc=0.5000 IDamp=-1.
 Damping current iteration by 5.00D-01
 RMSDP=2.38D-03 MaxDP=7.58D-02              OVMax= 1.72D-01

 Cycle   2  Pass 0  IDiag  1:
 E= -76.2855384368103     Delta-E=       -0.039656887217 Rises=F Damp=T
 DIIS: error= 1.65D-02 at cycle   2 NSaved=   2.
 NSaved= 2 IEnMin= 2 EnMin= -76.2855384368103     IErMin= 2 ErrMin= 1.65D-02
 ErrMax= 1.65D-02  0.00D+00 EMaxC= 1.00D-01 BMatC= 1.04D-02 BMatP= 1.72D-01
 IDIUse=3 WtCom= 8.35D-01 WtEn= 1.65D-01
 Coeff-Com:  0.895D-02 0.991D+00
 Coeff-En:   0.126D+00 0.874D+00
 Coeff:      0.282D-01 0.972D+00
 Gap=     0.447 Goal=   None    Shift=    0.000
 RMSDP=3.46D-04 MaxDP=1.16D-02 DE=-3.97D-02 OVMax= 1.02D-01

 Cycle   3  Pass 0  IDiag  1:
 E= -76.3345578677765     Delta-E=       -0.049019430966 Rises=F Damp=F
 DIIS: error= 2.81D-03 at cycle   3 NSaved=   3.
 NSaved= 3 IEnMin= 3 EnMin= -76.3345578677765     IErMin= 3 ErrMin= 2.81D-03
 ErrMax= 2.81D-03  0.00D+00 EMaxC= 1.00D-01 BMatC= 5.23D-04 BMatP= 1.04D-02
 IDIUse=3 WtCom= 9.72D-01 WtEn= 2.81D-02
 Coeff-Com: -0.543D-01 0.696D-01 0.985D+00
 Coeff-En:   0.000D+00 0.000D+00 0.100D+01
 Coeff:     -0.528D-01 0.676D-01 0.985D+00
 Gap=     0.446 Goal=   None    Shift=    0.000
 RMSDP=8.27D-05 MaxDP=2.80D-03 DE=-4.90D-02 OVMax= 6.18D-03

 Cycle   4  Pass 0  IDiag  1:
 E= -76.3349202594167     Delta-E=       -0.000362391640 Rises=F Damp=F
 DIIS: error= 2.48D-04 at cycle   4 NSaved=   4.
 NSaved= 4 IEnMin= 4 EnMin= -76.3349202594167     IErMin= 4 ErrMin= 2.48D-04
 ErrMax= 2.48D-04  0.00D+00 EMaxC= 1.00D-01 BMatC= 3.37D-06 BMatP= 5.23D-04
 IDIUse=3 WtCom= 9.98D-01 WtEn= 2.48D-03
 Coeff-Com:  0.323D-02-0.831D-02 0.432D-02 0.100D+01
 Coeff-En:   0.000D+00 0.000D+00 0.000D+00 0.100D+01
 Coeff:      0.322D-02-0.829D-02 0.431D-02 0.100D+01
 Gap=     0.447 Goal=   None    Shift=    0.000
 RMSDP=1.18D-05 MaxDP=4.17D-04 DE=-3.62D-04 OVMax= 6.99D-04

 Cycle   5  Pass 0  IDiag  1:
 E= -76.3349227817017     Delta-E=       -0.000002522285 Rises=F Damp=F
 DIIS: error= 4.41D-05 at cycle   5 NSaved=   5.
 NSaved= 5 IEnMin= 5 EnMin= -76.3349227817017     IErMin= 5 ErrMin= 4.41D-05
 ErrMax= 4.41D-05  0.00D+00 EMaxC= 1.00D-01 BMatC= 5.17D-08 BMatP= 3.37D-06
 IDIUse=1 WtCom= 1.00D+00 WtEn= 0.00D+00
 Coeff-Com:  0.193D-02-0.284D-02-0.289D-01 0.472D-01 0.983D+00
 Coeff:      0.193D-02-0.284D-02-0.289D-01 0.472D-01 0.983D+00
 Gap=     0.447 Goal=   None    Shift=    0.000
 RMSDP=2.12D-06 MaxDP=6.44D-05 DE=-2.52D-06 OVMax= 1.45D-04

 Initial convergence to 1.0D-05 achieved.  Increase integral accuracy.
 Cycle   6  Pass 1  IDiag  1:
 E= -76.3349188206508     Delta-E=        0.000003961051 Rises=F Damp=F
 DIIS: error= 1.26D-05 at cycle   1 NSaved=   1.
 NSaved= 1 IEnMin= 1 EnMin= -76.3349188206508     IErMin= 1 ErrMin= 1.26D-05
 ErrMax= 1.26D-05  0.00D+00 EMaxC= 1.00D-01 BMatC= 1.26D-08 BMatP= 1.26D-08
 IDIUse=1 WtCom= 1.00D+00 WtEn= 0.00D+00
 Coeff-Com:  0.100D+01
 Coeff:      0.100D+01
 Gap=     0.447 Goal=   None    Shift=    0.000
 RMSDP=2.12D-06 MaxDP=6.44D-05 DE= 3.96D-06 OVMax= 3.85D-05

 Cycle   7  Pass 1  IDiag  1:
 E= -76.3349188260315     Delta-E=       -0.000000005381 Rises=F Damp=F
 DIIS: error= 5.63D-06 at cycle   2 NSaved=   2.
 NSaved= 2 IEnMin= 2 EnMin= -76.3349188260315     IErMin= 2 ErrMin= 5.63D-06
 ErrMax= 5.63D-06  0.00D+00 EMaxC= 1.00D-01 BMatC= 9.69D-10 BMatP= 1.26D-08
 IDIUse=1 WtCom= 1.00D+00 WtEn= 0.00D+00
 Coeff-Com:  0.802D-01 0.920D+00
 Coeff:      0.802D-01 0.920D+00
 Gap=     0.447 Goal=   None    Shift=    0.000
 RMSDP=2.02D-07 MaxDP=6.48D-06 DE=-5.38D-09 OVMax= 1.98D-05

 Cycle   8  Pass 1  IDiag  1:
 E= -76.3349188264568     Delta-E=       -0.000000000425 Rises=F Damp=F
 DIIS: error= 3.10D-06 at cycle   3 NSaved=   3.
 NSaved= 3 IEnMin= 3 EnMin= -76.3349188264568     IErMin= 3 ErrMin= 3.10D-06
 ErrMax= 3.10D-06  0.00D+00 EMaxC= 1.00D-01 BMatC= 7.29D-10 BMatP= 9.69D-10
 IDIUse=1 WtCom= 1.00D+00 WtEn= 0.00D+00
 Coeff-Com: -0.327D-01 0.466D+00 0.567D+00
 Coeff:     -0.327D-01 0.466D+00 0.567D+00
 Gap=     0.447 Goal=   None    Shift=    0.000
 RMSDP=9.16D-08 MaxDP=3.30D-06 DE=-4.25D-10 OVMax= 7.72D-06

 Cycle   9  Pass 1  IDiag  1:
 E= -76.3349188269389     Delta-E=       -0.000000000482 Rises=F Damp=F
 DIIS: error= 4.90D-07 at cycle   4 NSaved=   4.
 NSaved= 4 IEnMin= 4 EnMin= -76.3349188269389     IErMin= 4 ErrMin= 4.90D-07
 ErrMax= 4.90D-07  0.00D+00 EMaxC= 1.00D-01 BMatC= 6.39D-12 BMatP= 7.29D-10
 IDIUse=1 WtCom= 1.00D+00 WtEn= 0.00D+00
 Coeff-Com: -0.399D-02-0.741D-01-0.269D-01 0.111D+01
 Coeff:     -0.399D-02-0.741D-01-0.269D-01 0.111D+01
 Gap=     0.447 Goal=   None    Shift=    0.000
 RMSDP=2.68D-08 MaxDP=7.90D-07 DE=-4.82D-10 OVMax= 2.14D-06

 Cycle  10  Pass 1  IDiag  1:
 E= -76.3349188269512     Delta-E=       -0.000000000012 Rises=F Damp=F
 DIIS: error= 7.33D-08 at cycle   5 NSaved=   5.
 NSaved= 5 IEnMin= 5 EnMin= -76.3349188269512     IErMin= 5 ErrMin= 7.33D-08
 ErrMax= 7.33D-08  0.00D+00 EMaxC= 1.00D-01 BMatC= 2.85D-13 BMatP= 6.39D-12
 IDIUse=1 WtCom= 1.00D+00 WtEn= 0.00D+00
 Coeff-Com:  0.172D-02-0.418D-01-0.413D-01 0.142D+00 0.940D+00
 Coeff:      0.172D-02-0.418D-01-0.413D-01 0.142D+00 0.940D+00
 Gap=     0.447 Goal=   None    Shift=    0.000
 RMSDP=4.56D-09 MaxDP=1.18D-07 DE=-1.23D-11 OVMax= 4.40D-07

 SCF Done:  E(RB2PLYPD3) =  -76.3349188270     A.U. after   10 cycles
            NFock= 10  Conv=0.46D-08     -V/T= 2.0021
 KE= 7.617156478851D+01 PE=-1.994336155259D+02 EE= 3.763509068862D+01
 Leave Link  502 at Wed Aug 26 08:47:06 2020, MaxMem=  2097152000 cpu:        13.6
 (Enter /opt/cluster/programs/g09/g09_d.01/g09/l801.exe)
 DoSCS=T DFT=T ScalE2(SS,OS)=  0.270000  0.270000
 ExpMin= 8.03D-02 ExpMax= 1.17D+05 ExpMxC= 1.13D+03 IAcc=3 IRadAn=         5 AccDes= 0.00D+00
 HarFok:  IExCor=  205 AccDes= 0.00D+00 IRadAn=         5 IDoV=-2 UseB2=F ITyADJ=14
 ICtDFT= 12500011 ScaDFX=  1.000000  1.000000  1.000000  1.000000
 DSYEVD-2 returned Info=        1739 IAlg= 4 N=    57 NDim=    57 NE2=    36791122 trying  DSYEV.
 Largest valence mixing into a core orbital is  6.73D-05
 Largest core mixing into a valence orbital is  9.72D-06
 Range of M.O.s used for correlation:     2   117
 NBasis=   117 NAE=     5 NBE=     5 NFC=     1 NFV=     0
 NROrb=    116 NOA=     4 NOB=     4 NVA=   112 NVB=   112

 **** Warning!!: The largest alpha MO coefficient is  0.16088887D+02

 Leave Link  801 at Wed Aug 26 08:47:06 2020, MaxMem=  2097152000 cpu:         0.4
 (Enter /opt/cluster/programs/g09/g09_d.01/g09/l906.exe)
 DoSCS=T DFT=T ScalE2(SS,OS)=  0.270000  0.270000
 FulOut=F Deriv=F AODrv=F NAtomX=     3
   MMem=       16445  MDisk=           4 MDiskD=           4
  W3Min=       63616 MinDsk=      271641 NBas6D=         142
 NBas2D=       10573    NTT=       10153    LW2=     4508827
    MDV=  2097048983 MDiskM=       32786 NBas2p=       10573
 Fully in-core method, ICMem=   125836233.
 IMap=   1   2   3   4
 JobTyp=1 Pass  1 fully in-core, NPsUse=  8.
 Compute canonical integrals.
 FoFCou: FMM=F IPFlag=           0 FMFlag=           0 FMFlg1=           0
         NFxFlg=           0 DoJE=F BraDBF=F KetDBF=F FulRan=T
         wScrn=  0.000000 ICntrl=     600 IOpCl=  1 I1Cent=           0 NGrid=           0
         NMat0=    1 NMatS0=  10573 NMatT0=    0 NMatD0=    1 NMtDS0=    0 NMtDT0=    0
 Symmetry not used in FoFCou.
 Spin components of T(2) and E(2):
     alpha-alpha T2 =       0.1201357670D-01 E2=     -0.1070951255D-01
     alpha-beta  T2 =       0.6954670709D-01 E2=     -0.6821853486D-01
     beta-beta   T2 =       0.1201357670D-01 E2=     -0.1070951255D-01
 The integrals were generated   1 times.
 E2(B2PLYPD3) =    -0.8963755997D-01 E(B2PLYPD3) =    -0.76424556386923D+02
 Leave Link  906 at Wed Aug 26 08:47:08 2020, MaxMem=  2097152000 cpu:        12.7
 (Enter /opt/cluster/programs/g09/g09_d.01/g09/l601.exe)
 Copying SCF densities to generalized density rwf, IOpCl= 0 IROHF=0.

 **********************************************************************

            Population analysis using the SCF density.

 **********************************************************************

 Orbital symmetries:
       Occupied  (A') (A') (A') (A') (A")
       Virtual   (A') (A') (A') (A") (A') (A') (A') (A') (A") (A")
                 (A') (A') (A') (A') (A') (A') (A") (A') (A") (A')
                 (A") (A') (A') (A") (A') (A') (A") (A') (A") (A')
                 (A') (A") (A') (A') (A") (A") (A') (A') (A') (A')
                 (A') (A") (A") (A') (A") (A') (A') (A") (A') (A')
                 (A") (A') (A') (A") (A') (A') (A") (A') (A") (A')
                 (A") (A') (A') (A") (A') (A") (A') (A") (A') (A')
                 (A') (A') (A") (A") (A") (A') (A') (A") (A') (A')
                 (A') (A") (A') (A") (A') (A') (A') (A") (A') (A")
                 (A') (A') (A") (A') (A") (A") (A') (A") (A') (A')
                 (A") (A') (A') (A') (A') (A") (A") (A') (A') (A')
                 (A') (A')
 The electronic state is 1-A'.
 Alpha  occ. eigenvalues --  -19.72962  -1.16267  -0.61721  -0.47693  -0.40075
 Alpha virt. eigenvalues --    0.04645   0.10322   0.27443   0.30382   0.31141
 Alpha virt. eigenvalues --    0.36487   0.44320   0.50284   0.56457   0.62155
 Alpha virt. eigenvalues --    0.65350   0.81453   0.94157   0.95699   1.04517
 Alpha virt. eigenvalues --    1.09582   1.33956   1.34024   1.35409   1.41870
 Alpha virt. eigenvalues --    1.43306   1.49069   1.83756   1.92982   2.03580
 Alpha virt. eigenvalues --    2.05508   2.14959   2.31500   2.33526   2.37162
 Alpha virt. eigenvalues --    2.38102   2.45936   2.56479   2.61043   2.69644
 Alpha virt. eigenvalues --    2.73531   2.90977   2.99122   3.18593   3.20263
 Alpha virt. eigenvalues --    3.34678   3.80460   3.89870   3.93968   3.95149
 Alpha virt. eigenvalues --    4.13183   4.19411   4.31201   4.31281   4.50269
 Alpha virt. eigenvalues --    4.73442   4.86839   4.93931   5.38699   5.44051
 Alpha virt. eigenvalues --    5.50682   5.78566   6.01730   6.07380   6.17418
 Alpha virt. eigenvalues --    6.56264   6.61416   6.88702   7.16825   7.18582
 Alpha virt. eigenvalues --    7.22263   7.24494   7.33191   7.42145   7.46697
 Alpha virt. eigenvalues --    7.49583   7.58399   7.76321   7.87157   7.92415
 Alpha virt. eigenvalues --    7.98092   8.00370   8.11019   8.15790   8.43022
 Alpha virt. eigenvalues --    8.63186   8.74143   8.90830   8.97071   9.23092
 Alpha virt. eigenvalues --    9.24508  10.00107  10.05602  10.42373  10.47124
 Alpha virt. eigenvalues --   10.86999  10.94958  11.12559  11.27645  11.28936
 Alpha virt. eigenvalues --   11.49552  11.65987  11.95245  12.00798  12.07551
 Alpha virt. eigenvalues --   12.12984  12.42428  13.15829  13.70389  13.87729
 Alpha virt. eigenvalues --   13.93694  14.39105  14.66500  16.81892  17.03212
 Alpha virt. eigenvalues --   48.82027 254.56727
          Condensed to atoms (all electrons):
               1          2          3
     1  O    7.752439   0.338653   0.341502
     2  H    0.338653   0.460912  -0.021581
     3  H    0.341502  -0.021581   0.469503
 Mulliken charges:
               1
     1  O   -0.432593
     2  H    0.222017
     3  H    0.210576
 Sum of Mulliken charges =   0.00000
 Mulliken charges with hydrogens summed into heavy atoms:
               1
     1  O    0.000000
 Electronic spatial extent (au):  <R**2>=             19.4979
 Charge=              0.0000 electrons
 Dipole moment (field-independent basis, Debye):
    X=             -0.0123    Y=             -1.9597    Z=              0.0000  Tot=              1.9598
 Quadrupole moment (field-independent basis, Debye-Ang):
   XX=             -4.3802   YY=             -6.3054   ZZ=             -7.5666
   XY=             -0.0633   XZ=              0.0000   YZ=              0.0000
 Traceless Quadrupole moment (field-independent basis, Debye-Ang):
   XX=              1.7039   YY=             -0.2213   ZZ=             -1.4825
   XY=             -0.0633   XZ=              0.0000   YZ=              0.0000
 Octapole moment (field-independent basis, Debye-Ang**2):
  XXX=             -0.0376  YYY=             -1.1940  ZZZ=              0.0000  XYY=              0.0417
  XXY=             -1.3270  XXZ=              0.0000  XZZ=             -0.0137  YZZ=             -0.2912
  YYZ=              0.0000  XYZ=              0.0000
 Hexadecapole moment (field-independent basis, Debye-Ang**3):
 XXXX=             -6.1307 YYYY=             -7.2993 ZZZZ=             -6.7135 XXXY=              0.0066
 XXXZ=              0.0000 YYYX=              0.0004 YYYZ=              0.0000 ZZZX=              0.0000
 ZZZY=              0.0000 XXYY=             -1.9085 XXZZ=             -2.4513 YYZZ=             -2.3893
 XXYZ=              0.0000 YYXZ=              0.0000 ZZXY=              0.0169
 N-N= 9.292041221778D+00 E-N=-1.994336149964D+02  KE= 7.617156478851D+01
 Symmetry A'   KE= 7.165514515161D+01
 Symmetry A"   KE= 4.516419636902D+00
 Leave Link  601 at Wed Aug 26 08:47:08 2020, MaxMem=  2097152000 cpu:         0.3
 (Enter /opt/cluster/programs/g09/g09_d.01/g09/l9999.exe)
 1\1\GINC-NODE15\SP\RB2PLYPD3-FC\def2QZVP\H2O1\BOITTIER\26-Aug-2020\0\\
 #p B2PLYPD3/Def2QZVP\\h2o\\0,1\O,0,-5.326605,-0.763536,0.922224\H,0,-4
 .368927,-0.710579,0.900476\H,0,-5.609308,0.111195,0.749353\\Version=ES
 64L-G09RevD.01\State=1-A'\HF=-76.3349188\MP2=-76.4245564\RMSD=4.559e-0
 9\PG=CS [SG(H2O1)]\\@


 MATERIAL COPIED FROM ONE SCHOLARLY BOOK WITHOUT CREDIT COMPRISES PLAGIARISM.
 MATERIAL COPIED FROM TWO SCHOLARLY BOOKS COMPRISES AN ESSAY.
 MATERIAL COPIED FROM THREE SCHOLARLY BOOKS COMPRISES A DISSERTATION.
 MATERIAL COPIED FROM FOUR SCHOLARLY BOOKS COMPRISES A FIFTH SCHOLARLY BOOK.

                               -- C&EN, 25 FEB 1980
 Job cpu time:       0 days  0 hours  0 minutes 32.3 seconds.
 File lengths (MBytes):  RWF=      8 Int=      0 D2E=      0 Chk=      2 Scr=      1
 Normal termination of Gaussian 09 at Wed Aug 26 08:47:08 2020.
