 Entering Gaussian System, Link 0=/opt/cluster/programs/g09/g09_d.01/g09//g09
 Input=/home/boittier/MDCM/nms_sampling/h2o_geom.xyz.dir/energies/h2o_277_energy.com
 Output=/scratch/boittier/h2o_277_energy/h2o_277_energy.out
 Initial command:
 /opt/cluster/programs/g09/g09_d.01/g09/l1.exe "/scratch/boittier/h2o_277_energy/Gau-29572.inp" -scrdir="/scratch/boittier/h2o_277_energy/"
 Entering Link 1 = /opt/cluster/programs/g09/g09_d.01/g09/l1.exe PID=     29573.
  
 Copyright (c) 1988,1990,1992,1993,1995,1998,2003,2009,2013,
            Gaussian, Inc.  All Rights Reserved.
  
 This is part of the Gaussian(R) 09 program.  It is based on
 the Gaussian(R) 03 system (copyright 2003, Gaussian, Inc.),
 the Gaussian(R) 98 system (copyright 1998, Gaussian, Inc.),
 the Gaussian(R) 94 system (copyright 1995, Gaussian, Inc.),
 the Gaussian 92(TM) system (copyright 1992, Gaussian, Inc.),
 the Gaussian 90(TM) system (copyright 1990, Gaussian, Inc.),
 the Gaussian 88(TM) system (copyright 1988, Gaussian, Inc.),
 the Gaussian 86(TM) system (copyright 1986, Carnegie Mellon
 University), and the Gaussian 82(TM) system (copyright 1983,
 Carnegie Mellon University). Gaussian is a federally registered
 trademark of Gaussian, Inc.
  
 This software contains proprietary and confidential information,
 including trade secrets, belonging to Gaussian, Inc.
  
 This software is provided under written license and may be
 used, copied, transmitted, or stored only in accord with that
 written license.
  
 The following legend is applicable only to US Government
 contracts under FAR:
  
                    RESTRICTED RIGHTS LEGEND
  
 Use, reproduction and disclosure by the US Government is
 subject to restrictions as set forth in subparagraphs (a)
 and (c) of the Commercial Computer Software - Restricted
 Rights clause in FAR 52.227-19.
  
 Gaussian, Inc.
 340 Quinnipiac St., Bldg. 40, Wallingford CT 06492
  
  
 ---------------------------------------------------------------
 Warning -- This program may not be used in any manner that
 competes with the business of Gaussian, Inc. or will provide
 assistance to any competitor of Gaussian, Inc.  The licensee
 of this program is prohibited from giving any competitor of
 Gaussian, Inc. access to this program.  By using this program,
 the user acknowledges that Gaussian, Inc. is engaged in the
 business of creating and licensing software in the field of
 computational chemistry and represents and warrants to the
 licensee that it is not a competitor of Gaussian, Inc. and that
 it will not use this program in any manner prohibited above.
 ---------------------------------------------------------------
  

 Cite this work as:
 Gaussian 09, Revision D.01,
 M. J. Frisch, G. W. Trucks, H. B. Schlegel, G. E. Scuseria, 
 M. A. Robb, J. R. Cheeseman, G. Scalmani, V. Barone, B. Mennucci, 
 G. A. Petersson, H. Nakatsuji, M. Caricato, X. Li, H. P. Hratchian, 
 A. F. Izmaylov, J. Bloino, G. Zheng, J. L. Sonnenberg, M. Hada, 
 M. Ehara, K. Toyota, R. Fukuda, J. Hasegawa, M. Ishida, T. Nakajima, 
 Y. Honda, O. Kitao, H. Nakai, T. Vreven, J. A. Montgomery, Jr., 
 J. E. Peralta, F. Ogliaro, M. Bearpark, J. J. Heyd, E. Brothers, 
 K. N. Kudin, V. N. Staroverov, T. Keith, R. Kobayashi, J. Normand, 
 K. Raghavachari, A. Rendell, J. C. Burant, S. S. Iyengar, J. Tomasi, 
 M. Cossi, N. Rega, J. M. Millam, M. Klene, J. E. Knox, J. B. Cross, 
 V. Bakken, C. Adamo, J. Jaramillo, R. Gomperts, R. E. Stratmann, 
 O. Yazyev, A. J. Austin, R. Cammi, C. Pomelli, J. W. Ochterski, 
 R. L. Martin, K. Morokuma, V. G. Zakrzewski, G. A. Voth, 
 P. Salvador, J. J. Dannenberg, S. Dapprich, A. D. Daniels, 
 O. Farkas, J. B. Foresman, J. V. Ortiz, J. Cioslowski, 
 and D. J. Fox, Gaussian, Inc., Wallingford CT, 2013.
 
 ******************************************
 Gaussian 09:  ES64L-G09RevD.01 24-Apr-2013
                26-Aug-2020 
 ******************************************
 %chk=/home/boittier/MDCM/nms_sampling/h2o_geom.xyz.dir/h2o_277.chk
 %nproc=8
 Will use up to    8 processors via shared memory.
 %mem=16000MB
 --------------------
 #p B2PLYPD3/Def2QZVP
 --------------------
 1/38=1/1;
 2/12=2,17=6,18=5,40=1/2;
 3/5=45,7=101,11=9,16=1,25=1,30=1,74=-60/1,2,3;
 4//1;
 5/5=2,38=5/2;
 8/10=1/1;
 9/16=-3/6;
 6/7=2,8=2,9=2,10=2/1;
 99/5=1,9=1/99;
 Leave Link    1 at Wed Aug 26 09:54:08 2020, MaxMem=  2097152000 cpu:         0.2
 (Enter /opt/cluster/programs/g09/g09_d.01/g09/l101.exe)
 ---
 h2o
 ---
 Symbolic Z-matrix:
 Charge =  0 Multiplicity = 1
 O                    -5.3266   -0.76431   0.92328 
 H                    -4.36893  -0.7015    0.89686 
 H                    -5.60931   0.11455   0.73619 
 
 NAtoms=      3 NQM=        3 NQMF=       0 NMMI=      0 NMMIF=      0
                NMic=       0 NMicF=      0.
                    Isotopes and Nuclear Properties:
 (Nuclear quadrupole moments (NQMom) in fm**2, nuclear magnetic moments (NMagM)
  in nuclear magnetons)

  Atom         1           2           3
 IAtWgt=          16           1           1
 AtmWgt=  15.9949146   1.0078250   1.0078250
 NucSpn=           0           1           1
 AtZEff=   0.0000000   0.0000000   0.0000000
 NQMom=    0.0000000   0.0000000   0.0000000
 NMagM=    0.0000000   2.7928460   2.7928460
 AtZNuc=   8.0000000   1.0000000   1.0000000
 Leave Link  101 at Wed Aug 26 09:54:08 2020, MaxMem=  2097152000 cpu:         0.5
 (Enter /opt/cluster/programs/g09/g09_d.01/g09/l202.exe)
                          Input orientation:                          
 ---------------------------------------------------------------------
 Center     Atomic      Atomic             Coordinates (Angstroms)
 Number     Number       Type             X           Y           Z
 ---------------------------------------------------------------------
      1          8           0       -5.326605   -0.764313    0.923278
      2          1           0       -4.368927   -0.701498    0.896855
      3          1           0       -5.609308    0.114546    0.736188
 ---------------------------------------------------------------------
                    Distance matrix (angstroms):
                    1          2          3
     1  O    0.000000
     2  H    0.960100   0.000000
     3  H    0.941975   1.493414   0.000000
 Stoichiometry    H2O
 Framework group  CS[SG(H2O)]
 Deg. of freedom     3
 Full point group                 CS      NOp   2
 Largest Abelian subgroup         CS      NOp   2
 Largest concise Abelian subgroup C1      NOp   1
                         Standard orientation:                         
 ---------------------------------------------------------------------
 Center     Atomic      Atomic             Coordinates (Angstroms)
 Number     Number       Type             X           Y           Z
 ---------------------------------------------------------------------
      1          8           0        0.000000    0.117810    0.000000
      2          1           0        0.746564   -0.485873    0.000000
      3          1           0       -0.746564   -0.456610    0.000000
 ---------------------------------------------------------------------
 Rotational constants (GHZ):    814.3530374    449.4647259    289.6168857
 Leave Link  202 at Wed Aug 26 09:54:08 2020, MaxMem=  2097152000 cpu:         0.0
 (Enter /opt/cluster/programs/g09/g09_d.01/g09/l301.exe)
 Standard basis: def2QZVP (5D, 7F)
 Ernie: Thresh=  0.10000D-02 Tol=  0.10000D-05 Strict=F.
 There are    96 symmetry adapted cartesian basis functions of A'  symmetry.
 There are    46 symmetry adapted cartesian basis functions of A"  symmetry.
 There are    77 symmetry adapted basis functions of A'  symmetry.
 There are    40 symmetry adapted basis functions of A"  symmetry.
   117 basis functions,   168 primitive gaussians,   142 cartesian basis functions
     5 alpha electrons        5 beta electrons
       nuclear repulsion energy         9.2578870441 Hartrees.
 IExCor=  419 DFT=T Ex+Corr=B2PLYPD3 ExCW=0 ScaHFX=  0.530000
 ScaDFX=  0.470000  0.470000  0.730000  0.730000 ScalE2=  0.270000  0.270000
 IRadAn=      0 IRanWt=     -1 IRanGd=            0 ICorTp=0 IEmpDi=141
 NAtoms=    3 NActive=    3 NUniq=    3 SFac= 1.00D+00 NAtFMM=   60 NAOKFM=F Big=F
 Integral buffers will be    131072 words long.
 Regular integral format.
 Two-electron integral symmetry is turned on.
 R6Disp:  Grimme-D3(BJ) Dispersion energy=       -0.0002343064 Hartrees.
 Nuclear repulsion after empirical dispersion term =        9.2576527376 Hartrees.
 Leave Link  301 at Wed Aug 26 09:54:08 2020, MaxMem=  2097152000 cpu:         0.5
 (Enter /opt/cluster/programs/g09/g09_d.01/g09/l302.exe)
 NPDir=0 NMtPBC=     1 NCelOv=     1 NCel=       1 NClECP=     1 NCelD=      1
         NCelK=      1 NCelE2=     1 NClLst=     1 CellRange=     0.0.
 One-electron integrals computed using PRISM.
   1 Symmetry operations used in ECPInt.
 ECPInt:  NShTT=     703 NPrTT=    1591 LenC2=     704 LenP2D=    1544.
 LDataN:  DoStor=T MaxTD1= 8 Len=  415
 NBasis=   117 RedAO= T EigKep=  4.15D-04  NBF=    77    40
 NBsUse=   117 1.00D-06 EigRej= -1.00D+00 NBFU=    77    40
 Precomputing XC quadrature grid using
 IXCGrd= 4 IRadAn=           0 IRanWt=          -1 IRanGd=           0 AccXCQ= 0.00D+00.
 Generated NRdTot=       0 NPtTot=           0 NUsed=           0 NTot=          32
 NSgBfM=   142   142   142   142   142 MxSgAt=     3 MxSgA2=     3.
 Leave Link  302 at Wed Aug 26 09:54:08 2020, MaxMem=  2097152000 cpu:         1.6
 (Enter /opt/cluster/programs/g09/g09_d.01/g09/l303.exe)
 DipDrv:  MaxL=1.
 Leave Link  303 at Wed Aug 26 09:54:08 2020, MaxMem=  2097152000 cpu:         0.2
 (Enter /opt/cluster/programs/g09/g09_d.01/g09/l401.exe)
 ExpMin= 8.03D-02 ExpMax= 1.17D+05 ExpMxC= 1.13D+03 IAcc=2 IRadAn=         4 AccDes= 0.00D+00
 Harris functional with IExCor=  419 and IRadAn=       4 diagonalized for initial guess.
 HarFok:  IExCor=  419 AccDes= 0.00D+00 IRadAn=         4 IDoV= 1 UseB2=F ITyADJ=14
 ICtDFT=  3500011 ScaDFX=  1.000000  1.000000  1.000000  1.000000
 FoFCou: FMM=F IPFlag=           0 FMFlag=      100000 FMFlg1=           0
         NFxFlg=           0 DoJE=T BraDBF=F KetDBF=T FulRan=T
         wScrn=  0.000000 ICntrl=     500 IOpCl=  0 I1Cent=   200000004 NGrid=           0
         NMat0=    1 NMatS0=      1 NMatT0=    0 NMatD0=    1 NMtDS0=    0 NMtDT0=    0
 Petite list used in FoFCou.
 Harris En= -76.5079986357471    
 JPrj=0 DoOrth=F DoCkMO=F.
 Initial guess orbital symmetries:
       Occupied  (A') (A') (A') (A') (A")
       Virtual   (A') (A') (A') (A") (A') (A') (A') (A') (A") (A")
                 (A') (A') (A') (A') (A') (A') (A') (A") (A") (A")
                 (A') (A') (A') (A") (A') (A') (A") (A') (A") (A')
                 (A') (A") (A') (A') (A") (A") (A') (A') (A') (A')
                 (A') (A") (A") (A') (A") (A') (A') (A") (A') (A')
                 (A") (A') (A') (A") (A') (A') (A") (A') (A") (A')
                 (A") (A') (A') (A") (A') (A") (A') (A") (A') (A')
                 (A') (A') (A") (A") (A") (A') (A') (A") (A') (A')
                 (A') (A") (A') (A") (A') (A') (A') (A") (A') (A")
                 (A') (A') (A") (A") (A') (A") (A') (A") (A') (A')
                 (A") (A') (A') (A') (A') (A") (A") (A') (A') (A')
                 (A') (A')
 The electronic state of the initial guess is 1-A'.
 Leave Link  401 at Wed Aug 26 09:54:08 2020, MaxMem=  2097152000 cpu:         1.7
 (Enter /opt/cluster/programs/g09/g09_d.01/g09/l502.exe)
 Closed shell SCF:
 Using DIIS extrapolation, IDIIS=  1040.
 Integral symmetry usage will be decided dynamically.
 Keep R1 ints in memory in symmetry-blocked form, NReq=35980147.
 IVT=       81231 IEndB=       81231 NGot=  2097152000 MDV=  2085001127
 LenX=  2085001127 LenY=  2084980522
 Requested convergence on RMS density matrix=1.00D-08 within 128 cycles.
 Requested convergence on MAX density matrix=1.00D-06.
 Requested convergence on             energy=1.00D-06.
 No special actions if energy rises.
 FoFCou: FMM=F IPFlag=           0 FMFlag=           0 FMFlg1=           0
         NFxFlg=           0 DoJE=F BraDBF=F KetDBF=F FulRan=T
         wScrn=  0.000000 ICntrl=     600 IOpCl=  0 I1Cent=           0 NGrid=           0
         NMat0=    1 NMatS0=   6903 NMatT0=    0 NMatD0=    1 NMtDS0=    0 NMtDT0=    0
 Petite list used in FoFCou.
 Integral accuracy reduced to 1.0D-05 until final iterations.

 Cycle   1  Pass 0  IDiag  1:
 E= -76.2466125235149    
 DIIS: error= 4.44D-02 at cycle   1 NSaved=   1.
 NSaved= 1 IEnMin= 1 EnMin= -76.2466125235149     IErMin= 1 ErrMin= 4.44D-02
 ErrMax= 4.44D-02  0.00D+00 EMaxC= 1.00D-01 BMatC= 1.70D-01 BMatP= 1.70D-01
 IDIUse=3 WtCom= 5.56D-01 WtEn= 4.44D-01
 Coeff-Com:  0.100D+01
 Coeff-En:   0.100D+01
 Coeff:      0.100D+01
 Gap=     0.296 Goal=   None    Shift=    0.000
 GapD=    0.296 DampG=1.000 DampE=0.500 DampFc=0.5000 IDamp=-1.
 Damping current iteration by 5.00D-01
 RMSDP=2.38D-03 MaxDP=7.67D-02              OVMax= 1.71D-01

 Cycle   2  Pass 0  IDiag  1:
 E= -76.2858631890559     Delta-E=       -0.039250665541 Rises=F Damp=T
 DIIS: error= 1.63D-02 at cycle   2 NSaved=   2.
 NSaved= 2 IEnMin= 2 EnMin= -76.2858631890559     IErMin= 2 ErrMin= 1.63D-02
 ErrMax= 1.63D-02  0.00D+00 EMaxC= 1.00D-01 BMatC= 1.05D-02 BMatP= 1.70D-01
 IDIUse=3 WtCom= 8.37D-01 WtEn= 1.63D-01
 Coeff-Com:  0.105D-01 0.989D+00
 Coeff-En:   0.129D+00 0.871D+00
 Coeff:      0.298D-01 0.970D+00
 Gap=     0.446 Goal=   None    Shift=    0.000
 RMSDP=3.47D-04 MaxDP=1.16D-02 DE=-3.93D-02 OVMax= 1.02D-01

 Cycle   3  Pass 0  IDiag  1:
 E= -76.3346379755426     Delta-E=       -0.048774786487 Rises=F Damp=F
 DIIS: error= 2.79D-03 at cycle   3 NSaved=   3.
 NSaved= 3 IEnMin= 3 EnMin= -76.3346379755426     IErMin= 3 ErrMin= 2.79D-03
 ErrMax= 2.79D-03  0.00D+00 EMaxC= 1.00D-01 BMatC= 5.29D-04 BMatP= 1.05D-02
 IDIUse=3 WtCom= 9.72D-01 WtEn= 2.79D-02
 Coeff-Com: -0.547D-01 0.702D-01 0.984D+00
 Coeff-En:   0.000D+00 0.000D+00 0.100D+01
 Coeff:     -0.532D-01 0.683D-01 0.985D+00
 Gap=     0.446 Goal=   None    Shift=    0.000
 RMSDP=8.29D-05 MaxDP=2.79D-03 DE=-4.88D-02 OVMax= 6.24D-03

 Cycle   4  Pass 0  IDiag  1:
 E= -76.3350045715315     Delta-E=       -0.000366595989 Rises=F Damp=F
 DIIS: error= 2.53D-04 at cycle   4 NSaved=   4.
 NSaved= 4 IEnMin= 4 EnMin= -76.3350045715315     IErMin= 4 ErrMin= 2.53D-04
 ErrMax= 2.53D-04  0.00D+00 EMaxC= 1.00D-01 BMatC= 3.41D-06 BMatP= 5.29D-04
 IDIUse=3 WtCom= 9.97D-01 WtEn= 2.53D-03
 Coeff-Com:  0.318D-02-0.829D-02 0.513D-02 0.100D+01
 Coeff-En:   0.000D+00 0.000D+00 0.000D+00 0.100D+01
 Coeff:      0.317D-02-0.827D-02 0.512D-02 0.100D+01
 Gap=     0.446 Goal=   None    Shift=    0.000
 RMSDP=1.17D-05 MaxDP=4.19D-04 DE=-3.67D-04 OVMax= 7.09D-04

 Cycle   5  Pass 0  IDiag  1:
 E= -76.3350071265306     Delta-E=       -0.000002554999 Rises=F Damp=F
 DIIS: error= 4.51D-05 at cycle   5 NSaved=   5.
 NSaved= 5 IEnMin= 5 EnMin= -76.3350071265306     IErMin= 5 ErrMin= 4.51D-05
 ErrMax= 4.51D-05  0.00D+00 EMaxC= 1.00D-01 BMatC= 5.31D-08 BMatP= 3.41D-06
 IDIUse=1 WtCom= 1.00D+00 WtEn= 0.00D+00
 Coeff-Com:  0.197D-02-0.291D-02-0.295D-01 0.468D-01 0.984D+00
 Coeff:      0.197D-02-0.291D-02-0.295D-01 0.468D-01 0.984D+00
 Gap=     0.447 Goal=   None    Shift=    0.000
 RMSDP=2.12D-06 MaxDP=6.50D-05 DE=-2.55D-06 OVMax= 1.49D-04

 Initial convergence to 1.0D-05 achieved.  Increase integral accuracy.
 Cycle   6  Pass 1  IDiag  1:
 E= -76.3350029760417     Delta-E=        0.000004150489 Rises=F Damp=F
 DIIS: error= 1.32D-05 at cycle   1 NSaved=   1.
 NSaved= 1 IEnMin= 1 EnMin= -76.3350029760417     IErMin= 1 ErrMin= 1.32D-05
 ErrMax= 1.32D-05  0.00D+00 EMaxC= 1.00D-01 BMatC= 1.26D-08 BMatP= 1.26D-08
 IDIUse=1 WtCom= 1.00D+00 WtEn= 0.00D+00
 Coeff-Com:  0.100D+01
 Coeff:      0.100D+01
 Gap=     0.447 Goal=   None    Shift=    0.000
 RMSDP=2.12D-06 MaxDP=6.50D-05 DE= 4.15D-06 OVMax= 3.85D-05

 Cycle   7  Pass 1  IDiag  1:
 E= -76.3350029814678     Delta-E=       -0.000000005426 Rises=F Damp=F
 DIIS: error= 5.72D-06 at cycle   2 NSaved=   2.
 NSaved= 2 IEnMin= 2 EnMin= -76.3350029814678     IErMin= 2 ErrMin= 5.72D-06
 ErrMax= 5.72D-06  0.00D+00 EMaxC= 1.00D-01 BMatC= 9.92D-10 BMatP= 1.26D-08
 IDIUse=1 WtCom= 1.00D+00 WtEn= 0.00D+00
 Coeff-Com:  0.819D-01 0.918D+00
 Coeff:      0.819D-01 0.918D+00
 Gap=     0.447 Goal=   None    Shift=    0.000
 RMSDP=2.05D-07 MaxDP=6.56D-06 DE=-5.43D-09 OVMax= 2.00D-05

 Cycle   8  Pass 1  IDiag  1:
 E= -76.3350029818982     Delta-E=       -0.000000000430 Rises=F Damp=F
 DIIS: error= 3.10D-06 at cycle   3 NSaved=   3.
 NSaved= 3 IEnMin= 3 EnMin= -76.3350029818982     IErMin= 3 ErrMin= 3.10D-06
 ErrMax= 3.10D-06  0.00D+00 EMaxC= 1.00D-01 BMatC= 7.51D-10 BMatP= 9.92D-10
 IDIUse=1 WtCom= 1.00D+00 WtEn= 0.00D+00
 Coeff-Com: -0.333D-01 0.467D+00 0.567D+00
 Coeff:     -0.333D-01 0.467D+00 0.567D+00
 Gap=     0.447 Goal=   None    Shift=    0.000
 RMSDP=9.27D-08 MaxDP=3.35D-06 DE=-4.30D-10 OVMax= 7.82D-06

 Cycle   9  Pass 1  IDiag  1:
 E= -76.3350029823950     Delta-E=       -0.000000000497 Rises=F Damp=F
 DIIS: error= 4.97D-07 at cycle   4 NSaved=   4.
 NSaved= 4 IEnMin= 4 EnMin= -76.3350029823950     IErMin= 4 ErrMin= 4.97D-07
 ErrMax= 4.97D-07  0.00D+00 EMaxC= 1.00D-01 BMatC= 6.35D-12 BMatP= 7.51D-10
 IDIUse=1 WtCom= 1.00D+00 WtEn= 0.00D+00
 Coeff-Com: -0.383D-02-0.766D-01-0.312D-01 0.111D+01
 Coeff:     -0.383D-02-0.766D-01-0.312D-01 0.111D+01
 Gap=     0.447 Goal=   None    Shift=    0.000
 RMSDP=2.69D-08 MaxDP=8.03D-07 DE=-4.97D-10 OVMax= 2.18D-06

 Cycle  10  Pass 1  IDiag  1:
 E= -76.3350029824083     Delta-E=       -0.000000000013 Rises=F Damp=F
 DIIS: error= 7.29D-08 at cycle   5 NSaved=   5.
 NSaved= 5 IEnMin= 5 EnMin= -76.3350029824083     IErMin= 5 ErrMin= 7.29D-08
 ErrMax= 7.29D-08  0.00D+00 EMaxC= 1.00D-01 BMatC= 2.76D-13 BMatP= 6.35D-12
 IDIUse=1 WtCom= 1.00D+00 WtEn= 0.00D+00
 Coeff-Com:  0.173D-02-0.414D-01-0.408D-01 0.143D+00 0.937D+00
 Coeff:      0.173D-02-0.414D-01-0.408D-01 0.143D+00 0.937D+00
 Gap=     0.447 Goal=   None    Shift=    0.000
 RMSDP=4.44D-09 MaxDP=1.16D-07 DE=-1.34D-11 OVMax= 4.27D-07

 SCF Done:  E(RB2PLYPD3) =  -76.3350029824     A.U. after   10 cycles
            NFock= 10  Conv=0.44D-08     -V/T= 2.0023
 KE= 7.615833946358D+01 PE=-1.993582618403D+02 EE= 3.760726665670D+01
 Leave Link  502 at Wed Aug 26 09:54:10 2020, MaxMem=  2097152000 cpu:        13.4
 (Enter /opt/cluster/programs/g09/g09_d.01/g09/l801.exe)
 DoSCS=T DFT=T ScalE2(SS,OS)=  0.270000  0.270000
 ExpMin= 8.03D-02 ExpMax= 1.17D+05 ExpMxC= 1.13D+03 IAcc=3 IRadAn=         5 AccDes= 0.00D+00
 HarFok:  IExCor=  205 AccDes= 0.00D+00 IRadAn=         5 IDoV=-2 UseB2=F ITyADJ=14
 ICtDFT= 12500011 ScaDFX=  1.000000  1.000000  1.000000  1.000000
 Largest valence mixing into a core orbital is  6.74D-05
 Largest core mixing into a valence orbital is  9.77D-06
 Range of M.O.s used for correlation:     2   117
 NBasis=   117 NAE=     5 NBE=     5 NFC=     1 NFV=     0
 NROrb=    116 NOA=     4 NOB=     4 NVA=   112 NVB=   112

 **** Warning!!: The largest alpha MO coefficient is  0.15908072D+02

 Leave Link  801 at Wed Aug 26 09:54:10 2020, MaxMem=  2097152000 cpu:         0.4
 (Enter /opt/cluster/programs/g09/g09_d.01/g09/l906.exe)
 DoSCS=T DFT=T ScalE2(SS,OS)=  0.270000  0.270000
 FulOut=F Deriv=F AODrv=F NAtomX=     3
   MMem=       16445  MDisk=           4 MDiskD=           4
  W3Min=       63616 MinDsk=      271641 NBas6D=         142
 NBas2D=       10573    NTT=       10153    LW2=     4508827
    MDV=  2097048983 MDiskM=       32786 NBas2p=       10573
 Fully in-core method, ICMem=   125836233.
 IMap=   1   2   3   4
 JobTyp=1 Pass  1 fully in-core, NPsUse=  8.
 Compute canonical integrals.
 FoFCou: FMM=F IPFlag=           0 FMFlag=           0 FMFlg1=           0
         NFxFlg=           0 DoJE=F BraDBF=F KetDBF=F FulRan=T
         wScrn=  0.000000 ICntrl=     600 IOpCl=  1 I1Cent=           0 NGrid=           0
         NMat0=    1 NMatS0=  10573 NMatT0=    0 NMatD0=    1 NMtDS0=    0 NMtDT0=    0
 Symmetry not used in FoFCou.
 Spin components of T(2) and E(2):
     alpha-alpha T2 =       0.1207629047D-01 E2=     -0.1072680920D-01
     alpha-beta  T2 =       0.6994171442D-01 E2=     -0.6832574541D-01
     beta-beta   T2 =       0.1207629047D-01 E2=     -0.1072680920D-01
 The integrals were generated   1 times.
 E2(B2PLYPD3) =    -0.8977936381D-01 E(B2PLYPD3) =    -0.76424782346219D+02
 Leave Link  906 at Wed Aug 26 09:54:12 2020, MaxMem=  2097152000 cpu:        13.7
 (Enter /opt/cluster/programs/g09/g09_d.01/g09/l601.exe)
 Copying SCF densities to generalized density rwf, IOpCl= 0 IROHF=0.

 **********************************************************************

            Population analysis using the SCF density.

 **********************************************************************

 Orbital symmetries:
       Occupied  (A') (A') (A') (A') (A")
       Virtual   (A') (A') (A') (A") (A') (A') (A') (A') (A") (A")
                 (A') (A') (A') (A') (A') (A') (A') (A") (A") (A')
                 (A") (A') (A') (A") (A') (A') (A") (A') (A") (A')
                 (A') (A") (A') (A') (A") (A") (A') (A') (A') (A')
                 (A') (A") (A") (A') (A") (A') (A') (A") (A') (A')
                 (A") (A') (A') (A") (A') (A') (A") (A') (A") (A')
                 (A") (A') (A') (A") (A') (A") (A') (A") (A') (A')
                 (A') (A') (A") (A") (A") (A') (A') (A") (A') (A')
                 (A') (A") (A') (A") (A') (A') (A') (A") (A') (A")
                 (A') (A') (A") (A') (A") (A") (A') (A") (A') (A')
                 (A") (A') (A') (A') (A') (A") (A") (A') (A') (A')
                 (A') (A')
 The electronic state is 1-A'.
 Alpha  occ. eigenvalues --  -19.73054  -1.16141  -0.61406  -0.47792  -0.40061
 Alpha virt. eigenvalues --    0.04593   0.10303   0.27481   0.30389   0.31013
 Alpha virt. eigenvalues --    0.36446   0.44209   0.50117   0.56532   0.61899
 Alpha virt. eigenvalues --    0.65461   0.81400   0.94160   0.95756   1.04144
 Alpha virt. eigenvalues --    1.09479   1.33975   1.34172   1.35329   1.41690
 Alpha virt. eigenvalues --    1.43348   1.49093   1.83863   1.92415   2.02932
 Alpha virt. eigenvalues --    2.05580   2.15146   2.30844   2.33433   2.37351
 Alpha virt. eigenvalues --    2.38264   2.46027   2.56454   2.61002   2.69310
 Alpha virt. eigenvalues --    2.72907   2.89837   2.99047   3.18586   3.20782
 Alpha virt. eigenvalues --    3.34234   3.79951   3.90078   3.94170   3.95604
 Alpha virt. eigenvalues --    4.12730   4.19470   4.30937   4.31446   4.49837
 Alpha virt. eigenvalues --    4.72633   4.86405   4.91830   5.37564   5.43601
 Alpha virt. eigenvalues --    5.48980   5.77294   6.00721   6.06798   6.17699
 Alpha virt. eigenvalues --    6.56766   6.59632   6.88131   7.14342   7.18468
 Alpha virt. eigenvalues --    7.22002   7.24408   7.33359   7.41621   7.45755
 Alpha virt. eigenvalues --    7.50384   7.57877   7.76782   7.87256   7.92698
 Alpha virt. eigenvalues --    7.98889   7.99924   8.11723   8.16100   8.42191
 Alpha virt. eigenvalues --    8.60893   8.72707   8.88499   8.94176   9.19872
 Alpha virt. eigenvalues --    9.25508  10.00456  10.06330  10.42053  10.44568
 Alpha virt. eigenvalues --   10.86150  10.92143  11.11770  11.26143  11.28416
 Alpha virt. eigenvalues --   11.49739  11.66096  11.93752  11.99100  12.04060
 Alpha virt. eigenvalues --   12.11178  12.41910  13.13927  13.70501  13.82981
 Alpha virt. eigenvalues --   13.92060  14.34871  14.64045  16.82539  16.98307
 Alpha virt. eigenvalues --   48.80210 254.54629
          Condensed to atoms (all electrons):
               1          2          3
     1  O    7.757354   0.337358   0.339520
     2  H    0.337358   0.462671  -0.021356
     3  H    0.339520  -0.021356   0.468932
 Mulliken charges:
               1
     1  O   -0.434232
     2  H    0.221327
     3  H    0.212904
 Sum of Mulliken charges =   0.00000
 Mulliken charges with hydrogens summed into heavy atoms:
               1
     1  O    0.000000
 Electronic spatial extent (au):  <R**2>=             19.5438
 Charge=              0.0000 electrons
 Dipole moment (field-independent basis, Debye):
    X=             -0.0095    Y=             -1.9740    Z=              0.0000  Tot=              1.9740
 Quadrupole moment (field-independent basis, Debye-Ang):
   XX=             -4.4047   YY=             -6.2859   ZZ=             -7.5737
   XY=             -0.0470   XZ=              0.0000   YZ=              0.0000
 Traceless Quadrupole moment (field-independent basis, Debye-Ang):
   XX=              1.6834   YY=             -0.1978   ZZ=             -1.4856
   XY=             -0.0470   XZ=              0.0000   YZ=              0.0000
 Octapole moment (field-independent basis, Debye-Ang**2):
  XXX=             -0.0287  YYY=             -1.2040  ZZZ=              0.0000  XYY=              0.0315
  XXY=             -1.3343  XXZ=              0.0000  XZZ=             -0.0104  YZZ=             -0.2905
  YYZ=              0.0000  XYZ=              0.0000
 Hexadecapole moment (field-independent basis, Debye-Ang**3):
 XXXX=             -6.1799 YYYY=             -7.3286 ZZZZ=             -6.7213 XXXY=              0.0059
 XXXZ=              0.0000 YYYX=              0.0001 YYYZ=              0.0000 ZZZX=              0.0000
 ZZZY=              0.0000 XXYY=             -1.9074 XXZZ=             -2.4581 YYZZ=             -2.3978
 XXYZ=              0.0000 YYXZ=              0.0000 ZZXY=              0.0129
 N-N= 9.257652737647D+00 E-N=-1.993582613251D+02  KE= 7.615833946358D+01
 Symmetry A'   KE= 7.164092026794D+01
 Symmetry A"   KE= 4.517419195635D+00
 Leave Link  601 at Wed Aug 26 09:54:12 2020, MaxMem=  2097152000 cpu:         0.3
 (Enter /opt/cluster/programs/g09/g09_d.01/g09/l9999.exe)
 1\1\GINC-NODE25\SP\RB2PLYPD3-FC\def2QZVP\H2O1\BOITTIER\26-Aug-2020\0\\
 #p B2PLYPD3/Def2QZVP\\h2o\\0,1\O,0,-5.326605,-0.764313,0.923278\H,0,-4
 .368927,-0.701498,0.896855\H,0,-5.609308,0.114546,0.736188\\Version=ES
 64L-G09RevD.01\State=1-A'\HF=-76.335003\MP2=-76.4247823\RMSD=4.442e-09
 \PG=CS [SG(H2O1)]\\@


 ALL OUR THINKING ABOUT NATURE MUST NECESSARILY MOVE IN CIRCLES OR SPIRALS;
 FOR WE CAN ONLY UNDERSTAND NATURE IF WE THINK ABOUT HER, AND WE CAN ONLY
 THINK BECAUSE OUR BRAIN IS BUILT IN ACCORDANCE WITH NATURE'S LAWS.

                                             -- TIMOTHY FERRIS, "GALAXIES"
 Job cpu time:       0 days  0 hours  0 minutes 33.0 seconds.
 File lengths (MBytes):  RWF=      8 Int=      0 D2E=      0 Chk=      2 Scr=      1
 Normal termination of Gaussian 09 at Wed Aug 26 09:54:12 2020.
