 Entering Gaussian System, Link 0=/opt/cluster/programs/g09/g09_d.01/g09//g09
 Input=/home/boittier/MDCM/nms_sampling/h2o_geom.xyz.dir/energies/h2o_1154_energy.com
 Output=/scratch/boittier/h2o_1154_energy/h2o_1154_energy.out
 Initial command:
 /opt/cluster/programs/g09/g09_d.01/g09/l1.exe "/scratch/boittier/h2o_1154_energy/Gau-203999.inp" -scrdir="/scratch/boittier/h2o_1154_energy/"
 Entering Link 1 = /opt/cluster/programs/g09/g09_d.01/g09/l1.exe PID=    204000.
  
 Copyright (c) 1988,1990,1992,1993,1995,1998,2003,2009,2013,
            Gaussian, Inc.  All Rights Reserved.
  
 This is part of the Gaussian(R) 09 program.  It is based on
 the Gaussian(R) 03 system (copyright 2003, Gaussian, Inc.),
 the Gaussian(R) 98 system (copyright 1998, Gaussian, Inc.),
 the Gaussian(R) 94 system (copyright 1995, Gaussian, Inc.),
 the Gaussian 92(TM) system (copyright 1992, Gaussian, Inc.),
 the Gaussian 90(TM) system (copyright 1990, Gaussian, Inc.),
 the Gaussian 88(TM) system (copyright 1988, Gaussian, Inc.),
 the Gaussian 86(TM) system (copyright 1986, Carnegie Mellon
 University), and the Gaussian 82(TM) system (copyright 1983,
 Carnegie Mellon University). Gaussian is a federally registered
 trademark of Gaussian, Inc.
  
 This software contains proprietary and confidential information,
 including trade secrets, belonging to Gaussian, Inc.
  
 This software is provided under written license and may be
 used, copied, transmitted, or stored only in accord with that
 written license.
  
 The following legend is applicable only to US Government
 contracts under FAR:
  
                    RESTRICTED RIGHTS LEGEND
  
 Use, reproduction and disclosure by the US Government is
 subject to restrictions as set forth in subparagraphs (a)
 and (c) of the Commercial Computer Software - Restricted
 Rights clause in FAR 52.227-19.
  
 Gaussian, Inc.
 340 Quinnipiac St., Bldg. 40, Wallingford CT 06492
  
  
 ---------------------------------------------------------------
 Warning -- This program may not be used in any manner that
 competes with the business of Gaussian, Inc. or will provide
 assistance to any competitor of Gaussian, Inc.  The licensee
 of this program is prohibited from giving any competitor of
 Gaussian, Inc. access to this program.  By using this program,
 the user acknowledges that Gaussian, Inc. is engaged in the
 business of creating and licensing software in the field of
 computational chemistry and represents and warrants to the
 licensee that it is not a competitor of Gaussian, Inc. and that
 it will not use this program in any manner prohibited above.
 ---------------------------------------------------------------
  

 Cite this work as:
 Gaussian 09, Revision D.01,
 M. J. Frisch, G. W. Trucks, H. B. Schlegel, G. E. Scuseria, 
 M. A. Robb, J. R. Cheeseman, G. Scalmani, V. Barone, B. Mennucci, 
 G. A. Petersson, H. Nakatsuji, M. Caricato, X. Li, H. P. Hratchian, 
 A. F. Izmaylov, J. Bloino, G. Zheng, J. L. Sonnenberg, M. Hada, 
 M. Ehara, K. Toyota, R. Fukuda, J. Hasegawa, M. Ishida, T. Nakajima, 
 Y. Honda, O. Kitao, H. Nakai, T. Vreven, J. A. Montgomery, Jr., 
 J. E. Peralta, F. Ogliaro, M. Bearpark, J. J. Heyd, E. Brothers, 
 K. N. Kudin, V. N. Staroverov, T. Keith, R. Kobayashi, J. Normand, 
 K. Raghavachari, A. Rendell, J. C. Burant, S. S. Iyengar, J. Tomasi, 
 M. Cossi, N. Rega, J. M. Millam, M. Klene, J. E. Knox, J. B. Cross, 
 V. Bakken, C. Adamo, J. Jaramillo, R. Gomperts, R. E. Stratmann, 
 O. Yazyev, A. J. Austin, R. Cammi, C. Pomelli, J. W. Ochterski, 
 R. L. Martin, K. Morokuma, V. G. Zakrzewski, G. A. Voth, 
 P. Salvador, J. J. Dannenberg, S. Dapprich, A. D. Daniels, 
 O. Farkas, J. B. Foresman, J. V. Ortiz, J. Cioslowski, 
 and D. J. Fox, Gaussian, Inc., Wallingford CT, 2013.
 
 ******************************************
 Gaussian 09:  ES64L-G09RevD.01 24-Apr-2013
                26-Aug-2020 
 ******************************************
 %chk=/home/boittier/MDCM/nms_sampling/h2o_geom.xyz.dir/h2o_1154.chk
 %nproc=8
 Will use up to    8 processors via shared memory.
 %mem=16000MB
 --------------------
 #p B2PLYPD3/Def2QZVP
 --------------------
 1/38=1/1;
 2/12=2,17=6,18=5,40=1/2;
 3/5=45,7=101,11=9,16=1,25=1,30=1,74=-60/1,2,3;
 4//1;
 5/5=2,38=5/2;
 8/10=1/1;
 9/16=-3/6;
 6/7=2,8=2,9=2,10=2/1;
 99/5=1,9=1/99;
 Leave Link    1 at Wed Aug 26 08:32:03 2020, MaxMem=  2097152000 cpu:         0.2
 (Enter /opt/cluster/programs/g09/g09_d.01/g09/l101.exe)
 ---
 h2o
 ---
 Symbolic Z-matrix:
 Charge =  0 Multiplicity = 1
 O                    -5.3266   -0.76271   0.92185 
 H                    -4.36893  -0.71554   0.89833 
 H                    -5.60931   0.10291   0.75738 
 
 NAtoms=      3 NQM=        3 NQMF=       0 NMMI=      0 NMMIF=      0
                NMic=       0 NMicF=      0.
                    Isotopes and Nuclear Properties:
 (Nuclear quadrupole moments (NQMom) in fm**2, nuclear magnetic moments (NMagM)
  in nuclear magnetons)

  Atom         1           2           3
 IAtWgt=          16           1           1
 AtmWgt=  15.9949146   1.0078250   1.0078250
 NucSpn=           0           1           1
 AtZEff=   0.0000000   0.0000000   0.0000000
 NQMom=    0.0000000   0.0000000   0.0000000
 NMagM=    0.0000000   2.7928460   2.7928460
 AtZNuc=   8.0000000   1.0000000   1.0000000
 Leave Link  101 at Wed Aug 26 08:32:03 2020, MaxMem=  2097152000 cpu:         0.4
 (Enter /opt/cluster/programs/g09/g09_d.01/g09/l202.exe)
                          Input orientation:                          
 ---------------------------------------------------------------------
 Center     Atomic      Atomic             Coordinates (Angstroms)
 Number     Number       Type             X           Y           Z
 ---------------------------------------------------------------------
      1          8           0       -5.326605   -0.762708    0.921850
      2          1           0       -4.368927   -0.715536    0.898334
      3          1           0       -5.609308    0.102905    0.757384
 ---------------------------------------------------------------------
                    Distance matrix (angstroms):
                    1          2          3
     1  O    0.000000
     2  H    0.959127   0.000000
     3  H    0.925341   1.492735   0.000000
 Stoichiometry    H2O
 Framework group  CS[SG(H2O)]
 Deg. of freedom     3
 Full point group                 CS      NOp   2
 Largest Abelian subgroup         CS      NOp   2
 Largest concise Abelian subgroup C1      NOp   1
                         Standard orientation:                         
 ---------------------------------------------------------------------
 Center     Atomic      Atomic             Coordinates (Angstroms)
 Number     Number       Type             X           Y           Z
 ---------------------------------------------------------------------
      1          8           0        0.000000    0.115070    0.000000
      2          1           0        0.745855   -0.487945    0.000000
      3          1           0       -0.745855   -0.432613    0.000000
 ---------------------------------------------------------------------
 Rotational constants (GHZ):    855.3547545    449.3994523    294.6117791
 Leave Link  202 at Wed Aug 26 08:32:03 2020, MaxMem=  2097152000 cpu:         0.0
 (Enter /opt/cluster/programs/g09/g09_d.01/g09/l301.exe)
 Standard basis: def2QZVP (5D, 7F)
 Ernie: Thresh=  0.10000D-02 Tol=  0.10000D-05 Strict=F.
 There are    96 symmetry adapted cartesian basis functions of A'  symmetry.
 There are    46 symmetry adapted cartesian basis functions of A"  symmetry.
 There are    77 symmetry adapted basis functions of A'  symmetry.
 There are    40 symmetry adapted basis functions of A"  symmetry.
   117 basis functions,   168 primitive gaussians,   142 cartesian basis functions
     5 alpha electrons        5 beta electrons
       nuclear repulsion energy         9.3433052060 Hartrees.
 IExCor=  419 DFT=T Ex+Corr=B2PLYPD3 ExCW=0 ScaHFX=  0.530000
 ScaDFX=  0.470000  0.470000  0.730000  0.730000 ScalE2=  0.270000  0.270000
 IRadAn=      0 IRanWt=     -1 IRanGd=            0 ICorTp=0 IEmpDi=141
 NAtoms=    3 NActive=    3 NUniq=    3 SFac= 1.00D+00 NAtFMM=   60 NAOKFM=F Big=F
 Integral buffers will be    131072 words long.
 Regular integral format.
 Two-electron integral symmetry is turned on.
 R6Disp:  Grimme-D3(BJ) Dispersion energy=       -0.0002342919 Hartrees.
 Nuclear repulsion after empirical dispersion term =        9.3430709141 Hartrees.
 Leave Link  301 at Wed Aug 26 08:32:03 2020, MaxMem=  2097152000 cpu:         0.4
 (Enter /opt/cluster/programs/g09/g09_d.01/g09/l302.exe)
 NPDir=0 NMtPBC=     1 NCelOv=     1 NCel=       1 NClECP=     1 NCelD=      1
         NCelK=      1 NCelE2=     1 NClLst=     1 CellRange=     0.0.
 One-electron integrals computed using PRISM.
   1 Symmetry operations used in ECPInt.
 ECPInt:  NShTT=     703 NPrTT=    1591 LenC2=     704 LenP2D=    1545.
 LDataN:  DoStor=T MaxTD1= 8 Len=  415
 NBasis=   117 RedAO= T EigKep=  3.83D-04  NBF=    77    40
 NBsUse=   117 1.00D-06 EigRej= -1.00D+00 NBFU=    77    40
 Precomputing XC quadrature grid using
 IXCGrd= 4 IRadAn=           0 IRanWt=          -1 IRanGd=           0 AccXCQ= 0.00D+00.
 Generated NRdTot=       0 NPtTot=           0 NUsed=           0 NTot=          32
 NSgBfM=   142   142   142   142   142 MxSgAt=     3 MxSgA2=     3.
 Leave Link  302 at Wed Aug 26 08:32:03 2020, MaxMem=  2097152000 cpu:         1.3
 (Enter /opt/cluster/programs/g09/g09_d.01/g09/l303.exe)
 DipDrv:  MaxL=1.
 Leave Link  303 at Wed Aug 26 08:32:03 2020, MaxMem=  2097152000 cpu:         0.2
 (Enter /opt/cluster/programs/g09/g09_d.01/g09/l401.exe)
 ExpMin= 8.03D-02 ExpMax= 1.17D+05 ExpMxC= 1.13D+03 IAcc=2 IRadAn=         4 AccDes= 0.00D+00
 Harris functional with IExCor=  419 and IRadAn=       4 diagonalized for initial guess.
 HarFok:  IExCor=  419 AccDes= 0.00D+00 IRadAn=         4 IDoV= 1 UseB2=F ITyADJ=14
 ICtDFT=  3500011 ScaDFX=  1.000000  1.000000  1.000000  1.000000
 FoFCou: FMM=F IPFlag=           0 FMFlag=      100000 FMFlg1=           0
         NFxFlg=           0 DoJE=T BraDBF=F KetDBF=T FulRan=T
         wScrn=  0.000000 ICntrl=     500 IOpCl=  0 I1Cent=   200000004 NGrid=           0
         NMat0=    1 NMatS0=      1 NMatT0=    0 NMatD0=    1 NMtDS0=    0 NMtDT0=    0
 Petite list used in FoFCou.
 Harris En= -76.5083174665795    
 JPrj=0 DoOrth=F DoCkMO=F.
 Initial guess orbital symmetries:
       Occupied  (A') (A') (A') (A') (A")
       Virtual   (A') (A') (A') (A") (A') (A') (A') (A') (A") (A")
                 (A') (A') (A') (A') (A') (A') (A') (A") (A") (A")
                 (A') (A') (A') (A") (A') (A') (A") (A') (A") (A')
                 (A') (A") (A') (A') (A") (A") (A') (A') (A') (A')
                 (A') (A") (A") (A") (A') (A') (A') (A") (A') (A')
                 (A") (A') (A') (A") (A') (A') (A") (A') (A") (A')
                 (A") (A') (A') (A') (A") (A") (A') (A") (A') (A')
                 (A') (A') (A") (A") (A") (A') (A') (A") (A') (A')
                 (A') (A") (A') (A") (A') (A') (A') (A") (A') (A")
                 (A') (A') (A") (A") (A') (A") (A') (A") (A') (A')
                 (A") (A') (A') (A') (A") (A') (A") (A') (A') (A')
                 (A') (A')
 The electronic state of the initial guess is 1-A'.
 Leave Link  401 at Wed Aug 26 08:32:03 2020, MaxMem=  2097152000 cpu:         1.5
 (Enter /opt/cluster/programs/g09/g09_d.01/g09/l502.exe)
 Closed shell SCF:
 Using DIIS extrapolation, IDIIS=  1040.
 Integral symmetry usage will be decided dynamically.
 Keep R1 ints in memory in symmetry-blocked form, NReq=35980147.
 IVT=       81231 IEndB=       81231 NGot=  2097152000 MDV=  2085001127
 LenX=  2085001127 LenY=  2084980522
 Requested convergence on RMS density matrix=1.00D-08 within 128 cycles.
 Requested convergence on MAX density matrix=1.00D-06.
 Requested convergence on             energy=1.00D-06.
 No special actions if energy rises.
 FoFCou: FMM=F IPFlag=           0 FMFlag=           0 FMFlg1=           0
         NFxFlg=           0 DoJE=F BraDBF=F KetDBF=F FulRan=T
         wScrn=  0.000000 ICntrl=     600 IOpCl=  0 I1Cent=           0 NGrid=           0
         NMat0=    1 NMatS0=   6903 NMatT0=    0 NMatD0=    1 NMtDS0=    0 NMtDT0=    0
 Petite list used in FoFCou.
 Integral accuracy reduced to 1.0D-05 until final iterations.

 Cycle   1  Pass 0  IDiag  1:
 E= -76.2445520608708    
 DIIS: error= 4.48D-02 at cycle   1 NSaved=   1.
 NSaved= 1 IEnMin= 1 EnMin= -76.2445520608708     IErMin= 1 ErrMin= 4.48D-02
 ErrMax= 4.48D-02  0.00D+00 EMaxC= 1.00D-01 BMatC= 1.74D-01 BMatP= 1.74D-01
 IDIUse=3 WtCom= 5.52D-01 WtEn= 4.48D-01
 Coeff-Com:  0.100D+01
 Coeff-En:   0.100D+01
 Coeff:      0.100D+01
 Gap=     0.296 Goal=   None    Shift=    0.000
 GapD=    0.296 DampG=1.000 DampE=0.500 DampFc=0.5000 IDamp=-1.
 Damping current iteration by 5.00D-01
 RMSDP=2.39D-03 MaxDP=7.51D-02              OVMax= 1.73D-01

 Cycle   2  Pass 0  IDiag  1:
 E= -76.2847754861790     Delta-E=       -0.040223425308 Rises=F Damp=T
 DIIS: error= 1.66D-02 at cycle   2 NSaved=   2.
 NSaved= 2 IEnMin= 2 EnMin= -76.2847754861790     IErMin= 2 ErrMin= 1.66D-02
 ErrMax= 1.66D-02  0.00D+00 EMaxC= 1.00D-01 BMatC= 1.04D-02 BMatP= 1.74D-01
 IDIUse=3 WtCom= 8.34D-01 WtEn= 1.66D-01
 Coeff-Com:  0.692D-02 0.993D+00
 Coeff-En:   0.122D+00 0.878D+00
 Coeff:      0.260D-01 0.974D+00
 Gap=     0.448 Goal=   None    Shift=    0.000
 RMSDP=3.46D-04 MaxDP=1.16D-02 DE=-4.02D-02 OVMax= 1.02D-01

 Cycle   3  Pass 0  IDiag  1:
 E= -76.3341552602561     Delta-E=       -0.049379774077 Rises=F Damp=F
 DIIS: error= 2.96D-03 at cycle   3 NSaved=   3.
 NSaved= 3 IEnMin= 3 EnMin= -76.3341552602561     IErMin= 3 ErrMin= 2.96D-03
 ErrMax= 2.96D-03  0.00D+00 EMaxC= 1.00D-01 BMatC= 5.19D-04 BMatP= 1.04D-02
 IDIUse=3 WtCom= 9.70D-01 WtEn= 2.96D-02
 Coeff-Com: -0.540D-01 0.689D-01 0.985D+00
 Coeff-En:   0.000D+00 0.000D+00 0.100D+01
 Coeff:     -0.524D-01 0.669D-01 0.986D+00
 Gap=     0.447 Goal=   None    Shift=    0.000
 RMSDP=8.30D-05 MaxDP=2.84D-03 DE=-4.94D-02 OVMax= 6.13D-03

 Cycle   4  Pass 0  IDiag  1:
 E= -76.3345139050530     Delta-E=       -0.000358644797 Rises=F Damp=F
 DIIS: error= 2.49D-04 at cycle   4 NSaved=   4.
 NSaved= 4 IEnMin= 4 EnMin= -76.3345139050530     IErMin= 4 ErrMin= 2.49D-04
 ErrMax= 2.49D-04  0.00D+00 EMaxC= 1.00D-01 BMatC= 3.42D-06 BMatP= 5.19D-04
 IDIUse=3 WtCom= 9.98D-01 WtEn= 2.49D-03
 Coeff-Com:  0.361D-02-0.882D-02-0.899D-03 0.101D+01
 Coeff-En:   0.000D+00 0.000D+00 0.000D+00 0.100D+01
 Coeff:      0.361D-02-0.880D-02-0.897D-03 0.101D+01
 Gap=     0.448 Goal=   None    Shift=    0.000
 RMSDP=1.18D-05 MaxDP=4.17D-04 DE=-3.59D-04 OVMax= 6.97D-04

 Cycle   5  Pass 0  IDiag  1:
 E= -76.3345164500874     Delta-E=       -0.000002545034 Rises=F Damp=F
 DIIS: error= 4.23D-05 at cycle   5 NSaved=   5.
 NSaved= 5 IEnMin= 5 EnMin= -76.3345164500874     IErMin= 5 ErrMin= 4.23D-05
 ErrMax= 4.23D-05  0.00D+00 EMaxC= 1.00D-01 BMatC= 4.94D-08 BMatP= 3.42D-06
 IDIUse=1 WtCom= 1.00D+00 WtEn= 0.00D+00
 Coeff-Com:  0.187D-02-0.277D-02-0.281D-01 0.505D-01 0.978D+00
 Coeff:      0.187D-02-0.277D-02-0.281D-01 0.505D-01 0.978D+00
 Gap=     0.448 Goal=   None    Shift=    0.000
 RMSDP=2.07D-06 MaxDP=6.28D-05 DE=-2.55D-06 OVMax= 1.39D-04

 Initial convergence to 1.0D-05 achieved.  Increase integral accuracy.
 Cycle   6  Pass 1  IDiag  1:
 E= -76.3345132654427     Delta-E=        0.000003184645 Rises=F Damp=F
 DIIS: error= 1.19D-05 at cycle   1 NSaved=   1.
 NSaved= 1 IEnMin= 1 EnMin= -76.3345132654427     IErMin= 1 ErrMin= 1.19D-05
 ErrMax= 1.19D-05  0.00D+00 EMaxC= 1.00D-01 BMatC= 1.26D-08 BMatP= 1.26D-08
 IDIUse=1 WtCom= 1.00D+00 WtEn= 0.00D+00
 Coeff-Com:  0.100D+01
 Coeff:      0.100D+01
 Gap=     0.448 Goal=   None    Shift=    0.000
 RMSDP=2.07D-06 MaxDP=6.28D-05 DE= 3.18D-06 OVMax= 3.85D-05

 Cycle   7  Pass 1  IDiag  1:
 E= -76.3345132707619     Delta-E=       -0.000000005319 Rises=F Damp=F
 DIIS: error= 5.49D-06 at cycle   2 NSaved=   2.
 NSaved= 2 IEnMin= 2 EnMin= -76.3345132707619     IErMin= 2 ErrMin= 5.49D-06
 ErrMax= 5.49D-06  0.00D+00 EMaxC= 1.00D-01 BMatC= 9.28D-10 BMatP= 1.26D-08
 IDIUse=1 WtCom= 1.00D+00 WtEn= 0.00D+00
 Coeff-Com:  0.772D-01 0.923D+00
 Coeff:      0.772D-01 0.923D+00
 Gap=     0.448 Goal=   None    Shift=    0.000
 RMSDP=1.98D-07 MaxDP=6.32D-06 DE=-5.32D-09 OVMax= 1.93D-05

 Cycle   8  Pass 1  IDiag  1:
 E= -76.3345132711785     Delta-E=       -0.000000000417 Rises=F Damp=F
 DIIS: error= 3.22D-06 at cycle   3 NSaved=   3.
 NSaved= 3 IEnMin= 3 EnMin= -76.3345132711785     IErMin= 3 ErrMin= 3.22D-06
 ErrMax= 3.22D-06  0.00D+00 EMaxC= 1.00D-01 BMatC= 6.91D-10 BMatP= 9.28D-10
 IDIUse=1 WtCom= 1.00D+00 WtEn= 0.00D+00
 Coeff-Com: -0.317D-01 0.464D+00 0.568D+00
 Coeff:     -0.317D-01 0.464D+00 0.568D+00
 Gap=     0.448 Goal=   None    Shift=    0.000
 RMSDP=8.98D-08 MaxDP=3.24D-06 DE=-4.17D-10 OVMax= 7.55D-06

 Cycle   9  Pass 1  IDiag  1:
 E= -76.3345132716347     Delta-E=       -0.000000000456 Rises=F Damp=F
 DIIS: error= 4.88D-07 at cycle   4 NSaved=   4.
 NSaved= 4 IEnMin= 4 EnMin= -76.3345132716347     IErMin= 4 ErrMin= 4.88D-07
 ErrMax= 4.88D-07  0.00D+00 EMaxC= 1.00D-01 BMatC= 6.58D-12 BMatP= 6.91D-10
 IDIUse=1 WtCom= 1.00D+00 WtEn= 0.00D+00
 Coeff-Com: -0.460D-02-0.659D-01-0.140D-01 0.108D+01
 Coeff:     -0.460D-02-0.659D-01-0.140D-01 0.108D+01
 Gap=     0.448 Goal=   None    Shift=    0.000
 RMSDP=2.64D-08 MaxDP=7.68D-07 DE=-4.56D-10 OVMax= 2.09D-06

 Cycle  10  Pass 1  IDiag  1:
 E= -76.3345132716470     Delta-E=       -0.000000000012 Rises=F Damp=F
 DIIS: error= 7.49D-08 at cycle   5 NSaved=   5.
 NSaved= 5 IEnMin= 5 EnMin= -76.3345132716470     IErMin= 5 ErrMin= 7.49D-08
 ErrMax= 7.49D-08  0.00D+00 EMaxC= 1.00D-01 BMatC= 3.11D-13 BMatP= 6.58D-12
 IDIUse=1 WtCom= 1.00D+00 WtEn= 0.00D+00
 Coeff-Com:  0.173D-02-0.426D-01-0.424D-01 0.134D+00 0.949D+00
 Coeff:      0.173D-02-0.426D-01-0.424D-01 0.134D+00 0.949D+00
 Gap=     0.448 Goal=   None    Shift=    0.000
 RMSDP=4.91D-09 MaxDP=1.25D-07 DE=-1.23D-11 OVMax= 4.70D-07

 SCF Done:  E(RB2PLYPD3) =  -76.3345132716     A.U. after   10 cycles
            NFock= 10  Conv=0.49D-08     -V/T= 2.0019
 KE= 7.619204522441D+01 PE=-1.995443756051D+02 EE= 3.767474619494D+01
 Leave Link  502 at Wed Aug 26 08:32:05 2020, MaxMem=  2097152000 cpu:        10.9
 (Enter /opt/cluster/programs/g09/g09_d.01/g09/l801.exe)
 DoSCS=T DFT=T ScalE2(SS,OS)=  0.270000  0.270000
 ExpMin= 8.03D-02 ExpMax= 1.17D+05 ExpMxC= 1.13D+03 IAcc=3 IRadAn=         5 AccDes= 0.00D+00
 HarFok:  IExCor=  205 AccDes= 0.00D+00 IRadAn=         5 IDoV=-2 UseB2=F ITyADJ=14
 ICtDFT= 12500011 ScaDFX=  1.000000  1.000000  1.000000  1.000000
 Largest valence mixing into a core orbital is  6.71D-05
 Largest core mixing into a valence orbital is  9.63D-06
 Range of M.O.s used for correlation:     2   117
 NBasis=   117 NAE=     5 NBE=     5 NFC=     1 NFV=     0
 NROrb=    116 NOA=     4 NOB=     4 NVA=   112 NVB=   112

 **** Warning!!: The largest alpha MO coefficient is  0.16298768D+02

 Leave Link  801 at Wed Aug 26 08:32:05 2020, MaxMem=  2097152000 cpu:         0.3
 (Enter /opt/cluster/programs/g09/g09_d.01/g09/l906.exe)
 DoSCS=T DFT=T ScalE2(SS,OS)=  0.270000  0.270000
 FulOut=F Deriv=F AODrv=F NAtomX=     3
   MMem=       16445  MDisk=           4 MDiskD=           4
  W3Min=       63616 MinDsk=      271641 NBas6D=         142
 NBas2D=       10573    NTT=       10153    LW2=     4508827
    MDV=  2097048983 MDiskM=       32786 NBas2p=       10573
 Fully in-core method, ICMem=   125836233.
 IMap=   1   2   3   4
 JobTyp=1 Pass  1 fully in-core, NPsUse=  8.
 Compute canonical integrals.
 FoFCou: FMM=F IPFlag=           0 FMFlag=           0 FMFlg1=           0
         NFxFlg=           0 DoJE=F BraDBF=F KetDBF=F FulRan=T
         wScrn=  0.000000 ICntrl=     600 IOpCl=  1 I1Cent=           0 NGrid=           0
         NMat0=    1 NMatS0=  10573 NMatT0=    0 NMatD0=    1 NMtDS0=    0 NMtDT0=    0
 Symmetry not used in FoFCou.
 Spin components of T(2) and E(2):
     alpha-alpha T2 =       0.1193186388D-01 E2=     -0.1068766085D-01
     alpha-beta  T2 =       0.6902995184D-01 E2=     -0.6808094774D-01
     beta-beta   T2 =       0.1193186388D-01 E2=     -0.1068766085D-01
 The integrals were generated   1 times.
 E2(B2PLYPD3) =    -0.8945626944D-01 E(B2PLYPD3) =    -0.76423969541089D+02
 Leave Link  906 at Wed Aug 26 08:32:06 2020, MaxMem=  2097152000 cpu:        10.9
 (Enter /opt/cluster/programs/g09/g09_d.01/g09/l601.exe)
 Copying SCF densities to generalized density rwf, IOpCl= 0 IROHF=0.

 **********************************************************************

            Population analysis using the SCF density.

 **********************************************************************

 Orbital symmetries:
       Occupied  (A') (A') (A') (A') (A")
       Virtual   (A') (A') (A') (A") (A') (A') (A') (A') (A") (A")
                 (A') (A') (A') (A') (A') (A') (A") (A') (A") (A')
                 (A") (A') (A') (A") (A') (A') (A") (A') (A") (A')
                 (A') (A") (A') (A') (A") (A") (A') (A') (A') (A')
                 (A') (A") (A") (A') (A") (A') (A') (A') (A") (A')
                 (A") (A') (A') (A") (A') (A') (A") (A') (A") (A')
                 (A") (A') (A') (A') (A") (A") (A') (A") (A') (A')
                 (A') (A') (A") (A") (A") (A') (A') (A") (A') (A')
                 (A') (A") (A') (A") (A') (A') (A') (A") (A') (A")
                 (A') (A') (A") (A") (A') (A") (A') (A") (A') (A')
                 (A") (A') (A') (A') (A') (A") (A") (A') (A') (A')
                 (A') (A')
 The electronic state is 1-A'.
 Alpha  occ. eigenvalues --  -19.72854  -1.16494  -0.62062  -0.47661  -0.40109
 Alpha virt. eigenvalues --    0.04704   0.10360   0.27397   0.30370   0.31256
 Alpha virt. eigenvalues --    0.36634   0.44488   0.50424   0.56435   0.62352
 Alpha virt. eigenvalues --    0.65204   0.81548   0.94195   0.95615   1.04881
 Alpha virt. eigenvalues --    1.09971   1.33831   1.34071   1.35459   1.41947
 Alpha virt. eigenvalues --    1.43220   1.49071   1.83597   1.93390   2.04088
 Alpha virt. eigenvalues --    2.05478   2.14898   2.32052   2.33598   2.37158
 Alpha virt. eigenvalues --    2.38118   2.46090   2.56541   2.61179   2.69917
 Alpha virt. eigenvalues --    2.74269   2.91754   2.99198   3.18735   3.20360
 Alpha virt. eigenvalues --    3.35528   3.81096   3.89584   3.93755   3.94733
 Alpha virt. eigenvalues --    4.13486   4.19582   4.31066   4.31514   4.50773
 Alpha virt. eigenvalues --    4.74644   4.87124   4.96786   5.40461   5.44138
 Alpha virt. eigenvalues --    5.53365   5.79370   6.03259   6.08095   6.17793
 Alpha virt. eigenvalues --    6.56995   6.62850   6.90017   7.18710   7.19007
 Alpha virt. eigenvalues --    7.22600   7.24444   7.33047   7.42224   7.47436
 Alpha virt. eigenvalues --    7.49005   7.59760   7.75550   7.86938   7.92259
 Alpha virt. eigenvalues --    7.97822   8.01192   8.10525   8.15425   8.43888
 Alpha virt. eigenvalues --    8.66179   8.75447   8.93430   9.01724   9.25039
 Alpha virt. eigenvalues --    9.28010  10.00370  10.06104  10.43238  10.49413
 Alpha virt. eigenvalues --   10.87272  10.98194  11.13746  11.29649  11.30282
 Alpha virt. eigenvalues --   11.49420  11.66346  11.96767  12.02104  12.11956
 Alpha virt. eigenvalues --   12.16154  12.43933  13.19647  13.69906  13.94821
 Alpha virt. eigenvalues --   13.95847  14.45562  14.69943  16.80543  17.09187
 Alpha virt. eigenvalues --   48.84700 254.59866
          Condensed to atoms (all electrons):
               1          2          3
     1  O    7.745058   0.339873   0.343836
     2  H    0.339873   0.459295  -0.021886
     3  H    0.343836  -0.021886   0.472001
 Mulliken charges:
               1
     1  O   -0.428766
     2  H    0.222717
     3  H    0.206049
 Sum of Mulliken charges =   0.00000
 Mulliken charges with hydrogens summed into heavy atoms:
               1
     1  O    0.000000
 Electronic spatial extent (au):  <R**2>=             19.4319
 Charge=              0.0000 electrons
 Dipole moment (field-independent basis, Debye):
    X=             -0.0172    Y=             -1.9482    Z=              0.0000  Tot=              1.9482
 Quadrupole moment (field-independent basis, Debye-Ang):
   XX=             -4.3704   YY=             -6.3153   ZZ=             -7.5555
   XY=             -0.0901   XZ=              0.0000   YZ=              0.0000
 Traceless Quadrupole moment (field-independent basis, Debye-Ang):
   XX=              1.7100   YY=             -0.2349   ZZ=             -1.4751
   XY=             -0.0901   XZ=              0.0000   YZ=              0.0000
 Octapole moment (field-independent basis, Debye-Ang**2):
  XXX=             -0.0524  YYY=             -1.1909  ZZZ=              0.0000  XYY=              0.0582
  XXY=             -1.3140  XXZ=              0.0000  XZZ=             -0.0193  YZZ=             -0.2932
  YYZ=              0.0000  XYZ=              0.0000
 Hexadecapole moment (field-independent basis, Debye-Ang**3):
 XXXX=             -6.0787 YYYY=             -7.2607 ZZZZ=             -6.6994 XXXY=              0.0081
 XXXZ=              0.0000 YYYX=              0.0007 YYYZ=              0.0000 ZZZX=              0.0000
 ZZZY=              0.0000 XXYY=             -1.9058 XXZZ=             -2.4388 YYZZ=             -2.3788
 XXYZ=              0.0000 YYXZ=              0.0000 ZZXY=              0.0236
 N-N= 9.343070914131D+00 E-N=-1.995443750360D+02  KE= 7.619204522441D+01
 Symmetry A'   KE= 7.167642899602D+01
 Symmetry A"   KE= 4.515616228386D+00
 Leave Link  601 at Wed Aug 26 08:32:06 2020, MaxMem=  2097152000 cpu:         0.2
 (Enter /opt/cluster/programs/g09/g09_d.01/g09/l9999.exe)
 1\1\GINC-NODE39\SP\RB2PLYPD3-FC\def2QZVP\H2O1\BOITTIER\26-Aug-2020\0\\
 #p B2PLYPD3/Def2QZVP\\h2o\\0,1\O,0,-5.326605,-0.762708,0.92185\H,0,-4.
 368927,-0.715536,0.898334\H,0,-5.609308,0.102905,0.757384\\Version=ES6
 4L-G09RevD.01\State=1-A'\HF=-76.3345133\MP2=-76.4239695\RMSD=4.908e-09
 \PG=CS [SG(H2O1)]\\@


 REALITY IS FOR PEOPLE WHO CAN'T FACE SCIENCE FICTION.
 Job cpu time:       0 days  0 hours  0 minutes 26.8 seconds.
 File lengths (MBytes):  RWF=      8 Int=      0 D2E=      0 Chk=      2 Scr=      1
 Normal termination of Gaussian 09 at Wed Aug 26 08:32:07 2020.
