 Entering Gaussian System, Link 0=/opt/cluster/programs/g09/g09_d.01/g09//g09
 Input=/home/boittier/MDCM/nms_sampling/h2o_geom.xyz.dir/energies/h2o_792_energy.com
 Output=/scratch/boittier/h2o_792_energy/h2o_792_energy.out
 Initial command:
 /opt/cluster/programs/g09/g09_d.01/g09/l1.exe "/scratch/boittier/h2o_792_energy/Gau-119616.inp" -scrdir="/scratch/boittier/h2o_792_energy/"
 Entering Link 1 = /opt/cluster/programs/g09/g09_d.01/g09/l1.exe PID=    119617.
  
 Copyright (c) 1988,1990,1992,1993,1995,1998,2003,2009,2013,
            Gaussian, Inc.  All Rights Reserved.
  
 This is part of the Gaussian(R) 09 program.  It is based on
 the Gaussian(R) 03 system (copyright 2003, Gaussian, Inc.),
 the Gaussian(R) 98 system (copyright 1998, Gaussian, Inc.),
 the Gaussian(R) 94 system (copyright 1995, Gaussian, Inc.),
 the Gaussian 92(TM) system (copyright 1992, Gaussian, Inc.),
 the Gaussian 90(TM) system (copyright 1990, Gaussian, Inc.),
 the Gaussian 88(TM) system (copyright 1988, Gaussian, Inc.),
 the Gaussian 86(TM) system (copyright 1986, Carnegie Mellon
 University), and the Gaussian 82(TM) system (copyright 1983,
 Carnegie Mellon University). Gaussian is a federally registered
 trademark of Gaussian, Inc.
  
 This software contains proprietary and confidential information,
 including trade secrets, belonging to Gaussian, Inc.
  
 This software is provided under written license and may be
 used, copied, transmitted, or stored only in accord with that
 written license.
  
 The following legend is applicable only to US Government
 contracts under FAR:
  
                    RESTRICTED RIGHTS LEGEND
  
 Use, reproduction and disclosure by the US Government is
 subject to restrictions as set forth in subparagraphs (a)
 and (c) of the Commercial Computer Software - Restricted
 Rights clause in FAR 52.227-19.
  
 Gaussian, Inc.
 340 Quinnipiac St., Bldg. 40, Wallingford CT 06492
  
  
 ---------------------------------------------------------------
 Warning -- This program may not be used in any manner that
 competes with the business of Gaussian, Inc. or will provide
 assistance to any competitor of Gaussian, Inc.  The licensee
 of this program is prohibited from giving any competitor of
 Gaussian, Inc. access to this program.  By using this program,
 the user acknowledges that Gaussian, Inc. is engaged in the
 business of creating and licensing software in the field of
 computational chemistry and represents and warrants to the
 licensee that it is not a competitor of Gaussian, Inc. and that
 it will not use this program in any manner prohibited above.
 ---------------------------------------------------------------
  

 Cite this work as:
 Gaussian 09, Revision D.01,
 M. J. Frisch, G. W. Trucks, H. B. Schlegel, G. E. Scuseria, 
 M. A. Robb, J. R. Cheeseman, G. Scalmani, V. Barone, B. Mennucci, 
 G. A. Petersson, H. Nakatsuji, M. Caricato, X. Li, H. P. Hratchian, 
 A. F. Izmaylov, J. Bloino, G. Zheng, J. L. Sonnenberg, M. Hada, 
 M. Ehara, K. Toyota, R. Fukuda, J. Hasegawa, M. Ishida, T. Nakajima, 
 Y. Honda, O. Kitao, H. Nakai, T. Vreven, J. A. Montgomery, Jr., 
 J. E. Peralta, F. Ogliaro, M. Bearpark, J. J. Heyd, E. Brothers, 
 K. N. Kudin, V. N. Staroverov, T. Keith, R. Kobayashi, J. Normand, 
 K. Raghavachari, A. Rendell, J. C. Burant, S. S. Iyengar, J. Tomasi, 
 M. Cossi, N. Rega, J. M. Millam, M. Klene, J. E. Knox, J. B. Cross, 
 V. Bakken, C. Adamo, J. Jaramillo, R. Gomperts, R. E. Stratmann, 
 O. Yazyev, A. J. Austin, R. Cammi, C. Pomelli, J. W. Ochterski, 
 R. L. Martin, K. Morokuma, V. G. Zakrzewski, G. A. Voth, 
 P. Salvador, J. J. Dannenberg, S. Dapprich, A. D. Daniels, 
 O. Farkas, J. B. Foresman, J. V. Ortiz, J. Cioslowski, 
 and D. J. Fox, Gaussian, Inc., Wallingford CT, 2013.
 
 ******************************************
 Gaussian 09:  ES64L-G09RevD.01 24-Apr-2013
                26-Aug-2020 
 ******************************************
 %chk=/home/boittier/MDCM/nms_sampling/h2o_geom.xyz.dir/h2o_792.chk
 %nproc=8
 Will use up to    8 processors via shared memory.
 %mem=16000MB
 --------------------
 #p B2PLYPD3/Def2QZVP
 --------------------
 1/38=1/1;
 2/12=2,17=6,18=5,40=1/2;
 3/5=45,7=101,11=9,16=1,25=1,30=1,74=-60/1,2,3;
 4//1;
 5/5=2,38=5/2;
 8/10=1/1;
 9/16=-3/6;
 6/7=2,8=2,9=2,10=2/1;
 99/5=1,9=1/99;
 Leave Link    1 at Wed Aug 26 12:02:29 2020, MaxMem=  2097152000 cpu:         0.2
 (Enter /opt/cluster/programs/g09/g09_d.01/g09/l101.exe)
 ---
 h2o
 ---
 Symbolic Z-matrix:
 Charge =  0 Multiplicity = 1
 O                    -5.3266   -0.76639   0.9239 
 H                    -4.36893  -0.72208   0.90511 
 H                    -5.60931   0.16841   0.7189 
 
 NAtoms=      3 NQM=        3 NQMF=       0 NMMI=      0 NMMIF=      0
                NMic=       0 NMicF=      0.
                    Isotopes and Nuclear Properties:
 (Nuclear quadrupole moments (NQMom) in fm**2, nuclear magnetic moments (NMagM)
  in nuclear magnetons)

  Atom         1           2           3
 IAtWgt=          16           1           1
 AtmWgt=  15.9949146   1.0078250   1.0078250
 NucSpn=           0           1           1
 AtZEff=   0.0000000   0.0000000   0.0000000
 NQMom=    0.0000000   0.0000000   0.0000000
 NMagM=    0.0000000   2.7928460   2.7928460
 AtZNuc=   8.0000000   1.0000000   1.0000000
 Leave Link  101 at Wed Aug 26 12:02:29 2020, MaxMem=  2097152000 cpu:         0.4
 (Enter /opt/cluster/programs/g09/g09_d.01/g09/l202.exe)
                          Input orientation:                          
 ---------------------------------------------------------------------
 Center     Atomic      Atomic             Coordinates (Angstroms)
 Number     Number       Type             X           Y           Z
 ---------------------------------------------------------------------
      1          8           0       -5.326605   -0.766392    0.923900
      2          1           0       -4.368927   -0.722084    0.905114
      3          1           0       -5.609308    0.168405    0.718897
 ---------------------------------------------------------------------
                    Distance matrix (angstroms):
                    1          2          3
     1  O    0.000000
     2  H    0.958886   0.000000
     3  H    0.997894   1.538243   0.000000
 Stoichiometry    H2O
 Framework group  CS[SG(H2O)]
 Deg. of freedom     3
 Full point group                 CS      NOp   2
 Largest Abelian subgroup         CS      NOp   2
 Largest concise Abelian subgroup C1      NOp   1
                         Standard orientation:                         
 ---------------------------------------------------------------------
 Center     Atomic      Atomic             Coordinates (Angstroms)
 Number     Number       Type             X           Y           Z
 ---------------------------------------------------------------------
      1          8           0        0.000000    0.121009    0.000000
      2          1           0        0.768475   -0.452498    0.000000
      3          1           0       -0.768475   -0.515575    0.000000
 ---------------------------------------------------------------------
 Rotational constants (GHZ):    774.0850480    422.9858427    273.5234971
 Leave Link  202 at Wed Aug 26 12:02:29 2020, MaxMem=  2097152000 cpu:         0.0
 (Enter /opt/cluster/programs/g09/g09_d.01/g09/l301.exe)
 Standard basis: def2QZVP (5D, 7F)
 Ernie: Thresh=  0.10000D-02 Tol=  0.10000D-05 Strict=F.
 There are    96 symmetry adapted cartesian basis functions of A'  symmetry.
 There are    46 symmetry adapted cartesian basis functions of A"  symmetry.
 There are    77 symmetry adapted basis functions of A'  symmetry.
 There are    40 symmetry adapted basis functions of A"  symmetry.
   117 basis functions,   168 primitive gaussians,   142 cartesian basis functions
     5 alpha electrons        5 beta electrons
       nuclear repulsion energy         9.0012966604 Hartrees.
 IExCor=  419 DFT=T Ex+Corr=B2PLYPD3 ExCW=0 ScaHFX=  0.530000
 ScaDFX=  0.470000  0.470000  0.730000  0.730000 ScalE2=  0.270000  0.270000
 IRadAn=      0 IRanWt=     -1 IRanGd=            0 ICorTp=0 IEmpDi=141
 NAtoms=    3 NActive=    3 NUniq=    3 SFac= 1.00D+00 NAtFMM=   60 NAOKFM=F Big=F
 Integral buffers will be    131072 words long.
 Regular integral format.
 Two-electron integral symmetry is turned on.
 R6Disp:  Grimme-D3(BJ) Dispersion energy=       -0.0002343480 Hartrees.
 Nuclear repulsion after empirical dispersion term =        9.0010623124 Hartrees.
 Leave Link  301 at Wed Aug 26 12:02:29 2020, MaxMem=  2097152000 cpu:         0.5
 (Enter /opt/cluster/programs/g09/g09_d.01/g09/l302.exe)
 NPDir=0 NMtPBC=     1 NCelOv=     1 NCel=       1 NClECP=     1 NCelD=      1
         NCelK=      1 NCelE2=     1 NClLst=     1 CellRange=     0.0.
 One-electron integrals computed using PRISM.
   1 Symmetry operations used in ECPInt.
 ECPInt:  NShTT=     703 NPrTT=    1591 LenC2=     704 LenP2D=    1543.
 LDataN:  DoStor=T MaxTD1= 8 Len=  415
 NBasis=   117 RedAO= T EigKep=  4.89D-04  NBF=    77    40
 NBsUse=   117 1.00D-06 EigRej= -1.00D+00 NBFU=    77    40
 Precomputing XC quadrature grid using
 IXCGrd= 4 IRadAn=           0 IRanWt=          -1 IRanGd=           0 AccXCQ= 0.00D+00.
 Generated NRdTot=       0 NPtTot=           0 NUsed=           0 NTot=          32
 NSgBfM=   142   142   142   142   142 MxSgAt=     3 MxSgA2=     3.
 Leave Link  302 at Wed Aug 26 12:02:30 2020, MaxMem=  2097152000 cpu:         1.4
 (Enter /opt/cluster/programs/g09/g09_d.01/g09/l303.exe)
 DipDrv:  MaxL=1.
 Leave Link  303 at Wed Aug 26 12:02:30 2020, MaxMem=  2097152000 cpu:         0.2
 (Enter /opt/cluster/programs/g09/g09_d.01/g09/l401.exe)
 ExpMin= 8.03D-02 ExpMax= 1.17D+05 ExpMxC= 1.13D+03 IAcc=2 IRadAn=         4 AccDes= 0.00D+00
 Harris functional with IExCor=  419 and IRadAn=       4 diagonalized for initial guess.
 HarFok:  IExCor=  419 AccDes= 0.00D+00 IRadAn=         4 IDoV= 1 UseB2=F ITyADJ=14
 ICtDFT=  3500011 ScaDFX=  1.000000  1.000000  1.000000  1.000000
 FoFCou: FMM=F IPFlag=           0 FMFlag=      100000 FMFlg1=           0
         NFxFlg=           0 DoJE=T BraDBF=F KetDBF=T FulRan=T
         wScrn=  0.000000 ICntrl=     500 IOpCl=  0 I1Cent=   200000004 NGrid=           0
         NMat0=    1 NMatS0=      1 NMatT0=    0 NMatD0=    1 NMtDS0=    0 NMtDT0=    0
 Petite list used in FoFCou.
 Harris En= -76.5049253771847    
 JPrj=0 DoOrth=F DoCkMO=F.
 Initial guess orbital symmetries:
       Occupied  (A') (A') (A') (A') (A")
       Virtual   (A') (A') (A') (A') (A") (A') (A') (A') (A") (A")
                 (A') (A') (A') (A') (A') (A') (A') (A") (A") (A")
                 (A') (A') (A') (A") (A') (A') (A") (A') (A") (A')
                 (A') (A") (A') (A') (A") (A") (A') (A') (A') (A')
                 (A') (A") (A") (A') (A") (A') (A') (A") (A') (A')
                 (A") (A') (A') (A") (A') (A') (A") (A') (A") (A')
                 (A") (A') (A') (A") (A') (A") (A') (A') (A") (A')
                 (A') (A') (A") (A") (A') (A") (A') (A") (A') (A')
                 (A') (A") (A') (A") (A') (A') (A") (A') (A') (A")
                 (A') (A') (A") (A') (A") (A") (A') (A") (A') (A')
                 (A") (A') (A') (A') (A") (A') (A") (A') (A') (A')
                 (A') (A')
 The electronic state of the initial guess is 1-A'.
 Leave Link  401 at Wed Aug 26 12:02:30 2020, MaxMem=  2097152000 cpu:         1.5
 (Enter /opt/cluster/programs/g09/g09_d.01/g09/l502.exe)
 Closed shell SCF:
 Using DIIS extrapolation, IDIIS=  1040.
 Integral symmetry usage will be decided dynamically.
 Keep R1 ints in memory in symmetry-blocked form, NReq=35980147.
 IVT=       81231 IEndB=       81231 NGot=  2097152000 MDV=  2085001127
 LenX=  2085001127 LenY=  2084980522
 Requested convergence on RMS density matrix=1.00D-08 within 128 cycles.
 Requested convergence on MAX density matrix=1.00D-06.
 Requested convergence on             energy=1.00D-06.
 No special actions if energy rises.
 FoFCou: FMM=F IPFlag=           0 FMFlag=           0 FMFlg1=           0
         NFxFlg=           0 DoJE=F BraDBF=F KetDBF=F FulRan=T
         wScrn=  0.000000 ICntrl=     600 IOpCl=  0 I1Cent=           0 NGrid=           0
         NMat0=    1 NMatS0=   6903 NMatT0=    0 NMatD0=    1 NMtDS0=    0 NMtDT0=    0
 Petite list used in FoFCou.
 Integral accuracy reduced to 1.0D-05 until final iterations.

 Cycle   1  Pass 0  IDiag  1:
 E= -76.2477556464628    
 DIIS: error= 4.12D-02 at cycle   1 NSaved=   1.
 NSaved= 1 IEnMin= 1 EnMin= -76.2477556464628     IErMin= 1 ErrMin= 4.12D-02
 ErrMax= 4.12D-02  0.00D+00 EMaxC= 1.00D-01 BMatC= 1.64D-01 BMatP= 1.64D-01
 IDIUse=3 WtCom= 5.88D-01 WtEn= 4.12D-01
 Coeff-Com:  0.100D+01
 Coeff-En:   0.100D+01
 Coeff:      0.100D+01
 Gap=     0.294 Goal=   None    Shift=    0.000
 GapD=    0.294 DampG=1.000 DampE=0.500 DampFc=0.5000 IDamp=-1.
 Damping current iteration by 5.00D-01
 RMSDP=2.38D-03 MaxDP=7.74D-02              OVMax= 1.70D-01

 Cycle   2  Pass 0  IDiag  1:
 E= -76.2848094540096     Delta-E=       -0.037053807547 Rises=F Damp=T
 DIIS: error= 1.49D-02 at cycle   2 NSaved=   2.
 NSaved= 2 IEnMin= 2 EnMin= -76.2848094540096     IErMin= 2 ErrMin= 1.49D-02
 ErrMax= 1.49D-02  0.00D+00 EMaxC= 1.00D-01 BMatC= 1.08D-02 BMatP= 1.64D-01
 IDIUse=3 WtCom= 8.51D-01 WtEn= 1.49D-01
 Coeff-Com:  0.219D-01 0.978D+00
 Coeff-En:   0.151D+00 0.849D+00
 Coeff:      0.411D-01 0.959D+00
 Gap=     0.441 Goal=   None    Shift=    0.000
 RMSDP=3.48D-04 MaxDP=1.21D-02 DE=-3.71D-02 OVMax= 1.02D-01

 Cycle   3  Pass 0  IDiag  1:
 E= -76.3326866347563     Delta-E=       -0.047877180747 Rises=F Damp=F
 DIIS: error= 3.35D-03 at cycle   3 NSaved=   3.
 NSaved= 3 IEnMin= 3 EnMin= -76.3326866347563     IErMin= 3 ErrMin= 3.35D-03
 ErrMax= 3.35D-03  0.00D+00 EMaxC= 1.00D-01 BMatC= 5.76D-04 BMatP= 1.08D-02
 IDIUse=3 WtCom= 9.66D-01 WtEn= 3.35D-02
 Coeff-Com: -0.572D-01 0.756D-01 0.982D+00
 Coeff-En:   0.000D+00 0.000D+00 0.100D+01
 Coeff:     -0.553D-01 0.731D-01 0.982D+00
 Gap=     0.440 Goal=   None    Shift=    0.000
 RMSDP=8.45D-05 MaxDP=2.63D-03 DE=-4.79D-02 OVMax= 6.72D-03

 Cycle   4  Pass 0  IDiag  1:
 E= -76.3330911455253     Delta-E=       -0.000404510769 Rises=F Damp=F
 DIIS: error= 2.75D-04 at cycle   4 NSaved=   4.
 NSaved= 4 IEnMin= 4 EnMin= -76.3330911455253     IErMin= 4 ErrMin= 2.75D-04
 ErrMax= 2.75D-04  0.00D+00 EMaxC= 1.00D-01 BMatC= 4.62D-06 BMatP= 5.76D-04
 IDIUse=3 WtCom= 9.97D-01 WtEn= 2.75D-03
 Coeff-Com:  0.497D-03-0.538D-02 0.550D-01 0.950D+00
 Coeff-En:   0.000D+00 0.000D+00 0.000D+00 0.100D+01
 Coeff:      0.495D-03-0.536D-02 0.549D-01 0.950D+00
 Gap=     0.441 Goal=   None    Shift=    0.000
 RMSDP=1.18D-05 MaxDP=4.22D-04 DE=-4.05D-04 OVMax= 7.92D-04

 Cycle   5  Pass 0  IDiag  1:
 E= -76.3330944892334     Delta-E=       -0.000003343708 Rises=F Damp=F
 DIIS: error= 6.05D-05 at cycle   5 NSaved=   5.
 NSaved= 5 IEnMin= 5 EnMin= -76.3330944892334     IErMin= 5 ErrMin= 6.05D-05
 ErrMax= 6.05D-05  0.00D+00 EMaxC= 1.00D-01 BMatC= 8.67D-08 BMatP= 4.62D-06
 IDIUse=1 WtCom= 1.00D+00 WtEn= 0.00D+00
 Coeff-Com:  0.249D-02-0.369D-02-0.362D-01 0.165D-01 0.102D+01
 Coeff:      0.249D-02-0.369D-02-0.362D-01 0.165D-01 0.102D+01
 Gap=     0.441 Goal=   None    Shift=    0.000
 RMSDP=2.76D-06 MaxDP=8.63D-05 DE=-3.34D-06 OVMax= 2.09D-04

 Initial convergence to 1.0D-05 achieved.  Increase integral accuracy.
 Cycle   6  Pass 1  IDiag  1:
 E= -76.3330896500757     Delta-E=        0.000004839158 Rises=F Damp=F
 DIIS: error= 1.21D-05 at cycle   1 NSaved=   1.
 NSaved= 1 IEnMin= 1 EnMin= -76.3330896500757     IErMin= 1 ErrMin= 1.21D-05
 ErrMax= 1.21D-05  0.00D+00 EMaxC= 1.00D-01 BMatC= 1.30D-08 BMatP= 1.30D-08
 IDIUse=1 WtCom= 1.00D+00 WtEn= 0.00D+00
 Coeff-Com:  0.100D+01
 Coeff:      0.100D+01
 Gap=     0.441 Goal=   None    Shift=    0.000
 RMSDP=2.76D-06 MaxDP=8.63D-05 DE= 4.84D-06 OVMax= 4.41D-05

 Cycle   7  Pass 1  IDiag  1:
 E= -76.3330896564184     Delta-E=       -0.000000006343 Rises=F Damp=F
 DIIS: error= 6.53D-06 at cycle   2 NSaved=   2.
 NSaved= 2 IEnMin= 2 EnMin= -76.3330896564184     IErMin= 2 ErrMin= 6.53D-06
 ErrMax= 6.53D-06  0.00D+00 EMaxC= 1.00D-01 BMatC= 1.39D-09 BMatP= 1.30D-08
 IDIUse=1 WtCom= 1.00D+00 WtEn= 0.00D+00
 Coeff-Com:  0.111D+00 0.889D+00
 Coeff:      0.111D+00 0.889D+00
 Gap=     0.441 Goal=   None    Shift=    0.000
 RMSDP=2.35D-07 MaxDP=7.62D-06 DE=-6.34D-09 OVMax= 2.30D-05

 Cycle   8  Pass 1  IDiag  1:
 E= -76.3330896570154     Delta-E=       -0.000000000597 Rises=F Damp=F
 DIIS: error= 3.93D-06 at cycle   3 NSaved=   3.
 NSaved= 3 IEnMin= 3 EnMin= -76.3330896570154     IErMin= 3 ErrMin= 3.93D-06
 ErrMax= 3.93D-06  0.00D+00 EMaxC= 1.00D-01 BMatC= 9.94D-10 BMatP= 1.39D-09
 IDIUse=1 WtCom= 1.00D+00 WtEn= 0.00D+00
 Coeff-Com: -0.388D-01 0.459D+00 0.579D+00
 Coeff:     -0.388D-01 0.459D+00 0.579D+00
 Gap=     0.441 Goal=   None    Shift=    0.000
 RMSDP=1.07D-07 MaxDP=3.73D-06 DE=-5.97D-10 OVMax= 9.44D-06

 Cycle   9  Pass 1  IDiag  1:
 E= -76.3330896576891     Delta-E=       -0.000000000674 Rises=F Damp=F
 DIIS: error= 5.39D-07 at cycle   4 NSaved=   4.
 NSaved= 4 IEnMin= 4 EnMin= -76.3330896576891     IErMin= 4 ErrMin= 5.39D-07
 ErrMax= 5.39D-07  0.00D+00 EMaxC= 1.00D-01 BMatC= 7.62D-12 BMatP= 9.94D-10
 IDIUse=1 WtCom= 1.00D+00 WtEn= 0.00D+00
 Coeff-Com: -0.326D-02-0.864D-01-0.481D-01 0.114D+01
 Coeff:     -0.326D-02-0.864D-01-0.481D-01 0.114D+01
 Gap=     0.441 Goal=   None    Shift=    0.000
 RMSDP=3.03D-08 MaxDP=9.32D-07 DE=-6.74D-10 OVMax= 2.51D-06

 Cycle  10  Pass 1  IDiag  1:
 E= -76.3330896577051     Delta-E=       -0.000000000016 Rises=F Damp=F
 DIIS: error= 7.83D-08 at cycle   5 NSaved=   5.
 NSaved= 5 IEnMin= 5 EnMin= -76.3330896577051     IErMin= 5 ErrMin= 7.83D-08
 ErrMax= 7.83D-08  0.00D+00 EMaxC= 1.00D-01 BMatC= 3.41D-13 BMatP= 7.62D-12
 IDIUse=1 WtCom= 1.00D+00 WtEn= 0.00D+00
 Coeff-Com:  0.181D-02-0.419D-01-0.416D-01 0.168D+00 0.914D+00
 Coeff:      0.181D-02-0.419D-01-0.416D-01 0.168D+00 0.914D+00
 Gap=     0.441 Goal=   None    Shift=    0.000
 RMSDP=4.63D-09 MaxDP=1.23D-07 DE=-1.59D-11 OVMax= 4.44D-07

 SCF Done:  E(RB2PLYPD3) =  -76.3330896577     A.U. after   10 cycles
            NFock= 10  Conv=0.46D-08     -V/T= 2.0036
 KE= 7.605944919370D+01 PE=-1.988044377048D+02 EE= 3.741083654102D+01
 Leave Link  502 at Wed Aug 26 12:02:32 2020, MaxMem=  2097152000 cpu:        15.2
 (Enter /opt/cluster/programs/g09/g09_d.01/g09/l801.exe)
 DoSCS=T DFT=T ScalE2(SS,OS)=  0.270000  0.270000
 ExpMin= 8.03D-02 ExpMax= 1.17D+05 ExpMxC= 1.13D+03 IAcc=3 IRadAn=         5 AccDes= 0.00D+00
 HarFok:  IExCor=  205 AccDes= 0.00D+00 IRadAn=         5 IDoV=-2 UseB2=F ITyADJ=14
 ICtDFT= 12500011 ScaDFX=  1.000000  1.000000  1.000000  1.000000
 Largest valence mixing into a core orbital is  6.83D-05
 Largest core mixing into a valence orbital is  1.02D-05
 Range of M.O.s used for correlation:     2   117
 NBasis=   117 NAE=     5 NBE=     5 NFC=     1 NFV=     0
 NROrb=    116 NOA=     4 NOB=     4 NVA=   112 NVB=   112

 **** Warning!!: The largest alpha MO coefficient is  0.15151173D+02

 Leave Link  801 at Wed Aug 26 12:02:33 2020, MaxMem=  2097152000 cpu:         0.4
 (Enter /opt/cluster/programs/g09/g09_d.01/g09/l906.exe)
 DoSCS=T DFT=T ScalE2(SS,OS)=  0.270000  0.270000
 FulOut=F Deriv=F AODrv=F NAtomX=     3
   MMem=       16445  MDisk=           4 MDiskD=           4
  W3Min=       63616 MinDsk=      271641 NBas6D=         142
 NBas2D=       10573    NTT=       10153    LW2=     4508827
    MDV=  2097049025 MDiskM=       32786 NBas2p=       10573
 Fully in-core method, ICMem=   125836233.
 IMap=   1   2   3   4
 JobTyp=1 Pass  1 fully in-core, NPsUse=  8.
 Compute canonical integrals.
 FoFCou: FMM=F IPFlag=           0 FMFlag=           0 FMFlg1=           0
         NFxFlg=           0 DoJE=F BraDBF=F KetDBF=F FulRan=T
         wScrn=  0.000000 ICntrl=     600 IOpCl=  1 I1Cent=           0 NGrid=           0
         NMat0=    1 NMatS0=  10573 NMatT0=    0 NMatD0=    1 NMtDS0=    0 NMtDT0=    0
 Symmetry not used in FoFCou.
 Spin components of T(2) and E(2):
     alpha-alpha T2 =       0.1248825684D-01 E2=     -0.1082951993D-01
     alpha-beta  T2 =       0.7272441488D-01 E2=     -0.6901996492D-01
     beta-beta   T2 =       0.1248825684D-01 E2=     -0.1082951993D-01
 The integrals were generated   1 times.
 E2(B2PLYPD3) =    -0.9067900478D-01 E(B2PLYPD3) =    -0.76423768662482D+02
 Leave Link  906 at Wed Aug 26 12:02:34 2020, MaxMem=  2097152000 cpu:        11.7
 (Enter /opt/cluster/programs/g09/g09_d.01/g09/l601.exe)
 Copying SCF densities to generalized density rwf, IOpCl= 0 IROHF=0.

 **********************************************************************

            Population analysis using the SCF density.

 **********************************************************************

 Orbital symmetries:
       Occupied  (A') (A') (A') (A') (A")
       Virtual   (A') (A') (A') (A') (A") (A') (A') (A') (A") (A")
                 (A') (A') (A') (A') (A') (A') (A") (A') (A") (A')
                 (A") (A') (A') (A") (A') (A') (A") (A') (A") (A')
                 (A') (A") (A') (A') (A") (A") (A') (A') (A') (A')
                 (A') (A") (A") (A') (A") (A') (A') (A") (A') (A')
                 (A") (A') (A') (A") (A') (A') (A") (A') (A") (A')
                 (A") (A') (A') (A") (A') (A") (A') (A") (A') (A')
                 (A') (A') (A") (A") (A') (A") (A') (A") (A') (A')
                 (A') (A") (A') (A") (A') (A') (A") (A') (A') (A")
                 (A') (A') (A") (A') (A") (A") (A') (A") (A') (A')
                 (A") (A') (A') (A') (A") (A') (A") (A') (A') (A')
                 (A') (A')
 The electronic state is 1-A'.
 Alpha  occ. eigenvalues --  -19.73476  -1.14871  -0.60209  -0.47389  -0.39831
 Alpha virt. eigenvalues --    0.04275   0.10036   0.27651   0.30382   0.30454
 Alpha virt. eigenvalues --    0.35260   0.43484   0.49886   0.56150   0.61730
 Alpha virt. eigenvalues --    0.66121   0.80710   0.93201   0.96319   1.02135
 Alpha virt. eigenvalues --    1.07974   1.33699   1.33910   1.35325   1.42145
 Alpha virt. eigenvalues --    1.43842   1.48871   1.84551   1.92321   2.02402
 Alpha virt. eigenvalues --    2.04889   2.14468   2.29128   2.33307   2.35493
 Alpha virt. eigenvalues --    2.37578   2.43713   2.56058   2.60014   2.67515
 Alpha virt. eigenvalues --    2.71557   2.89905   2.98895   3.15856   3.16926
 Alpha virt. eigenvalues --    3.31380   3.76792   3.91125   3.94251   3.97198
 Alpha virt. eigenvalues --    4.13238   4.16648   4.28938   4.32090   4.48680
 Alpha virt. eigenvalues --    4.65338   4.78186   4.88514   5.30658   5.36087
 Alpha virt. eigenvalues --    5.45771   5.78725   5.95436   6.03720   6.12503
 Alpha virt. eigenvalues --    6.45747   6.54816   6.80637   7.08702   7.15285
 Alpha virt. eigenvalues --    7.20716   7.22274   7.32351   7.34135   7.43160
 Alpha virt. eigenvalues --    7.46467   7.54943   7.79828   7.88016   7.94476
 Alpha virt. eigenvalues --    7.96026   7.97452   8.11510   8.18111   8.36256
 Alpha virt. eigenvalues --    8.54011   8.56724   8.77372   8.83061   9.05223
 Alpha virt. eigenvalues --    9.11392   9.94274   9.96407  10.34698  10.38063
 Alpha virt. eigenvalues --   10.72187  10.87478  11.03618  11.14899  11.27311
 Alpha virt. eigenvalues --   11.50090  11.61211  11.81807  11.84780  11.98657
 Alpha virt. eigenvalues --   12.02937  12.33577  12.89457  13.47300  13.66854
 Alpha virt. eigenvalues --   13.74861  14.16990  14.51551  16.43994  16.85806
 Alpha virt. eigenvalues --   48.66672 254.39492
          Condensed to atoms (all electrons):
               1          2          3
     1  O    7.790651   0.334445   0.329339
     2  H    0.334445   0.466504  -0.020457
     3  H    0.329339  -0.020457   0.456192
 Mulliken charges:
               1
     1  O   -0.454435
     2  H    0.219509
     3  H    0.234926
 Sum of Mulliken charges =   0.00000
 Mulliken charges with hydrogens summed into heavy atoms:
               1
     1  O    0.000000
 Electronic spatial extent (au):  <R**2>=             19.9073
 Charge=              0.0000 electrons
 Dipole moment (field-independent basis, Debye):
    X=              0.0203    Y=             -1.9906    Z=              0.0000  Tot=              1.9907
 Quadrupole moment (field-independent basis, Debye-Ang):
   XX=             -4.3430   YY=             -6.3013   ZZ=             -7.6357
   XY=              0.1031   XZ=              0.0000   YZ=              0.0000
 Traceless Quadrupole moment (field-independent basis, Debye-Ang):
   XX=              1.7503   YY=             -0.2079   ZZ=             -1.5424
   XY=              0.1031   XZ=              0.0000   YZ=              0.0000
 Octapole moment (field-independent basis, Debye-Ang**2):
  XXX=              0.0628  YYY=             -1.1782  ZZZ=              0.0000  XYY=             -0.0726
  XXY=             -1.4103  XXZ=              0.0000  XZZ=              0.0225  YZZ=             -0.2720
  YYZ=              0.0000  XYZ=              0.0000
 Hexadecapole moment (field-independent basis, Debye-Ang**3):
 XXXX=             -6.3733 YYYY=             -7.5384 ZZZZ=             -6.8103 XXXY=             -0.0130
 XXXZ=              0.0000 YYYX=              0.0003 YYYZ=              0.0000 ZZZX=              0.0000
 ZZZY=              0.0000 XXYY=             -1.9370 XXZZ=             -2.5375 YYZZ=             -2.4536
 XXYZ=              0.0000 YYXZ=              0.0000 ZZXY=             -0.0296
 N-N= 9.001062312366D+00 E-N=-1.988044373375D+02  KE= 7.605944919370D+01
 Symmetry A'   KE= 7.153837262321D+01
 Symmetry A"   KE= 4.521076570486D+00
 Leave Link  601 at Wed Aug 26 12:02:34 2020, MaxMem=  2097152000 cpu:         0.3
 (Enter /opt/cluster/programs/g09/g09_d.01/g09/l9999.exe)
 1\1\GINC-NODE37\SP\RB2PLYPD3-FC\def2QZVP\H2O1\BOITTIER\26-Aug-2020\0\\
 #p B2PLYPD3/Def2QZVP\\h2o\\0,1\O,0,-5.326605,-0.766392,0.9239\H,0,-4.3
 68927,-0.722084,0.905114\H,0,-5.609308,0.168405,0.718897\\Version=ES64
 L-G09RevD.01\State=1-A'\HF=-76.3330897\MP2=-76.4237687\RMSD=4.631e-09\
 PG=CS [SG(H2O1)]\\@


 ONLY THE DAY DAWNS TO WHICH YOU ARE AWAKE.

                                 -- THOREAU
 Job cpu time:       0 days  0 hours  0 minutes 32.2 seconds.
 File lengths (MBytes):  RWF=      8 Int=      0 D2E=      0 Chk=      2 Scr=      1
 Normal termination of Gaussian 09 at Wed Aug 26 12:02:34 2020.
