 Entering Gaussian System, Link 0=/opt/cluster/programs/g09/g09_d.01/g09//g09
 Input=/home/boittier/MDCM/nms_sampling/h2o_geom.xyz.dir/energies/h2o_421_energy.com
 Output=/scratch/boittier/h2o_421_energy/h2o_421_energy.out
 Initial command:
 /opt/cluster/programs/g09/g09_d.01/g09/l1.exe "/scratch/boittier/h2o_421_energy/Gau-6907.inp" -scrdir="/scratch/boittier/h2o_421_energy/"
 Entering Link 1 = /opt/cluster/programs/g09/g09_d.01/g09/l1.exe PID=      6908.
  
 Copyright (c) 1988,1990,1992,1993,1995,1998,2003,2009,2013,
            Gaussian, Inc.  All Rights Reserved.
  
 This is part of the Gaussian(R) 09 program.  It is based on
 the Gaussian(R) 03 system (copyright 2003, Gaussian, Inc.),
 the Gaussian(R) 98 system (copyright 1998, Gaussian, Inc.),
 the Gaussian(R) 94 system (copyright 1995, Gaussian, Inc.),
 the Gaussian 92(TM) system (copyright 1992, Gaussian, Inc.),
 the Gaussian 90(TM) system (copyright 1990, Gaussian, Inc.),
 the Gaussian 88(TM) system (copyright 1988, Gaussian, Inc.),
 the Gaussian 86(TM) system (copyright 1986, Carnegie Mellon
 University), and the Gaussian 82(TM) system (copyright 1983,
 Carnegie Mellon University). Gaussian is a federally registered
 trademark of Gaussian, Inc.
  
 This software contains proprietary and confidential information,
 including trade secrets, belonging to Gaussian, Inc.
  
 This software is provided under written license and may be
 used, copied, transmitted, or stored only in accord with that
 written license.
  
 The following legend is applicable only to US Government
 contracts under FAR:
  
                    RESTRICTED RIGHTS LEGEND
  
 Use, reproduction and disclosure by the US Government is
 subject to restrictions as set forth in subparagraphs (a)
 and (c) of the Commercial Computer Software - Restricted
 Rights clause in FAR 52.227-19.
  
 Gaussian, Inc.
 340 Quinnipiac St., Bldg. 40, Wallingford CT 06492
  
  
 ---------------------------------------------------------------
 Warning -- This program may not be used in any manner that
 competes with the business of Gaussian, Inc. or will provide
 assistance to any competitor of Gaussian, Inc.  The licensee
 of this program is prohibited from giving any competitor of
 Gaussian, Inc. access to this program.  By using this program,
 the user acknowledges that Gaussian, Inc. is engaged in the
 business of creating and licensing software in the field of
 computational chemistry and represents and warrants to the
 licensee that it is not a competitor of Gaussian, Inc. and that
 it will not use this program in any manner prohibited above.
 ---------------------------------------------------------------
  

 Cite this work as:
 Gaussian 09, Revision D.01,
 M. J. Frisch, G. W. Trucks, H. B. Schlegel, G. E. Scuseria, 
 M. A. Robb, J. R. Cheeseman, G. Scalmani, V. Barone, B. Mennucci, 
 G. A. Petersson, H. Nakatsuji, M. Caricato, X. Li, H. P. Hratchian, 
 A. F. Izmaylov, J. Bloino, G. Zheng, J. L. Sonnenberg, M. Hada, 
 M. Ehara, K. Toyota, R. Fukuda, J. Hasegawa, M. Ishida, T. Nakajima, 
 Y. Honda, O. Kitao, H. Nakai, T. Vreven, J. A. Montgomery, Jr., 
 J. E. Peralta, F. Ogliaro, M. Bearpark, J. J. Heyd, E. Brothers, 
 K. N. Kudin, V. N. Staroverov, T. Keith, R. Kobayashi, J. Normand, 
 K. Raghavachari, A. Rendell, J. C. Burant, S. S. Iyengar, J. Tomasi, 
 M. Cossi, N. Rega, J. M. Millam, M. Klene, J. E. Knox, J. B. Cross, 
 V. Bakken, C. Adamo, J. Jaramillo, R. Gomperts, R. E. Stratmann, 
 O. Yazyev, A. J. Austin, R. Cammi, C. Pomelli, J. W. Ochterski, 
 R. L. Martin, K. Morokuma, V. G. Zakrzewski, G. A. Voth, 
 P. Salvador, J. J. Dannenberg, S. Dapprich, A. D. Daniels, 
 O. Farkas, J. B. Foresman, J. V. Ortiz, J. Cioslowski, 
 and D. J. Fox, Gaussian, Inc., Wallingford CT, 2013.
 
 ******************************************
 Gaussian 09:  ES64L-G09RevD.01 24-Apr-2013
                26-Aug-2020 
 ******************************************
 %chk=/home/boittier/MDCM/nms_sampling/h2o_geom.xyz.dir/h2o_421.chk
 %nproc=8
 Will use up to    8 processors via shared memory.
 %mem=16000MB
 --------------------
 #p B2PLYPD3/Def2QZVP
 --------------------
 1/38=1/1;
 2/12=2,17=6,18=5,40=1/2;
 3/5=45,7=101,11=9,16=1,25=1,30=1,74=-60/1,2,3;
 4//1;
 5/5=2,38=5/2;
 8/10=1/1;
 9/16=-3/6;
 6/7=2,8=2,9=2,10=2/1;
 99/5=1,9=1/99;
 Leave Link    1 at Wed Aug 26 10:29:54 2020, MaxMem=  2097152000 cpu:         0.3
 (Enter /opt/cluster/programs/g09/g09_d.01/g09/l101.exe)
 ---
 h2o
 ---
 Symbolic Z-matrix:
 Charge =  0 Multiplicity = 1
 O                    -5.3266   -0.76441   0.91899 
 H                    -4.36893  -0.75063   0.93199 
 H                    -5.60931   0.16516   0.77018 
 
 NAtoms=      3 NQM=        3 NQMF=       0 NMMI=      0 NMMIF=      0
                NMic=       0 NMicF=      0.
                    Isotopes and Nuclear Properties:
 (Nuclear quadrupole moments (NQMom) in fm**2, nuclear magnetic moments (NMagM)
  in nuclear magnetons)

  Atom         1           2           3
 IAtWgt=          16           1           1
 AtmWgt=  15.9949146   1.0078250   1.0078250
 NucSpn=           0           1           1
 AtZEff=   0.0000000   0.0000000   0.0000000
 NQMom=    0.0000000   0.0000000   0.0000000
 NMagM=    0.0000000   2.7928460   2.7928460
 AtZNuc=   8.0000000   1.0000000   1.0000000
 Leave Link  101 at Wed Aug 26 10:29:54 2020, MaxMem=  2097152000 cpu:         0.6
 (Enter /opt/cluster/programs/g09/g09_d.01/g09/l202.exe)
                          Input orientation:                          
 ---------------------------------------------------------------------
 Center     Atomic      Atomic             Coordinates (Angstroms)
 Number     Number       Type             X           Y           Z
 ---------------------------------------------------------------------
      1          8           0       -5.326605   -0.764406    0.918991
      2          1           0       -4.368927   -0.750629    0.931990
      3          1           0       -5.609308    0.165164    0.770181
 ---------------------------------------------------------------------
                    Distance matrix (angstroms):
                    1          2          3
     1  O    0.000000
     2  H    0.957865   0.000000
     3  H    0.982937   1.550292   0.000000
 Stoichiometry    H2O
 Framework group  CS[SG(H2O)]
 Deg. of freedom     3
 Full point group                 CS      NOp   2
 Largest Abelian subgroup         CS      NOp   2
 Largest concise Abelian subgroup C1      NOp   1
                         Standard orientation:                         
 ---------------------------------------------------------------------
 Center     Atomic      Atomic             Coordinates (Angstroms)
 Number     Number       Type             X           Y           Z
 ---------------------------------------------------------------------
      1          8           0        0.000000    0.116788    0.000000
      2          1           0        0.774866   -0.446319    0.000000
      3          1           0       -0.774866   -0.487984    0.000000
 ---------------------------------------------------------------------
 Rotational constants (GHZ):    829.1714188    416.9818152    277.4533612
 Leave Link  202 at Wed Aug 26 10:29:54 2020, MaxMem=  2097152000 cpu:         0.1
 (Enter /opt/cluster/programs/g09/g09_d.01/g09/l301.exe)
 Standard basis: def2QZVP (5D, 7F)
 Ernie: Thresh=  0.10000D-02 Tol=  0.10000D-05 Strict=F.
 There are    96 symmetry adapted cartesian basis functions of A'  symmetry.
 There are    46 symmetry adapted cartesian basis functions of A"  symmetry.
 There are    77 symmetry adapted basis functions of A'  symmetry.
 There are    40 symmetry adapted basis functions of A"  symmetry.
   117 basis functions,   168 primitive gaussians,   142 cartesian basis functions
     5 alpha electrons        5 beta electrons
       nuclear repulsion energy         9.0678832061 Hartrees.
 IExCor=  419 DFT=T Ex+Corr=B2PLYPD3 ExCW=0 ScaHFX=  0.530000
 ScaDFX=  0.470000  0.470000  0.730000  0.730000 ScalE2=  0.270000  0.270000
 IRadAn=      0 IRanWt=     -1 IRanGd=            0 ICorTp=0 IEmpDi=141
 NAtoms=    3 NActive=    3 NUniq=    3 SFac= 1.00D+00 NAtFMM=   60 NAOKFM=F Big=F
 Integral buffers will be    131072 words long.
 Regular integral format.
 Two-electron integral symmetry is turned on.
 R6Disp:  Grimme-D3(BJ) Dispersion energy=       -0.0002342786 Hartrees.
 Nuclear repulsion after empirical dispersion term =        9.0676489275 Hartrees.
 Leave Link  301 at Wed Aug 26 10:29:54 2020, MaxMem=  2097152000 cpu:         0.5
 (Enter /opt/cluster/programs/g09/g09_d.01/g09/l302.exe)
 NPDir=0 NMtPBC=     1 NCelOv=     1 NCel=       1 NClECP=     1 NCelD=      1
         NCelK=      1 NCelE2=     1 NClLst=     1 CellRange=     0.0.
 One-electron integrals computed using PRISM.
   1 Symmetry operations used in ECPInt.
 ECPInt:  NShTT=     703 NPrTT=    1591 LenC2=     704 LenP2D=    1541.
 LDataN:  DoStor=T MaxTD1= 8 Len=  415
 NBasis=   117 RedAO= T EigKep=  4.70D-04  NBF=    77    40
 NBsUse=   117 1.00D-06 EigRej= -1.00D+00 NBFU=    77    40
 Precomputing XC quadrature grid using
 IXCGrd= 4 IRadAn=           0 IRanWt=          -1 IRanGd=           0 AccXCQ= 0.00D+00.
 Generated NRdTot=       0 NPtTot=           0 NUsed=           0 NTot=          32
 NSgBfM=   142   142   142   142   142 MxSgAt=     3 MxSgA2=     3.
 Leave Link  302 at Wed Aug 26 10:29:54 2020, MaxMem=  2097152000 cpu:         2.0
 (Enter /opt/cluster/programs/g09/g09_d.01/g09/l303.exe)
 DipDrv:  MaxL=1.
 Leave Link  303 at Wed Aug 26 10:29:54 2020, MaxMem=  2097152000 cpu:         0.2
 (Enter /opt/cluster/programs/g09/g09_d.01/g09/l401.exe)
 ExpMin= 8.03D-02 ExpMax= 1.17D+05 ExpMxC= 1.13D+03 IAcc=2 IRadAn=         4 AccDes= 0.00D+00
 Harris functional with IExCor=  419 and IRadAn=       4 diagonalized for initial guess.
 HarFok:  IExCor=  419 AccDes= 0.00D+00 IRadAn=         4 IDoV= 1 UseB2=F ITyADJ=14
 ICtDFT=  3500011 ScaDFX=  1.000000  1.000000  1.000000  1.000000
 FoFCou: FMM=F IPFlag=           0 FMFlag=      100000 FMFlg1=           0
         NFxFlg=           0 DoJE=T BraDBF=F KetDBF=T FulRan=T
         wScrn=  0.000000 ICntrl=     500 IOpCl=  0 I1Cent=   200000004 NGrid=           0
         NMat0=    1 NMatS0=      1 NMatT0=    0 NMatD0=    1 NMtDS0=    0 NMtDT0=    0
 Petite list used in FoFCou.
 Harris En= -76.5064742382513    
 JPrj=0 DoOrth=F DoCkMO=F.
 Initial guess orbital symmetries:
       Occupied  (A') (A') (A') (A') (A")
       Virtual   (A') (A') (A') (A") (A') (A') (A') (A') (A") (A")
                 (A') (A') (A') (A') (A') (A') (A') (A") (A") (A")
                 (A') (A') (A') (A") (A') (A') (A") (A') (A") (A')
                 (A') (A") (A') (A') (A") (A") (A') (A') (A') (A')
                 (A') (A") (A") (A') (A") (A') (A') (A") (A') (A')
                 (A") (A') (A') (A") (A') (A') (A") (A') (A") (A')
                 (A") (A') (A') (A') (A") (A") (A') (A") (A') (A')
                 (A') (A') (A") (A") (A') (A") (A') (A") (A') (A')
                 (A') (A") (A') (A") (A') (A') (A") (A') (A') (A")
                 (A') (A') (A") (A') (A") (A") (A') (A") (A') (A")
                 (A') (A') (A') (A') (A') (A") (A") (A') (A') (A')
                 (A') (A')
 The electronic state of the initial guess is 1-A'.
 Leave Link  401 at Wed Aug 26 10:29:55 2020, MaxMem=  2097152000 cpu:         2.1
 (Enter /opt/cluster/programs/g09/g09_d.01/g09/l502.exe)
 Closed shell SCF:
 Using DIIS extrapolation, IDIIS=  1040.
 Integral symmetry usage will be decided dynamically.
 Keep R1 ints in memory in symmetry-blocked form, NReq=35980147.
 IVT=       81231 IEndB=       81231 NGot=  2097152000 MDV=  2085001127
 LenX=  2085001127 LenY=  2084980522
 Requested convergence on RMS density matrix=1.00D-08 within 128 cycles.
 Requested convergence on MAX density matrix=1.00D-06.
 Requested convergence on             energy=1.00D-06.
 No special actions if energy rises.
 FoFCou: FMM=F IPFlag=           0 FMFlag=           0 FMFlg1=           0
         NFxFlg=           0 DoJE=F BraDBF=F KetDBF=F FulRan=T
         wScrn=  0.000000 ICntrl=     600 IOpCl=  0 I1Cent=           0 NGrid=           0
         NMat0=    1 NMatS0=   6903 NMatT0=    0 NMatD0=    1 NMtDS0=    0 NMtDT0=    0
 Petite list used in FoFCou.
 Integral accuracy reduced to 1.0D-05 until final iterations.

 Cycle   1  Pass 0  IDiag  1:
 E= -76.2478229686049    
 DIIS: error= 4.33D-02 at cycle   1 NSaved=   1.
 NSaved= 1 IEnMin= 1 EnMin= -76.2478229686049     IErMin= 1 ErrMin= 4.33D-02
 ErrMax= 4.33D-02  0.00D+00 EMaxC= 1.00D-01 BMatC= 1.66D-01 BMatP= 1.66D-01
 IDIUse=3 WtCom= 5.67D-01 WtEn= 4.33D-01
 Coeff-Com:  0.100D+01
 Coeff-En:   0.100D+01
 Coeff:      0.100D+01
 Gap=     0.295 Goal=   None    Shift=    0.000
 GapD=    0.295 DampG=1.000 DampE=0.500 DampFc=0.5000 IDamp=-1.
 Damping current iteration by 5.00D-01
 RMSDP=2.37D-03 MaxDP=7.50D-02              OVMax= 1.70D-01

 Cycle   2  Pass 0  IDiag  1:
 E= -76.2856244823551     Delta-E=       -0.037801513750 Rises=F Damp=T
 DIIS: error= 1.56D-02 at cycle   2 NSaved=   2.
 NSaved= 2 IEnMin= 2 EnMin= -76.2856244823551     IErMin= 2 ErrMin= 1.56D-02
 ErrMax= 1.56D-02  0.00D+00 EMaxC= 1.00D-01 BMatC= 1.07D-02 BMatP= 1.66D-01
 IDIUse=3 WtCom= 8.44D-01 WtEn= 1.56D-01
 Coeff-Com:  0.178D-01 0.982D+00
 Coeff-En:   0.143D+00 0.857D+00
 Coeff:      0.373D-01 0.963D+00
 Gap=     0.442 Goal=   None    Shift=    0.000
 RMSDP=3.42D-04 MaxDP=1.20D-02 DE=-3.78D-02 OVMax= 1.02D-01

 Cycle   3  Pass 0  IDiag  1:
 E= -76.3337937404839     Delta-E=       -0.048169258129 Rises=F Damp=F
 DIIS: error= 3.75D-03 at cycle   3 NSaved=   3.
 NSaved= 3 IEnMin= 3 EnMin= -76.3337937404839     IErMin= 3 ErrMin= 3.75D-03
 ErrMax= 3.75D-03  0.00D+00 EMaxC= 1.00D-01 BMatC= 5.55D-04 BMatP= 1.07D-02
 IDIUse=3 WtCom= 9.63D-01 WtEn= 3.75D-02
 Coeff-Com: -0.561D-01 0.737D-01 0.982D+00
 Coeff-En:   0.000D+00 0.000D+00 0.100D+01
 Coeff:     -0.540D-01 0.710D-01 0.983D+00
 Gap=     0.441 Goal=   None    Shift=    0.000
 RMSDP=8.33D-05 MaxDP=2.60D-03 DE=-4.82D-02 OVMax= 6.54D-03

 Cycle   4  Pass 0  IDiag  1:
 E= -76.3341817033484     Delta-E=       -0.000387962864 Rises=F Damp=F
 DIIS: error= 2.70D-04 at cycle   4 NSaved=   4.
 NSaved= 4 IEnMin= 4 EnMin= -76.3341817033484     IErMin= 4 ErrMin= 2.70D-04
 ErrMax= 2.70D-04  0.00D+00 EMaxC= 1.00D-01 BMatC= 4.83D-06 BMatP= 5.55D-04
 IDIUse=3 WtCom= 9.97D-01 WtEn= 2.70D-03
 Coeff-Com:  0.526D-03-0.547D-02 0.588D-01 0.946D+00
 Coeff-En:   0.000D+00 0.000D+00 0.000D+00 0.100D+01
 Coeff:      0.524D-03-0.546D-02 0.587D-01 0.946D+00
 Gap=     0.442 Goal=   None    Shift=    0.000
 RMSDP=1.20D-05 MaxDP=4.20D-04 DE=-3.88D-04 OVMax= 7.82D-04

 Cycle   5  Pass 0  IDiag  1:
 E= -76.3341851149557     Delta-E=       -0.000003411607 Rises=F Damp=F
 DIIS: error= 5.84D-05 at cycle   5 NSaved=   5.
 NSaved= 5 IEnMin= 5 EnMin= -76.3341851149557     IErMin= 5 ErrMin= 5.84D-05
 ErrMax= 5.84D-05  0.00D+00 EMaxC= 1.00D-01 BMatC= 8.09D-08 BMatP= 4.83D-06
 IDIUse=1 WtCom= 1.00D+00 WtEn= 0.00D+00
 Coeff-Com:  0.234D-02-0.345D-02-0.345D-01 0.121D-01 0.102D+01
 Coeff:      0.234D-02-0.345D-02-0.345D-01 0.121D-01 0.102D+01
 Gap=     0.443 Goal=   None    Shift=    0.000
 RMSDP=2.75D-06 MaxDP=8.55D-05 DE=-3.41D-06 OVMax= 1.99D-04

 Initial convergence to 1.0D-05 achieved.  Increase integral accuracy.
 Cycle   6  Pass 1  IDiag  1:
 E= -76.3341794202167     Delta-E=        0.000005694739 Rises=F Damp=F
 DIIS: error= 1.24D-05 at cycle   1 NSaved=   1.
 NSaved= 1 IEnMin= 1 EnMin= -76.3341794202167     IErMin= 1 ErrMin= 1.24D-05
 ErrMax= 1.24D-05  0.00D+00 EMaxC= 1.00D-01 BMatC= 1.34D-08 BMatP= 1.34D-08
 IDIUse=1 WtCom= 1.00D+00 WtEn= 0.00D+00
 Coeff-Com:  0.100D+01
 Coeff:      0.100D+01
 Gap=     0.443 Goal=   None    Shift=    0.000
 RMSDP=2.75D-06 MaxDP=8.55D-05 DE= 5.69D-06 OVMax= 4.33D-05

 Cycle   7  Pass 1  IDiag  1:
 E= -76.3341794263548     Delta-E=       -0.000000006138 Rises=F Damp=F
 DIIS: error= 6.25D-06 at cycle   2 NSaved=   2.
 NSaved= 2 IEnMin= 2 EnMin= -76.3341794263548     IErMin= 2 ErrMin= 6.25D-06
 ErrMax= 6.25D-06  0.00D+00 EMaxC= 1.00D-01 BMatC= 1.30D-09 BMatP= 1.34D-08
 IDIUse=1 WtCom= 1.00D+00 WtEn= 0.00D+00
 Coeff-Com:  0.102D+00 0.898D+00
 Coeff:      0.102D+00 0.898D+00
 Gap=     0.443 Goal=   None    Shift=    0.000
 RMSDP=2.30D-07 MaxDP=7.48D-06 DE=-6.14D-09 OVMax= 2.24D-05

 Cycle   8  Pass 1  IDiag  1:
 E= -76.3341794269062     Delta-E=       -0.000000000551 Rises=F Damp=F
 DIIS: error= 4.39D-06 at cycle   3 NSaved=   3.
 NSaved= 3 IEnMin= 3 EnMin= -76.3341794269062     IErMin= 3 ErrMin= 4.39D-06
 ErrMax= 4.39D-06  0.00D+00 EMaxC= 1.00D-01 BMatC= 9.54D-10 BMatP= 1.30D-09
 IDIUse=1 WtCom= 1.00D+00 WtEn= 0.00D+00
 Coeff-Com: -0.365D-01 0.463D+00 0.574D+00
 Coeff:     -0.365D-01 0.463D+00 0.574D+00
 Gap=     0.443 Goal=   None    Shift=    0.000
 RMSDP=1.04D-07 MaxDP=3.59D-06 DE=-5.51D-10 OVMax= 9.14D-06

 Cycle   9  Pass 1  IDiag  1:
 E= -76.3341794275471     Delta-E=       -0.000000000641 Rises=F Damp=F
 DIIS: error= 5.04D-07 at cycle   4 NSaved=   4.
 NSaved= 4 IEnMin= 4 EnMin= -76.3341794275471     IErMin= 4 ErrMin= 5.04D-07
 ErrMax= 5.04D-07  0.00D+00 EMaxC= 1.00D-01 BMatC= 7.18D-12 BMatP= 9.54D-10
 IDIUse=1 WtCom= 1.00D+00 WtEn= 0.00D+00
 Coeff-Com: -0.223D-02-0.967D-01-0.600D-01 0.116D+01
 Coeff:     -0.223D-02-0.967D-01-0.600D-01 0.116D+01
 Gap=     0.443 Goal=   None    Shift=    0.000
 RMSDP=3.08D-08 MaxDP=9.17D-07 DE=-6.41D-10 OVMax= 2.45D-06

 Cycle  10  Pass 1  IDiag  1:
 E= -76.3341794275626     Delta-E=       -0.000000000016 Rises=F Damp=F
 DIIS: error= 7.37D-08 at cycle   5 NSaved=   5.
 NSaved= 5 IEnMin= 5 EnMin= -76.3341794275626     IErMin= 5 ErrMin= 7.37D-08
 ErrMax= 7.37D-08  0.00D+00 EMaxC= 1.00D-01 BMatC= 2.91D-13 BMatP= 7.18D-12
 IDIUse=1 WtCom= 1.00D+00 WtEn= 0.00D+00
 Coeff-Com:  0.173D-02-0.418D-01-0.407D-01 0.175D+00 0.906D+00
 Coeff:      0.173D-02-0.418D-01-0.407D-01 0.175D+00 0.906D+00
 Gap=     0.443 Goal=   None    Shift=    0.000
 RMSDP=4.21D-09 MaxDP=1.09D-07 DE=-1.55D-11 OVMax= 4.19D-07

 SCF Done:  E(RB2PLYPD3) =  -76.3341794276     A.U. after   10 cycles
            NFock= 10  Conv=0.42D-08     -V/T= 2.0033
 KE= 7.608195702457D+01 PE=-1.989519424790D+02 EE= 3.746815709933D+01
 Leave Link  502 at Wed Aug 26 10:29:57 2020, MaxMem=  2097152000 cpu:        16.4
 (Enter /opt/cluster/programs/g09/g09_d.01/g09/l801.exe)
 DoSCS=T DFT=T ScalE2(SS,OS)=  0.270000  0.270000
 ExpMin= 8.03D-02 ExpMax= 1.17D+05 ExpMxC= 1.13D+03 IAcc=3 IRadAn=         5 AccDes= 0.00D+00
 HarFok:  IExCor=  205 AccDes= 0.00D+00 IRadAn=         5 IDoV=-2 UseB2=F ITyADJ=14
 ICtDFT= 12500011 ScaDFX=  1.000000  1.000000  1.000000  1.000000
 Largest valence mixing into a core orbital is  6.80D-05
 Largest core mixing into a valence orbital is  1.01D-05
 Range of M.O.s used for correlation:     2   117
 NBasis=   117 NAE=     5 NBE=     5 NFC=     1 NFV=     0
 NROrb=    116 NOA=     4 NOB=     4 NVA=   112 NVB=   112

 **** Warning!!: The largest alpha MO coefficient is  0.15550774D+02

 Leave Link  801 at Wed Aug 26 10:29:57 2020, MaxMem=  2097152000 cpu:         0.5
 (Enter /opt/cluster/programs/g09/g09_d.01/g09/l906.exe)
 DoSCS=T DFT=T ScalE2(SS,OS)=  0.270000  0.270000
 FulOut=F Deriv=F AODrv=F NAtomX=     3
   MMem=       16445  MDisk=           4 MDiskD=           4
  W3Min=       63616 MinDsk=      271641 NBas6D=         142
 NBas2D=       10573    NTT=       10153    LW2=     4508827
    MDV=  2097049011 MDiskM=       32786 NBas2p=       10573
 Fully in-core method, ICMem=   125836233.
 IMap=   1   2   3   4
 JobTyp=1 Pass  1 fully in-core, NPsUse=  8.
 Compute canonical integrals.
 FoFCou: FMM=F IPFlag=           0 FMFlag=           0 FMFlg1=           0
         NFxFlg=           0 DoJE=F BraDBF=F KetDBF=F FulRan=T
         wScrn=  0.000000 ICntrl=     600 IOpCl=  1 I1Cent=           0 NGrid=           0
         NMat0=    1 NMatS0=  10573 NMatT0=    0 NMatD0=    1 NMtDS0=    0 NMtDT0=    0
 Symmetry not used in FoFCou.
 Spin components of T(2) and E(2):
     alpha-alpha T2 =       0.1233979710D-01 E2=     -0.1078935658D-01
     alpha-beta  T2 =       0.7174240038D-01 E2=     -0.6875991234D-01
     beta-beta   T2 =       0.1233979710D-01 E2=     -0.1078935658D-01
 The integrals were generated   1 times.
 E2(B2PLYPD3) =    -0.9033862551D-01 E(B2PLYPD3) =    -0.76424518053075D+02
 Leave Link  906 at Wed Aug 26 10:29:59 2020, MaxMem=  2097152000 cpu:        17.1
 (Enter /opt/cluster/programs/g09/g09_d.01/g09/l601.exe)
 Copying SCF densities to generalized density rwf, IOpCl= 0 IROHF=0.

 **********************************************************************

            Population analysis using the SCF density.

 **********************************************************************

 Orbital symmetries:
       Occupied  (A') (A') (A') (A') (A")
       Virtual   (A') (A') (A') (A") (A') (A') (A') (A') (A") (A")
                 (A') (A') (A') (A') (A') (A') (A") (A') (A") (A')
                 (A") (A') (A') (A") (A') (A') (A") (A') (A") (A')
                 (A') (A") (A') (A') (A") (A") (A') (A') (A') (A')
                 (A') (A") (A") (A') (A") (A') (A') (A") (A') (A')
                 (A") (A') (A') (A") (A') (A') (A") (A') (A") (A')
                 (A") (A') (A') (A") (A') (A") (A') (A") (A') (A')
                 (A') (A') (A") (A") (A') (A") (A') (A") (A') (A')
                 (A') (A") (A') (A") (A') (A') (A") (A') (A') (A")
                 (A') (A') (A") (A') (A") (A") (A') (A") (A') (A")
                 (A') (A') (A') (A') (A") (A') (A") (A') (A') (A')
                 (A') (A')
 The electronic state is 1-A'.
 Alpha  occ. eigenvalues --  -19.73254  -1.15050  -0.60993  -0.47046  -0.39834
 Alpha virt. eigenvalues --    0.04421   0.10074   0.27561   0.30445   0.30847
 Alpha virt. eigenvalues --    0.35191   0.43659   0.50418   0.55903   0.62499
 Alpha virt. eigenvalues --    0.65886   0.80749   0.93299   0.96205   1.03200
 Alpha virt. eigenvalues --    1.07615   1.33027   1.33974   1.35593   1.42892
 Alpha virt. eigenvalues --    1.43797   1.48788   1.84294   1.94186   2.04343
 Alpha virt. eigenvalues --    2.04509   2.13751   2.31104   2.33568   2.34901
 Alpha virt. eigenvalues --    2.37188   2.43158   2.56108   2.59989   2.69037
 Alpha virt. eigenvalues --    2.72709   2.93439   2.99166   3.14306   3.16399
 Alpha virt. eigenvalues --    3.31571   3.77657   3.90789   3.93649   3.95802
 Alpha virt. eigenvalues --    4.14520   4.16404   4.29975   4.31829   4.49226
 Alpha virt. eigenvalues --    4.66925   4.81941   4.90258   5.32270   5.39231
 Alpha virt. eigenvalues --    5.47077   5.82357   5.96913   6.05149   6.11060
 Alpha virt. eigenvalues --    6.43447   6.61211   6.80740   7.15538   7.16699
 Alpha virt. eigenvalues --    7.21697   7.23491   7.32209   7.38118   7.44499
 Alpha virt. eigenvalues --    7.45232   7.54609   7.79462   7.88384   7.92285
 Alpha virt. eigenvalues --    7.94268   7.98246   8.09571   8.17181   8.38052
 Alpha virt. eigenvalues --    8.58183   8.63417   8.83246   8.85120   9.05753
 Alpha virt. eigenvalues --    9.11506   9.91175   9.94176  10.35314  10.45525
 Alpha virt. eigenvalues --   10.80338  10.89644  11.04396  11.17811  11.28905
 Alpha virt. eigenvalues --   11.49251  11.60201  11.86886  11.90576  12.03857
 Alpha virt. eigenvalues --   12.04777  12.33067  12.91766  13.55998  13.73643
 Alpha virt. eigenvalues --   13.74111  14.21494  14.56701  16.61099  16.85549
 Alpha virt. eigenvalues --   48.70121 254.43295
          Condensed to atoms (all electrons):
               1          2          3
     1  O    7.782776   0.337627   0.334340
     2  H    0.337627   0.461127  -0.020868
     3  H    0.334340  -0.020868   0.453899
 Mulliken charges:
               1
     1  O   -0.454742
     2  H    0.222114
     3  H    0.232628
 Sum of Mulliken charges =   0.00000
 Mulliken charges with hydrogens summed into heavy atoms:
               1
     1  O    0.000000
 Electronic spatial extent (au):  <R**2>=             19.8060
 Charge=              0.0000 electrons
 Dipole moment (field-independent basis, Debye):
    X=              0.0124    Y=             -1.9476    Z=              0.0000  Tot=              1.9476
 Quadrupole moment (field-independent basis, Debye-Ang):
   XX=             -4.2530   YY=             -6.3716   ZZ=             -7.6226
   XY=              0.0703   XZ=              0.0000   YZ=              0.0000
 Traceless Quadrupole moment (field-independent basis, Debye-Ang):
   XX=              1.8294   YY=             -0.2892   ZZ=             -1.5402
   XY=              0.0703   XZ=              0.0000   YZ=              0.0000
 Octapole moment (field-independent basis, Debye-Ang**2):
  XXX=              0.0389  YYY=             -1.1386  ZZZ=              0.0000  XYY=             -0.0471
  XXY=             -1.3971  XXZ=              0.0000  XZZ=              0.0144  YZZ=             -0.2732
  YYZ=              0.0000  XYZ=              0.0000
 Hexadecapole moment (field-independent basis, Debye-Ang**3):
 XXXX=             -6.2351 YYYY=             -7.4642 ZZZZ=             -6.7983 XXXY=             -0.0041
 XXXZ=              0.0000 YYYX=             -0.0008 YYYZ=              0.0000 ZZZX=              0.0000
 ZZZY=              0.0000 XXYY=             -1.9480 XXZZ=             -2.5272 YYZZ=             -2.4309
 XXYZ=              0.0000 YYXZ=              0.0000 ZZXY=             -0.0189
 N-N= 9.067648927522D+00 E-N=-1.989519421167D+02  KE= 7.608195702457D+01
 Symmetry A'   KE= 7.156457926902D+01
 Symmetry A"   KE= 4.517377755552D+00
 Leave Link  601 at Wed Aug 26 10:29:59 2020, MaxMem=  2097152000 cpu:         0.3
 (Enter /opt/cluster/programs/g09/g09_d.01/g09/l9999.exe)
 1\1\GINC-NODE20\SP\RB2PLYPD3-FC\def2QZVP\H2O1\BOITTIER\26-Aug-2020\0\\
 #p B2PLYPD3/Def2QZVP\\h2o\\0,1\O,0,-5.326605,-0.764406,0.918991\H,0,-4
 .368927,-0.750629,0.93199\H,0,-5.609308,0.165164,0.770181\\Version=ES6
 4L-G09RevD.01\State=1-A'\HF=-76.3341794\MP2=-76.4245181\RMSD=4.214e-09
 \PG=CS [SG(H2O1)]\\@


 KNIGHT- SIRE, I'VE JUST RETURNED FROM THE FRONT
 KING-   HOW GOES THE BATTLE                    
 KNIGHT- THE SITUATION IS QUITE FLUID           
 KING-   WHAT DOES *THAT* MEAN                  
 KNIGHT- WE'RE UP THE CREEK                     
                THE WIZARD OF ID                
 Job cpu time:       0 days  0 hours  0 minutes 40.3 seconds.
 File lengths (MBytes):  RWF=      8 Int=      0 D2E=      0 Chk=      2 Scr=      1
 Normal termination of Gaussian 09 at Wed Aug 26 10:29:59 2020.
