 Entering Gaussian System, Link 0=/opt/cluster/programs/g09/g09_d.01/g09//g09
 Input=/home/boittier/MDCM/nms_sampling/h2o_geom.xyz.dir/energies/h2o_345_energy.com
 Output=/scratch/boittier/h2o_345_energy/h2o_345_energy.out
 Initial command:
 /opt/cluster/programs/g09/g09_d.01/g09/l1.exe "/scratch/boittier/h2o_345_energy/Gau-39570.inp" -scrdir="/scratch/boittier/h2o_345_energy/"
 Entering Link 1 = /opt/cluster/programs/g09/g09_d.01/g09/l1.exe PID=     39571.
  
 Copyright (c) 1988,1990,1992,1993,1995,1998,2003,2009,2013,
            Gaussian, Inc.  All Rights Reserved.
  
 This is part of the Gaussian(R) 09 program.  It is based on
 the Gaussian(R) 03 system (copyright 2003, Gaussian, Inc.),
 the Gaussian(R) 98 system (copyright 1998, Gaussian, Inc.),
 the Gaussian(R) 94 system (copyright 1995, Gaussian, Inc.),
 the Gaussian 92(TM) system (copyright 1992, Gaussian, Inc.),
 the Gaussian 90(TM) system (copyright 1990, Gaussian, Inc.),
 the Gaussian 88(TM) system (copyright 1988, Gaussian, Inc.),
 the Gaussian 86(TM) system (copyright 1986, Carnegie Mellon
 University), and the Gaussian 82(TM) system (copyright 1983,
 Carnegie Mellon University). Gaussian is a federally registered
 trademark of Gaussian, Inc.
  
 This software contains proprietary and confidential information,
 including trade secrets, belonging to Gaussian, Inc.
  
 This software is provided under written license and may be
 used, copied, transmitted, or stored only in accord with that
 written license.
  
 The following legend is applicable only to US Government
 contracts under FAR:
  
                    RESTRICTED RIGHTS LEGEND
  
 Use, reproduction and disclosure by the US Government is
 subject to restrictions as set forth in subparagraphs (a)
 and (c) of the Commercial Computer Software - Restricted
 Rights clause in FAR 52.227-19.
  
 Gaussian, Inc.
 340 Quinnipiac St., Bldg. 40, Wallingford CT 06492
  
  
 ---------------------------------------------------------------
 Warning -- This program may not be used in any manner that
 competes with the business of Gaussian, Inc. or will provide
 assistance to any competitor of Gaussian, Inc.  The licensee
 of this program is prohibited from giving any competitor of
 Gaussian, Inc. access to this program.  By using this program,
 the user acknowledges that Gaussian, Inc. is engaged in the
 business of creating and licensing software in the field of
 computational chemistry and represents and warrants to the
 licensee that it is not a competitor of Gaussian, Inc. and that
 it will not use this program in any manner prohibited above.
 ---------------------------------------------------------------
  

 Cite this work as:
 Gaussian 09, Revision D.01,
 M. J. Frisch, G. W. Trucks, H. B. Schlegel, G. E. Scuseria, 
 M. A. Robb, J. R. Cheeseman, G. Scalmani, V. Barone, B. Mennucci, 
 G. A. Petersson, H. Nakatsuji, M. Caricato, X. Li, H. P. Hratchian, 
 A. F. Izmaylov, J. Bloino, G. Zheng, J. L. Sonnenberg, M. Hada, 
 M. Ehara, K. Toyota, R. Fukuda, J. Hasegawa, M. Ishida, T. Nakajima, 
 Y. Honda, O. Kitao, H. Nakai, T. Vreven, J. A. Montgomery, Jr., 
 J. E. Peralta, F. Ogliaro, M. Bearpark, J. J. Heyd, E. Brothers, 
 K. N. Kudin, V. N. Staroverov, T. Keith, R. Kobayashi, J. Normand, 
 K. Raghavachari, A. Rendell, J. C. Burant, S. S. Iyengar, J. Tomasi, 
 M. Cossi, N. Rega, J. M. Millam, M. Klene, J. E. Knox, J. B. Cross, 
 V. Bakken, C. Adamo, J. Jaramillo, R. Gomperts, R. E. Stratmann, 
 O. Yazyev, A. J. Austin, R. Cammi, C. Pomelli, J. W. Ochterski, 
 R. L. Martin, K. Morokuma, V. G. Zakrzewski, G. A. Voth, 
 P. Salvador, J. J. Dannenberg, S. Dapprich, A. D. Daniels, 
 O. Farkas, J. B. Foresman, J. V. Ortiz, J. Cioslowski, 
 and D. J. Fox, Gaussian, Inc., Wallingford CT, 2013.
 
 ******************************************
 Gaussian 09:  ES64L-G09RevD.01 24-Apr-2013
                26-Aug-2020 
 ******************************************
 %chk=/home/boittier/MDCM/nms_sampling/h2o_geom.xyz.dir/h2o_345.chk
 %nproc=8
 Will use up to    8 processors via shared memory.
 %mem=16000MB
 --------------------
 #p B2PLYPD3/Def2QZVP
 --------------------
 1/38=1/1;
 2/12=2,17=6,18=5,40=1/2;
 3/5=45,7=101,11=9,16=1,25=1,30=1,74=-60/1,2,3;
 4//1;
 5/5=2,38=5/2;
 8/10=1/1;
 9/16=-3/6;
 6/7=2,8=2,9=2,10=2/1;
 99/5=1,9=1/99;
 Leave Link    1 at Wed Aug 26 10:10:30 2020, MaxMem=  2097152000 cpu:         0.3
 (Enter /opt/cluster/programs/g09/g09_d.01/g09/l101.exe)
 ---
 h2o
 ---
 Symbolic Z-matrix:
 Charge =  0 Multiplicity = 1
 O                    -5.3266   -0.76517   0.92378 
 H                    -4.36893  -0.71135   0.89835 
 H                    -5.60931   0.13816   0.72712 
 
 NAtoms=      3 NQM=        3 NQMF=       0 NMMI=      0 NMMIF=      0
                NMic=       0 NMicF=      0.
                    Isotopes and Nuclear Properties:
 (Nuclear quadrupole moments (NQMom) in fm**2, nuclear magnetic moments (NMagM)
  in nuclear magnetons)

  Atom         1           2           3
 IAtWgt=          16           1           1
 AtmWgt=  15.9949146   1.0078250   1.0078250
 NucSpn=           0           1           1
 AtZEff=   0.0000000   0.0000000   0.0000000
 NQMom=    0.0000000   0.0000000   0.0000000
 NMagM=    0.0000000   2.7928460   2.7928460
 AtZNuc=   8.0000000   1.0000000   1.0000000
 Leave Link  101 at Wed Aug 26 10:10:30 2020, MaxMem=  2097152000 cpu:         0.5
 (Enter /opt/cluster/programs/g09/g09_d.01/g09/l202.exe)
                          Input orientation:                          
 ---------------------------------------------------------------------
 Center     Atomic      Atomic             Coordinates (Angstroms)
 Number     Number       Type             X           Y           Z
 ---------------------------------------------------------------------
      1          8           0       -5.326605   -0.765173    0.923779
      2          1           0       -4.368927   -0.711354    0.898347
      3          1           0       -5.609308    0.138160    0.727115
 ---------------------------------------------------------------------
                    Distance matrix (angstroms):
                    1          2          3
     1  O    0.000000
     2  H    0.959526   0.000000
     3  H    0.966751   1.513122   0.000000
 Stoichiometry    H2O
 Framework group  CS[SG(H2O)]
 Deg. of freedom     3
 Full point group                 CS      NOp   2
 Largest Abelian subgroup         CS      NOp   2
 Largest concise Abelian subgroup C1      NOp   1
                         Standard orientation:                         
 ---------------------------------------------------------------------
 Center     Atomic      Atomic             Coordinates (Angstroms)
 Number     Number       Type             X           Y           Z
 ---------------------------------------------------------------------
      1          8           0        0.000000    0.119208    0.000000
      2          1           0        0.756539   -0.470995    0.000000
      3          1           0       -0.756539   -0.482670    0.000000
 ---------------------------------------------------------------------
 Rotational constants (GHZ):    794.7916694    438.0081232    282.3858420
 Leave Link  202 at Wed Aug 26 10:10:30 2020, MaxMem=  2097152000 cpu:         0.0
 (Enter /opt/cluster/programs/g09/g09_d.01/g09/l301.exe)
 Standard basis: def2QZVP (5D, 7F)
 Ernie: Thresh=  0.10000D-02 Tol=  0.10000D-05 Strict=F.
 There are    96 symmetry adapted cartesian basis functions of A'  symmetry.
 There are    46 symmetry adapted cartesian basis functions of A"  symmetry.
 There are    77 symmetry adapted basis functions of A'  symmetry.
 There are    40 symmetry adapted basis functions of A"  symmetry.
   117 basis functions,   168 primitive gaussians,   142 cartesian basis functions
     5 alpha electrons        5 beta electrons
       nuclear repulsion energy         9.1407269861 Hartrees.
 IExCor=  419 DFT=T Ex+Corr=B2PLYPD3 ExCW=0 ScaHFX=  0.530000
 ScaDFX=  0.470000  0.470000  0.730000  0.730000 ScalE2=  0.270000  0.270000
 IRadAn=      0 IRanWt=     -1 IRanGd=            0 ICorTp=0 IEmpDi=141
 NAtoms=    3 NActive=    3 NUniq=    3 SFac= 1.00D+00 NAtFMM=   60 NAOKFM=F Big=F
 Integral buffers will be    131072 words long.
 Regular integral format.
 Two-electron integral symmetry is turned on.
 R6Disp:  Grimme-D3(BJ) Dispersion energy=       -0.0002343098 Hartrees.
 Nuclear repulsion after empirical dispersion term =        9.1404926762 Hartrees.
 Leave Link  301 at Wed Aug 26 10:10:31 2020, MaxMem=  2097152000 cpu:         0.4
 (Enter /opt/cluster/programs/g09/g09_d.01/g09/l302.exe)
 NPDir=0 NMtPBC=     1 NCelOv=     1 NCel=       1 NClECP=     1 NCelD=      1
         NCelK=      1 NCelE2=     1 NClLst=     1 CellRange=     0.0.
 One-electron integrals computed using PRISM.
   1 Symmetry operations used in ECPInt.
 ECPInt:  NShTT=     703 NPrTT=    1591 LenC2=     704 LenP2D=    1543.
 LDataN:  DoStor=T MaxTD1= 8 Len=  415
 NBasis=   117 RedAO= T EigKep=  4.53D-04  NBF=    77    40
 NBsUse=   117 1.00D-06 EigRej= -1.00D+00 NBFU=    77    40
 Precomputing XC quadrature grid using
 IXCGrd= 4 IRadAn=           0 IRanWt=          -1 IRanGd=           0 AccXCQ= 0.00D+00.
 Generated NRdTot=       0 NPtTot=           0 NUsed=           0 NTot=          32
 NSgBfM=   142   142   142   142   142 MxSgAt=     3 MxSgA2=     3.
 Leave Link  302 at Wed Aug 26 10:10:31 2020, MaxMem=  2097152000 cpu:         1.7
 (Enter /opt/cluster/programs/g09/g09_d.01/g09/l303.exe)
 DipDrv:  MaxL=1.
 Leave Link  303 at Wed Aug 26 10:10:31 2020, MaxMem=  2097152000 cpu:         0.1
 (Enter /opt/cluster/programs/g09/g09_d.01/g09/l401.exe)
 ExpMin= 8.03D-02 ExpMax= 1.17D+05 ExpMxC= 1.13D+03 IAcc=2 IRadAn=         4 AccDes= 0.00D+00
 Harris functional with IExCor=  419 and IRadAn=       4 diagonalized for initial guess.
 HarFok:  IExCor=  419 AccDes= 0.00D+00 IRadAn=         4 IDoV= 1 UseB2=F ITyADJ=14
 ICtDFT=  3500011 ScaDFX=  1.000000  1.000000  1.000000  1.000000
 FoFCou: FMM=F IPFlag=           0 FMFlag=      100000 FMFlg1=           0
         NFxFlg=           0 DoJE=T BraDBF=F KetDBF=T FulRan=T
         wScrn=  0.000000 ICntrl=     500 IOpCl=  0 I1Cent=   200000004 NGrid=           0
         NMat0=    1 NMatS0=      1 NMatT0=    0 NMatD0=    1 NMtDS0=    0 NMtDT0=    0
 Petite list used in FoFCou.
 Harris En= -76.5071607009357    
 JPrj=0 DoOrth=F DoCkMO=F.
 Initial guess orbital symmetries:
       Occupied  (A') (A') (A') (A') (A")
       Virtual   (A') (A') (A') (A") (A') (A') (A') (A') (A") (A")
                 (A') (A') (A') (A') (A') (A') (A') (A") (A") (A")
                 (A') (A') (A') (A") (A') (A') (A") (A') (A") (A')
                 (A') (A") (A') (A') (A") (A") (A') (A') (A') (A')
                 (A') (A") (A") (A') (A") (A') (A') (A") (A') (A')
                 (A") (A') (A') (A") (A') (A') (A") (A') (A") (A')
                 (A") (A') (A') (A") (A') (A") (A') (A") (A') (A')
                 (A') (A') (A") (A") (A") (A') (A') (A") (A') (A')
                 (A') (A") (A') (A") (A') (A') (A') (A") (A') (A")
                 (A') (A') (A") (A') (A") (A") (A') (A") (A') (A')
                 (A") (A') (A') (A') (A') (A") (A") (A') (A') (A')
                 (A') (A')
 The electronic state of the initial guess is 1-A'.
 Leave Link  401 at Wed Aug 26 10:10:34 2020, MaxMem=  2097152000 cpu:         1.9
 (Enter /opt/cluster/programs/g09/g09_d.01/g09/l502.exe)
 Closed shell SCF:
 Using DIIS extrapolation, IDIIS=  1040.
 Integral symmetry usage will be decided dynamically.
 Keep R1 ints in memory in symmetry-blocked form, NReq=35980147.
 IVT=       81231 IEndB=       81231 NGot=  2097152000 MDV=  2085001127
 LenX=  2085001127 LenY=  2084980522
 Requested convergence on RMS density matrix=1.00D-08 within 128 cycles.
 Requested convergence on MAX density matrix=1.00D-06.
 Requested convergence on             energy=1.00D-06.
 No special actions if energy rises.
 FoFCou: FMM=F IPFlag=           0 FMFlag=           0 FMFlg1=           0
         NFxFlg=           0 DoJE=F BraDBF=F KetDBF=F FulRan=T
         wScrn=  0.000000 ICntrl=     600 IOpCl=  0 I1Cent=           0 NGrid=           0
         NMat0=    1 NMatS0=   6903 NMatT0=    0 NMatD0=    1 NMtDS0=    0 NMtDT0=    0
 Petite list used in FoFCou.
 Integral accuracy reduced to 1.0D-05 until final iterations.

 Cycle   1  Pass 0  IDiag  1:
 E= -76.2480796606956    
 DIIS: error= 4.65D-02 at cycle   1 NSaved=   1.
 NSaved= 1 IEnMin= 1 EnMin= -76.2480796606956     IErMin= 1 ErrMin= 4.65D-02
 ErrMax= 4.65D-02  0.00D+00 EMaxC= 1.00D-01 BMatC= 1.67D-01 BMatP= 1.67D-01
 IDIUse=3 WtCom= 5.35D-01 WtEn= 4.65D-01
 Coeff-Com:  0.100D+01
 Coeff-En:   0.100D+01
 Coeff:      0.100D+01
 Gap=     0.296 Goal=   None    Shift=    0.000
 GapD=    0.296 DampG=1.000 DampE=0.500 DampFc=0.5000 IDamp=-1.
 Damping current iteration by 5.00D-01
 RMSDP=2.38D-03 MaxDP=7.70D-02              OVMax= 1.69D-01

 Cycle   2  Pass 0  IDiag  1:
 E= -76.2862559524859     Delta-E=       -0.038176291790 Rises=F Damp=T
 DIIS: error= 1.57D-02 at cycle   2 NSaved=   2.
 NSaved= 2 IEnMin= 2 EnMin= -76.2862559524859     IErMin= 2 ErrMin= 1.57D-02
 ErrMax= 1.57D-02  0.00D+00 EMaxC= 1.00D-01 BMatC= 1.06D-02 BMatP= 1.67D-01
 IDIUse=3 WtCom= 8.43D-01 WtEn= 1.57D-01
 Coeff-Com:  0.153D-01 0.985D+00
 Coeff-En:   0.138D+00 0.862D+00
 Coeff:      0.347D-01 0.965D+00
 Gap=     0.444 Goal=   None    Shift=    0.000
 RMSDP=3.46D-04 MaxDP=1.18D-02 DE=-3.82D-02 OVMax= 1.02D-01

 Cycle   3  Pass 0  IDiag  1:
 E= -76.3344826348818     Delta-E=       -0.048226682396 Rises=F Damp=F
 DIIS: error= 3.89D-03 at cycle   3 NSaved=   3.
 NSaved= 3 IEnMin= 3 EnMin= -76.3344826348818     IErMin= 3 ErrMin= 3.89D-03
 ErrMax= 3.89D-03  0.00D+00 EMaxC= 1.00D-01 BMatC= 5.46D-04 BMatP= 1.06D-02
 IDIUse=3 WtCom= 9.61D-01 WtEn= 3.89D-02
 Coeff-Com: -0.558D-01 0.725D-01 0.983D+00
 Coeff-En:   0.000D+00 0.000D+00 0.100D+01
 Coeff:     -0.536D-01 0.697D-01 0.984D+00
 Gap=     0.443 Goal=   None    Shift=    0.000
 RMSDP=8.38D-05 MaxDP=2.73D-03 DE=-4.82D-02 OVMax= 6.48D-03

 Cycle   4  Pass 0  IDiag  1:
 E= -76.3348631011762     Delta-E=       -0.000380466294 Rises=F Damp=F
 DIIS: error= 2.88D-04 at cycle   4 NSaved=   4.
 NSaved= 4 IEnMin= 4 EnMin= -76.3348631011762     IErMin= 4 ErrMin= 2.88D-04
 ErrMax= 2.88D-04  0.00D+00 EMaxC= 1.00D-01 BMatC= 4.64D-06 BMatP= 5.46D-04
 IDIUse=3 WtCom= 9.97D-01 WtEn= 2.88D-03
 Coeff-Com:  0.241D-02-0.788D-02 0.294D-01 0.976D+00
 Coeff-En:   0.000D+00 0.000D+00 0.000D+00 0.100D+01
 Coeff:      0.240D-02-0.786D-02 0.294D-01 0.976D+00
 Gap=     0.444 Goal=   None    Shift=    0.000
 RMSDP=1.19D-05 MaxDP=4.30D-04 DE=-3.80D-04 OVMax= 7.87D-04

 Cycle   5  Pass 0  IDiag  1:
 E= -76.3348664209745     Delta-E=       -0.000003319798 Rises=F Damp=F
 DIIS: error= 5.27D-05 at cycle   5 NSaved=   5.
 NSaved= 5 IEnMin= 5 EnMin= -76.3348664209745     IErMin= 5 ErrMin= 5.27D-05
 ErrMax= 5.27D-05  0.00D+00 EMaxC= 1.00D-01 BMatC= 6.69D-08 BMatP= 4.64D-06
 IDIUse=1 WtCom= 1.00D+00 WtEn= 0.00D+00
 Coeff-Com:  0.221D-02-0.329D-02-0.321D-01 0.343D-01 0.999D+00
 Coeff:      0.221D-02-0.329D-02-0.321D-01 0.343D-01 0.999D+00
 Gap=     0.444 Goal=   None    Shift=    0.000
 RMSDP=2.37D-06 MaxDP=7.44D-05 DE=-3.32D-06 OVMax= 1.75D-04

 Initial convergence to 1.0D-05 achieved.  Increase integral accuracy.
 Cycle   6  Pass 1  IDiag  1:
 E= -76.3348611128459     Delta-E=        0.000005308129 Rises=F Damp=F
 DIIS: error= 1.42D-05 at cycle   1 NSaved=   1.
 NSaved= 1 IEnMin= 1 EnMin= -76.3348611128459     IErMin= 1 ErrMin= 1.42D-05
 ErrMax= 1.42D-05  0.00D+00 EMaxC= 1.00D-01 BMatC= 1.28D-08 BMatP= 1.28D-08
 IDIUse=1 WtCom= 1.00D+00 WtEn= 0.00D+00
 Coeff-Com:  0.100D+01
 Coeff:      0.100D+01
 Gap=     0.444 Goal=   None    Shift=    0.000
 RMSDP=2.37D-06 MaxDP=7.44D-05 DE= 5.31D-06 OVMax= 4.04D-05

 Cycle   7  Pass 1  IDiag  1:
 E= -76.3348611186151     Delta-E=       -0.000000005769 Rises=F Damp=F
 DIIS: error= 6.06D-06 at cycle   2 NSaved=   2.
 NSaved= 2 IEnMin= 2 EnMin= -76.3348611186151     IErMin= 2 ErrMin= 6.06D-06
 ErrMax= 6.06D-06  0.00D+00 EMaxC= 1.00D-01 BMatC= 1.14D-09 BMatP= 1.28D-08
 IDIUse=1 WtCom= 1.00D+00 WtEn= 0.00D+00
 Coeff-Com:  0.923D-01 0.908D+00
 Coeff:      0.923D-01 0.908D+00
 Gap=     0.444 Goal=   None    Shift=    0.000
 RMSDP=2.18D-07 MaxDP=7.02D-06 DE=-5.77D-09 OVMax= 2.13D-05

 Cycle   8  Pass 1  IDiag  1:
 E= -76.3348611190994     Delta-E=       -0.000000000484 Rises=F Damp=F
 DIIS: error= 4.41D-06 at cycle   3 NSaved=   3.
 NSaved= 3 IEnMin= 3 EnMin= -76.3348611190994     IErMin= 3 ErrMin= 4.41D-06
 ErrMax= 4.41D-06  0.00D+00 EMaxC= 1.00D-01 BMatC= 8.55D-10 BMatP= 1.14D-09
 IDIUse=1 WtCom= 1.00D+00 WtEn= 0.00D+00
 Coeff-Com: -0.357D-01 0.466D+00 0.569D+00
 Coeff:     -0.357D-01 0.466D+00 0.569D+00
 Gap=     0.444 Goal=   None    Shift=    0.000
 RMSDP=9.84D-08 MaxDP=3.51D-06 DE=-4.84D-10 OVMax= 8.45D-06

 Cycle   9  Pass 1  IDiag  1:
 E= -76.3348611196699     Delta-E=       -0.000000000571 Rises=F Damp=F
 DIIS: error= 5.08D-07 at cycle   4 NSaved=   4.
 NSaved= 4 IEnMin= 4 EnMin= -76.3348611196699     IErMin= 4 ErrMin= 5.08D-07
 ErrMax= 5.08D-07  0.00D+00 EMaxC= 1.00D-01 BMatC= 6.59D-12 BMatP= 8.55D-10
 IDIUse=1 WtCom= 1.00D+00 WtEn= 0.00D+00
 Coeff-Com: -0.291D-02-0.887D-01-0.492D-01 0.114D+01
 Coeff:     -0.291D-02-0.887D-01-0.492D-01 0.114D+01
 Gap=     0.444 Goal=   None    Shift=    0.000
 RMSDP=2.86D-08 MaxDP=8.63D-07 DE=-5.71D-10 OVMax= 2.33D-06

 Cycle  10  Pass 1  IDiag  1:
 E= -76.3348611196843     Delta-E=       -0.000000000014 Rises=F Damp=F
 DIIS: error= 7.23D-08 at cycle   5 NSaved=   5.
 NSaved= 5 IEnMin= 5 EnMin= -76.3348611196843     IErMin= 5 ErrMin= 7.23D-08
 ErrMax= 7.23D-08  0.00D+00 EMaxC= 1.00D-01 BMatC= 2.66D-13 BMatP= 6.59D-12
 IDIUse=1 WtCom= 1.00D+00 WtEn= 0.00D+00
 Coeff-Com:  0.173D-02-0.408D-01-0.399D-01 0.159D+00 0.920D+00
 Coeff:      0.173D-02-0.408D-01-0.399D-01 0.159D+00 0.920D+00
 Gap=     0.444 Goal=   None    Shift=    0.000
 RMSDP=4.15D-09 MaxDP=1.09D-07 DE=-1.44D-11 OVMax= 4.04D-07

 SCF Done:  E(RB2PLYPD3) =  -76.3348611197     A.U. after   10 cycles
            NFock= 10  Conv=0.42D-08     -V/T= 2.0029
 KE= 7.611200552334D+01 PE=-1.991055221413D+02 EE= 3.751816282207D+01
 Leave Link  502 at Wed Aug 26 10:10:36 2020, MaxMem=  2097152000 cpu:        13.2
 (Enter /opt/cluster/programs/g09/g09_d.01/g09/l801.exe)
 DoSCS=T DFT=T ScalE2(SS,OS)=  0.270000  0.270000
 ExpMin= 8.03D-02 ExpMax= 1.17D+05 ExpMxC= 1.13D+03 IAcc=3 IRadAn=         5 AccDes= 0.00D+00
 HarFok:  IExCor=  205 AccDes= 0.00D+00 IRadAn=         5 IDoV=-2 UseB2=F ITyADJ=14
 ICtDFT= 12500011 ScaDFX=  1.000000  1.000000  1.000000  1.000000
 Largest valence mixing into a core orbital is  6.78D-05
 Largest core mixing into a valence orbital is  9.98D-06
 Range of M.O.s used for correlation:     2   117
 NBasis=   117 NAE=     5 NBE=     5 NFC=     1 NFV=     0
 NROrb=    116 NOA=     4 NOB=     4 NVA=   112 NVB=   112

 **** Warning!!: The largest alpha MO coefficient is  0.15557743D+02

 Leave Link  801 at Wed Aug 26 10:10:36 2020, MaxMem=  2097152000 cpu:         0.4
 (Enter /opt/cluster/programs/g09/g09_d.01/g09/l906.exe)
 DoSCS=T DFT=T ScalE2(SS,OS)=  0.270000  0.270000
 FulOut=F Deriv=F AODrv=F NAtomX=     3
   MMem=       16445  MDisk=           4 MDiskD=           4
  W3Min=       63616 MinDsk=      271641 NBas6D=         142
 NBas2D=       10573    NTT=       10153    LW2=     4508827
    MDV=  2097048983 MDiskM=       32786 NBas2p=       10573
 Fully in-core method, ICMem=   125836233.
 IMap=   1   2   3   4
 JobTyp=1 Pass  1 fully in-core, NPsUse=  8.
 Compute canonical integrals.
 FoFCou: FMM=F IPFlag=           0 FMFlag=           0 FMFlg1=           0
         NFxFlg=           0 DoJE=F BraDBF=F KetDBF=F FulRan=T
         wScrn=  0.000000 ICntrl=     600 IOpCl=  1 I1Cent=           0 NGrid=           0
         NMat0=    1 NMatS0=  10573 NMatT0=    0 NMatD0=    1 NMtDS0=    0 NMtDT0=    0
 Symmetry not used in FoFCou.
 Spin components of T(2) and E(2):
     alpha-alpha T2 =       0.1225764022D-01 E2=     -0.1077264630D-01
     alpha-beta  T2 =       0.7113882974D-01 E2=     -0.6862894684D-01
     beta-beta   T2 =       0.1225764022D-01 E2=     -0.1077264630D-01
 The integrals were generated   1 times.
 E2(B2PLYPD3) =    -0.9017423944D-01 E(B2PLYPD3) =    -0.76425035359125D+02
 Leave Link  906 at Wed Aug 26 10:10:38 2020, MaxMem=  2097152000 cpu:        12.4
 (Enter /opt/cluster/programs/g09/g09_d.01/g09/l601.exe)
 Copying SCF densities to generalized density rwf, IOpCl= 0 IROHF=0.

 **********************************************************************

            Population analysis using the SCF density.

 **********************************************************************

 Orbital symmetries:
       Occupied  (A') (A') (A') (A') (A")
       Virtual   (A') (A') (A') (A") (A') (A') (A') (A') (A") (A")
                 (A') (A') (A') (A') (A') (A') (A') (A") (A") (A')
                 (A") (A') (A') (A") (A') (A') (A") (A') (A") (A')
                 (A') (A") (A') (A') (A") (A") (A') (A') (A') (A')
                 (A') (A") (A") (A') (A") (A') (A') (A") (A') (A')
                 (A") (A') (A') (A") (A') (A') (A") (A') (A") (A')
                 (A") (A') (A') (A") (A') (A") (A') (A") (A') (A')
                 (A') (A') (A") (A") (A") (A') (A') (A") (A') (A')
                 (A') (A") (A') (A") (A') (A') (A') (A") (A') (A")
                 (A') (A') (A") (A') (A") (A") (A') (A") (A') (A')
                 (A") (A') (A') (A') (A') (A") (A") (A') (A') (A')
                 (A') (A')
 The electronic state is 1-A'.
 Alpha  occ. eigenvalues --  -19.73247  -1.15550  -0.60868  -0.47616  -0.39956
 Alpha virt. eigenvalues --    0.04466   0.10186   0.27562   0.30419   0.30792
 Alpha virt. eigenvalues --    0.35892   0.43856   0.50017   0.56374   0.61820
 Alpha virt. eigenvalues --    0.65767   0.81109   0.93824   0.96003   1.03308
 Alpha virt. eigenvalues --    1.08609   1.33929   1.34001   1.35322   1.41915
 Alpha virt. eigenvalues --    1.43583   1.48998   1.84203   1.92372   2.02696
 Alpha virt. eigenvalues --    2.05333   2.14849   2.30164   2.33385   2.36584
 Alpha virt. eigenvalues --    2.37995   2.44993   2.56261   2.60514   2.68787
 Alpha virt. eigenvalues --    2.72008   2.89843   2.98999   3.17675   3.18841
 Alpha virt. eigenvalues --    3.32589   3.78585   3.90629   3.94312   3.96206
 Alpha virt. eigenvalues --    4.12857   4.18307   4.30148   4.31804   4.49188
 Alpha virt. eigenvalues --    4.69447   4.84689   4.88156   5.34031   5.42670
 Alpha virt. eigenvalues --    5.44610   5.77884   5.98021   6.05404   6.15288
 Alpha virt. eigenvalues --    6.51872   6.57807   6.84554   7.11791   7.17498
 Alpha virt. eigenvalues --    7.21541   7.23739   7.33080   7.40681   7.44510
 Alpha virt. eigenvalues --    7.48716   7.55435   7.78408   7.87925   7.93572
 Alpha virt. eigenvalues --    7.97212   7.98311   8.11703   8.17010   8.39710
 Alpha virt. eigenvalues --    8.56879   8.67543   8.83665   8.86712   9.12225
 Alpha virt. eigenvalues --    9.18806   9.98735  10.01204  10.38805  10.41632
 Alpha virt. eigenvalues --   10.83834  10.87258  11.08251  11.20761  11.27865
 Alpha virt. eigenvalues --   11.49953  11.63897  11.89235  11.94108  11.99555
 Alpha virt. eigenvalues --   12.05933  12.37831  13.02841  13.66707  13.72546
 Alpha virt. eigenvalues --   13.83132  14.24081  14.57809  16.77389  16.84332
 Alpha virt. eigenvalues --   48.73939 254.47522
          Condensed to atoms (all electrons):
               1          2          3
     1  O    7.772914   0.336047   0.335145
     2  H    0.336047   0.464367  -0.020906
     3  H    0.335145  -0.020906   0.462148
 Mulliken charges:
               1
     1  O   -0.444105
     2  H    0.220492
     3  H    0.223613
 Sum of Mulliken charges =   0.00000
 Mulliken charges with hydrogens summed into heavy atoms:
               1
     1  O    0.000000
 Electronic spatial extent (au):  <R**2>=             19.7036
 Charge=              0.0000 electrons
 Dipole moment (field-independent basis, Debye):
    X=              0.0038    Y=             -1.9814    Z=              0.0000  Tot=              1.9814
 Quadrupole moment (field-independent basis, Debye-Ang):
   XX=             -4.3763   YY=             -6.2954   ZZ=             -7.6015
   XY=              0.0189   XZ=              0.0000   YZ=              0.0000
 Traceless Quadrupole moment (field-independent basis, Debye-Ang):
   XX=              1.7148   YY=             -0.2044   ZZ=             -1.5104
   XY=              0.0189   XZ=              0.0000   YZ=              0.0000
 Octapole moment (field-independent basis, Debye-Ang**2):
  XXX=              0.0115  YYY=             -1.1907  ZZZ=              0.0000  XYY=             -0.0129
  XXY=             -1.3684  XXZ=              0.0000  XZZ=              0.0041  YZZ=             -0.2828
  YYZ=              0.0000  XYZ=              0.0000
 Hexadecapole moment (field-independent basis, Debye-Ang**3):
 XXXX=             -6.2651 YYYY=             -7.4190 ZZZZ=             -6.7609 XXXY=             -0.0024
 XXXZ=              0.0000 YYYX=              0.0000 YYYZ=              0.0000 ZZZX=              0.0000
 ZZZY=              0.0000 XXYY=             -1.9214 XXZZ=             -2.4934 YYZZ=             -2.4215
 XXYZ=              0.0000 YYXZ=              0.0000 ZZXY=             -0.0053
 N-N= 9.140492676220D+00 E-N=-1.991055217110D+02  KE= 7.611200552334D+01
 Symmetry A'   KE= 7.159329077480D+01
 Symmetry A"   KE= 4.518714748544D+00
 Leave Link  601 at Wed Aug 26 10:10:38 2020, MaxMem=  2097152000 cpu:         0.3
 (Enter /opt/cluster/programs/g09/g09_d.01/g09/l9999.exe)
 1\1\GINC-NODE06\SP\RB2PLYPD3-FC\def2QZVP\H2O1\BOITTIER\26-Aug-2020\0\\
 #p B2PLYPD3/Def2QZVP\\h2o\\0,1\O,0,-5.326605,-0.765173,0.923779\H,0,-4
 .368927,-0.711354,0.898347\H,0,-5.609308,0.13816,0.727115\\Version=ES6
 4L-G09RevD.01\State=1-A'\HF=-76.3348611\MP2=-76.4250354\RMSD=4.154e-09
 \PG=CS [SG(H2O1)]\\@


 IF YOU GET CONFUSED, LOGIC OUT YOUR DILEMMA

           --  PICKER X-RAY CORP.    DIGITAL PRINTER MANUAL CA. 1964
 Job cpu time:       0 days  0 hours  0 minutes 31.9 seconds.
 File lengths (MBytes):  RWF=      8 Int=      0 D2E=      0 Chk=      2 Scr=      1
 Normal termination of Gaussian 09 at Wed Aug 26 10:10:38 2020.
