 Entering Gaussian System, Link 0=/opt/cluster/programs/g09/g09_d.01/g09//g09
 Input=/home/boittier/MDCM/nms_sampling/h2o_geom.xyz.dir/energies/h2o_719_energy.com
 Output=/scratch/boittier/h2o_719_energy/h2o_719_energy.out
 Initial command:
 /opt/cluster/programs/g09/g09_d.01/g09/l1.exe "/scratch/boittier/h2o_719_energy/Gau-184586.inp" -scrdir="/scratch/boittier/h2o_719_energy/"
 Entering Link 1 = /opt/cluster/programs/g09/g09_d.01/g09/l1.exe PID=    184587.
  
 Copyright (c) 1988,1990,1992,1993,1995,1998,2003,2009,2013,
            Gaussian, Inc.  All Rights Reserved.
  
 This is part of the Gaussian(R) 09 program.  It is based on
 the Gaussian(R) 03 system (copyright 2003, Gaussian, Inc.),
 the Gaussian(R) 98 system (copyright 1998, Gaussian, Inc.),
 the Gaussian(R) 94 system (copyright 1995, Gaussian, Inc.),
 the Gaussian 92(TM) system (copyright 1992, Gaussian, Inc.),
 the Gaussian 90(TM) system (copyright 1990, Gaussian, Inc.),
 the Gaussian 88(TM) system (copyright 1988, Gaussian, Inc.),
 the Gaussian 86(TM) system (copyright 1986, Carnegie Mellon
 University), and the Gaussian 82(TM) system (copyright 1983,
 Carnegie Mellon University). Gaussian is a federally registered
 trademark of Gaussian, Inc.
  
 This software contains proprietary and confidential information,
 including trade secrets, belonging to Gaussian, Inc.
  
 This software is provided under written license and may be
 used, copied, transmitted, or stored only in accord with that
 written license.
  
 The following legend is applicable only to US Government
 contracts under FAR:
  
                    RESTRICTED RIGHTS LEGEND
  
 Use, reproduction and disclosure by the US Government is
 subject to restrictions as set forth in subparagraphs (a)
 and (c) of the Commercial Computer Software - Restricted
 Rights clause in FAR 52.227-19.
  
 Gaussian, Inc.
 340 Quinnipiac St., Bldg. 40, Wallingford CT 06492
  
  
 ---------------------------------------------------------------
 Warning -- This program may not be used in any manner that
 competes with the business of Gaussian, Inc. or will provide
 assistance to any competitor of Gaussian, Inc.  The licensee
 of this program is prohibited from giving any competitor of
 Gaussian, Inc. access to this program.  By using this program,
 the user acknowledges that Gaussian, Inc. is engaged in the
 business of creating and licensing software in the field of
 computational chemistry and represents and warrants to the
 licensee that it is not a competitor of Gaussian, Inc. and that
 it will not use this program in any manner prohibited above.
 ---------------------------------------------------------------
  

 Cite this work as:
 Gaussian 09, Revision D.01,
 M. J. Frisch, G. W. Trucks, H. B. Schlegel, G. E. Scuseria, 
 M. A. Robb, J. R. Cheeseman, G. Scalmani, V. Barone, B. Mennucci, 
 G. A. Petersson, H. Nakatsuji, M. Caricato, X. Li, H. P. Hratchian, 
 A. F. Izmaylov, J. Bloino, G. Zheng, J. L. Sonnenberg, M. Hada, 
 M. Ehara, K. Toyota, R. Fukuda, J. Hasegawa, M. Ishida, T. Nakajima, 
 Y. Honda, O. Kitao, H. Nakai, T. Vreven, J. A. Montgomery, Jr., 
 J. E. Peralta, F. Ogliaro, M. Bearpark, J. J. Heyd, E. Brothers, 
 K. N. Kudin, V. N. Staroverov, T. Keith, R. Kobayashi, J. Normand, 
 K. Raghavachari, A. Rendell, J. C. Burant, S. S. Iyengar, J. Tomasi, 
 M. Cossi, N. Rega, J. M. Millam, M. Klene, J. E. Knox, J. B. Cross, 
 V. Bakken, C. Adamo, J. Jaramillo, R. Gomperts, R. E. Stratmann, 
 O. Yazyev, A. J. Austin, R. Cammi, C. Pomelli, J. W. Ochterski, 
 R. L. Martin, K. Morokuma, V. G. Zakrzewski, G. A. Voth, 
 P. Salvador, J. J. Dannenberg, S. Dapprich, A. D. Daniels, 
 O. Farkas, J. B. Foresman, J. V. Ortiz, J. Cioslowski, 
 and D. J. Fox, Gaussian, Inc., Wallingford CT, 2013.
 
 ******************************************
 Gaussian 09:  ES64L-G09RevD.01 24-Apr-2013
                26-Aug-2020 
 ******************************************
 %chk=/home/boittier/MDCM/nms_sampling/h2o_geom.xyz.dir/h2o_719.chk
 %nproc=8
 Will use up to    8 processors via shared memory.
 %mem=16000MB
 --------------------
 #p B2PLYPD3/Def2QZVP
 --------------------
 1/38=1/1;
 2/12=2,17=6,18=5,40=1/2;
 3/5=45,7=101,11=9,16=1,25=1,30=1,74=-60/1,2,3;
 4//1;
 5/5=2,38=5/2;
 8/10=1/1;
 9/16=-3/6;
 6/7=2,8=2,9=2,10=2/1;
 99/5=1,9=1/99;
 Leave Link    1 at Wed Aug 26 10:44:09 2020, MaxMem=  2097152000 cpu:         0.3
 (Enter /opt/cluster/programs/g09/g09_d.01/g09/l101.exe)
 ---
 h2o
 ---
 Symbolic Z-matrix:
 Charge =  0 Multiplicity = 1
 O                    -5.3266   -0.76197   0.92459 
 H                    -4.36893  -0.74223   0.87228 
 H                    -5.60931   0.1178    0.74039 
 
 NAtoms=      3 NQM=        3 NQMF=       0 NMMI=      0 NMMIF=      0
                NMic=       0 NMicF=      0.
                    Isotopes and Nuclear Properties:
 (Nuclear quadrupole moments (NQMom) in fm**2, nuclear magnetic moments (NMagM)
  in nuclear magnetons)

  Atom         1           2           3
 IAtWgt=          16           1           1
 AtmWgt=  15.9949146   1.0078250   1.0078250
 NucSpn=           0           1           1
 AtZEff=   0.0000000   0.0000000   0.0000000
 NQMom=    0.0000000   0.0000000   0.0000000
 NMagM=    0.0000000   2.7928460   2.7928460
 AtZNuc=   8.0000000   1.0000000   1.0000000
 Leave Link  101 at Wed Aug 26 10:44:09 2020, MaxMem=  2097152000 cpu:         0.5
 (Enter /opt/cluster/programs/g09/g09_d.01/g09/l202.exe)
                          Input orientation:                          
 ---------------------------------------------------------------------
 Center     Atomic      Atomic             Coordinates (Angstroms)
 Number     Number       Type             X           Y           Z
 ---------------------------------------------------------------------
      1          8           0       -5.326605   -0.761970    0.924594
      2          1           0       -4.368927   -0.742233    0.872275
      3          1           0       -5.609308    0.117804    0.740385
 ---------------------------------------------------------------------
                    Distance matrix (angstroms):
                    1          2          3
     1  O    0.000000
     2  H    0.959309   0.000000
     3  H    0.942261   1.515125   0.000000
 Stoichiometry    H2O
 Framework group  CS[SG(H2O)]
 Deg. of freedom     3
 Full point group                 CS      NOp   2
 Largest Abelian subgroup         CS      NOp   2
 Largest concise Abelian subgroup C1      NOp   1
                         Standard orientation:                         
 ---------------------------------------------------------------------
 Center     Atomic      Atomic             Coordinates (Angstroms)
 Number     Number       Type             X           Y           Z
 ---------------------------------------------------------------------
      1          8           0        0.000000    0.114920    0.000000
      2          1           0        0.757431   -0.473784    0.000000
      3          1           0       -0.757431   -0.445575    0.000000
 ---------------------------------------------------------------------
 Rotational constants (GHZ):    855.7071740    436.7249726    289.1514987
 Leave Link  202 at Wed Aug 26 10:44:09 2020, MaxMem=  2097152000 cpu:         0.0
 (Enter /opt/cluster/programs/g09/g09_d.01/g09/l301.exe)
 Standard basis: def2QZVP (5D, 7F)
 Ernie: Thresh=  0.10000D-02 Tol=  0.10000D-05 Strict=F.
 There are    96 symmetry adapted cartesian basis functions of A'  symmetry.
 There are    46 symmetry adapted cartesian basis functions of A"  symmetry.
 There are    77 symmetry adapted basis functions of A'  symmetry.
 There are    40 symmetry adapted basis functions of A"  symmetry.
   117 basis functions,   168 primitive gaussians,   142 cartesian basis functions
     5 alpha electrons        5 beta electrons
       nuclear repulsion energy         9.2550770662 Hartrees.
 IExCor=  419 DFT=T Ex+Corr=B2PLYPD3 ExCW=0 ScaHFX=  0.530000
 ScaDFX=  0.470000  0.470000  0.730000  0.730000 ScalE2=  0.270000  0.270000
 IRadAn=      0 IRanWt=     -1 IRanGd=            0 ICorTp=0 IEmpDi=141
 NAtoms=    3 NActive=    3 NUniq=    3 SFac= 1.00D+00 NAtFMM=   60 NAOKFM=F Big=F
 Integral buffers will be    131072 words long.
 Regular integral format.
 Two-electron integral symmetry is turned on.
 R6Disp:  Grimme-D3(BJ) Dispersion energy=       -0.0002342719 Hartrees.
 Nuclear repulsion after empirical dispersion term =        9.2548427943 Hartrees.
 Leave Link  301 at Wed Aug 26 10:44:09 2020, MaxMem=  2097152000 cpu:         0.4
 (Enter /opt/cluster/programs/g09/g09_d.01/g09/l302.exe)
 NPDir=0 NMtPBC=     1 NCelOv=     1 NCel=       1 NClECP=     1 NCelD=      1
         NCelK=      1 NCelE2=     1 NClLst=     1 CellRange=     0.0.
 One-electron integrals computed using PRISM.
   1 Symmetry operations used in ECPInt.
 ECPInt:  NShTT=     703 NPrTT=    1591 LenC2=     704 LenP2D=    1544.
 LDataN:  DoStor=T MaxTD1= 8 Len=  415
 NBasis=   117 RedAO= T EigKep=  4.14D-04  NBF=    77    40
 NBsUse=   117 1.00D-06 EigRej= -1.00D+00 NBFU=    77    40
 Precomputing XC quadrature grid using
 IXCGrd= 4 IRadAn=           0 IRanWt=          -1 IRanGd=           0 AccXCQ= 0.00D+00.
 Generated NRdTot=       0 NPtTot=           0 NUsed=           0 NTot=          32
 NSgBfM=   142   142   142   142   142 MxSgAt=     3 MxSgA2=     3.
 Leave Link  302 at Wed Aug 26 10:44:09 2020, MaxMem=  2097152000 cpu:         1.8
 (Enter /opt/cluster/programs/g09/g09_d.01/g09/l303.exe)
 DipDrv:  MaxL=1.
 Leave Link  303 at Wed Aug 26 10:44:10 2020, MaxMem=  2097152000 cpu:         0.2
 (Enter /opt/cluster/programs/g09/g09_d.01/g09/l401.exe)
 ExpMin= 8.03D-02 ExpMax= 1.17D+05 ExpMxC= 1.13D+03 IAcc=2 IRadAn=         4 AccDes= 0.00D+00
 Harris functional with IExCor=  419 and IRadAn=       4 diagonalized for initial guess.
 HarFok:  IExCor=  419 AccDes= 0.00D+00 IRadAn=         4 IDoV= 1 UseB2=F ITyADJ=14
 ICtDFT=  3500011 ScaDFX=  1.000000  1.000000  1.000000  1.000000
 FoFCou: FMM=F IPFlag=           0 FMFlag=      100000 FMFlg1=           0
         NFxFlg=           0 DoJE=T BraDBF=F KetDBF=T FulRan=T
         wScrn=  0.000000 ICntrl=     500 IOpCl=  0 I1Cent=   200000004 NGrid=           0
         NMat0=    1 NMatS0=      1 NMatT0=    0 NMatD0=    1 NMtDS0=    0 NMtDT0=    0
 Petite list used in FoFCou.
 Harris En= -76.5083640973787    
 JPrj=0 DoOrth=F DoCkMO=F.
 Initial guess orbital symmetries:
       Occupied  (A') (A') (A') (A') (A")
       Virtual   (A') (A') (A') (A") (A') (A') (A') (A') (A") (A")
                 (A') (A') (A') (A') (A') (A') (A') (A") (A") (A")
                 (A') (A') (A') (A") (A') (A') (A") (A') (A") (A')
                 (A') (A") (A') (A') (A") (A") (A') (A') (A') (A')
                 (A') (A") (A") (A") (A') (A') (A') (A") (A') (A')
                 (A") (A') (A') (A") (A') (A') (A") (A') (A") (A')
                 (A") (A') (A') (A') (A") (A") (A') (A") (A') (A')
                 (A') (A') (A") (A") (A") (A') (A') (A") (A') (A')
                 (A') (A") (A') (A") (A') (A') (A') (A") (A') (A")
                 (A') (A') (A") (A') (A") (A") (A') (A") (A') (A")
                 (A') (A') (A') (A') (A') (A") (A") (A') (A') (A')
                 (A') (A')
 The electronic state of the initial guess is 1-A'.
 Leave Link  401 at Wed Aug 26 10:44:10 2020, MaxMem=  2097152000 cpu:         1.9
 (Enter /opt/cluster/programs/g09/g09_d.01/g09/l502.exe)
 Closed shell SCF:
 Using DIIS extrapolation, IDIIS=  1040.
 Integral symmetry usage will be decided dynamically.
 Keep R1 ints in memory in symmetry-blocked form, NReq=35980147.
 IVT=       81231 IEndB=       81231 NGot=  2097152000 MDV=  2085001127
 LenX=  2085001127 LenY=  2084980522
 Requested convergence on RMS density matrix=1.00D-08 within 128 cycles.
 Requested convergence on MAX density matrix=1.00D-06.
 Requested convergence on             energy=1.00D-06.
 No special actions if energy rises.
 FoFCou: FMM=F IPFlag=           0 FMFlag=           0 FMFlg1=           0
         NFxFlg=           0 DoJE=F BraDBF=F KetDBF=F FulRan=T
         wScrn=  0.000000 ICntrl=     600 IOpCl=  0 I1Cent=           0 NGrid=           0
         NMat0=    1 NMatS0=   6903 NMatT0=    0 NMatD0=    1 NMtDS0=    0 NMtDT0=    0
 Petite list used in FoFCou.
 Integral accuracy reduced to 1.0D-05 until final iterations.

 Cycle   1  Pass 0  IDiag  1:
 E= -76.2464589848180    
 DIIS: error= 4.50D-02 at cycle   1 NSaved=   1.
 NSaved= 1 IEnMin= 1 EnMin= -76.2464589848180     IErMin= 1 ErrMin= 4.50D-02
 ErrMax= 4.50D-02  0.00D+00 EMaxC= 1.00D-01 BMatC= 1.71D-01 BMatP= 1.71D-01
 IDIUse=3 WtCom= 5.50D-01 WtEn= 4.50D-01
 Coeff-Com:  0.100D+01
 Coeff-En:   0.100D+01
 Coeff:      0.100D+01
 Gap=     0.296 Goal=   None    Shift=    0.000
 GapD=    0.296 DampG=1.000 DampE=0.500 DampFc=0.5000 IDamp=-1.
 Damping current iteration by 5.00D-01
 RMSDP=2.38D-03 MaxDP=7.46D-02              OVMax= 1.71D-01

 Cycle   2  Pass 0  IDiag  1:
 E= -76.2858835883040     Delta-E=       -0.039424603486 Rises=F Damp=T
 DIIS: error= 1.65D-02 at cycle   2 NSaved=   2.
 NSaved= 2 IEnMin= 2 EnMin= -76.2858835883040     IErMin= 2 ErrMin= 1.65D-02
 ErrMax= 1.65D-02  0.00D+00 EMaxC= 1.00D-01 BMatC= 1.05D-02 BMatP= 1.71D-01
 IDIUse=3 WtCom= 8.35D-01 WtEn= 1.65D-01
 Coeff-Com:  0.992D-02 0.990D+00
 Coeff-En:   0.128D+00 0.872D+00
 Coeff:      0.294D-01 0.971D+00
 Gap=     0.446 Goal=   None    Shift=    0.000
 RMSDP=3.42D-04 MaxDP=1.17D-02 DE=-3.94D-02 OVMax= 1.02D-01

 Cycle   3  Pass 0  IDiag  1:
 E= -76.3347883407225     Delta-E=       -0.048904752419 Rises=F Damp=F
 DIIS: error= 3.55D-03 at cycle   3 NSaved=   3.
 NSaved= 3 IEnMin= 3 EnMin= -76.3347883407225     IErMin= 3 ErrMin= 3.55D-03
 ErrMax= 3.55D-03  0.00D+00 EMaxC= 1.00D-01 BMatC= 5.24D-04 BMatP= 1.05D-02
 IDIUse=3 WtCom= 9.65D-01 WtEn= 3.55D-02
 Coeff-Com: -0.544D-01 0.700D-01 0.984D+00
 Coeff-En:   0.000D+00 0.000D+00 0.100D+01
 Coeff:     -0.525D-01 0.675D-01 0.985D+00
 Gap=     0.445 Goal=   None    Shift=    0.000
 RMSDP=8.26D-05 MaxDP=2.74D-03 DE=-4.89D-02 OVMax= 6.23D-03

 Cycle   4  Pass 0  IDiag  1:
 E= -76.3351514280216     Delta-E=       -0.000363087299 Rises=F Damp=F
 DIIS: error= 2.62D-04 at cycle   4 NSaved=   4.
 NSaved= 4 IEnMin= 4 EnMin= -76.3351514280216     IErMin= 4 ErrMin= 2.62D-04
 ErrMax= 2.62D-04  0.00D+00 EMaxC= 1.00D-01 BMatC= 4.09D-06 BMatP= 5.24D-04
 IDIUse=3 WtCom= 9.97D-01 WtEn= 2.62D-03
 Coeff-Com:  0.262D-02-0.787D-02 0.222D-01 0.983D+00
 Coeff-En:   0.000D+00 0.000D+00 0.000D+00 0.100D+01
 Coeff:      0.261D-02-0.785D-02 0.221D-01 0.983D+00
 Gap=     0.446 Goal=   None    Shift=    0.000
 RMSDP=1.19D-05 MaxDP=4.21D-04 DE=-3.63D-04 OVMax= 7.35D-04

 Cycle   5  Pass 0  IDiag  1:
 E= -76.3351543700207     Delta-E=       -0.000002941999 Rises=F Damp=F
 DIIS: error= 4.80D-05 at cycle   5 NSaved=   5.
 NSaved= 5 IEnMin= 5 EnMin= -76.3351543700207     IErMin= 5 ErrMin= 4.80D-05
 ErrMax= 4.80D-05  0.00D+00 EMaxC= 1.00D-01 BMatC= 5.80D-08 BMatP= 4.09D-06
 IDIUse=1 WtCom= 1.00D+00 WtEn= 0.00D+00
 Coeff-Com:  0.202D-02-0.298D-02-0.299D-01 0.373D-01 0.994D+00
 Coeff:      0.202D-02-0.298D-02-0.299D-01 0.373D-01 0.994D+00
 Gap=     0.447 Goal=   None    Shift=    0.000
 RMSDP=2.29D-06 MaxDP=7.02D-05 DE=-2.94D-06 OVMax= 1.57D-04

 Initial convergence to 1.0D-05 achieved.  Increase integral accuracy.
 Cycle   6  Pass 1  IDiag  1:
 E= -76.3351491667793     Delta-E=        0.000005203241 Rises=F Damp=F
 DIIS: error= 1.29D-05 at cycle   1 NSaved=   1.
 NSaved= 1 IEnMin= 1 EnMin= -76.3351491667793     IErMin= 1 ErrMin= 1.29D-05
 ErrMax= 1.29D-05  0.00D+00 EMaxC= 1.00D-01 BMatC= 1.29D-08 BMatP= 1.29D-08
 IDIUse=1 WtCom= 1.00D+00 WtEn= 0.00D+00
 Coeff-Com:  0.100D+01
 Coeff:      0.100D+01
 Gap=     0.446 Goal=   None    Shift=    0.000
 RMSDP=2.29D-06 MaxDP=7.02D-05 DE= 5.20D-06 OVMax= 3.96D-05

 Cycle   7  Pass 1  IDiag  1:
 E= -76.3351491723143     Delta-E=       -0.000000005535 Rises=F Damp=F
 DIIS: error= 5.73D-06 at cycle   2 NSaved=   2.
 NSaved= 2 IEnMin= 2 EnMin= -76.3351491723143     IErMin= 2 ErrMin= 5.73D-06
 ErrMax= 5.73D-06  0.00D+00 EMaxC= 1.00D-01 BMatC= 1.03D-09 BMatP= 1.29D-08
 IDIUse=1 WtCom= 1.00D+00 WtEn= 0.00D+00
 Coeff-Com:  0.833D-01 0.917D+00
 Coeff:      0.833D-01 0.917D+00
 Gap=     0.447 Goal=   None    Shift=    0.000
 RMSDP=2.08D-07 MaxDP=6.71D-06 DE=-5.53D-09 OVMax= 2.03D-05

 Cycle   8  Pass 1  IDiag  1:
 E= -76.3351491727620     Delta-E=       -0.000000000448 Rises=F Damp=F
 DIIS: error= 3.85D-06 at cycle   3 NSaved=   3.
 NSaved= 3 IEnMin= 3 EnMin= -76.3351491727620     IErMin= 3 ErrMin= 3.85D-06
 ErrMax= 3.85D-06  0.00D+00 EMaxC= 1.00D-01 BMatC= 7.76D-10 BMatP= 1.03D-09
 IDIUse=1 WtCom= 1.00D+00 WtEn= 0.00D+00
 Coeff-Com: -0.333D-01 0.466D+00 0.567D+00
 Coeff:     -0.333D-01 0.466D+00 0.567D+00
 Gap=     0.447 Goal=   None    Shift=    0.000
 RMSDP=9.40D-08 MaxDP=3.34D-06 DE=-4.48D-10 OVMax= 8.01D-06

 Cycle   9  Pass 1  IDiag  1:
 E= -76.3351491732754     Delta-E=       -0.000000000513 Rises=F Damp=F
 DIIS: error= 4.82D-07 at cycle   4 NSaved=   4.
 NSaved= 4 IEnMin= 4 EnMin= -76.3351491732754     IErMin= 4 ErrMin= 4.82D-07
 ErrMax= 4.82D-07  0.00D+00 EMaxC= 1.00D-01 BMatC= 6.42D-12 BMatP= 7.76D-10
 IDIUse=1 WtCom= 1.00D+00 WtEn= 0.00D+00
 Coeff-Com: -0.308D-02-0.859D-01-0.427D-01 0.113D+01
 Coeff:     -0.308D-02-0.859D-01-0.427D-01 0.113D+01
 Gap=     0.447 Goal=   None    Shift=    0.000
 RMSDP=2.82D-08 MaxDP=8.21D-07 DE=-5.13D-10 OVMax= 2.21D-06

 Cycle  10  Pass 1  IDiag  1:
 E= -76.3351491732891     Delta-E=       -0.000000000014 Rises=F Damp=F
 DIIS: error= 7.11D-08 at cycle   5 NSaved=   5.
 NSaved= 5 IEnMin= 5 EnMin= -76.3351491732891     IErMin= 5 ErrMin= 7.11D-08
 ErrMax= 7.11D-08  0.00D+00 EMaxC= 1.00D-01 BMatC= 2.66D-13 BMatP= 6.42D-12
 IDIUse=1 WtCom= 1.00D+00 WtEn= 0.00D+00
 Coeff-Com:  0.169D-02-0.416D-01-0.405D-01 0.157D+00 0.924D+00
 Coeff:      0.169D-02-0.416D-01-0.405D-01 0.157D+00 0.924D+00
 Gap=     0.447 Goal=   None    Shift=    0.000
 RMSDP=4.24D-09 MaxDP=1.08D-07 DE=-1.36D-11 OVMax= 4.20D-07

 SCF Done:  E(RB2PLYPD3) =  -76.3351491733     A.U. after   10 cycles
            NFock= 10  Conv=0.42D-08     -V/T= 2.0024
 KE= 7.615523225543D+01 PE=-1.993554474899D+02 EE= 3.761022326689D+01
 Leave Link  502 at Wed Aug 26 10:44:11 2020, MaxMem=  2097152000 cpu:        11.9
 (Enter /opt/cluster/programs/g09/g09_d.01/g09/l801.exe)
 DoSCS=T DFT=T ScalE2(SS,OS)=  0.270000  0.270000
 ExpMin= 8.03D-02 ExpMax= 1.17D+05 ExpMxC= 1.13D+03 IAcc=3 IRadAn=         5 AccDes= 0.00D+00
 HarFok:  IExCor=  205 AccDes= 0.00D+00 IRadAn=         5 IDoV=-2 UseB2=F ITyADJ=14
 ICtDFT= 12500011 ScaDFX=  1.000000  1.000000  1.000000  1.000000
 Largest valence mixing into a core orbital is  6.74D-05
 Largest core mixing into a valence orbital is  9.80D-06
 Range of M.O.s used for correlation:     2   117
 NBasis=   117 NAE=     5 NBE=     5 NFC=     1 NFV=     0
 NROrb=    116 NOA=     4 NOB=     4 NVA=   112 NVB=   112

 **** Warning!!: The largest alpha MO coefficient is  0.16099455D+02

 Leave Link  801 at Wed Aug 26 10:44:11 2020, MaxMem=  2097152000 cpu:         0.4
 (Enter /opt/cluster/programs/g09/g09_d.01/g09/l906.exe)
 DoSCS=T DFT=T ScalE2(SS,OS)=  0.270000  0.270000
 FulOut=F Deriv=F AODrv=F NAtomX=     3
   MMem=       16445  MDisk=           4 MDiskD=           4
  W3Min=       63616 MinDsk=      271641 NBas6D=         142
 NBas2D=       10573    NTT=       10153    LW2=     4508827
    MDV=  2097048983 MDiskM=       32786 NBas2p=       10573
 Fully in-core method, ICMem=   125836233.
 IMap=   1   2   3   4
 JobTyp=1 Pass  1 fully in-core, NPsUse=  8.
 Compute canonical integrals.
 FoFCou: FMM=F IPFlag=           0 FMFlag=           0 FMFlg1=           0
         NFxFlg=           0 DoJE=F BraDBF=F KetDBF=F FulRan=T
         wScrn=  0.000000 ICntrl=     600 IOpCl=  1 I1Cent=           0 NGrid=           0
         NMat0=    1 NMatS0=  10573 NMatT0=    0 NMatD0=    1 NMtDS0=    0 NMtDT0=    0
 Symmetry not used in FoFCou.
 Spin components of T(2) and E(2):
     alpha-alpha T2 =       0.1204993988D-01 E2=     -0.1071690717D-01
     alpha-beta  T2 =       0.6979966184D-01 E2=     -0.6827364238D-01
     beta-beta   T2 =       0.1204993988D-01 E2=     -0.1071690717D-01
 The integrals were generated   1 times.
 E2(B2PLYPD3) =    -0.8970745672D-01 E(B2PLYPD3) =    -0.76424856630013D+02
 Leave Link  906 at Wed Aug 26 10:44:13 2020, MaxMem=  2097152000 cpu:        11.7
 (Enter /opt/cluster/programs/g09/g09_d.01/g09/l601.exe)
 Copying SCF densities to generalized density rwf, IOpCl= 0 IROHF=0.

 **********************************************************************

            Population analysis using the SCF density.

 **********************************************************************

 Orbital symmetries:
       Occupied  (A') (A') (A') (A') (A")
       Virtual   (A') (A') (A') (A") (A') (A') (A') (A') (A") (A")
                 (A') (A') (A') (A') (A') (A') (A") (A') (A") (A')
                 (A") (A') (A') (A") (A') (A') (A") (A') (A") (A')
                 (A') (A") (A') (A') (A") (A") (A') (A') (A') (A')
                 (A') (A") (A") (A') (A") (A') (A') (A") (A') (A')
                 (A") (A') (A') (A") (A') (A') (A") (A') (A") (A')
                 (A") (A') (A') (A') (A") (A") (A') (A") (A') (A')
                 (A') (A') (A") (A") (A") (A') (A') (A") (A') (A')
                 (A') (A") (A') (A") (A') (A') (A') (A") (A') (A")
                 (A') (A') (A") (A') (A") (A") (A') (A") (A') (A')
                 (A") (A') (A') (A') (A') (A") (A") (A') (A') (A')
                 (A') (A')
 The electronic state is 1-A'.
 Alpha  occ. eigenvalues --  -19.72962  -1.15992  -0.61828  -0.47380  -0.40011
 Alpha virt. eigenvalues --    0.04640   0.10265   0.27445   0.30395   0.31223
 Alpha virt. eigenvalues --    0.36096   0.44204   0.50516   0.56206   0.62545
 Alpha virt. eigenvalues --    0.65409   0.81297   0.93948   0.95796   1.04600
 Alpha virt. eigenvalues --    1.08871   1.33438   1.34031   1.35558   1.42435
 Alpha virt. eigenvalues --    1.43424   1.48955   1.83821   1.94003   2.04544
 Alpha virt. eigenvalues --    2.05101   2.14376   2.32139   2.33645   2.36302
 Alpha virt. eigenvalues --    2.37741   2.44919   2.56413   2.60706   2.70040
 Alpha virt. eigenvalues --    2.73744   2.92941   2.99167   3.17611   3.18155
 Alpha virt. eigenvalues --    3.33913   3.80150   3.89991   3.93660   3.94720
 Alpha virt. eigenvalues --    4.14030   4.18445   4.31168   4.31320   4.50273
 Alpha virt. eigenvalues --    4.72283   4.87170   4.93455   5.37519   5.44616
 Alpha virt. eigenvalues --    5.49457   5.81159   6.00938   6.07262   6.14955
 Alpha virt. eigenvalues --    6.51686   6.63546   6.86600   7.18382   7.19141
 Alpha virt. eigenvalues --    7.22410   7.24496   7.32846   7.43279   7.46966
 Alpha virt. eigenvalues --    7.48131   7.56369   7.77051   7.87673   7.92144
 Alpha virt. eigenvalues --    7.95348   7.99967   8.09891   8.15942   8.42388
 Alpha virt. eigenvalues --    8.63164   8.73946   8.91257   8.94371   9.16875
 Alpha virt. eigenvalues --    9.22264   9.97932  10.00240  10.40365  10.49317
 Alpha virt. eigenvalues --   10.88354  10.94987  11.11229  11.25326  11.29039
 Alpha virt. eigenvalues --   11.49243  11.63980  11.95049  12.01501  12.07879
 Alpha virt. eigenvalues --   12.10612  12.39482  13.09894  13.70890  13.83276
 Alpha virt. eigenvalues --   13.90789  14.35877  14.65471  16.81250  16.99528
 Alpha virt. eigenvalues --   48.80076 254.54466
          Condensed to atoms (all electrons):
               1          2          3
     1  O    7.757375   0.339580   0.341668
     2  H    0.339580   0.458657  -0.021554
     3  H    0.341668  -0.021554   0.464580
 Mulliken charges:
               1
     1  O   -0.438623
     2  H    0.223317
     3  H    0.215306
 Sum of Mulliken charges =   0.00000
 Mulliken charges with hydrogens summed into heavy atoms:
               1
     1  O    0.000000
 Electronic spatial extent (au):  <R**2>=             19.5458
 Charge=              0.0000 electrons
 Dipole moment (field-independent basis, Debye):
    X=             -0.0085    Y=             -1.9402    Z=              0.0000  Tot=              1.9403
 Quadrupole moment (field-independent basis, Debye-Ang):
   XX=             -4.3129   YY=             -6.3493   ZZ=             -7.5771
   XY=             -0.0468   XZ=              0.0000   YZ=              0.0000
 Traceless Quadrupole moment (field-independent basis, Debye-Ang):
   XX=              1.7669   YY=             -0.2695   ZZ=             -1.4973
   XY=             -0.0468   XZ=              0.0000   YZ=              0.0000
 Octapole moment (field-independent basis, Debye-Ang**2):
  XXX=             -0.0263  YYY=             -1.1644  ZZZ=              0.0000  XYY=              0.0304
  XXY=             -1.3411  XXZ=              0.0000  XZZ=             -0.0097  YZZ=             -0.2866
  YYZ=              0.0000  XYZ=              0.0000
 Hexadecapole moment (field-independent basis, Debye-Ang**3):
 XXXX=             -6.1109 YYYY=             -7.3189 ZZZZ=             -6.7323 XXXY=              0.0031
 XXXZ=              0.0000 YYYX=              0.0006 YYYZ=              0.0000 ZZZX=              0.0000
 ZZZY=              0.0000 XXYY=             -1.9230 XXZZ=             -2.4681 YYZZ=             -2.3928
 XXYZ=              0.0000 YYXZ=              0.0000 ZZXY=              0.0122
 N-N= 9.254842794289D+00 E-N=-1.993554470152D+02  KE= 7.615523225543D+01
 Symmetry A'   KE= 7.163983335641D+01
 Symmetry A"   KE= 4.515398899013D+00
 Leave Link  601 at Wed Aug 26 10:44:13 2020, MaxMem=  2097152000 cpu:         0.2
 (Enter /opt/cluster/programs/g09/g09_d.01/g09/l9999.exe)
 1\1\GINC-NODE35\SP\RB2PLYPD3-FC\def2QZVP\H2O1\BOITTIER\26-Aug-2020\0\\
 #p B2PLYPD3/Def2QZVP\\h2o\\0,1\O,0,-5.326605,-0.76197,0.924594\H,0,-4.
 368927,-0.742233,0.872275\H,0,-5.609308,0.117804,0.740385\\Version=ES6
 4L-G09RevD.01\State=1-A'\HF=-76.3351492\MP2=-76.4248566\RMSD=4.242e-09
 \PG=CS [SG(H2O1)]\\@


 SIGN SEEN IN A RESTAURANT-
 WE RESERVE THE RIGHT TO SERVE REFUSE TO ANYONE.
 Job cpu time:       0 days  0 hours  0 minutes 29.6 seconds.
 File lengths (MBytes):  RWF=      8 Int=      0 D2E=      0 Chk=      2 Scr=      1
 Normal termination of Gaussian 09 at Wed Aug 26 10:44:14 2020.
