 Entering Gaussian System, Link 0=/opt/cluster/programs/g09/g09_d.01/g09//g09
 Input=/home/boittier/MDCM/nms_sampling/h2o_geom.xyz.dir/energies/h2o_149_energy.com
 Output=/scratch/boittier/h2o_149_energy/h2o_149_energy.out
 Initial command:
 /opt/cluster/programs/g09/g09_d.01/g09/l1.exe "/scratch/boittier/h2o_149_energy/Gau-20292.inp" -scrdir="/scratch/boittier/h2o_149_energy/"
 Entering Link 1 = /opt/cluster/programs/g09/g09_d.01/g09/l1.exe PID=     20293.
  
 Copyright (c) 1988,1990,1992,1993,1995,1998,2003,2009,2013,
            Gaussian, Inc.  All Rights Reserved.
  
 This is part of the Gaussian(R) 09 program.  It is based on
 the Gaussian(R) 03 system (copyright 2003, Gaussian, Inc.),
 the Gaussian(R) 98 system (copyright 1998, Gaussian, Inc.),
 the Gaussian(R) 94 system (copyright 1995, Gaussian, Inc.),
 the Gaussian 92(TM) system (copyright 1992, Gaussian, Inc.),
 the Gaussian 90(TM) system (copyright 1990, Gaussian, Inc.),
 the Gaussian 88(TM) system (copyright 1988, Gaussian, Inc.),
 the Gaussian 86(TM) system (copyright 1986, Carnegie Mellon
 University), and the Gaussian 82(TM) system (copyright 1983,
 Carnegie Mellon University). Gaussian is a federally registered
 trademark of Gaussian, Inc.
  
 This software contains proprietary and confidential information,
 including trade secrets, belonging to Gaussian, Inc.
  
 This software is provided under written license and may be
 used, copied, transmitted, or stored only in accord with that
 written license.
  
 The following legend is applicable only to US Government
 contracts under FAR:
  
                    RESTRICTED RIGHTS LEGEND
  
 Use, reproduction and disclosure by the US Government is
 subject to restrictions as set forth in subparagraphs (a)
 and (c) of the Commercial Computer Software - Restricted
 Rights clause in FAR 52.227-19.
  
 Gaussian, Inc.
 340 Quinnipiac St., Bldg. 40, Wallingford CT 06492
  
  
 ---------------------------------------------------------------
 Warning -- This program may not be used in any manner that
 competes with the business of Gaussian, Inc. or will provide
 assistance to any competitor of Gaussian, Inc.  The licensee
 of this program is prohibited from giving any competitor of
 Gaussian, Inc. access to this program.  By using this program,
 the user acknowledges that Gaussian, Inc. is engaged in the
 business of creating and licensing software in the field of
 computational chemistry and represents and warrants to the
 licensee that it is not a competitor of Gaussian, Inc. and that
 it will not use this program in any manner prohibited above.
 ---------------------------------------------------------------
  

 Cite this work as:
 Gaussian 09, Revision D.01,
 M. J. Frisch, G. W. Trucks, H. B. Schlegel, G. E. Scuseria, 
 M. A. Robb, J. R. Cheeseman, G. Scalmani, V. Barone, B. Mennucci, 
 G. A. Petersson, H. Nakatsuji, M. Caricato, X. Li, H. P. Hratchian, 
 A. F. Izmaylov, J. Bloino, G. Zheng, J. L. Sonnenberg, M. Hada, 
 M. Ehara, K. Toyota, R. Fukuda, J. Hasegawa, M. Ishida, T. Nakajima, 
 Y. Honda, O. Kitao, H. Nakai, T. Vreven, J. A. Montgomery, Jr., 
 J. E. Peralta, F. Ogliaro, M. Bearpark, J. J. Heyd, E. Brothers, 
 K. N. Kudin, V. N. Staroverov, T. Keith, R. Kobayashi, J. Normand, 
 K. Raghavachari, A. Rendell, J. C. Burant, S. S. Iyengar, J. Tomasi, 
 M. Cossi, N. Rega, J. M. Millam, M. Klene, J. E. Knox, J. B. Cross, 
 V. Bakken, C. Adamo, J. Jaramillo, R. Gomperts, R. E. Stratmann, 
 O. Yazyev, A. J. Austin, R. Cammi, C. Pomelli, J. W. Ochterski, 
 R. L. Martin, K. Morokuma, V. G. Zakrzewski, G. A. Voth, 
 P. Salvador, J. J. Dannenberg, S. Dapprich, A. D. Daniels, 
 O. Farkas, J. B. Foresman, J. V. Ortiz, J. Cioslowski, 
 and D. J. Fox, Gaussian, Inc., Wallingford CT, 2013.
 
 ******************************************
 Gaussian 09:  ES64L-G09RevD.01 24-Apr-2013
                26-Aug-2020 
 ******************************************
 %chk=/home/boittier/MDCM/nms_sampling/h2o_geom.xyz.dir/h2o_149.chk
 %nproc=8
 Will use up to    8 processors via shared memory.
 %mem=16000MB
 --------------------
 #p B2PLYPD3/Def2QZVP
 --------------------
 1/38=1/1;
 2/12=2,17=6,18=5,40=1/2;
 3/5=45,7=101,11=9,16=1,25=1,30=1,74=-60/1,2,3;
 4//1;
 5/5=2,38=5/2;
 8/10=1/1;
 9/16=-3/6;
 6/7=2,8=2,9=2,10=2/1;
 99/5=1,9=1/99;
 Leave Link    1 at Wed Aug 26 08:59:02 2020, MaxMem=  2097152000 cpu:         0.2
 (Enter /opt/cluster/programs/g09/g09_d.01/g09/l101.exe)
 ---
 h2o
 ---
 Symbolic Z-matrix:
 Charge =  0 Multiplicity = 1
 O                    -5.3266   -0.76279   0.91804 
 H                    -4.36893  -0.75153   0.92947 
 H                    -5.60931   0.1402    0.78752 
 
 NAtoms=      3 NQM=        3 NQMF=       0 NMMI=      0 NMMIF=      0
                NMic=       0 NMicF=      0.
                    Isotopes and Nuclear Properties:
 (Nuclear quadrupole moments (NQMom) in fm**2, nuclear magnetic moments (NMagM)
  in nuclear magnetons)

  Atom         1           2           3
 IAtWgt=          16           1           1
 AtmWgt=  15.9949146   1.0078250   1.0078250
 NucSpn=           0           1           1
 AtZEff=   0.0000000   0.0000000   0.0000000
 NQMom=    0.0000000   0.0000000   0.0000000
 NMagM=    0.0000000   2.7928460   2.7928460
 AtZNuc=   8.0000000   1.0000000   1.0000000
 Leave Link  101 at Wed Aug 26 08:59:02 2020, MaxMem=  2097152000 cpu:         0.5
 (Enter /opt/cluster/programs/g09/g09_d.01/g09/l202.exe)
                          Input orientation:                          
 ---------------------------------------------------------------------
 Center     Atomic      Atomic             Coordinates (Angstroms)
 Number     Number       Type             X           Y           Z
 ---------------------------------------------------------------------
      1          8           0       -5.326605   -0.762789    0.918040
      2          1           0       -4.368927   -0.751528    0.929470
      3          1           0       -5.609308    0.140201    0.787519
 ---------------------------------------------------------------------
                    Distance matrix (angstroms):
                    1          2          3
     1  O    0.000000
     2  H    0.957812   0.000000
     3  H    0.955169   1.534235   0.000000
 Stoichiometry    H2O
 Framework group  CS[SG(H2O)]
 Deg. of freedom     3
 Full point group                 CS      NOp   2
 Largest Abelian subgroup         CS      NOp   2
 Largest concise Abelian subgroup C1      NOp   1
                         Standard orientation:                         
 ---------------------------------------------------------------------
 Center     Atomic      Atomic             Coordinates (Angstroms)
 Number     Number       Type             X           Y           Z
 ---------------------------------------------------------------------
      1          8           0        0.000000    0.114264    0.000000
      2          1           0        0.767114   -0.459269    0.000000
      3          1           0       -0.767114   -0.454844    0.000000
 ---------------------------------------------------------------------
 Rotational constants (GHZ):    864.9576617    426.0641674    285.4540935
 Leave Link  202 at Wed Aug 26 08:59:02 2020, MaxMem=  2097152000 cpu:         0.1
 (Enter /opt/cluster/programs/g09/g09_d.01/g09/l301.exe)
 Standard basis: def2QZVP (5D, 7F)
 Ernie: Thresh=  0.10000D-02 Tol=  0.10000D-05 Strict=F.
 There are    96 symmetry adapted cartesian basis functions of A'  symmetry.
 There are    46 symmetry adapted cartesian basis functions of A"  symmetry.
 There are    77 symmetry adapted basis functions of A'  symmetry.
 There are    40 symmetry adapted basis functions of A"  symmetry.
   117 basis functions,   168 primitive gaussians,   142 cartesian basis functions
     5 alpha electrons        5 beta electrons
       nuclear repulsion energy         9.1969088406 Hartrees.
 IExCor=  419 DFT=T Ex+Corr=B2PLYPD3 ExCW=0 ScaHFX=  0.530000
 ScaDFX=  0.470000  0.470000  0.730000  0.730000 ScalE2=  0.270000  0.270000
 IRadAn=      0 IRanWt=     -1 IRanGd=            0 ICorTp=0 IEmpDi=141
 NAtoms=    3 NActive=    3 NUniq=    3 SFac= 1.00D+00 NAtFMM=   60 NAOKFM=F Big=F
 Integral buffers will be    131072 words long.
 Regular integral format.
 Two-electron integral symmetry is turned on.
 R6Disp:  Grimme-D3(BJ) Dispersion energy=       -0.0002342531 Hartrees.
 Nuclear repulsion after empirical dispersion term =        9.1966745874 Hartrees.
 Leave Link  301 at Wed Aug 26 08:59:02 2020, MaxMem=  2097152000 cpu:         0.5
 (Enter /opt/cluster/programs/g09/g09_d.01/g09/l302.exe)
 NPDir=0 NMtPBC=     1 NCelOv=     1 NCel=       1 NClECP=     1 NCelD=      1
         NCelK=      1 NCelE2=     1 NClLst=     1 CellRange=     0.0.
 One-electron integrals computed using PRISM.
   1 Symmetry operations used in ECPInt.
 ECPInt:  NShTT=     703 NPrTT=    1591 LenC2=     704 LenP2D=    1544.
 LDataN:  DoStor=T MaxTD1= 8 Len=  415
 NBasis=   117 RedAO= T EigKep=  4.33D-04  NBF=    77    40
 NBsUse=   117 1.00D-06 EigRej= -1.00D+00 NBFU=    77    40
 Precomputing XC quadrature grid using
 IXCGrd= 4 IRadAn=           0 IRanWt=          -1 IRanGd=           0 AccXCQ= 0.00D+00.
 Generated NRdTot=       0 NPtTot=           0 NUsed=           0 NTot=          32
 NSgBfM=   142   142   142   142   142 MxSgAt=     3 MxSgA2=     3.
 Leave Link  302 at Wed Aug 26 08:59:03 2020, MaxMem=  2097152000 cpu:         1.5
 (Enter /opt/cluster/programs/g09/g09_d.01/g09/l303.exe)
 DipDrv:  MaxL=1.
 Leave Link  303 at Wed Aug 26 08:59:03 2020, MaxMem=  2097152000 cpu:         0.2
 (Enter /opt/cluster/programs/g09/g09_d.01/g09/l401.exe)
 ExpMin= 8.03D-02 ExpMax= 1.17D+05 ExpMxC= 1.13D+03 IAcc=2 IRadAn=         4 AccDes= 0.00D+00
 Harris functional with IExCor=  419 and IRadAn=       4 diagonalized for initial guess.
 HarFok:  IExCor=  419 AccDes= 0.00D+00 IRadAn=         4 IDoV= 1 UseB2=F ITyADJ=14
 ICtDFT=  3500011 ScaDFX=  1.000000  1.000000  1.000000  1.000000
 FoFCou: FMM=F IPFlag=           0 FMFlag=      100000 FMFlg1=           0
         NFxFlg=           0 DoJE=T BraDBF=F KetDBF=T FulRan=T
         wScrn=  0.000000 ICntrl=     500 IOpCl=  0 I1Cent=   200000004 NGrid=           0
         NMat0=    1 NMatS0=      1 NMatT0=    0 NMatD0=    1 NMtDS0=    0 NMtDT0=    0
 Petite list used in FoFCou.
 Harris En= -76.5081357156707    
 JPrj=0 DoOrth=F DoCkMO=F.
 Initial guess orbital symmetries:
       Occupied  (A') (A') (A') (A') (A")
       Virtual   (A') (A') (A') (A") (A') (A') (A') (A') (A") (A")
                 (A') (A') (A') (A') (A') (A') (A') (A") (A") (A")
                 (A') (A') (A') (A") (A') (A') (A") (A') (A") (A')
                 (A') (A") (A') (A') (A") (A") (A') (A') (A') (A')
                 (A') (A") (A") (A") (A') (A') (A') (A") (A') (A')
                 (A") (A') (A') (A") (A') (A') (A") (A') (A") (A')
                 (A") (A') (A') (A') (A") (A") (A') (A") (A') (A')
                 (A') (A') (A") (A") (A") (A') (A') (A") (A') (A')
                 (A') (A") (A") (A') (A') (A') (A") (A') (A') (A")
                 (A') (A') (A") (A') (A") (A") (A') (A") (A') (A")
                 (A') (A') (A') (A') (A') (A") (A") (A') (A') (A')
                 (A') (A')
 The electronic state of the initial guess is 1-A'.
 Leave Link  401 at Wed Aug 26 08:59:03 2020, MaxMem=  2097152000 cpu:         1.5
 (Enter /opt/cluster/programs/g09/g09_d.01/g09/l502.exe)
 Closed shell SCF:
 Using DIIS extrapolation, IDIIS=  1040.
 Integral symmetry usage will be decided dynamically.
 Keep R1 ints in memory in symmetry-blocked form, NReq=35980147.
 IVT=       81231 IEndB=       81231 NGot=  2097152000 MDV=  2085001127
 LenX=  2085001127 LenY=  2084980522
 Requested convergence on RMS density matrix=1.00D-08 within 128 cycles.
 Requested convergence on MAX density matrix=1.00D-06.
 Requested convergence on             energy=1.00D-06.
 No special actions if energy rises.
 FoFCou: FMM=F IPFlag=           0 FMFlag=           0 FMFlg1=           0
         NFxFlg=           0 DoJE=F BraDBF=F KetDBF=F FulRan=T
         wScrn=  0.000000 ICntrl=     600 IOpCl=  0 I1Cent=           0 NGrid=           0
         NMat0=    1 NMatS0=   6903 NMatT0=    0 NMatD0=    1 NMtDS0=    0 NMtDT0=    0
 Petite list used in FoFCou.
 Integral accuracy reduced to 1.0D-05 until final iterations.

 Cycle   1  Pass 0  IDiag  1:
 E= -76.2471656959590    
 DIIS: error= 4.87D-02 at cycle   1 NSaved=   1.
 NSaved= 1 IEnMin= 1 EnMin= -76.2471656959590     IErMin= 1 ErrMin= 4.87D-02
 ErrMax= 4.87D-02  0.00D+00 EMaxC= 1.00D-01 BMatC= 1.70D-01 BMatP= 1.70D-01
 IDIUse=3 WtCom= 5.13D-01 WtEn= 4.87D-01
 Coeff-Com:  0.100D+01
 Coeff-En:   0.100D+01
 Coeff:      0.100D+01
 Gap=     0.296 Goal=   None    Shift=    0.000
 GapD=    0.296 DampG=1.000 DampE=0.500 DampFc=0.5000 IDamp=-1.
 Damping current iteration by 5.00D-01
 RMSDP=2.37D-03 MaxDP=7.39D-02              OVMax= 1.71D-01

 Cycle   2  Pass 0  IDiag  1:
 E= -76.2861354328401     Delta-E=       -0.038969736881 Rises=F Damp=T
 DIIS: error= 1.64D-02 at cycle   2 NSaved=   2.
 NSaved= 2 IEnMin= 2 EnMin= -76.2861354328401     IErMin= 2 ErrMin= 1.64D-02
 ErrMax= 1.64D-02  0.00D+00 EMaxC= 1.00D-01 BMatC= 1.05D-02 BMatP= 1.70D-01
 IDIUse=3 WtCom= 8.36D-01 WtEn= 1.64D-01
 Coeff-Com:  0.119D-01 0.988D+00
 Coeff-En:   0.132D+00 0.868D+00
 Coeff:      0.316D-01 0.968D+00
 Gap=     0.445 Goal=   None    Shift=    0.000
 RMSDP=3.40D-04 MaxDP=1.19D-02 DE=-3.90D-02 OVMax= 1.02D-01

 Cycle   3  Pass 0  IDiag  1:
 E= -76.3348133977347     Delta-E=       -0.048677964895 Rises=F Damp=F
 DIIS: error= 3.96D-03 at cycle   3 NSaved=   3.
 NSaved= 3 IEnMin= 3 EnMin= -76.3348133977347     IErMin= 3 ErrMin= 3.96D-03
 ErrMax= 3.96D-03  0.00D+00 EMaxC= 1.00D-01 BMatC= 5.30D-04 BMatP= 1.05D-02
 IDIUse=3 WtCom= 9.60D-01 WtEn= 3.96D-02
 Coeff-Com: -0.547D-01 0.709D-01 0.984D+00
 Coeff-En:   0.000D+00 0.000D+00 0.100D+01
 Coeff:     -0.525D-01 0.681D-01 0.984D+00
 Gap=     0.444 Goal=   None    Shift=    0.000
 RMSDP=8.25D-05 MaxDP=2.67D-03 DE=-4.87D-02 OVMax= 6.31D-03

 Cycle   4  Pass 0  IDiag  1:
 E= -76.3351810415151     Delta-E=       -0.000367643780 Rises=F Damp=F
 DIIS: error= 2.70D-04 at cycle   4 NSaved=   4.
 NSaved= 4 IEnMin= 4 EnMin= -76.3351810415151     IErMin= 4 ErrMin= 2.70D-04
 ErrMax= 2.70D-04  0.00D+00 EMaxC= 1.00D-01 BMatC= 4.64D-06 BMatP= 5.30D-04
 IDIUse=3 WtCom= 9.97D-01 WtEn= 2.70D-03
 Coeff-Com:  0.180D-02-0.704D-02 0.402D-01 0.965D+00
 Coeff-En:   0.000D+00 0.000D+00 0.000D+00 0.100D+01
 Coeff:      0.179D-02-0.702D-02 0.401D-01 0.965D+00
 Gap=     0.445 Goal=   None    Shift=    0.000
 RMSDP=1.20D-05 MaxDP=4.22D-04 DE=-3.68D-04 OVMax= 7.61D-04

 Cycle   5  Pass 0  IDiag  1:
 E= -76.3351843060551     Delta-E=       -0.000003264540 Rises=F Damp=F
 DIIS: error= 5.21D-05 at cycle   5 NSaved=   5.
 NSaved= 5 IEnMin= 5 EnMin= -76.3351843060551     IErMin= 5 ErrMin= 5.21D-05
 ErrMax= 5.21D-05  0.00D+00 EMaxC= 1.00D-01 BMatC= 6.58D-08 BMatP= 4.64D-06
 IDIUse=1 WtCom= 1.00D+00 WtEn= 0.00D+00
 Coeff-Com:  0.211D-02-0.312D-02-0.313D-01 0.254D-01 0.101D+01
 Coeff:      0.211D-02-0.312D-02-0.313D-01 0.254D-01 0.101D+01
 Gap=     0.445 Goal=   None    Shift=    0.000
 RMSDP=2.48D-06 MaxDP=7.66D-05 DE=-3.26D-06 OVMax= 1.72D-04

 Initial convergence to 1.0D-05 achieved.  Increase integral accuracy.
 Cycle   6  Pass 1  IDiag  1:
 E= -76.3351781333652     Delta-E=        0.000006172690 Rises=F Damp=F
 DIIS: error= 1.47D-05 at cycle   1 NSaved=   1.
 NSaved= 1 IEnMin= 1 EnMin= -76.3351781333652     IErMin= 1 ErrMin= 1.47D-05
 ErrMax= 1.47D-05  0.00D+00 EMaxC= 1.00D-01 BMatC= 1.34D-08 BMatP= 1.34D-08
 IDIUse=1 WtCom= 1.00D+00 WtEn= 0.00D+00
 Coeff-Com:  0.100D+01
 Coeff:      0.100D+01
 Gap=     0.445 Goal=   None    Shift=    0.000
 RMSDP=2.48D-06 MaxDP=7.66D-05 DE= 6.17D-06 OVMax= 4.09D-05

 Cycle   7  Pass 1  IDiag  1:
 E= -76.3351781390919     Delta-E=       -0.000000005727 Rises=F Damp=F
 DIIS: error= 5.88D-06 at cycle   2 NSaved=   2.
 NSaved= 2 IEnMin= 2 EnMin= -76.3351781390919     IErMin= 2 ErrMin= 5.88D-06
 ErrMax= 5.88D-06  0.00D+00 EMaxC= 1.00D-01 BMatC= 1.11D-09 BMatP= 1.34D-08
 IDIUse=1 WtCom= 1.00D+00 WtEn= 0.00D+00
 Coeff-Com:  0.872D-01 0.913D+00
 Coeff:      0.872D-01 0.913D+00
 Gap=     0.445 Goal=   None    Shift=    0.000
 RMSDP=2.16D-07 MaxDP=7.00D-06 DE=-5.73D-09 OVMax= 2.10D-05

 Cycle   8  Pass 1  IDiag  1:
 E= -76.3351781395668     Delta-E=       -0.000000000475 Rises=F Damp=F
 DIIS: error= 4.49D-06 at cycle   3 NSaved=   3.
 NSaved= 3 IEnMin= 3 EnMin= -76.3351781395668     IErMin= 3 ErrMin= 4.49D-06
 ErrMax= 4.49D-06  0.00D+00 EMaxC= 1.00D-01 BMatC= 8.42D-10 BMatP= 1.11D-09
 IDIUse=1 WtCom= 1.00D+00 WtEn= 0.00D+00
 Coeff-Com: -0.338D-01 0.467D+00 0.567D+00
 Coeff:     -0.338D-01 0.467D+00 0.567D+00
 Gap=     0.445 Goal=   None    Shift=    0.000
 RMSDP=9.73D-08 MaxDP=3.41D-06 DE=-4.75D-10 OVMax= 8.39D-06

 Cycle   9  Pass 1  IDiag  1:
 E= -76.3351781401259     Delta-E=       -0.000000000559 Rises=F Damp=F
 DIIS: error= 4.79D-07 at cycle   4 NSaved=   4.
 NSaved= 4 IEnMin= 4 EnMin= -76.3351781401259     IErMin= 4 ErrMin= 4.79D-07
 ErrMax= 4.79D-07  0.00D+00 EMaxC= 1.00D-01 BMatC= 6.53D-12 BMatP= 8.42D-10
 IDIUse=1 WtCom= 1.00D+00 WtEn= 0.00D+00
 Coeff-Com: -0.211D-02-0.980D-01-0.591D-01 0.116D+01
 Coeff:     -0.211D-02-0.980D-01-0.591D-01 0.116D+01
 Gap=     0.445 Goal=   None    Shift=    0.000
 RMSDP=2.98D-08 MaxDP=8.62D-07 DE=-5.59D-10 OVMax= 2.30D-06

 Cycle  10  Pass 1  IDiag  1:
 E= -76.3351781401403     Delta-E=       -0.000000000014 Rises=F Damp=F
 DIIS: error= 6.93D-08 at cycle   5 NSaved=   5.
 NSaved= 5 IEnMin= 5 EnMin= -76.3351781401403     IErMin= 5 ErrMin= 6.93D-08
 ErrMax= 6.93D-08  0.00D+00 EMaxC= 1.00D-01 BMatC= 2.48D-13 BMatP= 6.53D-12
 IDIUse=1 WtCom= 1.00D+00 WtEn= 0.00D+00
 Coeff-Com:  0.164D-02-0.412D-01-0.397D-01 0.170D+00 0.909D+00
 Coeff:      0.164D-02-0.412D-01-0.397D-01 0.170D+00 0.909D+00
 Gap=     0.445 Goal=   None    Shift=    0.000
 RMSDP=3.91D-09 MaxDP=9.93D-08 DE=-1.43D-11 OVMax= 3.97D-07

 SCF Done:  E(RB2PLYPD3) =  -76.3351781401     A.U. after   10 cycles
            NFock= 10  Conv=0.39D-08     -V/T= 2.0027
 KE= 7.613104802532D+01 PE=-1.992313353147D+02 EE= 3.756843456179D+01
 Leave Link  502 at Wed Aug 26 08:59:04 2020, MaxMem=  2097152000 cpu:        11.7
 (Enter /opt/cluster/programs/g09/g09_d.01/g09/l801.exe)
 DoSCS=T DFT=T ScalE2(SS,OS)=  0.270000  0.270000
 ExpMin= 8.03D-02 ExpMax= 1.17D+05 ExpMxC= 1.13D+03 IAcc=3 IRadAn=         5 AccDes= 0.00D+00
 HarFok:  IExCor=  205 AccDes= 0.00D+00 IRadAn=         5 IDoV=-2 UseB2=F ITyADJ=14
 ICtDFT= 12500011 ScaDFX=  1.000000  1.000000  1.000000  1.000000
 Largest valence mixing into a core orbital is  6.75D-05
 Largest core mixing into a valence orbital is  9.92D-06
 Range of M.O.s used for correlation:     2   117
 NBasis=   117 NAE=     5 NBE=     5 NFC=     1 NFV=     0
 NROrb=    116 NOA=     4 NOB=     4 NVA=   112 NVB=   112

 **** Warning!!: The largest alpha MO coefficient is  0.15996577D+02

 Leave Link  801 at Wed Aug 26 08:59:05 2020, MaxMem=  2097152000 cpu:         1.4
 (Enter /opt/cluster/programs/g09/g09_d.01/g09/l906.exe)
 DoSCS=T DFT=T ScalE2(SS,OS)=  0.270000  0.270000
 FulOut=F Deriv=F AODrv=F NAtomX=     3
   MMem=       16445  MDisk=           4 MDiskD=           4
  W3Min=       63616 MinDsk=      271641 NBas6D=         142
 NBas2D=       10573    NTT=       10153    LW2=     4508827
    MDV=  2097048983 MDiskM=       32786 NBas2p=       10573
 Fully in-core method, ICMem=   125836233.
 IMap=   1   2   3   4
 JobTyp=1 Pass  1 fully in-core, NPsUse=  8.
 Compute canonical integrals.
 FoFCou: FMM=F IPFlag=           0 FMFlag=           0 FMFlg1=           0
         NFxFlg=           0 DoJE=F BraDBF=F KetDBF=F FulRan=T
         wScrn=  0.000000 ICntrl=     600 IOpCl=  1 I1Cent=           0 NGrid=           0
         NMat0=    1 NMatS0=  10573 NMatT0=    0 NMatD0=    1 NMtDS0=    0 NMtDT0=    0
 Symmetry not used in FoFCou.
 Spin components of T(2) and E(2):
     alpha-alpha T2 =       0.1212538328D-01 E2=     -0.1073497505D-01
     alpha-beta  T2 =       0.7030465957D-01 E2=     -0.6839574012D-01
     beta-beta   T2 =       0.1212538328D-01 E2=     -0.1073497505D-01
 The integrals were generated   1 times.
 E2(B2PLYPD3) =    -0.8986569023D-01 E(B2PLYPD3) =    -0.76425043830367D+02
 Leave Link  906 at Wed Aug 26 08:59:06 2020, MaxMem=  2097152000 cpu:        11.6
 (Enter /opt/cluster/programs/g09/g09_d.01/g09/l601.exe)
 Copying SCF densities to generalized density rwf, IOpCl= 0 IROHF=0.

 **********************************************************************

            Population analysis using the SCF density.

 **********************************************************************

 Orbital symmetries:
       Occupied  (A') (A') (A') (A') (A")
       Virtual   (A') (A') (A') (A") (A') (A') (A') (A') (A") (A")
                 (A') (A') (A') (A') (A') (A') (A") (A') (A") (A')
                 (A") (A') (A') (A") (A') (A') (A") (A') (A") (A')
                 (A') (A") (A') (A') (A") (A") (A') (A') (A') (A')
                 (A') (A") (A") (A') (A") (A') (A') (A") (A') (A')
                 (A") (A') (A') (A") (A') (A') (A") (A') (A") (A')
                 (A") (A') (A') (A') (A") (A") (A') (A") (A') (A')
                 (A') (A') (A") (A") (A") (A') (A') (A") (A') (A')
                 (A') (A") (A') (A") (A') (A') (A") (A') (A') (A")
                 (A') (A') (A") (A') (A") (A") (A') (A") (A') (A")
                 (A') (A') (A') (A') (A') (A") (A") (A') (A') (A')
                 (A') (A')
 The electronic state is 1-A'.
 Alpha  occ. eigenvalues --  -19.73013  -1.15641  -0.61745  -0.47115  -0.39936
 Alpha virt. eigenvalues --    0.04598   0.10194   0.27468   0.30413   0.31229
 Alpha virt. eigenvalues --    0.35666   0.44027   0.50666   0.55989   0.62800
 Alpha virt. eigenvalues --    0.65534   0.81080   0.93718   0.95938   1.04463
 Alpha virt. eigenvalues --    1.08106   1.33012   1.34006   1.35671   1.42933
 Alpha virt. eigenvalues --    1.43567   1.48849   1.83919   1.94755   2.04661
 Alpha virt. eigenvalues --    2.05158   2.13864   2.32308   2.33705   2.35514
 Alpha virt. eigenvalues --    2.37589   2.43932   2.56341   2.60358   2.70229
 Alpha virt. eigenvalues --    2.73667   2.94316   2.99178   3.15638   3.17267
 Alpha virt. eigenvalues --    3.32977   3.79380   3.90246   3.93385   3.94591
 Alpha virt. eigenvalues --    4.14658   4.17475   4.31019   4.31439   4.49957
 Alpha virt. eigenvalues --    4.70541   4.86789   4.92214   5.35743   5.44069
 Alpha virt. eigenvalues --    5.48174   5.83000   5.99639   6.06794   6.12692
 Alpha virt. eigenvalues --    6.47437   6.64895   6.84005   7.18127   7.20006
 Alpha virt. eigenvalues --    7.22409   7.24406   7.32563   7.43881   7.45577
 Alpha virt. eigenvalues --    7.46983   7.54812   7.78056   7.88305   7.92116
 Alpha virt. eigenvalues --    7.93159   7.99509   8.09165   8.16227   8.40988
 Alpha virt. eigenvalues --    8.62174   8.72511   8.90174   8.90343   9.10468
 Alpha virt. eigenvalues --    9.19345   9.95089   9.95716  10.38150  10.50152
 Alpha virt. eigenvalues --   10.88973  10.93001  11.08929  11.22390  11.29155
 Alpha virt. eigenvalues --   11.48942  11.61900  11.93851  11.99392  12.07409
 Alpha virt. eigenvalues --   12.08102  12.36205  13.02655  13.72397  13.74547
 Alpha virt. eigenvalues --   13.86200  14.30697  14.63405  16.81048  16.91408
 Alpha virt. eigenvalues --   48.76999 254.50956
          Condensed to atoms (all electrons):
               1          2          3
     1  O    7.765479   0.339965   0.340299
     2  H    0.339965   0.457971  -0.021410
     3  H    0.340299  -0.021410   0.458842
 Mulliken charges:
               1
     1  O   -0.445743
     2  H    0.223474
     3  H    0.222268
 Sum of Mulliken charges =   0.00000
 Mulliken charges with hydrogens summed into heavy atoms:
               1
     1  O    0.000000
 Electronic spatial extent (au):  <R**2>=             19.6231
 Charge=              0.0000 electrons
 Dipole moment (field-independent basis, Debye):
    X=             -0.0013    Y=             -1.9283    Z=              0.0000  Tot=              1.9283
 Quadrupole moment (field-independent basis, Debye-Ang):
   XX=             -4.2568   YY=             -6.3832   ZZ=             -7.5922
   XY=             -0.0075   XZ=              0.0000   YZ=              0.0000
 Traceless Quadrupole moment (field-independent basis, Debye-Ang):
   XX=              1.8206   YY=             -0.3058   ZZ=             -1.5148
   XY=             -0.0075   XZ=              0.0000   YZ=              0.0000
 Octapole moment (field-independent basis, Debye-Ang**2):
  XXX=             -0.0040  YYY=             -1.1398  ZZZ=              0.0000  XYY=              0.0048
  XXY=             -1.3598  XXZ=              0.0000  XZZ=             -0.0015  YZZ=             -0.2811
  YYZ=              0.0000  XYZ=              0.0000
 Hexadecapole moment (field-independent basis, Debye-Ang**3):
 XXXX=             -6.1178 YYYY=             -7.3565 ZZZZ=             -6.7567 XXXY=              0.0003
 XXXZ=              0.0000 YYYX=              0.0001 YYYZ=              0.0000 ZZZX=              0.0000
 ZZZY=              0.0000 XXYY=             -1.9380 XXZZ=             -2.4898 YYZZ=             -2.4016
 XXYZ=              0.0000 YYXZ=              0.0000 ZZXY=              0.0019
 N-N= 9.196674587437D+00 E-N=-1.992313349003D+02  KE= 7.613104802532D+01
 Symmetry A'   KE= 7.161608239239D+01
 Symmetry A"   KE= 4.514965632924D+00
 Leave Link  601 at Wed Aug 26 08:59:06 2020, MaxMem=  2097152000 cpu:         0.2
 (Enter /opt/cluster/programs/g09/g09_d.01/g09/l9999.exe)
 1\1\GINC-NODE33\SP\RB2PLYPD3-FC\def2QZVP\H2O1\BOITTIER\26-Aug-2020\0\\
 #p B2PLYPD3/Def2QZVP\\h2o\\0,1\O,0,-5.326605,-0.762789,0.91804\H,0,-4.
 368927,-0.751528,0.92947\H,0,-5.609308,0.140201,0.787519\\Version=ES64
 L-G09RevD.01\State=1-A'\HF=-76.3351781\MP2=-76.4250438\RMSD=3.913e-09\
 PG=CS [SG(H2O1)]\\@


 I LOVE MANKIND - IT'S PEOPLE I CAN'T STAND.
     -- LINUS OF PEANUTS
 Job cpu time:       0 days  0 hours  0 minutes 29.9 seconds.
 File lengths (MBytes):  RWF=      8 Int=      0 D2E=      0 Chk=      2 Scr=      1
 Normal termination of Gaussian 09 at Wed Aug 26 08:59:06 2020.
