 Entering Gaussian System, Link 0=/opt/cluster/programs/g09/g09_d.01/g09//g09
 Input=/home/boittier/MDCM/acrolein/acrolein_opt_freq.com
 Output=/scratch/boittier/acrolein_opt_freq/acrolein_opt_freq.out
 Initial command:
 /opt/cluster/programs/g09/g09_d.01/g09/l1.exe "/scratch/boittier/acrolein_opt_freq/Gau-128302.inp" -scrdir="/scratch/boittier/acrolein_opt_freq/"
 Entering Link 1 = /opt/cluster/programs/g09/g09_d.01/g09/l1.exe PID=    128303.
  
 Copyright (c) 1988,1990,1992,1993,1995,1998,2003,2009,2013,
            Gaussian, Inc.  All Rights Reserved.
  
 This is part of the Gaussian(R) 09 program.  It is based on
 the Gaussian(R) 03 system (copyright 2003, Gaussian, Inc.),
 the Gaussian(R) 98 system (copyright 1998, Gaussian, Inc.),
 the Gaussian(R) 94 system (copyright 1995, Gaussian, Inc.),
 the Gaussian 92(TM) system (copyright 1992, Gaussian, Inc.),
 the Gaussian 90(TM) system (copyright 1990, Gaussian, Inc.),
 the Gaussian 88(TM) system (copyright 1988, Gaussian, Inc.),
 the Gaussian 86(TM) system (copyright 1986, Carnegie Mellon
 University), and the Gaussian 82(TM) system (copyright 1983,
 Carnegie Mellon University). Gaussian is a federally registered
 trademark of Gaussian, Inc.
  
 This software contains proprietary and confidential information,
 including trade secrets, belonging to Gaussian, Inc.
  
 This software is provided under written license and may be
 used, copied, transmitted, or stored only in accord with that
 written license.
  
 The following legend is applicable only to US Government
 contracts under FAR:
  
                    RESTRICTED RIGHTS LEGEND
  
 Use, reproduction and disclosure by the US Government is
 subject to restrictions as set forth in subparagraphs (a)
 and (c) of the Commercial Computer Software - Restricted
 Rights clause in FAR 52.227-19.
  
 Gaussian, Inc.
 340 Quinnipiac St., Bldg. 40, Wallingford CT 06492
  
  
 ---------------------------------------------------------------
 Warning -- This program may not be used in any manner that
 competes with the business of Gaussian, Inc. or will provide
 assistance to any competitor of Gaussian, Inc.  The licensee
 of this program is prohibited from giving any competitor of
 Gaussian, Inc. access to this program.  By using this program,
 the user acknowledges that Gaussian, Inc. is engaged in the
 business of creating and licensing software in the field of
 computational chemistry and represents and warrants to the
 licensee that it is not a competitor of Gaussian, Inc. and that
 it will not use this program in any manner prohibited above.
 ---------------------------------------------------------------
  

 Cite this work as:
 Gaussian 09, Revision D.01,
 M. J. Frisch, G. W. Trucks, H. B. Schlegel, G. E. Scuseria, 
 M. A. Robb, J. R. Cheeseman, G. Scalmani, V. Barone, B. Mennucci, 
 G. A. Petersson, H. Nakatsuji, M. Caricato, X. Li, H. P. Hratchian, 
 A. F. Izmaylov, J. Bloino, G. Zheng, J. L. Sonnenberg, M. Hada, 
 M. Ehara, K. Toyota, R. Fukuda, J. Hasegawa, M. Ishida, T. Nakajima, 
 Y. Honda, O. Kitao, H. Nakai, T. Vreven, J. A. Montgomery, Jr., 
 J. E. Peralta, F. Ogliaro, M. Bearpark, J. J. Heyd, E. Brothers, 
 K. N. Kudin, V. N. Staroverov, T. Keith, R. Kobayashi, J. Normand, 
 K. Raghavachari, A. Rendell, J. C. Burant, S. S. Iyengar, J. Tomasi, 
 M. Cossi, N. Rega, J. M. Millam, M. Klene, J. E. Knox, J. B. Cross, 
 V. Bakken, C. Adamo, J. Jaramillo, R. Gomperts, R. E. Stratmann, 
 O. Yazyev, A. J. Austin, R. Cammi, C. Pomelli, J. W. Ochterski, 
 R. L. Martin, K. Morokuma, V. G. Zakrzewski, G. A. Voth, 
 P. Salvador, J. J. Dannenberg, S. Dapprich, A. D. Daniels, 
 O. Farkas, J. B. Foresman, J. V. Ortiz, J. Cioslowski, 
 and D. J. Fox, Gaussian, Inc., Wallingford CT, 2013.
 
 ******************************************
 Gaussian 09:  ES64L-G09RevD.01 24-Apr-2013
                19-Aug-2020 
 ******************************************
 %chk=acrolein_opt.chk
 %nproc=8
 Will use up to    8 processors via shared memory.
 %mem=500MB
 ------------------------------------
 #p B2PLYPD3/6-31G** opt freq=NoRaman
 ------------------------------------
 1/18=20,19=15,38=1/1,3;
 2/9=110,12=2,17=6,18=5,40=1/2;
 3/5=1,6=6,7=101,11=9,16=1,25=1,30=1,71=1,74=-60/1,2,3;
 4//1;
 5/5=2,38=5/2;
 8/6=4,10=2/1;
 9/15=2,16=-3/6;
 10/5=1/2;
 6/7=2,8=2,9=2,10=2/1;
 7/12=2/1,2,3,16;
 1/18=20,19=15/3(2);
 2/9=110/2;
 99//99;
 2/9=110/2;
 3/5=1,6=6,7=101,11=9,16=1,25=1,30=1,71=1,74=-60/1,2,3;
 4/5=5,16=3,69=1/1;
 5/5=2,38=5/2;
 8/6=4,10=2/1;
 9/15=2,16=-3/6;
 10/5=1/2;
 7/12=2/1,2,3,16;
 1/18=20,19=15/3(-8);
 2/9=110/2;
 6/7=2,8=2,9=2,10=2/1;
 99//99;
 Leave Link    1 at Wed Aug 19 17:45:46 2020, MaxMem=    65536000 cpu:         0.4
 (Enter /opt/cluster/programs/g09/g09_d.01/g09/l101.exe)
 ------------
 acrolein_opt
 ------------
 Symbolic Z-matrix:
 Charge =  0 Multiplicity = 1
 C                    -5.01401  -1.36892   0.89287 
 O                    -3.90623  -0.90292   0.65876 
 C                    -5.20148  -2.81095   1.14619 
 C                    -6.41592  -3.30951   1.40097 
 H                    -4.31151  -3.4284    1.11354 
 H                    -7.30688  -2.69021   1.43347 
 H                    -6.54262  -4.37225   1.58598 
 H                    -5.92127  -0.7433    0.92671 
 
 NAtoms=      8 NQM=        8 NQMF=       0 NMMI=      0 NMMIF=      0
                NMic=       0 NMicF=      0.
                    Isotopes and Nuclear Properties:
 (Nuclear quadrupole moments (NQMom) in fm**2, nuclear magnetic moments (NMagM)
  in nuclear magnetons)

  Atom         1           2           3           4           5           6           7           8
 IAtWgt=          12          16          12          12           1           1           1           1
 AtmWgt=  12.0000000  15.9949146  12.0000000  12.0000000   1.0078250   1.0078250   1.0078250   1.0078250
 NucSpn=           0           0           0           0           1           1           1           1
 AtZEff=   0.0000000   0.0000000   0.0000000   0.0000000   0.0000000   0.0000000   0.0000000   0.0000000
 NQMom=    0.0000000   0.0000000   0.0000000   0.0000000   0.0000000   0.0000000   0.0000000   0.0000000
 NMagM=    0.0000000   0.0000000   0.0000000   0.0000000   2.7928460   2.7928460   2.7928460   2.7928460
 AtZNuc=   6.0000000   8.0000000   6.0000000   6.0000000   1.0000000   1.0000000   1.0000000   1.0000000
 Leave Link  101 at Wed Aug 19 17:45:47 2020, MaxMem=    65536000 cpu:         0.6
 (Enter /opt/cluster/programs/g09/g09_d.01/g09/l103.exe)

 GradGradGradGradGradGradGradGradGradGradGradGradGradGradGradGradGradGrad
 Berny optimization.
 Initialization pass.
                           ----------------------------
                           !    Initial Parameters    !
                           ! (Angstroms and Degrees)  !
 --------------------------                            --------------------------
 ! Name  Definition              Value          Derivative Info.                !
 --------------------------------------------------------------------------------
 ! R1    R(1,2)                  1.2244         estimate D2E/DX2                !
 ! R2    R(1,3)                  1.4761         estimate D2E/DX2                !
 ! R3    R(1,8)                  1.1026         estimate D2E/DX2                !
 ! R4    R(3,4)                  1.3373         estimate D2E/DX2                !
 ! R5    R(3,5)                  1.0837         estimate D2E/DX2                !
 ! R6    R(4,6)                  1.0855         estimate D2E/DX2                !
 ! R7    R(4,7)                  1.0861         estimate D2E/DX2                !
 ! A1    A(2,1,3)              121.3018         estimate D2E/DX2                !
 ! A2    A(2,1,8)              122.3031         estimate D2E/DX2                !
 ! A3    A(3,1,8)              116.3952         estimate D2E/DX2                !
 ! A4    A(1,3,4)              120.8141         estimate D2E/DX2                !
 ! A5    A(1,3,5)              116.5616         estimate D2E/DX2                !
 ! A6    A(4,3,5)              122.6243         estimate D2E/DX2                !
 ! A7    A(3,4,6)              122.5727         estimate D2E/DX2                !
 ! A8    A(3,4,7)              120.21           estimate D2E/DX2                !
 ! A9    A(6,4,7)              117.2173         estimate D2E/DX2                !
 ! D1    D(2,1,3,4)            179.9971         estimate D2E/DX2                !
 ! D2    D(2,1,3,5)             -0.0033         estimate D2E/DX2                !
 ! D3    D(8,1,3,4)             -0.0021         estimate D2E/DX2                !
 ! D4    D(8,1,3,5)            179.9975         estimate D2E/DX2                !
 ! D5    D(1,3,4,6)             -0.0002         estimate D2E/DX2                !
 ! D6    D(1,3,4,7)            179.9992         estimate D2E/DX2                !
 ! D7    D(5,3,4,6)           -179.9998         estimate D2E/DX2                !
 ! D8    D(5,3,4,7)             -0.0004         estimate D2E/DX2                !
 --------------------------------------------------------------------------------
 Trust Radius=3.00D-01 FncErr=1.00D-07 GrdErr=1.00D-07
 Number of steps in this run=     34 maximum allowed number of steps=    100.
 GradGradGradGradGradGradGradGradGradGradGradGradGradGradGradGradGradGrad

 Leave Link  103 at Wed Aug 19 17:45:47 2020, MaxMem=    65536000 cpu:         0.1
 (Enter /opt/cluster/programs/g09/g09_d.01/g09/l202.exe)
                          Input orientation:                          
 ---------------------------------------------------------------------
 Center     Atomic      Atomic             Coordinates (Angstroms)
 Number     Number       Type             X           Y           Z
 ---------------------------------------------------------------------
      1          6           0       -5.014010   -1.368920    0.892870
      2          8           0       -3.906230   -0.902920    0.658760
      3          6           0       -5.201480   -2.810950    1.146190
      4          6           0       -6.415920   -3.309510    1.400970
      5          1           0       -4.311510   -3.428400    1.113540
      6          1           0       -7.306880   -2.690210    1.433470
      7          1           0       -6.542620   -4.372250    1.585980
      8          1           0       -5.921270   -0.743300    0.926710
 ---------------------------------------------------------------------
                    Distance matrix (angstroms):
                    1          2          3          4          5
     1  C    0.000000
     2  O    1.224394   0.000000
     3  C    1.476065   2.357083   0.000000
     4  C    2.447326   3.555432   1.337288   0.000000
     5  H    2.187158   2.597908   1.083678   2.127273   0.000000
     6  H    2.700983   3.919056   2.128337   1.085541   3.101535
     7  H    3.440500   4.454946   2.104692   1.086139   2.468178
     8  H    1.102573   2.039035   2.200329   2.656132   3.136239
                    6          7          8
     6  H    0.000000
     7  H    1.853810   0.000000
     8  H    2.442781   3.740320   0.000000
 Stoichiometry    C3H4O
 Framework group  C1[X(C3H4O)]
 Deg. of freedom    18
 Full point group                 C1      NOp   1
 Largest Abelian subgroup         C1      NOp   1
 Largest concise Abelian subgroup C1      NOp   1
                         Standard orientation:                         
 ---------------------------------------------------------------------
 Center     Atomic      Atomic             Coordinates (Angstroms)
 Number     Number       Type             X           Y           Z
 ---------------------------------------------------------------------
      1          6           0       -0.674405    0.378178    0.000017
      2          8           0       -1.784304   -0.138797   -0.000016
      3          6           0        0.553287   -0.441296    0.000010
      4          6           0        1.760674    0.133644   -0.000012
      5          1           0        0.418195   -1.516521    0.000030
      6          1           0        1.895028    1.210838   -0.000028
      7          1           0        2.657645   -0.478845   -0.000003
      8          1           0       -0.533779    1.471746    0.000039
 ---------------------------------------------------------------------
 Rotational constants (GHZ):     46.9001532      4.6745702      4.2508819
 Leave Link  202 at Wed Aug 19 17:45:47 2020, MaxMem=    65536000 cpu:         0.0
 (Enter /opt/cluster/programs/g09/g09_d.01/g09/l301.exe)
 Standard basis: 6-31G(d,p) (6D, 7F)
 Ernie: Thresh=  0.10000D-02 Tol=  0.10000D-05 Strict=F.
 There are    80 symmetry adapted cartesian basis functions of A   symmetry.
 There are    80 symmetry adapted basis functions of A   symmetry.
    80 basis functions,   140 primitive gaussians,    80 cartesian basis functions
    15 alpha electrons       15 beta electrons
       nuclear repulsion energy       102.8742322189 Hartrees.
 IExCor=  419 DFT=T Ex+Corr=B2PLYPD3 ExCW=0 ScaHFX=  0.530000
 ScaDFX=  0.470000  0.470000  0.730000  0.730000 ScalE2=  0.270000  0.270000
 IRadAn=      0 IRanWt=     -1 IRanGd=            0 ICorTp=0 IEmpDi=141
 NAtoms=    8 NActive=    8 NUniq=    8 SFac= 1.00D+00 NAtFMM=   60 NAOKFM=F Big=F
 Integral buffers will be    131072 words long.
 Regular integral format.
 Two-electron integral symmetry is turned on.
 R6Disp:  Grimme-D3(BJ) Dispersion energy=       -0.0035787710 Hartrees.
 Nuclear repulsion after empirical dispersion term =      102.8706534479 Hartrees.
 Leave Link  301 at Wed Aug 19 17:45:48 2020, MaxMem=    65536000 cpu:         0.4
 (Enter /opt/cluster/programs/g09/g09_d.01/g09/l302.exe)
 NPDir=0 NMtPBC=     1 NCelOv=     1 NCel=       1 NClECP=     1 NCelD=      1
         NCelK=      1 NCelE2=     1 NClLst=     1 CellRange=     0.0.
 One-electron integrals computed using PRISM.
 NBasis=    80 RedAO= T EigKep=  3.90D-03  NBF=    80
 NBsUse=    80 1.00D-06 EigRej= -1.00D+00 NBFU=    80
 Precomputing XC quadrature grid using
 IXCGrd= 4 IRadAn=           0 IRanWt=          -1 IRanGd=           0 AccXCQ= 0.00D+00.
 Generated NRdTot=       0 NPtTot=           0 NUsed=           0 NTot=          32
 NSgBfM=    80    80    80    80    80 MxSgAt=     8 MxSgA2=     8.
 Leave Link  302 at Wed Aug 19 17:45:49 2020, MaxMem=    65536000 cpu:         0.9
 (Enter /opt/cluster/programs/g09/g09_d.01/g09/l303.exe)
 DipDrv:  MaxL=1.
 Leave Link  303 at Wed Aug 19 17:45:49 2020, MaxMem=    65536000 cpu:         0.1
 (Enter /opt/cluster/programs/g09/g09_d.01/g09/l401.exe)
 ExpMin= 1.61D-01 ExpMax= 5.48D+03 ExpMxC= 8.25D+02 IAcc=1 IRadAn=         1 AccDes= 0.00D+00
 Harris functional with IExCor=  419 and IRadAn=       1 diagonalized for initial guess.
 HarFok:  IExCor=  419 AccDes= 0.00D+00 IRadAn=         1 IDoV= 1 UseB2=F ITyADJ=14
 ICtDFT=  3500011 ScaDFX=  1.000000  1.000000  1.000000  1.000000
 FoFCou: FMM=F IPFlag=           0 FMFlag=      100000 FMFlg1=           0
         NFxFlg=           0 DoJE=T BraDBF=F KetDBF=T FulRan=T
         wScrn=  0.000000 ICntrl=     500 IOpCl=  0 I1Cent=   200000004 NGrid=           0
         NMat0=    1 NMatS0=      1 NMatT0=    0 NMatD0=    1 NMtDS0=    0 NMtDT0=    0
 Petite list used in FoFCou.
 Harris En= -191.945580658630    
 JPrj=0 DoOrth=F DoCkMO=F.
 Leave Link  401 at Wed Aug 19 17:45:51 2020, MaxMem=    65536000 cpu:         0.9
 (Enter /opt/cluster/programs/g09/g09_d.01/g09/l502.exe)
 Closed shell SCF:
 Using DIIS extrapolation, IDIIS=  1040.
 Integral symmetry usage will be decided dynamically.
 Keep R1 ints in memory in canonical form, NReq=6191600.
 IVT=       38994 IEndB=       38994 NGot=    65536000 MDV=    60246587
 LenX=    60246587 LenY=    60239746
 Requested convergence on RMS density matrix=1.00D-08 within 128 cycles.
 Requested convergence on MAX density matrix=1.00D-06.
 Requested convergence on             energy=1.00D-06.
 No special actions if energy rises.
 FoFCou: FMM=F IPFlag=           0 FMFlag=           0 FMFlg1=           0
         NFxFlg=           0 DoJE=F BraDBF=F KetDBF=F FulRan=T
         wScrn=  0.000000 ICntrl=     600 IOpCl=  0 I1Cent=           0 NGrid=           0
         NMat0=    1 NMatS0=   3240 NMatT0=    0 NMatD0=    1 NMtDS0=    0 NMtDT0=    0
 Symmetry not used in FoFCou.
 Integral accuracy reduced to 1.0D-05 until final iterations.

 Cycle   1  Pass 0  IDiag  1:
 E= -191.410069543229    
 DIIS: error= 3.89D-02 at cycle   1 NSaved=   1.
 NSaved= 1 IEnMin= 1 EnMin= -191.410069543229     IErMin= 1 ErrMin= 3.89D-02
 ErrMax= 3.89D-02  0.00D+00 EMaxC= 1.00D-01 BMatC= 1.40D-01 BMatP= 1.40D-01
 IDIUse=3 WtCom= 6.11D-01 WtEn= 3.89D-01
 Coeff-Com:  0.100D+01
 Coeff-En:   0.100D+01
 Coeff:      0.100D+01
 Gap=     0.288 Goal=   None    Shift=    0.000
 GapD=    0.288 DampG=1.000 DampE=0.500 DampFc=0.5000 IDamp=-1.
 Damping current iteration by 5.00D-01
 RMSDP=7.28D-03 MaxDP=1.39D-01              OVMax= 1.56D-01

 Cycle   2  Pass 0  IDiag  1:
 E= -191.470009395305     Delta-E=       -0.059939852075 Rises=F Damp=T
 DIIS: error= 1.31D-02 at cycle   2 NSaved=   2.
 NSaved= 2 IEnMin= 2 EnMin= -191.470009395305     IErMin= 2 ErrMin= 1.31D-02
 ErrMax= 1.31D-02  0.00D+00 EMaxC= 1.00D-01 BMatC= 1.38D-02 BMatP= 1.40D-01
 IDIUse=3 WtCom= 8.69D-01 WtEn= 1.31D-01
 Coeff-Com: -0.638D-01 0.106D+01
 Coeff-En:   0.000D+00 0.100D+01
 Coeff:     -0.555D-01 0.106D+01
 Gap=     0.342 Goal=   None    Shift=    0.000
 RMSDP=2.09D-03 MaxDP=2.43D-02 DE=-5.99D-02 OVMax= 1.16D-01

 Cycle   3  Pass 0  IDiag  1:
 E= -191.525227181633     Delta-E=       -0.055217786328 Rises=F Damp=F
 DIIS: error= 1.30D-02 at cycle   3 NSaved=   3.
 NSaved= 3 IEnMin= 3 EnMin= -191.525227181633     IErMin= 3 ErrMin= 1.30D-02
 ErrMax= 1.30D-02  0.00D+00 EMaxC= 1.00D-01 BMatC= 7.25D-03 BMatP= 1.38D-02
 IDIUse=3 WtCom= 8.70D-01 WtEn= 1.30D-01
 Coeff-Com: -0.108D+00 0.466D+00 0.642D+00
 Coeff-En:   0.000D+00 0.000D+00 0.100D+01
 Coeff:     -0.938D-01 0.405D+00 0.689D+00
 Gap=     0.335 Goal=   None    Shift=    0.000
 RMSDP=1.19D-03 MaxDP=2.70D-02 DE=-5.52D-02 OVMax= 3.52D-02

 Cycle   4  Pass 0  IDiag  1:
 E= -191.529992332323     Delta-E=       -0.004765150690 Rises=F Damp=F
 DIIS: error= 4.56D-03 at cycle   4 NSaved=   4.
 NSaved= 4 IEnMin= 4 EnMin= -191.529992332323     IErMin= 4 ErrMin= 4.56D-03
 ErrMax= 4.56D-03  0.00D+00 EMaxC= 1.00D-01 BMatC= 1.46D-03 BMatP= 7.25D-03
 IDIUse=3 WtCom= 9.54D-01 WtEn= 4.56D-02
 Coeff-Com: -0.127D-01 0.770D-02 0.323D+00 0.682D+00
 Coeff-En:   0.000D+00 0.000D+00 0.161D+00 0.839D+00
 Coeff:     -0.121D-01 0.735D-02 0.315D+00 0.689D+00
 Gap=     0.326 Goal=   None    Shift=    0.000
 RMSDP=4.57D-04 MaxDP=8.79D-03 DE=-4.77D-03 OVMax= 9.75D-03

 Cycle   5  Pass 0  IDiag  1:
 E= -191.531201470272     Delta-E=       -0.001209137949 Rises=F Damp=F
 DIIS: error= 3.07D-04 at cycle   5 NSaved=   5.
 NSaved= 5 IEnMin= 5 EnMin= -191.531201470272     IErMin= 5 ErrMin= 3.07D-04
 ErrMax= 3.07D-04  0.00D+00 EMaxC= 1.00D-01 BMatC= 8.12D-06 BMatP= 1.46D-03
 IDIUse=3 WtCom= 9.97D-01 WtEn= 3.07D-03
 Coeff-Com: -0.125D-02-0.521D-02 0.744D-01 0.184D+00 0.748D+00
 Coeff-En:   0.000D+00 0.000D+00 0.000D+00 0.000D+00 0.100D+01
 Coeff:     -0.124D-02-0.519D-02 0.742D-01 0.183D+00 0.749D+00
 Gap=     0.326 Goal=   None    Shift=    0.000
 RMSDP=3.94D-05 MaxDP=8.59D-04 DE=-1.21D-03 OVMax= 1.94D-03

 Cycle   6  Pass 0  IDiag  1:
 E= -191.531210896360     Delta-E=       -0.000009426088 Rises=F Damp=F
 DIIS: error= 1.24D-04 at cycle   6 NSaved=   6.
 NSaved= 6 IEnMin= 6 EnMin= -191.531210896360     IErMin= 6 ErrMin= 1.24D-04
 ErrMax= 1.24D-04  0.00D+00 EMaxC= 1.00D-01 BMatC= 1.11D-06 BMatP= 8.12D-06
 IDIUse=3 WtCom= 9.99D-01 WtEn= 1.24D-03
 Coeff-Com:  0.151D-02-0.291D-02-0.185D-01-0.428D-01 0.159D+00 0.904D+00
 Coeff-En:   0.000D+00 0.000D+00 0.000D+00 0.000D+00 0.000D+00 0.100D+01
 Coeff:      0.151D-02-0.290D-02-0.185D-01-0.427D-01 0.159D+00 0.904D+00
 Gap=     0.326 Goal=   None    Shift=    0.000
 RMSDP=2.93D-05 MaxDP=5.80D-04 DE=-9.43D-06 OVMax= 5.33D-04

 Cycle   7  Pass 0  IDiag  1:
 E= -191.531212352515     Delta-E=       -0.000001456156 Rises=F Damp=F
 DIIS: error= 4.41D-05 at cycle   7 NSaved=   7.
 NSaved= 7 IEnMin= 7 EnMin= -191.531212352515     IErMin= 7 ErrMin= 4.41D-05
 ErrMax= 4.41D-05  0.00D+00 EMaxC= 1.00D-01 BMatC= 1.14D-07 BMatP= 1.11D-06
 IDIUse=1 WtCom= 1.00D+00 WtEn= 0.00D+00
 Coeff-Com:  0.594D-03-0.694D-03-0.833D-02-0.234D-01-0.885D-02 0.220D+00
 Coeff-Com:  0.821D+00
 Coeff:      0.594D-03-0.694D-03-0.833D-02-0.234D-01-0.885D-02 0.220D+00
 Coeff:      0.821D+00
 Gap=     0.326 Goal=   None    Shift=    0.000
 RMSDP=7.31D-06 MaxDP=1.38D-04 DE=-1.46D-06 OVMax= 3.05D-04

 Initial convergence to 1.0D-05 achieved.  Increase integral accuracy.
 Cycle   8  Pass 1  IDiag  1:
 E= -191.531214626349     Delta-E=       -0.000002273834 Rises=F Damp=F
 DIIS: error= 1.74D-05 at cycle   1 NSaved=   1.
 NSaved= 1 IEnMin= 1 EnMin= -191.531214626349     IErMin= 1 ErrMin= 1.74D-05
 ErrMax= 1.74D-05  0.00D+00 EMaxC= 1.00D-01 BMatC= 4.05D-08 BMatP= 4.05D-08
 IDIUse=1 WtCom= 1.00D+00 WtEn= 0.00D+00
 Coeff-Com:  0.100D+01
 Coeff:      0.100D+01
 Gap=     0.326 Goal=   None    Shift=    0.000
 RMSDP=7.31D-06 MaxDP=1.38D-04 DE=-2.27D-06 OVMax= 1.57D-04

 Cycle   9  Pass 1  IDiag  1:
 E= -191.531214624554     Delta-E=        0.000000001795 Rises=F Damp=F
 DIIS: error= 2.56D-05 at cycle   2 NSaved=   2.
 NSaved= 2 IEnMin= 1 EnMin= -191.531214626349     IErMin= 1 ErrMin= 1.74D-05
 ErrMax= 2.56D-05  0.00D+00 EMaxC= 1.00D-01 BMatC= 4.40D-08 BMatP= 4.05D-08
 IDIUse=1 WtCom= 1.00D+00 WtEn= 0.00D+00
 Coeff-Com:  0.511D+00 0.489D+00
 Coeff:      0.511D+00 0.489D+00
 Gap=     0.326 Goal=   None    Shift=    0.000
 RMSDP=2.34D-06 MaxDP=5.13D-05 DE= 1.80D-09 OVMax= 1.23D-04

 Cycle  10  Pass 1  IDiag  1:
 E= -191.531214668920     Delta-E=       -0.000000044366 Rises=F Damp=F
 DIIS: error= 3.72D-06 at cycle   3 NSaved=   3.
 NSaved= 3 IEnMin= 3 EnMin= -191.531214668920     IErMin= 3 ErrMin= 3.72D-06
 ErrMax= 3.72D-06  0.00D+00 EMaxC= 1.00D-01 BMatC= 1.19D-09 BMatP= 4.05D-08
 IDIUse=1 WtCom= 1.00D+00 WtEn= 0.00D+00
 Coeff-Com: -0.212D-01 0.971D-01 0.924D+00
 Coeff:     -0.212D-01 0.971D-01 0.924D+00
 Gap=     0.326 Goal=   None    Shift=    0.000
 RMSDP=8.98D-07 MaxDP=1.96D-05 DE=-4.44D-08 OVMax= 1.60D-05

 Cycle  11  Pass 1  IDiag  1:
 E= -191.531214670040     Delta-E=       -0.000000001119 Rises=F Damp=F
 DIIS: error= 2.67D-06 at cycle   4 NSaved=   4.
 NSaved= 4 IEnMin= 4 EnMin= -191.531214670040     IErMin= 4 ErrMin= 2.67D-06
 ErrMax= 2.67D-06  0.00D+00 EMaxC= 1.00D-01 BMatC= 3.52D-10 BMatP= 1.19D-09
 IDIUse=1 WtCom= 1.00D+00 WtEn= 0.00D+00
 Coeff-Com: -0.132D+00-0.399D-01 0.517D+00 0.655D+00
 Coeff:     -0.132D+00-0.399D-01 0.517D+00 0.655D+00
 Gap=     0.326 Goal=   None    Shift=    0.000
 RMSDP=2.97D-07 MaxDP=8.06D-06 DE=-1.12D-09 OVMax= 1.08D-05

 Cycle  12  Pass 1  IDiag  1:
 E= -191.531214670447     Delta-E=       -0.000000000407 Rises=F Damp=F
 DIIS: error= 3.94D-07 at cycle   5 NSaved=   5.
 NSaved= 5 IEnMin= 5 EnMin= -191.531214670447     IErMin= 5 ErrMin= 3.94D-07
 ErrMax= 3.94D-07  0.00D+00 EMaxC= 1.00D-01 BMatC= 2.27D-11 BMatP= 3.52D-10
 IDIUse=1 WtCom= 1.00D+00 WtEn= 0.00D+00
 Coeff-Com: -0.457D-01-0.197D-01 0.767D-01 0.242D+00 0.747D+00
 Coeff:     -0.457D-01-0.197D-01 0.767D-01 0.242D+00 0.747D+00
 Gap=     0.326 Goal=   None    Shift=    0.000
 RMSDP=8.75D-08 MaxDP=1.49D-06 DE=-4.07D-10 OVMax= 1.95D-06

 Cycle  13  Pass 1  IDiag  1:
 E= -191.531214670468     Delta-E=       -0.000000000022 Rises=F Damp=F
 DIIS: error= 1.19D-07 at cycle   6 NSaved=   6.
 NSaved= 6 IEnMin= 6 EnMin= -191.531214670468     IErMin= 6 ErrMin= 1.19D-07
 ErrMax= 1.19D-07  0.00D+00 EMaxC= 1.00D-01 BMatC= 1.06D-12 BMatP= 2.27D-11
 IDIUse=1 WtCom= 1.00D+00 WtEn= 0.00D+00
 Coeff-Com:  0.686D-02 0.261D-02-0.520D-01-0.187D-01 0.194D+00 0.868D+00
 Coeff:      0.686D-02 0.261D-02-0.520D-01-0.187D-01 0.194D+00 0.868D+00
 Gap=     0.326 Goal=   None    Shift=    0.000
 RMSDP=2.34D-08 MaxDP=3.78D-07 DE=-2.17D-11 OVMax= 5.38D-07

 Cycle  14  Pass 1  IDiag  1:
 E= -191.531214670469     Delta-E=       -0.000000000001 Rises=F Damp=F
 DIIS: error= 1.37D-08 at cycle   7 NSaved=   7.
 NSaved= 7 IEnMin= 7 EnMin= -191.531214670469     IErMin= 7 ErrMin= 1.37D-08
 ErrMax= 1.37D-08  0.00D+00 EMaxC= 1.00D-01 BMatC= 2.59D-14 BMatP= 1.06D-12
 IDIUse=1 WtCom= 1.00D+00 WtEn= 0.00D+00
 Coeff-Com:  0.287D-02 0.128D-02-0.153D-01-0.111D-01 0.318D-01 0.230D+00
 Coeff-Com:  0.760D+00
 Coeff:      0.287D-02 0.128D-02-0.153D-01-0.111D-01 0.318D-01 0.230D+00
 Coeff:      0.760D+00
 Gap=     0.326 Goal=   None    Shift=    0.000
 RMSDP=2.55D-09 MaxDP=3.70D-08 DE=-1.02D-12 OVMax= 4.65D-08

 SCF Done:  E(RB2PLYPD3) =  -191.531214670     A.U. after   14 cycles
            NFock= 14  Conv=0.25D-08     -V/T= 2.0069
 KE= 1.902177209323D+02 PE=-6.530717752894D+02 EE= 1.684521862388D+02
 Leave Link  502 at Wed Aug 19 17:45:53 2020, MaxMem=    65536000 cpu:         6.8
 (Enter /opt/cluster/programs/g09/g09_d.01/g09/l801.exe)
 DoSCS=T DFT=T ScalE2(SS,OS)=  0.270000  0.270000
 ExpMin= 1.61D-01 ExpMax= 5.48D+03 ExpMxC= 8.25D+02 IAcc=3 IRadAn=         5 AccDes= 0.00D+00
 HarFok:  IExCor=  205 AccDes= 0.00D+00 IRadAn=         5 IDoV=-2 UseB2=F ITyADJ=14
 ICtDFT= 12500011 ScaDFX=  1.000000  1.000000  1.000000  1.000000
 Largest valence mixing into a core orbital is  1.10D-04
 Largest core mixing into a valence orbital is  2.01D-05
 Range of M.O.s used for correlation:     5    80
 NBasis=    80 NAE=    15 NBE=    15 NFC=     4 NFV=     0
 NROrb=     76 NOA=    11 NOB=    11 NVA=    65 NVB=    65
 Leave Link  801 at Wed Aug 19 17:45:54 2020, MaxMem=    65536000 cpu:         0.4
 (Enter /opt/cluster/programs/g09/g09_d.01/g09/l906.exe)
 DoSCS=T DFT=T ScalE2(SS,OS)=  0.270000  0.270000
 Frozen-core derivative calculation, NFC=   4 NFV=   0.
 FulOut=F Deriv=T AODrv=T NAtomX=     8
   MMem=         244  MDisk=          11 MDiskD=          11
  W3Min=       96000 MinDsk=      201640 NBas6D=          80
 NBas2D=        3360    NTT=        3240    LW2=     2040000
    MDV=    65451372 MDiskM=       11015 NBas2p=        3334
 Fully direct method using O(ONN) memory.
 IMap=   1   2   3   4   5   6   7   8   9  10  11  12  13  14  15
 JobTyp=1 Pass  1:  I=   5 to  10 NPSUse=  8 ParTrn=T ParDer=T DoDerP=T.
 JobTyp=1 Pass  2:  I=  11 to  15 NPSUse=  8 ParTrn=T ParDer=T DoDerP=T.
 Spin components of T(2) and E(2):
     alpha-alpha T2 =       0.3726327122D-01 E2=     -0.2396526274D-01
     alpha-beta  T2 =       0.2345753494D+00 E2=     -0.1445205237D+00
     beta-beta   T2 =       0.3726327122D-01 E2=     -0.2396526274D-01
 The integrals were generated   2 times.
 E2(B2PLYPD3) =    -0.1924510491D+00 E(B2PLYPD3) =    -0.19172366571961D+03
 Leave Link  906 at Wed Aug 19 17:45:56 2020, MaxMem=    65536000 cpu:         5.1
 (Enter /opt/cluster/programs/g09/g09_d.01/g09/l1002.exe)
 Minotr:  Closed shell wavefunction.
          Computing MP2/KS-MP2 derivatives.
          Using Z-Vector for PSCF gradient.
          Skipping F1 and S1 gradient terms here.
          IDoAtm=11111111
          Frozen-core window.
          Direct CPHF calculation.
          Differentiating once with respect to electric field.
                with respect to dipole field.
          Differentiating once with respect to nuclear coordinates.
          Requested convergence is 1.0D-10 RMS, and 1.0D-09 maximum.
          NewPWx=F KeepS1=T KeepF1=T KeepIn=T MapXYZ=F SortEE=F KeepMc=T.
          MDV=      65535840 using IRadAn=       0.
 Using stored XC quadrature information.
 Keep R1 ints in memory in canonical form, NReq=6153785.
 FoFCou: FMM=F IPFlag=           0 FMFlag=           0 FMFlg1=           0
         NFxFlg=           0 DoJE=F BraDBF=F KetDBF=F FulRan=T
         wScrn=  0.000000 ICntrl=     600 IOpCl=  0 I1Cent=           0 NGrid=           0
         NMat0=    1 NMatS0=   3240 NMatT0=    0 NMatD0=    1 NMtDS0=    0 NMtDT0=    0
 Symmetry not used in FoFCou.
          Solving linear equations separately, MaxMat=       0.
          There are     1 degrees of freedom in the 1st order CPHF.  IDoFFX=0 NUNeed=     1.
 LinEq1:  Iter=  0 NonCon=     1 RMS=3.23D-03 Max=5.20D-02 NDo=     1
 AX will form     1 AO Fock derivatives at one time.
 LinEq1:  Iter=  1 NonCon=     1 RMS=1.80D-03 Max=2.27D-02 NDo=     1
 LinEq1:  Iter=  2 NonCon=     1 RMS=5.61D-04 Max=5.40D-03 NDo=     1
 LinEq1:  Iter=  3 NonCon=     1 RMS=2.27D-04 Max=2.70D-03 NDo=     1
 LinEq1:  Iter=  4 NonCon=     1 RMS=4.58D-05 Max=4.89D-04 NDo=     1
 LinEq1:  Iter=  5 NonCon=     1 RMS=2.18D-05 Max=3.35D-04 NDo=     1
 LinEq1:  Iter=  6 NonCon=     1 RMS=6.97D-06 Max=6.73D-05 NDo=     1
 LinEq1:  Iter=  7 NonCon=     1 RMS=3.13D-06 Max=3.95D-05 NDo=     1
 LinEq1:  Iter=  8 NonCon=     1 RMS=5.69D-07 Max=5.76D-06 NDo=     1
 LinEq1:  Iter=  9 NonCon=     1 RMS=8.40D-08 Max=5.01D-07 NDo=     1
 LinEq1:  Iter= 10 NonCon=     1 RMS=1.18D-08 Max=7.14D-08 NDo=     1
 LinEq1:  Iter= 11 NonCon=     1 RMS=1.89D-09 Max=1.42D-08 NDo=     1
 LinEq1:  Iter= 12 NonCon=     1 RMS=4.30D-10 Max=3.09D-09 NDo=     1
 LinEq1:  Iter= 13 NonCon=     1 RMS=8.53D-11 Max=1.20D-09 NDo=     1
 LinEq1:  Iter= 14 NonCon=     0 RMS=2.03D-11 Max=3.75D-10 NDo=     1
 Linear equations converged to 1.000D-10 1.000D-09 after    14 iterations.
 End of Minotr F.D. properties file   721 does not exist.
 End of Minotr F.D. properties file   722 does not exist.
 End of Minotr F.D. properties file   788 does not exist.
 Leave Link 1002 at Wed Aug 19 17:45:59 2020, MaxMem=    65536000 cpu:        11.6
 (Enter /opt/cluster/programs/g09/g09_d.01/g09/l601.exe)
 Copying SCF densities to generalized density rwf, IOpCl= 0 IROHF=0.

 **********************************************************************

            Population analysis using the SCF density.

 **********************************************************************

 Orbital symmetries:
       Occupied  (A) (A) (A) (A) (A) (A) (A) (A) (A) (A) (A) (A)
                 (A) (A) (A)
       Virtual   (A) (A) (A) (A) (A) (A) (A) (A) (A) (A) (A) (A)
                 (A) (A) (A) (A) (A) (A) (A) (A) (A) (A) (A) (A)
                 (A) (A) (A) (A) (A) (A) (A) (A) (A) (A) (A) (A)
                 (A) (A) (A) (A) (A) (A) (A) (A) (A) (A) (A) (A)
                 (A) (A) (A) (A) (A) (A) (A) (A) (A) (A) (A) (A)
                 (A) (A) (A) (A) (A)
 The electronic state is 1-A.
 Alpha  occ. eigenvalues --  -19.74003 -10.72116 -10.65814 -10.64633  -1.17987
 Alpha  occ. eigenvalues --   -0.91873  -0.74566  -0.66334  -0.55595  -0.55098
 Alpha  occ. eigenvalues --   -0.49234  -0.46064  -0.45280  -0.33349  -0.32760
 Alpha virt. eigenvalues --   -0.00122   0.13032   0.16339   0.17148   0.21239
 Alpha virt. eigenvalues --    0.25029   0.32415   0.38281   0.42357   0.59464
 Alpha virt. eigenvalues --    0.59554   0.62929   0.67401   0.70130   0.73133
 Alpha virt. eigenvalues --    0.75651   0.77814   0.89255   0.90962   0.94685
 Alpha virt. eigenvalues --    0.95189   0.99611   1.02604   1.10563   1.15661
 Alpha virt. eigenvalues --    1.17267   1.24555   1.36062   1.39962   1.46442
 Alpha virt. eigenvalues --    1.56393   1.58456   1.63639   1.84392   1.88717
 Alpha virt. eigenvalues --    1.91356   1.97303   2.04717   2.06818   2.11156
 Alpha virt. eigenvalues --    2.12747   2.20556   2.25176   2.29901   2.41004
 Alpha virt. eigenvalues --    2.49253   2.56470   2.58175   2.67400   2.67666
 Alpha virt. eigenvalues --    2.73059   2.83230   2.83696   2.87226   3.05592
 Alpha virt. eigenvalues --    3.09138   3.16955   3.39680   3.51496   3.63865
 Alpha virt. eigenvalues --    3.83360   4.03743   4.29253   4.44414   4.71800
          Condensed to atoms (all electrons):
               1          2          3          4          5          6
     1  C    4.466982   0.526569   0.375260  -0.029321  -0.029071  -0.006101
     2  O    0.526569   8.038820  -0.066686   0.004274   0.001297   0.000079
     3  C    0.375260  -0.066686   5.059621   0.539612   0.386005  -0.042729
     4  C   -0.029321   0.004274   0.539612   4.967829  -0.036301   0.396622
     5  H   -0.029071   0.001297   0.386005  -0.036301   0.533538   0.003815
     6  H   -0.006101   0.000079  -0.042729   0.396622   0.003815   0.544011
     7  H    0.002523  -0.000080  -0.023366   0.384316  -0.004839  -0.033684
     8  H    0.377663  -0.044394  -0.108309   0.011789   0.004047   0.005708
               7          8
     1  C    0.002523   0.377663
     2  O   -0.000080  -0.044394
     3  C   -0.023366  -0.108309
     4  C    0.384316   0.011789
     5  H   -0.004839   0.004047
     6  H   -0.033684   0.005708
     7  H    0.538491  -0.000199
     8  H   -0.000199   0.661712
 Mulliken charges:
               1
     1  C    0.315498
     2  O   -0.459877
     3  C   -0.119409
     4  C   -0.238820
     5  H    0.141510
     6  H    0.132278
     7  H    0.136837
     8  H    0.091983
 Sum of Mulliken charges =   0.00000
 Mulliken charges with hydrogens summed into heavy atoms:
               1
     1  C    0.407481
     2  O   -0.459877
     3  C    0.022102
     4  C    0.030295
 Electronic spatial extent (au):  <R**2>=            297.4618
 Charge=              0.0000 electrons
 Dipole moment (field-independent basis, Debye):
    X=              3.2566    Y=              0.8209    Z=              0.0001  Tot=              3.3584
 Quadrupole moment (field-independent basis, Debye-Ang):
   XX=            -26.8697   YY=            -21.1308   ZZ=            -24.5239
   XY=             -0.9032   XZ=             -0.0001   YZ=              0.0000
 Traceless Quadrupole moment (field-independent basis, Debye-Ang):
   XX=             -2.6949   YY=              3.0440   ZZ=             -0.3491
   XY=             -0.9032   XZ=             -0.0001   YZ=              0.0000
 Octapole moment (field-independent basis, Debye-Ang**2):
  XXX=             12.8367  YYY=             -0.2189  ZZZ=              0.0000  XYY=             -0.4140
  XXY=              0.7309  XXZ=              0.0001  XZZ=             -4.3585  YZZ=              0.0866
  YYZ=              0.0001  XYZ=             -0.0001
 Hexadecapole moment (field-independent basis, Debye-Ang**3):
 XXXX=           -294.5721 YYYY=            -53.3061 ZZZZ=            -23.0893 XXXY=             -2.6764
 XXXZ=             -0.0001 YYYX=              0.8798 YYYZ=             -0.0001 ZZZX=              0.0001
 ZZZY=              0.0000 XXYY=            -55.6956 XXZZ=            -54.5710 YYZZ=            -14.3726
 XXYZ=             -0.0001 YYXZ=              0.0000 ZZXY=              0.4502
 N-N= 1.028706534479D+02 E-N=-6.530717767546D+02  KE= 1.902177209323D+02
 No NMR shielding tensors so no spin-rotation constants.
 Leave Link  601 at Wed Aug 19 17:46:01 2020, MaxMem=    65536000 cpu:         0.8
 (Enter /opt/cluster/programs/g09/g09_d.01/g09/l701.exe)
 Compute integral first derivatives.
 ... and contract with generalized density number  2.
 R6Disp: Adding Grimme-D3(BJ) dispersion energy 1st derivatives to the gradient.
 Leave Link  701 at Wed Aug 19 17:46:02 2020, MaxMem=    65536000 cpu:         0.8
 (Enter /opt/cluster/programs/g09/g09_d.01/g09/l702.exe)
 L702 exits ... SP integral derivatives will be done elsewhere.
 Leave Link  702 at Wed Aug 19 17:46:02 2020, MaxMem=    65536000 cpu:         0.1
 (Enter /opt/cluster/programs/g09/g09_d.01/g09/l703.exe)
 Compute integral first derivatives, UseDBF=F ICtDFT=           0.
 Integral derivatives from FoFJK, PRISM(SPDF).
 Calling FoFJK, ICntrl=  10002127 FMM=F ISym2X=0 I1Cent= 0 IOpClX= 0 NMat=1 NMatS=1 NMatT=0.
 FoFJK:  IHMeth= 1 ICntrl=10002127 DoSepK=F KAlg= 0 I1Cent=   0 FoldK=F
 IRaf=         0 NMat=   1 IRICut=       1 DoRegI=T DoRafI=F ISym2E= 0.
 FoFCou: FMM=F IPFlag=           0 FMFlag=      100000 FMFlg1=         800
         NFxFlg=           0 DoJE=F BraDBF=F KetDBF=F FulRan=T
         wScrn=  0.000000 ICntrl=10002127 IOpCl=  0 I1Cent=           0 NGrid=           0
         NMat0=    1 NMatS0=      1 NMatT0=    0 NMatD0=    1 NMtDS0=    0 NMtDT0=    0
 Symmetry not used in FoFCou.
 Leave Link  703 at Wed Aug 19 17:46:03 2020, MaxMem=    65536000 cpu:         3.0
 (Enter /opt/cluster/programs/g09/g09_d.01/g09/l716.exe)
 Dipole        = 1.17822621D+00 2.69932270D-01 2.43293599D-05
 ***** Axes restored to original set *****
 -------------------------------------------------------------------
 Center     Atomic                   Forces (Hartrees/Bohr)
 Number     Number              X              Y              Z
 -------------------------------------------------------------------
      1        6           0.015989016   -0.008147183   -0.001045251
      2        8          -0.007098917    0.004208725    0.000371343
      3        6          -0.006082542    0.007006195   -0.000215217
      4        6           0.000506799   -0.008179684    0.001207495
      5        1          -0.000163019    0.000406551   -0.000039541
      6        1           0.001665925    0.000453434   -0.000313409
      7        1          -0.002468314    0.002640743   -0.000054181
      8        1          -0.002348947    0.001611218    0.000088760
 -------------------------------------------------------------------
 Cartesian Forces:  Max     0.015989016 RMS     0.004875873
 Leave Link  716 at Wed Aug 19 17:46:05 2020, MaxMem=    65536000 cpu:         0.2
 (Enter /opt/cluster/programs/g09/g09_d.01/g09/l103.exe)

 GradGradGradGradGradGradGradGradGradGradGradGradGradGradGradGradGradGrad
 Berny optimization.
 FormGI is forming the generalized inverse of G from B-inverse, IUseBI=4.
 Internal  Forces:  Max     0.010272214 RMS     0.003224873
 Search for a local minimum.
 Step number   1 out of a maximum of   34
 All quantities printed in internal units (Hartrees-Bohrs-Radians)
 RMS Force = .32249D-02 SwitMx=.10000D-02 MixMth= 1
 Mixed Optimization -- RFO/linear search
 Second derivative matrix not updated -- first step.
 ITU=  0
     Eigenvalues ---    0.01083   0.01083   0.02056   0.02918   0.02918
     Eigenvalues ---    0.16000   0.16000   0.16000   0.16000   0.22000
     Eigenvalues ---    0.22000   0.33399   0.35024   0.35263   0.35333
     Eigenvalues ---    0.35554   0.57817   0.93463
 RFO step:  Lambda=-1.06777371D-03 EMin= 1.08256761D-02
 Linear search not attempted -- first point.
 Iteration  1 RMS(Cart)=  0.02133083 RMS(Int)=  0.00040295
 Iteration  2 RMS(Cart)=  0.00040593 RMS(Int)=  0.00000002
 Iteration  3 RMS(Cart)=  0.00000003 RMS(Int)=  0.00000000
 ITry= 1 IFail=0 DXMaxC= 6.46D-02 DCOld= 1.00D+10 DXMaxT= 3.00D-01 DXLimC= 3.00D+00 Rises=F
 Variable       Old X    -DE/DX   Delta X   Delta X   Delta X     New X
                                 (Linear)    (Quad)   (Total)
    R1        2.31377  -0.00489   0.00000  -0.00523  -0.00523   2.30854
    R2        2.78936  -0.00134   0.00000  -0.00382  -0.00382   2.78554
    R3        2.08356   0.00285   0.00000   0.00850   0.00850   2.09206
    R4        2.52711   0.00232   0.00000   0.00401   0.00401   2.53112
    R5        2.04785  -0.00036   0.00000  -0.00102  -0.00102   2.04683
    R6        2.05137  -0.00112   0.00000  -0.00315  -0.00315   2.04822
    R7        2.05251  -0.00231   0.00000  -0.00652  -0.00652   2.04599
    A1        2.11712   0.01027   0.00000   0.04647   0.04647   2.16358
    A2        2.13459  -0.00513   0.00000  -0.02319  -0.02319   2.11140
    A3        2.03148  -0.00514   0.00000  -0.02328  -0.02328   2.00820
    A4        2.10860   0.00227   0.00000   0.01027   0.01027   2.11888
    A5        2.03438  -0.00139   0.00000  -0.00670  -0.00670   2.02768
    A6        2.14020  -0.00088   0.00000  -0.00357  -0.00357   2.13662
    A7        2.13930  -0.00376   0.00000  -0.02332  -0.02332   2.11598
    A8        2.09806   0.00474   0.00000   0.02941   0.02941   2.12747
    A9        2.04583  -0.00098   0.00000  -0.00609  -0.00609   2.03974
    D1        3.14154   0.00000   0.00000   0.00007   0.00007  -3.14157
    D2       -0.00006   0.00000   0.00000   0.00009   0.00009   0.00003
    D3       -0.00004   0.00000   0.00000  -0.00003  -0.00003  -0.00006
    D4        3.14155   0.00000   0.00000  -0.00001  -0.00001   3.14154
    D5        0.00000   0.00000   0.00000   0.00001   0.00001   0.00001
    D6        3.14158   0.00000   0.00000   0.00003   0.00003  -3.14158
    D7       -3.14159   0.00000   0.00000  -0.00001  -0.00001   3.14159
    D8       -0.00001   0.00000   0.00000   0.00001   0.00001   0.00001
         Item               Value     Threshold  Converged?
 Maximum Force            0.010272     0.000450     NO 
 RMS     Force            0.003225     0.000300     NO 
 Maximum Displacement     0.064553     0.001800     NO 
 RMS     Displacement     0.021257     0.001200     NO 
 Predicted change in Energy=-5.365729D-04
 Lowest energy point so far.  Saving SCF results.
 GradGradGradGradGradGradGradGradGradGradGradGradGradGradGradGradGradGrad

 Leave Link  103 at Wed Aug 19 17:46:05 2020, MaxMem=    65536000 cpu:         0.3
 (Enter /opt/cluster/programs/g09/g09_d.01/g09/l202.exe)
                          Input orientation:                          
 ---------------------------------------------------------------------
 Center     Atomic      Atomic             Coordinates (Angstroms)
 Number     Number       Type             X           Y           Z
 ---------------------------------------------------------------------
      1          6           0       -5.000703   -1.376556    0.892161
      2          8           0       -3.915289   -0.868760    0.654690
      3          6           0       -5.199016   -2.814891    1.146451
      4          6           0       -6.414010   -3.317432    1.401924
      5          1           0       -4.310071   -3.432882    1.114044
      6          1           0       -7.290987   -2.681100    1.429720
      7          1           0       -6.568784   -4.372402    1.589808
      8          1           0       -5.921062   -0.762438    0.929691
 ---------------------------------------------------------------------
                    Distance matrix (angstroms):
                    1          2          3          4          5
     1  C    0.000000
     2  O    1.221627   0.000000
     3  C    1.474042   2.382690   0.000000
     4  C    2.454444   3.577424   1.339412   0.000000
     5  H    2.180523   2.634688   1.083137   2.126679   0.000000
     6  H    2.690020   3.909039   2.115297   1.083872   3.090418
     7  H    3.452634   4.493439   2.121007   1.082690   2.492155
     8  H    1.107073   2.027327   2.186527   2.644616   3.124188
                    6          7          8
     6  H    0.000000
     7  H    1.845997   0.000000
     8  H    2.409977   3.726545   0.000000
 Stoichiometry    C3H4O
 Framework group  C1[X(C3H4O)]
 Deg. of freedom    18
 Full point group                 C1      NOp   1
 RotChk:  IX=0 Diff= 1.09D-02
 Largest Abelian subgroup         C1      NOp   1
 Largest concise Abelian subgroup C1      NOp   1
                         Standard orientation:                         
 ---------------------------------------------------------------------
 Center     Atomic      Atomic             Coordinates (Angstroms)
 Number     Number       Type             X           Y           Z
 ---------------------------------------------------------------------
      1          6           0       -0.676221    0.355454   -0.000015
      2          8           0       -1.799117   -0.125667    0.000004
      3          6           0        0.562217   -0.443966    0.000002
      4          6           0        1.768574    0.138036    0.000002
      5          1           0        0.436508   -1.519783    0.000004
      6          1           0        1.872118    1.216951   -0.000004
      7          1           0        2.683222   -0.441306   -0.000001
      8          1           0       -0.526337    1.452333    0.000035
 ---------------------------------------------------------------------
 Rotational constants (GHZ):     48.1517587      4.6153909      4.2116959
 Leave Link  202 at Wed Aug 19 17:46:05 2020, MaxMem=    65536000 cpu:         0.0
 (Enter /opt/cluster/programs/g09/g09_d.01/g09/l301.exe)
 Standard basis: 6-31G(d,p) (6D, 7F)
 Ernie: Thresh=  0.10000D-02 Tol=  0.10000D-05 Strict=F.
 There are    80 symmetry adapted cartesian basis functions of A   symmetry.
 There are    80 symmetry adapted basis functions of A   symmetry.
    80 basis functions,   140 primitive gaussians,    80 cartesian basis functions
    15 alpha electrons       15 beta electrons
       nuclear repulsion energy       102.7436382529 Hartrees.
 IExCor=  419 DFT=T Ex+Corr=B2PLYPD3 ExCW=0 ScaHFX=  0.530000
 ScaDFX=  0.470000  0.470000  0.730000  0.730000 ScalE2=  0.270000  0.270000
 IRadAn=      0 IRanWt=     -1 IRanGd=            0 ICorTp=0 IEmpDi=141
 NAtoms=    8 NActive=    8 NUniq=    8 SFac= 1.00D+00 NAtFMM=   60 NAOKFM=F Big=F
 Integral buffers will be    131072 words long.
 Regular integral format.
 Two-electron integral symmetry is turned on.
 R6Disp:  Grimme-D3(BJ) Dispersion energy=       -0.0035751977 Hartrees.
 Nuclear repulsion after empirical dispersion term =      102.7400630553 Hartrees.
 Leave Link  301 at Wed Aug 19 17:46:05 2020, MaxMem=    65536000 cpu:         0.4
 (Enter /opt/cluster/programs/g09/g09_d.01/g09/l302.exe)
 NPDir=0 NMtPBC=     1 NCelOv=     1 NCel=       1 NClECP=     1 NCelD=      1
         NCelK=      1 NCelE2=     1 NClLst=     1 CellRange=     0.0.
 One-electron integrals computed using PRISM.
 NBasis=    80 RedAO= T EigKep=  3.94D-03  NBF=    80
 NBsUse=    80 1.00D-06 EigRej= -1.00D+00 NBFU=    80
 Precomputing XC quadrature grid using
 IXCGrd= 4 IRadAn=           0 IRanWt=          -1 IRanGd=           0 AccXCQ= 0.00D+00.
 Generated NRdTot=       0 NPtTot=           0 NUsed=           0 NTot=          32
 NSgBfM=    80    80    80    80    80 MxSgAt=     8 MxSgA2=     8.
 Leave Link  302 at Wed Aug 19 17:46:05 2020, MaxMem=    65536000 cpu:         0.9
 (Enter /opt/cluster/programs/g09/g09_d.01/g09/l303.exe)
 DipDrv:  MaxL=1.
 Leave Link  303 at Wed Aug 19 17:46:05 2020, MaxMem=    65536000 cpu:         0.1
 (Enter /opt/cluster/programs/g09/g09_d.01/g09/l401.exe)
 Initial guess from the checkpoint file:  "acrolein_opt.chk"
 B after Tr=     0.000000    0.000000    0.000000
         Rot=    1.000000    0.000000    0.000000   -0.000907 Ang=  -0.10 deg.
 Guess basis will be translated and rotated to current coordinates.
 JPrj=2 DoOrth=T DoCkMO=T.
 Generating alternative initial guess.
 ExpMin= 1.61D-01 ExpMax= 5.48D+03 ExpMxC= 8.25D+02 IAcc=1 IRadAn=         1 AccDes= 0.00D+00
 Harris functional with IExCor=  419 and IRadAn=       1 diagonalized for initial guess.
 HarFok:  IExCor=  419 AccDes= 0.00D+00 IRadAn=         1 IDoV= 1 UseB2=F ITyADJ=14
 ICtDFT=  3500011 ScaDFX=  1.000000  1.000000  1.000000  1.000000
 FoFCou: FMM=F IPFlag=           0 FMFlag=      100000 FMFlg1=           0
         NFxFlg=           0 DoJE=T BraDBF=F KetDBF=T FulRan=T
         wScrn=  0.000000 ICntrl=     500 IOpCl=  0 I1Cent=   200000004 NGrid=           0
         NMat0=    1 NMatS0=      1 NMatT0=    0 NMatD0=    1 NMtDS0=    0 NMtDT0=    0
 Petite list used in FoFCou.
 Harris En= -191.945472199477    
 Leave Link  401 at Wed Aug 19 17:46:06 2020, MaxMem=    65536000 cpu:         1.4
 (Enter /opt/cluster/programs/g09/g09_d.01/g09/l502.exe)
 Closed shell SCF:
 Using DIIS extrapolation, IDIIS=  1040.
 Integral symmetry usage will be decided dynamically.
 Keep R1 ints in memory in canonical form, NReq=6191600.
 IVT=       38994 IEndB=       38994 NGot=    65536000 MDV=    60246587
 LenX=    60246587 LenY=    60239746
 Requested convergence on RMS density matrix=1.00D-08 within 128 cycles.
 Requested convergence on MAX density matrix=1.00D-06.
 Requested convergence on             energy=1.00D-06.
 No special actions if energy rises.
 FoFCou: FMM=F IPFlag=           0 FMFlag=           0 FMFlg1=           0
         NFxFlg=           0 DoJE=F BraDBF=F KetDBF=F FulRan=T
         wScrn=  0.000000 ICntrl=     600 IOpCl=  0 I1Cent=           0 NGrid=           0
         NMat0=    1 NMatS0=   3240 NMatT0=    0 NMatD0=    1 NMtDS0=    0 NMtDT0=    0
 Symmetry not used in FoFCou.
 Integral accuracy reduced to 1.0D-05 until final iterations.

 Cycle   1  Pass 0  IDiag  1:
 E= -191.531099918639    
 DIIS: error= 1.87D-03 at cycle   1 NSaved=   1.
 NSaved= 1 IEnMin= 1 EnMin= -191.531099918639     IErMin= 1 ErrMin= 1.87D-03
 ErrMax= 1.87D-03  0.00D+00 EMaxC= 1.00D-01 BMatC= 4.77D-04 BMatP= 4.77D-04
 IDIUse=3 WtCom= 9.81D-01 WtEn= 1.87D-02
 Coeff-Com:  0.100D+01
 Coeff-En:   0.100D+01
 Coeff:      0.100D+01
 Gap=     2.478 Goal=   None    Shift=    0.000
 GapD=    2.478 DampG=2.000 DampE=1.000 DampFc=2.0000 IDamp=-1.
 RMSDP=4.45D-04 MaxDP=6.08D-03              OVMax= 7.42D-03

 Cycle   2  Pass 0  IDiag  1:
 E= -191.531762564761     Delta-E=       -0.000662646122 Rises=F Damp=F
 DIIS: error= 3.56D-04 at cycle   2 NSaved=   2.
 NSaved= 2 IEnMin= 2 EnMin= -191.531762564761     IErMin= 2 ErrMin= 3.56D-04
 ErrMax= 3.56D-04  0.00D+00 EMaxC= 1.00D-01 BMatC= 1.37D-05 BMatP= 4.77D-04
 IDIUse=3 WtCom= 9.96D-01 WtEn= 3.56D-03
 Coeff-Com: -0.162D+00 0.116D+01
 Coeff-En:   0.000D+00 0.100D+01
 Coeff:     -0.161D+00 0.116D+01
 Gap=     0.325 Goal=   None    Shift=    0.000
 RMSDP=9.77D-05 MaxDP=1.57D-03 DE=-6.63D-04 OVMax= 1.82D-03

 Cycle   3  Pass 0  IDiag  1:
 E= -191.531786178539     Delta-E=       -0.000023613778 Rises=F Damp=F
 DIIS: error= 6.42D-05 at cycle   3 NSaved=   3.
 NSaved= 3 IEnMin= 3 EnMin= -191.531786178539     IErMin= 3 ErrMin= 6.42D-05
 ErrMax= 6.42D-05  0.00D+00 EMaxC= 1.00D-01 BMatC= 3.57D-07 BMatP= 1.37D-05
 IDIUse=1 WtCom= 1.00D+00 WtEn= 0.00D+00
 Coeff-Com: -0.238D-01 0.118D+00 0.906D+00
 Coeff:     -0.238D-01 0.118D+00 0.906D+00
 Gap=     0.325 Goal=   None    Shift=    0.000
 RMSDP=1.31D-05 MaxDP=2.20D-04 DE=-2.36D-05 OVMax= 5.12D-04

 Cycle   4  Pass 0  IDiag  1:
 E= -191.531786414665     Delta-E=       -0.000000236126 Rises=F Damp=F
 DIIS: error= 5.01D-05 at cycle   4 NSaved=   4.
 NSaved= 4 IEnMin= 4 EnMin= -191.531786414665     IErMin= 4 ErrMin= 5.01D-05
 ErrMax= 5.01D-05  0.00D+00 EMaxC= 1.00D-01 BMatC= 2.91D-07 BMatP= 3.57D-07
 IDIUse=1 WtCom= 1.00D+00 WtEn= 0.00D+00
 Coeff-Com: -0.148D-02-0.199D-01 0.483D+00 0.538D+00
 Coeff:     -0.148D-02-0.199D-01 0.483D+00 0.538D+00
 Gap=     0.325 Goal=   None    Shift=    0.000
 RMSDP=7.08D-06 MaxDP=1.15D-04 DE=-2.36D-07 OVMax= 2.01D-04

 Initial convergence to 1.0D-05 achieved.  Increase integral accuracy.
 Cycle   5  Pass 1  IDiag  1:
 E= -191.531786647152     Delta-E=       -0.000000232487 Rises=F Damp=F
 DIIS: error= 1.42D-05 at cycle   1 NSaved=   1.
 NSaved= 1 IEnMin= 1 EnMin= -191.531786647152     IErMin= 1 ErrMin= 1.42D-05
 ErrMax= 1.42D-05  0.00D+00 EMaxC= 1.00D-01 BMatC= 1.10D-08 BMatP= 1.10D-08
 IDIUse=1 WtCom= 1.00D+00 WtEn= 0.00D+00
 Coeff-Com:  0.100D+01
 Coeff:      0.100D+01
 Gap=     0.325 Goal=   None    Shift=    0.000
 RMSDP=7.08D-06 MaxDP=1.15D-04 DE=-2.32D-07 OVMax= 7.83D-05

 Cycle   6  Pass 1  IDiag  1:
 E= -191.531786646488     Delta-E=        0.000000000664 Rises=F Damp=F
 DIIS: error= 1.67D-05 at cycle   2 NSaved=   2.
 NSaved= 2 IEnMin= 1 EnMin= -191.531786647152     IErMin= 1 ErrMin= 1.42D-05
 ErrMax= 1.67D-05  0.00D+00 EMaxC= 1.00D-01 BMatC= 1.82D-08 BMatP= 1.10D-08
 IDIUse=1 WtCom= 1.00D+00 WtEn= 0.00D+00
 Coeff-Com:  0.570D+00 0.430D+00
 Coeff:      0.570D+00 0.430D+00
 Gap=     0.325 Goal=   None    Shift=    0.000
 RMSDP=1.49D-06 MaxDP=3.02D-05 DE= 6.64D-10 OVMax= 3.75D-05

 Cycle   7  Pass 1  IDiag  1:
 E= -191.531786659542     Delta-E=       -0.000000013054 Rises=F Damp=F
 DIIS: error= 2.47D-06 at cycle   3 NSaved=   3.
 NSaved= 3 IEnMin= 3 EnMin= -191.531786659542     IErMin= 3 ErrMin= 2.47D-06
 ErrMax= 2.47D-06  0.00D+00 EMaxC= 1.00D-01 BMatC= 1.57D-10 BMatP= 1.10D-08
 IDIUse=1 WtCom= 1.00D+00 WtEn= 0.00D+00
 Coeff-Com:  0.393D-02 0.421D-01 0.954D+00
 Coeff:      0.393D-02 0.421D-01 0.954D+00
 Gap=     0.325 Goal=   None    Shift=    0.000
 RMSDP=3.61D-07 MaxDP=5.84D-06 DE=-1.31D-08 OVMax= 9.12D-06

 Cycle   8  Pass 1  IDiag  1:
 E= -191.531786659823     Delta-E=       -0.000000000280 Rises=F Damp=F
 DIIS: error= 7.28D-07 at cycle   4 NSaved=   4.
 NSaved= 4 IEnMin= 4 EnMin= -191.531786659823     IErMin= 4 ErrMin= 7.28D-07
 ErrMax= 7.28D-07  0.00D+00 EMaxC= 1.00D-01 BMatC= 5.93D-11 BMatP= 1.57D-10
 IDIUse=1 WtCom= 1.00D+00 WtEn= 0.00D+00
 Coeff-Com: -0.560D-01-0.547D-01 0.283D+00 0.828D+00
 Coeff:     -0.560D-01-0.547D-01 0.283D+00 0.828D+00
 Gap=     0.325 Goal=   None    Shift=    0.000
 RMSDP=1.50D-07 MaxDP=2.66D-06 DE=-2.80D-10 OVMax= 3.58D-06

 Cycle   9  Pass 1  IDiag  1:
 E= -191.531786659887     Delta-E=       -0.000000000065 Rises=F Damp=F
 DIIS: error= 1.92D-07 at cycle   5 NSaved=   5.
 NSaved= 5 IEnMin= 5 EnMin= -191.531786659887     IErMin= 5 ErrMin= 1.92D-07
 ErrMax= 1.92D-07  0.00D+00 EMaxC= 1.00D-01 BMatC= 4.35D-12 BMatP= 5.93D-11
 IDIUse=1 WtCom= 1.00D+00 WtEn= 0.00D+00
 Coeff-Com: -0.161D-01-0.243D-01 0.131D-01 0.194D+00 0.833D+00
 Coeff:     -0.161D-01-0.243D-01 0.131D-01 0.194D+00 0.833D+00
 Gap=     0.325 Goal=   None    Shift=    0.000
 RMSDP=5.29D-08 MaxDP=9.85D-07 DE=-6.46D-11 OVMax= 8.19D-07

 Cycle  10  Pass 1  IDiag  1:
 E= -191.531786659891     Delta-E=       -0.000000000004 Rises=F Damp=F
 DIIS: error= 1.25D-07 at cycle   6 NSaved=   6.
 NSaved= 6 IEnMin= 6 EnMin= -191.531786659891     IErMin= 6 ErrMin= 1.25D-07
 ErrMax= 1.25D-07  0.00D+00 EMaxC= 1.00D-01 BMatC= 9.05D-13 BMatP= 4.35D-12
 IDIUse=1 WtCom= 1.00D+00 WtEn= 0.00D+00
 Coeff-Com:  0.206D-02-0.354D-02-0.289D-01-0.443D-01 0.349D+00 0.725D+00
 Coeff:      0.206D-02-0.354D-02-0.289D-01-0.443D-01 0.349D+00 0.725D+00
 Gap=     0.325 Goal=   None    Shift=    0.000
 RMSDP=1.53D-08 MaxDP=3.30D-07 DE=-3.75D-12 OVMax= 7.51D-07

 Cycle  11  Pass 1  IDiag  1:
 E= -191.531786659892     Delta-E=       -0.000000000001 Rises=F Damp=F
 DIIS: error= 2.32D-08 at cycle   7 NSaved=   7.
 NSaved= 7 IEnMin= 7 EnMin= -191.531786659892     IErMin= 7 ErrMin= 2.32D-08
 ErrMax= 2.32D-08  0.00D+00 EMaxC= 1.00D-01 BMatC= 8.47D-14 BMatP= 9.05D-13
 IDIUse=1 WtCom= 1.00D+00 WtEn= 0.00D+00
 Coeff-Com:  0.249D-02 0.125D-02-0.809D-02-0.391D-01-0.179D-01 0.214D+00
 Coeff-Com:  0.847D+00
 Coeff:      0.249D-02 0.125D-02-0.809D-02-0.391D-01-0.179D-01 0.214D+00
 Coeff:      0.847D+00
 Gap=     0.325 Goal=   None    Shift=    0.000
 RMSDP=6.01D-09 MaxDP=9.05D-08 DE=-9.66D-13 OVMax= 8.60D-08

 SCF Done:  E(RB2PLYPD3) =  -191.531786660     A.U. after   11 cycles
            NFock= 11  Conv=0.60D-08     -V/T= 2.0069
 KE= 1.902192219688D+02 PE=-6.527832736326D+02 EE= 1.682922019486D+02
 Leave Link  502 at Wed Aug 19 17:46:06 2020, MaxMem=    65536000 cpu:         6.0
 (Enter /opt/cluster/programs/g09/g09_d.01/g09/l801.exe)
 DoSCS=T DFT=T ScalE2(SS,OS)=  0.270000  0.270000
 ExpMin= 1.61D-01 ExpMax= 5.48D+03 ExpMxC= 8.25D+02 IAcc=3 IRadAn=         5 AccDes= 0.00D+00
 HarFok:  IExCor=  205 AccDes= 0.00D+00 IRadAn=         5 IDoV=-2 UseB2=F ITyADJ=14
 ICtDFT= 12500011 ScaDFX=  1.000000  1.000000  1.000000  1.000000
 Largest valence mixing into a core orbital is  1.10D-04
 Largest core mixing into a valence orbital is  2.01D-05
 Range of M.O.s used for correlation:     5    80
 NBasis=    80 NAE=    15 NBE=    15 NFC=     4 NFV=     0
 NROrb=     76 NOA=    11 NOB=    11 NVA=    65 NVB=    65
 Leave Link  801 at Wed Aug 19 17:46:06 2020, MaxMem=    65536000 cpu:         0.4
 (Enter /opt/cluster/programs/g09/g09_d.01/g09/l906.exe)
 DoSCS=T DFT=T ScalE2(SS,OS)=  0.270000  0.270000
 Frozen-core derivative calculation, NFC=   4 NFV=   0.
 FulOut=F Deriv=T AODrv=T NAtomX=     8
   MMem=         244  MDisk=          11 MDiskD=          11
  W3Min=       96000 MinDsk=      201640 NBas6D=          80
 NBas2D=        3360    NTT=        3240    LW2=     2040000
    MDV=    65451386 MDiskM=       11015 NBas2p=        3334
 Fully direct method using O(ONN) memory.
 IMap=   1   2   3   4   5   6   7   8   9  10  11  12  13  14  15
 JobTyp=1 Pass  1:  I=   5 to  10 NPSUse=  8 ParTrn=T ParDer=T DoDerP=T.
 JobTyp=1 Pass  2:  I=  11 to  15 NPSUse=  8 ParTrn=T ParDer=T DoDerP=T.
 Spin components of T(2) and E(2):
     alpha-alpha T2 =       0.3728445090D-01 E2=     -0.2396762382D-01
     alpha-beta  T2 =       0.2344541917D+00 E2=     -0.1444835466D+00
     beta-beta   T2 =       0.3728445090D-01 E2=     -0.2396762382D-01
 The integrals were generated   2 times.
 E2(B2PLYPD3) =    -0.1924187942D+00 E(B2PLYPD3) =    -0.19172420545409D+03
 Leave Link  906 at Wed Aug 19 17:46:07 2020, MaxMem=    65536000 cpu:         5.2
 (Enter /opt/cluster/programs/g09/g09_d.01/g09/l1002.exe)
 Minotr:  Closed shell wavefunction.
          Computing MP2/KS-MP2 derivatives.
          Using Z-Vector for PSCF gradient.
          Skipping F1 and S1 gradient terms here.
          IDoAtm=11111111
          Frozen-core window.
          Direct CPHF calculation.
          Differentiating once with respect to electric field.
                with respect to dipole field.
          Differentiating once with respect to nuclear coordinates.
          Requested convergence is 1.0D-10 RMS, and 1.0D-09 maximum.
          NewPWx=F KeepS1=T KeepF1=T KeepIn=T MapXYZ=F SortEE=F KeepMc=T.
          MDV=      65535840 using IRadAn=       0.
 Using stored XC quadrature information.
 Keep R1 ints in memory in canonical form, NReq=6153785.
 FoFCou: FMM=F IPFlag=           0 FMFlag=           0 FMFlg1=           0
         NFxFlg=           0 DoJE=F BraDBF=F KetDBF=F FulRan=T
         wScrn=  0.000000 ICntrl=     600 IOpCl=  0 I1Cent=           0 NGrid=           0
         NMat0=    1 NMatS0=   3240 NMatT0=    0 NMatD0=    1 NMtDS0=    0 NMtDT0=    0
 Symmetry not used in FoFCou.
          Solving linear equations separately, MaxMat=       0.
          There are     1 degrees of freedom in the 1st order CPHF.  IDoFFX=0 NUNeed=     1.
 LinEq1:  Iter=  0 NonCon=     1 RMS=3.24D-03 Max=5.16D-02 NDo=     1
 AX will form     1 AO Fock derivatives at one time.
 LinEq1:  Iter=  1 NonCon=     1 RMS=1.80D-03 Max=2.22D-02 NDo=     1
 LinEq1:  Iter=  2 NonCon=     1 RMS=5.61D-04 Max=5.57D-03 NDo=     1
 LinEq1:  Iter=  3 NonCon=     1 RMS=2.26D-04 Max=2.88D-03 NDo=     1
 LinEq1:  Iter=  4 NonCon=     1 RMS=4.97D-05 Max=6.94D-04 NDo=     1
 LinEq1:  Iter=  5 NonCon=     1 RMS=2.87D-05 Max=4.20D-04 NDo=     1
 LinEq1:  Iter=  6 NonCon=     1 RMS=7.15D-06 Max=5.18D-05 NDo=     1
 LinEq1:  Iter=  7 NonCon=     1 RMS=3.16D-06 Max=4.01D-05 NDo=     1
 LinEq1:  Iter=  8 NonCon=     1 RMS=5.65D-07 Max=5.30D-06 NDo=     1
 LinEq1:  Iter=  9 NonCon=     1 RMS=8.49D-08 Max=5.89D-07 NDo=     1
 LinEq1:  Iter= 10 NonCon=     1 RMS=1.21D-08 Max=8.97D-08 NDo=     1
 LinEq1:  Iter= 11 NonCon=     1 RMS=1.95D-09 Max=1.80D-08 NDo=     1
 LinEq1:  Iter= 12 NonCon=     1 RMS=3.94D-10 Max=3.04D-09 NDo=     1
 LinEq1:  Iter= 13 NonCon=     0 RMS=7.83D-11 Max=5.72D-10 NDo=     1
 Linear equations converged to 1.000D-10 1.000D-09 after    13 iterations.
 End of Minotr F.D. properties file   721 does not exist.
 End of Minotr F.D. properties file   722 does not exist.
 End of Minotr F.D. properties file   788 does not exist.
 Leave Link 1002 at Wed Aug 19 17:46:09 2020, MaxMem=    65536000 cpu:        11.1
 (Enter /opt/cluster/programs/g09/g09_d.01/g09/l701.exe)
 Compute integral first derivatives.
 ... and contract with generalized density number  2.
 R6Disp: Adding Grimme-D3(BJ) dispersion energy 1st derivatives to the gradient.
 Leave Link  701 at Wed Aug 19 17:46:09 2020, MaxMem=    65536000 cpu:         0.9
 (Enter /opt/cluster/programs/g09/g09_d.01/g09/l702.exe)
 L702 exits ... SP integral derivatives will be done elsewhere.
 Leave Link  702 at Wed Aug 19 17:46:09 2020, MaxMem=    65536000 cpu:         0.1
 (Enter /opt/cluster/programs/g09/g09_d.01/g09/l703.exe)
 Compute integral first derivatives, UseDBF=F ICtDFT=           0.
 Integral derivatives from FoFJK, PRISM(SPDF).
 Calling FoFJK, ICntrl=  10002127 FMM=F ISym2X=0 I1Cent= 0 IOpClX= 0 NMat=1 NMatS=1 NMatT=0.
 FoFJK:  IHMeth= 1 ICntrl=10002127 DoSepK=F KAlg= 0 I1Cent=   0 FoldK=F
 IRaf=         0 NMat=   1 IRICut=       1 DoRegI=T DoRafI=F ISym2E= 0.
 FoFCou: FMM=F IPFlag=           0 FMFlag=      100000 FMFlg1=         800
         NFxFlg=           0 DoJE=F BraDBF=F KetDBF=F FulRan=T
         wScrn=  0.000000 ICntrl=10002127 IOpCl=  0 I1Cent=           0 NGrid=           0
         NMat0=    1 NMatS0=      1 NMatT0=    0 NMatD0=    1 NMtDS0=    0 NMtDT0=    0
 Symmetry not used in FoFCou.
 Leave Link  703 at Wed Aug 19 17:46:09 2020, MaxMem=    65536000 cpu:         3.0
 (Enter /opt/cluster/programs/g09/g09_d.01/g09/l716.exe)
 Dipole        = 1.20430441D+00 2.38793844D-01-7.94792657D-06
 ***** Axes restored to original set *****
 -------------------------------------------------------------------
 Center     Atomic                   Forces (Hartrees/Bohr)
 Number     Number              X              Y              Z
 -------------------------------------------------------------------
      1        6           0.002739656    0.000457204   -0.000480142
      2        8          -0.002396466   -0.001646620    0.000609955
      3        6          -0.000313718    0.001129205   -0.000128010
      4        6           0.001642604   -0.000456998   -0.000166665
      5        1           0.000293492   -0.000815451    0.000085209
      6        1          -0.000285168    0.000706091   -0.000069139
      7        1          -0.000216648    0.000470608   -0.000043073
      8        1          -0.001463753    0.000155961    0.000191865
 -------------------------------------------------------------------
 Cartesian Forces:  Max     0.002739656 RMS     0.001018852
 Leave Link  716 at Wed Aug 19 17:46:09 2020, MaxMem=    65536000 cpu:         0.1
 (Enter /opt/cluster/programs/g09/g09_d.01/g09/l103.exe)

 GradGradGradGradGradGradGradGradGradGradGradGradGradGradGradGradGradGrad
 Berny optimization.
 Using GEDIIS/GDIIS optimizer.
 FormGI is forming the generalized inverse of G from B-inverse, IUseBI=4.
 Internal  Forces:  Max     0.002932011 RMS     0.000952790
 Search for a local minimum.
 Step number   2 out of a maximum of   34
 All quantities printed in internal units (Hartrees-Bohrs-Radians)
 RMS Force = .95279D-03 SwitMx=.10000D-02 MixMth= 2
 Mixed Optimization -- En-DIIS/RFO-DIIS
 Update second derivatives using D2CorX and points    1    2
 DE= -5.40D-04 DEPred=-5.37D-04 R= 1.01D+00
 TightC=F SS=  1.41D+00  RLast= 7.09D-02 DXNew= 5.0454D-01 2.1279D-01
 Trust test= 1.01D+00 RLast= 7.09D-02 DXMaxT set to 3.00D-01
 ITU=  1  0
 Use linear search instead of GDIIS.
     Eigenvalues ---    0.01083   0.01083   0.02057   0.02918   0.02918
     Eigenvalues ---    0.14209   0.16000   0.16000   0.16264   0.20728
     Eigenvalues ---    0.25584   0.33059   0.34887   0.35218   0.35451
     Eigenvalues ---    0.36022   0.58758   0.91826
 RFO step:  Lambda=-6.32354898D-05 EMin= 1.08256746D-02
 Quartic linear search produced a step of  0.01701.
 Iteration  1 RMS(Cart)=  0.00949431 RMS(Int)=  0.00003452
 Iteration  2 RMS(Cart)=  0.00003697 RMS(Int)=  0.00000002
 Iteration  3 RMS(Cart)=  0.00000000 RMS(Int)=  0.00000002
 ITry= 1 IFail=0 DXMaxC= 2.06D-02 DCOld= 1.00D+10 DXMaxT= 3.00D-01 DXLimC= 3.00D+00 Rises=F
 Variable       Old X    -DE/DX   Delta X   Delta X   Delta X     New X
                                 (Linear)    (Quad)   (Total)
    R1        2.30854  -0.00293  -0.00009  -0.00341  -0.00350   2.30504
    R2        2.78554  -0.00122  -0.00007  -0.00369  -0.00375   2.78178
    R3        2.09206   0.00131   0.00014   0.00435   0.00449   2.09656
    R4        2.53112  -0.00136   0.00007  -0.00222  -0.00215   2.52897
    R5        2.04683   0.00070  -0.00002   0.00197   0.00195   2.04878
    R6        2.04822   0.00064  -0.00005   0.00172   0.00167   2.04989
    R7        2.04599  -0.00044  -0.00011  -0.00153  -0.00164   2.04435
    A1        2.16358  -0.00025   0.00079   0.00082   0.00161   2.16519
    A2        2.11140   0.00085  -0.00039   0.00423   0.00384   2.11524
    A3        2.00820  -0.00061  -0.00040  -0.00505  -0.00544   2.00276
    A4        2.11888  -0.00170   0.00017  -0.00740  -0.00722   2.11165
    A5        2.02768   0.00137  -0.00011   0.00697   0.00686   2.03454
    A6        2.13662   0.00032  -0.00006   0.00042   0.00036   2.13699
    A7        2.11598  -0.00076  -0.00040  -0.00581  -0.00621   2.10977
    A8        2.12747   0.00067   0.00050   0.00551   0.00601   2.13348
    A9        2.03974   0.00009  -0.00010   0.00030   0.00020   2.03994
    D1       -3.14157   0.00000   0.00000  -0.00027  -0.00027   3.14134
    D2        0.00003   0.00000   0.00000  -0.00029  -0.00029  -0.00026
    D3       -0.00006   0.00000   0.00000   0.00031   0.00031   0.00025
    D4        3.14154   0.00000   0.00000   0.00029   0.00029  -3.14135
    D5        0.00001   0.00000   0.00000  -0.00001  -0.00001   0.00000
    D6       -3.14158   0.00000   0.00000  -0.00003  -0.00003   3.14158
    D7        3.14159   0.00000   0.00000   0.00001   0.00001  -3.14159
    D8        0.00001   0.00000   0.00000  -0.00001  -0.00001  -0.00001
         Item               Value     Threshold  Converged?
 Maximum Force            0.002932     0.000450     NO 
 RMS     Force            0.000953     0.000300     NO 
 Maximum Displacement     0.020575     0.001800     NO 
 RMS     Displacement     0.009505     0.001200     NO 
 Predicted change in Energy=-3.175548D-05
 Lowest energy point so far.  Saving SCF results.
 GradGradGradGradGradGradGradGradGradGradGradGradGradGradGradGradGradGrad

 Leave Link  103 at Wed Aug 19 17:46:09 2020, MaxMem=    65536000 cpu:         0.1
 (Enter /opt/cluster/programs/g09/g09_d.01/g09/l202.exe)
                          Input orientation:                          
 ---------------------------------------------------------------------
 Center     Atomic      Atomic             Coordinates (Angstroms)
 Number     Number       Type             X           Y           Z
 ---------------------------------------------------------------------
      1          6           0       -5.002105   -1.379605    0.892680
      2          8           0       -3.921329   -0.866369    0.655269
      3          6           0       -5.194289   -2.816900    1.146043
      4          6           0       -6.409924   -3.315119    1.400970
      5          1           0       -4.306182   -3.437932    1.114274
      6          1           0       -7.281776   -2.670213    1.426627
      7          1           0       -6.574297   -4.367554    1.589916
      8          1           0       -5.930019   -0.772768    0.932712
 ---------------------------------------------------------------------
                    Distance matrix (angstroms):
                    1          2          3          4          5
     1  C    0.000000
     2  O    1.219775   0.000000
     3  C    1.472055   2.380307   0.000000
     4  C    2.446739   3.570092   1.338274   0.000000
     5  H    2.184061   2.640404   1.084170   2.126737   0.000000
     6  H    2.673513   3.891202   2.111362   1.084753   3.088870
     7  H    3.447574   4.491113   2.122727   1.081821   2.496954
     8  H    1.109449   2.029919   2.182953   2.629282   3.126165
                    6          7          8
     6  H    0.000000
     7  H    1.846119   0.000000
     8  H    2.381490   3.710727   0.000000
 Stoichiometry    C3H4O
 Framework group  C1[X(C3H4O)]
 Deg. of freedom    18
 Full point group                 C1      NOp   1
 RotChk:  IX=2 Diff= 2.54D-03
 Largest Abelian subgroup         C1      NOp   1
 Largest concise Abelian subgroup C1      NOp   1
                         Standard orientation:                         
 ---------------------------------------------------------------------
 Center     Atomic      Atomic             Coordinates (Angstroms)
 Number     Number       Type             X           Y           Z
 ---------------------------------------------------------------------
      1          6           0       -0.673641    0.353088    0.000124
      2          8           0       -1.796678   -0.122979   -0.000066
      3          6           0        0.561330   -0.448032    0.000032
      4          6           0        1.763755    0.139465   -0.000034
      5          1           0        0.440468   -1.525444    0.000030
      6          1           0        1.855298    1.220349   -0.000026
      7          1           0        2.683975   -0.429333   -0.000087
      8          1           0       -0.514983    1.451134   -0.000119
 ---------------------------------------------------------------------
 Rotational constants (GHZ):     48.0185719      4.6351124      4.2270827
 Leave Link  202 at Wed Aug 19 17:46:09 2020, MaxMem=    65536000 cpu:         0.0
 (Enter /opt/cluster/programs/g09/g09_d.01/g09/l301.exe)
 Standard basis: 6-31G(d,p) (6D, 7F)
 Ernie: Thresh=  0.10000D-02 Tol=  0.10000D-05 Strict=F.
 There are    80 symmetry adapted cartesian basis functions of A   symmetry.
 There are    80 symmetry adapted basis functions of A   symmetry.
    80 basis functions,   140 primitive gaussians,    80 cartesian basis functions
    15 alpha electrons       15 beta electrons
       nuclear repulsion energy       102.8647711608 Hartrees.
 IExCor=  419 DFT=T Ex+Corr=B2PLYPD3 ExCW=0 ScaHFX=  0.530000
 ScaDFX=  0.470000  0.470000  0.730000  0.730000 ScalE2=  0.270000  0.270000
 IRadAn=      0 IRanWt=     -1 IRanGd=            0 ICorTp=0 IEmpDi=141
 NAtoms=    8 NActive=    8 NUniq=    8 SFac= 1.00D+00 NAtFMM=   60 NAOKFM=F Big=F
 Integral buffers will be    131072 words long.
 Regular integral format.
 Two-electron integral symmetry is turned on.
 R6Disp:  Grimme-D3(BJ) Dispersion energy=       -0.0035794483 Hartrees.
 Nuclear repulsion after empirical dispersion term =      102.8611917125 Hartrees.
 Leave Link  301 at Wed Aug 19 17:46:09 2020, MaxMem=    65536000 cpu:         0.4
 (Enter /opt/cluster/programs/g09/g09_d.01/g09/l302.exe)
 NPDir=0 NMtPBC=     1 NCelOv=     1 NCel=       1 NClECP=     1 NCelD=      1
         NCelK=      1 NCelE2=     1 NClLst=     1 CellRange=     0.0.
 One-electron integrals computed using PRISM.
 NBasis=    80 RedAO= T EigKep=  3.89D-03  NBF=    80
 NBsUse=    80 1.00D-06 EigRej= -1.00D+00 NBFU=    80
 Precomputing XC quadrature grid using
 IXCGrd= 4 IRadAn=           0 IRanWt=          -1 IRanGd=           0 AccXCQ= 0.00D+00.
 Generated NRdTot=       0 NPtTot=           0 NUsed=           0 NTot=          32
 NSgBfM=    80    80    80    80    80 MxSgAt=     8 MxSgA2=     8.
 Leave Link  302 at Wed Aug 19 17:46:09 2020, MaxMem=    65536000 cpu:         0.9
 (Enter /opt/cluster/programs/g09/g09_d.01/g09/l303.exe)
 DipDrv:  MaxL=1.
 Leave Link  303 at Wed Aug 19 17:46:10 2020, MaxMem=    65536000 cpu:         0.1
 (Enter /opt/cluster/programs/g09/g09_d.01/g09/l401.exe)
 Initial guess from the checkpoint file:  "acrolein_opt.chk"
 B after Tr=     0.000000    0.000000    0.000000
         Rot=    1.000000    0.000000    0.000000   -0.000130 Ang=  -0.01 deg.
 Guess basis will be translated and rotated to current coordinates.
 JPrj=2 DoOrth=T DoCkMO=T.
 Generating alternative initial guess.
 ExpMin= 1.61D-01 ExpMax= 5.48D+03 ExpMxC= 8.25D+02 IAcc=1 IRadAn=         1 AccDes= 0.00D+00
 Harris functional with IExCor=  419 and IRadAn=       1 diagonalized for initial guess.
 HarFok:  IExCor=  419 AccDes= 0.00D+00 IRadAn=         1 IDoV= 1 UseB2=F ITyADJ=14
 ICtDFT=  3500011 ScaDFX=  1.000000  1.000000  1.000000  1.000000
 FoFCou: FMM=F IPFlag=           0 FMFlag=      100000 FMFlg1=           0
         NFxFlg=           0 DoJE=T BraDBF=F KetDBF=T FulRan=T
         wScrn=  0.000000 ICntrl=     500 IOpCl=  0 I1Cent=   200000004 NGrid=           0
         NMat0=    1 NMatS0=      1 NMatT0=    0 NMatD0=    1 NMtDS0=    0 NMtDT0=    0
 Petite list used in FoFCou.
 Harris En= -191.945616887785    
 Leave Link  401 at Wed Aug 19 17:46:10 2020, MaxMem=    65536000 cpu:         1.4
 (Enter /opt/cluster/programs/g09/g09_d.01/g09/l502.exe)
 Closed shell SCF:
 Using DIIS extrapolation, IDIIS=  1040.
 Integral symmetry usage will be decided dynamically.
 Keep R1 ints in memory in canonical form, NReq=6191600.
 IVT=       38994 IEndB=       38994 NGot=    65536000 MDV=    60246587
 LenX=    60246587 LenY=    60239746
 Requested convergence on RMS density matrix=1.00D-08 within 128 cycles.
 Requested convergence on MAX density matrix=1.00D-06.
 Requested convergence on             energy=1.00D-06.
 No special actions if energy rises.
 FoFCou: FMM=F IPFlag=           0 FMFlag=           0 FMFlg1=           0
         NFxFlg=           0 DoJE=F BraDBF=F KetDBF=F FulRan=T
         wScrn=  0.000000 ICntrl=     600 IOpCl=  0 I1Cent=           0 NGrid=           0
         NMat0=    1 NMatS0=   3240 NMatT0=    0 NMatD0=    1 NMtDS0=    0 NMtDT0=    0
 Symmetry not used in FoFCou.
 Integral accuracy reduced to 1.0D-05 until final iterations.

 Cycle   1  Pass 0  IDiag  1:
 E= -191.531871019310    
 DIIS: error= 5.67D-04 at cycle   1 NSaved=   1.
 NSaved= 1 IEnMin= 1 EnMin= -191.531871019310     IErMin= 1 ErrMin= 5.67D-04
 ErrMax= 5.67D-04  0.00D+00 EMaxC= 1.00D-01 BMatC= 2.86D-05 BMatP= 2.86D-05
 IDIUse=3 WtCom= 9.94D-01 WtEn= 5.67D-03
 Coeff-Com:  0.100D+01
 Coeff-En:   0.100D+01
 Coeff:      0.100D+01
 Gap=     2.480 Goal=   None    Shift=    0.000
 RMSDP=8.47D-05 MaxDP=1.07D-03              OVMax= 1.52D-03

 Cycle   2  Pass 0  IDiag  1:
 E= -191.531912084426     Delta-E=       -0.000041065117 Rises=F Damp=F
 DIIS: error= 9.05D-05 at cycle   2 NSaved=   2.
 NSaved= 2 IEnMin= 2 EnMin= -191.531912084426     IErMin= 2 ErrMin= 9.05D-05
 ErrMax= 9.05D-05  0.00D+00 EMaxC= 1.00D-01 BMatC= 1.06D-06 BMatP= 2.86D-05
 IDIUse=1 WtCom= 1.00D+00 WtEn= 0.00D+00
 Coeff-Com: -0.134D+00 0.113D+01
 Coeff:     -0.134D+00 0.113D+01
 Gap=     0.325 Goal=   None    Shift=    0.000
 RMSDP=2.35D-05 MaxDP=2.76D-04 DE=-4.11D-05 OVMax= 4.21D-04

 Cycle   3  Pass 0  IDiag  1:
 E= -191.531913434985     Delta-E=       -0.000001350559 Rises=F Damp=F
 DIIS: error= 9.03D-05 at cycle   3 NSaved=   3.
 NSaved= 3 IEnMin= 3 EnMin= -191.531913434985     IErMin= 3 ErrMin= 9.03D-05
 ErrMax= 9.03D-05  0.00D+00 EMaxC= 1.00D-01 BMatC= 4.95D-07 BMatP= 1.06D-06
 IDIUse=1 WtCom= 1.00D+00 WtEn= 0.00D+00
 Coeff-Com: -0.838D-01 0.527D+00 0.557D+00
 Coeff:     -0.838D-01 0.527D+00 0.557D+00
 Gap=     0.325 Goal=   None    Shift=    0.000
 RMSDP=8.04D-06 MaxDP=2.12D-04 DE=-1.35D-06 OVMax= 2.51D-04

 Initial convergence to 1.0D-05 achieved.  Increase integral accuracy.
 Cycle   4  Pass 1  IDiag  1:
 E= -191.531912353924     Delta-E=        0.000001081061 Rises=F Damp=F
 DIIS: error= 2.76D-05 at cycle   1 NSaved=   1.
 NSaved= 1 IEnMin= 1 EnMin= -191.531912353924     IErMin= 1 ErrMin= 2.76D-05
 ErrMax= 2.76D-05  0.00D+00 EMaxC= 1.00D-01 BMatC= 4.89D-08 BMatP= 4.89D-08
 IDIUse=1 WtCom= 1.00D+00 WtEn= 0.00D+00
 Coeff-Com:  0.100D+01
 Coeff:      0.100D+01
 Gap=     0.325 Goal=   None    Shift=    0.000
 RMSDP=8.04D-06 MaxDP=2.12D-04 DE= 1.08D-06 OVMax= 1.56D-04

 Cycle   5  Pass 1  IDiag  1:
 E= -191.531912322091     Delta-E=        0.000000031833 Rises=F Damp=F
 DIIS: error= 4.38D-05 at cycle   2 NSaved=   2.
 NSaved= 2 IEnMin= 1 EnMin= -191.531912353924     IErMin= 1 ErrMin= 2.76D-05
 ErrMax= 4.38D-05  0.00D+00 EMaxC= 1.00D-01 BMatC= 9.57D-08 BMatP= 4.89D-08
 IDIUse=1 WtCom= 1.00D+00 WtEn= 0.00D+00
 Coeff-Com:  0.585D+00 0.415D+00
 Coeff:      0.585D+00 0.415D+00
 Gap=     0.325 Goal=   None    Shift=    0.000
 RMSDP=3.00D-06 MaxDP=7.22D-05 DE= 3.18D-08 OVMax= 9.65D-05

 Cycle   6  Pass 1  IDiag  1:
 E= -191.531912395428     Delta-E=       -0.000000073337 Rises=F Damp=F
 DIIS: error= 1.70D-06 at cycle   3 NSaved=   3.
 NSaved= 3 IEnMin= 3 EnMin= -191.531912395428     IErMin= 3 ErrMin= 1.70D-06
 ErrMax= 1.70D-06  0.00D+00 EMaxC= 1.00D-01 BMatC= 2.52D-10 BMatP= 4.89D-08
 IDIUse=1 WtCom= 1.00D+00 WtEn= 0.00D+00
 Coeff-Com:  0.342D-02 0.351D-01 0.962D+00
 Coeff:      0.342D-02 0.351D-01 0.962D+00
 Gap=     0.325 Goal=   None    Shift=    0.000
 RMSDP=4.38D-07 MaxDP=6.62D-06 DE=-7.33D-08 OVMax= 7.62D-06

 Cycle   7  Pass 1  IDiag  1:
 E= -191.531912395739     Delta-E=       -0.000000000311 Rises=F Damp=F
 DIIS: error= 6.61D-07 at cycle   4 NSaved=   4.
 NSaved= 4 IEnMin= 4 EnMin= -191.531912395739     IErMin= 4 ErrMin= 6.61D-07
 ErrMax= 6.61D-07  0.00D+00 EMaxC= 1.00D-01 BMatC= 4.37D-11 BMatP= 2.52D-10
 IDIUse=1 WtCom= 1.00D+00 WtEn= 0.00D+00
 Coeff-Com: -0.578D-01-0.240D-01 0.271D+00 0.811D+00
 Coeff:     -0.578D-01-0.240D-01 0.271D+00 0.811D+00
 Gap=     0.325 Goal=   None    Shift=    0.000
 RMSDP=1.58D-07 MaxDP=2.52D-06 DE=-3.11D-10 OVMax= 2.47D-06

 Cycle   8  Pass 1  IDiag  1:
 E= -191.531912395793     Delta-E=       -0.000000000054 Rises=F Damp=F
 DIIS: error= 2.15D-07 at cycle   5 NSaved=   5.
 NSaved= 5 IEnMin= 5 EnMin= -191.531912395793     IErMin= 5 ErrMin= 2.15D-07
 ErrMax= 2.15D-07  0.00D+00 EMaxC= 1.00D-01 BMatC= 2.35D-12 BMatP= 4.37D-11
 IDIUse=1 WtCom= 1.00D+00 WtEn= 0.00D+00
 Coeff-Com: -0.125D-01-0.433D-02 0.218D-01 0.170D+00 0.825D+00
 Coeff:     -0.125D-01-0.433D-02 0.218D-01 0.170D+00 0.825D+00
 Gap=     0.325 Goal=   None    Shift=    0.000
 RMSDP=3.46D-08 MaxDP=6.66D-07 DE=-5.44D-11 OVMax= 1.55D-06

 Cycle   9  Pass 1  IDiag  1:
 E= -191.531912395796     Delta-E=       -0.000000000003 Rises=F Damp=F
 DIIS: error= 9.25D-08 at cycle   6 NSaved=   6.
 NSaved= 6 IEnMin= 6 EnMin= -191.531912395796     IErMin= 6 ErrMin= 9.25D-08
 ErrMax= 9.25D-08  0.00D+00 EMaxC= 1.00D-01 BMatC= 9.98D-13 BMatP= 2.35D-12
 IDIUse=1 WtCom= 1.00D+00 WtEn= 0.00D+00
 Coeff-Com:  0.499D-02 0.313D-02-0.431D-01-0.814D-01 0.398D+00 0.719D+00
 Coeff:      0.499D-02 0.313D-02-0.431D-01-0.814D-01 0.398D+00 0.719D+00
 Gap=     0.325 Goal=   None    Shift=    0.000
 RMSDP=2.21D-08 MaxDP=3.67D-07 DE=-3.18D-12 OVMax= 5.69D-07

 Cycle  10  Pass 1  IDiag  1:
 E= -191.531912395798     Delta-E=       -0.000000000002 Rises=F Damp=F
 DIIS: error= 2.57D-08 at cycle   7 NSaved=   7.
 NSaved= 7 IEnMin= 7 EnMin= -191.531912395798     IErMin= 7 ErrMin= 2.57D-08
 ErrMax= 2.57D-08  0.00D+00 EMaxC= 1.00D-01 BMatC= 3.97D-14 BMatP= 9.98D-13
 IDIUse=1 WtCom= 1.00D+00 WtEn= 0.00D+00
 Coeff-Com:  0.198D-02 0.119D-02-0.626D-02-0.296D-01-0.509D-01 0.540D-01
 Coeff-Com:  0.103D+01
 Coeff:      0.198D-02 0.119D-02-0.626D-02-0.296D-01-0.509D-01 0.540D-01
 Coeff:      0.103D+01
 Gap=     0.325 Goal=   None    Shift=    0.000
 RMSDP=7.25D-09 MaxDP=9.42D-08 DE=-1.59D-12 OVMax= 3.29D-07

 SCF Done:  E(RB2PLYPD3) =  -191.531912396     A.U. after   10 cycles
            NFock= 10  Conv=0.73D-08     -V/T= 2.0068
 KE= 1.902296910822D+02 PE=-6.530317780319D+02 EE= 1.684089828414D+02
 Leave Link  502 at Wed Aug 19 17:46:10 2020, MaxMem=    65536000 cpu:         5.7
 (Enter /opt/cluster/programs/g09/g09_d.01/g09/l801.exe)
 DoSCS=T DFT=T ScalE2(SS,OS)=  0.270000  0.270000
 ExpMin= 1.61D-01 ExpMax= 5.48D+03 ExpMxC= 8.25D+02 IAcc=3 IRadAn=         5 AccDes= 0.00D+00
 HarFok:  IExCor=  205 AccDes= 0.00D+00 IRadAn=         5 IDoV=-2 UseB2=F ITyADJ=14
 ICtDFT= 12500011 ScaDFX=  1.000000  1.000000  1.000000  1.000000
 Largest valence mixing into a core orbital is  1.10D-04
 Largest core mixing into a valence orbital is  2.01D-05
 Range of M.O.s used for correlation:     5    80
 NBasis=    80 NAE=    15 NBE=    15 NFC=     4 NFV=     0
 NROrb=     76 NOA=    11 NOB=    11 NVA=    65 NVB=    65
 Leave Link  801 at Wed Aug 19 17:46:11 2020, MaxMem=    65536000 cpu:         0.4
 (Enter /opt/cluster/programs/g09/g09_d.01/g09/l906.exe)
 DoSCS=T DFT=T ScalE2(SS,OS)=  0.270000  0.270000
 Frozen-core derivative calculation, NFC=   4 NFV=   0.
 FulOut=F Deriv=T AODrv=T NAtomX=     8
   MMem=         244  MDisk=          11 MDiskD=          11
  W3Min=       96000 MinDsk=      201640 NBas6D=          80
 NBas2D=        3360    NTT=        3240    LW2=     2040000
    MDV=    65451358 MDiskM=       11015 NBas2p=        3334
 Fully direct method using O(ONN) memory.
[...]
     12  0.242922D-02  0.849372D-01  0.391193D-01 -0.649974D-01 -0.110038D+00
     13 -0.640645D-03 -0.249721D+00  0.138273D+00  0.888327D-02 -0.176865D-01
     14 -0.617309D-03  0.139638D+00 -0.157179D+00 -0.187347D-02 -0.140809D-01
     15 -0.166673D-02  0.866940D-02 -0.167512D-02 -0.405866D-01  0.540888D-02
     16  0.193411D-03 -0.210630D-01  0.198241D-01  0.643289D-03 -0.239861D+00
     17  0.277801D-05 -0.925332D-02  0.123236D-01  0.155255D-03  0.139470D+00
     18  0.158559D-02  0.520153D-02 -0.407345D-02  0.461188D-02  0.755851D-02
     19  0.297066D-04  0.948371D-03 -0.318765D-01  0.609833D-02 -0.646429D-01
     20 -0.429529D-03  0.219168D-02 -0.527050D-02  0.184325D-02 -0.419143D-01
     21 -0.338142D-02  0.757711D-03  0.679777D-02  0.734522D-02  0.102658D-01
     22  0.948814D-02  0.216895D-02 -0.267975D-02  0.246615D-02  0.982363D-03
     23  0.132884D-02  0.269692D-01 -0.161464D-01  0.115440D-02  0.181278D-02
     24  0.170674D-01 -0.218174D-02  0.546641D-02  0.156985D-01 -0.611755D-03
               11            12            13            14            15 
     11  0.689278D+00
     12 -0.991316D-01  0.147318D+00
     13  0.184091D-01  0.315655D-03  0.263451D+00
     14  0.118372D-01  0.870573D-03 -0.148802D+00  0.159184D+00
     15 -0.385439D-02  0.414550D-02 -0.110619D-01  0.916766D-03  0.284535D-01
     16  0.136431D+00  0.803490D-02 -0.278800D-02 -0.266101D-02  0.256061D-02
     17 -0.166451D+00 -0.751356D-04 -0.197805D-02 -0.446100D-03  0.223107D-02
     18  0.366876D-03 -0.387020D-01  0.245356D-02  0.233040D-02  0.112289D-01
     19 -0.380063D-01  0.965316D-02  0.100333D-02  0.258312D-03 -0.124610D-02
     20 -0.341550D+00  0.534870D-01 -0.300892D-03  0.784674D-03 -0.122152D-02
     21  0.529185D-01 -0.490213D-01 -0.115845D-02 -0.130287D-02 -0.691405D-02
     22 -0.105276D-03 -0.311120D-03  0.161238D-03 -0.585172D-03  0.456617D-03
     23  0.416547D-03 -0.528060D-03 -0.116333D-02 -0.514022D-02  0.139358D-02
     24 -0.249145D-03 -0.114236D-02  0.547245D-03  0.130950D-02  0.238544D-02
               16            17            18            19            20 
     16  0.255687D+00
     17 -0.149690D+00  0.165899D+00
     18 -0.101322D-01 -0.372443D-03  0.261891D-01
     19  0.656955D-02  0.232818D-01 -0.409232D-02  0.610061D-01
     20 -0.512916D-02 -0.116140D-01  0.311926D-02  0.466300D-01  0.356501D+00
     21  0.361423D-03 -0.101243D-02  0.363197D-02 -0.126928D-01 -0.589058D-01
     22  0.505474D-03  0.881996D-03 -0.152700D-03  0.576885D-03  0.139900D-03
     23 -0.154446D-02  0.162150D-03  0.262857D-03 -0.672634D-03  0.393171D-03
     24  0.227664D-03 -0.900116D-04  0.387216D-03 -0.141161D-03 -0.257353D-03
               21            22            23            24 
     21  0.350709D-01
     22 -0.268517D-03  0.231519D+00
     23 -0.139186D-03 -0.110764D+00  0.143847D+00
     24 -0.105787D-02 -0.129415D-01 -0.281399D-02  0.254604D-01
 FormGI is forming the generalized inverse of G from B-inverse, IUseBI=4.
 Force constants in internal coordinates: 
                1             2             3             4             5 
      1  0.828891D+00
      2  0.582657D-01  0.319102D+00
      3  0.364331D-01  0.733076D-02  0.306992D+00
      4 -0.863015D-02  0.244548D-01  0.194886D-02  0.618480D+00
      5  0.162662D-02  0.195238D-02  0.669724D-03  0.372107D-02  0.369250D+00
      6  0.480543D-03 -0.120239D-02  0.616364D-03  0.664575D-02 -0.182266D-03
      7  0.593974D-03 -0.405145D-03  0.694527D-04  0.415923D-02  0.533387D-03
      8  0.249578D-01  0.101269D-01 -0.137590D-01  0.101351D-01 -0.535124D-02
      9  0.166994D-01 -0.215295D-01  0.147932D-02 -0.363536D-02  0.647004D-03
     10 -0.416571D-01  0.114026D-01  0.122796D-01 -0.649974D-02  0.470423D-02
     11  0.523203D-02  0.169900D-01 -0.180775D-02  0.157246D-01 -0.116082D-01
     12 -0.324104D-02  0.331162D-02  0.328229D-02 -0.244000D-01  0.716551D-02
     13 -0.199099D-02 -0.203016D-01 -0.147454D-02  0.867534D-02  0.444268D-02
     14 -0.327203D-02 -0.253860D-02  0.119238D-02  0.958725D-02  0.284026D-02
     15  0.342361D-02  0.268777D-02  0.284879D-03  0.110865D-01 -0.224828D-02
     16 -0.151579D-03 -0.149174D-03 -0.147726D-02 -0.206737D-01 -0.591973D-03
     17  0.000000D+00  0.000000D+00  0.000000D+00  0.000000D+00  0.000000D+00
     18  0.000000D+00  0.000000D+00  0.000000D+00  0.000000D+00  0.000000D+00
     19  0.000000D+00  0.000000D+00  0.000000D+00  0.000000D+00  0.000000D+00
     20  0.000000D+00  0.000000D+00  0.000000D+00  0.000000D+00  0.000000D+00
     21  0.000000D+00  0.000000D+00  0.000000D+00  0.000000D+00  0.000000D+00
     22  0.000000D+00  0.000000D+00  0.000000D+00  0.000000D+00  0.000000D+00
     23  0.000000D+00  0.000000D+00  0.000000D+00  0.000000D+00  0.000000D+00
     24  0.000000D+00  0.000000D+00  0.000000D+00  0.000000D+00  0.000000D+00
                6             7             8             9            10 
      6  0.367259D+00
      7  0.120225D-02  0.374347D+00
      8 -0.371117D-03  0.156799D-02  0.144174D+00
      9 -0.109230D-02 -0.353210D-03 -0.814373D-01  0.123125D+00
     10  0.146341D-02 -0.121478D-02 -0.627365D-01 -0.416879D-01  0.104424D+00
     11 -0.431058D-02  0.381642D-02  0.246039D-01 -0.704358D-02 -0.175603D-01
     12 -0.155842D-03 -0.984784D-03 -0.237217D-01  0.427965D-02  0.194420D-01
     13  0.446642D-02 -0.283163D-02 -0.882221D-03  0.276394D-02 -0.188172D-02
     14  0.650703D-02 -0.109313D-01  0.162611D-03 -0.779444D-04 -0.846666D-04
     15 -0.123792D-01  0.422359D-02  0.287055D-02 -0.175010D-02 -0.112045D-02
     16  0.587220D-02  0.670773D-02 -0.303316D-02  0.182804D-02  0.120512D-02
     17  0.000000D+00  0.000000D+00  0.000000D+00  0.000000D+00  0.000000D+00
     18  0.000000D+00  0.000000D+00  0.000000D+00  0.000000D+00  0.000000D+00
     19  0.000000D+00  0.000000D+00  0.000000D+00  0.000000D+00  0.000000D+00
     20  0.000000D+00  0.000000D+00  0.000000D+00  0.000000D+00  0.000000D+00
     21  0.000000D+00  0.000000D+00  0.000000D+00  0.000000D+00  0.000000D+00
     22  0.000000D+00  0.000000D+00  0.000000D+00  0.000000D+00  0.000000D+00
     23  0.000000D+00  0.000000D+00  0.000000D+00  0.000000D+00  0.000000D+00
     24  0.000000D+00  0.000000D+00  0.000000D+00  0.000000D+00  0.000000D+00
               11            12            13            14            15 
     11  0.110566D+00
     12 -0.529388D-01  0.828301D-01
     13 -0.576275D-01 -0.298912D-01  0.875187D-01
     14 -0.901542D-02 -0.193297D-02  0.109484D-01  0.831716D-01
     15  0.113321D-01 -0.150227D-02 -0.982983D-02 -0.445903D-01  0.804874D-01
     16 -0.231668D-02  0.343524D-02 -0.111856D-02 -0.385813D-01 -0.358970D-01
     17  0.000000D+00  0.000000D+00  0.000000D+00  0.000000D+00  0.000000D+00
     18  0.000000D+00  0.000000D+00  0.000000D+00  0.000000D+00  0.000000D+00
     19  0.000000D+00  0.000000D+00  0.000000D+00  0.000000D+00  0.000000D+00
     20  0.000000D+00  0.000000D+00  0.000000D+00  0.000000D+00  0.000000D+00
     21  0.000000D+00  0.000000D+00  0.000000D+00  0.000000D+00  0.000000D+00
     22  0.000000D+00  0.000000D+00  0.000000D+00  0.000000D+00  0.000000D+00
     23  0.000000D+00  0.000000D+00  0.000000D+00  0.000000D+00  0.000000D+00
     24  0.000000D+00  0.000000D+00  0.000000D+00  0.000000D+00  0.000000D+00
               16            17            18            19            20 
     16  0.744783D-01
     17  0.000000D+00  0.210015D-01
     18  0.000000D+00  0.178485D-01  0.249617D-01
     19  0.000000D+00 -0.152059D-01 -0.206949D-01  0.239596D-01
     20  0.000000D+00 -0.183590D-01 -0.135818D-01  0.184706D-01  0.232478D-01
     21  0.000000D+00  0.368961D-03  0.442364D-02 -0.255080D-02  0.150388D-02
     22  0.000000D+00  0.545479D-03  0.723986D-02 -0.445849D-02  0.223589D-02
     23  0.000000D+00  0.370433D-02 -0.310085D-02  0.325563D-02 -0.354955D-02
     24  0.000000D+00  0.388085D-02 -0.284633D-03  0.134794D-02 -0.281754D-02
               21            22            23            24 
     21  0.205037D-01
     22  0.132713D-03  0.221239D-01
     23  0.162145D-01 -0.694881D-02  0.234132D-01
     24 -0.415645D-02  0.150423D-01  0.249916D-03  0.194487D-01
 Leave Link  716 at Wed Aug 19 17:47:06 2020, MaxMem=    65536000 cpu:         0.2
 (Enter /opt/cluster/programs/g09/g09_d.01/g09/l103.exe)

 GradGradGradGradGradGradGradGradGradGradGradGradGradGradGradGradGradGrad
 Berny optimization.
 Red2BG is reusing G-inverse.
 Internal  Forces:  Max     0.000007653 RMS     0.000003594
 Search for a local minimum.
 Step number   1 out of a maximum of    2
 All quantities printed in internal units (Hartrees-Bohrs-Radians)
 Second derivative matrix not updated -- analytic derivatives used.
 ITU=  0
     Eigenvalues ---    0.00675   0.02124   0.03120   0.04308   0.07639
     Eigenvalues ---    0.10064   0.10881   0.11601   0.14335   0.16643
     Eigenvalues ---    0.22846   0.30915   0.32114   0.36837   0.37114
     Eigenvalues ---    0.37525   0.62450   0.84185
 Angle between quadratic step and forces=  25.66 degrees.
 Linear search not attempted -- first point.
 Iteration  1 RMS(Cart)=  0.00004593 RMS(Int)=  0.00000000
 Iteration  2 RMS(Cart)=  0.00000000 RMS(Int)=  0.00000000
 ITry= 1 IFail=0 DXMaxC= 1.14D-04 DCOld= 1.00D+10 DXMaxT= 3.00D-01 DXLimC= 3.00D+00 Rises=F
 Variable       Old X    -DE/DX   Delta X   Delta X   Delta X     New X
                                 (Linear)    (Quad)   (Total)
    R1        2.30434   0.00000   0.00000  -0.00001  -0.00001   2.30433
    R2        2.78341   0.00000   0.00000   0.00000   0.00000   2.78341
    R3        2.09713   0.00000   0.00000  -0.00001  -0.00001   2.09713
    R4        2.52947   0.00001   0.00000   0.00001   0.00001   2.52948
    R5        2.04841   0.00000   0.00000   0.00000   0.00000   2.04841
    R6        2.05029   0.00000   0.00000  -0.00001  -0.00001   2.05028
    R7        2.04465   0.00000   0.00000   0.00001   0.00001   2.04467
    A1        2.16652   0.00001   0.00000   0.00005   0.00005   2.16657
    A2        2.11669   0.00000   0.00000   0.00000   0.00000   2.11669
    A3        1.99998  -0.00001   0.00000  -0.00005  -0.00005   1.99993
    A4        2.10706   0.00000   0.00000  -0.00004  -0.00004   2.10702
    A5        2.03871   0.00001   0.00000   0.00007   0.00007   2.03877
    A6        2.13742   0.00000   0.00000  -0.00003  -0.00003   2.13739
    A7        2.10884   0.00001   0.00000   0.00005   0.00005   2.10889
    A8        2.13469   0.00000   0.00000  -0.00004  -0.00004   2.13465
    A9        2.03966   0.00000   0.00000  -0.00001  -0.00001   2.03965
    D1        3.14158   0.00000   0.00000   0.00001   0.00001  -3.14159
    D2       -0.00001   0.00000   0.00000   0.00001   0.00001   0.00000
    D3        0.00000   0.00000   0.00000   0.00000   0.00000   0.00000
    D4       -3.14159   0.00000   0.00000   0.00000   0.00000  -3.14159
    D5        0.00000   0.00000   0.00000   0.00000   0.00000   0.00000
    D6        3.14159   0.00000   0.00000   0.00000   0.00000   3.14159
    D7       -3.14159   0.00000   0.00000   0.00000   0.00000  -3.14159
    D8        0.00000   0.00000   0.00000   0.00000   0.00000   0.00000
         Item               Value     Threshold  Converged?
 Maximum Force            0.000008     0.000450     YES
 RMS     Force            0.000004     0.000300     YES
 Maximum Displacement     0.000114     0.001800     YES
 RMS     Displacement     0.000046     0.001200     YES
 Predicted change in Energy=-1.040404D-09
 Optimization completed.
    -- Stationary point found.
                           ----------------------------
                           !   Optimized Parameters   !
                           ! (Angstroms and Degrees)  !
 --------------------------                            --------------------------
 ! Name  Definition              Value          Derivative Info.                !
 --------------------------------------------------------------------------------
 ! R1    R(1,2)                  1.2194         -DE/DX =    0.0                 !
 ! R2    R(1,3)                  1.4729         -DE/DX =    0.0                 !
 ! R3    R(1,8)                  1.1098         -DE/DX =    0.0                 !
 ! R4    R(3,4)                  1.3385         -DE/DX =    0.0                 !
 ! R5    R(3,5)                  1.084          -DE/DX =    0.0                 !
 ! R6    R(4,6)                  1.085          -DE/DX =    0.0                 !
 ! R7    R(4,7)                  1.082          -DE/DX =    0.0                 !
 ! A1    A(2,1,3)              124.1322         -DE/DX =    0.0                 !
 ! A2    A(2,1,8)              121.2773         -DE/DX =    0.0                 !
 ! A3    A(3,1,8)              114.5905         -DE/DX =    0.0                 !
 ! A4    A(1,3,4)              120.7258         -DE/DX =    0.0                 !
 ! A5    A(1,3,5)              116.8093         -DE/DX =    0.0                 !
 ! A6    A(4,3,5)              122.4649         -DE/DX =    0.0                 !
 ! A7    A(3,4,6)              120.8276         -DE/DX =    0.0                 !
 ! A8    A(3,4,7)              122.3088         -DE/DX =    0.0                 !
 ! A9    A(6,4,7)              116.8637         -DE/DX =    0.0                 !
 ! D1    D(2,1,3,4)           -180.0006         -DE/DX =    0.0                 !
 ! D2    D(2,1,3,5)             -0.0006         -DE/DX =    0.0                 !
 ! D3    D(8,1,3,4)              0.0003         -DE/DX =    0.0                 !
 ! D4    D(8,1,3,5)           -179.9998         -DE/DX =    0.0                 !
 ! D5    D(1,3,4,6)              0.0            -DE/DX =    0.0                 !
 ! D6    D(1,3,4,7)            179.9998         -DE/DX =    0.0                 !
 ! D7    D(5,3,4,6)           -179.9999         -DE/DX =    0.0                 !
 ! D8    D(5,3,4,7)             -0.0001         -DE/DX =    0.0                 !
 --------------------------------------------------------------------------------
 GradGradGradGradGradGradGradGradGradGradGradGradGradGradGradGradGradGrad

 Leave Link  103 at Wed Aug 19 17:47:06 2020, MaxMem=    65536000 cpu:         0.1
 (Enter /opt/cluster/programs/g09/g09_d.01/g09/l9999.exe)
 1\1\GINC-NODE27\Freq\RB2PLYPD3-FC\6-31G(d,p)\C3H4O1\BOITTIER\19-Aug-20
 20\0\\#P Geom=AllCheck Guess=TCheck SCRF=Check GenChk RB2PLYPD3(FC)/6-
 31G(d,p) Freq\\acrolein_opt\\0,1\C,-5.0022598451,-1.3800180857,0.89290
 36322\O,-3.9236983186,-0.8632257779,0.6550473772\C,-5.1915232933,-2.81
 86402366,1.1459501921\C,-6.4087055605,-3.3139195371,1.4006035597\H,-4.
 3048201447,-3.4413569326,1.1146166483\H,-7.2785782648,-2.6659627798,1.
 4255311854\H,-6.5770182587,-4.3658220504,1.5899774157\H,-5.9333163145,
 -0.7775145998,0.9338599894\\Version=ES64L-G09RevD.01\State=1-A\HF=-191
 .5319141\MP2=-191.7242463\RMSD=6.353e-10\RMSF=4.097e-06\ZeroPoint=0.06
 20337\Thermal=0.066389\Dipole=-0.9467217,-0.7364746,0.2531241\DipoleDe
 riv=0.8863253,0.0511299,-0.1027009,0.4000299,1.1323666,-0.1988099,-0.1
 573957,-0.1480701,0.2813431,-0.7995024,-0.2332845,0.1026565,-0.2511168
 ,-0.6578954,0.0855573,0.105449,0.0829625,-0.3734187,-0.0802453,-0.1509
 593,0.0185363,-0.3042527,-0.4177848,0.0916314,0.0425671,0.0693398,-0.1
 325696,0.1274912,0.06535,-0.0602259,-0.0321458,0.0971181,-0.0444412,-0
 .04494,-0.0586176,-0.200472,-0.0156503,0.0584697,0.0125842,0.0335191,-
 0.0071991,0.0172456,0.0164956,0.0136174,0.1293749,-0.004613,0.0458975,
 0.0130157,0.0915915,-0.0055489,0.0086126,0.0058522,0.0152579,0.1311185
 ,0.0594152,-0.0037148,0.0102284,-0.0203065,-0.0459693,0.0298716,0.0128
 287,0.0274576,0.1195759,-0.1732206,0.1671115,0.0059057,0.0826813,-0.09
 50873,0.0103327,0.0191431,-0.0019474,0.0450478\Polar=44.7486639,10.075
 4191,39.1643369,-6.0283995,-5.3855313,15.877012\PG=C01 [X(C3H4O1)]\NIm
 ag=0\\0.89641388,0.11067801,0.61883325,-0.12079295,-0.08408754,0.21583
 812,-0.60316343,-0.22291461,0.11381127,0.66209512,-0.22785851,-0.21303
 471,0.05699537,0.28123049,0.21667654,0.11458594,0.05627629,-0.08631106
 ,-0.13710794,-0.07134845,0.05354147,-0.09446341,0.02481317,-0.00122087
 ,-0.01922221,-0.06049306,0.01533902,0.86052035,0.03407127,-0.23430746,
 0.01984406,-0.04273509,-0.02401388,0.01327858,0.01658337,0.59869590,-0
 .00267227,0.02119084,-0.07904638,0.01255523,0.01586080,0.01673557,-0.1
 1150230,-0.07875757,0.14023922,-0.01361101,-0.02230502,0.00577639,0.00
 995942,0.00502096,-0.00188763,-0.47916810,-0.13146071,0.08352830,0.804
 02813,-0.04032702,-0.01164724,0.00801445,0.00058992,-0.00778110,0.0015
 0880,-0.14044865,-0.17410215,0.04042651,0.06345706,0.68927837,0.008601
 71,0.00539347,-0.00002986,-0.00119311,0.00086446,0.00242922,0.08493724
 ,0.03911933,-0.06499738,-0.11003845,-0.09913162,0.14731815,0.00446969,
 -0.00577256,0.00066123,0.00111003,0.00133463,-0.00064065,-0.24972099,0
 .13827325,0.00888327,-0.01768653,0.01840913,0.00031566,0.26345123,0.02
 917324,-0.01384917,-0.00163358,-0.00293991,0.00480855,-0.00061731,0.13
 963760,-0.15717914,-0.00187347,-0.01408090,0.01183724,0.00087057,-0.14
 880217,0.15918416,-0.00481698,0.00344855,0.00295398,0.00002945,-0.0012
 3893,-0.00166673,0.00866940,-0.00167512,-0.04058657,0.00540888,-0.0038
 5439,0.00414550,-0.01106188,0.00091677,0.02845350,0.00008150,0.0033117
 5,-0.00188913,0.00086912,-0.00054264,0.00019341,-0.02106296,0.01982412
 ,0.00064329,-0.23986133,0.13643117,0.00803490,-0.00278800,-0.00266101,
 0.00256061,0.25568665,-0.00435189,0.00005087,-0.00083909,0.00163917,0.
 00007587,0.00000278,-0.00925332,0.01232358,0.00015526,0.13947008,-0.16
 645135,-0.00007514,-0.00197805,-0.00044610,0.00223107,-0.14968978,0.16
 589901,-0.00068777,-0.00195353,-0.00893266,-0.00014864,0.00032003,0.00
 158559,0.00520153,-0.00407345,0.00461188,0.00755851,0.00036688,-0.0387
 0200,0.00245356,0.00233040,0.01122893,-0.01013217,-0.00037244,0.026189
 07,-0.00473366,0.00309530,0.00239114,-0.00072764,-0.00270999,0.0000297
 1,0.00094837,-0.03187647,0.00609833,-0.06464295,-0.03800634,0.00965316
 ,0.00100333,0.00025831,-0.00124610,0.00656955,0.02328179,-0.00409232,0
 .06100612,-0.00150376,0.00135478,0.00236475,-0.00011353,-0.00059906,-0
 .00042953,0.00219168,-0.00527050,0.00184325,-0.04191426,-0.34155032,0.
 05348698,-0.00030089,0.00078467,-0.00122152,-0.00512916,-0.01161403,0.
 00311926,0.04663003,0.35650129,0.00311207,0.00169591,0.01432649,-0.000
 37725,-0.00005188,-0.00338142,0.00075771,0.00679777,0.00734522,0.01026
 576,0.05291852,-0.04902127,-0.00115845,-0.00130287,-0.00691405,0.00036
 142,-0.00101243,0.00363197,-0.01269276,-0.05890583,0.03507094,-0.18499
 357,0.10909395,0.00126291,-0.05092040,0.00401812,0.00948814,0.00216895
 ,-0.00267975,0.00246615,0.00098236,-0.00010528,-0.00031112,0.00016124,
 -0.00058517,0.00045662,0.00050547,0.00088200,-0.00015270,0.00057689,0.
 00013990,-0.00026852,0.23151906,0.10011864,-0.14740033,-0.00065843,-0.
 01475645,0.02386779,0.00132884,0.02696922,-0.01614635,0.00115440,0.001
 81278,0.00041655,-0.00052806,-0.00116333,-0.00514022,0.00139358,-0.001
 54446,0.00016215,0.00026286,-0.00067263,0.00039317,-0.00013919,-0.1107
 6376,0.14384724,0.00267024,-0.00196400,-0.05879864,0.01243098,-0.00140
 141,0.01706738,-0.00218174,0.00546641,0.01569845,-0.00061176,-0.000249
 14,-0.00114236,0.00054724,0.00130950,0.00238544,0.00022766,-0.00009001
 ,0.00038722,-0.00014116,-0.00025735,-0.00105787,-0.01294148,-0.0028139
 9,0.02546038\\-0.00000322,-0.00000051,-0.00000127,0.00000419,-0.000003
 24,0.00000054,-0.00000917,-0.00000140,0.00000216,0.00000886,-0.0000108
 5,0.00000066,0.00000121,0.00000239,-0.00000059,0.00000025,0.00000502,-
 0.00000085,-0.00000199,0.00000463,-0.00000062,-0.00000013,0.00000396,-
 0.00000002\\\@


 THE ... SCIENTISTS WERE WRONG ... THE MOST PERSISTENT PRINCIPLES 
 OF THE UNIVERSE WERE ACCIDENT AND ERROR.

                          -- FRANK HERBERT IN DUNE
 Job cpu time:       0 days  0 hours  3 minutes 32.7 seconds.
 File lengths (MBytes):  RWF=    297 Int=      0 D2E=      0 Chk=      2 Scr=      1
 Normal termination of Gaussian 09 at Wed Aug 19 17:47:06 2020.
