 Entering Gaussian System, Link 0=/opt/cluster/programs/g09/g09_d.01/g09//g09
 Input=/home/boittier/MDCM/butane/butane_opt_freq.com
 Output=/scratch/boittier/butane_opt_freq/butane_opt_freq.out
 Initial command:
 /opt/cluster/programs/g09/g09_d.01/g09/l1.exe "/scratch/boittier/butane_opt_freq/Gau-72956.inp" -scrdir="/scratch/boittier/butane_opt_freq/"
 Entering Link 1 = /opt/cluster/programs/g09/g09_d.01/g09/l1.exe PID=     72957.
  
 Copyright (c) 1988,1990,1992,1993,1995,1998,2003,2009,2013,
            Gaussian, Inc.  All Rights Reserved.
  
 This is part of the Gaussian(R) 09 program.  It is based on
 the Gaussian(R) 03 system (copyright 2003, Gaussian, Inc.),
 the Gaussian(R) 98 system (copyright 1998, Gaussian, Inc.),
 the Gaussian(R) 94 system (copyright 1995, Gaussian, Inc.),
 the Gaussian 92(TM) system (copyright 1992, Gaussian, Inc.),
 the Gaussian 90(TM) system (copyright 1990, Gaussian, Inc.),
 the Gaussian 88(TM) system (copyright 1988, Gaussian, Inc.),
 the Gaussian 86(TM) system (copyright 1986, Carnegie Mellon
 University), and the Gaussian 82(TM) system (copyright 1983,
 Carnegie Mellon University). Gaussian is a federally registered
 trademark of Gaussian, Inc.
  
 This software contains proprietary and confidential information,
 including trade secrets, belonging to Gaussian, Inc.
  
 This software is provided under written license and may be
 used, copied, transmitted, or stored only in accord with that
 written license.
  
 The following legend is applicable only to US Government
 contracts under FAR:
  
                    RESTRICTED RIGHTS LEGEND
  
 Use, reproduction and disclosure by the US Government is
 subject to restrictions as set forth in subparagraphs (a)
 and (c) of the Commercial Computer Software - Restricted
 Rights clause in FAR 52.227-19.
  
 Gaussian, Inc.
 340 Quinnipiac St., Bldg. 40, Wallingford CT 06492
  
  
 ---------------------------------------------------------------
 Warning -- This program may not be used in any manner that
 competes with the business of Gaussian, Inc. or will provide
 assistance to any competitor of Gaussian, Inc.  The licensee
 of this program is prohibited from giving any competitor of
 Gaussian, Inc. access to this program.  By using this program,
 the user acknowledges that Gaussian, Inc. is engaged in the
 business of creating and licensing software in the field of
 computational chemistry and represents and warrants to the
 licensee that it is not a competitor of Gaussian, Inc. and that
 it will not use this program in any manner prohibited above.
 ---------------------------------------------------------------
  

 Cite this work as:
 Gaussian 09, Revision D.01,
 M. J. Frisch, G. W. Trucks, H. B. Schlegel, G. E. Scuseria, 
 M. A. Robb, J. R. Cheeseman, G. Scalmani, V. Barone, B. Mennucci, 
 G. A. Petersson, H. Nakatsuji, M. Caricato, X. Li, H. P. Hratchian, 
 A. F. Izmaylov, J. Bloino, G. Zheng, J. L. Sonnenberg, M. Hada, 
 M. Ehara, K. Toyota, R. Fukuda, J. Hasegawa, M. Ishida, T. Nakajima, 
 Y. Honda, O. Kitao, H. Nakai, T. Vreven, J. A. Montgomery, Jr., 
 J. E. Peralta, F. Ogliaro, M. Bearpark, J. J. Heyd, E. Brothers, 
 K. N. Kudin, V. N. Staroverov, T. Keith, R. Kobayashi, J. Normand, 
 K. Raghavachari, A. Rendell, J. C. Burant, S. S. Iyengar, J. Tomasi, 
 M. Cossi, N. Rega, J. M. Millam, M. Klene, J. E. Knox, J. B. Cross, 
 V. Bakken, C. Adamo, J. Jaramillo, R. Gomperts, R. E. Stratmann, 
 O. Yazyev, A. J. Austin, R. Cammi, C. Pomelli, J. W. Ochterski, 
 R. L. Martin, K. Morokuma, V. G. Zakrzewski, G. A. Voth, 
 P. Salvador, J. J. Dannenberg, S. Dapprich, A. D. Daniels, 
 O. Farkas, J. B. Foresman, J. V. Ortiz, J. Cioslowski, 
 and D. J. Fox, Gaussian, Inc., Wallingford CT, 2013.
 
 ******************************************
 Gaussian 09:  ES64L-G09RevD.01 24-Apr-2013
                19-Aug-2020 
 ******************************************
 %chk=butane_opt.chk
 %nproc=8
 Will use up to    8 processors via shared memory.
 %mem=500MB
 ------------------------------------
 #p B2PLYPD3/6-31G** opt freq=NoRaman
 ------------------------------------
 1/18=20,19=15,38=1/1,3;
 2/9=110,12=2,17=6,18=5,40=1/2;
 3/5=1,6=6,7=101,11=9,16=1,25=1,30=1,71=1,74=-60/1,2,3;
 4//1;
 5/5=2,38=5/2;
 8/6=4,10=2/1;
 9/15=2,16=-3/6;
 10/5=1/2;
 6/7=2,8=2,9=2,10=2/1;
 7/12=2/1,2,3,16;
 1/18=20,19=15/3(2);
 2/9=110/2;
 99//99;
 2/9=110/2;
 3/5=1,6=6,7=101,11=9,16=1,25=1,30=1,71=1,74=-60/1,2,3;
 4/5=5,16=3,69=1/1;
 5/5=2,38=5/2;
 8/6=4,10=2/1;
 9/15=2,16=-3/6;
 10/5=1/2;
 7/12=2/1,2,3,16;
 1/18=20,19=15/3(-8);
 2/9=110/2;
 6/7=2,8=2,9=2,10=2/1;
 99//99;
 Leave Link    1 at Wed Aug 19 17:45:50 2020, MaxMem=    65536000 cpu:         0.6
 (Enter /opt/cluster/programs/g09/g09_d.01/g09/l101.exe)
 ----------
 butane_opt
 ----------
 Symbolic Z-matrix:
 Charge =  0 Multiplicity = 1
 C                    -3.92702   0.26476   0.01706 
 C                    -2.6954   -0.62635   0.03953 
 H                    -4.83606  -0.34442   0.03859 
 H                    -3.95072   0.87845  -0.88912 
 H                    -3.94449   0.93191   0.88479 
 C                    -1.40885   0.19632   0.01103 
 H                    -2.7247   -1.30223  -0.82308 
 H                    -2.71896  -1.2499    0.94086 
 C                    -0.17724  -0.69483   0.03187 
 H                    -1.37909   0.87132   0.87432 
 H                    -1.38574   0.8208   -0.88967 
 H                    -0.15354  -1.3103    0.93684 
 H                     0.73181  -0.08562   0.0115 
 H                    -0.15977  -1.36027  -0.83717 
 
 NAtoms=     14 NQM=       14 NQMF=       0 NMMI=      0 NMMIF=      0
                NMic=       0 NMicF=      0.
                    Isotopes and Nuclear Properties:
 (Nuclear quadrupole moments (NQMom) in fm**2, nuclear magnetic moments (NMagM)
  in nuclear magnetons)

  Atom         1           2           3           4           5           6           7           8           9          10
 IAtWgt=          12          12           1           1           1          12           1           1          12           1
 AtmWgt=  12.0000000  12.0000000   1.0078250   1.0078250   1.0078250  12.0000000   1.0078250   1.0078250  12.0000000   1.0078250
 NucSpn=           0           0           1           1           1           0           1           1           0           1
 AtZEff=   0.0000000   0.0000000   0.0000000   0.0000000   0.0000000   0.0000000   0.0000000   0.0000000   0.0000000   0.0000000
 NQMom=    0.0000000   0.0000000   0.0000000   0.0000000   0.0000000   0.0000000   0.0000000   0.0000000   0.0000000   0.0000000
 NMagM=    0.0000000   0.0000000   2.7928460   2.7928460   2.7928460   0.0000000   2.7928460   2.7928460   0.0000000   2.7928460
 AtZNuc=   6.0000000   6.0000000   1.0000000   1.0000000   1.0000000   6.0000000   1.0000000   1.0000000   6.0000000   1.0000000

  Atom        11          12          13          14
 IAtWgt=           1           1           1           1
 AtmWgt=   1.0078250   1.0078250   1.0078250   1.0078250
 NucSpn=           1           1           1           1
 AtZEff=   0.0000000   0.0000000   0.0000000   0.0000000
 NQMom=    0.0000000   0.0000000   0.0000000   0.0000000
 NMagM=    2.7928460   2.7928460   2.7928460   2.7928460
 AtZNuc=   1.0000000   1.0000000   1.0000000   1.0000000
 Leave Link  101 at Wed Aug 19 17:45:51 2020, MaxMem=    65536000 cpu:         0.6
 (Enter /opt/cluster/programs/g09/g09_d.01/g09/l103.exe)

 GradGradGradGradGradGradGradGradGradGradGradGradGradGradGradGradGradGrad
 Berny optimization.
 Initialization pass.
                           ----------------------------
                           !    Initial Parameters    !
                           ! (Angstroms and Degrees)  !
 --------------------------                            --------------------------
 ! Name  Definition              Value          Derivative Info.                !
 --------------------------------------------------------------------------------
 ! R1    R(1,2)                  1.5204         estimate D2E/DX2                !
 ! R2    R(1,3)                  1.0945         estimate D2E/DX2                !
 ! R3    R(1,4)                  1.0947         estimate D2E/DX2                !
 ! R4    R(1,5)                  1.0947         estimate D2E/DX2                !
 ! R5    R(2,6)                  1.5274         estimate D2E/DX2                !
 ! R6    R(2,7)                  1.0963         estimate D2E/DX2                !
 ! R7    R(2,8)                  1.0963         estimate D2E/DX2                !
 ! R8    R(6,9)                  1.5203         estimate D2E/DX2                !
 ! R9    R(6,10)                 1.0963         estimate D2E/DX2                !
 ! R10   R(6,11)                 1.0963         estimate D2E/DX2                !
 ! R11   R(9,12)                 1.0947         estimate D2E/DX2                !
 ! R12   R(9,13)                 1.0945         estimate D2E/DX2                !
 ! R13   R(9,14)                 1.0947         estimate D2E/DX2                !
 ! A1    A(2,1,3)              110.2616         estimate D2E/DX2                !
 ! A2    A(2,1,4)              110.9993         estimate D2E/DX2                !
 ! A3    A(2,1,5)              111.0031         estimate D2E/DX2                !
 ! A4    A(3,1,4)              108.079          estimate D2E/DX2                !
 ! A5    A(3,1,5)              108.0809         estimate D2E/DX2                !
 ! A6    A(4,1,5)              108.3106         estimate D2E/DX2                !
 ! A7    A(1,2,6)              111.4934         estimate D2E/DX2                !
 ! A8    A(1,2,7)              109.1525         estimate D2E/DX2                !
 ! A9    A(1,2,8)              109.1552         estimate D2E/DX2                !
 ! A10   A(6,2,7)              109.8716         estimate D2E/DX2                !
 ! A11   A(6,2,8)              109.8657         estimate D2E/DX2                !
 ! A12   A(7,2,8)              107.1994         estimate D2E/DX2                !
 ! A13   A(2,6,9)              111.4936         estimate D2E/DX2                !
 ! A14   A(2,6,10)             109.8659         estimate D2E/DX2                !
 ! A15   A(2,6,11)             109.8717         estimate D2E/DX2                !
 ! A16   A(9,6,10)             109.155          estimate D2E/DX2                !
 ! A17   A(9,6,11)             109.1526         estimate D2E/DX2                !
 ! A18   A(10,6,11)            107.199          estimate D2E/DX2                !
 ! A19   A(6,9,12)             111.0035         estimate D2E/DX2                !
 ! A20   A(6,9,13)             110.2621         estimate D2E/DX2                !
 ! A21   A(6,9,14)             110.9992         estimate D2E/DX2                !
 ! A22   A(12,9,13)            108.0804         estimate D2E/DX2                !
 ! A23   A(12,9,14)            108.3107         estimate D2E/DX2                !
 ! A24   A(13,9,14)            108.0787         estimate D2E/DX2                !
 ! D1    D(3,1,2,6)           -179.9684         estimate D2E/DX2                !
 ! D2    D(3,1,2,7)             58.4652         estimate D2E/DX2                !
 ! D3    D(3,1,2,8)            -58.4077         estimate D2E/DX2                !
 ! D4    D(4,1,2,6)             60.2939         estimate D2E/DX2                !
 ! D5    D(4,1,2,7)            -61.2724         estimate D2E/DX2                !
 ! D6    D(4,1,2,8)           -178.1454         estimate D2E/DX2                !
 ! D7    D(5,1,2,6)            -60.2261         estimate D2E/DX2                !
 ! D8    D(5,1,2,7)            178.2076         estimate D2E/DX2                !
 ! D9    D(5,1,2,8)             61.3347         estimate D2E/DX2                !
 ! D10   D(1,2,6,9)           -179.934          estimate D2E/DX2                !
 ! D11   D(1,2,6,10)            58.9184         estimate D2E/DX2                !
 ! D12   D(1,2,6,11)           -58.7855         estimate D2E/DX2                !
 ! D13   D(7,2,6,9)            -58.7858         estimate D2E/DX2                !
 ! D14   D(7,2,6,10)          -179.9334         estimate D2E/DX2                !
 ! D15   D(7,2,6,11)            62.3627         estimate D2E/DX2                !
 ! D16   D(8,2,6,9)             58.9184         estimate D2E/DX2                !
 ! D17   D(8,2,6,10)           -62.2292         estimate D2E/DX2                !
 ! D18   D(8,2,6,11)          -179.9331         estimate D2E/DX2                !
 ! D19   D(2,6,9,12)           -60.226          estimate D2E/DX2                !
 ! D20   D(2,6,9,13)          -179.9683         estimate D2E/DX2                !
 ! D21   D(2,6,9,14)            60.2942         estimate D2E/DX2                !
 ! D22   D(10,6,9,12)           61.335          estimate D2E/DX2                !
 ! D23   D(10,6,9,13)          -58.4073         estimate D2E/DX2                !
 ! D24   D(10,6,9,14)         -178.1448         estimate D2E/DX2                !
 ! D25   D(11,6,9,12)          178.2073         estimate D2E/DX2                !
 ! D26   D(11,6,9,13)           58.465          estimate D2E/DX2                !
 ! D27   D(11,6,9,14)          -61.2725         estimate D2E/DX2                !
 --------------------------------------------------------------------------------
 Trust Radius=3.00D-01 FncErr=1.00D-07 GrdErr=1.00D-07
 Number of steps in this run=     74 maximum allowed number of steps=    100.
 GradGradGradGradGradGradGradGradGradGradGradGradGradGradGradGradGradGrad

 Leave Link  103 at Wed Aug 19 17:45:52 2020, MaxMem=    65536000 cpu:         0.1
 (Enter /opt/cluster/programs/g09/g09_d.01/g09/l202.exe)
                          Input orientation:                          
 ---------------------------------------------------------------------
 Center     Atomic      Atomic             Coordinates (Angstroms)
 Number     Number       Type             X           Y           Z
 ---------------------------------------------------------------------
      1          6           0       -3.927020    0.264760    0.017060
      2          6           0       -2.695400   -0.626350    0.039530
      3          1           0       -4.836060   -0.344420    0.038590
      4          1           0       -3.950720    0.878450   -0.889120
      5          1           0       -3.944490    0.931910    0.884790
      6          6           0       -1.408850    0.196320    0.011030
      7          1           0       -2.724700   -1.302230   -0.823080
      8          1           0       -2.718960   -1.249900    0.940860
      9          6           0       -0.177240   -0.694830    0.031870
     10          1           0       -1.379090    0.871320    0.874320
     11          1           0       -1.385740    0.820800   -0.889670
     12          1           0       -0.153540   -1.310300    0.936840
     13          1           0        0.731810   -0.085620    0.011500
     14          1           0       -0.159770   -1.360270   -0.837170
 ---------------------------------------------------------------------
                    Distance matrix (angstroms):
                    1          2          3          4          5
     1  C    0.000000
     2  C    1.520352   0.000000
     3  H    1.094494   2.159146   0.000000
     4  H    1.094687   2.168558   1.771972   0.000000
     5  H    1.094692   2.168609   1.771996   1.774726   0.000000
     6  C    2.519107   1.527354   3.469716   2.781488   2.781010
     7  H    2.146361   1.096252   2.473402   2.502569   3.065304
     8  H    2.146395   1.096251   2.473075   3.065279   2.503071
     9  C    3.870644   2.519103   4.671984   4.190774   4.191173
    10  H    2.755859   2.161611   3.758605   3.118181   2.566137
    11  H    2.754895   2.161681   3.758206   2.565628   3.115807
    12  H    4.191177   2.781008   4.864748   4.747982   4.404715
    13  H    4.671990   3.469718   5.573947   4.864837   4.864749
    14  H    4.190776   2.781485   4.864832   4.402939   4.747983
                    6          7          8          9         10
     6  C    0.000000
     7  H    2.161678   0.000000
     8  H    2.161602   1.764725   0.000000
     9  C    1.520344   2.754891   2.755849   0.000000
    10  H    1.096257   3.068575   2.509831   2.146390   0.000000
    11  H    1.096253   2.510877   3.068569   2.146356   1.764726
    12  H    2.168601   3.115806   2.566134   1.094685   2.503068
    13  H    2.159147   3.758208   3.758600   1.094497   2.473073
    14  H    2.168552   2.565625   3.118177   1.094690   3.065279
                   11         12         13         14
    11  H    0.000000
    12  H    3.065297   0.000000
    13  H    2.473403   1.771988   0.000000
    14  H    2.502564   1.774725   1.771973   0.000000
 Stoichiometry    C4H10
 Framework group  C1[X(C4H10)]
 Deg. of freedom    36
 Full point group                 C1      NOp   1
 Largest Abelian subgroup         C1      NOp   1
 Largest concise Abelian subgroup C1      NOp   1
                         Standard orientation:                         
 ---------------------------------------------------------------------
 Center     Atomic      Atomic             Coordinates (Angstroms)
 Number     Number       Type             X           Y           Z
 ---------------------------------------------------------------------
      1          6           0        1.931250    0.125505    0.000383
      2          6           0        0.556259   -0.523239   -0.000435
      3          1           0        2.712172   -0.641358   -0.000199
      4          1           0        2.069578    0.750545    0.888375
      5          1           0        2.069898    0.752266   -0.886351
      6          6           0       -0.556261    0.523235   -0.000431
      7          1           0        0.461956   -1.167359    0.881599
      8          1           0        0.462568   -1.166547   -0.883126
      9          6           0       -1.931246   -0.125503    0.000381
     10          1           0       -0.462574    1.166556   -0.883121
     11          1           0       -0.461958    1.167354    0.881604
     12          1           0       -2.069900   -0.752256   -0.886349
     13          1           0       -2.712174    0.641358   -0.000197
     14          1           0       -2.069576   -0.750546    0.888375
 ---------------------------------------------------------------------
 Rotational constants (GHZ):     23.1256152      3.7102110      3.4748093
 Leave Link  202 at Wed Aug 19 17:45:52 2020, MaxMem=    65536000 cpu:         0.0
 (Enter /opt/cluster/programs/g09/g09_d.01/g09/l301.exe)
 Standard basis: 6-31G(d,p) (6D, 7F)
 Ernie: Thresh=  0.10000D-02 Tol=  0.10000D-05 Strict=F.
 There are   110 symmetry adapted cartesian basis functions of A   symmetry.
 There are   110 symmetry adapted basis functions of A   symmetry.
   110 basis functions,   182 primitive gaussians,   110 cartesian basis functions
    17 alpha electrons       17 beta electrons
       nuclear repulsion energy       131.1635491460 Hartrees.
 IExCor=  419 DFT=T Ex+Corr=B2PLYPD3 ExCW=0 ScaHFX=  0.530000
 ScaDFX=  0.470000  0.470000  0.730000  0.730000 ScalE2=  0.270000  0.270000
 IRadAn=      0 IRanWt=     -1 IRanGd=            0 ICorTp=0 IEmpDi=141
 NAtoms=   14 NActive=   14 NUniq=   14 SFac= 1.00D+00 NAtFMM=   60 NAOKFM=F Big=F
 Integral buffers will be    131072 words long.
 Regular integral format.
 Two-electron integral symmetry is turned on.
 R6Disp:  Grimme-D3(BJ) Dispersion energy=       -0.0064566412 Hartrees.
 Nuclear repulsion after empirical dispersion term =      131.1570925048 Hartrees.
 Leave Link  301 at Wed Aug 19 17:45:54 2020, MaxMem=    65536000 cpu:         0.4
 (Enter /opt/cluster/programs/g09/g09_d.01/g09/l302.exe)
 NPDir=0 NMtPBC=     1 NCelOv=     1 NCel=       1 NClECP=     1 NCelD=      1
         NCelK=      1 NCelE2=     1 NClLst=     1 CellRange=     0.0.
 One-electron integrals computed using PRISM.
 NBasis=   110 RedAO= T EigKep=  4.24D-03  NBF=   110
 NBsUse=   110 1.00D-06 EigRej= -1.00D+00 NBFU=   110
 Precomputing XC quadrature grid using
 IXCGrd= 4 IRadAn=           0 IRanWt=          -1 IRanGd=           0 AccXCQ= 0.00D+00.
 Generated NRdTot=       0 NPtTot=           0 NUsed=           0 NTot=          32
 NSgBfM=   110   110   110   110   110 MxSgAt=    14 MxSgA2=    14.
 Leave Link  302 at Wed Aug 19 17:45:56 2020, MaxMem=    65536000 cpu:         1.0
 (Enter /opt/cluster/programs/g09/g09_d.01/g09/l303.exe)
 DipDrv:  MaxL=1.
 Leave Link  303 at Wed Aug 19 17:45:58 2020, MaxMem=    65536000 cpu:         0.2
 (Enter /opt/cluster/programs/g09/g09_d.01/g09/l401.exe)
 ExpMin= 1.61D-01 ExpMax= 3.05D+03 ExpMxC= 4.57D+02 IAcc=1 IRadAn=         1 AccDes= 0.00D+00
 Harris functional with IExCor=  419 and IRadAn=       1 diagonalized for initial guess.
 HarFok:  IExCor=  419 AccDes= 0.00D+00 IRadAn=         1 IDoV= 1 UseB2=F ITyADJ=14
 ICtDFT=  3500011 ScaDFX=  1.000000  1.000000  1.000000  1.000000
 FoFCou: FMM=F IPFlag=           0 FMFlag=      100000 FMFlg1=           0
         NFxFlg=           0 DoJE=T BraDBF=F KetDBF=T FulRan=T
         wScrn=  0.000000 ICntrl=     500 IOpCl=  0 I1Cent=   200000004 NGrid=           0
         NMat0=    1 NMatS0=      1 NMatT0=    0 NMatD0=    1 NMtDS0=    0 NMtDT0=    0
 Petite list used in FoFCou.
 Harris En= -158.553643011888    
 JPrj=0 DoOrth=F DoCkMO=F.
 Leave Link  401 at Wed Aug 19 17:46:00 2020, MaxMem=    65536000 cpu:         1.2
 (Enter /opt/cluster/programs/g09/g09_d.01/g09/l502.exe)
 Closed shell SCF:
 Using DIIS extrapolation, IDIIS=  1040.
 Integral symmetry usage will be decided dynamically.
 Keep R1 ints in memory in canonical form, NReq=19626929.
 IVT=       56574 IEndB=       56574 NGot=    65536000 MDV=    46840862
 LenX=    46840862 LenY=    46828321
 Requested convergence on RMS density matrix=1.00D-08 within 128 cycles.
 Requested convergence on MAX density matrix=1.00D-06.
 Requested convergence on             energy=1.00D-06.
 No special actions if energy rises.
 FoFCou: FMM=F IPFlag=           0 FMFlag=           0 FMFlg1=           0
         NFxFlg=           0 DoJE=F BraDBF=F KetDBF=F FulRan=T
         wScrn=  0.000000 ICntrl=     600 IOpCl=  0 I1Cent=           0 NGrid=           0
         NMat0=    1 NMatS0=   6105 NMatT0=    0 NMatD0=    1 NMtDS0=    0 NMtDT0=    0
 Symmetry not used in FoFCou.
 Integral accuracy reduced to 1.0D-05 until final iterations.

 Cycle   1  Pass 0  IDiag  1:
 E= -157.843414166237    
 DIIS: error= 4.37D-02 at cycle   1 NSaved=   1.
 NSaved= 1 IEnMin= 1 EnMin= -157.843414166237     IErMin= 1 ErrMin= 4.37D-02
 ErrMax= 4.37D-02  0.00D+00 EMaxC= 1.00D-01 BMatC= 2.18D-01 BMatP= 2.18D-01
 IDIUse=3 WtCom= 5.63D-01 WtEn= 4.37D-01
 Coeff-Com:  0.100D+01
 Coeff-En:   0.100D+01
 Coeff:      0.100D+01
 Gap=     0.485 Goal=   None    Shift=    0.000
 GapD=    0.485 DampG=2.000 DampE=0.500 DampFc=1.0000 IDamp=-1.
 RMSDP=7.03D-03 MaxDP=1.23D-01              OVMax= 1.54D-01

 Cycle   2  Pass 0  IDiag  1:
 E= -157.943895708062     Delta-E=       -0.100481541825 Rises=F Damp=F
 DIIS: error= 3.74D-02 at cycle   2 NSaved=   2.
 NSaved= 2 IEnMin= 2 EnMin= -157.943895708062     IErMin= 2 ErrMin= 3.74D-02
 ErrMax= 3.74D-02  0.00D+00 EMaxC= 1.00D-01 BMatC= 1.26D-01 BMatP= 2.18D-01
 IDIUse=3 WtCom= 6.26D-01 WtEn= 3.74D-01
 Coeff-Com:  0.427D+00 0.573D+00
 Coeff-En:   0.329D+00 0.671D+00
 Coeff:      0.390D+00 0.610D+00
 Gap=     0.539 Goal=   None    Shift=    0.000
 RMSDP=3.46D-03 MaxDP=5.22D-02 DE=-1.00D-01 OVMax= 7.55D-02

 Cycle   3  Pass 0  IDiag  1:
 E= -158.074620613064     Delta-E=       -0.130724905002 Rises=F Damp=F
 DIIS: error= 4.69D-03 at cycle   3 NSaved=   3.
 NSaved= 3 IEnMin= 3 EnMin= -158.074620613064     IErMin= 3 ErrMin= 4.69D-03
 ErrMax= 4.69D-03  0.00D+00 EMaxC= 1.00D-01 BMatC= 1.73D-03 BMatP= 1.26D-01
 IDIUse=3 WtCom= 9.53D-01 WtEn= 4.69D-02
 Coeff-Com:  0.616D-02 0.102D+00 0.891D+00
 Coeff-En:   0.000D+00 0.000D+00 0.100D+01
 Coeff:      0.587D-02 0.976D-01 0.897D+00
 Gap=     0.520 Goal=   None    Shift=    0.000
 RMSDP=3.97D-04 MaxDP=7.79D-03 DE=-1.31D-01 OVMax= 9.86D-03

 Cycle   4  Pass 0  IDiag  1:
 E= -158.076338449591     Delta-E=       -0.001717836527 Rises=F Damp=F
 DIIS: error= 9.49D-04 at cycle   4 NSaved=   4.
 NSaved= 4 IEnMin= 4 EnMin= -158.076338449591     IErMin= 4 ErrMin= 9.49D-04
 ErrMax= 9.49D-04  0.00D+00 EMaxC= 1.00D-01 BMatC= 9.34D-05 BMatP= 1.73D-03
 IDIUse=3 WtCom= 9.91D-01 WtEn= 9.49D-03
 Coeff-Com: -0.648D-02 0.199D-01 0.307D+00 0.680D+00
 Coeff-En:   0.000D+00 0.000D+00 0.000D+00 0.100D+01
 Coeff:     -0.642D-02 0.197D-01 0.304D+00 0.683D+00
 Gap=     0.520 Goal=   None    Shift=    0.000
 RMSDP=8.78D-05 MaxDP=1.57D-03 DE=-1.72D-03 OVMax= 2.36D-03

 Cycle   5  Pass 0  IDiag  1:
 E= -158.076425214586     Delta-E=       -0.000086764995 Rises=F Damp=F
 DIIS: error= 1.91D-04 at cycle   5 NSaved=   5.
 NSaved= 5 IEnMin= 5 EnMin= -158.076425214586     IErMin= 5 ErrMin= 1.91D-04
 ErrMax= 1.91D-04  0.00D+00 EMaxC= 1.00D-01 BMatC= 3.96D-06 BMatP= 9.34D-05
 IDIUse=3 WtCom= 9.98D-01 WtEn= 1.91D-03
 Coeff-Com: -0.191D-02-0.566D-03 0.321D-01 0.202D+00 0.768D+00
 Coeff-En:   0.000D+00 0.000D+00 0.000D+00 0.000D+00 0.100D+01
 Coeff:     -0.191D-02-0.565D-03 0.320D-01 0.202D+00 0.768D+00
 Gap=     0.520 Goal=   None    Shift=    0.000
 RMSDP=1.45D-05 MaxDP=3.29D-04 DE=-8.68D-05 OVMax= 4.09D-04

 Cycle   6  Pass 0  IDiag  1:
 E= -158.076429046287     Delta-E=       -0.000003831701 Rises=F Damp=F
 DIIS: error= 1.74D-05 at cycle   6 NSaved=   6.
 NSaved= 6 IEnMin= 6 EnMin= -158.076429046287     IErMin= 6 ErrMin= 1.74D-05
 ErrMax= 1.74D-05  0.00D+00 EMaxC= 1.00D-01 BMatC= 2.51D-08 BMatP= 3.96D-06
 IDIUse=1 WtCom= 1.00D+00 WtEn= 0.00D+00
 Coeff-Com:  0.225D-03-0.845D-03-0.114D-01-0.253D-01-0.151D-01 0.105D+01
 Coeff:      0.225D-03-0.845D-03-0.114D-01-0.253D-01-0.151D-01 0.105D+01
 Gap=     0.520 Goal=   None    Shift=    0.000
 RMSDP=2.38D-06 MaxDP=3.78D-05 DE=-3.83D-06 OVMax= 6.21D-05

 Initial convergence to 1.0D-05 achieved.  Increase integral accuracy.
 Cycle   7  Pass 1  IDiag  1:
 E= -158.076447587932     Delta-E=       -0.000018541644 Rises=F Damp=F
 DIIS: error= 8.43D-06 at cycle   1 NSaved=   1.
 NSaved= 1 IEnMin= 1 EnMin= -158.076447587932     IErMin= 1 ErrMin= 8.43D-06
 ErrMax= 8.43D-06  0.00D+00 EMaxC= 1.00D-01 BMatC= 6.31D-09 BMatP= 6.31D-09
 IDIUse=1 WtCom= 1.00D+00 WtEn= 0.00D+00
 Coeff-Com:  0.100D+01
 Coeff:      0.100D+01
 Gap=     0.520 Goal=   None    Shift=    0.000
 RMSDP=2.38D-06 MaxDP=3.78D-05 DE=-1.85D-05 OVMax= 1.89D-05

 Cycle   8  Pass 1  IDiag  1:
 E= -158.076447594692     Delta-E=       -0.000000006760 Rises=F Damp=F
 DIIS: error= 1.07D-06 at cycle   2 NSaved=   2.
 NSaved= 2 IEnMin= 2 EnMin= -158.076447594692     IErMin= 2 ErrMin= 1.07D-06
 ErrMax= 1.07D-06  0.00D+00 EMaxC= 1.00D-01 BMatC= 1.64D-10 BMatP= 6.31D-09
 IDIUse=1 WtCom= 1.00D+00 WtEn= 0.00D+00
 Coeff-Com: -0.247D-01 0.102D+01
 Coeff:     -0.247D-01 0.102D+01
 Gap=     0.520 Goal=   None    Shift=    0.000
 RMSDP=2.19D-07 MaxDP=2.44D-06 DE=-6.76D-09 OVMax= 4.10D-06

 Cycle   9  Pass 1  IDiag  1:
 E= -158.076447594873     Delta-E=       -0.000000000181 Rises=F Damp=F
 DIIS: error= 3.77D-07 at cycle   3 NSaved=   3.
 NSaved= 3 IEnMin= 3 EnMin= -158.076447594873     IErMin= 3 ErrMin= 3.77D-07
 ErrMax= 3.77D-07  0.00D+00 EMaxC= 1.00D-01 BMatC= 2.02D-11 BMatP= 1.64D-10
 IDIUse=1 WtCom= 1.00D+00 WtEn= 0.00D+00
 Coeff-Com: -0.271D-01 0.235D+00 0.792D+00
 Coeff:     -0.271D-01 0.235D+00 0.792D+00
 Gap=     0.520 Goal=   None    Shift=    0.000
 RMSDP=4.87D-08 MaxDP=9.07D-07 DE=-1.81D-10 OVMax= 1.17D-06

 Cycle  10  Pass 1  IDiag  1:
 E= -158.076447594894     Delta-E=       -0.000000000021 Rises=F Damp=F
 DIIS: error= 1.10D-07 at cycle   4 NSaved=   4.
 NSaved= 4 IEnMin= 4 EnMin= -158.076447594894     IErMin= 4 ErrMin= 1.10D-07
 ErrMax= 1.10D-07  0.00D+00 EMaxC= 1.00D-01 BMatC= 1.23D-12 BMatP= 2.02D-11
 IDIUse=1 WtCom= 1.00D+00 WtEn= 0.00D+00
 Coeff-Com: -0.711D-02 0.348D-01 0.213D+00 0.759D+00
 Coeff:     -0.711D-02 0.348D-01 0.213D+00 0.759D+00
 Gap=     0.520 Goal=   None    Shift=    0.000
 RMSDP=1.07D-08 MaxDP=2.42D-07 DE=-2.06D-11 OVMax= 2.94D-07

 Cycle  11  Pass 1  IDiag  1:
 E= -158.076447594894     Delta-E=        0.000000000000 Rises=F Damp=F
 DIIS: error= 2.79D-08 at cycle   5 NSaved=   5.
 NSaved= 5 IEnMin= 5 EnMin= -158.076447594894     IErMin= 5 ErrMin= 2.79D-08
 ErrMax= 2.79D-08  0.00D+00 EMaxC= 1.00D-01 BMatC= 8.69D-14 BMatP= 1.23D-12
 IDIUse=1 WtCom= 1.00D+00 WtEn= 0.00D+00
 Coeff-Com:  0.119D-02-0.160D-01-0.390D-01 0.170D+00 0.884D+00
 Coeff:      0.119D-02-0.160D-01-0.390D-01 0.170D+00 0.884D+00
 Gap=     0.520 Goal=   None    Shift=    0.000
 RMSDP=4.03D-09 MaxDP=5.48D-08 DE=-1.14D-13 OVMax= 9.04D-08

 SCF Done:  E(RB2PLYPD3) =  -158.076447595     A.U. after   11 cycles
            NFock= 11  Conv=0.40D-08     -V/T= 2.0065
 KE= 1.570539849372D+02 PE=-6.277723265894D+02 EE= 1.814848015525D+02
 Leave Link  502 at Wed Aug 19 17:46:04 2020, MaxMem=    65536000 cpu:        14.3
 (Enter /opt/cluster/programs/g09/g09_d.01/g09/l801.exe)
 DoSCS=T DFT=T ScalE2(SS,OS)=  0.270000  0.270000
 ExpMin= 1.61D-01 ExpMax= 3.05D+03 ExpMxC= 4.57D+02 IAcc=3 IRadAn=         5 AccDes= 0.00D+00
 HarFok:  IExCor=  205 AccDes= 0.00D+00 IRadAn=         5 IDoV=-2 UseB2=F ITyADJ=14
 ICtDFT= 12500011 ScaDFX=  1.000000  1.000000  1.000000  1.000000
 Largest valence mixing into a core orbital is  1.07D-04
 Largest core mixing into a valence orbital is  1.88D-05
 Range of M.O.s used for correlation:     5   110
 NBasis=   110 NAE=    17 NBE=    17 NFC=     4 NFV=     0
 NROrb=    106 NOA=    13 NOB=    13 NVA=    93 NVB=    93
 Leave Link  801 at Wed Aug 19 17:46:06 2020, MaxMem=    65536000 cpu:         0.6
 (Enter /opt/cluster/programs/g09/g09_d.01/g09/l906.exe)
 DoSCS=T DFT=T ScalE2(SS,OS)=  0.270000  0.270000
 Frozen-core derivative calculation, NFC=   4 NFV=   0.
 FulOut=F Deriv=T AODrv=T NAtomX=    14
   MMem=          97  MDisk=          13 MDiskD=          13
  W3Min=      205700 MinDsk=      360475 NBas6D=         110
 NBas2D=        6243    NTT=        6105    LW2=     2040000
    MDV=    65371967 MDiskM=        8001 NBas2p=        6050
 Fully direct method using O(ONN) memory.
 IMap=   1   2   3   4   5   6   7   8   9  10  11  12  13  14  15  16  17
 JobTyp=1 Pass  1:  I=   5 to   6 NPSUse=  8 ParTrn=T ParDer=T DoDerP=T.
 JobTyp=1 Pass  2:  I=   7 to   8 NPSUse=  8 ParTrn=T ParDer=T DoDerP=T.
 JobTyp=1 Pass  3:  I=   9 to  10 NPSUse=  8 ParTrn=T ParDer=T DoDerP=T.
 JobTyp=1 Pass  4:  I=  11 to  12 NPSUse=  8 ParTrn=T ParDer=T DoDerP=T.
 JobTyp=1 Pass  5:  I=  13 to  14 NPSUse=  8 ParTrn=T ParDer=T DoDerP=T.
 JobTyp=1 Pass  6:  I=  15 to  16 NPSUse=  8 ParTrn=T ParDer=T DoDerP=T.
 JobTyp=1 Pass  7:  I=  17 to  17 NPSUse=  8 ParTrn=T ParDer=T DoDerP=T.
 Spin components of T(2) and E(2):
     alpha-alpha T2 =       0.3196745442D-01 E2=     -0.2094312865D-01
     alpha-beta  T2 =       0.2189379709D+00 E2=     -0.1514263287D+00
     beta-beta   T2 =       0.3196745442D-01 E2=     -0.2094312865D-01
 The integrals were generated   7 times.
 E2(B2PLYPD3) =    -0.1933125860D+00 E(B2PLYPD3) =    -0.15826976018090D+03
 Leave Link  906 at Wed Aug 19 17:46:12 2020, MaxMem=    65536000 cpu:        32.2
 (Enter /opt/cluster/programs/g09/g09_d.01/g09/l1002.exe)
 Minotr:  Closed shell wavefunction.
          Computing MP2/KS-MP2 derivatives.
          Using Z-Vector for PSCF gradient.
          Skipping F1 and S1 gradient terms here.
          IDoAtm=11111111111111
          Frozen-core window.
          Direct CPHF calculation.
          Differentiating once with respect to electric field.
                with respect to dipole field.
          Differentiating once with respect to nuclear coordinates.
          Requested convergence is 1.0D-10 RMS, and 1.0D-09 maximum.
          NewPWx=F KeepS1=T KeepF1=T KeepIn=T MapXYZ=F SortEE=F KeepMc=T.
          MDV=      65535750 using IRadAn=       0.
 Using stored XC quadrature information.
 Keep R1 ints in memory in canonical form, NReq=19572008.
 FoFCou: FMM=F IPFlag=           0 FMFlag=           0 FMFlg1=           0
         NFxFlg=           0 DoJE=F BraDBF=F KetDBF=F FulRan=T
         wScrn=  0.000000 ICntrl=     600 IOpCl=  0 I1Cent=           0 NGrid=           0
         NMat0=    1 NMatS0=   6105 NMatT0=    0 NMatD0=    1 NMtDS0=    0 NMtDT0=    0
 Symmetry not used in FoFCou.
          Solving linear equations separately, MaxMat=       0.
          There are     1 degrees of freedom in the 1st order CPHF.  IDoFFX=0 NUNeed=     1.
 LinEq1:  Iter=  0 NonCon=     1 RMS=1.04D-03 Max=8.89D-03 NDo=     1
 AX will form     1 AO Fock derivatives at one time.
 LinEq1:  Iter=  1 NonCon=     1 RMS=4.75D-04 Max=4.77D-03 NDo=     1
 LinEq1:  Iter=  2 NonCon=     1 RMS=6.67D-05 Max=8.06D-04 NDo=     1
 LinEq1:  Iter=  3 NonCon=     1 RMS=2.16D-05 Max=2.40D-04 NDo=     1
 LinEq1:  Iter=  4 NonCon=     1 RMS=4.84D-06 Max=4.58D-05 NDo=     1
 LinEq1:  Iter=  5 NonCon=     1 RMS=8.30D-07 Max=7.34D-06 NDo=     1
 LinEq1:  Iter=  6 NonCon=     1 RMS=1.27D-07 Max=1.40D-06 NDo=     1
 LinEq1:  Iter=  7 NonCon=     1 RMS=2.58D-08 Max=2.31D-07 NDo=     1
 LinEq1:  Iter=  8 NonCon=     1 RMS=3.20D-09 Max=4.56D-08 NDo=     1
 LinEq1:  Iter=  9 NonCon=     1 RMS=3.76D-10 Max=3.74D-09 NDo=     1
 LinEq1:  Iter= 10 NonCon=     0 RMS=5.45D-11 Max=4.65D-10 NDo=     1
 Linear equations converged to 1.000D-10 1.000D-09 after    10 iterations.
 End of Minotr F.D. properties file   721 does not exist.
 End of Minotr F.D. properties file   722 does not exist.
 End of Minotr F.D. properties file   788 does not exist.
 Leave Link 1002 at Wed Aug 19 17:46:15 2020, MaxMem=    65536000 cpu:        21.8
 (Enter /opt/cluster/programs/g09/g09_d.01/g09/l601.exe)
 Copying SCF densities to generalized density rwf, IOpCl= 0 IROHF=0.

 **********************************************************************

            Population analysis using the SCF density.

 **********************************************************************

 Orbital symmetries:
       Occupied  (A) (A) (A) (A) (A) (A) (A) (A) (A) (A) (A) (A)
                 (A) (A) (A) (A) (A)
       Virtual   (A) (A) (A) (A) (A) (A) (A) (A) (A) (A) (A) (A)
                 (A) (A) (A) (A) (A) (A) (A) (A) (A) (A) (A) (A)
                 (A) (A) (A) (A) (A) (A) (A) (A) (A) (A) (A) (A)
                 (A) (A) (A) (A) (A) (A) (A) (A) (A) (A) (A) (A)
                 (A) (A) (A) (A) (A) (A) (A) (A) (A) (A) (A) (A)
                 (A) (A) (A) (A) (A) (A) (A) (A) (A) (A) (A) (A)
                 (A) (A) (A) (A) (A) (A) (A) (A) (A) (A) (A) (A)
                 (A) (A) (A) (A) (A) (A) (A) (A) (A)
 The electronic state is 1-A.
 Alpha  occ. eigenvalues --  -10.60891 -10.60853 -10.60302 -10.60301  -0.90794
 Alpha  occ. eigenvalues --   -0.82833  -0.71972  -0.66075  -0.53834  -0.49039
 Alpha  occ. eigenvalues --   -0.47868  -0.47406  -0.42529  -0.40665  -0.38724
 Alpha  occ. eigenvalues --   -0.37907  -0.37007
 Alpha virt. eigenvalues --    0.15018   0.17805   0.19473   0.20522   0.23171
 Alpha virt. eigenvalues --    0.24906   0.24982   0.25186   0.26200   0.26275
 Alpha virt. eigenvalues --    0.32288   0.32641   0.33625   0.58029   0.58249
 Alpha virt. eigenvalues --    0.62583   0.63129   0.63651   0.70534   0.72268
 Alpha virt. eigenvalues --    0.77202   0.79693   0.86341   0.87083   0.93329
 Alpha virt. eigenvalues --    0.94757   0.97327   0.99420   1.00229   1.00884
 Alpha virt. eigenvalues --    1.01552   1.03877   1.04964   1.07622   1.10261
 Alpha virt. eigenvalues --    1.10309   1.40435   1.40594   1.46650   1.54375
 Alpha virt. eigenvalues --    1.57882   1.72807   1.75365   1.81465   1.82395
 Alpha virt. eigenvalues --    1.87928   1.95468   2.01061   2.05500   2.14376
 Alpha virt. eigenvalues --    2.17678   2.17800   2.19062   2.20344   2.22874
 Alpha virt. eigenvalues --    2.23401   2.26331   2.26580   2.36900   2.37874
 Alpha virt. eigenvalues --    2.41592   2.44026   2.47169   2.56034   2.56118
 Alpha virt. eigenvalues --    2.64319   2.67299   2.71099   2.80011   2.85861
 Alpha virt. eigenvalues --    2.86450   2.89450   2.92240   2.96580   3.00470
 Alpha virt. eigenvalues --    3.03106   3.06009   3.06582   3.09596   3.32496
 Alpha virt. eigenvalues --    3.36711   3.44304   3.47242   3.48017   3.58853
 Alpha virt. eigenvalues --    3.61673   3.65295   3.70626   3.73557   4.45996
 Alpha virt. eigenvalues --    4.60914   4.73149   4.87439
          Condensed to atoms (all electrons):
               1          2          3          4          5          6
     1  C    4.922891   0.360462   0.388897   0.393770   0.393764  -0.053021
     2  C    0.360462   4.902682  -0.033328  -0.037437  -0.037440   0.376770
     3  H    0.388897  -0.033328   0.605267  -0.030613  -0.030613   0.004857
     4  H    0.393770  -0.037437  -0.030613   0.602290  -0.032020  -0.005152
     5  H    0.393764  -0.037440  -0.030613  -0.032020   0.602297  -0.005151
     6  C   -0.053021   0.376770   0.004857  -0.005152  -0.005151   4.902682
     7  H   -0.040362   0.397044  -0.003290  -0.004480   0.005211  -0.041517
     8  H   -0.040353   0.397022  -0.003300   0.005211  -0.004469  -0.041485
     9  C    0.004834  -0.053022  -0.000176   0.000019   0.000019   0.360463
    10  H   -0.003528  -0.041484  -0.000031  -0.000236   0.004001   0.397021
    11  H   -0.003535  -0.041517  -0.000030   0.004004  -0.000237   0.397044
    12  H    0.000019  -0.005151   0.000001   0.000004   0.000004  -0.037440
    13  H   -0.000176   0.004857   0.000002   0.000001   0.000001  -0.033328
    14  H    0.000019  -0.005152   0.000001   0.000004   0.000004  -0.037437
               7          8          9         10         11         12
     1  C   -0.040362  -0.040353   0.004834  -0.003528  -0.003535   0.000019
     2  C    0.397044   0.397022  -0.053022  -0.041484  -0.041517  -0.005151
     3  H   -0.003290  -0.003300  -0.000176  -0.000031  -0.000030   0.000001
     4  H   -0.004480   0.005211   0.000019  -0.000236   0.004004   0.000004
     5  H    0.005211  -0.004469   0.000019   0.004001  -0.000237   0.000004
     6  C   -0.041517  -0.041485   0.360463   0.397021   0.397044  -0.037440
     7  H    0.625075  -0.036660  -0.003535   0.005478  -0.004884  -0.000237
     8  H   -0.036660   0.625067  -0.003528  -0.004908   0.005478   0.004001
     9  C   -0.003535  -0.003528   4.922891  -0.040354  -0.040362   0.393765
    10  H    0.005478  -0.004908  -0.040354   0.625070  -0.036660  -0.004469
    11  H   -0.004884   0.005478  -0.040362  -0.036660   0.625075   0.005212
    12  H   -0.000237   0.004001   0.393765  -0.004469   0.005212   0.602296
    13  H   -0.000030  -0.000031   0.388897  -0.003300  -0.003291  -0.030613
    14  H    0.004004  -0.000236   0.393769   0.005211  -0.004480  -0.032020
              13         14
     1  C   -0.000176   0.000019
     2  C    0.004857  -0.005152
     3  H    0.000002   0.000001
     4  H    0.000001   0.000004
     5  H    0.000001   0.000004
     6  C   -0.033328  -0.037437
     7  H   -0.000030   0.004004
     8  H   -0.000031  -0.000236
     9  C    0.388897   0.393769
    10  H   -0.003300   0.005211
    11  H   -0.003291  -0.004480
    12  H   -0.030613  -0.032020
    13  H    0.605269  -0.030613
    14  H   -0.030613   0.602292
 Mulliken charges:
               1
     1  C   -0.323682
     2  C   -0.184307
     3  H    0.102355
     4  H    0.104634
     5  H    0.104627
     6  C   -0.184306
     7  H    0.098182
     8  H    0.098191
     9  C   -0.323681
    10  H    0.098189
    11  H    0.098182
    12  H    0.104628
    13  H    0.102354
    14  H    0.104633
 Sum of Mulliken charges =   0.00000
 Mulliken charges with hydrogens summed into heavy atoms:
               1
     1  C   -0.012066
     2  C    0.012067
     6  C    0.012065
     9  C   -0.012066
 Electronic spatial extent (au):  <R**2>=            418.5762
 Charge=              0.0000 electrons
 Dipole moment (field-independent basis, Debye):
    X=              0.0000    Y=              0.0000    Z=             -0.0001  Tot=              0.0001
 Quadrupole moment (field-independent basis, Debye-Ang):
   XX=            -29.2784   YY=            -28.3413   ZZ=            -27.7585
   XY=             -0.3133   XZ=              0.0000   YZ=              0.0000
 Traceless Quadrupole moment (field-independent basis, Debye-Ang):
   XX=             -0.8190   YY=              0.1181   ZZ=              0.7009
   XY=             -0.3133   XZ=              0.0000   YZ=              0.0000
 Octapole moment (field-independent basis, Debye-Ang**2):
  XXX=             -0.0001  YYY=              0.0000  ZZZ=              0.0013  XYY=              0.0000
  XXY=              0.0000  XXZ=             -0.0019  XZZ=              0.0000  YZZ=              0.0000
  YYZ=             -0.0012  XYZ=             -0.0001
 Hexadecapole moment (field-independent basis, Debye-Ang**3):
 XXXX=           -445.5674 YYYY=            -89.1018 ZZZZ=            -56.7591 XXXY=             -6.0749
 XXXZ=              0.0002 YYYX=             -1.1180 YYYZ=              0.0000 ZZZX=              0.0001
 ZZZY=              0.0000 XXYY=            -85.5305 XXZZ=            -82.1924 YYZZ=            -22.1362
 XXYZ=              0.0000 YYXZ=              0.0000 ZZXY=              1.6910
 N-N= 1.311570925048D+02 E-N=-6.277723273814D+02  KE= 1.570539849372D+02
 No NMR shielding tensors so no spin-rotation constants.
 Leave Link  601 at Wed Aug 19 17:46:22 2020, MaxMem=    65536000 cpu:         0.8
 (Enter /opt/cluster/programs/g09/g09_d.01/g09/l701.exe)
 Compute integral first derivatives.
 ... and contract with generalized density number  2.
 R6Disp: Adding Grimme-D3(BJ) dispersion energy 1st derivatives to the gradient.
 Leave Link  701 at Wed Aug 19 17:46:22 2020, MaxMem=    65536000 cpu:         0.9
 (Enter /opt/cluster/programs/g09/g09_d.01/g09/l702.exe)
 L702 exits ... SP integral derivatives will be done elsewhere.
 Leave Link  702 at Wed Aug 19 17:46:22 2020, MaxMem=    65536000 cpu:         0.1
 (Enter /opt/cluster/programs/g09/g09_d.01/g09/l703.exe)
 Compute integral first derivatives, UseDBF=F ICtDFT=           0.
 Integral derivatives from FoFJK, PRISM(SPDF).
 Calling FoFJK, ICntrl=  10002127 FMM=F ISym2X=0 I1Cent= 0 IOpClX= 0 NMat=1 NMatS=1 NMatT=0.
 FoFJK:  IHMeth= 1 ICntrl=10002127 DoSepK=F KAlg= 0 I1Cent=   0 FoldK=F
 IRaf=         0 NMat=   1 IRICut=       1 DoRegI=T DoRafI=F ISym2E= 0.
 FoFCou: FMM=F IPFlag=           0 FMFlag=      100000 FMFlg1=         800
         NFxFlg=           0 DoJE=F BraDBF=F KetDBF=F FulRan=T
         wScrn=  0.000000 ICntrl=10002127 IOpCl=  0 I1Cent=           0 NGrid=           0
         NMat0=    1 NMatS0=      1 NMatT0=    0 NMatD0=    1 NMtDS0=    0 NMtDT0=    0
 Symmetry not used in FoFCou.
 Leave Link  703 at Wed Aug 19 17:46:23 2020, MaxMem=    65536000 cpu:         5.8
 (Enter /opt/cluster/programs/g09/g09_d.01/g09/l716.exe)
 Dipole        =-1.93584647D-07-2.20383543D-06-2.77976648D-05
 ***** Axes restored to original set *****
 -------------------------------------------------------------------
 Center     Atomic                   Forces (Hartrees/Bohr)
 Number     Number              X              Y              Z
 -------------------------------------------------------------------
      1        6          -0.006655500   -0.001917405    0.000079625
      2        6          -0.001167434    0.006149990   -0.000173449
      3        1          -0.000430878    0.003062815   -0.000089959
      4        1          -0.000409423   -0.000261502    0.001733666
      5        1          -0.000422082   -0.000372066   -0.001709910
      6        6           0.001165734   -0.006143459    0.000179896
      7        1           0.001673944   -0.000336535    0.001401437
      8        1           0.001663205   -0.000424133   -0.001393090
      9        6           0.006660718    0.001916448   -0.000084056
     10        1          -0.001673950    0.000339765   -0.001406605
     11        1          -0.001664398    0.000417355    0.001391178
     12        1           0.000409453    0.000269104   -0.001728252
     13        1           0.000429003   -0.003063105    0.000085282
     14        1           0.000421608    0.000362729    0.001714238
 -------------------------------------------------------------------
 Cartesian Forces:  Max     0.006660718 RMS     0.002319789
 Leave Link  716 at Wed Aug 19 17:46:24 2020, MaxMem=    65536000 cpu:         0.2
 (Enter /opt/cluster/programs/g09/g09_d.01/g09/l103.exe)

 GradGradGradGradGradGradGradGradGradGradGradGradGradGradGradGradGradGrad
 Berny optimization.
 FormGI is forming the generalized inverse of G from B-inverse, IUseBI=4.
 Internal  Forces:  Max     0.006712639 RMS     0.002135413
 Search for a local minimum.
 Step number   1 out of a maximum of   74
 All quantities printed in internal units (Hartrees-Bohrs-Radians)
 RMS Force = .21354D-02 SwitMx=.10000D-02 MixMth= 1
 Mixed Optimization -- RFO/linear search
 Second derivative matrix not updated -- first step.
 ITU=  0
     Eigenvalues ---    0.00404   0.00497   0.00497   0.03726   0.03726
     Eigenvalues ---    0.04933   0.04933   0.05608   0.05608   0.05703
     Eigenvalues ---    0.05703   0.08172   0.08172   0.12070   0.12071
     Eigenvalues ---    0.16000   0.16000   0.16000   0.16000   0.16000
     Eigenvalues ---    0.16000   0.21905   0.21905   0.29669   0.30333
     Eigenvalues ---    0.30333   0.34099   0.34100   0.34100   0.34100
     Eigenvalues ---    0.34276   0.34276   0.34277   0.34277   0.34298
     Eigenvalues ---    0.34298
 RFO step:  Lambda=-1.61389432D-03 EMin= 4.04111481D-03
 Linear search not attempted -- first point.
 Iteration  1 RMS(Cart)=  0.02527850 RMS(Int)=  0.00020697
 Iteration  2 RMS(Cart)=  0.00023022 RMS(Int)=  0.00015984
 Iteration  3 RMS(Cart)=  0.00000005 RMS(Int)=  0.00015984
 ITry= 1 IFail=0 DXMaxC= 7.16D-02 DCOld= 1.00D+10 DXMaxT= 3.00D-01 DXLimC= 3.00D+00 Rises=F
 Variable       Old X    -DE/DX   Delta X   Delta X   Delta X     New X
                                 (Linear)    (Quad)   (Total)
    R1        2.87305   0.00671   0.00000   0.02200   0.02200   2.89505
    R2        2.06829  -0.00135   0.00000  -0.00391  -0.00391   2.06439
    R3        2.06866  -0.00157   0.00000  -0.00457  -0.00457   2.06409
    R4        2.06867  -0.00158   0.00000  -0.00458  -0.00458   2.06409
    R5        2.88628   0.00167   0.00000   0.00560   0.00560   2.89188
    R6        2.07162  -0.00094   0.00000  -0.00274  -0.00274   2.06887
    R7        2.07161  -0.00094   0.00000  -0.00274  -0.00274   2.06887
    R8        2.87303   0.00671   0.00000   0.02201   0.02201   2.89505
    R9        2.07163  -0.00094   0.00000  -0.00275  -0.00275   2.06887
   R10        2.07162  -0.00094   0.00000  -0.00274  -0.00274   2.06887
   R11        2.06866  -0.00157   0.00000  -0.00457  -0.00457   2.06409
   R12        2.06830  -0.00135   0.00000  -0.00391  -0.00391   2.06439
   R13        2.06866  -0.00158   0.00000  -0.00458  -0.00458   2.06409
    A1        1.92443   0.00392   0.00000   0.02780   0.02770   1.95213
    A2        1.93730   0.00018   0.00000  -0.00067  -0.00072   1.93658
    A3        1.93737   0.00017   0.00000  -0.00072  -0.00078   1.93659
    A4        1.88633  -0.00175   0.00000  -0.00744  -0.00753   1.87881
    A5        1.88637  -0.00175   0.00000  -0.00747  -0.00756   1.87881
    A6        1.89038  -0.00095   0.00000  -0.01253  -0.01255   1.87783
    A7        1.94593   0.00631   0.00000   0.03417   0.03409   1.98002
    A8        1.90507  -0.00078   0.00000   0.00702   0.00716   1.91223
    A9        1.90512  -0.00078   0.00000   0.00698   0.00712   1.91224
   A10        1.91762  -0.00269   0.00000  -0.01687  -0.01727   1.90035
   A11        1.91752  -0.00269   0.00000  -0.01681  -0.01720   1.90032
   A12        1.87098   0.00041   0.00000  -0.01622  -0.01655   1.85443
   A13        1.94593   0.00631   0.00000   0.03417   0.03409   1.98002
   A14        1.91752  -0.00269   0.00000  -0.01681  -0.01721   1.90032
   A15        1.91762  -0.00269   0.00000  -0.01688  -0.01727   1.90035
   A16        1.90511  -0.00078   0.00000   0.00699   0.00712   1.91224
   A17        1.90507  -0.00078   0.00000   0.00702   0.00716   1.91223
   A18        1.87097   0.00041   0.00000  -0.01622  -0.01655   1.85443
   A19        1.93738   0.00017   0.00000  -0.00072  -0.00078   1.93660
   A20        1.92444   0.00392   0.00000   0.02779   0.02769   1.95213
   A21        1.93730   0.00018   0.00000  -0.00066  -0.00072   1.93658
   A22        1.88636  -0.00175   0.00000  -0.00746  -0.00755   1.87881
   A23        1.89038  -0.00095   0.00000  -0.01253  -0.01255   1.87783
   A24        1.88633  -0.00175   0.00000  -0.00743  -0.00752   1.87881
    D1       -3.14104   0.00000   0.00000  -0.00017  -0.00017  -3.14121
    D2        1.02041  -0.00020   0.00000  -0.00591  -0.00603   1.01438
    D3       -1.01941   0.00020   0.00000   0.00564   0.00576  -1.01365
    D4        1.05233  -0.00049   0.00000  -0.00859  -0.00861   1.04372
    D5       -1.06941  -0.00068   0.00000  -0.01434  -0.01448  -1.08388
    D6       -3.10922  -0.00029   0.00000  -0.00279  -0.00268  -3.11191
    D7       -1.05114   0.00048   0.00000   0.00819   0.00821  -1.04294
    D8        3.11031   0.00029   0.00000   0.00244   0.00234   3.11265
    D9        1.07049   0.00068   0.00000   0.01399   0.01413   1.08462
   D10       -3.14044   0.00000   0.00000  -0.00051  -0.00051  -3.14095
   D11        1.02832  -0.00136   0.00000  -0.02047  -0.02028   1.00804
   D12       -1.02600   0.00136   0.00000   0.01945   0.01926  -1.00674
   D13       -1.02600   0.00136   0.00000   0.01946   0.01926  -1.00675
   D14       -3.14043   0.00000   0.00000  -0.00051  -0.00051  -3.14094
   D15        1.08844   0.00272   0.00000   0.03942   0.03903   1.12746
   D16        1.02832  -0.00136   0.00000  -0.02047  -0.02028   1.00805
   D17       -1.08610  -0.00272   0.00000  -0.04043  -0.04004  -1.12614
   D18       -3.14042   0.00000   0.00000  -0.00051  -0.00051  -3.14093
   D19       -1.05114   0.00048   0.00000   0.00819   0.00821  -1.04294
   D20       -3.14104   0.00000   0.00000  -0.00017  -0.00017  -3.14121
   D21        1.05233  -0.00049   0.00000  -0.00859  -0.00861   1.04372
   D22        1.07050   0.00068   0.00000   0.01399   0.01413   1.08462
   D23       -1.01940   0.00020   0.00000   0.00563   0.00575  -1.01365
   D24       -3.10921  -0.00029   0.00000  -0.00279  -0.00269  -3.11190
   D25        3.11030   0.00029   0.00000   0.00244   0.00234   3.11265
   D26        1.02041  -0.00020   0.00000  -0.00591  -0.00603   1.01437
   D27       -1.06941  -0.00068   0.00000  -0.01434  -0.01448  -1.08388
         Item               Value     Threshold  Converged?
 Maximum Force            0.006713     0.000450     NO 
 RMS     Force            0.002135     0.000300     NO 
 Maximum Displacement     0.071564     0.001800     NO 
 RMS     Displacement     0.025139     0.001200     NO 
 Predicted change in Energy=-8.125485D-04
 Lowest energy point so far.  Saving SCF results.
 GradGradGradGradGradGradGradGradGradGradGradGradGradGradGradGradGradGrad

 Leave Link  103 at Wed Aug 19 17:46:24 2020, MaxMem=    65536000 cpu:         0.8
 (Enter /opt/cluster/programs/g09/g09_d.01/g09/l202.exe)
                          Input orientation:                          
 ---------------------------------------------------------------------
 Center     Atomic      Atomic             Coordinates (Angstroms)
 Number     Number       Type             X           Y           Z
 ---------------------------------------------------------------------
      1          6           0       -3.958097    0.267192    0.017251
      2          6           0       -2.704977   -0.613842    0.038985
      3          1           0       -4.873930   -0.327961    0.038218
      4          1           0       -3.985462    0.885410   -0.882807
      5          1           0       -3.979187    0.937827    0.879140
      6          6           0       -1.399274    0.183805    0.011147
      7          1           0       -2.721671   -1.296136   -0.817044
      8          1           0       -2.715789   -1.244589    0.933764
      9          6           0       -0.146158   -0.697255    0.031982
     10          1           0       -1.382315    0.865604    0.867565
     11          1           0       -1.388727    0.815071   -0.883269
     12          1           0       -0.118882   -1.316548    0.931304
     13          1           0        0.769679   -0.102078    0.011818
     14          1           0       -0.124978   -1.366859   -0.830705
 ---------------------------------------------------------------------
                    Distance matrix (angstroms):
                    1          2          3          4          5
     1  C    0.000000
     2  C    1.531993   0.000000
     3  H    1.092427   2.187713   0.000000
     4  H    1.092267   2.176488   1.763500   0.000000
     5  H    1.092268   2.176499   1.763501   1.762738   0.000000
     6  C    2.560188   1.530319   3.512246   2.824849   2.824519
     7  H    2.160739   1.094801   2.510190   2.522030   3.073919
     8  H    2.160742   1.094800   2.509937   3.073906   2.522320
     9  C    3.932080   2.560188   4.742178   4.252284   4.252444
    10  H    2.777729   2.150521   3.782035   3.136967   2.597901
    11  H    2.777187   2.150549   3.781838   2.597687   3.135544
    12  H    4.252447   2.824521   4.938157   4.805212   4.470669
    13  H    4.742178   3.512246   5.648189   4.938304   4.938155
    14  H    4.252288   2.824852   4.938307   4.469761   4.805213
                    6          7          8          9         10
     6  C    0.000000
     7  H    2.150549   0.000000
     8  H    2.150521   1.751576   0.000000
     9  C    1.531992   2.777188   2.777731   0.000000
    10  H    1.094801   3.050393   2.497088   2.160743   0.000000
    11  H    1.094801   2.497663   3.050394   2.160739   1.751574
    12  H    2.176500   3.135547   2.597906   1.092268   2.522324
    13  H    2.187713   3.781840   3.782037   1.092428   2.509938
    14  H    2.176489   2.597692   3.136973   1.092267   3.073907
                   11         12         13         14
    11  H    0.000000
    12  H    3.073921   0.000000
    13  H    2.510191   1.763500   0.000000
    14  H    2.522032   1.762738   1.763498   0.000000
 Stoichiometry    C4H10
 Framework group  C1[X(C4H10)]
 Deg. of freedom    36
 Full point group                 C1      NOp   1
 RotChk:  IX=0 Diff= 1.79D-03
 Largest Abelian subgroup         C1      NOp   1
 Largest concise Abelian subgroup C1      NOp   1
                         Standard orientation:                         
 ---------------------------------------------------------------------
 Center     Atomic      Atomic             Coordinates (Angstroms)
 Number     Number       Type             X           Y           Z
 ---------------------------------------------------------------------
      1          6           0        1.962395    0.119674    0.000212
      2          6           0        0.567334   -0.513421   -0.000238
      3          1           0        2.751630   -0.635645   -0.000188
      4          1           0        2.105942    0.748128    0.881964
      5          1           0        2.106050    0.749178   -0.880774
      6          6           0       -0.567334    0.513420   -0.000238
      7          1           0        0.458626   -1.161568    0.875364
      8          1           0        0.458981   -1.161120   -0.876213
      9          6           0       -1.962394   -0.119673    0.000212
     10          1           0       -0.458979    1.161120   -0.876213
     11          1           0       -0.458625    1.161570    0.875362
     12          1           0       -2.106053   -0.749179   -0.880772
     13          1           0       -2.751630    0.635645   -0.000190
     14          1           0       -2.105945   -0.748125    0.881965
 ---------------------------------------------------------------------
 Rotational constants (GHZ):     23.6148305      3.6004437      3.3845479
 Leave Link  202 at Wed Aug 19 17:46:24 2020, MaxMem=    65536000 cpu:         0.0
 (Enter /opt/cluster/programs/g09/g09_d.01/g09/l301.exe)
 Standard basis: 6-31G(d,p) (6D, 7F)
 Ernie: Thresh=  0.10000D-02 Tol=  0.10000D-05 Strict=F.
 There are   110 symmetry adapted cartesian basis functions of A   symmetry.
 There are   110 symmetry adapted basis functions of A   symmetry.
   110 basis functions,   182 primitive gaussians,   110 cartesian basis functions
    17 alpha electrons       17 beta electrons
       nuclear repulsion energy       130.3855762306 Hartrees.
 IExCor=  419 DFT=T Ex+Corr=B2PLYPD3 ExCW=0 ScaHFX=  0.530000
 ScaDFX=  0.470000  0.470000  0.730000  0.730000 ScalE2=  0.270000  0.270000
 IRadAn=      0 IRanWt=     -1 IRanGd=            0 ICorTp=0 IEmpDi=141
 NAtoms=   14 NActive=   14 NUniq=   14 SFac= 1.00D+00 NAtFMM=   60 NAOKFM=F Big=F
 Integral buffers will be    131072 words long.
 Regular integral format.
 Two-electron integral symmetry is turned on.
 R6Disp:  Grimme-D3(BJ) Dispersion energy=       -0.0064065703 Hartrees.
 Nuclear repulsion after empirical dispersion term =      130.3791696602 Hartrees.
 Leave Link  301 at Wed Aug 19 17:46:24 2020, MaxMem=    65536000 cpu:         0.3
 (Enter /opt/cluster/programs/g09/g09_d.01/g09/l302.exe)
 NPDir=0 NMtPBC=     1 NCelOv=     1 NCel=       1 NClECP=     1 NCelD=      1
         NCelK=      1 NCelE2=     1 NClLst=     1 CellRange=     0.0.
 One-electron integrals computed using PRISM.
 NBasis=   110 RedAO= T EigKep=  4.50D-03  NBF=   110
 NBsUse=   110 1.00D-06 EigRej= -1.00D+00 NBFU=   110
 Precomputing XC quadrature grid using
 IXCGrd= 4 IRadAn=           0 IRanWt=          -1 IRanGd=           0 AccXCQ= 0.00D+00.
 Generated NRdTot=       0 NPtTot=           0 NUsed=           0 NTot=          32
 NSgBfM=   110   110   110   110   110 MxSgAt=    14 MxSgA2=    14.
 Leave Link  302 at Wed Aug 19 17:46:25 2020, MaxMem=    65536000 cpu:         1.0
 (Enter /opt/cluster/programs/g09/g09_d.01/g09/l303.exe)
 DipDrv:  MaxL=1.
 Leave Link  303 at Wed Aug 19 17:46:25 2020, MaxMem=    65536000 cpu:         0.1
 (Enter /opt/cluster/programs/g09/g09_d.01/g09/l401.exe)
 Initial guess from the checkpoint file:  "butane_opt.chk"
 B after Tr=     0.000000    0.000000    0.000000
         Rot=    1.000000    0.000002    0.000000    0.000545 Ang=   0.06 deg.
 Guess basis will be translated and rotated to current coordinates.
 JPrj=2 DoOrth=T DoCkMO=T.
 Generating alternative initial guess.
 ExpMin= 1.61D-01 ExpMax= 3.05D+03 ExpMxC= 4.57D+02 IAcc=1 IRadAn=         1 AccDes= 0.00D+00
 Harris functional with IExCor=  419 and IRadAn=       1 diagonalized for initial guess.
 HarFok:  IExCor=  419 AccDes= 0.00D+00 IRadAn=         1 IDoV= 1 UseB2=F ITyADJ=14
 ICtDFT=  3500011 ScaDFX=  1.000000  1.000000  1.000000  1.000000
 FoFCou: FMM=F IPFlag=           0 FMFlag=      100000 FMFlg1=           0
         NFxFlg=           0 DoJE=T BraDBF=F KetDBF=T FulRan=T
         wScrn=  0.000000 ICntrl=     500 IOpCl=  0 I1Cent=   200000004 NGrid=           0
         NMat0=    1 NMatS0=      1 NMatT0=    0 NMatD0=    1 NMtDS0=    0 NMtDT0=    0
 Petite list used in FoFCou.
 Harris En= -158.553985310872    
 Leave Link  401 at Wed Aug 19 17:46:25 2020, MaxMem=    65536000 cpu:         1.7
 (Enter /opt/cluster/programs/g09/g09_d.01/g09/l502.exe)
 Closed shell SCF:
 Using DIIS extrapolation, IDIIS=  1040.
 Integral symmetry usage will be decided dynamically.
 Keep R1 ints in memory in canonical form, NReq=19626929.
 IVT=       56574 IEndB=       56574 NGot=    65536000 MDV=    46840862
 LenX=    46840862 LenY=    46828321
 Requested convergence on RMS density matrix=1.00D-08 within 128 cycles.
 Requested convergence on MAX density matrix=1.00D-06.
 Requested convergence on             energy=1.00D-06.
 No special actions if energy rises.
 FoFCou: FMM=F IPFlag=           0 FMFlag=           0 FMFlg1=           0
         NFxFlg=           0 DoJE=F BraDBF=F KetDBF=F FulRan=T
         wScrn=  0.000000 ICntrl=     600 IOpCl=  0 I1Cent=           0 NGrid=           0
         NMat0=    1 NMatS0=   6105 NMatT0=    0 NMatD0=    1 NMtDS0=    0 NMtDT0=    0
 Symmetry not used in FoFCou.
 Integral accuracy reduced to 1.0D-05 until final iterations.

 Cycle   1  Pass 0  IDiag  1:
 E= -158.076876205537    
 DIIS: error= 1.34D-03 at cycle   1 NSaved=   1.
 NSaved= 1 IEnMin= 1 EnMin= -158.076876205537     IErMin= 1 ErrMin= 1.34D-03
 ErrMax= 1.34D-03  0.00D+00 EMaxC= 1.00D-01 BMatC= 1.63D-04 BMatP= 1.63D-04
 IDIUse=3 WtCom= 9.87D-01 WtEn= 1.34D-02
 Coeff-Com:  0.100D+01
 Coeff-En:   0.100D+01
 Coeff:      0.100D+01
 Gap=     2.343 Goal=   None    Shift=    0.000
 GapD=    2.343 DampG=2.000 DampE=1.000 DampFc=2.0000 IDamp=-1.
 RMSDP=1.36D-04 MaxDP=1.38D-03              OVMax= 3.95D-03

 Cycle   2  Pass 0  IDiag  1:
 E= -158.077070559146     Delta-E=       -0.000194353609 Rises=F Damp=F
 DIIS: error= 2.00D-04 at cycle   2 NSaved=   2.
 NSaved= 2 IEnMin= 2 EnMin= -158.077070559146     IErMin= 2 ErrMin= 2.00D-04
 ErrMax= 2.00D-04  0.00D+00 EMaxC= 1.00D-01 BMatC= 3.88D-06 BMatP= 1.63D-04
 IDIUse=3 WtCom= 9.98D-01 WtEn= 2.00D-03
 Coeff-Com: -0.232D-01 0.102D+01
 Coeff-En:   0.000D+00 0.100D+01
 Coeff:     -0.232D-01 0.102D+01
 Gap=     0.526 Goal=   None    Shift=    0.000
 RMSDP=2.73D-05 MaxDP=3.46D-04 DE=-1.94D-04 OVMax= 7.94D-04

 Cycle   3  Pass 0  IDiag  1:
 E= -158.077075105023     Delta-E=       -0.000004545876 Rises=F Damp=F
 DIIS: error= 7.50D-05 at cycle   3 NSaved=   3.
 NSaved= 3 IEnMin= 3 EnMin= -158.077075105023     IErMin= 3 ErrMin= 7.50D-05
 ErrMax= 7.50D-05  0.00D+00 EMaxC= 1.00D-01 BMatC= 6.65D-07 BMatP= 3.88D-06
 IDIUse=1 WtCom= 1.00D+00 WtEn= 0.00D+00
 Coeff-Com: -0.276D-01 0.252D+00 0.776D+00
 Coeff:     -0.276D-01 0.252D+00 0.776D+00
 Gap=     0.526 Goal=   None    Shift=    0.000
 RMSDP=8.98D-06 MaxDP=1.55D-04 DE=-4.55D-06 OVMax= 2.44D-04

 Initial convergence to 1.0D-05 achieved.  Increase integral accuracy.
 Cycle   4  Pass 1  IDiag  1:
 E= -158.077094927547     Delta-E=       -0.000019822525 Rises=F Damp=F
 DIIS: error= 3.67D-05 at cycle   1 NSaved=   1.
 NSaved= 1 IEnMin= 1 EnMin= -158.077094927547     IErMin= 1 ErrMin= 3.67D-05
 ErrMax= 3.67D-05  0.00D+00 EMaxC= 1.00D-01 BMatC= 9.32D-08 BMatP= 9.32D-08
 IDIUse=1 WtCom= 1.00D+00 WtEn= 0.00D+00
 Coeff-Com:  0.100D+01
 Coeff:      0.100D+01
 Gap=     0.526 Goal=   None    Shift=    0.000
 RMSDP=8.98D-06 MaxDP=1.55D-04 DE=-1.98D-05 OVMax= 1.28D-04

 Cycle   5  Pass 1  IDiag  1:
 E= -158.077094962931     Delta-E=       -0.000000035383 Rises=F Damp=F
 DIIS: error= 2.79D-05 at cycle   2 NSaved=   2.
 NSaved= 2 IEnMin= 2 EnMin= -158.077094962931     IErMin= 2 ErrMin= 2.79D-05
 ErrMax= 2.79D-05  0.00D+00 EMaxC= 1.00D-01 BMatC= 6.19D-08 BMatP= 9.32D-08
 IDIUse=1 WtCom= 1.00D+00 WtEn= 0.00D+00
 Coeff-Com:  0.447D+00 0.553D+00
 Coeff:      0.447D+00 0.553D+00
 Gap=     0.526 Goal=   None    Shift=    0.000
 RMSDP=1.95D-06 MaxDP=4.00D-05 DE=-3.54D-08 OVMax= 5.42D-05

 Cycle   6  Pass 1  IDiag  1:
 E= -158.077095023316     Delta-E=       -0.000000060385 Rises=F Damp=F
 DIIS: error= 1.27D-06 at cycle   3 NSaved=   3.
 NSaved= 3 IEnMin= 3 EnMin= -158.077095023316     IErMin= 3 ErrMin= 1.27D-06
 ErrMax= 1.27D-06  0.00D+00 EMaxC= 1.00D-01 BMatC= 1.40D-10 BMatP= 6.19D-08
 IDIUse=1 WtCom= 1.00D+00 WtEn= 0.00D+00
 Coeff-Com: -0.484D-01-0.246D-01 0.107D+01
 Coeff:     -0.484D-01-0.246D-01 0.107D+01
 Gap=     0.526 Goal=   None    Shift=    0.000
 RMSDP=2.54D-07 MaxDP=3.49D-06 DE=-6.04D-08 OVMax= 5.66D-06

 Cycle   7  Pass 1  IDiag  1:
 E= -158.077095023555     Delta-E=       -0.000000000240 Rises=F Damp=F
 DIIS: error= 2.81D-07 at cycle   4 NSaved=   4.
 NSaved= 4 IEnMin= 4 EnMin= -158.077095023555     IErMin= 4 ErrMin= 2.81D-07
 ErrMax= 2.81D-07  0.00D+00 EMaxC= 1.00D-01 BMatC= 7.70D-12 BMatP= 1.40D-10
 IDIUse=1 WtCom= 1.00D+00 WtEn= 0.00D+00
 Coeff-Com: -0.185D-01-0.172D-01 0.159D+00 0.876D+00
 Coeff:     -0.185D-01-0.172D-01 0.159D+00 0.876D+00
 Gap=     0.526 Goal=   None    Shift=    0.000
 RMSDP=3.92D-08 MaxDP=6.47D-07 DE=-2.40D-10 OVMax= 1.07D-06

 Cycle   8  Pass 1  IDiag  1:
 E= -158.077095023567     Delta-E=       -0.000000000012 Rises=F Damp=F
 DIIS: error= 9.87D-08 at cycle   5 NSaved=   5.
 NSaved= 5 IEnMin= 5 EnMin= -158.077095023567     IErMin= 5 ErrMin= 9.87D-08
 ErrMax= 9.87D-08  0.00D+00 EMaxC= 1.00D-01 BMatC= 1.16D-12 BMatP= 7.70D-12
 IDIUse=1 WtCom= 1.00D+00 WtEn= 0.00D+00
 Coeff-Com: -0.254D-02-0.355D-02-0.186D-01 0.269D+00 0.756D+00
 Coeff:     -0.254D-02-0.355D-02-0.186D-01 0.269D+00 0.756D+00
 Gap=     0.526 Goal=   None    Shift=    0.000
 RMSDP=1.24D-08 MaxDP=2.33D-07 DE=-1.19D-11 OVMax= 3.18D-07

 Cycle   9  Pass 1  IDiag  1:
 E= -158.077095023566     Delta-E=        0.000000000001 Rises=F Damp=F
 DIIS: error= 1.66D-08 at cycle   6 NSaved=   6.
 NSaved= 6 IEnMin= 5 EnMin= -158.077095023567     IErMin= 6 ErrMin= 1.66D-08
 ErrMax= 1.66D-08  0.00D+00 EMaxC= 1.00D-01 BMatC= 3.67D-14 BMatP= 1.16D-12
 IDIUse=1 WtCom= 1.00D+00 WtEn= 0.00D+00
 Coeff-Com:  0.817D-03 0.537D-03-0.142D-01-0.222D-01 0.122D+00 0.913D+00
 Coeff:      0.817D-03 0.537D-03-0.142D-01-0.222D-01 0.122D+00 0.913D+00
 Gap=     0.526 Goal=   None    Shift=    0.000
 RMSDP=2.98D-09 MaxDP=4.10D-08 DE= 1.25D-12 OVMax= 7.48D-08

 SCF Done:  E(RB2PLYPD3) =  -158.077095024     A.U. after    9 cycles
            NFock=  9  Conv=0.30D-08     -V/T= 2.0067
 KE= 1.570205123840D+02 PE=-6.261803491502D+02 EE= 1.807035720824D+02
 Leave Link  502 at Wed Aug 19 17:46:27 2020, MaxMem=    65536000 cpu:        11.7
 (Enter /opt/cluster/programs/g09/g09_d.01/g09/l801.exe)
 DoSCS=T DFT=T ScalE2(SS,OS)=  0.270000  0.270000
 ExpMin= 1.61D-01 ExpMax= 3.05D+03 ExpMxC= 4.57D+02 IAcc=3 IRadAn=         5 AccDes= 0.00D+00
 HarFok:  IExCor=  205 AccDes= 0.00D+00 IRadAn=         5 IDoV=-2 UseB2=F ITyADJ=14
 ICtDFT= 12500011 ScaDFX=  1.000000  1.000000  1.000000  1.000000
 Largest valence mixing into a core orbital is  1.08D-04
 Largest core mixing into a valence orbital is  1.88D-05
 Range of M.O.s used for correlation:     5   110
 NBasis=   110 NAE=    17 NBE=    17 NFC=     4 NFV=     0
 NROrb=    106 NOA=    13 NOB=    13 NVA=    93 NVB=    93
 Leave Link  801 at Wed Aug 19 17:46:27 2020, MaxMem=    65536000 cpu:         0.6
 (Enter /opt/cluster/programs/g09/g09_d.01/g09/l906.exe)
 DoSCS=T DFT=T ScalE2(SS,OS)=  0.270000  0.270000
 Frozen-core derivative calculation, NFC=   4 NFV=   0.
 FulOut=F Deriv=T AODrv=T NAtomX=    14
   MMem=          97  MDisk=          13 MDiskD=          13
  W3Min=      205700 MinDsk=      360475 NBas6D=         110
 NBas2D=        6243    NTT=        6105    LW2=     2040000
    MDV=    65372135 MDiskM=        8001 NBas2p=        6050
 Fully direct method using O(ONN) memory.
 IMap=   1   2   3   4   5   6   7   8   9  10  11  12  13  14  15  16  17
 JobTyp=1 Pass  1:  I=   5 to   6 NPSUse=  8 ParTrn=T ParDer=T DoDerP=T.
 JobTyp=1 Pass  2:  I=   7 to   8 NPSUse=  8 ParTrn=T ParDer=T DoDerP=T.
 JobTyp=1 Pass  3:  I=   9 to  10 NPSUse=  8 ParTrn=T ParDer=T DoDerP=T.
 JobTyp=1 Pass  4:  I=  11 to  12 NPSUse=  8 ParTrn=T ParDer=T DoDerP=T.
 JobTyp=1 Pass  5:  I=  13 to  14 NPSUse=  8 ParTrn=T ParDer=T DoDerP=T.
 JobTyp=1 Pass  6:  I=  15 to  16 NPSUse=  8 ParTrn=T ParDer=T DoDerP=T.
 JobTyp=1 Pass  7:  I=  17 to  17 NPSUse=  8 ParTrn=T ParDer=T DoDerP=T.
 Spin components of T(2) and E(2):
     alpha-alpha T2 =       0.3198553757D-01 E2=     -0.2091469418D-01
     alpha-beta  T2 =       0.2192059956D+00 E2=     -0.1514104196D+00
     beta-beta   T2 =       0.3198553757D-01 E2=     -0.2091469418D-01
 The integrals were generated   7 times.
 E2(B2PLYPD3) =    -0.1932398080D+00 E(B2PLYPD3) =    -0.15827033483155D+03
 Leave Link  906 at Wed Aug 19 17:46:31 2020, MaxMem=    65536000 cpu:        32.3
 (Enter /opt/cluster/programs/g09/g09_d.01/g09/l1002.exe)
 Minotr:  Closed shell wavefunction.
          Computing MP2/KS-MP2 derivatives.
          Using Z-Vector for PSCF gradient.
          Skipping F1 and S1 gradient terms here.
          IDoAtm=11111111111111
          Frozen-core window.
          Direct CPHF calculation.
          Differentiating once with respect to electric field.
                with respect to dipole field.
          Differentiating once with respect to nuclear coordinates.
          Requested convergence is 1.0D-10 RMS, and 1.0D-09 maximum.
          NewPWx=F KeepS1=T KeepF1=T KeepIn=T MapXYZ=F SortEE=F KeepMc=T.
          MDV=      65535750 using IRadAn=       0.
 Using stored XC quadrature information.
 Keep R1 ints in memory in canonical form, NReq=19572008.
 FoFCou: FMM=F IPFlag=           0 FMFlag=           0 FMFlg1=           0
         NFxFlg=           0 DoJE=F BraDBF=F KetDBF=F FulRan=T
         wScrn=  0.000000 ICntrl=     600 IOpCl=  0 I1Cent=           0 NGrid=           0
         NMat0=    1 NMatS0=   6105 NMatT0=    0 NMatD0=    1 NMtDS0=    0 NMtDT0=    0
 Symmetry not used in FoFCou.
          Solving linear equations separately, MaxMat=       0.
          There are     1 degrees of freedom in the 1st order CPHF.  IDoFFX=0 NUNeed=     1.
 LinEq1:  Iter=  0 NonCon=     1 RMS=1.04D-03 Max=8.90D-03 NDo=     1
 AX will form     1 AO Fock derivatives at one time.
 LinEq1:  Iter=  1 NonCon=     1 RMS=4.74D-04 Max=4.82D-03 NDo=     1
 LinEq1:  Iter=  2 NonCon=     1 RMS=6.60D-05 Max=7.68D-04 NDo=     1
 LinEq1:  Iter=  3 NonCon=     1 RMS=2.18D-05 Max=2.66D-04 NDo=     1
 LinEq1:  Iter=  4 NonCon=     1 RMS=4.74D-06 Max=4.97D-05 NDo=     1
 LinEq1:  Iter=  5 NonCon=     1 RMS=8.01D-07 Max=8.97D-06 NDo=     1
 LinEq1:  Iter=  6 NonCon=     1 RMS=1.19D-07 Max=1.77D-06 NDo=     1
 LinEq1:  Iter=  7 NonCon=     1 RMS=2.37D-08 Max=2.56D-07 NDo=     1
 LinEq1:  Iter=  8 NonCon=     1 RMS=3.06D-09 Max=4.47D-08 NDo=     1
 LinEq1:  Iter=  9 NonCon=     1 RMS=3.78D-10 Max=3.61D-09 NDo=     1
 LinEq1:  Iter= 10 NonCon=     0 RMS=4.81D-11 Max=4.18D-10 NDo=     1
 Linear equations converged to 1.000D-10 1.000D-09 after    10 iterations.
 End of Minotr F.D. properties file   721 does not exist.
 End of Minotr F.D. properties file   722 does not exist.
 End of Minotr F.D. properties file   788 does not exist.
 Leave Link 1002 at Wed Aug 19 17:46:34 2020, MaxMem=    65536000 cpu:        21.7
 (Enter /opt/cluster/programs/g09/g09_d.01/g09/l701.exe)
 Compute integral first derivatives.
 ... and contract with generalized density number  2.
 R6Disp: Adding Grimme-D3(BJ) dispersion energy 1st derivatives to the gradient.
 Leave Link  701 at Wed Aug 19 17:46:34 2020, MaxMem=    65536000 cpu:         0.9
 (Enter /opt/cluster/programs/g09/g09_d.01/g09/l702.exe)
 L702 exits ... SP integral derivatives will be done elsewhere.
 Leave Link  702 at Wed Aug 19 17:46:34 2020, MaxMem=    65536000 cpu:         0.1
 (Enter /opt/cluster/programs/g09/g09_d.01/g09/l703.exe)
 Compute integral first derivatives, UseDBF=F ICtDFT=           0.
 Integral derivatives from FoFJK, PRISM(SPDF).
 Calling FoFJK, ICntrl=  10002127 FMM=F ISym2X=0 I1Cent= 0 IOpClX= 0 NMat=1 NMatS=1 NMatT=0.
 FoFJK:  IHMeth= 1 ICntrl=10002127 DoSepK=F KAlg= 0 I1Cent=   0 FoldK=F
 IRaf=         0 NMat=   1 IRICut=       1 DoRegI=T DoRafI=F ISym2E= 0.
 FoFCou: FMM=F IPFlag=           0 FMFlag=      100000 FMFlg1=         800
         NFxFlg=           0 DoJE=F BraDBF=F KetDBF=F FulRan=T
         wScrn=  0.000000 ICntrl=10002127 IOpCl=  0 I1Cent=           0 NGrid=           0
         NMat0=    1 NMatS0=      1 NMatT0=    0 NMatD0=    1 NMtDS0=    0 NMtDT0=    0
 Symmetry not used in FoFCou.
 Leave Link  703 at Wed Aug 19 17:46:35 2020, MaxMem=    65536000 cpu:         5.8
 (Enter /opt/cluster/programs/g09/g09_d.01/g09/l716.exe)
 Dipole        =-2.88281131D-07 4.28605373D-09-1.25564474D-05
 ***** Axes restored to original set *****
 -------------------------------------------------------------------
 Center     Atomic                   Forces (Hartrees/Bohr)
 Number     Number              X              Y              Z
 -------------------------------------------------------------------
      1        6           0.001918432   -0.000715730    0.000014784
      2        6          -0.000439651    0.000126574   -0.000002263
      3        1           0.000923403   -0.000409365    0.000008114
      4        1           0.000156332    0.000244226   -0.000254700
      5        1           0.000157276    0.000256969    0.000240605
      6        6           0.000439115   -0.000125878    0.000002525
      7        1          -0.000386812   -0.000490557   -0.000199642
      8        1          -0.000383572   -0.000480502    0.000228953
      9        6          -0.001917340    0.000715445   -0.000013725
     10        1           0.000385268    0.000492587    0.000197853
     11        1           0.000385372    0.000477668   -0.000230731
     12        1          -0.000155821   -0.000242366    0.000256202
     13        1          -0.000923623    0.000409468   -0.000009195
     14        1          -0.000158379   -0.000258538   -0.000238780
 -------------------------------------------------------------------
 Cartesian Forces:  Max     0.001918432 RMS     0.000559680
 Leave Link  716 at Wed Aug 19 17:46:35 2020, MaxMem=    65536000 cpu:         0.2
 (Enter /opt/cluster/programs/g09/g09_d.01/g09/l103.exe)

 GradGradGradGradGradGradGradGradGradGradGradGradGradGradGradGradGradGrad
 Berny optimization.
 Using GEDIIS/GDIIS optimizer.
 FormGI is forming the generalized inverse of G from B-inverse, IUseBI=4.
 Internal  Forces:  Max     0.002944999 RMS     0.000758437
 Search for a local minimum.
 Step number   2 out of a maximum of   74
 All quantities printed in internal units (Hartrees-Bohrs-Radians)
 RMS Force = .75844D-03 SwitMx=.10000D-02 MixMth= 2
 Mixed Optimization -- En-DIIS/RFO-DIIS
 Update second derivatives using D2CorX and points    1    2
 DE= -5.75D-04 DEPred=-8.13D-04 R= 7.07D-01
 TightC=F SS=  1.41D+00  RLast= 1.16D-01 DXNew= 5.0454D-01 3.4785D-01
 Trust test= 7.07D-01 RLast= 1.16D-01 DXMaxT set to 3.48D-01
 ITU=  1  0
 Use linear search instead of GDIIS.
     Eigenvalues ---    0.00404   0.00497   0.00497   0.03518   0.03518
     Eigenvalues ---    0.04800   0.04873   0.05512   0.05512   0.05616
     Eigenvalues ---    0.05616   0.08518   0.08540   0.12328   0.12328
     Eigenvalues ---    0.15983   0.16000   0.16000   0.16000   0.16000
     Eigenvalues ---    0.16521   0.21914   0.23623   0.29692   0.30333
     Eigenvalues ---    0.33420   0.34063   0.34100   0.34100   0.34100
     Eigenvalues ---    0.34193   0.34276   0.34276   0.34277   0.34298
     Eigenvalues ---    0.36352
 RFO step:  Lambda=-1.80780282D-05 EMin= 4.04109505D-03
 Quartic linear search produced a step of -0.22126.
 Iteration  1 RMS(Cart)=  0.00644174 RMS(Int)=  0.00003138
 Iteration  2 RMS(Cart)=  0.00000883 RMS(Int)=  0.00003071
 Iteration  3 RMS(Cart)=  0.00000000 RMS(Int)=  0.00003071
 ITry= 1 IFail=0 DXMaxC= 1.93D-02 DCOld= 1.00D+10 DXMaxT= 3.48D-01 DXLimC= 3.00D+00 Rises=F
 Variable       Old X    -DE/DX   Delta X   Delta X   Delta X     New X
                                 (Linear)    (Quad)   (Total)
    R1        2.89505  -0.00294  -0.00487  -0.00247  -0.00734   2.88771
    R2        2.06439  -0.00055   0.00086  -0.00215  -0.00128   2.06310
    R3        2.06409   0.00034   0.00101  -0.00028   0.00073   2.06482
    R4        2.06409   0.00034   0.00101  -0.00028   0.00073   2.06482
    R5        2.89188  -0.00088  -0.00124  -0.00102  -0.00226   2.88962
    R6        2.06887   0.00047   0.00061   0.00044   0.00104   2.06992
    R7        2.06887   0.00047   0.00061   0.00044   0.00104   2.06991
    R8        2.89505  -0.00294  -0.00487  -0.00247  -0.00734   2.88771
    R9        2.06887   0.00047   0.00061   0.00043   0.00104   2.06991
   R10        2.06887   0.00047   0.00061   0.00043   0.00104   2.06992
   R11        2.06409   0.00034   0.00101  -0.00028   0.00073   2.06482
   R12        2.06439  -0.00055   0.00087  -0.00215  -0.00128   2.06311
   R13        2.06409   0.00034   0.00101  -0.00028   0.00073   2.06482
    A1        1.95213  -0.00118  -0.00613   0.00030  -0.00581   1.94632
    A2        1.93658   0.00007   0.00016   0.00034   0.00051   1.93709
    A3        1.93659   0.00007   0.00017   0.00032   0.00050   1.93710
    A4        1.87881   0.00055   0.00167   0.00057   0.00225   1.88106
    A5        1.87881   0.00055   0.00167   0.00056   0.00225   1.88106
    A6        1.87783   0.00002   0.00278  -0.00217   0.00061   1.87844
    A7        1.98002  -0.00201  -0.00754   0.00041  -0.00711   1.97291
    A8        1.91223   0.00041  -0.00158   0.00151  -0.00009   1.91214
    A9        1.91224   0.00041  -0.00157   0.00151  -0.00009   1.91214
   A10        1.90035   0.00087   0.00382   0.00037   0.00427   1.90462
   A11        1.90032   0.00087   0.00381   0.00040   0.00429   1.90460
   A12        1.85443  -0.00045   0.00366  -0.00456  -0.00084   1.85359
   A13        1.98002  -0.00201  -0.00754   0.00041  -0.00711   1.97291
   A14        1.90032   0.00087   0.00381   0.00040   0.00429   1.90460
   A15        1.90035   0.00087   0.00382   0.00037   0.00427   1.90462
   A16        1.91224   0.00041  -0.00158   0.00151  -0.00009   1.91214
   A17        1.91223   0.00041  -0.00158   0.00151  -0.00009   1.91214
   A18        1.85443  -0.00045   0.00366  -0.00456  -0.00084   1.85359
   A19        1.93660   0.00007   0.00017   0.00032   0.00050   1.93710
   A20        1.95213  -0.00118  -0.00613   0.00029  -0.00581   1.94632
   A21        1.93658   0.00007   0.00016   0.00034   0.00051   1.93709
   A22        1.87881   0.00055   0.00167   0.00056   0.00225   1.88106
   A23        1.87783   0.00002   0.00278  -0.00217   0.00061   1.87844
   A24        1.87881   0.00055   0.00166   0.00057   0.00226   1.88106
    D1       -3.14121   0.00000   0.00004  -0.00015  -0.00011  -3.14132
    D2        1.01438  -0.00004   0.00134  -0.00202  -0.00066   1.01371
    D3       -1.01365   0.00004  -0.00127   0.00176   0.00046  -1.01319
    D4        1.04372   0.00005   0.00190  -0.00131   0.00060   1.04432
    D5       -1.08388   0.00002   0.00320  -0.00318   0.00005  -1.08383
    D6       -3.11191   0.00009   0.00059   0.00060   0.00117  -3.11074
    D7       -1.04294  -0.00006  -0.00182   0.00098  -0.00084  -1.04378
    D8        3.11265  -0.00009  -0.00052  -0.00089  -0.00139   3.11126
    D9        1.08462  -0.00002  -0.00313   0.00289  -0.00027   1.08436
   D10       -3.14095   0.00000   0.00011  -0.00038  -0.00027  -3.14122
   D11        1.00804   0.00021   0.00449  -0.00289   0.00156   1.00961
   D12       -1.00674  -0.00021  -0.00426   0.00211  -0.00211  -1.00886
   D13       -1.00675  -0.00021  -0.00426   0.00212  -0.00211  -1.00886
   D14       -3.14094   0.00000   0.00011  -0.00039  -0.00028  -3.14121
   D15        1.12746  -0.00042  -0.00864   0.00461  -0.00395   1.12351
   D16        1.00805   0.00021   0.00449  -0.00289   0.00156   1.00961
   D17       -1.12614   0.00041   0.00886  -0.00539   0.00340  -1.12275
   D18       -3.14093   0.00000   0.00011  -0.00039  -0.00028  -3.14121
   D19       -1.04294  -0.00006  -0.00182   0.00098  -0.00084  -1.04377
   D20       -3.14121   0.00000   0.00004  -0.00015  -0.00011  -3.14132
   D21        1.04372   0.00005   0.00191  -0.00131   0.00060   1.04432
   D22        1.08462  -0.00002  -0.00313   0.00288  -0.00027   1.08436
   D23       -1.01365   0.00004  -0.00127   0.00175   0.00046  -1.01319
   D24       -3.11190   0.00009   0.00060   0.00059   0.00117  -3.11074
   D25        3.11265  -0.00009  -0.00052  -0.00089  -0.00139   3.11126
   D26        1.01437  -0.00004   0.00133  -0.00202  -0.00066   1.01371
   D27       -1.08388   0.00002   0.00320  -0.00318   0.00005  -1.08383
         Item               Value     Threshold  Converged?
 Maximum Force            0.002945     0.000450     NO 
 RMS     Force            0.000758     0.000300     NO 
[...]
 Optimization completed.
    -- Stationary point found.
                           ----------------------------
                           !   Optimized Parameters   !
                           ! (Angstroms and Degrees)  !
 --------------------------                            --------------------------
 ! Name  Definition              Value          Derivative Info.                !
 --------------------------------------------------------------------------------
 ! R1    R(1,2)                  1.5281         -DE/DX =   -0.0003              !
 ! R2    R(1,3)                  1.0917         -DE/DX =    0.0                 !
 ! R3    R(1,4)                  1.0927         -DE/DX =    0.0001              !
 ! R4    R(1,5)                  1.0927         -DE/DX =    0.0001              !
 ! R5    R(2,6)                  1.5291         -DE/DX =   -0.0001              !
 ! R6    R(2,7)                  1.0954         -DE/DX =    0.0001              !
 ! R7    R(2,8)                  1.0954         -DE/DX =    0.0001              !
 ! R8    R(6,9)                  1.5281         -DE/DX =   -0.0003              !
 ! R9    R(6,10)                 1.0954         -DE/DX =    0.0001              !
 ! R10   R(6,11)                 1.0954         -DE/DX =    0.0001              !
 ! R11   R(9,12)                 1.0927         -DE/DX =    0.0001              !
 ! R12   R(9,13)                 1.0917         -DE/DX =    0.0                 !
 ! R13   R(9,14)                 1.0927         -DE/DX =    0.0001              !
 ! A1    A(2,1,3)              111.5157         -DE/DX =    0.0                 !
 ! A2    A(2,1,4)              110.9872         -DE/DX =    0.0                 !
 ! A3    A(2,1,5)              110.9875         -DE/DX =    0.0                 !
 ! A4    A(3,1,4)              107.777          -DE/DX =    0.0                 !
 ! A5    A(3,1,5)              107.7767         -DE/DX =    0.0                 !
 ! A6    A(4,1,5)              107.6266         -DE/DX =    0.0                 !
 ! A7    A(1,2,6)              113.0393         -DE/DX =    0.0                 !
 ! A8    A(1,2,7)              109.5574         -DE/DX =    0.0                 !
 ! A9    A(1,2,8)              109.5578         -DE/DX =    0.0                 !
 ! A10   A(6,2,7)              109.1269         -DE/DX =    0.0                 !
 ! A11   A(6,2,8)              109.1258         -DE/DX =    0.0                 !
 ! A12   A(7,2,8)              106.2029         -DE/DX =   -0.0001              !
 ! A13   A(2,6,9)              113.0393         -DE/DX =    0.0                 !
 ! A14   A(2,6,10)             109.1258         -DE/DX =    0.0                 !
 ! A15   A(2,6,11)             109.1269         -DE/DX =    0.0                 !
 ! A16   A(9,6,10)             109.5578         -DE/DX =    0.0                 !
 ! A17   A(9,6,11)             109.5574         -DE/DX =    0.0                 !
 ! A18   A(10,6,11)            106.2028         -DE/DX =   -0.0001              !
 ! A19   A(6,9,12)             110.9875         -DE/DX =    0.0                 !
 ! A20   A(6,9,13)             111.5158         -DE/DX =    0.0                 !
 ! A21   A(6,9,14)             110.9873         -DE/DX =    0.0                 !
 ! A22   A(12,9,13)            107.7766         -DE/DX =    0.0                 !
 ! A23   A(12,9,14)            107.6266         -DE/DX =    0.0                 !
 ! A24   A(13,9,14)            107.7769         -DE/DX =    0.0                 !
 ! D1    D(3,1,2,6)            180.0156         -DE/DX =    0.0                 !
 ! D2    D(3,1,2,7)             58.0816         -DE/DX =    0.0                 !
 ! D3    D(3,1,2,8)            -58.0515         -DE/DX =    0.0                 !
 ! D4    D(4,1,2,6)             59.8349         -DE/DX =    0.0                 !
 ! D5    D(4,1,2,7)            -62.0991         -DE/DX =    0.0                 !
 ! D6    D(4,1,2,8)           -178.2322         -DE/DX =    0.0                 !
 ! D7    D(5,1,2,6)            -59.8039         -DE/DX =    0.0                 !
 ! D8    D(5,1,2,7)            178.262          -DE/DX =    0.0                 !
 ! D9    D(5,1,2,8)             62.129          -DE/DX =    0.0                 !
 ! D10   D(1,2,6,9)            180.0214         -DE/DX =    0.0                 !
 ! D11   D(1,2,6,10)            57.8463         -DE/DX =    0.0                 !
 ! D12   D(1,2,6,11)           -57.8032         -DE/DX =    0.0                 !
 ! D13   D(7,2,6,9)            -57.8032         -DE/DX =    0.0                 !
 ! D14   D(7,2,6,10)           180.0217         -DE/DX =    0.0                 !
 ! D15   D(7,2,6,11)            64.3722         -DE/DX =    0.0001              !
 ! D16   D(8,2,6,9)             57.8464         -DE/DX =    0.0                 !
 ! D17   D(8,2,6,10)           -64.3287         -DE/DX =   -0.0001              !
 ! D18   D(8,2,6,11)           180.0218         -DE/DX =    0.0                 !
 ! D19   D(2,6,9,12)           -59.8039         -DE/DX =    0.0                 !
 ! D20   D(2,6,9,13)           180.0156         -DE/DX =    0.0                 !
 ! D21   D(2,6,9,14)            59.835          -DE/DX =    0.0                 !
 ! D22   D(10,6,9,12)           62.129          -DE/DX =    0.0                 !
 ! D23   D(10,6,9,13)          -58.0514         -DE/DX =    0.0                 !
 ! D24   D(10,6,9,14)         -178.2321         -DE/DX =    0.0                 !
 ! D25   D(11,6,9,12)          178.2621         -DE/DX =    0.0                 !
 ! D26   D(11,6,9,13)           58.0816         -DE/DX =    0.0                 !
 ! D27   D(11,6,9,14)          -62.0991         -DE/DX =    0.0                 !
 --------------------------------------------------------------------------------
 GradGradGradGradGradGradGradGradGradGradGradGradGradGradGradGradGradGrad

 Leave Link  103 at Wed Aug 19 17:48:23 2020, MaxMem=    65536000 cpu:         0.1
 (Enter /opt/cluster/programs/g09/g09_d.01/g09/l9999.exe)
 1\1\GINC-NODE29\Freq\RB2PLYPD3-FC\6-31G(d,p)\C4H10\BOITTIER\19-Aug-202
 0\0\\#P Geom=AllCheck Guess=TCheck SCRF=Check GenChk RB2PLYPD3(FC)/6-3
 1G(d,p) Freq\\butane_opt\\0,1\C,-3.9501880574,0.266076781,0.0173362423
 \C,-2.7027658593,-0.6163008535,0.0389421605\H,-4.8636908536,-0.3314090
 721,0.0382434644\H,-3.9765679025,0.8844690752,-0.8831009623\H,-3.97027
 95746,0.9365357891,0.8798765602\C,-1.4014861012,0.1862575698,0.0109772
 918\H,-2.7217732346,-1.2991411664,-0.817308263\H,-2.7157807474,-1.2478
 017895,0.9338342088\C,-0.1540658853,-0.6961346036,0.0320577058\H,-1.38
 23225827,0.8688143879,0.8674490662\H,-1.3886269047,0.8180557078,-0.883
 7085987\H,-0.1277852111,-1.3152143213,0.9320269216\H,0.7594392152,-0.0
 986325361,0.0117146814\H,-0.1338763009,-1.3659349683,-0.8309904791\\Ve
 rsion=ES64L-G09RevD.01\State=1-A\HF=-158.0771568\MP2=-158.270396\RMSD=
 1.368e-09\RMSF=1.569e-04\ZeroPoint=0.1343241\Thermal=0.1400349\Dipole=
 0.,0.0000002,0.0000074\DipoleDeriv=0.030735,0.0372002,-0.0007504,-0.01
 86663,0.1085022,0.000693,0.0008919,0.0005029,0.1299873,0.094655,-0.010
 3334,0.0005667,0.0242988,0.1145993,0.0013789,-0.0004371,0.0015092,0.16
 50493,-0.163641,-0.0624276,0.0026362,-0.0868625,-0.0151678,0.0025454,0
 .0033568,0.0024574,0.0603718,0.0325887,0.0026659,0.0204106,0.0395191,-
 0.0321156,0.091592,-0.0158111,0.1053501,-0.0927586,0.0325603,0.0006655
 ,-0.0213582,0.0396895,-0.0439305,-0.0947575,0.0126244,-0.1082454,-0.08
 09029,0.0946551,-0.0103347,0.0005303,0.0242972,0.1145998,0.0013944,-0.
 0004849,0.0015073,0.1650491,-0.0133897,0.0161059,0.0126841,0.0006853,-
 0.0723655,-0.100924,0.0002357,-0.1195157,-0.0845038,-0.0135081,0.01612
 4,-0.0141711,0.001337,-0.0595224,0.0994588,-0.0008287,0.1179447,-0.097
 2429,0.0307355,0.0372007,-0.0007214,-0.0186666,0.1085021,0.0006918,0.0
 008935,0.0004895,0.1299877,-0.0134104,0.0160721,0.0126886,0.000663,-0.
 0722972,-0.1009248,0.0002265,-0.1195165,-0.0845661,-0.0134877,0.016158
 4,-0.0141685,0.0013589,-0.0595905,0.0994659,-0.0008391,0.1179514,-0.09
 71809,0.0326074,0.002635,0.0204235,0.0395175,-0.032259,0.0916393,-0.01
 57719,0.1053936,-0.0926216,-0.1636418,-0.0624297,0.0025772,-0.086865,-
 0.015172,0.0024738,0.0032812,0.0023903,0.0603764,0.0325418,0.0006978,-
 0.0213477,0.039694,-0.0437829,-0.0947271,0.0126628,-0.1082188,-0.08104
 47\Polar=49.3850938,-1.2438259,41.9062114,0.0063332,-0.026067,40.86292
 87\PG=C01 [X(C4H10)]\NImag=0\\0.52857018,0.05140087,0.55578643,-0.0013
 0546,0.00076447,0.58793747,-0.16005980,0.05902553,-0.00147113,0.472744
 45,0.05708499,-0.12689595,0.00107103,-0.00332530,0.55293339,-0.0014142
 9,0.00106142,-0.08377365,0.00056952,0.00170459,0.61064278,-0.23599995,
 -0.12630938,0.00439268,-0.02119965,-0.01703333,0.00057263,0.25712645,-
 0.12710890,-0.13492048,0.00294552,0.01924760,0.01334987,-0.00049832,0.
 13636326,0.14367638,0.00441678,0.00294277,-0.05064701,-0.00049811,-0.0
 0036964,-0.00123488,-0.00477073,-0.00329204,0.04882529,-0.04984037,0.0
 0058386,-0.00241989,-0.00078663,0.01601052,-0.02492875,0.00126994,-0.0
 1473413,0.02450497,0.05243402,0.00088874,-0.13392130,0.12399178,0.0002
 3174,-0.01217732,0.01751841,0.00117665,-0.01043392,0.01560076,-0.00455
 931,0.14362343,-0.00282968,0.12425189,-0.23588005,0.00012989,-0.000644
 07,0.00075610,0.00009346,-0.00125600,0.00039136,0.00301754,-0.13761221
 ,0.25280675,-0.04981111,-0.00021727,0.00113399,-0.00061384,0.01746081,
 0.02395517,0.00109739,-0.01614329,-0.02359502,-0.00101102,-0.00015296,
 0.00025104,0.05240277,0.00011356,-0.14890209,-0.12913697,0.00010239,-0
 .01312634,-0.01670460,0.00106010,-0.01123839,-0.01491625,-0.00005140,0
 .01303774,0.01587214,-0.00368672,0.16021744,0.00152464,-0.12939251,-0.
 22092527,-0.00012466,0.00133850,0.00153435,-0.00016168,0.00205885,0.00
 136820,-0.00038773,-0.01788191,-0.02096767,-0.00140360,0.14311558,0.23
 624001,-0.03013547,-0.01352925,0.00050273,-0.15848790,-0.05461085,0.00
 185232,-0.00322533,0.00258520,-0.00006460,0.00195276,-0.00126006,0.000
 27608,0.00196053,-0.00127320,-0.00021565,0.47274527,0.01726294,0.01400
 297,-0.00046661,-0.05461088,-0.12066712,0.00124635,0.00594992,-0.00295
 409,0.00007419,0.00079615,0.00040958,-0.00013405,0.00087218,0.00043607
 ,0.00010576,-0.00332522,0.55293260,-0.00039940,-0.00035941,0.00012668,
 0.00185093,0.00124327,-0.08458626,-0.00016128,0.00008468,0.00024071,-0
 .00133789,-0.00031924,0.00004503,0.00127520,0.00030369,0.00001362,0.00
 059303,0.00168633,0.61064302,-0.00069957,0.01861234,0.02380430,-0.0486
 0214,-0.00292466,-0.00373722,0.00097227,-0.00087734,0.00022325,0.00111
 932,-0.00076925,-0.00047191,-0.00477298,0.00396736,-0.00041970,-0.0025
 7894,-0.01855343,-0.02450095,0.05750822,0.00026165,-0.01241140,-0.0159
 3182,-0.00283875,-0.14765380,-0.12389506,-0.00011588,0.00084834,0.0003
 3083,-0.00084749,0.00025243,0.00010875,0.00362829,-0.00164418,0.000317
 02,-0.00130882,-0.01261771,-0.01597179,0.00293701,0.16074035,-0.000295
 43,0.00165323,0.00150575,-0.00362034,-0.12466546,-0.21480440,0.0005755
 0,-0.00006697,-0.00002067,0.00039682,-0.00014389,0.00078782,-0.0001856
 8,0.00063416,0.00161586,0.00050933,0.00091864,0.00064671,0.00406866,0.
 13827238,0.22918985,-0.00086631,0.01717501,-0.02484257,-0.04855878,-0.
 00189760,0.00269417,0.00096781,-0.00088860,-0.00017838,-0.00476971,0.0
 0398386,0.00023077,0.00111916,-0.00073886,0.00051412,-0.00240928,-0.01
 709232,0.02556178,-0.00054959,0.00037162,-0.00058590,0.05745975,0.0003
 8997,-0.01152901,0.01669927,-0.00182164,-0.13334646,0.11913053,-0.0001
 5257,0.00083105,-0.00037982,0.00363150,-0.00169031,-0.00014852,-0.0008
 6978,0.00025603,-0.00007166,-0.00122466,-0.01169310,0.01669894,0.00028
 927,0.01243954,-0.01739182,0.00180114,0.14480287,0.00028873,-0.0010045
 2,0.00079017,0.00257225,0.11990297,-0.22915753,-0.00057463,0.00002292,
 0.00000375,0.00001634,-0.00046682,0.00165904,-0.00034892,0.00018045,0.
 00078172,-0.00041977,-0.00008005,-0.00044921,0.00041987,0.01536965,-0.
 02197944,-0.00297586,-0.13333536,0.24517909,-0.00369318,-0.00369231,0.
 00011987,-0.03013547,0.01726307,-0.00039467,-0.00105469,0.00111216,-0.
 00002701,-0.00004752,-0.00001575,-0.00015614,-0.00004745,-0.00000467,0
 .00015916,-0.16006013,0.05708634,-0.00137811,0.00184014,0.00116106,0.0
 0015473,0.00184511,0.00114578,-0.00023338,0.52857091,-0.00369237,-0.00
 339769,0.00009911,-0.01352937,0.01400316,-0.00035532,-0.00164833,0.000
 93817,-0.00000446,0.00006165,0.00009977,-0.00027747,0.00005304,0.00013
 096,0.00028741,0.05902690,-0.12689759,0.00103985,-0.00078576,0.0005258
 7,0.00015138,-0.00073003,0.00049375,-0.00017015,0.05140075,0.55578557,
 0.00011785,0.00009593,-0.00050041,0.00049850,-0.00046434,0.00012649,0.
 00005331,-0.00001335,0.00060537,0.00017713,-0.00024510,0.00031011,-0.0
 0017758,0.00025640,0.00027864,-0.00143441,0.00104386,-0.08377246,-0.00
 097522,0.00035072,0.00007417,0.00100644,-0.00038474,0.00009802,-0.0012
 7440,0.00075006,0.58793768,0.00183951,-0.00078665,-0.00097457,-0.00258
 181,-0.01854843,-0.02450448,0.00033158,0.00012616,0.00035098,-0.000089
 51,0.00007230,-0.00001714,-0.00037406,0.00059715,0.00059708,-0.0486035
 7,-0.00294608,-0.00377131,-0.00522743,-0.00347032,0.00022169,0.0011238
 7,0.00078204,0.00043605,-0.00069753,0.01860263,0.02381320,0.05750967,0
 .00115966,0.00052460,0.00035191,-0.00131234,-0.01261737,-0.01597484,0.
 00010694,0.00005949,0.00035078,-0.00008623,0.00008804,0.00008561,-0.00
 055360,0.00068093,0.00018177,-0.00285772,-0.14757159,-0.12387354,-0.00
 347176,-0.00155159,0.00031161,0.00075597,0.00024405,0.00011699,0.00025
 831,-0.01240378,-0.01593667,0.00296251,0.16065072,0.00015383,0.0001507
 4,0.00007277,0.00051203,0.00092038,0.00064757,-0.00012083,0.00029655,0
 .00023833,0.00002484,-0.00008171,-0.00006120,-0.00066027,0.00019801,0.
 00018189,-0.00365417,-0.12464539,-0.21488731,0.00022220,0.00031256,0.0
 0174929,-0.00048260,-0.00008539,0.00087819,-0.00029404,0.00164378,0.00
 149618,0.00409961,0.13824961,0.22928106,0.00184573,-0.00072911,0.00100
 705,-0.00240642,-0.01709749,0.02555851,0.00033032,0.00010322,-0.000357
 73,-0.00037368,0.00055882,-0.00062721,-0.00008980,0.00007421,0.0000135
 9,-0.04855791,-0.00187785,0.00265927,0.00112260,0.00075543,-0.00048287
 ,-0.00522878,-0.00347880,0.00002953,-0.00086828,0.01718516,-0.02483421
 ,-0.00054960,0.00037490,-0.00058992,0.05745880,0.00114714,0.00049505,-
 0.00038355,-0.00122102,-0.01169353,0.01669585,0.00011179,0.00002228,-0
 .00033939,-0.00051635,0.00065717,-0.00020646,-0.00008859,0.00008746,-0
 .00009383,-0.00180430,-0.13342581,0.11916127,0.00078152,0.00024358,-0.
 00008573,-0.00347733,-0.00157526,-0.00009409,0.00039335,-0.01153738,0.
 01669543,0.00028584,0.01244019,-0.01738047,0.00177713,0.14488935,-0.00
 023435,-0.00017079,0.00009939,-0.00041729,-0.00007829,-0.00045000,0.00
 011373,-0.00028489,0.00027695,0.00069539,-0.00022931,0.00020557,-0.000
 01901,0.00007254,-0.00006121,0.00253774,0.11993224,-0.22907648,0.00043
 634,0.00011727,0.00087666,0.00002996,-0.00009312,0.00177432,0.00029000
 ,-0.00101301,0.00080045,0.00041603,0.01538097,-0.02198012,-0.00294390,
 -0.13336818,0.24509017,-0.00004731,0.00006138,0.00017664,0.00195308,0.
 00079517,-0.00133734,0.00000280,-0.00008355,0.00008669,0.00011621,-0.0
 0020949,0.00017550,0.00002374,0.00000426,-0.00002104,-0.00078453,0.016
 02917,-0.02491841,-0.00008975,-0.00008670,0.00002431,-0.00037360,-0.00
 051545,0.00069541,-0.04983858,0.00057224,-0.00239833,0.00111831,-0.000
 84741,0.00039664,-0.00476997,0.00363261,0.00001904,0.05243348,-0.00001
 563,0.00009983,-0.00024589,-0.00126105,0.00041092,-0.00031775,0.000049
 17,0.00003739,-0.00005725,-0.00020969,0.00007654,-0.00007618,0.0000054
 9,-0.00005919,0.00000290,0.00022995,-0.01218628,0.01750893,0.00007275,
 0.00008820,-0.00008178,0.00055997,0.00065714,-0.00022981,0.00087796,-0
 .13411201,0.12406832,-0.00076877,0.00025182,-0.00014420,0.00398250,-0.
 00168998,-0.00046929,-0.00454630,0.14383151,-0.00015617,-0.00027739,0.
 00030964,0.00027599,-0.00013458,0.00004622,-0.00009247,0.00003692,-0.0
 0002003,0.00017537,-0.00007611,-0.00001497,0.00002046,-0.00000052,-0.0
 0001785,0.00012803,-0.00065058,0.00076501,-0.00001768,0.00008572,-0.00
 006199,-0.00062683,-0.00020576,0.00020522,-0.00280753,0.12432609,-0.23
 568770,-0.00047252,0.00010864,0.00078678,0.00023297,-0.00014974,0.0016
 5867,0.00299256,-0.13769505,0.25259508,-0.00105469,-0.00164829,0.00005
 444,-0.00322531,0.00594991,-0.00016127,-0.00062176,0.00038688,-0.00000
 926,0.00000278,0.00004909,-0.00009247,0.00000284,0.00005486,0.00008927
 ,-0.02119963,-0.01703367,0.00056057,0.00033198,0.00010738,-0.00012064,
 0.00032991,0.00011136,0.00011395,-0.23600064,-0.12631290,0.00427388,0.
 00097326,-0.00011654,0.00057560,0.00096682,-0.00015190,-0.00057457,0.0
 0126714,0.00117478,0.00009454,0.25712718,0.00111218,0.00093818,-0.0000
 1388,0.00258528,-0.00295422,0.00008355,0.00038688,-0.00025449,0.000005
 95,-0.00008349,0.00003741,0.00003688,-0.00008873,0.00003839,-0.0000397
 2,0.01924804,0.01335041,-0.00048793,0.00012591,0.00005940,0.00029673,0
 .00010345,0.00002241,-0.00028471,-0.12711247,-0.13492497,0.00286656,-0
 .00087721,0.00084920,-0.00006620,-0.00088874,0.00083025,0.00002368,-0.
 01475302,-0.01044513,-0.00126589,0.13636711,0.14368151,-0.00002618,-0.
 00000338,0.00060535,-0.00006178,0.00007042,0.00024084,-0.00000898,0.00
 000581,-0.00000636,0.00008670,-0.00005735,-0.00001998,-0.00008184,0.00
 005348,-0.00002107,-0.00048399,-0.00036184,-0.00123543,0.00035053,0.00
 035127,0.00023816,-0.00035819,-0.00033890,0.00027708,0.00429640,0.0028
 6369,-0.05064154,0.00022298,0.00033128,-0.00001984,-0.00017864,-0.0003
 7938,0.00000286,0.02449369,0.01559289,0.00040516,-0.00464323,-0.003202
 41,0.04881919,-0.00004766,0.00005328,-0.00017808,0.00196021,0.00087318
 ,0.00127569,0.00000283,-0.00008868,-0.00008185,0.00002342,0.00000561,0
 .00002026,0.00011383,-0.00021905,-0.00016381,-0.00061587,0.01744275,0.
 02396656,-0.00037414,-0.00055450,-0.00066018,-0.00008956,-0.00008815,-
 0.00001956,-0.04981268,-0.00020362,0.00115383,-0.00477269,0.00362732,-
 0.00018292,0.00112016,-0.00086987,-0.00034910,-0.00101101,-0.00015114,
 0.00025328,0.00110011,-0.01612519,-0.02360748,0.05240305,-0.00000480,0
 .00013087,0.00025563,-0.00127220,0.00043478,0.00030517,0.00005478,0.00
 003841,0.00005357,0.00000440,-0.00005924,-0.00000031,-0.00021886,0.000
 08517,0.00007184,0.00010399,-0.01311834,-0.01671505,0.00059603,0.00068
 097,0.00019753,0.00007372,0.00008731,0.00007253,0.00012643,-0.14870382
 ,-0.12908308,0.00396883,-0.00164471,0.00063173,-0.00073939,0.00025662,
 0.00018017,-0.00005292,0.01303926,0.01589824,0.00106194,-0.01122836,-0
 .01492558,-0.00370194,0.16000108,0.00015914,0.00028753,0.00027915,-0.0
 0021580,0.00010523,0.00001238,0.00008928,-0.00003968,-0.00002103,-0.00
 002084,0.00000269,-0.00001789,-0.00016395,0.00007191,-0.00002123,-0.00
 012667,0.00133115,0.00152637,0.00059752,0.00018249,0.00018222,0.000013
 09,-0.00009366,-0.00006042,0.00154511,-0.12934097,-0.22112501,-0.00041
 758,0.00031587,0.00161642,0.00051354,-0.00007174,0.00078279,-0.0003853
 7,-0.01785582,-0.02096922,-0.00016083,0.00204740,0.00135557,-0.0014266
 3,0.14305761,0.23645990\\-0.00020711,0.00030058,-0.00000908,0.00022190
 ,-0.00053613,0.00001529,-0.00000591,-0.00000748,0.00000119,-0.00001480
 ,-0.00007228,0.00001544,-0.00001433,-0.00007172,-0.00001200,-0.0002216
 7,0.00053584,-0.00001446,-0.00003643,0.00012844,0.00000670,-0.00003760
 ,0.00012901,-0.00001343,0.00020663,-0.00030043,0.00000703,0.00003749,-
 0.00012945,-0.00000615,0.00003647,-0.00012776,0.00001396,0.00001431,0.
 00007085,-0.00001623,0.00000602,0.00000748,0.00000068,0.00001500,0.000
 07303,0.00001106\\\@


 ... SUBJECTS WHICH DISCLOSE THEIR FULL POWER, MEANING AND BEAUTY AS SOON
 AS THEY ARE PRESENTED TO THE MIND HAVE VERY LITTLE OF THOSE QUALITIES
 TO DISCLOSE.
                           -- CHARLES DUTTON (1882)
 Job cpu time:       0 days  0 hours 11 minutes 57.4 seconds.
 File lengths (MBytes):  RWF=    836 Int=      0 D2E=      0 Chk=      3 Scr=      1
 Normal termination of Gaussian 09 at Wed Aug 19 17:48:24 2020.
