3
	Energy:       4.7872388
O         -5.31717       -0.75103        0.91861
H         -4.34717       -0.75103        0.91861
H         -5.64050        0.14840        0.75313
