 Entering Gaussian System, Link 0=/opt/cluster/programs/g09/g09_d.01/g09//g09
 Input=/home/boittier/MDCM/water/water_opt_freq.com
 Output=/scratch/boittier/water_opt_freq/water_opt_freq.out
 Initial command:
 /opt/cluster/programs/g09/g09_d.01/g09/l1.exe "/scratch/boittier/water_opt_freq/Gau-46891.inp" -scrdir="/scratch/boittier/water_opt_freq/"
 Entering Link 1 = /opt/cluster/programs/g09/g09_d.01/g09/l1.exe PID=     46892.
  
 Copyright (c) 1988,1990,1992,1993,1995,1998,2003,2009,2013,
            Gaussian, Inc.  All Rights Reserved.
  
 This is part of the Gaussian(R) 09 program.  It is based on
 the Gaussian(R) 03 system (copyright 2003, Gaussian, Inc.),
 the Gaussian(R) 98 system (copyright 1998, Gaussian, Inc.),
 the Gaussian(R) 94 system (copyright 1995, Gaussian, Inc.),
 the Gaussian 92(TM) system (copyright 1992, Gaussian, Inc.),
 the Gaussian 90(TM) system (copyright 1990, Gaussian, Inc.),
 the Gaussian 88(TM) system (copyright 1988, Gaussian, Inc.),
 the Gaussian 86(TM) system (copyright 1986, Carnegie Mellon
 University), and the Gaussian 82(TM) system (copyright 1983,
 Carnegie Mellon University). Gaussian is a federally registered
 trademark of Gaussian, Inc.
  
 This software contains proprietary and confidential information,
 including trade secrets, belonging to Gaussian, Inc.
  
 This software is provided under written license and may be
 used, copied, transmitted, or stored only in accord with that
 written license.
  
 The following legend is applicable only to US Government
 contracts under FAR:
  
                    RESTRICTED RIGHTS LEGEND
  
 Use, reproduction and disclosure by the US Government is
 subject to restrictions as set forth in subparagraphs (a)
 and (c) of the Commercial Computer Software - Restricted
 Rights clause in FAR 52.227-19.
  
 Gaussian, Inc.
 340 Quinnipiac St., Bldg. 40, Wallingford CT 06492
  
  
 ---------------------------------------------------------------
 Warning -- This program may not be used in any manner that
 competes with the business of Gaussian, Inc. or will provide
 assistance to any competitor of Gaussian, Inc.  The licensee
 of this program is prohibited from giving any competitor of
 Gaussian, Inc. access to this program.  By using this program,
 the user acknowledges that Gaussian, Inc. is engaged in the
 business of creating and licensing software in the field of
 computational chemistry and represents and warrants to the
 licensee that it is not a competitor of Gaussian, Inc. and that
 it will not use this program in any manner prohibited above.
 ---------------------------------------------------------------
  

 Cite this work as:
 Gaussian 09, Revision D.01,
 M. J. Frisch, G. W. Trucks, H. B. Schlegel, G. E. Scuseria, 
 M. A. Robb, J. R. Cheeseman, G. Scalmani, V. Barone, B. Mennucci, 
 G. A. Petersson, H. Nakatsuji, M. Caricato, X. Li, H. P. Hratchian, 
 A. F. Izmaylov, J. Bloino, G. Zheng, J. L. Sonnenberg, M. Hada, 
 M. Ehara, K. Toyota, R. Fukuda, J. Hasegawa, M. Ishida, T. Nakajima, 
 Y. Honda, O. Kitao, H. Nakai, T. Vreven, J. A. Montgomery, Jr., 
 J. E. Peralta, F. Ogliaro, M. Bearpark, J. J. Heyd, E. Brothers, 
 K. N. Kudin, V. N. Staroverov, T. Keith, R. Kobayashi, J. Normand, 
 K. Raghavachari, A. Rendell, J. C. Burant, S. S. Iyengar, J. Tomasi, 
 M. Cossi, N. Rega, J. M. Millam, M. Klene, J. E. Knox, J. B. Cross, 
 V. Bakken, C. Adamo, J. Jaramillo, R. Gomperts, R. E. Stratmann, 
 O. Yazyev, A. J. Austin, R. Cammi, C. Pomelli, J. W. Ochterski, 
 R. L. Martin, K. Morokuma, V. G. Zakrzewski, G. A. Voth, 
 P. Salvador, J. J. Dannenberg, S. Dapprich, A. D. Daniels, 
 O. Farkas, J. B. Foresman, J. V. Ortiz, J. Cioslowski, 
 and D. J. Fox, Gaussian, Inc., Wallingford CT, 2013.
 
 ******************************************
 Gaussian 09:  ES64L-G09RevD.01 24-Apr-2013
                19-Aug-2020 
 ******************************************
 %chk=water_opt.chk
 %nproc=8
 Will use up to    8 processors via shared memory.
 %mem=500MB
 ------------------------------------
 #p B2PLYPD3/6-31G** opt freq=NoRaman
 ------------------------------------
 1/18=20,19=15,38=1/1,3;
 2/9=110,12=2,17=6,18=5,40=1/2;
 3/5=1,6=6,7=101,11=9,16=1,25=1,30=1,71=1,74=-60/1,2,3;
 4//1;
 5/5=2,38=5/2;
 8/6=4,10=2/1;
 9/15=2,16=-3/6;
 10/5=1/2;
 6/7=2,8=2,9=2,10=2/1;
 7/12=2/1,2,3,16;
 1/18=20,19=15/3(2);
 2/9=110/2;
 99//99;
 2/9=110/2;
 3/5=1,6=6,7=101,11=9,16=1,25=1,30=1,71=1,74=-60/1,2,3;
 4/5=5,16=3,69=1/1;
 5/5=2,38=5/2;
 8/6=4,10=2/1;
 9/15=2,16=-3/6;
 10/5=1/2;
 7/12=2/1,2,3,16;
 1/18=20,19=15/3(-8);
 2/9=110/2;
 6/7=2,8=2,9=2,10=2/1;
 99//99;
 Leave Link    1 at Wed Aug 19 17:45:52 2020, MaxMem=    65536000 cpu:         0.4
 (Enter /opt/cluster/programs/g09/g09_d.01/g09/l101.exe)
 ---------
 water_opt
 ---------
 Symbolic Z-matrix:
 Charge =  0 Multiplicity = 1
 O                    -5.31717  -0.75103   0.91861 
 H                    -4.34717  -0.75103   0.91861 
 H                    -5.6405    0.1484    0.75313 
 
 NAtoms=      3 NQM=        3 NQMF=       0 NMMI=      0 NMMIF=      0
                NMic=       0 NMicF=      0.
                    Isotopes and Nuclear Properties:
 (Nuclear quadrupole moments (NQMom) in fm**2, nuclear magnetic moments (NMagM)
  in nuclear magnetons)

  Atom         1           2           3
 IAtWgt=          16           1           1
 AtmWgt=  15.9949146   1.0078250   1.0078250
 NucSpn=           0           1           1
 AtZEff=   0.0000000   0.0000000   0.0000000
 NQMom=    0.0000000   0.0000000   0.0000000
 NMagM=    0.0000000   2.7928460   2.7928460
 AtZNuc=   8.0000000   1.0000000   1.0000000
 Leave Link  101 at Wed Aug 19 17:45:52 2020, MaxMem=    65536000 cpu:         0.6
 (Enter /opt/cluster/programs/g09/g09_d.01/g09/l103.exe)

 GradGradGradGradGradGradGradGradGradGradGradGradGradGradGradGradGradGrad
 Berny optimization.
 Initialization pass.
                           ----------------------------
                           !    Initial Parameters    !
                           ! (Angstroms and Degrees)  !
 --------------------------                            --------------------------
 ! Name  Definition              Value          Derivative Info.                !
 --------------------------------------------------------------------------------
 ! R1    R(1,2)                  0.97           estimate D2E/DX2                !
 ! R2    R(1,3)                  0.97           estimate D2E/DX2                !
 ! A1    A(2,1,3)              109.471          estimate D2E/DX2                !
 --------------------------------------------------------------------------------
 Trust Radius=3.00D-01 FncErr=1.00D-07 GrdErr=1.00D-07
 Number of steps in this run=     20 maximum allowed number of steps=    100.
 GradGradGradGradGradGradGradGradGradGradGradGradGradGradGradGradGradGrad

 Leave Link  103 at Wed Aug 19 17:45:54 2020, MaxMem=    65536000 cpu:         0.1
 (Enter /opt/cluster/programs/g09/g09_d.01/g09/l202.exe)
                          Input orientation:                          
 ---------------------------------------------------------------------
 Center     Atomic      Atomic             Coordinates (Angstroms)
 Number     Number       Type             X           Y           Z
 ---------------------------------------------------------------------
      1          8           0       -5.317170   -0.751030    0.918610
      2          1           0       -4.347170   -0.751030    0.918610
      3          1           0       -5.640500    0.148400    0.753130
 ---------------------------------------------------------------------
                    Distance matrix (angstroms):
                    1          2          3
     1  O    0.000000
     2  H    0.970000   0.000000
     3  H    0.970000   1.584001   0.000000
 Stoichiometry    H2O
 Framework group  C2V[C2(O),SGV(H2)]
 Deg. of freedom     2
 Full point group                 C2V     NOp   4
 Largest Abelian subgroup         C2V     NOp   4
 Largest concise Abelian subgroup C2      NOp   2
                         Standard orientation:                         
 ---------------------------------------------------------------------
 Center     Atomic      Atomic             Coordinates (Angstroms)
 Number     Number       Type             X           Y           Z
 ---------------------------------------------------------------------
      1          8           0        0.000000    0.000000    0.112006
      2          1           0        0.000000   -0.792001   -0.448025
      3          1           0        0.000000    0.792001   -0.448025
 ---------------------------------------------------------------------
 Rotational constants (GHZ):    900.1664263    399.7155442    276.8024491
 Leave Link  202 at Wed Aug 19 17:45:54 2020, MaxMem=    65536000 cpu:         0.0
 (Enter /opt/cluster/programs/g09/g09_d.01/g09/l301.exe)
 Standard basis: 6-31G(d,p) (6D, 7F)
 Ernie: Thresh=  0.10000D-02 Tol=  0.10000D-05 Strict=F.
 There are    12 symmetry adapted cartesian basis functions of A1  symmetry.
 There are     2 symmetry adapted cartesian basis functions of A2  symmetry.
 There are     4 symmetry adapted cartesian basis functions of B1  symmetry.
 There are     7 symmetry adapted cartesian basis functions of B2  symmetry.
 There are    12 symmetry adapted basis functions of A1  symmetry.
 There are     2 symmetry adapted basis functions of A2  symmetry.
 There are     4 symmetry adapted basis functions of B1  symmetry.
 There are     7 symmetry adapted basis functions of B2  symmetry.
    25 basis functions,    42 primitive gaussians,    25 cartesian basis functions
     5 alpha electrons        5 beta electrons
       nuclear repulsion energy         9.0627723034 Hartrees.
 IExCor=  419 DFT=T Ex+Corr=B2PLYPD3 ExCW=0 ScaHFX=  0.530000
 ScaDFX=  0.470000  0.470000  0.730000  0.730000 ScalE2=  0.270000  0.270000
 IRadAn=      0 IRanWt=     -1 IRanGd=            0 ICorTp=0 IEmpDi=141
 NAtoms=    3 NActive=    3 NUniq=    2 SFac= 2.25D+00 NAtFMM=   60 NAOKFM=F Big=F
 Integral buffers will be    131072 words long.
 Regular integral format.
 Two-electron integral symmetry is turned on.
 R6Disp:  Grimme-D3(BJ) Dispersion energy=       -0.0002342034 Hartrees.
 Nuclear repulsion after empirical dispersion term =        9.0625381001 Hartrees.
 Leave Link  301 at Wed Aug 19 17:45:55 2020, MaxMem=    65536000 cpu:         0.4
 (Enter /opt/cluster/programs/g09/g09_d.01/g09/l302.exe)
 NPDir=0 NMtPBC=     1 NCelOv=     1 NCel=       1 NClECP=     1 NCelD=      1
         NCelK=      1 NCelE2=     1 NClLst=     1 CellRange=     0.0.
 One-electron integrals computed using PRISM.
 One-electron integral symmetry used in STVInt
 NBasis=    25 RedAO= T EigKep=  4.16D-02  NBF=    12     2     4     7
 NBsUse=    25 1.00D-06 EigRej= -1.00D+00 NBFU=    12     2     4     7
 Precomputing XC quadrature grid using
 IXCGrd= 4 IRadAn=           0 IRanWt=          -1 IRanGd=           0 AccXCQ= 0.00D+00.
 Generated NRdTot=       0 NPtTot=           0 NUsed=           0 NTot=          32
 NSgBfM=    25    25    25    25    25 MxSgAt=     3 MxSgA2=     3.
 Leave Link  302 at Wed Aug 19 17:45:56 2020, MaxMem=    65536000 cpu:         0.8
 (Enter /opt/cluster/programs/g09/g09_d.01/g09/l303.exe)
 DipDrv:  MaxL=1.
 Leave Link  303 at Wed Aug 19 17:45:58 2020, MaxMem=    65536000 cpu:         0.1
 (Enter /opt/cluster/programs/g09/g09_d.01/g09/l401.exe)
 ExpMin= 1.61D-01 ExpMax= 5.48D+03 ExpMxC= 8.25D+02 IAcc=1 IRadAn=         1 AccDes= 0.00D+00
 Harris functional with IExCor=  419 and IRadAn=       1 diagonalized for initial guess.
 HarFok:  IExCor=  419 AccDes= 0.00D+00 IRadAn=         1 IDoV= 1 UseB2=F ITyADJ=14
 ICtDFT=  3500011 ScaDFX=  1.000000  1.000000  1.000000  1.000000
 FoFCou: FMM=F IPFlag=           0 FMFlag=      100000 FMFlg1=           0
         NFxFlg=           0 DoJE=T BraDBF=F KetDBF=T FulRan=T
         wScrn=  0.000000 ICntrl=     500 IOpCl=  0 I1Cent=   200000004 NGrid=           0
         NMat0=    1 NMatS0=      1 NMatT0=    0 NMatD0=    1 NMtDS0=    0 NMtDT0=    0
 Petite list used in FoFCou.
 Harris En= -76.4580974841961    
 JPrj=0 DoOrth=F DoCkMO=F.
 Initial guess orbital symmetries:
       Occupied  (A1) (A1) (B2) (A1) (B1)
       Virtual   (A1) (B2) (A1) (B2) (B1) (A1) (B2) (A1) (A2) (A1)
                 (B1) (A1) (B2) (B2) (B1) (A2) (A1) (A1) (B2) (A1)
 The electronic state of the initial guess is 1-A1.
 Leave Link  401 at Wed Aug 19 17:45:59 2020, MaxMem=    65536000 cpu:         0.7
 (Enter /opt/cluster/programs/g09/g09_d.01/g09/l502.exe)
 Closed shell SCF:
 Using DIIS extrapolation, IDIIS=  1040.
 Integral symmetry usage will be decided dynamically.
 Keep R1 ints in memory in symmetry-blocked form, NReq=934817.
 IVT=       20883 IEndB=       20883 NGot=    65536000 MDV=    65499004
 LenX=    65499004 LenY=    65497938
 Requested convergence on RMS density matrix=1.00D-08 within 128 cycles.
 Requested convergence on MAX density matrix=1.00D-06.
 Requested convergence on             energy=1.00D-06.
 No special actions if energy rises.
 FoFCou: FMM=F IPFlag=           0 FMFlag=           0 FMFlg1=           0
         NFxFlg=           0 DoJE=F BraDBF=F KetDBF=F FulRan=T
         wScrn=  0.000000 ICntrl=     600 IOpCl=  0 I1Cent=           0 NGrid=           0
         NMat0=    1 NMatS0=    325 NMatT0=    0 NMatD0=    1 NMtDS0=    0 NMtDT0=    0
 Petite list used in FoFCou.
 Integral accuracy reduced to 1.0D-05 until final iterations.

 Cycle   1  Pass 0  IDiag  1:
 E= -76.2064321124393    
 DIIS: error= 7.37D-02 at cycle   1 NSaved=   1.
 NSaved= 1 IEnMin= 1 EnMin= -76.2064321124393     IErMin= 1 ErrMin= 7.37D-02
 ErrMax= 7.37D-02  0.00D+00 EMaxC= 1.00D-01 BMatC= 1.11D-01 BMatP= 1.11D-01
 IDIUse=3 WtCom= 2.63D-01 WtEn= 7.37D-01
 Coeff-Com:  0.100D+01
 Coeff-En:   0.100D+01
 Coeff:      0.100D+01
 Gap=     0.365 Goal=   None    Shift=    0.000
 GapD=    0.365 DampG=1.000 DampE=0.500 DampFc=0.5000 IDamp=-1.
 Damping current iteration by 5.00D-01
 RMSDP=1.61D-02 MaxDP=1.46D-01              OVMax= 1.60D-01

 Cycle   2  Pass 0  IDiag  1:
 E= -76.2457133721530     Delta-E=       -0.039281259714 Rises=F Damp=T
 DIIS: error= 1.54D-02 at cycle   2 NSaved=   2.
 NSaved= 2 IEnMin= 2 EnMin= -76.2457133721530     IErMin= 2 ErrMin= 1.54D-02
 ErrMax= 1.54D-02  0.00D+00 EMaxC= 1.00D-01 BMatC= 2.68D-03 BMatP= 1.11D-01
 IDIUse=3 WtCom= 8.46D-01 WtEn= 1.54D-01
 Coeff-Com:  0.810D-04 0.100D+01
 Coeff-En:   0.000D+00 0.100D+01
 Coeff:      0.685D-04 0.100D+01
 Gap=     0.491 Goal=   None    Shift=    0.000
 RMSDP=1.25D-03 MaxDP=1.60D-02 DE=-3.93D-02 OVMax= 7.46D-02

 Cycle   3  Pass 0  IDiag  1:
 E= -76.2855405592776     Delta-E=       -0.039827187125 Rises=F Damp=F
 DIIS: error= 7.49D-04 at cycle   3 NSaved=   3.
 NSaved= 3 IEnMin= 3 EnMin= -76.2855405592776     IErMin= 3 ErrMin= 7.49D-04
 ErrMax= 7.49D-04  0.00D+00 EMaxC= 1.00D-01 BMatC= 1.77D-05 BMatP= 2.68D-03
 IDIUse=3 WtCom= 9.93D-01 WtEn= 7.49D-03
 Coeff-Com: -0.179D-02-0.232D-01 0.103D+01
 Coeff-En:   0.000D+00 0.000D+00 0.100D+01
 Coeff:     -0.178D-02-0.230D-01 0.102D+01
 Gap=     0.498 Goal=   None    Shift=    0.000
 RMSDP=1.62D-04 MaxDP=1.30D-03 DE=-3.98D-02 OVMax= 1.93D-03

 Cycle   4  Pass 0  IDiag  1:
 E= -76.2855612877083     Delta-E=       -0.000020728431 Rises=F Damp=F
 DIIS: error= 3.28D-04 at cycle   4 NSaved=   4.
 NSaved= 4 IEnMin= 4 EnMin= -76.2855612877083     IErMin= 4 ErrMin= 3.28D-04
 ErrMax= 3.28D-04  0.00D+00 EMaxC= 1.00D-01 BMatC= 1.29D-06 BMatP= 1.77D-05
 IDIUse=3 WtCom= 9.97D-01 WtEn= 3.28D-03
 Coeff-Com:  0.158D-02-0.114D-01 0.826D-01 0.927D+00
 Coeff-En:   0.000D+00 0.000D+00 0.000D+00 0.100D+01
 Coeff:      0.158D-02-0.113D-01 0.823D-01 0.927D+00
 Gap=     0.498 Goal=   None    Shift=    0.000
 RMSDP=3.33D-05 MaxDP=4.04D-04 DE=-2.07D-05 OVMax= 3.46D-04

 Cycle   5  Pass 0  IDiag  1:
 E= -76.2855624271422     Delta-E=       -0.000001139434 Rises=F Damp=F
 DIIS: error= 6.07D-05 at cycle   5 NSaved=   5.
 NSaved= 5 IEnMin= 5 EnMin= -76.2855624271422     IErMin= 5 ErrMin= 6.07D-05
 ErrMax= 6.07D-05  0.00D+00 EMaxC= 1.00D-01 BMatC= 3.89D-08 BMatP= 1.29D-06
 IDIUse=1 WtCom= 1.00D+00 WtEn= 0.00D+00
 Coeff-Com:  0.330D-03 0.972D-03-0.409D-01-0.616D-01 0.110D+01
 Coeff:      0.330D-03 0.972D-03-0.409D-01-0.616D-01 0.110D+01
 Gap=     0.499 Goal=   None    Shift=    0.000
 RMSDP=1.10D-05 MaxDP=1.18D-04 DE=-1.14D-06 OVMax= 1.31D-04

 Cycle   6  Pass 0  IDiag  1:
 E= -76.2855624860794     Delta-E=       -0.000000058937 Rises=F Damp=F
 DIIS: error= 5.12D-06 at cycle   6 NSaved=   6.
 NSaved= 6 IEnMin= 6 EnMin= -76.2855624860794     IErMin= 6 ErrMin= 5.12D-06
 ErrMax= 5.12D-06  0.00D+00 EMaxC= 1.00D-01 BMatC= 2.60D-10 BMatP= 3.89D-08
 IDIUse=1 WtCom= 1.00D+00 WtEn= 0.00D+00
 Coeff-Com: -0.690D-04-0.118D-03 0.668D-02 0.649D-02-0.214D+00 0.120D+01
 Coeff:     -0.690D-04-0.118D-03 0.668D-02 0.649D-02-0.214D+00 0.120D+01
 Gap=     0.499 Goal=   None    Shift=    0.000
 RMSDP=1.95D-06 MaxDP=1.79D-05 DE=-5.89D-08 OVMax= 2.26D-05

 Initial convergence to 1.0D-05 achieved.  Increase integral accuracy.
 Cycle   7  Pass 1  IDiag  1:
 E= -76.2855626545834     Delta-E=       -0.000000168504 Rises=F Damp=F
 DIIS: error= 1.04D-06 at cycle   1 NSaved=   1.
 NSaved= 1 IEnMin= 1 EnMin= -76.2855626545834     IErMin= 1 ErrMin= 1.04D-06
 ErrMax= 1.04D-06  0.00D+00 EMaxC= 1.00D-01 BMatC= 3.58D-11 BMatP= 3.58D-11
 IDIUse=1 WtCom= 1.00D+00 WtEn= 0.00D+00
 Coeff-Com:  0.100D+01
 Coeff:      0.100D+01
 Gap=     0.499 Goal=   None    Shift=    0.000
 RMSDP=1.95D-06 MaxDP=1.79D-05 DE=-1.69D-07 OVMax= 2.38D-06

 Cycle   8  Pass 1  IDiag  1:
 E= -76.2855626546235     Delta-E=       -0.000000000040 Rises=F Damp=F
 DIIS: error= 2.70D-07 at cycle   2 NSaved=   2.
 NSaved= 2 IEnMin= 2 EnMin= -76.2855626546235     IErMin= 2 ErrMin= 2.70D-07
 ErrMax= 2.70D-07  0.00D+00 EMaxC= 1.00D-01 BMatC= 1.09D-12 BMatP= 3.58D-11
 IDIUse=1 WtCom= 1.00D+00 WtEn= 0.00D+00
 Coeff-Com: -0.123D+00 0.112D+01
 Coeff:     -0.123D+00 0.112D+01
 Gap=     0.499 Goal=   None    Shift=    0.000
 RMSDP=6.30D-08 MaxDP=7.35D-07 DE=-4.01D-11 OVMax= 7.80D-07

 Cycle   9  Pass 1  IDiag  1:
 E= -76.2855626546256     Delta-E=       -0.000000000002 Rises=F Damp=F
 DIIS: error= 5.78D-08 at cycle   3 NSaved=   3.
 NSaved= 3 IEnMin= 3 EnMin= -76.2855626546256     IErMin= 3 ErrMin= 5.78D-08
 ErrMax= 5.78D-08  0.00D+00 EMaxC= 1.00D-01 BMatC= 5.36D-14 BMatP= 1.09D-12
 IDIUse=1 WtCom= 1.00D+00 WtEn= 0.00D+00
 Coeff-Com: -0.238D-01 0.561D-01 0.968D+00
 Coeff:     -0.238D-01 0.561D-01 0.968D+00
 Gap=     0.499 Goal=   None    Shift=    0.000
 RMSDP=1.25D-08 MaxDP=1.07D-07 DE=-2.02D-12 OVMax= 1.49D-07

 Cycle  10  Pass 1  IDiag  1:
 E= -76.2855626546257     Delta-E=        0.000000000000 Rises=F Damp=F
 DIIS: error= 2.84D-08 at cycle   4 NSaved=   4.
 NSaved= 4 IEnMin= 4 EnMin= -76.2855626546257     IErMin= 4 ErrMin= 2.84D-08
 ErrMax= 2.84D-08  0.00D+00 EMaxC= 1.00D-01 BMatC= 7.83D-15 BMatP= 5.36D-14
 IDIUse=1 WtCom= 1.00D+00 WtEn= 0.00D+00
 Coeff-Com:  0.237D-02-0.524D-01 0.181D+00 0.869D+00
 Coeff:      0.237D-02-0.524D-01 0.181D+00 0.869D+00
 Gap=     0.499 Goal=   None    Shift=    0.000
 RMSDP=5.94D-09 MaxDP=5.95D-08 DE=-1.85D-13 OVMax= 7.73D-08

 SCF Done:  E(RB2PLYPD3) =  -76.2855626546     A.U. after   10 cycles
            NFock= 10  Conv=0.59D-08     -V/T= 2.0065
 KE= 7.579546078170D+01 PE=-1.987249097692D+02 EE= 3.758134823280D+01
 Leave Link  502 at Wed Aug 19 17:46:00 2020, MaxMem=    65536000 cpu:         1.0
 (Enter /opt/cluster/programs/g09/g09_d.01/g09/l801.exe)
 DoSCS=T DFT=T ScalE2(SS,OS)=  0.270000  0.270000
 ExpMin= 1.61D-01 ExpMax= 5.48D+03 ExpMxC= 8.25D+02 IAcc=3 IRadAn=         5 AccDes= 0.00D+00
 HarFok:  IExCor=  205 AccDes= 0.00D+00 IRadAn=         5 IDoV=-2 UseB2=F ITyADJ=14
 ICtDFT= 12500011 ScaDFX=  1.000000  1.000000  1.000000  1.000000
 Largest valence mixing into a core orbital is  4.87D-05
 Largest core mixing into a valence orbital is  1.07D-05
 Range of M.O.s used for correlation:     2    25
 NBasis=    25 NAE=     5 NBE=     5 NFC=     1 NFV=     0
 NROrb=     24 NOA=     4 NOB=     4 NVA=    20 NVB=    20
 Leave Link  801 at Wed Aug 19 17:46:01 2020, MaxMem=    65536000 cpu:         0.3
 (Enter /opt/cluster/programs/g09/g09_d.01/g09/l906.exe)
 DoSCS=T DFT=T ScalE2(SS,OS)=  0.270000  0.270000
 Frozen-core derivative calculation, NFC=   1 NFV=   0.
 FulOut=F Deriv=T AODrv=T NAtomX=     3
   MMem=       10157  MDisk=           4 MDiskD=           4
  W3Min=        3125 MinDsk=       58575 NBas6D=          25
 NBas2D=         358    NTT=         325    LW2=     2040000
    MDV=    65521556 MDiskM=       35289 NBas2p=         258
 Fully direct method using O(ONN) memory.
 IMap=   1   2   3   4   5
 JobTyp=1 Pass  1:  I=   2 to   5 NPSUse=  8 ParTrn=T ParDer=T DoDerP=T.
 Spin components of T(2) and E(2):
     alpha-alpha T2 =       0.9220517184D-02 E2=     -0.7932624724D-02
     alpha-beta  T2 =       0.5586131390D-01 E2=     -0.4755819557D-01
     beta-beta   T2 =       0.9220517184D-02 E2=     -0.7932624724D-02
 The integrals were generated   1 times.
 E2(B2PLYPD3) =    -0.6342344501D-01 E(B2PLYPD3) =    -0.76348986099639D+02
 Leave Link  906 at Wed Aug 19 17:46:02 2020, MaxMem=    65536000 cpu:         1.0
 (Enter /opt/cluster/programs/g09/g09_d.01/g09/l1002.exe)
 Minotr:  Closed shell wavefunction.
          Computing MP2/KS-MP2 derivatives.
          Using Z-Vector for PSCF gradient.
          Skipping F1 and S1 gradient terms here.
          IDoAtm=111
          Frozen-core window.
          Direct CPHF calculation.
          Differentiating once with respect to electric field.
                with respect to dipole field.
          Differentiating once with respect to nuclear coordinates.
          Using symmetry in CPHF.
          Requested convergence is 1.0D-10 RMS, and 1.0D-09 maximum.
          NewPWx=F KeepS1=T KeepF1=T KeepIn=T MapXYZ=F SortEE=F KeepMc=T.
          MDV=      65535942 using IRadAn=       0.
 Using stored XC quadrature information.
 Keep R1 ints in memory in symmetry-blocked form, NReq=914622.
 FoFCou: FMM=F IPFlag=           0 FMFlag=           0 FMFlg1=           0
         NFxFlg=           0 DoJE=F BraDBF=F KetDBF=F FulRan=T
         wScrn=  0.000000 ICntrl=     600 IOpCl=  0 I1Cent=           0 NGrid=           0
         NMat0=    1 NMatS0=    325 NMatT0=    0 NMatD0=    1 NMtDS0=    0 NMtDT0=    0
 Petite list used in FoFCou.
          Solving linear equations separately, MaxMat=       0.
          There are     1 degrees of freedom in the 1st order CPHF.  IDoFFX=0 NUNeed=     1.
 LinEq1:  Iter=  0 NonCon=     1 RMS=2.31D-03 Max=1.46D-02 NDo=     1
 AX will form     1 AO Fock derivatives at one time.
 LinEq1:  Iter=  1 NonCon=     1 RMS=6.47D-04 Max=3.53D-03 NDo=     1
 LinEq1:  Iter=  2 NonCon=     1 RMS=2.05D-04 Max=1.00D-03 NDo=     1
 LinEq1:  Iter=  3 NonCon=     1 RMS=1.84D-05 Max=9.23D-05 NDo=     1
 LinEq1:  Iter=  4 NonCon=     1 RMS=3.27D-06 Max=1.39D-05 NDo=     1
 LinEq1:  Iter=  5 NonCon=     1 RMS=4.29D-07 Max=2.06D-06 NDo=     1
 LinEq1:  Iter=  6 NonCon=     1 RMS=2.23D-08 Max=1.38D-07 NDo=     1
 LinEq1:  Iter=  7 NonCon=     1 RMS=1.35D-09 Max=4.92D-09 NDo=     1
 LinEq1:  Iter=  8 NonCon=     0 RMS=8.06D-11 Max=5.49D-10 NDo=     1
 Linear equations converged to 1.000D-10 1.000D-09 after     8 iterations.
 End of Minotr F.D. properties file   721 does not exist.
 End of Minotr F.D. properties file   722 does not exist.
 End of Minotr F.D. properties file   788 does not exist.
 Leave Link 1002 at Wed Aug 19 17:46:03 2020, MaxMem=    65536000 cpu:         1.4
 (Enter /opt/cluster/programs/g09/g09_d.01/g09/l601.exe)
 Copying SCF densities to generalized density rwf, IOpCl= 0 IROHF=0.

 **********************************************************************

            Population analysis using the SCF density.

 **********************************************************************

 Orbital symmetries:
       Occupied  (A1) (A1) (B2) (A1) (B1)
       Virtual   (A1) (B2) (B2) (A1) (A1) (B1) (B2) (A1) (A2) (A1)
                 (B1) (B2) (A1) (B2) (B1) (A2) (A1) (A1) (B2) (A1)
 The electronic state is 1-A1.
 Alpha  occ. eigenvalues --  -19.73090  -1.13090  -0.59842  -0.44124  -0.37499
 Alpha virt. eigenvalues --    0.12353   0.21329   0.87349   0.89812   0.98880
 Alpha virt. eigenvalues --    1.00617   1.13115   1.25354   1.63068   1.69188
 Alpha virt. eigenvalues --    1.77743   2.34578   2.35991   2.59956   2.75279
 Alpha virt. eigenvalues --    2.80496   3.15169   3.46559   3.66048   3.88636
          Condensed to atoms (all electrons):
               1          2          3
     1  O    8.062062   0.293658   0.293658
     2  H    0.293658   0.406110  -0.024457
     3  H    0.293658  -0.024457   0.406110
 Mulliken charges:
               1
     1  O   -0.649378
     2  H    0.324689
     3  H    0.324689
 Sum of Mulliken charges =   0.00000
 Mulliken charges with hydrogens summed into heavy atoms:
               1
     1  O    0.000000
 Electronic spatial extent (au):  <R**2>=             19.0737
 Charge=              0.0000 electrons
 Dipole moment (field-independent basis, Debye):
    X=              0.0000    Y=              0.0000    Z=             -2.0234  Tot=              2.0234
 Quadrupole moment (field-independent basis, Debye-Ang):
   XX=             -7.1631   YY=             -3.9551   ZZ=             -6.1005
   XY=              0.0000   XZ=              0.0000   YZ=              0.0000
 Traceless Quadrupole moment (field-independent basis, Debye-Ang):
   XX=             -1.4235   YY=              1.7845   ZZ=             -0.3610
   XY=              0.0000   XZ=              0.0000   YZ=              0.0000
 Octapole moment (field-independent basis, Debye-Ang**2):
  XXX=              0.0000  YYY=              0.0000  ZZZ=             -1.1495  XYY=              0.0000
  XXY=              0.0000  XXZ=             -0.3010  XZZ=              0.0000  YZZ=              0.0000
  YYZ=             -1.3191  XYZ=              0.0000
 Hexadecapole moment (field-independent basis, Debye-Ang**3):
 XXXX=             -5.1431 YYYY=             -5.7449 ZZZZ=             -6.1432 XXXY=              0.0000
 XXXZ=              0.0000 YYYX=              0.0000 YYYZ=              0.0000 ZZZX=              0.0000
 ZZZY=              0.0000 XXYY=             -2.1381 XXZZ=             -1.9249 YYZZ=             -1.6926
 XXYZ=              0.0000 YYXZ=              0.0000 ZZXY=              0.0000
 N-N= 9.062538100056D+00 E-N=-1.987249090246D+02  KE= 7.579546078170D+01
 Symmetry A1   KE= 6.772647363706D+01
 Symmetry A2   KE= 4.344733609611D-32
 Symmetry B1   KE= 4.571383033773D+00
 Symmetry B2   KE= 3.497604110869D+00
 No NMR shielding tensors so no spin-rotation constants.
 Leave Link  601 at Wed Aug 19 17:46:04 2020, MaxMem=    65536000 cpu:         0.7
 (Enter /opt/cluster/programs/g09/g09_d.01/g09/l701.exe)
 Compute integral first derivatives.
 ... and contract with generalized density number  2.
 R6Disp: Adding Grimme-D3(BJ) dispersion energy 1st derivatives to the gradient.
 Leave Link  701 at Wed Aug 19 17:46:06 2020, MaxMem=    65536000 cpu:         0.8
 (Enter /opt/cluster/programs/g09/g09_d.01/g09/l702.exe)
 L702 exits ... SP integral derivatives will be done elsewhere.
 Leave Link  702 at Wed Aug 19 17:46:06 2020, MaxMem=    65536000 cpu:         0.1
 (Enter /opt/cluster/programs/g09/g09_d.01/g09/l703.exe)
 Compute integral first derivatives, UseDBF=F ICtDFT=           0.
 Integral derivatives from FoFJK, PRISM(SPDF).
 Calling FoFJK, ICntrl=  10002127 FMM=F ISym2X=1 I1Cent= 0 IOpClX= 0 NMat=1 NMatS=1 NMatT=0.
 FoFJK:  IHMeth= 1 ICntrl=10002127 DoSepK=F KAlg= 0 I1Cent=   0 FoldK=F
 IRaf=         0 NMat=   1 IRICut=       1 DoRegI=T DoRafI=F ISym2E= 1.
 FoFCou: FMM=F IPFlag=           0 FMFlag=      100000 FMFlg1=         800
         NFxFlg=           0 DoJE=F BraDBF=F KetDBF=F FulRan=T
         wScrn=  0.000000 ICntrl=10002127 IOpCl=  0 I1Cent=           0 NGrid=           0
         NMat0=    1 NMatS0=      1 NMatT0=    0 NMatD0=    1 NMtDS0=    0 NMtDT0=    0
 Petite list used in FoFCou.
 Leave Link  703 at Wed Aug 19 17:46:07 2020, MaxMem=    65536000 cpu:         1.1
 (Enter /opt/cluster/programs/g09/g09_d.01/g09/l716.exe)
 Dipole        = 7.18117709D-17-1.33226763D-15-7.81227610D-01
 ***** Axes restored to original set *****
 -------------------------------------------------------------------
 Center     Atomic                   Forces (Hartrees/Bohr)
 Number     Number              X              Y              Z
 -------------------------------------------------------------------
      1        8          -0.001496140   -0.002080926    0.000382855
      2        1          -0.010548160    0.008896285   -0.001636767
      3        1           0.012044300   -0.006815359    0.001253912
 -------------------------------------------------------------------
 Cartesian Forces:  Max     0.012044300 RMS     0.006607138
 Leave Link  716 at Wed Aug 19 17:46:08 2020, MaxMem=    65536000 cpu:         0.2
 (Enter /opt/cluster/programs/g09/g09_d.01/g09/l103.exe)

 GradGradGradGradGradGradGradGradGradGradGradGradGradGradGradGradGradGrad
 Berny optimization.
 FormGI is forming the generalized inverse of G from B-inverse, IUseBI=4.
 Internal  Forces:  Max     0.016580896 RMS     0.012877027
 Search for a local minimum.
 Step number   1 out of a maximum of   20
 All quantities printed in internal units (Hartrees-Bohrs-Radians)
 RMS Force = .12877D-01 SwitMx=.10000D-02 MixMth= 1
 Mixed Optimization -- RFO/linear search
 Second derivative matrix not updated -- first step.
 The second derivative matrix:
                          R1        R2        A1
           R1           0.53377
           R2           0.00000   0.53377
           A1           0.00000   0.00000   0.16000
 ITU=  0
     Eigenvalues ---    0.16000   0.53377   0.53377
 RFO step:  Lambda=-2.11116966D-03 EMin= 1.60000000D-01
 Linear search not attempted -- first point.
 Iteration  1 RMS(Cart)=  0.06490440 RMS(Int)=  0.00205534
 Iteration  2 RMS(Cart)=  0.00155248 RMS(Int)=  0.00000065
 Iteration  3 RMS(Cart)=  0.00000069 RMS(Int)=  0.00000000
 ITry= 1 IFail=0 DXMaxC= 7.05D-02 DCOld= 1.00D+10 DXMaxT= 3.00D-01 DXLimC= 3.00D+00 Rises=F
 ClnCor:  largest displacement from symmetrization is 4.80D-15 for atom     3.
 Variable       Old X    -DE/DX   Delta X   Delta X   Delta X     New X
                                 (Linear)    (Quad)   (Total)
    R1        1.83303  -0.01055   0.00000  -0.01968  -0.01968   1.81335
    R2        1.83303  -0.01055   0.00000  -0.01968  -0.01968   1.81335
    A1        1.91063  -0.01658   0.00000  -0.10228  -0.10228   1.80835
         Item               Value     Threshold  Converged?
 Maximum Force            0.016581     0.000450     NO 
 RMS     Force            0.012877     0.000300     NO 
 Maximum Displacement     0.070515     0.001800     NO 
 RMS     Displacement     0.065507     0.001200     NO 
 Predicted change in Energy=-1.067444D-03
 Lowest energy point so far.  Saving SCF results.
 GradGradGradGradGradGradGradGradGradGradGradGradGradGradGradGradGradGrad

 Leave Link  103 at Wed Aug 19 17:46:08 2020, MaxMem=    65536000 cpu:         0.1
 (Enter /opt/cluster/programs/g09/g09_d.01/g09/l202.exe)
                          Input orientation:                          
 ---------------------------------------------------------------------
 Center     Atomic      Atomic             Coordinates (Angstroms)
 Number     Number       Type             X           Y           Z
 ---------------------------------------------------------------------
      1          8           0       -5.329992   -0.768864    0.921891
      2          1           0       -4.371663   -0.720621    0.913015
      3          1           0       -5.603185    0.135825    0.755444
 ---------------------------------------------------------------------
                    Distance matrix (angstroms):
                    1          2          3
     1  O    0.000000
     2  H    0.959584   0.000000
     3  H    0.959584   1.508302   0.000000
 Stoichiometry    H2O
 Framework group  C2V[C2(O),SGV(H2)]
 Deg. of freedom     2
 Full point group                 C2V     NOp   4
 RotChk:  IX=3 Diff= 6.51D-16
 Largest Abelian subgroup         C2V     NOp   4
 Largest concise Abelian subgroup C2      NOp   2
                         Standard orientation:                         
 ---------------------------------------------------------------------
 Center     Atomic      Atomic             Coordinates (Angstroms)
 Number     Number       Type             X           Y           Z
 ---------------------------------------------------------------------
      1          8           0        0.000000    0.000000    0.118669
      2          1           0        0.000000   -0.754151   -0.474675
      3          1           0        0.000000    0.754151   -0.474675
 ---------------------------------------------------------------------
 Rotational constants (GHZ):    801.9258132    440.8444119    284.4649046
 Leave Link  202 at Wed Aug 19 17:46:08 2020, MaxMem=    65536000 cpu:         0.0
 (Enter /opt/cluster/programs/g09/g09_d.01/g09/l301.exe)
 Standard basis: 6-31G(d,p) (6D, 7F)
 Ernie: Thresh=  0.10000D-02 Tol=  0.10000D-05 Strict=F.
 There are    12 symmetry adapted cartesian basis functions of A1  symmetry.
 There are     2 symmetry adapted cartesian basis functions of A2  symmetry.
 There are     4 symmetry adapted cartesian basis functions of B1  symmetry.
 There are     7 symmetry adapted cartesian basis functions of B2  symmetry.
 There are    12 symmetry adapted basis functions of A1  symmetry.
 There are     2 symmetry adapted basis functions of A2  symmetry.
 There are     4 symmetry adapted basis functions of B1  symmetry.
 There are     7 symmetry adapted basis functions of B2  symmetry.
    25 basis functions,    42 primitive gaussians,    25 cartesian basis functions
     5 alpha electrons        5 beta electrons
       nuclear repulsion energy         9.1742883695 Hartrees.
 IExCor=  419 DFT=T Ex+Corr=B2PLYPD3 ExCW=0 ScaHFX=  0.530000
 ScaDFX=  0.470000  0.470000  0.730000  0.730000 ScalE2=  0.270000  0.270000
 IRadAn=      0 IRanWt=     -1 IRanGd=            0 ICorTp=0 IEmpDi=141
 NAtoms=    3 NActive=    3 NUniq=    2 SFac= 2.25D+00 NAtFMM=   60 NAOKFM=F Big=F
 Integral buffers will be    131072 words long.
 Regular integral format.
 Two-electron integral symmetry is turned on.
 R6Disp:  Grimme-D3(BJ) Dispersion energy=       -0.0002343054 Hartrees.
 Nuclear repulsion after empirical dispersion term =        9.1740540641 Hartrees.
 Leave Link  301 at Wed Aug 19 17:46:08 2020, MaxMem=    65536000 cpu:         0.4
 (Enter /opt/cluster/programs/g09/g09_d.01/g09/l302.exe)
 NPDir=0 NMtPBC=     1 NCelOv=     1 NCel=       1 NClECP=     1 NCelD=      1
         NCelK=      1 NCelE2=     1 NClLst=     1 CellRange=     0.0.
 One-electron integrals computed using PRISM.
 One-electron integral symmetry used in STVInt
 NBasis=    25 RedAO= T EigKep=  4.06D-02  NBF=    12     2     4     7
 NBsUse=    25 1.00D-06 EigRej= -1.00D+00 NBFU=    12     2     4     7
 Precomputing XC quadrature grid using
 IXCGrd= 4 IRadAn=           0 IRanWt=          -1 IRanGd=           0 AccXCQ= 0.00D+00.
 Generated NRdTot=       0 NPtTot=           0 NUsed=           0 NTot=          32
 NSgBfM=    25    25    25    25    25 MxSgAt=     3 MxSgA2=     3.
 Leave Link  302 at Wed Aug 19 17:46:08 2020, MaxMem=    65536000 cpu:         0.8
 (Enter /opt/cluster/programs/g09/g09_d.01/g09/l303.exe)
 DipDrv:  MaxL=1.
 Leave Link  303 at Wed Aug 19 17:46:08 2020, MaxMem=    65536000 cpu:         0.2
 (Enter /opt/cluster/programs/g09/g09_d.01/g09/l401.exe)
 Initial guess from the checkpoint file:  "water_opt.chk"
 B after Tr=     0.000000    0.000000    0.000000
         Rot=    1.000000    0.000000    0.000000    0.000000 Ang=   0.00 deg.
 Guess basis will be translated and rotated to current coordinates.
 JPrj=2 DoOrth=T DoCkMO=T.
 Initial guess orbital symmetries:
       Occupied  (A1) (A1) (B2) (A1) (B1)
       Virtual   (A1) (A1) (A1) (A1) (A1) (A1) (A1) (A1) (A1) (A2)
                 (A2) (B1) (B1) (B1) (B2) (B2) (B2) (B2) (B2) (B2)
 The electronic state of the initial guess is 1-A1.
 Generating alternative initial guess.
 ExpMin= 1.61D-01 ExpMax= 5.48D+03 ExpMxC= 8.25D+02 IAcc=1 IRadAn=         1 AccDes= 0.00D+00
 Harris functional with IExCor=  419 and IRadAn=       1 diagonalized for initial guess.
 HarFok:  IExCor=  419 AccDes= 0.00D+00 IRadAn=         1 IDoV= 1 UseB2=F ITyADJ=14
 ICtDFT=  3500011 ScaDFX=  1.000000  1.000000  1.000000  1.000000
 FoFCou: FMM=F IPFlag=           0 FMFlag=      100000 FMFlg1=           0
         NFxFlg=           0 DoJE=T BraDBF=F KetDBF=T FulRan=T
         wScrn=  0.000000 ICntrl=     500 IOpCl=  0 I1Cent=   200000004 NGrid=           0
         NMat0=    1 NMatS0=      1 NMatT0=    0 NMatD0=    1 NMtDS0=    0 NMtDT0=    0
 Petite list used in FoFCou.
 Harris En= -76.4587335813101    
 Leave Link  401 at Wed Aug 19 17:46:08 2020, MaxMem=    65536000 cpu:         1.1
 (Enter /opt/cluster/programs/g09/g09_d.01/g09/l502.exe)
 Closed shell SCF:
 Using DIIS extrapolation, IDIIS=  1040.
 Integral symmetry usage will be decided dynamically.
 Keep R1 ints in memory in symmetry-blocked form, NReq=934817.
 IVT=       20883 IEndB=       20883 NGot=    65536000 MDV=    65499004
 LenX=    65499004 LenY=    65497938
 Requested convergence on RMS density matrix=1.00D-08 within 128 cycles.
 Requested convergence on MAX density matrix=1.00D-06.
 Requested convergence on             energy=1.00D-06.
 No special actions if energy rises.
 FoFCou: FMM=F IPFlag=           0 FMFlag=           0 FMFlg1=           0
         NFxFlg=           0 DoJE=F BraDBF=F KetDBF=F FulRan=T
         wScrn=  0.000000 ICntrl=     600 IOpCl=  0 I1Cent=           0 NGrid=           0
         NMat0=    1 NMatS0=    325 NMatT0=    0 NMatD0=    1 NMtDS0=    0 NMtDT0=    0
 Petite list used in FoFCou.
 Integral accuracy reduced to 1.0D-05 until final iterations.

 Cycle   1  Pass 0  IDiag  1:
 E= -76.2862968708271    
 DIIS: error= 4.40D-03 at cycle   1 NSaved=   1.
 NSaved= 1 IEnMin= 1 EnMin= -76.2862968708271     IErMin= 1 ErrMin= 4.40D-03
 ErrMax= 4.40D-03  0.00D+00 EMaxC= 1.00D-01 BMatC= 3.77D-04 BMatP= 3.77D-04
 IDIUse=3 WtCom= 9.56D-01 WtEn= 4.40D-02
 Coeff-Com:  0.100D+01
 Coeff-En:   0.100D+01
 Coeff:      0.100D+01
 Gap=     2.011 Goal=   None    Shift=    0.000
 GapD=    2.011 DampG=2.000 DampE=1.000 DampFc=2.0000 IDamp=-1.
 RMSDP=8.31D-04 MaxDP=6.46D-03              OVMax= 7.02D-03

 Cycle   2  Pass 0  IDiag  1:
 E= -76.2866534110061     Delta-E=       -0.000356540179 Rises=F Damp=F
 DIIS: error= 5.99D-04 at cycle   2 NSaved=   2.
 NSaved= 2 IEnMin= 2 EnMin= -76.2866534110061     IErMin= 2 ErrMin= 5.99D-04
 ErrMax= 5.99D-04  0.00D+00 EMaxC= 1.00D-01 BMatC= 8.84D-06 BMatP= 3.77D-04
 IDIUse=3 WtCom= 9.94D-01 WtEn= 5.99D-03
 Coeff-Com: -0.211D-01 0.102D+01
 Coeff-En:   0.000D+00 0.100D+01
 Coeff:     -0.210D-01 0.102D+01
 Gap=     0.503 Goal=   None    Shift=    0.000
 RMSDP=1.44D-04 MaxDP=1.02D-03 DE=-3.57D-04 OVMax= 1.37D-03

 Cycle   3  Pass 0  IDiag  1:
 E= -76.2866587299726     Delta-E=       -0.000005318966 Rises=F Damp=F
 DIIS: error= 5.40D-04 at cycle   3 NSaved=   3.
 NSaved= 3 IEnMin= 3 EnMin= -76.2866587299726     IErMin= 3 ErrMin= 5.40D-04
 ErrMax= 5.40D-04  0.00D+00 EMaxC= 1.00D-01 BMatC= 5.10D-06 BMatP= 8.84D-06
 IDIUse=3 WtCom= 9.95D-01 WtEn= 5.40D-03
 Coeff-Com: -0.328D-01 0.442D+00 0.591D+00
 Coeff-En:   0.000D+00 0.641D-01 0.936D+00
 Coeff:     -0.327D-01 0.440D+00 0.593D+00
 Gap=     0.504 Goal=   None    Shift=    0.000
 RMSDP=5.68D-05 MaxDP=5.64D-04 DE=-5.32D-06 OVMax= 5.40D-04

 Cycle   4  Pass 0  IDiag  1:
 E= -76.2866620930864     Delta-E=       -0.000003363114 Rises=F Damp=F
 DIIS: error= 6.30D-05 at cycle   4 NSaved=   4.
 NSaved= 4 IEnMin= 4 EnMin= -76.2866620930864     IErMin= 4 ErrMin= 6.30D-05
 ErrMax= 6.30D-05  0.00D+00 EMaxC= 1.00D-01 BMatC= 9.91D-08 BMatP= 5.10D-06
 IDIUse=1 WtCom= 1.00D+00 WtEn= 0.00D+00
 Coeff-Com: -0.690D-02 0.367D-01 0.140D+00 0.830D+00
 Coeff:     -0.690D-02 0.367D-01 0.140D+00 0.830D+00
 Gap=     0.504 Goal=   None    Shift=    0.000
 RMSDP=1.01D-05 MaxDP=1.03D-04 DE=-3.36D-06 OVMax= 1.17D-04

 Cycle   5  Pass 0  IDiag  1:
 E= -76.2866621714737     Delta-E=       -0.000000078387 Rises=F Damp=F
 DIIS: error= 6.74D-06 at cycle   5 NSaved=   5.
 NSaved= 5 IEnMin= 5 EnMin= -76.2866621714737     IErMin= 5 ErrMin= 6.74D-06
 ErrMax= 6.74D-06  0.00D+00 EMaxC= 1.00D-01 BMatC= 1.26D-09 BMatP= 9.91D-08
 IDIUse=1 WtCom= 1.00D+00 WtEn= 0.00D+00
 Coeff-Com:  0.106D-02-0.126D-01-0.231D-01 0.124D-01 0.102D+01
 Coeff:      0.106D-02-0.126D-01-0.231D-01 0.124D-01 0.102D+01
 Gap=     0.504 Goal=   None    Shift=    0.000
 RMSDP=1.41D-06 MaxDP=9.26D-06 DE=-7.84D-08 OVMax= 1.92D-05

 Initial convergence to 1.0D-05 achieved.  Increase integral accuracy.
 Cycle   6  Pass 1  IDiag  1:
 E= -76.2866637902205     Delta-E=       -0.000001618747 Rises=F Damp=F
 DIIS: error= 1.25D-06 at cycle   1 NSaved=   1.
 NSaved= 1 IEnMin= 1 EnMin= -76.2866637902205     IErMin= 1 ErrMin= 1.25D-06
 ErrMax= 1.25D-06  0.00D+00 EMaxC= 1.00D-01 BMatC= 4.81D-11 BMatP= 4.81D-11
 IDIUse=1 WtCom= 1.00D+00 WtEn= 0.00D+00
 Coeff-Com:  0.100D+01
 Coeff:      0.100D+01
 Gap=     0.504 Goal=   None    Shift=    0.000
 RMSDP=1.41D-06 MaxDP=9.26D-06 DE=-1.62D-06 OVMax= 3.00D-06

 Cycle   7  Pass 1  IDiag  1:
 E= -76.2866637902814     Delta-E=       -0.000000000061 Rises=F Damp=F
 DIIS: error= 7.22D-07 at cycle   2 NSaved=   2.
 NSaved= 2 IEnMin= 2 EnMin= -76.2866637902814     IErMin= 2 ErrMin= 7.22D-07
 ErrMax= 7.22D-07  0.00D+00 EMaxC= 1.00D-01 BMatC= 5.06D-12 BMatP= 4.81D-11
 IDIUse=1 WtCom= 1.00D+00 WtEn= 0.00D+00
 Coeff-Com:  0.323D-01 0.968D+00
 Coeff:      0.323D-01 0.968D+00
 Gap=     0.504 Goal=   None    Shift=    0.000
 RMSDP=1.39D-07 MaxDP=1.59D-06 DE=-6.09D-11 OVMax= 1.84D-06

 Cycle   8  Pass 1  IDiag  1:
 E= -76.2866637902862     Delta-E=       -0.000000000005 Rises=F Damp=F
 DIIS: error= 4.45D-07 at cycle   3 NSaved=   3.
 NSaved= 3 IEnMin= 3 EnMin= -76.2866637902862     IErMin= 3 ErrMin= 4.45D-07
 ErrMax= 4.45D-07  0.00D+00 EMaxC= 1.00D-01 BMatC= 2.98D-12 BMatP= 5.06D-12
 IDIUse=1 WtCom= 1.00D+00 WtEn= 0.00D+00
 Coeff-Com: -0.936D-01 0.448D+00 0.645D+00
 Coeff:     -0.936D-01 0.448D+00 0.645D+00
 Gap=     0.504 Goal=   None    Shift=    0.000
 RMSDP=4.41D-08 MaxDP=5.05D-07 DE=-4.75D-12 OVMax= 5.76D-07

 Cycle   9  Pass 1  IDiag  1:
 E= -76.2866637902885     Delta-E=       -0.000000000002 Rises=F Damp=F
 DIIS: error= 6.12D-08 at cycle   4 NSaved=   4.
 NSaved= 4 IEnMin= 4 EnMin= -76.2866637902885     IErMin= 4 ErrMin= 6.12D-08
 ErrMax= 6.12D-08  0.00D+00 EMaxC= 1.00D-01 BMatC= 2.93D-14 BMatP= 2.98D-12
 IDIUse=1 WtCom= 1.00D+00 WtEn= 0.00D+00
 Coeff-Com: -0.515D-02-0.460D-01 0.369D-02 0.105D+01
 Coeff:     -0.515D-02-0.460D-01 0.369D-02 0.105D+01
 Gap=     0.504 Goal=   None    Shift=    0.000
 RMSDP=1.47D-08 MaxDP=1.33D-07 DE=-2.33D-12 OVMax= 1.98D-07

 Cycle  10  Pass 1  IDiag  1:
 E= -76.2866637902885     Delta-E=        0.000000000000 Rises=F Damp=F
 DIIS: error= 8.38D-09 at cycle   5 NSaved=   5.
 NSaved= 5 IEnMin= 4 EnMin= -76.2866637902885     IErMin= 5 ErrMin= 8.38D-09
 ErrMax= 8.38D-09  0.00D+00 EMaxC= 1.00D-01 BMatC= 1.20D-15 BMatP= 2.93D-14
 IDIUse=1 WtCom= 1.00D+00 WtEn= 0.00D+00
 Coeff-Com:  0.322D-02-0.230D-01-0.335D-01 0.877D-01 0.966D+00
 Coeff:      0.322D-02-0.230D-01-0.335D-01 0.877D-01 0.966D+00
 Gap=     0.504 Goal=   None    Shift=    0.000
 RMSDP=2.78D-09 MaxDP=2.19D-08 DE= 0.00D+00 OVMax= 3.37D-08

 SCF Done:  E(RB2PLYPD3) =  -76.2866637903     A.U. after   10 cycles
            NFock= 10  Conv=0.28D-08     -V/T= 2.0058
 KE= 7.584478255536D+01 PE=-1.989512199127D+02 EE= 3.764571950303D+01
 Leave Link  502 at Wed Aug 19 17:46:09 2020, MaxMem=    65536000 cpu:         1.0
 (Enter /opt/cluster/programs/g09/g09_d.01/g09/l801.exe)
 DoSCS=T DFT=T ScalE2(SS,OS)=  0.270000  0.270000
 ExpMin= 1.61D-01 ExpMax= 5.48D+03 ExpMxC= 8.25D+02 IAcc=3 IRadAn=         5 AccDes= 0.00D+00
 HarFok:  IExCor=  205 AccDes= 0.00D+00 IRadAn=         5 IDoV=-2 UseB2=F ITyADJ=14
 ICtDFT= 12500011 ScaDFX=  1.000000  1.000000  1.000000  1.000000
 Largest valence mixing into a core orbital is  4.87D-05
 Largest core mixing into a valence orbital is  1.04D-05
 Range of M.O.s used for correlation:     2    25
 NBasis=    25 NAE=     5 NBE=     5 NFC=     1 NFV=     0
 NROrb=     24 NOA=     4 NOB=     4 NVA=    20 NVB=    20
 Leave Link  801 at Wed Aug 19 17:46:09 2020, MaxMem=    65536000 cpu:         0.3
 (Enter /opt/cluster/programs/g09/g09_d.01/g09/l906.exe)
 DoSCS=T DFT=T ScalE2(SS,OS)=  0.270000  0.270000
 Frozen-core derivative calculation, NFC=   1 NFV=   0.
 FulOut=F Deriv=T AODrv=T NAtomX=     3
   MMem=       10157  MDisk=           4 MDiskD=           4
  W3Min=        3125 MinDsk=       58575 NBas6D=          25
 NBas2D=         358    NTT=         325    LW2=     2040000
    MDV=    65521556 MDiskM=       35289 NBas2p=         258
 Fully direct method using O(ONN) memory.
 IMap=   1   2   3   4   5
 JobTyp=1 Pass  1:  I=   2 to   5 NPSUse=  8 ParTrn=T ParDer=T DoDerP=T.
 Spin components of T(2) and E(2):
     alpha-alpha T2 =       0.9168588300D-02 E2=     -0.7919587695D-02
     alpha-beta  T2 =       0.5534814617D-01 E2=     -0.4743989744D-01
     beta-beta   T2 =       0.9168588300D-02 E2=     -0.7919587695D-02
 The integrals were generated   1 times.
 E2(B2PLYPD3) =    -0.6327907283D-01 E(B2PLYPD3) =    -0.76349942863120D+02
 Leave Link  906 at Wed Aug 19 17:46:09 2020, MaxMem=    65536000 cpu:         0.9
 (Enter /opt/cluster/programs/g09/g09_d.01/g09/l1002.exe)
 Minotr:  Closed shell wavefunction.
          Computing MP2/KS-MP2 derivatives.
          Using Z-Vector for PSCF gradient.
          Skipping F1 and S1 gradient terms here.
          IDoAtm=111
          Frozen-core window.
          Direct CPHF calculation.
          Differentiating once with respect to electric field.
                with respect to dipole field.
          Differentiating once with respect to nuclear coordinates.
          Using symmetry in CPHF.
          Requested convergence is 1.0D-10 RMS, and 1.0D-09 maximum.
          NewPWx=F KeepS1=T KeepF1=T KeepIn=T MapXYZ=F SortEE=F KeepMc=T.
          MDV=      65535942 using IRadAn=       0.
 Using stored XC quadrature information.
 Keep R1 ints in memory in symmetry-blocked form, NReq=914622.
 FoFCou: FMM=F IPFlag=           0 FMFlag=           0 FMFlg1=           0
         NFxFlg=           0 DoJE=F BraDBF=F KetDBF=F FulRan=T
         wScrn=  0.000000 ICntrl=     600 IOpCl=  0 I1Cent=           0 NGrid=           0
         NMat0=    1 NMatS0=    325 NMatT0=    0 NMatD0=    1 NMtDS0=    0 NMtDT0=    0
 Petite list used in FoFCou.
          Solving linear equations separately, MaxMat=       0.
          There are     1 degrees of freedom in the 1st order CPHF.  IDoFFX=0 NUNeed=     1.
 LinEq1:  Iter=  0 NonCon=     1 RMS=2.30D-03 Max=1.44D-02 NDo=     1
 AX will form     1 AO Fock derivatives at one time.
 LinEq1:  Iter=  1 NonCon=     1 RMS=6.43D-04 Max=3.42D-03 NDo=     1
 LinEq1:  Iter=  2 NonCon=     1 RMS=1.95D-04 Max=9.75D-04 NDo=     1
 LinEq1:  Iter=  3 NonCon=     1 RMS=1.87D-05 Max=8.31D-05 NDo=     1
 LinEq1:  Iter=  4 NonCon=     1 RMS=3.59D-06 Max=1.64D-05 NDo=     1
 LinEq1:  Iter=  5 NonCon=     1 RMS=4.14D-07 Max=2.09D-06 NDo=     1
 LinEq1:  Iter=  6 NonCon=     1 RMS=2.25D-08 Max=1.37D-07 NDo=     1
 LinEq1:  Iter=  7 NonCon=     1 RMS=1.37D-09 Max=4.96D-09 NDo=     1
 LinEq1:  Iter=  8 NonCon=     0 RMS=8.01D-11 Max=5.30D-10 NDo=     1
 Linear equations converged to 1.000D-10 1.000D-09 after     8 iterations.
 End of Minotr F.D. properties file   721 does not exist.
 End of Minotr F.D. properties file   722 does not exist.
 End of Minotr F.D. properties file   788 does not exist.
 Leave Link 1002 at Wed Aug 19 17:46:09 2020, MaxMem=    65536000 cpu:         1.4
 (Enter /opt/cluster/programs/g09/g09_d.01/g09/l701.exe)
 Compute integral first derivatives.
 ... and contract with generalized density number  2.
 R6Disp: Adding Grimme-D3(BJ) dispersion energy 1st derivatives to the gradient.
 Leave Link  701 at Wed Aug 19 17:46:09 2020, MaxMem=    65536000 cpu:         0.8
 (Enter /opt/cluster/programs/g09/g09_d.01/g09/l702.exe)
 L702 exits ... SP integral derivatives will be done elsewhere.
 Leave Link  702 at Wed Aug 19 17:46:09 2020, MaxMem=    65536000 cpu:         0.1
 (Enter /opt/cluster/programs/g09/g09_d.01/g09/l703.exe)
 Compute integral first derivatives, UseDBF=F ICtDFT=           0.
 Integral derivatives from FoFJK, PRISM(SPDF).
 Calling FoFJK, ICntrl=  10002127 FMM=F ISym2X=1 I1Cent= 0 IOpClX= 0 NMat=1 NMatS=1 NMatT=0.
 FoFJK:  IHMeth= 1 ICntrl=10002127 DoSepK=F KAlg= 0 I1Cent=   0 FoldK=F
 IRaf=         0 NMat=   1 IRICut=       1 DoRegI=T DoRafI=F ISym2E= 1.
 FoFCou: FMM=F IPFlag=           0 FMFlag=      100000 FMFlg1=         800
         NFxFlg=           0 DoJE=F BraDBF=F KetDBF=F FulRan=T
         wScrn=  0.000000 ICntrl=10002127 IOpCl=  0 I1Cent=           0 NGrid=           0
         NMat0=    1 NMatS0=      1 NMatT0=    0 NMatD0=    1 NMtDS0=    0 NMtDT0=    0
 Petite list used in FoFCou.
 Leave Link  703 at Wed Aug 19 17:46:09 2020, MaxMem=    65536000 cpu:         1.0
 (Enter /opt/cluster/programs/g09/g09_d.01/g09/l716.exe)
 Dipole        =-1.97716122D-17-8.88178420D-16-8.15674964D-01
 ***** Axes restored to original set *****
 -------------------------------------------------------------------
 Center     Atomic                   Forces (Hartrees/Bohr)
 Number     Number              X              Y              Z
 -------------------------------------------------------------------
      1        8          -0.001648532   -0.002292883    0.000421852
      2        1           0.003138593   -0.000463028    0.000085189
      3        1          -0.001490061    0.002755911   -0.000507041
 -------------------------------------------------------------------
 Cartesian Forces:  Max     0.003138593 RMS     0.001773188
 Leave Link  716 at Wed Aug 19 17:46:09 2020, MaxMem=    65536000 cpu:         0.1
 (Enter /opt/cluster/programs/g09/g09_d.01/g09/l103.exe)

 GradGradGradGradGradGradGradGradGradGradGradGradGradGradGradGradGradGrad
 Berny optimization.
 Using GEDIIS/GDIIS optimizer.
 FormGI is forming the generalized inverse of G from B-inverse, IUseBI=4.
 Internal  Forces:  Max     0.003110423 RMS     0.002624065
 Search for a local minimum.
 Step number   2 out of a maximum of   20
 All quantities printed in internal units (Hartrees-Bohrs-Radians)
 RMS Force = .26241D-02 SwitMx=.10000D-02 MixMth= 1
 Mixed Optimization -- RFO/linear search
 Update second derivatives using D2CorX and points    1    2
 DE= -9.57D-04 DEPred=-1.07D-03 R= 8.96D-01
 TightC=F SS=  1.41D+00  RLast= 1.06D-01 DXNew= 5.0454D-01 3.1800D-01
 Trust test= 8.96D-01 RLast= 1.06D-01 DXMaxT set to 3.18D-01
 The second derivative matrix:
                          R1        R2        A1
           R1           0.56025
           R2           0.02648   0.56025
           A1           0.02062   0.02062   0.16535
 ITU=  1  0
 Use linear search instead of GDIIS.
     Eigenvalues ---    0.16334   0.53377   0.58875
 RFO step:  Lambda=-1.45436614D-05 EMin= 1.63344676D-01
 Quartic linear search produced a step of -0.09714.
 Iteration  1 RMS(Cart)=  0.00557640 RMS(Int)=  0.00000940
 Iteration  2 RMS(Cart)=  0.00000700 RMS(Int)=  0.00000000
 Iteration  3 RMS(Cart)=  0.00000000 RMS(Int)=  0.00000000
 ITry= 1 IFail=0 DXMaxC= 5.66D-03 DCOld= 1.00D+10 DXMaxT= 3.18D-01 DXLimC= 3.00D+00 Rises=F
 ClnCor:  largest displacement from symmetrization is 1.95D-15 for atom     3.
 Variable       Old X    -DE/DX   Delta X   Delta X   Delta X     New X
                                 (Linear)    (Quad)   (Total)
    R1        1.81335   0.00311   0.00191   0.00318   0.00509   1.81844
    R2        1.81335   0.00311   0.00191   0.00318   0.00509   1.81844
    A1        1.80835   0.00114   0.00994  -0.00490   0.00504   1.81339
         Item               Value     Threshold  Converged?
 Maximum Force            0.003110     0.000450     NO 
 RMS     Force            0.002624     0.000300     NO 
 Maximum Displacement     0.005663     0.001800     NO 
 RMS     Displacement     0.005579     0.001200     NO 
 Predicted change in Energy=-1.906778D-05
 Lowest energy point so far.  Saving SCF results.
 GradGradGradGradGradGradGradGradGradGradGradGradGradGradGradGradGradGrad

 Leave Link  103 at Wed Aug 19 17:46:09 2020, MaxMem=    65536000 cpu:         0.0
 (Enter /opt/cluster/programs/g09/g09_d.01/g09/l202.exe)
                          Input orientation:                          
 ---------------------------------------------------------------------
 Center     Atomic      Atomic             Coordinates (Angstroms)
 Number     Number       Type             X           Y           Z
 ---------------------------------------------------------------------
      1          8           0       -5.329900   -0.768735    0.921867
      2          1           0       -4.368759   -0.722737    0.913405
      3          1           0       -5.606181    0.137812    0.755078
 ---------------------------------------------------------------------
                    Distance matrix (angstroms):
                    1          2          3
     1  O    0.000000
     2  H    0.962278   0.000000
     3  H    0.962278   1.515529   0.000000
 Stoichiometry    H2O
 Framework group  C2V[C2(O),SGV(H2)]
 Deg. of freedom     2
 Full point group                 C2V     NOp   4
 RotChk:  IX=3 Diff= 1.64D-15
 Largest Abelian subgroup         C2V     NOp   4
 Largest concise Abelian subgroup C2      NOp   2
                         Standard orientation:                         
 ---------------------------------------------------------------------
 Center     Atomic      Atomic             Coordinates (Angstroms)
 Number     Number       Type             X           Y           Z
 ---------------------------------------------------------------------
      1          8           0        0.000000    0.000000    0.118621
      2          1           0        0.000000   -0.757764   -0.474483
      3          1           0        0.000000    0.757764   -0.474483
 ---------------------------------------------------------------------
 Rotational constants (GHZ):    802.5766981    436.6501160    282.7934357
 Leave Link  202 at Wed Aug 19 17:46:09 2020, MaxMem=    65536000 cpu:         0.0
 (Enter /opt/cluster/programs/g09/g09_d.01/g09/l301.exe)
 Standard basis: 6-31G(d,p) (6D, 7F)
 Ernie: Thresh=  0.10000D-02 Tol=  0.10000D-05 Strict=F.
 There are    12 symmetry adapted cartesian basis functions of A1  symmetry.
 There are     2 symmetry adapted cartesian basis functions of A2  symmetry.
 There are     4 symmetry adapted cartesian basis functions of B1  symmetry.
 There are     7 symmetry adapted cartesian basis functions of B2  symmetry.
 There are    12 symmetry adapted basis functions of A1  symmetry.
 There are     2 symmetry adapted basis functions of A2  symmetry.
 There are     4 symmetry adapted basis functions of B1  symmetry.
 There are     7 symmetry adapted basis functions of B2  symmetry.
    25 basis functions,    42 primitive gaussians,    25 cartesian basis functions
     5 alpha electrons        5 beta electrons
       nuclear repulsion energy         9.1479125950 Hartrees.
 IExCor=  419 DFT=T Ex+Corr=B2PLYPD3 ExCW=0 ScaHFX=  0.530000
 ScaDFX=  0.470000  0.470000  0.730000  0.730000 ScalE2=  0.270000  0.270000
 IRadAn=      0 IRanWt=     -1 IRanGd=            0 ICorTp=0 IEmpDi=141
 NAtoms=    3 NActive=    3 NUniq=    2 SFac= 2.25D+00 NAtFMM=   60 NAOKFM=F Big=F
 Integral buffers will be    131072 words long.
 Regular integral format.
 Two-electron integral symmetry is turned on.
 R6Disp:  Grimme-D3(BJ) Dispersion energy=       -0.0002343026 Hartrees.
 Nuclear repulsion after empirical dispersion term =        9.1476782924 Hartrees.
 Leave Link  301 at Wed Aug 19 17:46:09 2020, MaxMem=    65536000 cpu:         0.4
 (Enter /opt/cluster/programs/g09/g09_d.01/g09/l302.exe)
 NPDir=0 NMtPBC=     1 NCelOv=     1 NCel=       1 NClECP=     1 NCelD=      1
         NCelK=      1 NCelE2=     1 NClLst=     1 CellRange=     0.0.
 One-electron integrals computed using PRISM.
 One-electron integral symmetry used in STVInt
 NBasis=    25 RedAO= T EigKep=  4.08D-02  NBF=    12     2     4     7
 NBsUse=    25 1.00D-06 EigRej= -1.00D+00 NBFU=    12     2     4     7
 Precomputing XC quadrature grid using
 IXCGrd= 4 IRadAn=           0 IRanWt=          -1 IRanGd=           0 AccXCQ= 0.00D+00.
 Generated NRdTot=       0 NPtTot=           0 NUsed=           0 NTot=          32
 NSgBfM=    25    25    25    25    25 MxSgAt=     3 MxSgA2=     3.
 Leave Link  302 at Wed Aug 19 17:46:10 2020, MaxMem=    65536000 cpu:         0.8
 (Enter /opt/cluster/programs/g09/g09_d.01/g09/l303.exe)
 DipDrv:  MaxL=1.
 Leave Link  303 at Wed Aug 19 17:46:10 2020, MaxMem=    65536000 cpu:         0.1
 (Enter /opt/cluster/programs/g09/g09_d.01/g09/l401.exe)
 Initial guess from the checkpoint file:  "water_opt.chk"
 B after Tr=     0.000000    0.000000    0.000000
         Rot=    1.000000    0.000000    0.000000    0.000000 Ang=   0.00 deg.
 Guess basis will be translated and rotated to current coordinates.
 JPrj=2 DoOrth=T DoCkMO=T.
 Initial guess orbital symmetries:
       Occupied  (A1) (A1) (B2) (A1) (B1)
       Virtual   (A1) (A1) (A1) (A1) (A1) (A1) (A1) (A1) (A1) (A2)
                 (A2) (B1) (B1) (B1) (B2) (B2) (B2) (B2) (B2) (B2)
 The electronic state of the initial guess is 1-A1.
 Leave Link  401 at Wed Aug 19 17:46:10 2020, MaxMem=    65536000 cpu:         0.6
 (Enter /opt/cluster/programs/g09/g09_d.01/g09/l502.exe)
 Closed shell SCF:
 Using DIIS extrapolation, IDIIS=  1040.
 Integral symmetry usage will be decided dynamically.
 Keep R1 ints in memory in symmetry-blocked form, NReq=934817.
 IVT=       20883 IEndB=       20883 NGot=    65536000 MDV=    65499004
 LenX=    65499004 LenY=    65497938
 Requested convergence on RMS density matrix=1.00D-08 within 128 cycles.
 Requested convergence on MAX density matrix=1.00D-06.
 Requested convergence on             energy=1.00D-06.
 No special actions if energy rises.
 FoFCou: FMM=F IPFlag=           0 FMFlag=           0 FMFlg1=           0
         NFxFlg=           0 DoJE=F BraDBF=F KetDBF=F FulRan=T
         wScrn=  0.000000 ICntrl=     600 IOpCl=  0 I1Cent=           0 NGrid=           0
         NMat0=    1 NMatS0=    325 NMatT0=    0 NMatD0=    1 NMtDS0=    0 NMtDT0=    0
 Petite list used in FoFCou.

 Cycle   1  Pass 1  IDiag  1:
 E= -76.2866055552108    
 DIIS: error= 5.11D-04 at cycle   1 NSaved=   1.
 NSaved= 1 IEnMin= 1 EnMin= -76.2866055552108     IErMin= 1 ErrMin= 5.11D-04
 ErrMax= 5.11D-04  0.00D+00 EMaxC= 1.00D-01 BMatC= 4.81D-06 BMatP= 4.81D-06
 IDIUse=3 WtCom= 9.95D-01 WtEn= 5.11D-03
 Coeff-Com:  0.100D+01
 Coeff-En:   0.100D+01
 Coeff:      0.100D+01
 Gap=     2.006 Goal=   None    Shift=    0.000
 RMSDP=8.20D-05 MaxDP=4.91D-04              OVMax= 8.19D-04

 Cycle   2  Pass 1  IDiag  1:
 E= -76.2866095365459     Delta-E=       -0.000003981335 Rises=F Damp=F
 DIIS: error= 2.30D-04 at cycle   2 NSaved=   2.
 NSaved= 2 IEnMin= 2 EnMin= -76.2866095365459     IErMin= 2 ErrMin= 2.30D-04
 ErrMax= 2.30D-04  0.00D+00 EMaxC= 1.00D-01 BMatC= 7.90D-07 BMatP= 4.81D-06
 IDIUse=3 WtCom= 9.98D-01 WtEn= 2.30D-03
 Coeff-Com:  0.189D+00 0.811D+00
 Coeff-En:   0.000D+00 0.100D+01
 Coeff:      0.189D+00 0.811D+00
 Gap=     0.503 Goal=   None    Shift=    0.000
 RMSDP=3.12D-05 MaxDP=3.44D-04 DE=-3.98D-06 OVMax= 2.80D-04

 Cycle   3  Pass 1  IDiag  1:
 E= -76.2866099082726     Delta-E=       -0.000000371727 Rises=F Damp=F
 DIIS: error= 1.12D-04 at cycle   3 NSaved=   3.
 NSaved= 3 IEnMin= 3 EnMin= -76.2866099082726     IErMin= 3 ErrMin= 1.12D-04
 ErrMax= 1.12D-04  0.00D+00 EMaxC= 1.00D-01 BMatC= 2.50D-07 BMatP= 7.90D-07
 IDIUse=3 WtCom= 9.99D-01 WtEn= 1.12D-03
 Coeff-Com: -0.251D-01 0.352D+00 0.674D+00
 Coeff-En:   0.000D+00 0.186D+00 0.814D+00
 Coeff:     -0.250D-01 0.351D+00 0.674D+00
 Gap=     0.503 Goal=   None    Shift=    0.000
 RMSDP=1.36D-05 MaxDP=1.31D-04 DE=-3.72D-07 OVMax= 1.49D-04

 Cycle   4  Pass 1  IDiag  1:
 E= -76.2866100882119     Delta-E=       -0.000000179939 Rises=F Damp=F
 DIIS: error= 9.48D-06 at cycle   4 NSaved=   4.
 NSaved= 4 IEnMin= 4 EnMin= -76.2866100882119     IErMin= 4 ErrMin= 9.48D-06
 ErrMax= 9.48D-06  0.00D+00 EMaxC= 1.00D-01 BMatC= 1.76D-09 BMatP= 2.50D-07
 IDIUse=1 WtCom= 1.00D+00 WtEn= 0.00D+00
 Coeff-Com: -0.859D-02 0.149D-01 0.933D-01 0.900D+00
 Coeff:     -0.859D-02 0.149D-01 0.933D-01 0.900D+00
 Gap=     0.503 Goal=   None    Shift=    0.000
 RMSDP=1.46D-06 MaxDP=1.27D-05 DE=-1.80D-07 OVMax= 1.80D-05

 Cycle   5  Pass 1  IDiag  1:
 E= -76.2866100900184     Delta-E=       -0.000000001806 Rises=F Damp=F
 DIIS: error= 1.61D-06 at cycle   5 NSaved=   5.
 NSaved= 5 IEnMin= 5 EnMin= -76.2866100900184     IErMin= 5 ErrMin= 1.61D-06
 ErrMax= 1.61D-06  0.00D+00 EMaxC= 1.00D-01 BMatC= 3.71D-11 BMatP= 1.76D-09
 IDIUse=1 WtCom= 1.00D+00 WtEn= 0.00D+00
 Coeff-Com:  0.181D-02-0.151D-01-0.302D-01-0.109D+00 0.115D+01
 Coeff:      0.181D-02-0.151D-01-0.302D-01-0.109D+00 0.115D+01
 Gap=     0.503 Goal=   None    Shift=    0.000
 RMSDP=6.19D-07 MaxDP=4.17D-06 DE=-1.81D-09 OVMax= 8.11D-06

 Cycle   6  Pass 1  IDiag  1:
 E= -76.2866100901163     Delta-E=       -0.000000000098 Rises=F Damp=F
 DIIS: error= 2.18D-07 at cycle   6 NSaved=   6.
 NSaved= 6 IEnMin= 6 EnMin= -76.2866100901163     IErMin= 6 ErrMin= 2.18D-07
 ErrMax= 2.18D-07  0.00D+00 EMaxC= 1.00D-01 BMatC= 6.66D-13 BMatP= 3.71D-11
 IDIUse=1 WtCom= 1.00D+00 WtEn= 0.00D+00
 Coeff-Com: -0.241D-03 0.269D-02 0.519D-02 0.750D-02-0.240D+00 0.122D+01
 Coeff:     -0.241D-03 0.269D-02 0.519D-02 0.750D-02-0.240D+00 0.122D+01
 Gap=     0.503 Goal=   None    Shift=    0.000
 RMSDP=8.69D-08 MaxDP=7.24D-07 DE=-9.79D-11 OVMax= 1.06D-06

 Cycle   7  Pass 1  IDiag  1:
 E= -76.2866100901178     Delta-E=       -0.000000000002 Rises=F Damp=F
 DIIS: error= 1.82D-08 at cycle   7 NSaved=   7.
 NSaved= 7 IEnMin= 7 EnMin= -76.2866100901178     IErMin= 7 ErrMin= 1.82D-08
 ErrMax= 1.82D-08  0.00D+00 EMaxC= 1.00D-01 BMatC= 5.32D-15 BMatP= 6.66D-13
 IDIUse=1 WtCom= 1.00D+00 WtEn= 0.00D+00
 Coeff-Com:  0.252D-04-0.329D-03-0.681D-03-0.165D-03 0.338D-01-0.233D+00
 Coeff-Com:  0.120D+01
 Coeff:      0.252D-04-0.329D-03-0.681D-03-0.165D-03 0.338D-01-0.233D+00
 Coeff:      0.120D+01
 Gap=     0.503 Goal=   None    Shift=    0.000
 RMSDP=5.64D-09 MaxDP=5.38D-08 DE=-1.51D-12 OVMax= 5.90D-08

 SCF Done:  E(RB2PLYPD3) =  -76.2866100901     A.U. after    7 cycles
            NFock=  7  Conv=0.56D-08     -V/T= 2.0060
 KE= 7.583429273086D+01 PE=-1.988949323661D+02 EE= 3.762635125269D+01
 Leave Link  502 at Wed Aug 19 17:46:10 2020, MaxMem=    65536000 cpu:         0.9
 (Enter /opt/cluster/programs/g09/g09_d.01/g09/l801.exe)
 DoSCS=T DFT=T ScalE2(SS,OS)=  0.270000  0.270000
 ExpMin= 1.61D-01 ExpMax= 5.48D+03 ExpMxC= 8.25D+02 IAcc=3 IRadAn=         5 AccDes= 0.00D+00
 HarFok:  IExCor=  205 AccDes= 0.00D+00 IRadAn=         5 IDoV=-2 UseB2=F ITyADJ=14
 ICtDFT= 12500011 ScaDFX=  1.000000  1.000000  1.000000  1.000000
 Largest valence mixing into a core orbital is  4.87D-05
 Largest core mixing into a valence orbital is  1.05D-05
 Range of M.O.s used for correlation:     2    25
 NBasis=    25 NAE=     5 NBE=     5 NFC=     1 NFV=     0
 NROrb=     24 NOA=     4 NOB=     4 NVA=    20 NVB=    20
 Leave Link  801 at Wed Aug 19 17:46:10 2020, MaxMem=    65536000 cpu:         0.2
 (Enter /opt/cluster/programs/g09/g09_d.01/g09/l906.exe)
 DoSCS=T DFT=T ScalE2(SS,OS)=  0.270000  0.270000
 Frozen-core derivative calculation, NFC=   1 NFV=   0.
 FulOut=F Deriv=T AODrv=T NAtomX=     3
   MMem=       10157  MDisk=           4 MDiskD=           4
  W3Min=        3125 MinDsk=       58575 NBas6D=          25
 NBas2D=         358    NTT=         325    LW2=     2040000
    MDV=    65521556 MDiskM=       35289 NBas2p=         258
 Fully direct method using O(ONN) memory.
 IMap=   1   2   3   4   5
 JobTyp=1 Pass  1:  I=   2 to   5 NPSUse=  8 ParTrn=T ParDer=T DoDerP=T.
 Spin components of T(2) and E(2):
     alpha-alpha T2 =       0.9192645867D-02 E2=     -0.7926568828D-02
     alpha-beta  T2 =       0.5555824075D-01 E2=     -0.4749899244D-01
     beta-beta   T2 =       0.9192645867D-02 E2=     -0.7926568828D-02
 The integrals were generated   1 times.
 E2(B2PLYPD3) =    -0.6335213009D-01 E(B2PLYPD3) =    -0.76349962220210D+02
 Leave Link  906 at Wed Aug 19 17:46:10 2020, MaxMem=    65536000 cpu:         1.0
 (Enter /opt/cluster/programs/g09/g09_d.01/g09/l1002.exe)
 Minotr:  Closed shell wavefunction.
          Computing MP2/KS-MP2 derivatives.
          Using Z-Vector for PSCF gradient.
          Skipping F1 and S1 gradient terms here.
          IDoAtm=111
          Frozen-core window.
          Direct CPHF calculation.
          Differentiating once with respect to electric field.
                with respect to dipole field.
          Differentiating once with respect to nuclear coordinates.
          Using symmetry in CPHF.
          Requested convergence is 1.0D-10 RMS, and 1.0D-09 maximum.
          NewPWx=F KeepS1=T KeepF1=T KeepIn=T MapXYZ=F SortEE=F KeepMc=T.
          MDV=      65535942 using IRadAn=       0.
 Using stored XC quadrature information.
 Keep R1 ints in memory in symmetry-blocked form, NReq=914622.
 FoFCou: FMM=F IPFlag=           0 FMFlag=           0 FMFlg1=           0
         NFxFlg=           0 DoJE=F BraDBF=F KetDBF=F FulRan=T
         wScrn=  0.000000 ICntrl=     600 IOpCl=  0 I1Cent=           0 NGrid=           0
         NMat0=    1 NMatS0=    325 NMatT0=    0 NMatD0=    1 NMtDS0=    0 NMtDT0=    0
 Petite list used in FoFCou.
          Solving linear equations separately, MaxMat=       0.
          There are     1 degrees of freedom in the 1st order CPHF.  IDoFFX=0 NUNeed=     1.
 LinEq1:  Iter=  0 NonCon=     1 RMS=2.31D-03 Max=1.45D-02 NDo=     1
 AX will form     1 AO Fock derivatives at one time.
 LinEq1:  Iter=  1 NonCon=     1 RMS=6.46D-04 Max=3.46D-03 NDo=     1
 LinEq1:  Iter=  2 NonCon=     1 RMS=1.97D-04 Max=9.87D-04 NDo=     1
 LinEq1:  Iter=  3 NonCon=     1 RMS=1.91D-05 Max=8.53D-05 NDo=     1
 LinEq1:  Iter=  4 NonCon=     1 RMS=3.66D-06 Max=1.67D-05 NDo=     1
 LinEq1:  Iter=  5 NonCon=     1 RMS=4.21D-07 Max=2.11D-06 NDo=     1
 LinEq1:  Iter=  6 NonCon=     1 RMS=2.29D-08 Max=1.39D-07 NDo=     1
 LinEq1:  Iter=  7 NonCon=     1 RMS=1.39D-09 Max=5.03D-09 NDo=     1
 LinEq1:  Iter=  8 NonCon=     0 RMS=8.14D-11 Max=5.44D-10 NDo=     1
 Linear equations converged to 1.000D-10 1.000D-09 after     8 iterations.
 End of Minotr F.D. properties file   721 does not exist.
 End of Minotr F.D. properties file   722 does not exist.
 End of Minotr F.D. properties file   788 does not exist.
 Leave Link 1002 at Wed Aug 19 17:46:10 2020, MaxMem=    65536000 cpu:         1.4
 (Enter /opt/cluster/programs/g09/g09_d.01/g09/l701.exe)
 Compute integral first derivatives.
 ... and contract with generalized density number  2.
 R6Disp: Adding Grimme-D3(BJ) dispersion energy 1st derivatives to the gradient.
 Leave Link  701 at Wed Aug 19 17:46:10 2020, MaxMem=    65536000 cpu:         0.8
 (Enter /opt/cluster/programs/g09/g09_d.01/g09/l702.exe)
 L702 exits ... SP integral derivatives will be done elsewhere.
 Leave Link  702 at Wed Aug 19 17:46:10 2020, MaxMem=    65536000 cpu:         0.1
 (Enter /opt/cluster/programs/g09/g09_d.01/g09/l703.exe)
 Compute integral first derivatives, UseDBF=F ICtDFT=           0.
 Integral derivatives from FoFJK, PRISM(SPDF).
 Calling FoFJK, ICntrl=  10002127 FMM=F ISym2X=1 I1Cent= 0 IOpClX= 0 NMat=1 NMatS=1 NMatT=0.
 FoFJK:  IHMeth= 1 ICntrl=10002127 DoSepK=F KAlg= 0 I1Cent=   0 FoldK=F
 IRaf=         0 NMat=   1 IRICut=       1 DoRegI=T DoRafI=F ISym2E= 1.
 FoFCou: FMM=F IPFlag=           0 FMFlag=      100000 FMFlg1=         800
         NFxFlg=           0 DoJE=F BraDBF=F KetDBF=F FulRan=T
         wScrn=  0.000000 ICntrl=10002127 IOpCl=  0 I1Cent=           0 NGrid=           0
         NMat0=    1 NMatS0=      1 NMatT0=    0 NMatD0=    1 NMtDS0=    0 NMtDT0=    0
 Petite list used in FoFCou.
 Leave Link  703 at Wed Aug 19 17:46:11 2020, MaxMem=    65536000 cpu:         1.0
 (Enter /opt/cluster/programs/g09/g09_d.01/g09/l716.exe)
 Dipole        = 5.37275565D-18-8.88178420D-16-8.14374475D-01
 ***** Axes restored to original set *****
 -------------------------------------------------------------------
 Center     Atomic                   Forces (Hartrees/Bohr)
 Number     Number              X              Y              Z
 -------------------------------------------------------------------
      1        8          -0.000139620   -0.000194192    0.000035728
      2        1           0.000159541    0.000034694   -0.000006383
      3        1          -0.000019921    0.000159498   -0.000029345
 -------------------------------------------------------------------
 Cartesian Forces:  Max     0.000194192 RMS     0.000111493
 Leave Link  716 at Wed Aug 19 17:46:11 2020, MaxMem=    65536000 cpu:         0.2
 (Enter /opt/cluster/programs/g09/g09_d.01/g09/l103.exe)

 GradGradGradGradGradGradGradGradGradGradGradGradGradGradGradGradGradGrad
 Berny optimization.
 Using GEDIIS/GDIIS optimizer.
 FormGI is forming the generalized inverse of G from B-inverse, IUseBI=4.
 Internal  Forces:  Max     0.000161067 RMS     0.000134638
 Search for a local minimum.
 Step number   3 out of a maximum of   20
 All quantities printed in internal units (Hartrees-Bohrs-Radians)
 RMS Force = .13464D-03 SwitMx=.10000D-02 MixMth= 2
 Mixed Optimization -- En-DIIS/RFO-DIIS
 Update second derivatives using D2CorX and points    1    2    3
 DE= -1.94D-05 DEPred=-1.91D-05 R= 1.02D+00
 TightC=F SS=  1.41D+00  RLast= 8.79D-03 DXNew= 5.3482D-01 2.6360D-02
 Trust test= 1.02D+00 RLast= 8.79D-03 DXMaxT set to 3.18D-01
 The second derivative matrix:
                          R1        R2        A1
           R1           0.54105
           R2           0.00728   0.54105
           A1           0.03132   0.03132   0.17364
 ITU=  1  1  0
 Use linear search instead of GDIIS.
     Eigenvalues ---    0.16848   0.53377   0.55350
 RFO step:  Lambda=-6.80534980D-08 EMin= 1.68480316D-01
 Quartic linear search produced a step of  0.03887.
 Iteration  1 RMS(Cart)=  0.00022774 RMS(Int)=  0.00000005
 Iteration  2 RMS(Cart)=  0.00000006 RMS(Int)=  0.00000000
 ITry= 1 IFail=0 DXMaxC= 2.57D-04 DCOld= 1.00D+10 DXMaxT= 3.18D-01 DXLimC= 3.00D+00 Rises=F
 ClnCor:  largest displacement from symmetrization is 3.09D-15 for atom     3.
 Variable       Old X    -DE/DX   Delta X   Delta X   Delta X     New X
                                 (Linear)    (Quad)   (Total)
    R1        1.81844   0.00016   0.00020   0.00012   0.00032   1.81876
    R2        1.81844   0.00016   0.00020   0.00012   0.00032   1.81876
    A1        1.81339  -0.00005   0.00020  -0.00059  -0.00040   1.81299
         Item               Value     Threshold  Converged?
 Maximum Force            0.000161     0.000450     YES
 RMS     Force            0.000135     0.000300     YES
 Maximum Displacement     0.000257     0.001800     YES
 RMS     Displacement     0.000228     0.001200     YES
 Predicted change in Energy=-6.105167D-08
 Optimization completed.
    -- Stationary point found.
                           ----------------------------
                           !   Optimized Parameters   !
                           ! (Angstroms and Degrees)  !
 --------------------------                            --------------------------
 ! Name  Definition              Value          Derivative Info.                !
 --------------------------------------------------------------------------------
 ! R1    R(1,2)                  0.9623         -DE/DX =    0.0002              !
 ! R2    R(1,3)                  0.9623         -DE/DX =    0.0002              !
 ! A1    A(2,1,3)              103.8993         -DE/DX =    0.0                 !
 --------------------------------------------------------------------------------
 Lowest energy point so far.  Saving SCF results.
 GradGradGradGradGradGradGradGradGradGradGradGradGradGradGradGradGradGrad

 Largest change from initial coordinates is atom    2       0.043 Angstoms.
 Leave Link  103 at Wed Aug 19 17:46:11 2020, MaxMem=    65536000 cpu:         0.0
 (Enter /opt/cluster/programs/g09/g09_d.01/g09/l202.exe)
                          Input orientation:                          
 ---------------------------------------------------------------------
 Center     Atomic      Atomic             Coordinates (Angstroms)
 Number     Number       Type             X           Y           Z
 ---------------------------------------------------------------------
      1          8           0       -5.329900   -0.768735    0.921867
      2          1           0       -4.368759   -0.722737    0.913405
      3          1           0       -5.606181    0.137812    0.755078
 ---------------------------------------------------------------------
                    Distance matrix (angstroms):
                    1          2          3
     1  O    0.000000
     2  H    0.962278   0.000000
     3  H    0.962278   1.515529   0.000000
 Stoichiometry    H2O
 Framework group  C2V[C2(O),SGV(H2)]
 Deg. of freedom     2
 Full point group                 C2V     NOp   4
 RotChk:  IX=3 Diff= 3.12D-15
 Largest Abelian subgroup         C2V     NOp   4
 Largest concise Abelian subgroup C2      NOp   2
                         Standard orientation:                         
 ---------------------------------------------------------------------
 Center     Atomic      Atomic             Coordinates (Angstroms)
 Number     Number       Type             X           Y           Z
 ---------------------------------------------------------------------
      1          8           0        0.000000    0.000000    0.118621
      2          1           0        0.000000   -0.757764   -0.474483
      3          1           0        0.000000    0.757764   -0.474483
 ---------------------------------------------------------------------
 Rotational constants (GHZ):    802.5766981    436.6501160    282.7934357
 Leave Link  202 at Wed Aug 19 17:46:11 2020, MaxMem=    65536000 cpu:         0.0
 (Enter /opt/cluster/programs/g09/g09_d.01/g09/l601.exe)
 Copying SCF densities to generalized density rwf, IOpCl= 0 IROHF=0.

 **********************************************************************

            Population analysis using the SCF density.

 **********************************************************************

 Orbital symmetries:
       Occupied  (A1) (A1) (B2) (A1) (B1)
       Virtual   (A1) (B2) (B2) (A1) (A1) (B1) (B2) (A1) (A2) (A1)
                 (B1) (A1) (B2) (B2) (A2) (B1) (A1) (A1) (B2) (A1)
 The electronic state is 1-A1.
 Alpha  occ. eigenvalues --  -19.73286  -1.13925  -0.59258  -0.45346  -0.37772
 Alpha virt. eigenvalues --    0.12513   0.21464   0.85677   0.92037   0.99162
 Alpha virt. eigenvalues --    1.00455   1.12874   1.27315   1.64261   1.65152
 Alpha virt. eigenvalues --    1.75895   2.37506   2.39595   2.59635   2.77942
 Alpha virt. eigenvalues --    2.80090   3.17126   3.47069   3.69274   3.86177
          Condensed to atoms (all electrons):
               1          2          3
     1  O    8.046751   0.295087   0.295087
     2  H    0.295087   0.413681  -0.027230
     3  H    0.295087  -0.027230   0.413681
 Mulliken charges:
               1
     1  O   -0.636925
     2  H    0.318462
     3  H    0.318462
 Sum of Mulliken charges =   0.00000
 Mulliken charges with hydrogens summed into heavy atoms:
               1
     1  O    0.000000
 Electronic spatial extent (au):  <R**2>=             18.9891
 Charge=              0.0000 electrons
 Dipole moment (field-independent basis, Debye):
    X=              0.0000    Y=              0.0000    Z=             -2.1103  Tot=              2.1103
 Quadrupole moment (field-independent basis, Debye-Ang):
   XX=             -7.1463   YY=             -4.2213   ZZ=             -5.9539
   XY=              0.0000   XZ=              0.0000   YZ=              0.0000
 Traceless Quadrupole moment (field-independent basis, Debye-Ang):
   XX=             -1.3724   YY=              1.5525   ZZ=             -0.1801
   XY=              0.0000   XZ=              0.0000   YZ=              0.0000
 Octapole moment (field-independent basis, Debye-Ang**2):
  XXX=              0.0000  YYY=              0.0000  ZZZ=             -1.2612  XYY=              0.0000
  XXY=              0.0000  XXZ=             -0.3212  XZZ=              0.0000  YZZ=              0.0000
  YYZ=             -1.2779  XYZ=              0.0000
 Hexadecapole moment (field-independent basis, Debye-Ang**3):
 XXXX=             -5.1221 YYYY=             -5.8730 ZZZZ=             -6.1925 XXXY=              0.0000
 XXXZ=              0.0000 YYYX=              0.0000 YYYZ=              0.0000 ZZZX=              0.0000
 ZZZY=              0.0000 XXYY=             -2.0973 XXZZ=             -1.9404 YYZZ=             -1.6630
 XXYZ=              0.0000 YYXZ=              0.0000 ZZXY=              0.0000
 N-N= 9.147678292391D+00 E-N=-1.988949322279D+02  KE= 7.583429273086D+01
 Symmetry A1   KE= 6.771871238296D+01
 Symmetry A2   KE= 2.987057018713D-31
 Symmetry B1   KE= 4.576814028550D+00
 Symmetry B2   KE= 3.538766319342D+00
 No NMR shielding tensors so no spin-rotation constants.
 Leave Link  601 at Wed Aug 19 17:46:11 2020, MaxMem=    65536000 cpu:         0.7
 (Enter /opt/cluster/programs/g09/g09_d.01/g09/l9999.exe)
 1\1\GINC-NODE34\FOpt\RB2PLYPD3-FC\6-31G(d,p)\H2O1\BOITTIER\19-Aug-2020
 \0\\#p B2PLYPD3/6-31G** opt freq=NoRaman\\water_opt\\0,1\O,-5.32989952
 46,-0.7687349846,0.9218674195\H,-4.3687588904,-0.7227374895,0.91340465
 37\H,-5.6061813542,0.1378124887,0.7550779241\\Version=ES64L-G09RevD.01
 \State=1-A1\HF=-76.2866101\MP2=-76.3499622\RMSD=5.638e-09\RMSF=1.115e-
 04\Dipole=0.4701806,0.653957,-0.1203171\PG=C02V [C2(O1),SGV(H2)]\\@


 IT IS A QUALITY OF REVOLUTIONS NOT TO GO BY OLD LINES OR OLD LAWS,
 BUT TO BREAK UP BOTH, AND MAKE NEW ONES.
                                              -- A. LINCOLN (1848)
 Leave Link 9999 at Wed Aug 19 17:46:11 2020, MaxMem=    65536000 cpu:         0.3
 Job cpu time:       0 days  0 hours  0 minutes 27.7 seconds.
 File lengths (MBytes):  RWF=      5 Int=      0 D2E=      0 Chk=      2 Scr=      1
 Normal termination of Gaussian 09 at Wed Aug 19 17:46:11 2020.
 (Enter /opt/cluster/programs/g09/g09_d.01/g09/l1.exe)
 Link1:  Proceeding to internal job step number  2.
 ----------------------------------------------------------------------
 #P Geom=AllCheck Guess=TCheck SCRF=Check GenChk RB2PLYPD3(FC)/6-31G(d,
 p) Freq
 ----------------------------------------------------------------------
 1/10=4,29=7,30=1,38=1,40=1/1,3;
 2/12=2,40=1/2;
 3/5=1,6=6,7=101,11=1,14=-4,16=1,25=1,30=1,70=2,71=2,74=-60,116=1,140=1/1,2,3;
 4/5=101/1;
 5/5=2,98=1/2;
 8/6=3,8=1,10=2,19=11,30=-1/1;
 9/15=3,16=-3/6;
 11/6=1,8=1,15=11,17=12,24=-1,27=1,28=-2,29=300,32=6,42=3/1,2,10;
 10/6=2,21=1/2;
 8/6=4,8=1,10=2,19=11,30=-1/11,4;
 10/5=1,20=4/2;
 11/12=2,14=11,16=1,17=2,28=-2,42=3/2,10,12;
 6/7=2,8=2,9=2,10=2/1;
 7/8=1,10=1,12=2,25=1,44=2/1,2,3,16;
 1/10=4,30=1/3;
 99//99;
 Leave Link    1 at Wed Aug 19 17:46:11 2020, MaxMem=    65536000 cpu:         0.2
 (Enter /opt/cluster/programs/g09/g09_d.01/g09/l101.exe)
 Structure from the checkpoint file:  "water_opt.chk"
 ---------
 water_opt
 ---------
 Charge =  0 Multiplicity = 1
 Redundant internal coordinates found in file.
 O,0,-5.3298995246,-0.7687349846,0.9218674195
 H,0,-4.3687588904,-0.7227374895,0.9134046537
 H,0,-5.6061813542,0.1378124887,0.7550779241
 Recover connectivity data from disk.
 NAtoms=      3 NQM=        3 NQMF=       0 NMMI=      0 NMMIF=      0
[...]
 Using ON3 I/O method in MakUI.
 Frozen-core window:  NFC=   1 NFV=   0.
 Using Ix for Sx.
 Use MO integrals over full window.
 Using OV2 memory method for fx*t*t/D, MaxI=     5 DoOO2=F NP=   8.
 R2 and R3 integrals will be kept in memory, NReq=      925950.
 FoFCou: FMM=F IPFlag=           0 FMFlag=           0 FMFlg1=           0
         NFxFlg=           0 DoJE=F BraDBF=F KetDBF=F FulRan=T
         wScrn=  0.000000 ICntrl=     600 IOpCl=  0 I1Cent=           0 NGrid=           0
         NMat0=    1 NMatS0=      1 NMatT0=    0 NMatD0=    1 NMtDS0=    0 NMtDT0=    0
 Symmetry not used in FoFCou.
 DD1Dir will call FoFMem   1 times, MxPair=        40
 NAB=    15 NAA=    10 NBB=     0.
 Symmetry is being used.
 FoFJK:  IHMeth= 1 ICntrl=       0 DoSepK=F KAlg= 0 I1Cent=   0 FoldK=F
 IRaf=         0 NMat=  12 IRICut=      30 DoRegI=T DoRafI=T ISym2E= 2.
 R6Disp: Adding Grimme-D3(BJ) dispersion energy 1st derivatives to the gradient.
 Discarding MO integrals.
 Leave Link 1112 at Wed Aug 19 17:46:25 2020, MaxMem=    65536000 cpu:         3.4
 (Enter /opt/cluster/programs/g09/g09_d.01/g09/l601.exe)
 Copying SCF densities to generalized density rwf, IOpCl= 0 IROHF=0.

 **********************************************************************

            Population analysis using the SCF density.

 **********************************************************************

 Orbital symmetries:
       Occupied  (A1) (A1) (B2) (A1) (B1)
       Virtual   (A1) (B2) (B2) (A1) (A1) (B1) (B2) (A1) (A2) (A1)
                 (B1) (A1) (B2) (B2) (A2) (B1) (A1) (A1) (B2) (A1)
 The electronic state is 1-A1.
 Alpha  occ. eigenvalues --  -19.73286  -1.13925  -0.59258  -0.45346  -0.37772
 Alpha virt. eigenvalues --    0.12513   0.21464   0.85677   0.92037   0.99162
 Alpha virt. eigenvalues --    1.00455   1.12874   1.27315   1.64261   1.65152
 Alpha virt. eigenvalues --    1.75895   2.37506   2.39595   2.59635   2.77942
 Alpha virt. eigenvalues --    2.80090   3.17126   3.47069   3.69274   3.86177
          Condensed to atoms (all electrons):
               1          2          3
     1  O    8.046751   0.295087   0.295087
     2  H    0.295087   0.413681  -0.027230
     3  H    0.295087  -0.027230   0.413681
 Mulliken charges:
               1
     1  O   -0.636925
     2  H    0.318462
     3  H    0.318462
 Sum of Mulliken charges =   0.00000
 Mulliken charges with hydrogens summed into heavy atoms:
               1
     1  O    0.000000
 APT charges:
               1
     1  O   -0.499036
     2  H    0.249518
     3  H    0.249518
 Sum of APT charges =   0.00000
 APT charges with hydrogens summed into heavy atoms:
               1
     1  O    0.000000
 Electronic spatial extent (au):  <R**2>=             18.9891
 Charge=              0.0000 electrons
 Dipole moment (field-independent basis, Debye):
    X=              0.0000    Y=              0.0000    Z=             -2.1103  Tot=              2.1103
 Quadrupole moment (field-independent basis, Debye-Ang):
   XX=             -7.1463   YY=             -4.2213   ZZ=             -5.9539
   XY=              0.0000   XZ=              0.0000   YZ=              0.0000
 Traceless Quadrupole moment (field-independent basis, Debye-Ang):
   XX=             -1.3724   YY=              1.5525   ZZ=             -0.1801
   XY=              0.0000   XZ=              0.0000   YZ=              0.0000
 Octapole moment (field-independent basis, Debye-Ang**2):
  XXX=              0.0000  YYY=              0.0000  ZZZ=             -1.2612  XYY=              0.0000
  XXY=              0.0000  XXZ=             -0.3212  XZZ=              0.0000  YZZ=              0.0000
  YYZ=             -1.2779  XYZ=              0.0000
 Hexadecapole moment (field-independent basis, Debye-Ang**3):
 XXXX=             -5.1221 YYYY=             -5.8730 ZZZZ=             -6.1925 XXXY=              0.0000
 XXXZ=              0.0000 YYYX=              0.0000 YYYZ=              0.0000 ZZZX=              0.0000
 ZZZY=              0.0000 XXYY=             -2.0973 XXZZ=             -1.9404 YYZZ=             -1.6630
 XXYZ=              0.0000 YYXZ=              0.0000 ZZXY=              0.0000
 N-N= 9.147678292391D+00 E-N=-1.988949322354D+02  KE= 7.583429273363D+01
 Symmetry A1   KE= 6.771871238297D+01
 Symmetry A2   KE= 1.072339472794D-31
 Symmetry B1   KE= 4.576814012568D+00
 Symmetry B2   KE= 3.538766338090D+00
  Exact polarizability:   2.992   0.000   7.348   0.000   0.000   5.454
 Approx polarizability:   2.909   0.000   7.313   0.000   0.000   5.577
 No NMR shielding tensors so no spin-rotation constants.
 Leave Link  601 at Wed Aug 19 17:46:25 2020, MaxMem=    65536000 cpu:         0.7
 (Enter /opt/cluster/programs/g09/g09_d.01/g09/l701.exe)
 Compute integral second derivatives.
 ... and contract with generalized density number  2.
 R6Disp: Adding Grimme-D3(BJ) dispersion energy 2nd derivatives to the Hessian.
 Leave Link  701 at Wed Aug 19 17:46:25 2020, MaxMem=    65536000 cpu:         1.0
 (Enter /opt/cluster/programs/g09/g09_d.01/g09/l702.exe)
 L702 exits ... SP integral derivatives will be done elsewhere.
 Leave Link  702 at Wed Aug 19 17:46:25 2020, MaxMem=    65536000 cpu:         0.1
 (Enter /opt/cluster/programs/g09/g09_d.01/g09/l703.exe)
 Compute integral second derivatives, UseDBF=F ICtDFT=           0.
 Integral derivatives from FoFJK, PRISM(SPDF).
 Calling FoFJK, ICntrl=  10100127 FMM=F ISym2X=1 I1Cent= 0 IOpClX= 0 NMat=1 NMatS=1 NMatT=0.
 FoFJK:  IHMeth= 1 ICntrl=10100127 DoSepK=F KAlg= 0 I1Cent=   0 FoldK=F
 IRaf=         0 NMat=   1 IRICut=       1 DoRegI=T DoRafI=F ISym2E= 1.
 FoFCou: FMM=F IPFlag=           0 FMFlag=      100000 FMFlg1=         800
         NFxFlg=           0 DoJE=F BraDBF=F KetDBF=F FulRan=T
         wScrn=  0.000000 ICntrl=10100127 IOpCl=  0 I1Cent=           0 NGrid=           0
         NMat0=    1 NMatS0=      1 NMatT0=    0 NMatD0=    1 NMtDS0=    0 NMtDT0=    0
 Petite list used in FoFCou.
 Leave Link  703 at Wed Aug 19 17:46:25 2020, MaxMem=    65536000 cpu:         2.6
 (Enter /opt/cluster/programs/g09/g09_d.01/g09/l716.exe)
 Dipole        = 2.11930582D-17 2.80049421D-16-8.14374473D-01
 Polarizability= 2.99174044D+00 1.43319865D-11 7.34813351D+00
                 5.33043443D-11 1.04850677D-09 5.45413312D+00
 Full mass-weighted force constant matrix:
 Low frequencies ---  -66.4795  -58.9994  -49.2559   -0.0027   -0.0026   -0.0022
 Low frequencies --- 1677.2961 3848.8244 3972.2159
 Diagonal vibrational polarizability:
        0.0000000       0.0433512       0.7150382
 Harmonic frequencies (cm**-1), IR intensities (KM/Mole), Raman scattering
 activities (A**4/AMU), depolarization ratios for plane and unpolarized
 incident light, reduced masses (AMU), force constants (mDyne/A),
 and normal coordinates:
                      1                      2                      3
                     A1                     A1                     B2
 Frequencies --   1677.2961              3848.8244              3972.2159
 Red. masses --      1.0828                 1.0450                 1.0813
 Frc consts  --      1.7949                 9.1208                10.0518
 IR Inten    --     74.2499                 2.6371                25.4175
  Atom  AN      X      Y      Z        X      Y      Z        X      Y      Z
     1   8     0.00   0.00   0.07     0.00   0.00  -0.05     0.00   0.07   0.00
     2   1     0.00   0.43  -0.56     0.00   0.59   0.40     0.00  -0.56  -0.43
     3   1     0.00  -0.43  -0.56     0.00  -0.59   0.40     0.00  -0.56   0.43

 -------------------
 - Thermochemistry -
 -------------------
 Temperature   298.150 Kelvin.  Pressure   1.00000 Atm.
 Atom     1 has atomic number  8 and mass  15.99491
 Atom     2 has atomic number  1 and mass   1.00783
 Atom     3 has atomic number  1 and mass   1.00783
 Molecular mass:    18.01056 amu.
 Principal axes and moments of inertia in atomic units:
                           1         2         3
     Eigenvalues --     2.24868   4.13315   6.38184
           X            0.00000   0.00000   1.00000
           Y            1.00000   0.00000   0.00000
           Z            0.00000   1.00000   0.00000
 This molecule is an asymmetric top.
 Rotational symmetry number  2.
 Rotational temperatures (Kelvin)     38.51756    20.95588    13.57193
 Rotational constants (GHZ):         802.57670   436.65012   282.79344
 Zero-point vibrational energy      56812.7 (Joules/Mol)
                                   13.57855 (Kcal/Mol)
 Vibrational temperatures:   2413.25  5537.59  5715.13
          (Kelvin)
 
 Zero-point correction=                           0.021639 (Hartree/Particle)
 Thermal correction to Energy=                    0.024474
 Thermal correction to Enthalpy=                  0.025418
 Thermal correction to Gibbs Free Energy=         0.003991
 Sum of electronic and zero-point Energies=            -76.328323
 Sum of electronic and thermal Energies=               -76.325489
 Sum of electronic and thermal Enthalpies=             -76.324544
 Sum of electronic and thermal Free Energies=          -76.345971
 
                     E (Thermal)             CV                S
                      KCal/Mol        Cal/Mol-Kelvin    Cal/Mol-Kelvin
 Total                   15.357              6.001             45.096
 Electronic               0.000              0.000              0.000
 Translational            0.889              2.981             34.608
 Rotational               0.889              2.981             10.482
 Vibrational             13.580              0.040              0.006
                       Q            Log10(Q)             Ln(Q)
 Total Bot       0.145927D-01         -1.835864         -4.227233
 Total V=0       0.131000D+09          8.117273         18.690712
 Vib (Bot)       0.111428D-09         -9.953004        -22.917639
 Vib (V=0)       0.100031D+01          0.000133          0.000305
 Electronic      0.100000D+01          0.000000          0.000000
 Translational   0.300432D+07          6.477746         14.915562
 Rotational      0.435907D+02          1.639394          3.774844
 
                                                              water_opt
                                                             IR Spectrum
 
     3   3                                                                     1                                                     
     9   8                                                                     6                                                     
     7   4                                                                     7                                                     
     2   9                                                                     7                                                     
 
     X   X                                                                     X                                                     
     X                                                                         X                                                     
     X                                                                         X                                                     
     X                                                                         X                                                     
     X                                                                         X                                                     
     X                                                                         X                                                     
     X                                                                         X                                                     
                                                                               X                                                     
                                                                               X                                                     
                                                                               X                                                     
                                                                               X                                                     
                                                                               X                                                     
                                                                               X                                                     
                                                                               X                                                     
                                                                               X                                                     
                                                                               X                                                     
                                                                               X                                                     
                                                                               X                                                     
                                                                               X                                                     
                                                                               X                                                     
 
 ***** Axes restored to original set *****
 -------------------------------------------------------------------
 Center     Atomic                   Forces (Hartrees/Bohr)
 Number     Number              X              Y              Z
 -------------------------------------------------------------------
      1        8          -0.000139620   -0.000194193    0.000035728
      2        1           0.000159541    0.000034694   -0.000006383
      3        1          -0.000019921    0.000159499   -0.000029345
 -------------------------------------------------------------------
 Cartesian Forces:  Max     0.000194193 RMS     0.000111493
 Force constants in Cartesian coordinates: 
                1             2             3             4             5 
      1  0.616914D+00
      2 -0.104590D+00  0.523971D+00
      3  0.192427D-01 -0.964569D-01  0.174471D-01
      4 -0.532469D+00  0.721873D-02 -0.132813D-02  0.550120D+00
      5 -0.584129D-01 -0.453078D-01  0.836341D-02  0.593960D-02  0.487105D-01
      6  0.107470D-01  0.836341D-02 -0.138903D-02 -0.109279D-02 -0.898790D-02
      7 -0.844447D-01  0.973710D-01 -0.179146D-01 -0.176507D-01  0.524733D-01
      8  0.163003D+00 -0.478663D+00  0.880935D-01 -0.131583D-01 -0.340275D-02
      9 -0.299897D-01  0.880935D-01 -0.160580D-01  0.242091D-02  0.624491D-03
                6             7             8             9 
      6  0.151240D-02
      7 -0.965421D-02  0.102095D+00
      8  0.624491D-03 -0.149844D+00  0.482066D+00
      9 -0.123362D-03  0.275688D-01 -0.887180D-01  0.161814D-01
 FormGI is forming the generalized inverse of G from B-inverse, IUseBI=4.
 Force constants in internal coordinates: 
                1             2             3 
      1  0.549515D+00
      2 -0.863678D-02  0.549515D+00
      3  0.332363D-01  0.332363D-01  0.168798D+00
 Leave Link  716 at Wed Aug 19 17:46:25 2020, MaxMem=    65536000 cpu:         0.2
 (Enter /opt/cluster/programs/g09/g09_d.01/g09/l103.exe)

 GradGradGradGradGradGradGradGradGradGradGradGradGradGradGradGradGradGrad
 Berny optimization.
 Red2BG is reusing G-inverse.
 Internal  Forces:  Max     0.000161067 RMS     0.000134639
 Search for a local minimum.
 Step number   1 out of a maximum of    2
 All quantities printed in internal units (Hartrees-Bohrs-Radians)
 Second derivative matrix not updated -- analytic derivatives used.
 The second derivative matrix:
                          R1        R2        A1
           R1           0.54952
           R2          -0.00864   0.54952
           A1           0.03324   0.03324   0.16880
 ITU=  0
     Eigenvalues ---    0.16295   0.54672   0.55815
 Angle between quadratic step and forces=  30.39 degrees.
 Linear search not attempted -- first point.
 Iteration  1 RMS(Cart)=  0.00023748 RMS(Int)=  0.00000005
 Iteration  2 RMS(Cart)=  0.00000006 RMS(Int)=  0.00000000
 ITry= 1 IFail=0 DXMaxC= 2.69D-04 DCOld= 1.00D+10 DXMaxT= 3.00D-01 DXLimC= 3.00D+00 Rises=F
 ClnCor:  largest displacement from symmetrization is 6.77D-15 for atom     3.
 Variable       Old X    -DE/DX   Delta X   Delta X   Delta X     New X
                                 (Linear)    (Quad)   (Total)
    R1        1.81844   0.00016   0.00000   0.00032   0.00032   1.81877
    R2        1.81844   0.00016   0.00000   0.00032   0.00032   1.81877
    A1        1.81339  -0.00005   0.00000  -0.00042  -0.00042   1.81296
         Item               Value     Threshold  Converged?
 Maximum Force            0.000161     0.000450     YES
 RMS     Force            0.000135     0.000300     YES
 Maximum Displacement     0.000269     0.001800     YES
 RMS     Displacement     0.000237     0.001200     YES
 Predicted change in Energy=-6.273924D-08
 Optimization completed.
    -- Stationary point found.
                           ----------------------------
                           !   Optimized Parameters   !
                           ! (Angstroms and Degrees)  !
 --------------------------                            --------------------------
 ! Name  Definition              Value          Derivative Info.                !
 --------------------------------------------------------------------------------
 ! R1    R(1,2)                  0.9623         -DE/DX =    0.0002              !
 ! R2    R(1,3)                  0.9623         -DE/DX =    0.0002              !
 ! A1    A(2,1,3)              103.8993         -DE/DX =    0.0                 !
 --------------------------------------------------------------------------------
 GradGradGradGradGradGradGradGradGradGradGradGradGradGradGradGradGradGrad

 Leave Link  103 at Wed Aug 19 17:46:25 2020, MaxMem=    65536000 cpu:         0.0
 (Enter /opt/cluster/programs/g09/g09_d.01/g09/l9999.exe)
 1\1\GINC-NODE34\Freq\RB2PLYPD3-FC\6-31G(d,p)\H2O1\BOITTIER\19-Aug-2020
 \0\\#P Geom=AllCheck Guess=TCheck SCRF=Check GenChk RB2PLYPD3(FC)/6-31
 G(d,p) Freq\\water_opt\\0,1\O,-5.3298995246,-0.7687349846,0.9218674195
 \H,-4.3687588904,-0.7227374895,0.9134046537\H,-5.6061813542,0.13781248
 87,0.7550779241\\Version=ES64L-G09RevD.01\State=1-A1\HF=-76.2866101\MP
 2=-76.3499622\RMSD=2.837e-10\RMSF=1.115e-04\ZeroPoint=0.0216388\Therma
 l=0.0244737\Dipole=0.4701806,0.653957,-0.1203171\DipoleDeriv=-0.400126
 9,0.0413693,-0.0076113,0.0413693,-0.3820468,-0.0633915,-0.0076113,-0.0
 633915,-0.7149344,0.1056665,-0.0377801,0.0069509,-0.0692353,0.2823297,
 0.0148969,0.0127381,0.0148969,0.3605579,0.2944604,-0.0035892,0.0006603
 ,0.027866,0.0997171,0.0484946,-0.0051269,0.0484946,0.3543765\Polar=6.7
 167965,-0.8781035,5.9841767,0.1615563,-0.550558,3.0930339\PG=C02V [C2(
 O1),SGV(H2)]\NImag=0\\0.61691394,-0.10458971,0.52397106,0.01924275,-0.
 09645695,0.01744707,-0.53246921,0.00721873,-0.00132813,0.55011991,-0.0
 5841291,-0.04530780,0.00836341,0.00593960,0.04871054,0.01074699,0.0083
 6341,-0.00138903,-0.00109279,-0.00898790,0.00151240,-0.08444474,0.0973
 7098,-0.01791462,-0.01765070,0.05247331,-0.00965421,0.10209544,0.16300
 262,-0.47866326,0.08809354,-0.01315833,-0.00340275,0.00062449,-0.14984
 428,0.48206601,-0.02998974,0.08809354,-0.01605803,0.00242091,0.0006244
 9,-0.00012336,0.02756883,-0.08871803,0.01618140\\0.00013962,0.00019419
 ,-0.00003573,-0.00015954,-0.00003469,0.00000638,0.00001992,-0.00015950
 ,0.00002935\\\@


 HONESTY IN A LAWYER IS LIKE A HEN'S HIND LEGS.
  -- MAGNUS OLESON, LAKE WOBEGON PATRIARCH, C.1875
 Job cpu time:       0 days  0 hours  0 minutes 21.7 seconds.
 File lengths (MBytes):  RWF=     20 Int=      0 D2E=      0 Chk=      2 Scr=      1
 Normal termination of Gaussian 09 at Wed Aug 19 17:46:25 2020.
