 Entering Gaussian System, Link 0=/opt/cluster/programs/g09/g09_d.01/g09//g09
 Input=/home/boittier/MDCM/nms_sampling/acrolein_geom.xyz.dir/energies/acrolein_1387_energy.com
 Output=/scratch/boittier/acrolein_1387_energy/acrolein_1387_energy.out
 Initial command:
 /opt/cluster/programs/g09/g09_d.01/g09/l1.exe "/scratch/boittier/acrolein_1387_energy/Gau-82097.inp" -scrdir="/scratch/boittier/acrolein_1387_energy/"
 Entering Link 1 = /opt/cluster/programs/g09/g09_d.01/g09/l1.exe PID=     82098.
  
 Copyright (c) 1988,1990,1992,1993,1995,1998,2003,2009,2013,
            Gaussian, Inc.  All Rights Reserved.
  
 This is part of the Gaussian(R) 09 program.  It is based on
 the Gaussian(R) 03 system (copyright 2003, Gaussian, Inc.),
 the Gaussian(R) 98 system (copyright 1998, Gaussian, Inc.),
 the Gaussian(R) 94 system (copyright 1995, Gaussian, Inc.),
 the Gaussian 92(TM) system (copyright 1992, Gaussian, Inc.),
 the Gaussian 90(TM) system (copyright 1990, Gaussian, Inc.),
 the Gaussian 88(TM) system (copyright 1988, Gaussian, Inc.),
 the Gaussian 86(TM) system (copyright 1986, Carnegie Mellon
 University), and the Gaussian 82(TM) system (copyright 1983,
 Carnegie Mellon University). Gaussian is a federally registered
 trademark of Gaussian, Inc.
  
 This software contains proprietary and confidential information,
 including trade secrets, belonging to Gaussian, Inc.
  
 This software is provided under written license and may be
 used, copied, transmitted, or stored only in accord with that
 written license.
  
 The following legend is applicable only to US Government
 contracts under FAR:
  
                    RESTRICTED RIGHTS LEGEND
  
 Use, reproduction and disclosure by the US Government is
 subject to restrictions as set forth in subparagraphs (a)
 and (c) of the Commercial Computer Software - Restricted
 Rights clause in FAR 52.227-19.
  
 Gaussian, Inc.
 340 Quinnipiac St., Bldg. 40, Wallingford CT 06492
  
  
 ---------------------------------------------------------------
 Warning -- This program may not be used in any manner that
 competes with the business of Gaussian, Inc. or will provide
 assistance to any competitor of Gaussian, Inc.  The licensee
 of this program is prohibited from giving any competitor of
 Gaussian, Inc. access to this program.  By using this program,
 the user acknowledges that Gaussian, Inc. is engaged in the
 business of creating and licensing software in the field of
 computational chemistry and represents and warrants to the
 licensee that it is not a competitor of Gaussian, Inc. and that
 it will not use this program in any manner prohibited above.
 ---------------------------------------------------------------
  

 Cite this work as:
 Gaussian 09, Revision D.01,
 M. J. Frisch, G. W. Trucks, H. B. Schlegel, G. E. Scuseria, 
 M. A. Robb, J. R. Cheeseman, G. Scalmani, V. Barone, B. Mennucci, 
 G. A. Petersson, H. Nakatsuji, M. Caricato, X. Li, H. P. Hratchian, 
 A. F. Izmaylov, J. Bloino, G. Zheng, J. L. Sonnenberg, M. Hada, 
 M. Ehara, K. Toyota, R. Fukuda, J. Hasegawa, M. Ishida, T. Nakajima, 
 Y. Honda, O. Kitao, H. Nakai, T. Vreven, J. A. Montgomery, Jr., 
 J. E. Peralta, F. Ogliaro, M. Bearpark, J. J. Heyd, E. Brothers, 
 K. N. Kudin, V. N. Staroverov, T. Keith, R. Kobayashi, J. Normand, 
 K. Raghavachari, A. Rendell, J. C. Burant, S. S. Iyengar, J. Tomasi, 
 M. Cossi, N. Rega, J. M. Millam, M. Klene, J. E. Knox, J. B. Cross, 
 V. Bakken, C. Adamo, J. Jaramillo, R. Gomperts, R. E. Stratmann, 
 O. Yazyev, A. J. Austin, R. Cammi, C. Pomelli, J. W. Ochterski, 
 R. L. Martin, K. Morokuma, V. G. Zakrzewski, G. A. Voth, 
 P. Salvador, J. J. Dannenberg, S. Dapprich, A. D. Daniels, 
 O. Farkas, J. B. Foresman, J. V. Ortiz, J. Cioslowski, 
 and D. J. Fox, Gaussian, Inc., Wallingford CT, 2013.
 
 ******************************************
 Gaussian 09:  ES64L-G09RevD.01 24-Apr-2013
                26-Aug-2020 
 ******************************************
 %chk=/home/boittier/MDCM/nms_sampling/acrolein_geom.xyz.dir/acrolein_1387.chk
 %nproc=8
 Will use up to    8 processors via shared memory.
 %mem=16000MB
 --------------------
 #p B2PLYPD3/Def2QZVP
 --------------------
 1/38=1/1;
 2/12=2,17=6,18=5,40=1/2;
 3/5=45,7=101,11=9,16=1,25=1,30=1,74=-60/1,2,3;
 4//1;
 5/5=2,38=5/2;
 8/10=1/1;
 9/16=-3/6;
 6/7=2,8=2,9=2,10=2/1;
 99/5=1,9=1/99;
 Leave Link    1 at Wed Aug 26 09:08:01 2020, MaxMem=  2097152000 cpu:         0.2
 (Enter /opt/cluster/programs/g09/g09_d.01/g09/l101.exe)
 --------
 acrolein
 --------
 Symbolic Z-matrix:
 Charge =  0 Multiplicity = 1
 C                    -5.02188  -1.35698   0.87947 
 O                    -3.94439  -0.88203   0.66947 
 C                    -5.18841  -2.8218    1.14088 
 C                    -6.37947  -3.31425   1.41762 
 H                    -4.34022  -3.46837   1.08916 
 H                    -7.22531  -2.66301   1.49428 
 H                    -6.57476  -4.36592   1.48223 
 H                    -5.9325   -0.76798   0.82889 
 
 NAtoms=      8 NQM=        8 NQMF=       0 NMMI=      0 NMMIF=      0
                NMic=       0 NMicF=      0.
                    Isotopes and Nuclear Properties:
 (Nuclear quadrupole moments (NQMom) in fm**2, nuclear magnetic moments (NMagM)
  in nuclear magnetons)

  Atom         1           2           3           4           5           6           7           8
 IAtWgt=          12          16          12          12           1           1           1           1
 AtmWgt=  12.0000000  15.9949146  12.0000000  12.0000000   1.0078250   1.0078250   1.0078250   1.0078250
 NucSpn=           0           0           0           0           1           1           1           1
 AtZEff=   0.0000000   0.0000000   0.0000000   0.0000000   0.0000000   0.0000000   0.0000000   0.0000000
 NQMom=    0.0000000   0.0000000   0.0000000   0.0000000   0.0000000   0.0000000   0.0000000   0.0000000
 NMagM=    0.0000000   0.0000000   0.0000000   0.0000000   2.7928460   2.7928460   2.7928460   2.7928460
 AtZNuc=   6.0000000   8.0000000   6.0000000   6.0000000   1.0000000   1.0000000   1.0000000   1.0000000
 Leave Link  101 at Wed Aug 26 09:08:01 2020, MaxMem=  2097152000 cpu:         0.5
 (Enter /opt/cluster/programs/g09/g09_d.01/g09/l202.exe)
                          Input orientation:                          
 ---------------------------------------------------------------------
 Center     Atomic      Atomic             Coordinates (Angstroms)
 Number     Number       Type             X           Y           Z
 ---------------------------------------------------------------------
      1          6           0       -5.021882   -1.356984    0.879468
      2          8           0       -3.944393   -0.882025    0.669474
      3          6           0       -5.188413   -2.821795    1.140883
      4          6           0       -6.379470   -3.314249    1.417620
      5          1           0       -4.340224   -3.468374    1.089165
      6          1           0       -7.225307   -2.663010    1.494278
      7          1           0       -6.574758   -4.365916    1.482229
      8          1           0       -5.932499   -0.767978    0.828885
 ---------------------------------------------------------------------
                    Distance matrix (angstroms):
                    1          2          3          4          5
     1  C    0.000000
     2  O    1.196105   0.000000
     3  C    1.497245   2.352131   0.000000
     4  C    2.442036   3.522078   1.318223   0.000000
     5  H    2.228587   2.649910   1.067784   2.071270   0.000000
     6  H    2.634156   3.823167   2.073412   1.070247   3.022653
     7  H    3.439246   4.440370   2.103040   1.071595   2.439923
     8  H    1.085684   1.997745   2.206620   2.651394   3.145667
                    6          7          8
     6  H    0.000000
     7  H    1.822978   0.000000
     8  H    2.388566   3.712750   0.000000
 Stoichiometry    C3H4O
 Framework group  C1[X(C3H4O)]
 Deg. of freedom    18
 Full point group                 C1      NOp   1
 Largest Abelian subgroup         C1      NOp   1
 Largest concise Abelian subgroup C1      NOp   1
                         Standard orientation:                         
 ---------------------------------------------------------------------
 Center     Atomic      Atomic             Coordinates (Angstroms)
 Number     Number       Type             X           Y           Z
 ---------------------------------------------------------------------
      1          6           0       -0.687386    0.372072    0.010840
      2          8           0       -1.767197   -0.141870   -0.012342
      3          6           0        0.564796   -0.448712    0.000970
      4          6           0        1.743482    0.141105   -0.021946
      5          1           0        0.499359   -1.514196    0.025980
      6          1           0        1.809179    1.208142   -0.072387
      7          1           0        2.664631   -0.392148    0.102316
      8          1           0       -0.560949    1.446368    0.103639
 ---------------------------------------------------------------------
 Rotational constants (GHZ):     47.1940680      4.7388108      4.3090730
 Leave Link  202 at Wed Aug 26 09:08:01 2020, MaxMem=  2097152000 cpu:         0.0
 (Enter /opt/cluster/programs/g09/g09_d.01/g09/l301.exe)
 Standard basis: def2QZVP (5D, 7F)
 Ernie: Thresh=  0.10000D-02 Tol=  0.10000D-05 Strict=F.
 There are   428 symmetry adapted cartesian basis functions of A   symmetry.
 There are   348 symmetry adapted basis functions of A   symmetry.
   348 basis functions,   520 primitive gaussians,   428 cartesian basis functions
    15 alpha electrons       15 beta electrons
       nuclear repulsion energy       103.8060464718 Hartrees.
 IExCor=  419 DFT=T Ex+Corr=B2PLYPD3 ExCW=0 ScaHFX=  0.530000
 ScaDFX=  0.470000  0.470000  0.730000  0.730000 ScalE2=  0.270000  0.270000
 IRadAn=      0 IRanWt=     -1 IRanGd=            0 ICorTp=0 IEmpDi=141
 NAtoms=    8 NActive=    8 NUniq=    8 SFac= 1.00D+00 NAtFMM=   60 NAOKFM=F Big=F
 Integral buffers will be    131072 words long.
 Regular integral format.
 Two-electron integral symmetry is turned on.
 R6Disp:  Grimme-D3(BJ) Dispersion energy=       -0.0035928393 Hartrees.
 Nuclear repulsion after empirical dispersion term =      103.8024536325 Hartrees.
 Leave Link  301 at Wed Aug 26 09:08:01 2020, MaxMem=  2097152000 cpu:         0.5
 (Enter /opt/cluster/programs/g09/g09_d.01/g09/l302.exe)
 NPDir=0 NMtPBC=     1 NCelOv=     1 NCel=       1 NClECP=     1 NCelD=      1
         NCelK=      1 NCelE2=     1 NClLst=     1 CellRange=     0.0.
 One-electron integrals computed using PRISM.
   1 Symmetry operations used in ECPInt.
 ECPInt:  NShTT=    5886 NPrTT=   14376 LenC2=    5780 LenP2D=   12191.
 LDataN:  DoStor=T MaxTD1= 8 Len=  415
 NBasis=   348 RedAO= T EigKep=  5.70D-05  NBF=   348
 NBsUse=   348 1.00D-06 EigRej= -1.00D+00 NBFU=   348
 Precomputing XC quadrature grid using
 IXCGrd= 4 IRadAn=           0 IRanWt=          -1 IRanGd=           0 AccXCQ= 0.00D+00.
 Generated NRdTot=       0 NPtTot=           0 NUsed=           0 NTot=          32
 NSgBfM=   428   428   428   428   428 MxSgAt=     8 MxSgA2=     8.
 Leave Link  302 at Wed Aug 26 09:08:02 2020, MaxMem=  2097152000 cpu:         2.6
 (Enter /opt/cluster/programs/g09/g09_d.01/g09/l303.exe)
 DipDrv:  MaxL=1.
 Leave Link  303 at Wed Aug 26 09:08:02 2020, MaxMem=  2097152000 cpu:         0.3
 (Enter /opt/cluster/programs/g09/g09_d.01/g09/l401.exe)
 ExpMin= 7.60D-02 ExpMax= 1.17D+05 ExpMxC= 1.13D+03 IAcc=2 IRadAn=         4 AccDes= 0.00D+00
 Harris functional with IExCor=  419 and IRadAn=       4 diagonalized for initial guess.
 HarFok:  IExCor=  419 AccDes= 0.00D+00 IRadAn=         4 IDoV= 1 UseB2=F ITyADJ=14
 ICtDFT=  3500011 ScaDFX=  1.000000  1.000000  1.000000  1.000000
 FoFCou: FMM=F IPFlag=           0 FMFlag=      100000 FMFlg1=           0
         NFxFlg=           0 DoJE=T BraDBF=F KetDBF=T FulRan=T
         wScrn=  0.000000 ICntrl=     500 IOpCl=  0 I1Cent=   200000004 NGrid=           0
         NMat0=    1 NMatS0=      1 NMatT0=    0 NMatD0=    1 NMtDS0=    0 NMtDT0=    0
 Petite list used in FoFCou.
 Harris En= -192.051638478988    
 JPrj=0 DoOrth=F DoCkMO=F.
 Leave Link  401 at Wed Aug 26 09:08:03 2020, MaxMem=  2097152000 cpu:         6.0
 (Enter /opt/cluster/programs/g09/g09_d.01/g09/l502.exe)
 Closed shell SCF:
 Using DIIS extrapolation, IDIIS=  1040.
 Integral symmetry usage will be decided dynamically.
 Keep R1 ints in memory in canonical form, NReq=1883905047.
 IVT=      574566 IEndB=      574566 NGot=  2097152000 MDV=   252723534
 LenX=   252723534 LenY=   252539909
 Requested convergence on RMS density matrix=1.00D-08 within 128 cycles.
 Requested convergence on MAX density matrix=1.00D-06.
 Requested convergence on             energy=1.00D-06.
 No special actions if energy rises.
 FoFCou: FMM=F IPFlag=           0 FMFlag=           0 FMFlg1=           0
         NFxFlg=           0 DoJE=F BraDBF=F KetDBF=F FulRan=T
         wScrn=  0.000000 ICntrl=     600 IOpCl=  0 I1Cent=           0 NGrid=           0
         NMat0=    1 NMatS0=  60726 NMatT0=    0 NMatD0=    1 NMtDS0=    0 NMtDT0=    0
 Symmetry not used in FoFCou.
 Integral accuracy reduced to 1.0D-05 until final iterations.

 Cycle   1  Pass 0  IDiag  1:
 E= -191.465670988073    
 DIIS: error= 2.50D-02 at cycle   1 NSaved=   1.
 NSaved= 1 IEnMin= 1 EnMin= -191.465670988073     IErMin= 1 ErrMin= 2.50D-02
 ErrMax= 2.50D-02  0.00D+00 EMaxC= 1.00D-01 BMatC= 2.66D-01 BMatP= 2.66D-01
 IDIUse=3 WtCom= 7.50D-01 WtEn= 2.50D-01
 Coeff-Com:  0.100D+01
 Coeff-En:   0.100D+01
 Coeff:      0.100D+01
 Gap=     0.301 Goal=   None    Shift=    0.000
 GapD=    0.301 DampG=1.000 DampE=0.500 DampFc=0.5000 IDamp=-1.
 Damping current iteration by 5.00D-01
 RMSDP=1.81D-03 MaxDP=2.20D-01              OVMax= 1.68D-01

 Cycle   2  Pass 0  IDiag  1:
 E= -191.539581490385     Delta-E=       -0.073910502313 Rises=F Damp=T
 DIIS: error= 9.80D-03 at cycle   2 NSaved=   2.
 NSaved= 2 IEnMin= 2 EnMin= -191.539581490385     IErMin= 2 ErrMin= 9.80D-03
 ErrMax= 9.80D-03  0.00D+00 EMaxC= 1.00D-01 BMatC= 3.37D-02 BMatP= 2.66D-01
 IDIUse=3 WtCom= 9.02D-01 WtEn= 9.80D-02
 Coeff-Com: -0.161D+00 0.116D+01
 Coeff-En:   0.000D+00 0.100D+01
 Coeff:     -0.146D+00 0.115D+01
 Gap=     0.381 Goal=   None    Shift=    0.000
 RMSDP=5.87D-04 MaxDP=7.14D-02 DE=-7.39D-02 OVMax= 1.29D-01

 Cycle   3  Pass 0  IDiag  1:
 E= -191.604904098974     Delta-E=       -0.065322608589 Rises=F Damp=F
 DIIS: error= 7.56D-03 at cycle   3 NSaved=   3.
 NSaved= 3 IEnMin= 3 EnMin= -191.604904098974     IErMin= 3 ErrMin= 7.56D-03
 ErrMax= 7.56D-03  0.00D+00 EMaxC= 1.00D-01 BMatC= 1.55D-02 BMatP= 3.37D-02
 IDIUse=3 WtCom= 9.24D-01 WtEn= 7.56D-02
 Coeff-Com: -0.184D+00 0.508D+00 0.676D+00
 Coeff-En:   0.000D+00 0.000D+00 0.100D+01
 Coeff:     -0.170D+00 0.470D+00 0.700D+00
 Gap=     0.341 Goal=   None    Shift=    0.000
 RMSDP=2.24D-04 MaxDP=1.61D-02 DE=-6.53D-02 OVMax= 4.73D-02

 Cycle   4  Pass 0  IDiag  1:
 E= -191.613467059992     Delta-E=       -0.008562961018 Rises=F Damp=F
 DIIS: error= 3.08D-03 at cycle   4 NSaved=   4.
 NSaved= 4 IEnMin= 4 EnMin= -191.613467059992     IErMin= 4 ErrMin= 3.08D-03
 ErrMax= 3.08D-03  0.00D+00 EMaxC= 1.00D-01 BMatC= 2.64D-03 BMatP= 1.55D-02
 IDIUse=3 WtCom= 9.69D-01 WtEn= 3.08D-02
 Coeff-Com: -0.599D-01 0.998D-01 0.358D+00 0.602D+00
 Coeff-En:   0.000D+00 0.000D+00 0.148D+00 0.852D+00
 Coeff:     -0.580D-01 0.968D-01 0.352D+00 0.610D+00
 Gap=     0.328 Goal=   None    Shift=    0.000
 RMSDP=9.03D-05 MaxDP=7.13D-03 DE=-8.56D-03 OVMax= 1.32D-02

 Cycle   5  Pass 0  IDiag  1:
 E= -191.615600193503     Delta-E=       -0.002133133510 Rises=F Damp=F
 DIIS: error= 2.89D-04 at cycle   5 NSaved=   5.
 NSaved= 5 IEnMin= 5 EnMin= -191.615600193503     IErMin= 5 ErrMin= 2.89D-04
 ErrMax= 2.89D-04  0.00D+00 EMaxC= 1.00D-01 BMatC= 1.13D-05 BMatP= 2.64D-03
 IDIUse=3 WtCom= 9.97D-01 WtEn= 2.89D-03
 Coeff-Com: -0.101D-01 0.138D-01 0.675D-01 0.143D+00 0.786D+00
 Coeff-En:   0.000D+00 0.000D+00 0.000D+00 0.000D+00 0.100D+01
 Coeff:     -0.101D-01 0.137D-01 0.673D-01 0.143D+00 0.786D+00
 Gap=     0.327 Goal=   None    Shift=    0.000
 RMSDP=7.71D-06 MaxDP=4.20D-04 DE=-2.13D-03 OVMax= 2.02D-03

 Initial convergence to 1.0D-05 achieved.  Increase integral accuracy.
 Cycle   6  Pass 1  IDiag  1:
 E= -191.615603032585     Delta-E=       -0.000002839082 Rises=F Damp=F
 DIIS: error= 9.89D-05 at cycle   1 NSaved=   1.
 NSaved= 1 IEnMin= 1 EnMin= -191.615603032585     IErMin= 1 ErrMin= 9.89D-05
 ErrMax= 9.89D-05  0.00D+00 EMaxC= 1.00D-01 BMatC= 1.63D-06 BMatP= 1.63D-06
 IDIUse=1 WtCom= 1.00D+00 WtEn= 0.00D+00
 Coeff-Com:  0.100D+01
 Coeff:      0.100D+01
 Gap=     0.328 Goal=   None    Shift=    0.000
 RMSDP=7.71D-06 MaxDP=4.20D-04 DE=-2.84D-06 OVMax= 7.41D-04

 Cycle   7  Pass 1  IDiag  1:
 E= -191.615604092626     Delta-E=       -0.000001060042 Rises=F Damp=F
 DIIS: error= 7.80D-05 at cycle   2 NSaved=   2.
 NSaved= 2 IEnMin= 2 EnMin= -191.615604092626     IErMin= 2 ErrMin= 7.80D-05
 ErrMax= 7.80D-05  0.00D+00 EMaxC= 1.00D-01 BMatC= 1.02D-06 BMatP= 1.63D-06
 IDIUse=1 WtCom= 1.00D+00 WtEn= 0.00D+00
 Coeff-Com:  0.435D+00 0.565D+00
 Coeff:      0.435D+00 0.565D+00
 Gap=     0.328 Goal=   None    Shift=    0.000
 RMSDP=1.93D-06 MaxDP=1.57D-04 DE=-1.06D-06 OVMax= 5.27D-04

 Cycle   8  Pass 1  IDiag  1:
 E= -191.615605050535     Delta-E=       -0.000000957908 Rises=F Damp=F
 DIIS: error= 1.35D-05 at cycle   3 NSaved=   3.
 NSaved= 3 IEnMin= 3 EnMin= -191.615605050535     IErMin= 3 ErrMin= 1.35D-05
 ErrMax= 1.35D-05  0.00D+00 EMaxC= 1.00D-01 BMatC= 6.43D-08 BMatP= 1.02D-06
 IDIUse=1 WtCom= 1.00D+00 WtEn= 0.00D+00
 Coeff-Com:  0.455D-01 0.171D+00 0.784D+00
 Coeff:      0.455D-01 0.171D+00 0.784D+00
 Gap=     0.328 Goal=   None    Shift=    0.000
 RMSDP=1.39D-06 MaxDP=1.58D-04 DE=-9.58D-07 OVMax= 1.07D-04

 Cycle   9  Pass 1  IDiag  1:
 E= -191.615605116448     Delta-E=       -0.000000065913 Rises=F Damp=F
 DIIS: error= 1.13D-05 at cycle   4 NSaved=   4.
 NSaved= 4 IEnMin= 4 EnMin= -191.615605116448     IErMin= 4 ErrMin= 1.13D-05
 ErrMax= 1.13D-05  0.00D+00 EMaxC= 1.00D-01 BMatC= 1.43D-08 BMatP= 6.43D-08
 IDIUse=1 WtCom= 1.00D+00 WtEn= 0.00D+00
 Coeff-Com: -0.101D+00-0.673D-01 0.361D+00 0.807D+00
 Coeff:     -0.101D+00-0.673D-01 0.361D+00 0.807D+00
 Gap=     0.328 Goal=   None    Shift=    0.000
 RMSDP=6.36D-07 MaxDP=6.76D-05 DE=-6.59D-08 OVMax= 9.04D-05

 Cycle  10  Pass 1  IDiag  1:
 E= -191.615605137945     Delta-E=       -0.000000021497 Rises=F Damp=F
 DIIS: error= 2.51D-06 at cycle   5 NSaved=   5.
 NSaved= 5 IEnMin= 5 EnMin= -191.615605137945     IErMin= 5 ErrMin= 2.51D-06
 ErrMax= 2.51D-06  0.00D+00 EMaxC= 1.00D-01 BMatC= 2.08D-09 BMatP= 1.43D-08
 IDIUse=1 WtCom= 1.00D+00 WtEn= 0.00D+00
 Coeff-Com: -0.469D-01-0.399D-01 0.864D-01 0.384D+00 0.616D+00
 Coeff:     -0.469D-01-0.399D-01 0.864D-01 0.384D+00 0.616D+00
 Gap=     0.328 Goal=   None    Shift=    0.000
 RMSDP=1.61D-07 MaxDP=1.75D-05 DE=-2.15D-08 OVMax= 1.61D-05

 Cycle  11  Pass 1  IDiag  1:
 E= -191.615605139519     Delta-E=       -0.000000001574 Rises=F Damp=F
 DIIS: error= 1.10D-06 at cycle   6 NSaved=   6.
 NSaved= 6 IEnMin= 6 EnMin= -191.615605139519     IErMin= 6 ErrMin= 1.10D-06
 ErrMax= 1.10D-06  0.00D+00 EMaxC= 1.00D-01 BMatC= 1.84D-10 BMatP= 2.08D-09
 IDIUse=1 WtCom= 1.00D+00 WtEn= 0.00D+00
 Coeff-Com:  0.621D-02 0.151D-02-0.612D-01-0.855D-02 0.200D+00 0.862D+00
 Coeff:      0.621D-02 0.151D-02-0.612D-01-0.855D-02 0.200D+00 0.862D+00
 Gap=     0.328 Goal=   None    Shift=    0.000
 RMSDP=5.49D-08 MaxDP=5.68D-06 DE=-1.57D-09 OVMax= 6.18D-06

 Cycle  12  Pass 1  IDiag  1:
 E= -191.615605139740     Delta-E=       -0.000000000221 Rises=F Damp=F
 DIIS: error= 2.29D-07 at cycle   7 NSaved=   7.
 NSaved= 7 IEnMin= 7 EnMin= -191.615605139740     IErMin= 7 ErrMin= 2.29D-07
 ErrMax= 2.29D-07  0.00D+00 EMaxC= 1.00D-01 BMatC= 1.37D-11 BMatP= 1.84D-10
 IDIUse=1 WtCom= 1.00D+00 WtEn= 0.00D+00
 Coeff-Com:  0.521D-02 0.321D-02-0.294D-01-0.236D-01 0.247D-01 0.297D+00
 Coeff-Com:  0.723D+00
 Coeff:      0.521D-02 0.321D-02-0.294D-01-0.236D-01 0.247D-01 0.297D+00
 Coeff:      0.723D+00
 Gap=     0.328 Goal=   None    Shift=    0.000
 RMSDP=9.57D-09 MaxDP=4.96D-07 DE=-2.21D-10 OVMax= 1.96D-06

 SCF Done:  E(RB2PLYPD3) =  -191.615605140     A.U. after   12 cycles
            NFock= 12  Conv=0.96D-08     -V/T= 2.0025
 KE= 1.911289838102D+02 PE=-6.557839894565D+02 EE= 1.692369468741D+02
 Leave Link  502 at Wed Aug 26 09:09:04 2020, MaxMem=  2097152000 cpu:       264.0
 (Enter /opt/cluster/programs/g09/g09_d.01/g09/l801.exe)
 DoSCS=T DFT=T ScalE2(SS,OS)=  0.270000  0.270000
 ExpMin= 7.60D-02 ExpMax= 1.17D+05 ExpMxC= 1.13D+03 IAcc=3 IRadAn=         5 AccDes= 0.00D+00
 HarFok:  IExCor=  205 AccDes= 0.00D+00 IRadAn=         5 IDoV=-2 UseB2=F ITyADJ=14
 ICtDFT= 12500011 ScaDFX=  1.000000  1.000000  1.000000  1.000000
 Largest valence mixing into a core orbital is  1.14D-04
 Largest core mixing into a valence orbital is  1.85D-05
 Range of M.O.s used for correlation:     5   348
 NBasis=   348 NAE=    15 NBE=    15 NFC=     4 NFV=     0
 NROrb=    344 NOA=    11 NOB=    11 NVA=   333 NVB=   333

 **** Warning!!: The largest alpha MO coefficient is  0.28265943D+02

 Leave Link  801 at Wed Aug 26 09:09:04 2020, MaxMem=  2097152000 cpu:         0.8
 (Enter /opt/cluster/programs/g09/g09_d.01/g09/l906.exe)
 DoSCS=T DFT=T ScalE2(SS,OS)=  0.270000  0.270000
 FulOut=F Deriv=F AODrv=F NAtomX=     8
   MMem=        1190  MDisk=          11 MDiskD=          11
  W3Min=     1567764 MinDsk=     2827057 NBas6D=         428
 NBas2D=       93150    NTT=       91806    LW2=     4508827
    MDV=  2096570856 MDiskM=       10875 NBas2p=       89487
 Fully direct method using O(OVN) memory.
 IMap=   1   2   3   4   5   6   7   8   9  10  11
 JobTyp=1 Pass  1:  I=   1 to  11 NPSUse=  8 ParTrn=T ParDer=T DoDerP=F.
 Spin components of T(2) and E(2):
     alpha-alpha T2 =       0.4284162679D-01 E2=     -0.2926666919D-01
     alpha-beta  T2 =       0.2610256902D+00 E2=     -0.1871847018D+00
     beta-beta   T2 =       0.4284162679D-01 E2=     -0.2926666919D-01
 The integrals were generated   1 times.
 E2(B2PLYPD3) =    -0.2457180402D+00 E(B2PLYPD3) =    -0.19186132317991D+03
 Leave Link  906 at Wed Aug 26 09:10:31 2020, MaxMem=  2097152000 cpu:       679.0
 (Enter /opt/cluster/programs/g09/g09_d.01/g09/l601.exe)
 Copying SCF densities to generalized density rwf, IOpCl= 0 IROHF=0.

 **********************************************************************

            Population analysis using the SCF density.

 **********************************************************************

 Orbital symmetries:
       Occupied  (A) (A) (A) (A) (A) (A) (A) (A) (A) (A) (A) (A)
                 (A) (A) (A)
       Virtual   (A) (A) (A) (A) (A) (A) (A) (A) (A) (A) (A) (A)
                 (A) (A) (A) (A) (A) (A) (A) (A) (A) (A) (A) (A)
                 (A) (A) (A) (A) (A) (A) (A) (A) (A) (A) (A) (A)
                 (A) (A) (A) (A) (A) (A) (A) (A) (A) (A) (A) (A)
                 (A) (A) (A) (A) (A) (A) (A) (A) (A) (A) (A) (A)
                 (A) (A) (A) (A) (A) (A) (A) (A) (A) (A) (A) (A)
                 (A) (A) (A) (A) (A) (A) (A) (A) (A) (A) (A) (A)
                 (A) (A) (A) (A) (A) (A) (A) (A) (A) (A) (A) (A)
                 (A) (A) (A) (A) (A) (A) (A) (A) (A) (A) (A) (A)
                 (A) (A) (A) (A) (A) (A) (A) (A) (A) (A) (A) (A)
                 (A) (A) (A) (A) (A) (A) (A) (A) (A) (A) (A) (A)
                 (A) (A) (A) (A) (A) (A) (A) (A) (A) (A) (A) (A)
                 (A) (A) (A) (A) (A) (A) (A) (A) (A) (A) (A) (A)
                 (A) (A) (A) (A) (A) (A) (A) (A) (A) (A) (A) (A)
                 (A) (A) (A) (A) (A) (A) (A) (A) (A) (A) (A) (A)
                 (A) (A) (A) (A) (A) (A) (A) (A) (A) (A) (A) (A)
                 (A) (A) (A) (A) (A) (A) (A) (A) (A) (A) (A) (A)
                 (A) (A) (A) (A) (A) (A) (A) (A) (A) (A) (A) (A)
                 (A) (A) (A) (A) (A) (A) (A) (A) (A) (A) (A) (A)
                 (A) (A) (A) (A) (A) (A) (A) (A) (A) (A) (A) (A)
                 (A) (A) (A) (A) (A) (A) (A) (A) (A) (A) (A) (A)
                 (A) (A) (A) (A) (A) (A) (A) (A) (A) (A) (A) (A)
                 (A) (A) (A) (A) (A) (A) (A) (A) (A) (A) (A) (A)
                 (A) (A) (A) (A) (A) (A) (A) (A) (A) (A) (A) (A)
                 (A) (A) (A) (A) (A) (A) (A) (A) (A) (A) (A) (A)
                 (A) (A) (A) (A) (A) (A) (A) (A) (A) (A) (A) (A)
                 (A) (A) (A) (A) (A) (A) (A) (A) (A) (A) (A) (A)
                 (A) (A) (A) (A) (A) (A) (A) (A) (A)
 The electronic state is 1-A.
 Alpha  occ. eigenvalues --  -19.72813 -10.71493 -10.64403 -10.63831  -1.20493
 Alpha  occ. eigenvalues --   -0.92827  -0.74801  -0.67530  -0.57063  -0.56440
 Alpha  occ. eigenvalues --   -0.50970  -0.47137  -0.46789  -0.34688  -0.33814
 Alpha virt. eigenvalues --   -0.01016   0.05904   0.07299   0.08039   0.09767
 Alpha virt. eigenvalues --    0.12590   0.14309   0.15490   0.17605   0.19501
 Alpha virt. eigenvalues --    0.20077   0.21732   0.25488   0.26557   0.28802
 Alpha virt. eigenvalues --    0.32466   0.32694   0.35094   0.37470   0.39392
 Alpha virt. eigenvalues --    0.39759   0.42073   0.42813   0.43580   0.47037
 Alpha virt. eigenvalues --    0.48171   0.49419   0.53774   0.55193   0.57297
 Alpha virt. eigenvalues --    0.58716   0.64680   0.66009   0.67491   0.71638
 Alpha virt. eigenvalues --    0.75180   0.76530   0.77776   0.79638   0.80783
 Alpha virt. eigenvalues --    0.81806   0.82403   0.83313   0.84483   0.86771
 Alpha virt. eigenvalues --    0.88258   0.91682   0.92652   0.94246   0.96294
 Alpha virt. eigenvalues --    0.96626   0.97729   1.01524   1.02880   1.07562
 Alpha virt. eigenvalues --    1.10255   1.12339   1.15392   1.16769   1.19048
 Alpha virt. eigenvalues --    1.20041   1.26462   1.29123   1.34535   1.39485
 Alpha virt. eigenvalues --    1.43873   1.47051   1.48221   1.55178   1.57487
 Alpha virt. eigenvalues --    1.61131   1.63474   1.65986   1.67462   1.68583
 Alpha virt. eigenvalues --    1.74019   1.76326   1.78555   1.81775   1.83511
 Alpha virt. eigenvalues --    1.86376   1.90076   1.90781   1.92505   1.95008
 Alpha virt. eigenvalues --    1.96285   1.97392   1.99717   2.01061   2.02685
 Alpha virt. eigenvalues --    2.07085   2.10422   2.11456   2.14186   2.14906
 Alpha virt. eigenvalues --    2.16419   2.18946   2.21233   2.22439   2.28363
 Alpha virt. eigenvalues --    2.29822   2.34637   2.36184   2.39172   2.44011
 Alpha virt. eigenvalues --    2.45294   2.47536   2.50133   2.51738   2.53376
 Alpha virt. eigenvalues --    2.55509   2.57061   2.59469   2.61544   2.64692
 Alpha virt. eigenvalues --    2.65877   2.66296   2.69225   2.70600   2.74619
 Alpha virt. eigenvalues --    2.76670   2.79129   2.86198   2.87590   2.89211
 Alpha virt. eigenvalues --    2.91429   2.97150   2.99008   3.02173   3.07482
 Alpha virt. eigenvalues --    3.17692   3.20352   3.29365   3.30783   3.33342
 Alpha virt. eigenvalues --    3.37210   3.41690   3.43454   3.46413   3.50321
 Alpha virt. eigenvalues --    3.54103   3.55995   3.63253   3.64896   3.66313
 Alpha virt. eigenvalues --    3.67149   3.75110   3.79538   3.85007   3.89399
 Alpha virt. eigenvalues --    3.94372   4.01040   4.04858   4.05637   4.07773
 Alpha virt. eigenvalues --    4.12750   4.18579   4.22539   4.27379   4.32221
 Alpha virt. eigenvalues --    4.39572   4.41242   4.56934   4.61595   4.64079
 Alpha virt. eigenvalues --    4.68152   4.82277   4.88370   4.91528   4.98325
 Alpha virt. eigenvalues --    5.02720   5.04772   5.09452   5.11486   5.15343
 Alpha virt. eigenvalues --    5.21686   5.26821   5.30904   5.34269   5.42379
 Alpha virt. eigenvalues --    5.46289   5.54248   5.54849   5.57858   5.60533
 Alpha virt. eigenvalues --    5.67380   5.69970   5.71730   5.75738   5.79644
 Alpha virt. eigenvalues --    5.80880   5.81966   5.87019   5.94255   5.96756
 Alpha virt. eigenvalues --    5.97560   6.00468   6.02152   6.05604   6.07771
 Alpha virt. eigenvalues --    6.08970   6.15978   6.17027   6.18132   6.20666
 Alpha virt. eigenvalues --    6.23463   6.25591   6.27987   6.28324   6.32826
 Alpha virt. eigenvalues --    6.36487   6.37735   6.40782   6.44287   6.47615
 Alpha virt. eigenvalues --    6.49962   6.53774   6.54198   6.60706   6.63322
 Alpha virt. eigenvalues --    6.65548   6.69465   6.71328   6.74169   6.82176
 Alpha virt. eigenvalues --    6.85445   6.87327   6.98353   7.03671   7.06577
 Alpha virt. eigenvalues --    7.08049   7.09827   7.15180   7.17084   7.25384
 Alpha virt. eigenvalues --    7.32151   7.44324   7.47863   7.54989   7.56082
 Alpha virt. eigenvalues --    7.59121   7.59795   7.63207   7.67480   7.68795
 Alpha virt. eigenvalues --    7.69594   7.71330   7.75600   7.78383   7.82929
 Alpha virt. eigenvalues --    7.87590   7.89052   7.89771   8.01931   8.05974
 Alpha virt. eigenvalues --    8.06088   8.09690   8.12497   8.13223   8.17146
 Alpha virt. eigenvalues --    8.25057   8.27541   8.30639   8.34434   8.35274
 Alpha virt. eigenvalues --    8.37606   8.43965   8.47960   8.54103   8.57576
 Alpha virt. eigenvalues --    8.60976   8.62302   8.66116   8.69295   8.73759
 Alpha virt. eigenvalues --    8.88616   8.93952   8.97959   9.01120   9.08598
 Alpha virt. eigenvalues --    9.08969   9.11854   9.20772   9.32267   9.36118
 Alpha virt. eigenvalues --    9.36708   9.49452   9.57176   9.74423   9.82414
 Alpha virt. eigenvalues --    9.88931   9.93036   9.95279   9.99718  10.02813
 Alpha virt. eigenvalues --   10.07413  10.12547  10.23597  10.28714  10.33323
 Alpha virt. eigenvalues --   10.35374  10.54544  10.55503  10.77316  11.03246
 Alpha virt. eigenvalues --   11.13894  11.25630  11.29049  11.36163  11.51190
 Alpha virt. eigenvalues --   11.67530  11.76979  11.84331  12.03983  12.11782
 Alpha virt. eigenvalues --   12.36160  12.37967  12.50276  12.63655  13.01601
 Alpha virt. eigenvalues --   13.22973  13.44017  13.86342  14.34536  14.81938
 Alpha virt. eigenvalues --   28.67931  28.91684  29.58729  48.67427 148.26740
 Alpha virt. eigenvalues --  148.47694 149.20316 254.43887
          Condensed to atoms (all electrons):
               1          2          3          4          5          6
     1  C    4.496575   0.619370   0.373959  -0.054019  -0.029260  -0.005635
     2  O    0.619370   7.875920  -0.096454   0.008430   0.003520   0.000455
     3  C    0.373959  -0.096454   5.191120   0.459546   0.375304  -0.055613
     4  C   -0.054019   0.008430   0.459546   4.880496  -0.040344   0.427818
     5  H   -0.029260   0.003520   0.375304  -0.040344   0.577395   0.006025
     6  H   -0.005635   0.000455  -0.055613   0.427818   0.006025   0.586888
     7  H    0.002581  -0.000601  -0.031039   0.417974  -0.005668  -0.042939
     8  H    0.445921  -0.074480  -0.164717   0.029328   0.005924   0.006542
               7          8
     1  C    0.002581   0.445921
     2  O   -0.000601  -0.074480
     3  C   -0.031039  -0.164717
     4  C    0.417974   0.029328
     5  H   -0.005668   0.005924
     6  H   -0.042939   0.006542
     7  H    0.562919  -0.000926
     8  H   -0.000926   0.666684
 Mulliken charges:
               1
     1  C    0.150509
     2  O   -0.336158
     3  C   -0.052105
     4  C   -0.129229
     5  H    0.107102
     6  H    0.076459
     7  H    0.097698
     8  H    0.085724
 Sum of Mulliken charges =   0.00000
 Mulliken charges with hydrogens summed into heavy atoms:
               1
     1  C    0.236233
     2  O   -0.336158
     3  C    0.054997
     4  C    0.044928
 Electronic spatial extent (au):  <R**2>=            295.2880
 Charge=              0.0000 electrons
 Dipole moment (field-independent basis, Debye):
    X=              3.2274    Y=              0.8730    Z=              0.1307  Tot=              3.3459
 Quadrupole moment (field-independent basis, Debye-Ang):
   XX=            -27.4030   YY=            -21.6222   ZZ=            -25.0937
   XY=             -1.1947   XZ=              0.0972   YZ=             -0.1261
 Traceless Quadrupole moment (field-independent basis, Debye-Ang):
   XX=             -2.6967   YY=              3.0841   ZZ=             -0.3874
   XY=             -1.1947   XZ=              0.0972   YZ=             -0.1261
 Octapole moment (field-independent basis, Debye-Ang**2):
  XXX=             13.8399  YYY=              0.0286  ZZZ=              0.1218  XYY=             -0.4975
  XXY=              0.7913  XXZ=              0.7372  XZZ=             -4.3499  YZZ=              0.1778
  YYZ=              0.1347  XYZ=             -0.3105
 Hexadecapole moment (field-independent basis, Debye-Ang**3):
 XXXX=           -299.1157 YYYY=            -55.0955 ZZZZ=            -27.2861 XXXY=             -3.1184
 XXXZ=              2.0921 YYYX=             -0.3664 YYYZ=             -0.1326 ZZZX=              0.2999
 ZZZY=             -0.1261 XXYY=            -57.6949 XXZZ=            -56.3514 YYZZ=            -15.3838
 XXYZ=             -0.7664 YYXZ=             -0.0777 ZZXY=              0.3426
 N-N= 1.038024536325D+02 E-N=-6.557839607479D+02  KE= 1.911289838102D+02
 Leave Link  601 at Wed Aug 26 09:10:31 2020, MaxMem=  2097152000 cpu:         0.6
 (Enter /opt/cluster/programs/g09/g09_d.01/g09/l9999.exe)
 1\1\GINC-NODE36\SP\RB2PLYPD3-FC\def2QZVP\C3H4O1\BOITTIER\26-Aug-2020\0
 \\#p B2PLYPD3/Def2QZVP\\acrolein\\0,1\C,0,-5.021882,-1.356984,0.879468
 \O,0,-3.944393,-0.882025,0.669474\C,0,-5.188413,-2.821795,1.140883\C,0
 ,-6.37947,-3.314249,1.41762\H,0,-4.340224,-3.468374,1.089165\H,0,-7.22
 5307,-2.66301,1.494278\H,0,-6.574758,-4.365916,1.482229\H,0,-5.932499,
 -0.767978,0.828885\\Version=ES64L-G09RevD.01\State=1-A\HF=-191.6156051
 \MP2=-191.8613232\RMSD=9.573e-09\PG=C01 [X(C3H4O1)]\\@


 Fatherhood is pretending the present you love most is soap-on-a-rope.
 -- Bill Cosby
 Job cpu time:       0 days  0 hours 15 minutes 55.3 seconds.
 File lengths (MBytes):  RWF=     49 Int=      0 D2E=      0 Chk=      7 Scr=      1
 Normal termination of Gaussian 09 at Wed Aug 26 09:10:32 2020.
