 Entering Gaussian System, Link 0=/opt/cluster/programs/g09/g09_d.01/g09//g09
 Input=/home/boittier/MDCM/nms_sampling/acrolein_geom.xyz.dir/energies/acrolein_58_energy.com
 Output=/scratch/boittier/acrolein_58_energy/acrolein_58_energy.out
 Initial command:
 /opt/cluster/programs/g09/g09_d.01/g09/l1.exe "/scratch/boittier/acrolein_58_energy/Gau-212053.inp" -scrdir="/scratch/boittier/acrolein_58_energy/"
 Entering Link 1 = /opt/cluster/programs/g09/g09_d.01/g09/l1.exe PID=    212054.
  
 Copyright (c) 1988,1990,1992,1993,1995,1998,2003,2009,2013,
            Gaussian, Inc.  All Rights Reserved.
  
 This is part of the Gaussian(R) 09 program.  It is based on
 the Gaussian(R) 03 system (copyright 2003, Gaussian, Inc.),
 the Gaussian(R) 98 system (copyright 1998, Gaussian, Inc.),
 the Gaussian(R) 94 system (copyright 1995, Gaussian, Inc.),
 the Gaussian 92(TM) system (copyright 1992, Gaussian, Inc.),
 the Gaussian 90(TM) system (copyright 1990, Gaussian, Inc.),
 the Gaussian 88(TM) system (copyright 1988, Gaussian, Inc.),
 the Gaussian 86(TM) system (copyright 1986, Carnegie Mellon
 University), and the Gaussian 82(TM) system (copyright 1983,
 Carnegie Mellon University). Gaussian is a federally registered
 trademark of Gaussian, Inc.
  
 This software contains proprietary and confidential information,
 including trade secrets, belonging to Gaussian, Inc.
  
 This software is provided under written license and may be
 used, copied, transmitted, or stored only in accord with that
 written license.
  
 The following legend is applicable only to US Government
 contracts under FAR:
  
                    RESTRICTED RIGHTS LEGEND
  
 Use, reproduction and disclosure by the US Government is
 subject to restrictions as set forth in subparagraphs (a)
 and (c) of the Commercial Computer Software - Restricted
 Rights clause in FAR 52.227-19.
  
 Gaussian, Inc.
 340 Quinnipiac St., Bldg. 40, Wallingford CT 06492
  
  
 ---------------------------------------------------------------
 Warning -- This program may not be used in any manner that
 competes with the business of Gaussian, Inc. or will provide
 assistance to any competitor of Gaussian, Inc.  The licensee
 of this program is prohibited from giving any competitor of
 Gaussian, Inc. access to this program.  By using this program,
 the user acknowledges that Gaussian, Inc. is engaged in the
 business of creating and licensing software in the field of
 computational chemistry and represents and warrants to the
 licensee that it is not a competitor of Gaussian, Inc. and that
 it will not use this program in any manner prohibited above.
 ---------------------------------------------------------------
  

 Cite this work as:
 Gaussian 09, Revision D.01,
 M. J. Frisch, G. W. Trucks, H. B. Schlegel, G. E. Scuseria, 
 M. A. Robb, J. R. Cheeseman, G. Scalmani, V. Barone, B. Mennucci, 
 G. A. Petersson, H. Nakatsuji, M. Caricato, X. Li, H. P. Hratchian, 
 A. F. Izmaylov, J. Bloino, G. Zheng, J. L. Sonnenberg, M. Hada, 
 M. Ehara, K. Toyota, R. Fukuda, J. Hasegawa, M. Ishida, T. Nakajima, 
 Y. Honda, O. Kitao, H. Nakai, T. Vreven, J. A. Montgomery, Jr., 
 J. E. Peralta, F. Ogliaro, M. Bearpark, J. J. Heyd, E. Brothers, 
 K. N. Kudin, V. N. Staroverov, T. Keith, R. Kobayashi, J. Normand, 
 K. Raghavachari, A. Rendell, J. C. Burant, S. S. Iyengar, J. Tomasi, 
 M. Cossi, N. Rega, J. M. Millam, M. Klene, J. E. Knox, J. B. Cross, 
 V. Bakken, C. Adamo, J. Jaramillo, R. Gomperts, R. E. Stratmann, 
 O. Yazyev, A. J. Austin, R. Cammi, C. Pomelli, J. W. Ochterski, 
 R. L. Martin, K. Morokuma, V. G. Zakrzewski, G. A. Voth, 
 P. Salvador, J. J. Dannenberg, S. Dapprich, A. D. Daniels, 
 O. Farkas, J. B. Foresman, J. V. Ortiz, J. Cioslowski, 
 and D. J. Fox, Gaussian, Inc., Wallingford CT, 2013.
 
 ******************************************
 Gaussian 09:  ES64L-G09RevD.01 24-Apr-2013
                26-Aug-2020 
 ******************************************
 %chk=/home/boittier/MDCM/nms_sampling/acrolein_geom.xyz.dir/acrolein_58.chk
 %nproc=8
 Will use up to    8 processors via shared memory.
 %mem=16000MB
 --------------------
 #p B2PLYPD3/Def2QZVP
 --------------------
 1/38=1/1;
 2/12=2,17=6,18=5,40=1/2;
 3/5=45,7=101,11=9,16=1,25=1,30=1,74=-60/1,2,3;
 4//1;
 5/5=2,38=5/2;
 8/10=1/1;
 9/16=-3/6;
 6/7=2,8=2,9=2,10=2/1;
 99/5=1,9=1/99;
 Leave Link    1 at Wed Aug 26 15:34:28 2020, MaxMem=  2097152000 cpu:         0.3
 (Enter /opt/cluster/programs/g09/g09_d.01/g09/l101.exe)
 --------
 acrolein
 --------
 Symbolic Z-matrix:
 Charge =  0 Multiplicity = 1
 C                    -5.0017   -1.3962    0.91525 
 O                    -3.93923  -0.85731   0.63853 
 C                    -5.1909   -2.82876   1.16064 
 C                    -6.40858  -3.30885   1.38265 
 H                    -4.29321  -3.43789   1.17254 
 H                    -7.30208  -2.66206   1.40842 
 H                    -6.54761  -4.28659   1.56166 
 H                    -5.89909  -0.8145    0.98977 
 
 NAtoms=      8 NQM=        8 NQMF=       0 NMMI=      0 NMMIF=      0
                NMic=       0 NMicF=      0.
                    Isotopes and Nuclear Properties:
 (Nuclear quadrupole moments (NQMom) in fm**2, nuclear magnetic moments (NMagM)
  in nuclear magnetons)

  Atom         1           2           3           4           5           6           7           8
 IAtWgt=          12          16          12          12           1           1           1           1
 AtmWgt=  12.0000000  15.9949146  12.0000000  12.0000000   1.0078250   1.0078250   1.0078250   1.0078250
 NucSpn=           0           0           0           0           1           1           1           1
 AtZEff=   0.0000000   0.0000000   0.0000000   0.0000000   0.0000000   0.0000000   0.0000000   0.0000000
 NQMom=    0.0000000   0.0000000   0.0000000   0.0000000   0.0000000   0.0000000   0.0000000   0.0000000
 NMagM=    0.0000000   0.0000000   0.0000000   0.0000000   2.7928460   2.7928460   2.7928460   2.7928460
 AtZNuc=   6.0000000   8.0000000   6.0000000   6.0000000   1.0000000   1.0000000   1.0000000   1.0000000
 Leave Link  101 at Wed Aug 26 15:34:28 2020, MaxMem=  2097152000 cpu:         0.5
 (Enter /opt/cluster/programs/g09/g09_d.01/g09/l202.exe)
                          Input orientation:                          
 ---------------------------------------------------------------------
 Center     Atomic      Atomic             Coordinates (Angstroms)
 Number     Number       Type             X           Y           Z
 ---------------------------------------------------------------------
      1          6           0       -5.001700   -1.396200    0.915250
      2          8           0       -3.939227   -0.857305    0.638532
      3          6           0       -5.190899   -2.828763    1.160642
      4          6           0       -6.408584   -3.308846    1.382645
      5          1           0       -4.293209   -3.437885    1.172544
      6          1           0       -7.302076   -2.662062    1.408417
      7          1           0       -6.547609   -4.286594    1.561661
      8          1           0       -5.899091   -0.814495    0.989774
 ---------------------------------------------------------------------
                    Distance matrix (angstroms):
                    1          2          3          4          5
     1  C    0.000000
     2  O    1.223041   0.000000
     3  C    1.465691   2.392891   0.000000
     4  C    2.419916   3.558298   1.327600   0.000000
     5  H    2.176382   2.658922   1.084905   2.129696   0.000000
     6  H    2.671582   3.893408   2.132194   1.103323   3.116219
     7  H    3.340967   4.406342   2.031440   1.003676   2.440090
     8  H    1.072029   1.991550   2.141963   2.575989   3.081304
                    6          7          8
     6  H    0.000000
     7  H    1.797723   0.000000
     8  H    2.357357   3.578142   0.000000
 Stoichiometry    C3H4O
 Framework group  C1[X(C3H4O)]
 Deg. of freedom    18
 Full point group                 C1      NOp   1
 Largest Abelian subgroup         C1      NOp   1
 Largest concise Abelian subgroup C1      NOp   1
                         Standard orientation:                         
 ---------------------------------------------------------------------
 Center     Atomic      Atomic             Coordinates (Angstroms)
 Number     Number       Type             X           Y           Z
 ---------------------------------------------------------------------
      1          6           0        0.659130    0.340312    0.019231
      2          8           0        1.797262   -0.105742   -0.019771
      3          6           0       -0.569168   -0.459347    0.010259
      4          6           0       -1.752390    0.142134   -0.016713
      5          1           0       -0.443013   -1.536076    0.052179
      6          1           0       -1.855957    1.240585   -0.015351
      7          1           0       -2.599493   -0.396167   -0.012936
      8          1           0        0.494939    1.398997    0.057616
 ---------------------------------------------------------------------
 Rotational constants (GHZ):     48.5211907      4.6783031      4.2684579
 Leave Link  202 at Wed Aug 26 15:34:28 2020, MaxMem=  2097152000 cpu:         0.0
 (Enter /opt/cluster/programs/g09/g09_d.01/g09/l301.exe)
 Standard basis: def2QZVP (5D, 7F)
 Ernie: Thresh=  0.10000D-02 Tol=  0.10000D-05 Strict=F.
 There are   428 symmetry adapted cartesian basis functions of A   symmetry.
 There are   348 symmetry adapted basis functions of A   symmetry.
   348 basis functions,   520 primitive gaussians,   428 cartesian basis functions
    15 alpha electrons       15 beta electrons
       nuclear repulsion energy       103.5170771426 Hartrees.
 IExCor=  419 DFT=T Ex+Corr=B2PLYPD3 ExCW=0 ScaHFX=  0.530000
 ScaDFX=  0.470000  0.470000  0.730000  0.730000 ScalE2=  0.270000  0.270000
 IRadAn=      0 IRanWt=     -1 IRanGd=            0 ICorTp=0 IEmpDi=141
 NAtoms=    8 NActive=    8 NUniq=    8 SFac= 1.00D+00 NAtFMM=   60 NAOKFM=F Big=F
 Integral buffers will be    131072 words long.
 Regular integral format.
 Two-electron integral symmetry is turned on.
 R6Disp:  Grimme-D3(BJ) Dispersion energy=       -0.0035979937 Hartrees.
 Nuclear repulsion after empirical dispersion term =      103.5134791489 Hartrees.
 Leave Link  301 at Wed Aug 26 15:34:28 2020, MaxMem=  2097152000 cpu:         0.5
 (Enter /opt/cluster/programs/g09/g09_d.01/g09/l302.exe)
 NPDir=0 NMtPBC=     1 NCelOv=     1 NCel=       1 NClECP=     1 NCelD=      1
         NCelK=      1 NCelE2=     1 NClLst=     1 CellRange=     0.0.
 One-electron integrals computed using PRISM.
   1 Symmetry operations used in ECPInt.
 ECPInt:  NShTT=    5886 NPrTT=   14376 LenC2=    5782 LenP2D=   12196.
 LDataN:  DoStor=T MaxTD1= 8 Len=  415
 NBasis=   348 RedAO= T EigKep=  5.59D-05  NBF=   348
 NBsUse=   348 1.00D-06 EigRej= -1.00D+00 NBFU=   348
 Precomputing XC quadrature grid using
 IXCGrd= 4 IRadAn=           0 IRanWt=          -1 IRanGd=           0 AccXCQ= 0.00D+00.
 Generated NRdTot=       0 NPtTot=           0 NUsed=           0 NTot=          32
 NSgBfM=   428   428   428   428   428 MxSgAt=     8 MxSgA2=     8.
 Leave Link  302 at Wed Aug 26 15:34:29 2020, MaxMem=  2097152000 cpu:         2.6
 (Enter /opt/cluster/programs/g09/g09_d.01/g09/l303.exe)
 DipDrv:  MaxL=1.
 Leave Link  303 at Wed Aug 26 15:34:29 2020, MaxMem=  2097152000 cpu:         0.3
 (Enter /opt/cluster/programs/g09/g09_d.01/g09/l401.exe)
 ExpMin= 7.60D-02 ExpMax= 1.17D+05 ExpMxC= 1.13D+03 IAcc=2 IRadAn=         4 AccDes= 0.00D+00
 Harris functional with IExCor=  419 and IRadAn=       4 diagonalized for initial guess.
 HarFok:  IExCor=  419 AccDes= 0.00D+00 IRadAn=         4 IDoV= 1 UseB2=F ITyADJ=14
 ICtDFT=  3500011 ScaDFX=  1.000000  1.000000  1.000000  1.000000
 FoFCou: FMM=F IPFlag=           0 FMFlag=      100000 FMFlg1=           0
         NFxFlg=           0 DoJE=T BraDBF=F KetDBF=T FulRan=T
         wScrn=  0.000000 ICntrl=     500 IOpCl=  0 I1Cent=   200000004 NGrid=           0
         NMat0=    1 NMatS0=      1 NMatT0=    0 NMatD0=    1 NMtDS0=    0 NMtDT0=    0
 Petite list used in FoFCou.
 Harris En= -192.047494969420    
 JPrj=0 DoOrth=F DoCkMO=F.
 Leave Link  401 at Wed Aug 26 15:34:30 2020, MaxMem=  2097152000 cpu:         6.1
 (Enter /opt/cluster/programs/g09/g09_d.01/g09/l502.exe)
 Closed shell SCF:
 Using DIIS extrapolation, IDIIS=  1040.
 Integral symmetry usage will be decided dynamically.
 Keep R1 ints in memory in canonical form, NReq=1883905047.
 IVT=      574566 IEndB=      574566 NGot=  2097152000 MDV=   252723534
 LenX=   252723534 LenY=   252539909
 Requested convergence on RMS density matrix=1.00D-08 within 128 cycles.
 Requested convergence on MAX density matrix=1.00D-06.
 Requested convergence on             energy=1.00D-06.
 No special actions if energy rises.
 FoFCou: FMM=F IPFlag=           0 FMFlag=           0 FMFlg1=           0
         NFxFlg=           0 DoJE=F BraDBF=F KetDBF=F FulRan=T
         wScrn=  0.000000 ICntrl=     600 IOpCl=  0 I1Cent=           0 NGrid=           0
         NMat0=    1 NMatS0=  60726 NMatT0=    0 NMatD0=    1 NMtDS0=    0 NMtDT0=    0
 Symmetry not used in FoFCou.
 Integral accuracy reduced to 1.0D-05 until final iterations.

 Cycle   1  Pass 0  IDiag  1:
 E= -191.467075199759    
 DIIS: error= 2.56D-02 at cycle   1 NSaved=   1.
 NSaved= 1 IEnMin= 1 EnMin= -191.467075199759     IErMin= 1 ErrMin= 2.56D-02
 ErrMax= 2.56D-02  0.00D+00 EMaxC= 1.00D-01 BMatC= 2.58D-01 BMatP= 2.58D-01
 IDIUse=3 WtCom= 7.44D-01 WtEn= 2.56D-01
 Coeff-Com:  0.100D+01
 Coeff-En:   0.100D+01
 Coeff:      0.100D+01
 Gap=     0.290 Goal=   None    Shift=    0.000
 GapD=    0.290 DampG=1.000 DampE=0.500 DampFc=0.5000 IDamp=-1.
 Damping current iteration by 5.00D-01
 RMSDP=1.75D-03 MaxDP=2.12D-01              OVMax= 1.68D-01

 Cycle   2  Pass 0  IDiag  1:
 E= -191.538008698332     Delta-E=       -0.070933498574 Rises=F Damp=T
 DIIS: error= 9.60D-03 at cycle   2 NSaved=   2.
 NSaved= 2 IEnMin= 2 EnMin= -191.538008698332     IErMin= 2 ErrMin= 9.60D-03
 ErrMax= 9.60D-03  0.00D+00 EMaxC= 1.00D-01 BMatC= 3.41D-02 BMatP= 2.58D-01
 IDIUse=3 WtCom= 9.04D-01 WtEn= 9.60D-02
 Coeff-Com: -0.165D+00 0.116D+01
 Coeff-En:   0.000D+00 0.100D+01
 Coeff:     -0.149D+00 0.115D+01
 Gap=     0.349 Goal=   None    Shift=    0.000
 RMSDP=5.89D-04 MaxDP=7.01D-02 DE=-7.09D-02 OVMax= 1.31D-01

 Cycle   3  Pass 0  IDiag  1:
 E= -191.599340472440     Delta-E=       -0.061331774107 Rises=F Damp=F
 DIIS: error= 9.17D-03 at cycle   3 NSaved=   3.
 NSaved= 3 IEnMin= 3 EnMin= -191.599340472440     IErMin= 3 ErrMin= 9.17D-03
 ErrMax= 9.17D-03  0.00D+00 EMaxC= 1.00D-01 BMatC= 1.75D-02 BMatP= 3.41D-02
 IDIUse=3 WtCom= 9.08D-01 WtEn= 9.17D-02
 Coeff-Com: -0.194D+00 0.536D+00 0.658D+00
 Coeff-En:   0.000D+00 0.000D+00 0.100D+01
 Coeff:     -0.176D+00 0.487D+00 0.689D+00
 Gap=     0.334 Goal=   None    Shift=    0.000
 RMSDP=2.43D-04 MaxDP=1.79D-02 DE=-6.13D-02 OVMax= 4.84D-02

 Cycle   4  Pass 0  IDiag  1:
 E= -191.609045491021     Delta-E=       -0.009705018581 Rises=F Damp=F
 DIIS: error= 3.89D-03 at cycle   4 NSaved=   4.
 NSaved= 4 IEnMin= 4 EnMin= -191.609045491021     IErMin= 4 ErrMin= 3.89D-03
 ErrMax= 3.89D-03  0.00D+00 EMaxC= 1.00D-01 BMatC= 3.08D-03 BMatP= 1.75D-02
 IDIUse=3 WtCom= 9.61D-01 WtEn= 3.89D-02
 Coeff-Com: -0.604D-01 0.101D+00 0.358D+00 0.601D+00
 Coeff-En:   0.000D+00 0.000D+00 0.162D+00 0.838D+00
 Coeff:     -0.581D-01 0.971D-01 0.350D+00 0.611D+00
 Gap=     0.320 Goal=   None    Shift=    0.000
 RMSDP=1.00D-04 MaxDP=8.26D-03 DE=-9.71D-03 OVMax= 1.51D-02

 Cycle   5  Pass 0  IDiag  1:
 E= -191.611525649673     Delta-E=       -0.002480158652 Rises=F Damp=F
 DIIS: error= 3.06D-04 at cycle   5 NSaved=   5.
 NSaved= 5 IEnMin= 5 EnMin= -191.611525649673     IErMin= 5 ErrMin= 3.06D-04
 ErrMax= 3.06D-04  0.00D+00 EMaxC= 1.00D-01 BMatC= 1.35D-05 BMatP= 3.08D-03
 IDIUse=3 WtCom= 9.97D-01 WtEn= 3.06D-03
 Coeff-Com: -0.102D-01 0.138D-01 0.670D-01 0.147D+00 0.782D+00
 Coeff-En:   0.000D+00 0.000D+00 0.000D+00 0.000D+00 0.100D+01
 Coeff:     -0.101D-01 0.138D-01 0.668D-01 0.146D+00 0.783D+00
 Gap=     0.319 Goal=   None    Shift=    0.000
 RMSDP=7.60D-06 MaxDP=3.32D-04 DE=-2.48D-03 OVMax= 2.47D-03

 Initial convergence to 1.0D-05 achieved.  Increase integral accuracy.
 Cycle   6  Pass 1  IDiag  1:
 E= -191.611531761914     Delta-E=       -0.000006112241 Rises=F Damp=F
 DIIS: error= 1.03D-04 at cycle   1 NSaved=   1.
 NSaved= 1 IEnMin= 1 EnMin= -191.611531761914     IErMin= 1 ErrMin= 1.03D-04
 ErrMax= 1.03D-04  0.00D+00 EMaxC= 1.00D-01 BMatC= 2.00D-06 BMatP= 2.00D-06
 IDIUse=3 WtCom= 9.99D-01 WtEn= 1.03D-03
 Coeff-Com:  0.100D+01
 Coeff-En:   0.100D+01
 Coeff:      0.100D+01
 Gap=     0.320 Goal=   None    Shift=    0.000
 RMSDP=7.60D-06 MaxDP=3.32D-04 DE=-6.11D-06 OVMax= 7.80D-04

 Cycle   7  Pass 1  IDiag  1:
 E= -191.611532689019     Delta-E=       -0.000000927105 Rises=F Damp=F
 DIIS: error= 9.90D-05 at cycle   2 NSaved=   2.
 NSaved= 2 IEnMin= 2 EnMin= -191.611532689019     IErMin= 2 ErrMin= 9.90D-05
 ErrMax= 9.90D-05  0.00D+00 EMaxC= 1.00D-01 BMatC= 1.51D-06 BMatP= 2.00D-06
 IDIUse=1 WtCom= 1.00D+00 WtEn= 0.00D+00
 Coeff-Com:  0.462D+00 0.538D+00
 Coeff:      0.462D+00 0.538D+00
 Gap=     0.319 Goal=   None    Shift=    0.000
 RMSDP=2.24D-06 MaxDP=1.78D-04 DE=-9.27D-07 OVMax= 7.04D-04

 Cycle   8  Pass 1  IDiag  1:
 E= -191.611534160000     Delta-E=       -0.000001470980 Rises=F Damp=F
 DIIS: error= 1.86D-05 at cycle   3 NSaved=   3.
 NSaved= 3 IEnMin= 3 EnMin= -191.611534160000     IErMin= 3 ErrMin= 1.86D-05
 ErrMax= 1.86D-05  0.00D+00 EMaxC= 1.00D-01 BMatC= 7.36D-08 BMatP= 1.51D-06
 IDIUse=1 WtCom= 1.00D+00 WtEn= 0.00D+00
 Coeff-Com:  0.667D-01 0.173D+00 0.760D+00
 Coeff:      0.667D-01 0.173D+00 0.760D+00
 Gap=     0.320 Goal=   None    Shift=    0.000
 RMSDP=1.39D-06 MaxDP=1.56D-04 DE=-1.47D-06 OVMax= 1.00D-04

 Cycle   9  Pass 1  IDiag  1:
 E= -191.611534237918     Delta-E=       -0.000000077918 Rises=F Damp=F
 DIIS: error= 1.17D-05 at cycle   4 NSaved=   4.
 NSaved= 4 IEnMin= 4 EnMin= -191.611534237918     IErMin= 4 ErrMin= 1.17D-05
 ErrMax= 1.17D-05  0.00D+00 EMaxC= 1.00D-01 BMatC= 1.32D-08 BMatP= 7.36D-08
 IDIUse=1 WtCom= 1.00D+00 WtEn= 0.00D+00
 Coeff-Com: -0.971D-01-0.596D-01 0.304D+00 0.853D+00
 Coeff:     -0.971D-01-0.596D-01 0.304D+00 0.853D+00
 Gap=     0.320 Goal=   None    Shift=    0.000
 RMSDP=7.15D-07 MaxDP=7.68D-05 DE=-7.79D-08 OVMax= 1.03D-04

 Cycle  10  Pass 1  IDiag  1:
 E= -191.611534259436     Delta-E=       -0.000000021518 Rises=F Damp=F
 DIIS: error= 3.85D-06 at cycle   5 NSaved=   5.
 NSaved= 5 IEnMin= 5 EnMin= -191.611534259436     IErMin= 5 ErrMin= 3.85D-06
 ErrMax= 3.85D-06  0.00D+00 EMaxC= 1.00D-01 BMatC= 3.55D-09 BMatP= 1.32D-08
 IDIUse=1 WtCom= 1.00D+00 WtEn= 0.00D+00
 Coeff-Com: -0.563D-01-0.442D-01 0.795D-01 0.470D+00 0.551D+00
 Coeff:     -0.563D-01-0.442D-01 0.795D-01 0.470D+00 0.551D+00
 Gap=     0.320 Goal=   None    Shift=    0.000
 RMSDP=2.01D-07 MaxDP=2.20D-05 DE=-2.15D-08 OVMax= 1.79D-05

 Cycle  11  Pass 1  IDiag  1:
 E= -191.611534262054     Delta-E=       -0.000000002619 Rises=F Damp=F
 DIIS: error= 1.08D-06 at cycle   6 NSaved=   6.
 NSaved= 6 IEnMin= 6 EnMin= -191.611534262054     IErMin= 6 ErrMin= 1.08D-06
 ErrMax= 1.08D-06  0.00D+00 EMaxC= 1.00D-01 BMatC= 1.72D-10 BMatP= 3.55D-09
 IDIUse=1 WtCom= 1.00D+00 WtEn= 0.00D+00
 Coeff-Com:  0.630D-02 0.218D-02-0.571D-01-0.139D-01 0.115D+00 0.948D+00
 Coeff:      0.630D-02 0.218D-02-0.571D-01-0.139D-01 0.115D+00 0.948D+00
 Gap=     0.320 Goal=   None    Shift=    0.000
 RMSDP=5.52D-08 MaxDP=5.74D-06 DE=-2.62D-09 OVMax= 6.95D-06

 Cycle  12  Pass 1  IDiag  1:
 E= -191.611534262270     Delta-E=       -0.000000000215 Rises=F Damp=F
 DIIS: error= 2.41D-07 at cycle   7 NSaved=   7.
 NSaved= 7 IEnMin= 7 EnMin= -191.611534262270     IErMin= 7 ErrMin= 2.41D-07
 ErrMax= 2.41D-07  0.00D+00 EMaxC= 1.00D-01 BMatC= 1.72D-11 BMatP= 1.72D-10
 IDIUse=1 WtCom= 1.00D+00 WtEn= 0.00D+00
 Coeff-Com:  0.577D-02 0.372D-02-0.276D-01-0.299D-01-0.538D-02 0.327D+00
 Coeff-Com:  0.727D+00
 Coeff:      0.577D-02 0.372D-02-0.276D-01-0.299D-01-0.538D-02 0.327D+00
 Coeff:      0.727D+00
 Gap=     0.320 Goal=   None    Shift=    0.000
 RMSDP=9.23D-09 MaxDP=4.59D-07 DE=-2.15D-10 OVMax= 1.42D-06

 SCF Done:  E(RB2PLYPD3) =  -191.611534262     A.U. after   12 cycles
            NFock= 12  Conv=0.92D-08     -V/T= 2.0027
 KE= 1.911019362282D+02 PE=-6.551598153903D+02 EE= 1.689328657510D+02
 Leave Link  502 at Wed Aug 26 15:35:41 2020, MaxMem=  2097152000 cpu:       265.8
 (Enter /opt/cluster/programs/g09/g09_d.01/g09/l801.exe)
 DoSCS=T DFT=T ScalE2(SS,OS)=  0.270000  0.270000
 ExpMin= 7.60D-02 ExpMax= 1.17D+05 ExpMxC= 1.13D+03 IAcc=3 IRadAn=         5 AccDes= 0.00D+00
 HarFok:  IExCor=  205 AccDes= 0.00D+00 IRadAn=         5 IDoV=-2 UseB2=F ITyADJ=14
 ICtDFT= 12500011 ScaDFX=  1.000000  1.000000  1.000000  1.000000
 Largest valence mixing into a core orbital is  1.15D-04
 Largest core mixing into a valence orbital is  1.84D-05
 Range of M.O.s used for correlation:     5   348
 NBasis=   348 NAE=    15 NBE=    15 NFC=     4 NFV=     0
 NROrb=    344 NOA=    11 NOB=    11 NVA=   333 NVB=   333

 **** Warning!!: The largest alpha MO coefficient is  0.30266561D+02

 Leave Link  801 at Wed Aug 26 15:35:41 2020, MaxMem=  2097152000 cpu:         0.9
 (Enter /opt/cluster/programs/g09/g09_d.01/g09/l906.exe)
 DoSCS=T DFT=T ScalE2(SS,OS)=  0.270000  0.270000
 FulOut=F Deriv=F AODrv=F NAtomX=     8
   MMem=        1190  MDisk=          11 MDiskD=          11
  W3Min=     1567764 MinDsk=     2827057 NBas6D=         428
 NBas2D=       93150    NTT=       91806    LW2=     4508827
    MDV=  2096570124 MDiskM=       10875 NBas2p=       89604
 Fully direct method using O(OVN) memory.
 IMap=   1   2   3   4   5   6   7   8   9  10  11
 JobTyp=1 Pass  1:  I=   1 to  11 NPSUse=  8 ParTrn=T ParDer=T DoDerP=F.
 Spin components of T(2) and E(2):
     alpha-alpha T2 =       0.4366368106D-01 E2=     -0.2949053822D-01
     alpha-beta  T2 =       0.2654073645D+00 E2=     -0.1881064060D+00
     beta-beta   T2 =       0.4366368106D-01 E2=     -0.2949053822D-01
 The integrals were generated   1 times.
 E2(B2PLYPD3) =    -0.2470874825D+00 E(B2PLYPD3) =    -0.19185862174472D+03
 Leave Link  906 at Wed Aug 26 15:37:01 2020, MaxMem=  2097152000 cpu:       639.8
 (Enter /opt/cluster/programs/g09/g09_d.01/g09/l601.exe)
 Copying SCF densities to generalized density rwf, IOpCl= 0 IROHF=0.

 **********************************************************************

            Population analysis using the SCF density.

 **********************************************************************

 Orbital symmetries:
       Occupied  (A) (A) (A) (A) (A) (A) (A) (A) (A) (A) (A) (A)
                 (A) (A) (A)
       Virtual   (A) (A) (A) (A) (A) (A) (A) (A) (A) (A) (A) (A)
                 (A) (A) (A) (A) (A) (A) (A) (A) (A) (A) (A) (A)
                 (A) (A) (A) (A) (A) (A) (A) (A) (A) (A) (A) (A)
                 (A) (A) (A) (A) (A) (A) (A) (A) (A) (A) (A) (A)
                 (A) (A) (A) (A) (A) (A) (A) (A) (A) (A) (A) (A)
                 (A) (A) (A) (A) (A) (A) (A) (A) (A) (A) (A) (A)
                 (A) (A) (A) (A) (A) (A) (A) (A) (A) (A) (A) (A)
                 (A) (A) (A) (A) (A) (A) (A) (A) (A) (A) (A) (A)
                 (A) (A) (A) (A) (A) (A) (A) (A) (A) (A) (A) (A)
                 (A) (A) (A) (A) (A) (A) (A) (A) (A) (A) (A) (A)
                 (A) (A) (A) (A) (A) (A) (A) (A) (A) (A) (A) (A)
                 (A) (A) (A) (A) (A) (A) (A) (A) (A) (A) (A) (A)
                 (A) (A) (A) (A) (A) (A) (A) (A) (A) (A) (A) (A)
                 (A) (A) (A) (A) (A) (A) (A) (A) (A) (A) (A) (A)
                 (A) (A) (A) (A) (A) (A) (A) (A) (A) (A) (A) (A)
                 (A) (A) (A) (A) (A) (A) (A) (A) (A) (A) (A) (A)
                 (A) (A) (A) (A) (A) (A) (A) (A) (A) (A) (A) (A)
                 (A) (A) (A) (A) (A) (A) (A) (A) (A) (A) (A) (A)
                 (A) (A) (A) (A) (A) (A) (A) (A) (A) (A) (A) (A)
                 (A) (A) (A) (A) (A) (A) (A) (A) (A) (A) (A) (A)
                 (A) (A) (A) (A) (A) (A) (A) (A) (A) (A) (A) (A)
                 (A) (A) (A) (A) (A) (A) (A) (A) (A) (A) (A) (A)
                 (A) (A) (A) (A) (A) (A) (A) (A) (A) (A) (A) (A)
                 (A) (A) (A) (A) (A) (A) (A) (A) (A) (A) (A) (A)
                 (A) (A) (A) (A) (A) (A) (A) (A) (A) (A) (A) (A)
                 (A) (A) (A) (A) (A) (A) (A) (A) (A) (A) (A) (A)
                 (A) (A) (A) (A) (A) (A) (A) (A) (A) (A) (A) (A)
                 (A) (A) (A) (A) (A) (A) (A) (A) (A)
 The electronic state is 1-A.
 Alpha  occ. eigenvalues --  -19.72690 -10.71221 -10.64901 -10.64416  -1.18637
 Alpha  occ. eigenvalues --   -0.93507  -0.76402  -0.67364  -0.57230  -0.56437
 Alpha  occ. eigenvalues --   -0.50661  -0.47296  -0.46265  -0.34811  -0.33849
 Alpha virt. eigenvalues --   -0.01889   0.05777   0.07243   0.08169   0.09702
 Alpha virt. eigenvalues --    0.12739   0.14175   0.15284   0.17426   0.19693
 Alpha virt. eigenvalues --    0.20056   0.22057   0.25411   0.26645   0.28653
 Alpha virt. eigenvalues --    0.31838   0.33994   0.36629   0.37366   0.39254
 Alpha virt. eigenvalues --    0.40014   0.41845   0.42695   0.44585   0.46240
 Alpha virt. eigenvalues --    0.47304   0.49186   0.53065   0.53934   0.56986
 Alpha virt. eigenvalues --    0.59178   0.64564   0.65973   0.68684   0.71121
 Alpha virt. eigenvalues --    0.75221   0.76472   0.78461   0.79986   0.81268
 Alpha virt. eigenvalues --    0.81429   0.82335   0.82764   0.84119   0.86070
 Alpha virt. eigenvalues --    0.88569   0.91492   0.92532   0.94412   0.95749
 Alpha virt. eigenvalues --    0.96505   0.98312   1.01405   1.02175   1.08007
 Alpha virt. eigenvalues --    1.09124   1.12839   1.14698   1.16351   1.19149
 Alpha virt. eigenvalues --    1.22067   1.25466   1.27978   1.36300   1.41771
 Alpha virt. eigenvalues --    1.42745   1.47478   1.49452   1.55364   1.56991
 Alpha virt. eigenvalues --    1.61627   1.64690   1.66623   1.67101   1.71264
 Alpha virt. eigenvalues --    1.74979   1.75324   1.76997   1.81690   1.82734
 Alpha virt. eigenvalues --    1.86227   1.88480   1.90537   1.93391   1.93791
 Alpha virt. eigenvalues --    1.96792   1.98774   1.99926   2.02176   2.02975
 Alpha virt. eigenvalues --    2.05992   2.10282   2.10937   2.12880   2.14387
 Alpha virt. eigenvalues --    2.16522   2.18781   2.20379   2.24019   2.27780
 Alpha virt. eigenvalues --    2.29703   2.35621   2.38353   2.40395   2.44631
 Alpha virt. eigenvalues --    2.46205   2.47351   2.48692   2.49627   2.54200
 Alpha virt. eigenvalues --    2.55566   2.58098   2.60157   2.61417   2.63455
 Alpha virt. eigenvalues --    2.66114   2.66781   2.68285   2.73204   2.75498
 Alpha virt. eigenvalues --    2.77266   2.78421   2.86608   2.88084   2.89827
 Alpha virt. eigenvalues --    2.91571   2.97024   3.00522   3.02861   3.05896
 Alpha virt. eigenvalues --    3.17561   3.21111   3.30850   3.31835   3.35339
 Alpha virt. eigenvalues --    3.38744   3.40178   3.43995   3.45602   3.55353
 Alpha virt. eigenvalues --    3.56876   3.60691   3.62291   3.62825   3.67028
 Alpha virt. eigenvalues --    3.67992   3.77062   3.78520   3.82875   3.92778
 Alpha virt. eigenvalues --    3.97541   3.99910   4.02918   4.06116   4.08073
 Alpha virt. eigenvalues --    4.14485   4.19198   4.21468   4.25737   4.32661
 Alpha virt. eigenvalues --    4.38730   4.44124   4.56847   4.61281   4.63463
 Alpha virt. eigenvalues --    4.68392   4.81871   4.89274   4.91526   4.97894
 Alpha virt. eigenvalues --    5.03319   5.08064   5.11067   5.11815   5.12907
 Alpha virt. eigenvalues --    5.21150   5.27726   5.30130   5.35058   5.43479
 Alpha virt. eigenvalues --    5.44743   5.52210   5.52493   5.58603   5.60748
 Alpha virt. eigenvalues --    5.68461   5.70951   5.72739   5.76291   5.78869
 Alpha virt. eigenvalues --    5.79334   5.81151   5.87585   5.89054   5.97294
 Alpha virt. eigenvalues --    5.98268   6.00060   6.02014   6.06065   6.08115
 Alpha virt. eigenvalues --    6.08935   6.15216   6.16597   6.17981   6.19018
 Alpha virt. eigenvalues --    6.22384   6.27078   6.27894   6.30083   6.31961
 Alpha virt. eigenvalues --    6.33441   6.37501   6.40410   6.46759   6.47740
 Alpha virt. eigenvalues --    6.53891   6.56294   6.57912   6.61796   6.62417
 Alpha virt. eigenvalues --    6.66536   6.70385   6.75019   6.76670   6.81936
 Alpha virt. eigenvalues --    6.87938   6.88630   7.00663   7.03246   7.04199
 Alpha virt. eigenvalues --    7.09871   7.13607   7.16571   7.22232   7.29078
 Alpha virt. eigenvalues --    7.35348   7.43718   7.46496   7.47367   7.51563
 Alpha virt. eigenvalues --    7.56544   7.57252   7.63549   7.65616   7.66947
 Alpha virt. eigenvalues --    7.69032   7.71418   7.72044   7.77572   7.80071
 Alpha virt. eigenvalues --    7.87854   7.89525   7.93760   8.02969   8.09443
 Alpha virt. eigenvalues --    8.10428   8.11105   8.15287   8.19078   8.20980
 Alpha virt. eigenvalues --    8.24438   8.29770   8.31121   8.33775   8.35561
 Alpha virt. eigenvalues --    8.37846   8.49097   8.51526   8.56488   8.59217
 Alpha virt. eigenvalues --    8.61450   8.63446   8.65915   8.70066   8.81042
 Alpha virt. eigenvalues --    8.87019   8.98374   9.01025   9.07226   9.09920
 Alpha virt. eigenvalues --    9.10807   9.14292   9.22042   9.33554   9.36769
 Alpha virt. eigenvalues --    9.38788   9.46313   9.63303   9.72151   9.85653
 Alpha virt. eigenvalues --    9.90461   9.94620   9.95342  10.05075  10.05521
 Alpha virt. eigenvalues --   10.12417  10.18792  10.22021  10.25496  10.27925
 Alpha virt. eigenvalues --   10.47955  10.51588  10.60542  10.80229  11.04800
 Alpha virt. eigenvalues --   11.21456  11.25470  11.30842  11.40789  11.51731
 Alpha virt. eigenvalues --   11.65335  11.68663  11.78234  12.04381  12.09302
 Alpha virt. eigenvalues --   12.32595  12.35931  12.49097  12.60091  13.00728
 Alpha virt. eigenvalues --   13.12199  13.32319  13.75178  14.37388  14.65391
 Alpha virt. eigenvalues --   28.64421  28.93191  29.62530  48.64745 148.24213
 Alpha virt. eigenvalues --  148.50050 149.24991 254.40622
          Condensed to atoms (all electrons):
               1          2          3          4          5          6
     1  C    4.492695   0.624924   0.370389  -0.056913  -0.029842  -0.004394
     2  O    0.624924   7.889983  -0.089605   0.005956   0.006729   0.000456
     3  C    0.370389  -0.089605   5.156973   0.489317   0.366756  -0.047248
     4  C   -0.056913   0.005956   0.489317   4.858082  -0.038146   0.426737
     5  H   -0.029842   0.006729   0.366756  -0.038146   0.581672   0.005089
     6  H   -0.004394   0.000456  -0.047248   0.426737   0.005089   0.570094
     7  H    0.002968  -0.000693  -0.038890   0.421195  -0.004927  -0.041316
     8  H    0.444254  -0.079280  -0.171583   0.022974   0.009421   0.006321
               7          8
     1  C    0.002968   0.444254
     2  O   -0.000693  -0.079280
     3  C   -0.038890  -0.171583
     4  C    0.421195   0.022974
     5  H   -0.004927   0.009421
     6  H   -0.041316   0.006321
     7  H    0.557571  -0.000685
     8  H   -0.000685   0.693001
 Mulliken charges:
               1
     1  C    0.155919
     2  O   -0.358469
     3  C   -0.036109
     4  C   -0.129202
     5  H    0.103248
     6  H    0.084261
     7  H    0.104777
     8  H    0.075576
 Sum of Mulliken charges =   0.00000
 Mulliken charges with hydrogens summed into heavy atoms:
               1
     1  C    0.231494
     2  O   -0.358469
     3  C    0.067139
     4  C    0.059836
 Electronic spatial extent (au):  <R**2>=            296.8756
 Charge=              0.0000 electrons
 Dipole moment (field-independent basis, Debye):
    X=             -3.6228    Y=              0.7345    Z=              0.1104  Tot=              3.6981
 Quadrupole moment (field-independent basis, Debye-Ang):
   XX=            -27.5923   YY=            -21.6272   ZZ=            -25.1113
   XY=              0.7687   XZ=              0.1260   YZ=             -0.0590
 Traceless Quadrupole moment (field-independent basis, Debye-Ang):
   XX=             -2.8154   YY=              3.1498   ZZ=             -0.3343
   XY=              0.7687   XZ=              0.1260   YZ=             -0.0590
 Octapole moment (field-independent basis, Debye-Ang**2):
  XXX=            -15.5841  YYY=              0.0343  ZZZ=              0.0188  XYY=             -0.0540
  XXY=              0.9367  XXZ=              0.1085  XZZ=              4.0366  YZZ=              0.1727
  YYZ=              0.1876  XYZ=              0.0261
 Hexadecapole moment (field-independent basis, Debye-Ang**3):
 XXXX=           -301.6751 YYYY=            -54.4165 ZZZZ=            -27.2024 XXXY=              2.0559
 XXXZ=              0.2273 YYYX=             -0.2665 YYYZ=             -0.1882 ZZZX=             -0.1359
 ZZZY=             -0.0289 XXYY=            -57.6457 XXZZ=            -56.5270 YYZZ=            -15.3651
 XXYZ=             -0.0337 YYXZ=             -0.0356 ZZXY=             -0.1941
 N-N= 1.035134791489D+02 E-N=-6.551597853892D+02  KE= 1.911019362282D+02
 Leave Link  601 at Wed Aug 26 15:37:01 2020, MaxMem=  2097152000 cpu:         0.6
 (Enter /opt/cluster/programs/g09/g09_d.01/g09/l9999.exe)
 1\1\GINC-NODE35\SP\RB2PLYPD3-FC\def2QZVP\C3H4O1\BOITTIER\26-Aug-2020\0
 \\#p B2PLYPD3/Def2QZVP\\acrolein\\0,1\C,0,-5.0017,-1.3962,0.91525\O,0,
 -3.939227,-0.857305,0.638532\C,0,-5.190899,-2.828763,1.160642\C,0,-6.4
 08584,-3.308846,1.382645\H,0,-4.293209,-3.437885,1.172544\H,0,-7.30207
 6,-2.662062,1.408417\H,0,-6.547609,-4.286594,1.561661\H,0,-5.899091,-0
 .814495,0.989774\\Version=ES64L-G09RevD.01\State=1-A\HF=-191.6115343\M
 P2=-191.8586217\RMSD=9.230e-09\PG=C01 [X(C3H4O1)]\\@


 BULLDOZER: SOMEONE WHO SLEEPS THROUGH SPEECHES.
 Job cpu time:       0 days  0 hours 15 minutes 17.9 seconds.
 File lengths (MBytes):  RWF=     49 Int=      0 D2E=      0 Chk=      7 Scr=      1
 Normal termination of Gaussian 09 at Wed Aug 26 15:37:01 2020.
