 Entering Gaussian System, Link 0=/opt/cluster/programs/g09/g09_d.01/g09//g09
 Input=/home/boittier/MDCM/nms_sampling/acrolein_geom.xyz.dir/energies/acrolein_793_energy.com
 Output=/scratch/boittier/acrolein_793_energy/acrolein_793_energy.out
 Initial command:
 /opt/cluster/programs/g09/g09_d.01/g09/l1.exe "/scratch/boittier/acrolein_793_energy/Gau-135812.inp" -scrdir="/scratch/boittier/acrolein_793_energy/"
 Entering Link 1 = /opt/cluster/programs/g09/g09_d.01/g09/l1.exe PID=    135813.
  
 Copyright (c) 1988,1990,1992,1993,1995,1998,2003,2009,2013,
            Gaussian, Inc.  All Rights Reserved.
  
 This is part of the Gaussian(R) 09 program.  It is based on
 the Gaussian(R) 03 system (copyright 2003, Gaussian, Inc.),
 the Gaussian(R) 98 system (copyright 1998, Gaussian, Inc.),
 the Gaussian(R) 94 system (copyright 1995, Gaussian, Inc.),
 the Gaussian 92(TM) system (copyright 1992, Gaussian, Inc.),
 the Gaussian 90(TM) system (copyright 1990, Gaussian, Inc.),
 the Gaussian 88(TM) system (copyright 1988, Gaussian, Inc.),
 the Gaussian 86(TM) system (copyright 1986, Carnegie Mellon
 University), and the Gaussian 82(TM) system (copyright 1983,
 Carnegie Mellon University). Gaussian is a federally registered
 trademark of Gaussian, Inc.
  
 This software contains proprietary and confidential information,
 including trade secrets, belonging to Gaussian, Inc.
  
 This software is provided under written license and may be
 used, copied, transmitted, or stored only in accord with that
 written license.
  
 The following legend is applicable only to US Government
 contracts under FAR:
  
                    RESTRICTED RIGHTS LEGEND
  
 Use, reproduction and disclosure by the US Government is
 subject to restrictions as set forth in subparagraphs (a)
 and (c) of the Commercial Computer Software - Restricted
 Rights clause in FAR 52.227-19.
  
 Gaussian, Inc.
 340 Quinnipiac St., Bldg. 40, Wallingford CT 06492
  
  
 ---------------------------------------------------------------
 Warning -- This program may not be used in any manner that
 competes with the business of Gaussian, Inc. or will provide
 assistance to any competitor of Gaussian, Inc.  The licensee
 of this program is prohibited from giving any competitor of
 Gaussian, Inc. access to this program.  By using this program,
 the user acknowledges that Gaussian, Inc. is engaged in the
 business of creating and licensing software in the field of
 computational chemistry and represents and warrants to the
 licensee that it is not a competitor of Gaussian, Inc. and that
 it will not use this program in any manner prohibited above.
 ---------------------------------------------------------------
  

 Cite this work as:
 Gaussian 09, Revision D.01,
 M. J. Frisch, G. W. Trucks, H. B. Schlegel, G. E. Scuseria, 
 M. A. Robb, J. R. Cheeseman, G. Scalmani, V. Barone, B. Mennucci, 
 G. A. Petersson, H. Nakatsuji, M. Caricato, X. Li, H. P. Hratchian, 
 A. F. Izmaylov, J. Bloino, G. Zheng, J. L. Sonnenberg, M. Hada, 
 M. Ehara, K. Toyota, R. Fukuda, J. Hasegawa, M. Ishida, T. Nakajima, 
 Y. Honda, O. Kitao, H. Nakai, T. Vreven, J. A. Montgomery, Jr., 
 J. E. Peralta, F. Ogliaro, M. Bearpark, J. J. Heyd, E. Brothers, 
 K. N. Kudin, V. N. Staroverov, T. Keith, R. Kobayashi, J. Normand, 
 K. Raghavachari, A. Rendell, J. C. Burant, S. S. Iyengar, J. Tomasi, 
 M. Cossi, N. Rega, J. M. Millam, M. Klene, J. E. Knox, J. B. Cross, 
 V. Bakken, C. Adamo, J. Jaramillo, R. Gomperts, R. E. Stratmann, 
 O. Yazyev, A. J. Austin, R. Cammi, C. Pomelli, J. W. Ochterski, 
 R. L. Martin, K. Morokuma, V. G. Zakrzewski, G. A. Voth, 
 P. Salvador, J. J. Dannenberg, S. Dapprich, A. D. Daniels, 
 O. Farkas, J. B. Foresman, J. V. Ortiz, J. Cioslowski, 
 and D. J. Fox, Gaussian, Inc., Wallingford CT, 2013.
 
 ******************************************
 Gaussian 09:  ES64L-G09RevD.01 24-Apr-2013
                26-Aug-2020 
 ******************************************
 %chk=/home/boittier/MDCM/nms_sampling/acrolein_geom.xyz.dir/acrolein_793.chk
 %nproc=8
 Will use up to    8 processors via shared memory.
 %mem=16000MB
 --------------------
 #p B2PLYPD3/Def2QZVP
 --------------------
 1/38=1/1;
 2/12=2,17=6,18=5,40=1/2;
 3/5=45,7=101,11=9,16=1,25=1,30=1,74=-60/1,2,3;
 4//1;
 5/5=2,38=5/2;
 8/10=1/1;
 9/16=-3/6;
 6/7=2,8=2,9=2,10=2/1;
 99/5=1,9=1/99;
 Leave Link    1 at Wed Aug 26 19:32:51 2020, MaxMem=  2097152000 cpu:        20.9
 (Enter /opt/cluster/programs/g09/g09_d.01/g09/l101.exe)
 --------
 acrolein
 --------
 Symbolic Z-matrix:
 Charge =  0 Multiplicity = 1
 C                    -5.00401  -1.383     0.91849 
 O                    -3.93587  -0.87324   0.63673 
 C                    -5.19333  -2.80227   1.17018 
 C                    -6.40171  -3.32234   1.38648 
 H                    -4.31423  -3.4332    1.12505 
 H                    -7.25362  -2.65534   1.41269 
 H                    -6.57903  -4.37021   1.49562 
 H                    -5.96612  -0.79105   0.93561 
 
 NAtoms=      8 NQM=        8 NQMF=       0 NMMI=      0 NMMIF=      0
                NMic=       0 NMicF=      0.
                    Isotopes and Nuclear Properties:
 (Nuclear quadrupole moments (NQMom) in fm**2, nuclear magnetic moments (NMagM)
  in nuclear magnetons)

  Atom         1           2           3           4           5           6           7           8
 IAtWgt=          12          16          12          12           1           1           1           1
 AtmWgt=  12.0000000  15.9949146  12.0000000  12.0000000   1.0078250   1.0078250   1.0078250   1.0078250
 NucSpn=           0           0           0           0           1           1           1           1
 AtZEff=   0.0000000   0.0000000   0.0000000   0.0000000   0.0000000   0.0000000   0.0000000   0.0000000
 NQMom=    0.0000000   0.0000000   0.0000000   0.0000000   0.0000000   0.0000000   0.0000000   0.0000000
 NMagM=    0.0000000   0.0000000   0.0000000   0.0000000   2.7928460   2.7928460   2.7928460   2.7928460
 AtZNuc=   6.0000000   8.0000000   6.0000000   6.0000000   1.0000000   1.0000000   1.0000000   1.0000000
 Leave Link  101 at Wed Aug 26 19:33:02 2020, MaxMem=  2097152000 cpu:         0.5
 (Enter /opt/cluster/programs/g09/g09_d.01/g09/l202.exe)
                          Input orientation:                          
 ---------------------------------------------------------------------
 Center     Atomic      Atomic             Coordinates (Angstroms)
 Number     Number       Type             X           Y           Z
 ---------------------------------------------------------------------
      1          6           0       -5.004005   -1.383000    0.918489
      2          8           0       -3.935866   -0.873241    0.636727
      3          6           0       -5.193327   -2.802274    1.170178
      4          6           0       -6.401707   -3.322344    1.386478
      5          1           0       -4.314232   -3.433196    1.125048
      6          1           0       -7.253623   -2.655340    1.412691
      7          1           0       -6.579026   -4.370206    1.495624
      8          1           0       -5.966118   -0.791045    0.935608
 ---------------------------------------------------------------------
                    Distance matrix (angstroms):
                    1          2          3          4          5
     1  C    0.000000
     2  O    1.216620   0.000000
     3  C    1.453798   2.363672   0.000000
     4  C    2.435906   3.555363   1.333207   0.000000
     5  H    2.172960   2.633437   1.083008   2.106700   0.000000
     6  H    2.631324   3.845193   2.079717   1.082286   3.054148
     7  H    3.425956   4.466852   2.117661   1.068349   2.478832
     8  H    1.129763   2.053779   2.167319   2.607776   3.121791
                    6          7          8
     6  H    0.000000
     7  H    1.844647   0.000000
     8  H    2.315356   3.674189   0.000000
 Stoichiometry    C3H4O
 Framework group  C1[X(C3H4O)]
 Deg. of freedom    18
 Full point group                 C1      NOp   1
 Largest Abelian subgroup         C1      NOp   1
 Largest concise Abelian subgroup C1      NOp   1
                         Standard orientation:                         
 ---------------------------------------------------------------------
 Center     Atomic      Atomic             Coordinates (Angstroms)
 Number     Number       Type             X           Y           Z
 ---------------------------------------------------------------------
      1          6           0       -0.668216    0.348785   -0.024652
      2          8           0       -1.788315   -0.123738    0.022951
      3          6           0        0.553683   -0.438918   -0.028591
      4          6           0        1.757801    0.132143    0.009188
      5          1           0        0.446410   -1.516482   -0.012555
      6          1           0        1.817069    1.212783    0.002346
      7          1           0        2.668138   -0.421631    0.086587
      8          1           0       -0.484707    1.463168    0.004341
 ---------------------------------------------------------------------
 Rotational constants (GHZ):     48.6578487      4.6839117      4.2750530
 Leave Link  202 at Wed Aug 26 19:33:03 2020, MaxMem=  2097152000 cpu:         0.0
 (Enter /opt/cluster/programs/g09/g09_d.01/g09/l301.exe)
 Standard basis: def2QZVP (5D, 7F)
 Ernie: Thresh=  0.10000D-02 Tol=  0.10000D-05 Strict=F.
 There are   428 symmetry adapted cartesian basis functions of A   symmetry.
 There are   348 symmetry adapted basis functions of A   symmetry.
   348 basis functions,   520 primitive gaussians,   428 cartesian basis functions
    15 alpha electrons       15 beta electrons
       nuclear repulsion energy       103.3732274629 Hartrees.
 IExCor=  419 DFT=T Ex+Corr=B2PLYPD3 ExCW=0 ScaHFX=  0.530000
 ScaDFX=  0.470000  0.470000  0.730000  0.730000 ScalE2=  0.270000  0.270000
 IRadAn=      0 IRanWt=     -1 IRanGd=            0 ICorTp=0 IEmpDi=141
 NAtoms=    8 NActive=    8 NUniq=    8 SFac= 1.00D+00 NAtFMM=   60 NAOKFM=F Big=F
 Integral buffers will be    131072 words long.
 Regular integral format.
 Two-electron integral symmetry is turned on.
 R6Disp:  Grimme-D3(BJ) Dispersion energy=       -0.0035932779 Hartrees.
 Nuclear repulsion after empirical dispersion term =      103.3696341850 Hartrees.
 Leave Link  301 at Wed Aug 26 19:33:04 2020, MaxMem=  2097152000 cpu:         0.4
 (Enter /opt/cluster/programs/g09/g09_d.01/g09/l302.exe)
 NPDir=0 NMtPBC=     1 NCelOv=     1 NCel=       1 NClECP=     1 NCelD=      1
         NCelK=      1 NCelE2=     1 NClLst=     1 CellRange=     0.0.
 One-electron integrals computed using PRISM.
   1 Symmetry operations used in ECPInt.
 ECPInt:  NShTT=    5886 NPrTT=   14376 LenC2=    5781 LenP2D=   12184.
 LDataN:  DoStor=T MaxTD1= 8 Len=  415
 NBasis=   348 RedAO= T EigKep=  5.79D-05  NBF=   348
 NBsUse=   348 1.00D-06 EigRej= -1.00D+00 NBFU=   348
 Precomputing XC quadrature grid using
 IXCGrd= 4 IRadAn=           0 IRanWt=          -1 IRanGd=           0 AccXCQ= 0.00D+00.
 Generated NRdTot=       0 NPtTot=           0 NUsed=           0 NTot=          32
 NSgBfM=   428   428   428   428   428 MxSgAt=     8 MxSgA2=     8.
 Leave Link  302 at Wed Aug 26 19:33:06 2020, MaxMem=  2097152000 cpu:         3.1
 (Enter /opt/cluster/programs/g09/g09_d.01/g09/l303.exe)
 DipDrv:  MaxL=1.
 Leave Link  303 at Wed Aug 26 19:33:09 2020, MaxMem=  2097152000 cpu:         0.3
 (Enter /opt/cluster/programs/g09/g09_d.01/g09/l401.exe)
 ExpMin= 7.60D-02 ExpMax= 1.17D+05 ExpMxC= 1.13D+03 IAcc=2 IRadAn=         4 AccDes= 0.00D+00
 Harris functional with IExCor=  419 and IRadAn=       4 diagonalized for initial guess.
 HarFok:  IExCor=  419 AccDes= 0.00D+00 IRadAn=         4 IDoV= 1 UseB2=F ITyADJ=14
 ICtDFT=  3500011 ScaDFX=  1.000000  1.000000  1.000000  1.000000
 FoFCou: FMM=F IPFlag=           0 FMFlag=      100000 FMFlg1=           0
         NFxFlg=           0 DoJE=T BraDBF=F KetDBF=T FulRan=T
         wScrn=  0.000000 ICntrl=     500 IOpCl=  0 I1Cent=   200000004 NGrid=           0
         NMat0=    1 NMatS0=      1 NMatT0=    0 NMatD0=    1 NMtDS0=    0 NMtDT0=    0
 Petite list used in FoFCou.
 Harris En= -192.046785261863    
 JPrj=0 DoOrth=F DoCkMO=F.
 Leave Link  401 at Wed Aug 26 19:33:15 2020, MaxMem=  2097152000 cpu:         6.9
 (Enter /opt/cluster/programs/g09/g09_d.01/g09/l502.exe)
 Closed shell SCF:
 Using DIIS extrapolation, IDIIS=  1040.
 Integral symmetry usage will be decided dynamically.
 Keep R1 ints in memory in canonical form, NReq=1883905047.
 IVT=      574566 IEndB=      574566 NGot=  2097152000 MDV=   252723534
 LenX=   252723534 LenY=   252539909
 Requested convergence on RMS density matrix=1.00D-08 within 128 cycles.
 Requested convergence on MAX density matrix=1.00D-06.
 Requested convergence on             energy=1.00D-06.
 No special actions if energy rises.
 FoFCou: FMM=F IPFlag=           0 FMFlag=           0 FMFlg1=           0
         NFxFlg=           0 DoJE=F BraDBF=F KetDBF=F FulRan=T
         wScrn=  0.000000 ICntrl=     600 IOpCl=  0 I1Cent=           0 NGrid=           0
         NMat0=    1 NMatS0=  60726 NMatT0=    0 NMatD0=    1 NMtDS0=    0 NMtDT0=    0
 Symmetry not used in FoFCou.
 Integral accuracy reduced to 1.0D-05 until final iterations.

 Cycle   1  Pass 0  IDiag  1:
 E= -191.473287074953    
 DIIS: error= 2.75D-02 at cycle   1 NSaved=   1.
 NSaved= 1 IEnMin= 1 EnMin= -191.473287074953     IErMin= 1 ErrMin= 2.75D-02
 ErrMax= 2.75D-02  0.00D+00 EMaxC= 1.00D-01 BMatC= 2.56D-01 BMatP= 2.56D-01
 IDIUse=3 WtCom= 7.25D-01 WtEn= 2.75D-01
 Coeff-Com:  0.100D+01
 Coeff-En:   0.100D+01
 Coeff:      0.100D+01
 Gap=     0.288 Goal=   None    Shift=    0.000
 GapD=    0.288 DampG=1.000 DampE=0.500 DampFc=0.5000 IDamp=-1.
 Damping current iteration by 5.00D-01
 RMSDP=1.76D-03 MaxDP=2.17D-01              OVMax= 1.73D-01

 Cycle   2  Pass 0  IDiag  1:
 E= -191.542348739925     Delta-E=       -0.069061664972 Rises=F Damp=T
 DIIS: error= 9.28D-03 at cycle   2 NSaved=   2.
 NSaved= 2 IEnMin= 2 EnMin= -191.542348739925     IErMin= 2 ErrMin= 9.28D-03
 ErrMax= 9.28D-03  0.00D+00 EMaxC= 1.00D-01 BMatC= 3.39D-02 BMatP= 2.56D-01
 IDIUse=3 WtCom= 9.07D-01 WtEn= 9.28D-02
 Coeff-Com: -0.150D+00 0.115D+01
 Coeff-En:   0.000D+00 0.100D+01
 Coeff:     -0.136D+00 0.114D+01
 Gap=     0.351 Goal=   None    Shift=    0.000
 RMSDP=6.02D-04 MaxDP=7.44D-02 DE=-6.91D-02 OVMax= 1.34D-01

 Cycle   3  Pass 0  IDiag  1:
 E= -191.603240184087     Delta-E=       -0.060891444162 Rises=F Damp=F
 DIIS: error= 1.16D-02 at cycle   3 NSaved=   3.
 NSaved= 3 IEnMin= 3 EnMin= -191.603240184087     IErMin= 2 ErrMin= 9.28D-03
 ErrMax= 1.16D-02  0.00D+00 EMaxC= 1.00D-01 BMatC= 1.79D-02 BMatP= 3.39D-02
 IDIUse=3 WtCom= 8.84D-01 WtEn= 1.16D-01
 Coeff-Com: -0.192D+00 0.532D+00 0.661D+00
 Coeff-En:   0.000D+00 0.000D+00 0.100D+01
 Coeff:     -0.170D+00 0.470D+00 0.700D+00
 Gap=     0.332 Goal=   None    Shift=    0.000
 RMSDP=2.51D-04 MaxDP=1.88D-02 DE=-6.09D-02 OVMax= 4.98D-02

 Cycle   4  Pass 0  IDiag  1:
 E= -191.613016240047     Delta-E=       -0.009776055961 Rises=F Damp=F
 DIIS: error= 5.08D-03 at cycle   4 NSaved=   4.
 NSaved= 4 IEnMin= 4 EnMin= -191.613016240047     IErMin= 4 ErrMin= 5.08D-03
 ErrMax= 5.08D-03  0.00D+00 EMaxC= 1.00D-01 BMatC= 3.44D-03 BMatP= 1.79D-02
 IDIUse=3 WtCom= 9.49D-01 WtEn= 5.08D-02
 Coeff-Com: -0.586D-01 0.958D-01 0.367D+00 0.596D+00
 Coeff-En:   0.000D+00 0.000D+00 0.178D+00 0.822D+00
 Coeff:     -0.556D-01 0.909D-01 0.357D+00 0.607D+00
 Gap=     0.320 Goal=   None    Shift=    0.000
 RMSDP=1.03D-04 MaxDP=8.49D-03 DE=-9.78D-03 OVMax= 1.55D-02

 Cycle   5  Pass 0  IDiag  1:
 E= -191.615766424180     Delta-E=       -0.002750184133 Rises=F Damp=F
 DIIS: error= 3.43D-04 at cycle   5 NSaved=   5.
 NSaved= 5 IEnMin= 5 EnMin= -191.615766424180     IErMin= 5 ErrMin= 3.43D-04
 ErrMax= 3.43D-04  0.00D+00 EMaxC= 1.00D-01 BMatC= 1.26D-05 BMatP= 3.44D-03
 IDIUse=3 WtCom= 9.97D-01 WtEn= 3.43D-03
 Coeff-Com: -0.700D-02 0.842D-02 0.509D-01 0.121D+00 0.827D+00
 Coeff-En:   0.000D+00 0.000D+00 0.000D+00 0.000D+00 0.100D+01
 Coeff:     -0.698D-02 0.839D-02 0.507D-01 0.121D+00 0.827D+00
 Gap=     0.319 Goal=   None    Shift=    0.000
 RMSDP=8.67D-06 MaxDP=5.96D-04 DE=-2.75D-03 OVMax= 2.31D-03

 Initial convergence to 1.0D-05 achieved.  Increase integral accuracy.
 Cycle   6  Pass 1  IDiag  1:
 E= -191.615770401517     Delta-E=       -0.000003977336 Rises=F Damp=F
 DIIS: error= 1.05D-04 at cycle   1 NSaved=   1.
 NSaved= 1 IEnMin= 1 EnMin= -191.615770401517     IErMin= 1 ErrMin= 1.05D-04
 ErrMax= 1.05D-04  0.00D+00 EMaxC= 1.00D-01 BMatC= 1.61D-06 BMatP= 1.61D-06
 IDIUse=3 WtCom= 9.99D-01 WtEn= 1.05D-03
 Coeff-Com:  0.100D+01
 Coeff-En:   0.100D+01
 Coeff:      0.100D+01
 Gap=     0.319 Goal=   None    Shift=    0.000
 RMSDP=8.67D-06 MaxDP=5.96D-04 DE=-3.98D-06 OVMax= 7.60D-04

 Cycle   7  Pass 1  IDiag  1:
 E= -191.615771645033     Delta-E=       -0.000001243516 Rises=F Damp=F
 DIIS: error= 7.10D-05 at cycle   2 NSaved=   2.
 NSaved= 2 IEnMin= 2 EnMin= -191.615771645033     IErMin= 2 ErrMin= 7.10D-05
 ErrMax= 7.10D-05  0.00D+00 EMaxC= 1.00D-01 BMatC= 8.90D-07 BMatP= 1.61D-06
 IDIUse=1 WtCom= 1.00D+00 WtEn= 0.00D+00
 Coeff-Com:  0.418D+00 0.582D+00
 Coeff:      0.418D+00 0.582D+00
 Gap=     0.319 Goal=   None    Shift=    0.000
 RMSDP=1.63D-06 MaxDP=9.83D-05 DE=-1.24D-06 OVMax= 4.48D-04

 Cycle   8  Pass 1  IDiag  1:
 E= -191.615772453122     Delta-E=       -0.000000808090 Rises=F Damp=F
 DIIS: error= 1.81D-05 at cycle   3 NSaved=   3.
 NSaved= 3 IEnMin= 3 EnMin= -191.615772453122     IErMin= 3 ErrMin= 1.81D-05
 ErrMax= 1.81D-05  0.00D+00 EMaxC= 1.00D-01 BMatC= 6.76D-08 BMatP= 8.90D-07
 IDIUse=1 WtCom= 1.00D+00 WtEn= 0.00D+00
 Coeff-Com:  0.585D-01 0.188D+00 0.754D+00
 Coeff:      0.585D-01 0.188D+00 0.754D+00
 Gap=     0.319 Goal=   None    Shift=    0.000
 RMSDP=1.38D-06 MaxDP=1.55D-04 DE=-8.08D-07 OVMax= 1.21D-04

 Cycle   9  Pass 1  IDiag  1:
 E= -191.615772516008     Delta-E=       -0.000000062886 Rises=F Damp=F
 DIIS: error= 1.81D-05 at cycle   4 NSaved=   4.
 NSaved= 4 IEnMin= 4 EnMin= -191.615772516008     IErMin= 3 ErrMin= 1.81D-05
 ErrMax= 1.81D-05  0.00D+00 EMaxC= 1.00D-01 BMatC= 1.99D-08 BMatP= 6.76D-08
 IDIUse=1 WtCom= 1.00D+00 WtEn= 0.00D+00
 Coeff-Com: -0.116D+00-0.918D-01 0.417D+00 0.790D+00
 Coeff:     -0.116D+00-0.918D-01 0.417D+00 0.790D+00
 Gap=     0.319 Goal=   None    Shift=    0.000
 RMSDP=6.81D-07 MaxDP=7.08D-05 DE=-6.29D-08 OVMax= 1.16D-04

 Cycle  10  Pass 1  IDiag  1:
 E= -191.615772544855     Delta-E=       -0.000000028847 Rises=F Damp=F
 DIIS: error= 2.02D-06 at cycle   5 NSaved=   5.
 NSaved= 5 IEnMin= 5 EnMin= -191.615772544855     IErMin= 5 ErrMin= 2.02D-06
 ErrMax= 2.02D-06  0.00D+00 EMaxC= 1.00D-01 BMatC= 1.22D-09 BMatP= 1.99D-08
 IDIUse=1 WtCom= 1.00D+00 WtEn= 0.00D+00
 Coeff-Com: -0.320D-01-0.328D-01 0.455D-01 0.258D+00 0.762D+00
 Coeff:     -0.320D-01-0.328D-01 0.455D-01 0.258D+00 0.762D+00
 Gap=     0.319 Goal=   None    Shift=    0.000
 RMSDP=1.33D-07 MaxDP=1.47D-05 DE=-2.88D-08 OVMax= 2.04D-05

 Cycle  11  Pass 1  IDiag  1:
 E= -191.615772545905     Delta-E=       -0.000000001050 Rises=F Damp=F
 DIIS: error= 8.47D-07 at cycle   6 NSaved=   6.
 NSaved= 6 IEnMin= 6 EnMin= -191.615772545905     IErMin= 6 ErrMin= 8.47D-07
 ErrMax= 8.47D-07  0.00D+00 EMaxC= 1.00D-01 BMatC= 2.03D-10 BMatP= 1.22D-09
 IDIUse=1 WtCom= 1.00D+00 WtEn= 0.00D+00
 Coeff-Com:  0.773D-02 0.250D-02-0.693D-01-0.131D-01 0.299D+00 0.773D+00
 Coeff:      0.773D-02 0.250D-02-0.693D-01-0.131D-01 0.299D+00 0.773D+00
 Gap=     0.319 Goal=   None    Shift=    0.000
 RMSDP=5.10D-08 MaxDP=5.42D-06 DE=-1.05D-09 OVMax= 4.82D-06

 Cycle  12  Pass 1  IDiag  1:
 E= -191.615772546121     Delta-E=       -0.000000000216 Rises=F Damp=F
 DIIS: error= 3.33D-07 at cycle   7 NSaved=   7.
 NSaved= 7 IEnMin= 7 EnMin= -191.615772546121     IErMin= 7 ErrMin= 3.33D-07
 ErrMax= 3.33D-07  0.00D+00 EMaxC= 1.00D-01 BMatC= 1.51D-11 BMatP= 2.03D-10
 IDIUse=1 WtCom= 1.00D+00 WtEn= 0.00D+00
 Coeff-Com:  0.560D-02 0.355D-02-0.331D-01-0.199D-01 0.625D-01 0.305D+00
 Coeff-Com:  0.677D+00
 Coeff:      0.560D-02 0.355D-02-0.331D-01-0.199D-01 0.625D-01 0.305D+00
 Coeff:      0.677D+00
 Gap=     0.319 Goal=   None    Shift=    0.000
 RMSDP=8.04D-09 MaxDP=4.11D-07 DE=-2.16D-10 OVMax= 2.24D-06

 SCF Done:  E(RB2PLYPD3) =  -191.615772546     A.U. after   12 cycles
            NFock= 12  Conv=0.80D-08     -V/T= 2.0034
 KE= 1.909750536095D+02 PE=-6.547680546316D+02 EE= 1.688075942910D+02
 Leave Link  502 at Wed Aug 26 19:36:17 2020, MaxMem=  2097152000 cpu:      1096.0
 (Enter /opt/cluster/programs/g09/g09_d.01/g09/l801.exe)
 DoSCS=T DFT=T ScalE2(SS,OS)=  0.270000  0.270000
 ExpMin= 7.60D-02 ExpMax= 1.17D+05 ExpMxC= 1.13D+03 IAcc=3 IRadAn=         5 AccDes= 0.00D+00
 HarFok:  IExCor=  205 AccDes= 0.00D+00 IRadAn=         5 IDoV=-2 UseB2=F ITyADJ=14
 ICtDFT= 12500011 ScaDFX=  1.000000  1.000000  1.000000  1.000000
 DSYEVD-2 returned Info=        1739 IAlg= 4 N=    57 NDim=    57 NE2=    36785415 trying  DSYEV.
 Largest valence mixing into a core orbital is  1.16D-04
 Largest core mixing into a valence orbital is  1.87D-05
 Range of M.O.s used for correlation:     5   348
 NBasis=   348 NAE=    15 NBE=    15 NFC=     4 NFV=     0
 NROrb=    344 NOA=    11 NOB=    11 NVA=   333 NVB=   333

 **** Warning!!: The largest alpha MO coefficient is  0.30904166D+02

 Leave Link  801 at Wed Aug 26 19:36:27 2020, MaxMem=  2097152000 cpu:         0.9
 (Enter /opt/cluster/programs/g09/g09_d.01/g09/l906.exe)
 DoSCS=T DFT=T ScalE2(SS,OS)=  0.270000  0.270000
 FulOut=F Deriv=F AODrv=F NAtomX=     8
   MMem=        1190  MDisk=          11 MDiskD=          11
  W3Min=     1567764 MinDsk=     2827057 NBas6D=         428
 NBas2D=       93150    NTT=       91806    LW2=     4508827
    MDV=  2096570746 MDiskM=       10875 NBas2p=       89472
 Fully direct method using O(OVN) memory.
 IMap=   1   2   3   4   5   6   7   8   9  10  11
 JobTyp=1 Pass  1:  I=   1 to  11 NPSUse=  8 ParTrn=T ParDer=T DoDerP=F.
 Spin components of T(2) and E(2):
     alpha-alpha T2 =       0.4402316554D-01 E2=     -0.2956897881D-01
     alpha-beta  T2 =       0.2679501332D+00 E2=     -0.1884935158D+00
     beta-beta   T2 =       0.4402316554D-01 E2=     -0.2956897881D-01
 The integrals were generated   1 times.
 E2(B2PLYPD3) =    -0.2476314734D+00 E(B2PLYPD3) =    -0.19186340401951D+03
 Leave Link  906 at Wed Aug 26 19:37:57 2020, MaxMem=  2097152000 cpu:       464.6
 (Enter /opt/cluster/programs/g09/g09_d.01/g09/l601.exe)
 Copying SCF densities to generalized density rwf, IOpCl= 0 IROHF=0.

 **********************************************************************

            Population analysis using the SCF density.

 **********************************************************************

 Orbital symmetries:
       Occupied  (A) (A) (A) (A) (A) (A) (A) (A) (A) (A) (A) (A)
                 (A) (A) (A)
       Virtual   (A) (A) (A) (A) (A) (A) (A) (A) (A) (A) (A) (A)
                 (A) (A) (A) (A) (A) (A) (A) (A) (A) (A) (A) (A)
                 (A) (A) (A) (A) (A) (A) (A) (A) (A) (A) (A) (A)
                 (A) (A) (A) (A) (A) (A) (A) (A) (A) (A) (A) (A)
                 (A) (A) (A) (A) (A) (A) (A) (A) (A) (A) (A) (A)
                 (A) (A) (A) (A) (A) (A) (A) (A) (A) (A) (A) (A)
                 (A) (A) (A) (A) (A) (A) (A) (A) (A) (A) (A) (A)
                 (A) (A) (A) (A) (A) (A) (A) (A) (A) (A) (A) (A)
                 (A) (A) (A) (A) (A) (A) (A) (A) (A) (A) (A) (A)
                 (A) (A) (A) (A) (A) (A) (A) (A) (A) (A) (A) (A)
                 (A) (A) (A) (A) (A) (A) (A) (A) (A) (A) (A) (A)
                 (A) (A) (A) (A) (A) (A) (A) (A) (A) (A) (A) (A)
                 (A) (A) (A) (A) (A) (A) (A) (A) (A) (A) (A) (A)
                 (A) (A) (A) (A) (A) (A) (A) (A) (A) (A) (A) (A)
                 (A) (A) (A) (A) (A) (A) (A) (A) (A) (A) (A) (A)
                 (A) (A) (A) (A) (A) (A) (A) (A) (A) (A) (A) (A)
                 (A) (A) (A) (A) (A) (A) (A) (A) (A) (A) (A) (A)
                 (A) (A) (A) (A) (A) (A) (A) (A) (A) (A) (A) (A)
                 (A) (A) (A) (A) (A) (A) (A) (A) (A) (A) (A) (A)
                 (A) (A) (A) (A) (A) (A) (A) (A) (A) (A) (A) (A)
                 (A) (A) (A) (A) (A) (A) (A) (A) (A) (A) (A) (A)
                 (A) (A) (A) (A) (A) (A) (A) (A) (A) (A) (A) (A)
                 (A) (A) (A) (A) (A) (A) (A) (A) (A) (A) (A) (A)
                 (A) (A) (A) (A) (A) (A) (A) (A) (A) (A) (A) (A)
                 (A) (A) (A) (A) (A) (A) (A) (A) (A) (A) (A) (A)
                 (A) (A) (A) (A) (A) (A) (A) (A) (A) (A) (A) (A)
                 (A) (A) (A) (A) (A) (A) (A) (A) (A) (A) (A) (A)
                 (A) (A) (A) (A) (A) (A) (A) (A) (A)
 The electronic state is 1-A.
 Alpha  occ. eigenvalues --  -19.72926 -10.71836 -10.65456 -10.64301  -1.19232
 Alpha  occ. eigenvalues --   -0.93295  -0.75836  -0.66729  -0.56791  -0.56263
 Alpha  occ. eigenvalues --   -0.50651  -0.46821  -0.46725  -0.34707  -0.33953
 Alpha virt. eigenvalues --   -0.02027   0.05757   0.07099   0.08279   0.09787
 Alpha virt. eigenvalues --    0.12575   0.13957   0.15341   0.17414   0.19808
 Alpha virt. eigenvalues --    0.19953   0.21650   0.25435   0.26465   0.28870
 Alpha virt. eigenvalues --    0.32018   0.33779   0.35670   0.37162   0.38655
 Alpha virt. eigenvalues --    0.39430   0.41422   0.42984   0.44572   0.45937
 Alpha virt. eigenvalues --    0.46976   0.48907   0.54027   0.54615   0.57012
 Alpha virt. eigenvalues --    0.58602   0.63932   0.65980   0.67793   0.70923
 Alpha virt. eigenvalues --    0.75001   0.76232   0.78163   0.80082   0.80903
 Alpha virt. eigenvalues --    0.81544   0.82322   0.82837   0.84202   0.86671
 Alpha virt. eigenvalues --    0.88637   0.91596   0.92709   0.93813   0.95805
 Alpha virt. eigenvalues --    0.96582   0.97647   1.00906   1.02223   1.06849
 Alpha virt. eigenvalues --    1.10768   1.12514   1.15614   1.16757   1.19012
 Alpha virt. eigenvalues --    1.20194   1.26005   1.28497   1.33871   1.40591
 Alpha virt. eigenvalues --    1.41940   1.47191   1.48205   1.55022   1.56857
 Alpha virt. eigenvalues --    1.61670   1.63789   1.64860   1.66941   1.68783
 Alpha virt. eigenvalues --    1.74582   1.76176   1.76683   1.81718   1.83235
 Alpha virt. eigenvalues --    1.86504   1.90718   1.91281   1.93042   1.94359
 Alpha virt. eigenvalues --    1.96082   1.98868   2.00315   2.01169   2.03118
 Alpha virt. eigenvalues --    2.06167   2.10213   2.11697   2.14106   2.14805
 Alpha virt. eigenvalues --    2.16292   2.18663   2.21048   2.23891   2.26220
 Alpha virt. eigenvalues --    2.29041   2.35028   2.35232   2.39520   2.42805
 Alpha virt. eigenvalues --    2.45685   2.46984   2.49035   2.49323   2.53529
 Alpha virt. eigenvalues --    2.55466   2.57157   2.59637   2.61857   2.63715
 Alpha virt. eigenvalues --    2.65330   2.66400   2.67564   2.70139   2.74617
 Alpha virt. eigenvalues --    2.76330   2.78448   2.85418   2.86558   2.88322
 Alpha virt. eigenvalues --    2.89459   2.96493   2.99790   3.02733   3.07307
 Alpha virt. eigenvalues --    3.17260   3.18820   3.27115   3.29890   3.34228
 Alpha virt. eigenvalues --    3.37049   3.40775   3.42891   3.43948   3.50378
 Alpha virt. eigenvalues --    3.51566   3.54087   3.59501   3.60934   3.64399
 Alpha virt. eigenvalues --    3.66440   3.73602   3.76598   3.82001   3.89481
 Alpha virt. eigenvalues --    3.95364   3.99677   4.03152   4.05207   4.06334
 Alpha virt. eigenvalues --    4.09381   4.18908   4.21670   4.26467   4.32139
 Alpha virt. eigenvalues --    4.40149   4.42459   4.54877   4.60185   4.63175
 Alpha virt. eigenvalues --    4.66882   4.83931   4.88754   4.92768   4.99955
 Alpha virt. eigenvalues --    5.03981   5.04479   5.09881   5.11241   5.12361
 Alpha virt. eigenvalues --    5.21372   5.26908   5.29038   5.34625   5.43840
 Alpha virt. eigenvalues --    5.44300   5.52958   5.53625   5.57829   5.60365
 Alpha virt. eigenvalues --    5.66157   5.69254   5.71685   5.73959   5.78497
 Alpha virt. eigenvalues --    5.80452   5.83744   5.86559   5.91387   5.93247
 Alpha virt. eigenvalues --    5.95926   5.97355   5.98359   6.05836   6.07194
 Alpha virt. eigenvalues --    6.10401   6.14471   6.16313   6.18492   6.20158
 Alpha virt. eigenvalues --    6.21619   6.22394   6.27688   6.28187   6.32290
 Alpha virt. eigenvalues --    6.34698   6.36410   6.37167   6.39058   6.45492
 Alpha virt. eigenvalues --    6.48868   6.51668   6.52414   6.52947   6.60437
 Alpha virt. eigenvalues --    6.64241   6.66973   6.69361   6.73485   6.81498
 Alpha virt. eigenvalues --    6.83804   6.85490   6.95434   6.98220   7.03387
 Alpha virt. eigenvalues --    7.07057   7.08027   7.13600   7.16172   7.22005
 Alpha virt. eigenvalues --    7.33984   7.39475   7.46245   7.47608   7.53670
 Alpha virt. eigenvalues --    7.56739   7.59085   7.59708   7.62269   7.66266
 Alpha virt. eigenvalues --    7.67424   7.67602   7.73904   7.74860   7.76820
 Alpha virt. eigenvalues --    7.84558   7.87610   7.89104   8.03378   8.06055
 Alpha virt. eigenvalues --    8.08470   8.10608   8.13768   8.15792   8.22106
 Alpha virt. eigenvalues --    8.23669   8.25490   8.27062   8.34188   8.35258
 Alpha virt. eigenvalues --    8.36459   8.40124   8.49960   8.53479   8.55597
 Alpha virt. eigenvalues --    8.57530   8.61025   8.62121   8.67920   8.70287
 Alpha virt. eigenvalues --    8.81834   8.86196   8.95012   8.99353   9.07547
 Alpha virt. eigenvalues --    9.07911   9.09048   9.20099   9.29036   9.31489
 Alpha virt. eigenvalues --    9.33463   9.43420   9.60187   9.68303   9.71075
 Alpha virt. eigenvalues --    9.81270   9.82810   9.89863   9.93736   9.94400
 Alpha virt. eigenvalues --    9.99987  10.03815  10.19569  10.25544  10.30333
 Alpha virt. eigenvalues --   10.34151  10.42979  10.52143  10.70609  10.98686
 Alpha virt. eigenvalues --   11.03025  11.22056  11.24924  11.28897  11.55093
 Alpha virt. eigenvalues --   11.65635  11.73825  11.82508  12.04091  12.07930
 Alpha virt. eigenvalues --   12.32677  12.36238  12.46508  12.52585  12.96833
 Alpha virt. eigenvalues --   13.21132  13.35018  13.77103  14.36389  14.67650
 Alpha virt. eigenvalues --   28.58561  28.88613  29.55398  48.64756 148.17286
 Alpha virt. eigenvalues --  148.44022 149.15719 254.40717
          Condensed to atoms (all electrons):
               1          2          3          4          5          6
     1  C    4.502902   0.618468   0.361905  -0.053446  -0.031433  -0.004574
     2  O    0.618468   7.882551  -0.088862   0.006503   0.005435   0.000375
     3  C    0.361905  -0.088862   5.156822   0.484798   0.366686  -0.051972
     4  C   -0.053446   0.006503   0.484798   4.868176  -0.040573   0.424825
     5  H   -0.031433   0.005435   0.366686  -0.040573   0.587480   0.005884
     6  H   -0.004574   0.000375  -0.051972   0.424825   0.005884   0.577162
     7  H    0.002524  -0.000508  -0.032523   0.417542  -0.004969  -0.040143
     8  H    0.447075  -0.073494  -0.167058   0.022614   0.008775   0.006643
               7          8
     1  C    0.002524   0.447075
     2  O   -0.000508  -0.073494
     3  C   -0.032523  -0.167058
     4  C    0.417542   0.022614
     5  H   -0.004969   0.008775
     6  H   -0.040143   0.006643
     7  H    0.552424  -0.000560
     8  H   -0.000560   0.692610
 Mulliken charges:
               1
     1  C    0.156578
     2  O   -0.350468
     3  C   -0.029796
     4  C   -0.130439
     5  H    0.102717
     6  H    0.081800
     7  H    0.106213
     8  H    0.063395
 Sum of Mulliken charges =   0.00000
 Mulliken charges with hydrogens summed into heavy atoms:
               1
     1  C    0.219973
     2  O   -0.350468
     3  C    0.072920
     4  C    0.057574
 Electronic spatial extent (au):  <R**2>=            297.1661
 Charge=              0.0000 electrons
 Dipole moment (field-independent basis, Debye):
    X=              3.5564    Y=              0.7258    Z=             -0.0087  Tot=              3.6297
 Quadrupole moment (field-independent basis, Debye-Ang):
   XX=            -27.3519   YY=            -21.8700   ZZ=            -25.2019
   XY=             -0.9658   XZ=              0.3279   YZ=             -0.0394
 Traceless Quadrupole moment (field-independent basis, Debye-Ang):
   XX=             -2.5440   YY=              2.9379   ZZ=             -0.3939
   XY=             -0.9658   XZ=              0.3279   YZ=             -0.0394
 Octapole moment (field-independent basis, Debye-Ang**2):
  XXX=             15.5626  YYY=             -0.1630  ZZZ=              0.1906  XYY=             -0.1822
  XXY=              0.3540  XXZ=              0.4261  XZZ=             -4.1785  YZZ=              0.0852
  YYZ=              0.1004  XYZ=             -0.1216
 Hexadecapole moment (field-independent basis, Debye-Ang**3):
 XXXX=           -299.6696 YYYY=            -55.7075 ZZZZ=            -27.3743 XXXY=             -3.6063
 XXXZ=              1.9742 YYYX=              0.2615 YYYZ=              0.0026 ZZZX=              0.1134
 ZZZY=             -0.0754 XXYY=            -58.3809 XXZZ=            -56.8869 YYZZ=            -15.5736
 XXYZ=             -0.3904 YYXZ=              0.0771 ZZXY=              0.3472
 N-N= 1.033696341850D+02 E-N=-6.547680233126D+02  KE= 1.909750536095D+02
 Leave Link  601 at Wed Aug 26 19:38:01 2020, MaxMem=  2097152000 cpu:         0.6
 (Enter /opt/cluster/programs/g09/g09_d.01/g09/l9999.exe)
 1\1\GINC-NODE14\SP\RB2PLYPD3-FC\def2QZVP\C3H4O1\BOITTIER\26-Aug-2020\0
 \\#p B2PLYPD3/Def2QZVP\\acrolein\\0,1\C,0,-5.004005,-1.383,0.918489\O,
 0,-3.935866,-0.873241,0.636727\C,0,-5.193327,-2.802274,1.170178\C,0,-6
 .401707,-3.322344,1.386478\H,0,-4.314232,-3.433196,1.125048\H,0,-7.253
 623,-2.65534,1.412691\H,0,-6.579026,-4.370206,1.495624\H,0,-5.966118,-
 0.791045,0.935608\\Version=ES64L-G09RevD.01\State=1-A\HF=-191.6157725\
 MP2=-191.863404\RMSD=8.036e-09\PG=C01 [X(C3H4O1)]\\@


 HONESTY IN A LAWYER IS LIKE A HEN'S HIND LEGS.
  -- MAGNUS OLESON, LAKE WOBEGON PATRIARCH, C.1875
 Job cpu time:       0 days  0 hours 26 minutes 37.2 seconds.
 File lengths (MBytes):  RWF=     49 Int=      0 D2E=      0 Chk=      7 Scr=      1
 Normal termination of Gaussian 09 at Wed Aug 26 19:38:08 2020.
