 Entering Gaussian System, Link 0=/opt/cluster/programs/g09/g09_d.01/g09//g09
 Input=/home/boittier/MDCM/nms_sampling/acrolein_geom.xyz.dir/energies/acrolein_2382_energy.com
 Output=/scratch/boittier/acrolein_2382_energy/acrolein_2382_energy.out
 Initial command:
 /opt/cluster/programs/g09/g09_d.01/g09/l1.exe "/scratch/boittier/acrolein_2382_energy/Gau-184294.inp" -scrdir="/scratch/boittier/acrolein_2382_energy/"
 Entering Link 1 = /opt/cluster/programs/g09/g09_d.01/g09/l1.exe PID=    184295.
  
 Copyright (c) 1988,1990,1992,1993,1995,1998,2003,2009,2013,
            Gaussian, Inc.  All Rights Reserved.
  
 This is part of the Gaussian(R) 09 program.  It is based on
 the Gaussian(R) 03 system (copyright 2003, Gaussian, Inc.),
 the Gaussian(R) 98 system (copyright 1998, Gaussian, Inc.),
 the Gaussian(R) 94 system (copyright 1995, Gaussian, Inc.),
 the Gaussian 92(TM) system (copyright 1992, Gaussian, Inc.),
 the Gaussian 90(TM) system (copyright 1990, Gaussian, Inc.),
 the Gaussian 88(TM) system (copyright 1988, Gaussian, Inc.),
 the Gaussian 86(TM) system (copyright 1986, Carnegie Mellon
 University), and the Gaussian 82(TM) system (copyright 1983,
 Carnegie Mellon University). Gaussian is a federally registered
 trademark of Gaussian, Inc.
  
 This software contains proprietary and confidential information,
 including trade secrets, belonging to Gaussian, Inc.
  
 This software is provided under written license and may be
 used, copied, transmitted, or stored only in accord with that
 written license.
  
 The following legend is applicable only to US Government
 contracts under FAR:
  
                    RESTRICTED RIGHTS LEGEND
  
 Use, reproduction and disclosure by the US Government is
 subject to restrictions as set forth in subparagraphs (a)
 and (c) of the Commercial Computer Software - Restricted
 Rights clause in FAR 52.227-19.
  
 Gaussian, Inc.
 340 Quinnipiac St., Bldg. 40, Wallingford CT 06492
  
  
 ---------------------------------------------------------------
 Warning -- This program may not be used in any manner that
 competes with the business of Gaussian, Inc. or will provide
 assistance to any competitor of Gaussian, Inc.  The licensee
 of this program is prohibited from giving any competitor of
 Gaussian, Inc. access to this program.  By using this program,
 the user acknowledges that Gaussian, Inc. is engaged in the
 business of creating and licensing software in the field of
 computational chemistry and represents and warrants to the
 licensee that it is not a competitor of Gaussian, Inc. and that
 it will not use this program in any manner prohibited above.
 ---------------------------------------------------------------
  

 Cite this work as:
 Gaussian 09, Revision D.01,
 M. J. Frisch, G. W. Trucks, H. B. Schlegel, G. E. Scuseria, 
 M. A. Robb, J. R. Cheeseman, G. Scalmani, V. Barone, B. Mennucci, 
 G. A. Petersson, H. Nakatsuji, M. Caricato, X. Li, H. P. Hratchian, 
 A. F. Izmaylov, J. Bloino, G. Zheng, J. L. Sonnenberg, M. Hada, 
 M. Ehara, K. Toyota, R. Fukuda, J. Hasegawa, M. Ishida, T. Nakajima, 
 Y. Honda, O. Kitao, H. Nakai, T. Vreven, J. A. Montgomery, Jr., 
 J. E. Peralta, F. Ogliaro, M. Bearpark, J. J. Heyd, E. Brothers, 
 K. N. Kudin, V. N. Staroverov, T. Keith, R. Kobayashi, J. Normand, 
 K. Raghavachari, A. Rendell, J. C. Burant, S. S. Iyengar, J. Tomasi, 
 M. Cossi, N. Rega, J. M. Millam, M. Klene, J. E. Knox, J. B. Cross, 
 V. Bakken, C. Adamo, J. Jaramillo, R. Gomperts, R. E. Stratmann, 
 O. Yazyev, A. J. Austin, R. Cammi, C. Pomelli, J. W. Ochterski, 
 R. L. Martin, K. Morokuma, V. G. Zakrzewski, G. A. Voth, 
 P. Salvador, J. J. Dannenberg, S. Dapprich, A. D. Daniels, 
 O. Farkas, J. B. Foresman, J. V. Ortiz, J. Cioslowski, 
 and D. J. Fox, Gaussian, Inc., Wallingford CT, 2013.
 
 ******************************************
 Gaussian 09:  ES64L-G09RevD.01 24-Apr-2013
                26-Aug-2020 
 ******************************************
 %chk=/home/boittier/MDCM/nms_sampling/acrolein_geom.xyz.dir/acrolein_2382.chk
 %nproc=8
 Will use up to    8 processors via shared memory.
 %mem=16000MB
 --------------------
 #p B2PLYPD3/Def2QZVP
 --------------------
 1/38=1/1;
 2/12=2,17=6,18=5,40=1/2;
 3/5=45,7=101,11=9,16=1,25=1,30=1,74=-60/1,2,3;
 4//1;
 5/5=2,38=5/2;
 8/10=1/1;
 9/16=-3/6;
 6/7=2,8=2,9=2,10=2/1;
 99/5=1,9=1/99;
 Leave Link    1 at Wed Aug 26 13:26:20 2020, MaxMem=  2097152000 cpu:         0.2
 (Enter /opt/cluster/programs/g09/g09_d.01/g09/l101.exe)
 --------
 acrolein
 --------
 Symbolic Z-matrix:
 Charge =  0 Multiplicity = 1
 C                    -4.98085  -1.42377   0.86917 
 O                    -3.92114  -0.84678   0.68895 
 C                    -5.19392  -2.81424   1.09327 
 C                    -6.43708  -3.30945   1.42753 
 H                    -4.28619  -3.38253   1.1665 
 H                    -7.34835  -2.66477   1.51297 
 H                    -6.64316  -4.3163    1.66071 
 H                    -5.94054  -0.86767   0.81143 
 
 NAtoms=      8 NQM=        8 NQMF=       0 NMMI=      0 NMMIF=      0
                NMic=       0 NMicF=      0.
                    Isotopes and Nuclear Properties:
 (Nuclear quadrupole moments (NQMom) in fm**2, nuclear magnetic moments (NMagM)
  in nuclear magnetons)

  Atom         1           2           3           4           5           6           7           8
 IAtWgt=          12          16          12          12           1           1           1           1
 AtmWgt=  12.0000000  15.9949146  12.0000000  12.0000000   1.0078250   1.0078250   1.0078250   1.0078250
 NucSpn=           0           0           0           0           1           1           1           1
 AtZEff=   0.0000000   0.0000000   0.0000000   0.0000000   0.0000000   0.0000000   0.0000000   0.0000000
 NQMom=    0.0000000   0.0000000   0.0000000   0.0000000   0.0000000   0.0000000   0.0000000   0.0000000
 NMagM=    0.0000000   0.0000000   0.0000000   0.0000000   2.7928460   2.7928460   2.7928460   2.7928460
 AtZNuc=   6.0000000   8.0000000   6.0000000   6.0000000   1.0000000   1.0000000   1.0000000   1.0000000
 Leave Link  101 at Wed Aug 26 13:26:21 2020, MaxMem=  2097152000 cpu:         0.5
 (Enter /opt/cluster/programs/g09/g09_d.01/g09/l202.exe)
                          Input orientation:                          
 ---------------------------------------------------------------------
 Center     Atomic      Atomic             Coordinates (Angstroms)
 Number     Number       Type             X           Y           Z
 ---------------------------------------------------------------------
      1          6           0       -4.980852   -1.423768    0.869171
      2          8           0       -3.921137   -0.846779    0.688953
      3          6           0       -5.193915   -2.814236    1.093272
      4          6           0       -6.437082   -3.309452    1.427529
      5          1           0       -4.286192   -3.382532    1.166499
      6          1           0       -7.348353   -2.664771    1.512969
      7          1           0       -6.643161   -4.316302    1.660714
      8          1           0       -5.940535   -0.867667    0.811432
 ---------------------------------------------------------------------
                    Distance matrix (angstroms):
                    1          2          3          4          5
     1  C    0.000000
     2  O    1.219996   0.000000
     3  C    1.424436   2.377882   0.000000
     4  C    2.447075   3.597253   1.379286   0.000000
     5  H    2.099455   2.606024   1.073445   2.167903   0.000000
     6  H    2.749477   3.966095   2.200020   1.119522   3.164183
     7  H    3.428785   4.515675   2.162986   1.053846   2.582920
     8  H    1.110664   2.023217   2.103808   2.566797   3.031084
                    6          7          8
     6  H    0.000000
     7  H    1.801854   0.000000
     8  H    2.388240   3.620504   0.000000
 Stoichiometry    C3H4O
 Framework group  C1[X(C3H4O)]
 Deg. of freedom    18
 Full point group                 C1      NOp   1
 Largest Abelian subgroup         C1      NOp   1
 Largest concise Abelian subgroup C1      NOp   1
                         Standard orientation:                         
 ---------------------------------------------------------------------
 Center     Atomic      Atomic             Coordinates (Angstroms)
 Number     Number       Type             X           Y           Z
 ---------------------------------------------------------------------
      1          6           0       -0.659185    0.316632    0.021762
      2          8           0       -1.810625   -0.082420   -0.035967
      3          6           0        0.535379   -0.458315    0.060428
      4          6           0        1.780344    0.129651   -0.021964
      5          1           0        0.366922   -1.514079   -0.035838
      6          1           0        1.929144    1.236966   -0.092966
      7          1           0        2.694242   -0.393977   -0.056514
      8          1           0       -0.444535    1.402639    0.111695
 ---------------------------------------------------------------------
 Rotational constants (GHZ):     49.9575936      4.5832308      4.2049976
 Leave Link  202 at Wed Aug 26 13:26:21 2020, MaxMem=  2097152000 cpu:         0.0
 (Enter /opt/cluster/programs/g09/g09_d.01/g09/l301.exe)
 Standard basis: def2QZVP (5D, 7F)
 Ernie: Thresh=  0.10000D-02 Tol=  0.10000D-05 Strict=F.
 There are   428 symmetry adapted cartesian basis functions of A   symmetry.
 There are   348 symmetry adapted basis functions of A   symmetry.
   348 basis functions,   520 primitive gaussians,   428 cartesian basis functions
    15 alpha electrons       15 beta electrons
       nuclear repulsion energy       102.8442701551 Hartrees.
 IExCor=  419 DFT=T Ex+Corr=B2PLYPD3 ExCW=0 ScaHFX=  0.530000
 ScaDFX=  0.470000  0.470000  0.730000  0.730000 ScalE2=  0.270000  0.270000
 IRadAn=      0 IRanWt=     -1 IRanGd=            0 ICorTp=0 IEmpDi=141
 NAtoms=    8 NActive=    8 NUniq=    8 SFac= 1.00D+00 NAtFMM=   60 NAOKFM=F Big=F
 Integral buffers will be    131072 words long.
 Regular integral format.
 Two-electron integral symmetry is turned on.
 R6Disp:  Grimme-D3(BJ) Dispersion energy=       -0.0035757918 Hartrees.
 Nuclear repulsion after empirical dispersion term =      102.8406943634 Hartrees.
 Leave Link  301 at Wed Aug 26 13:26:21 2020, MaxMem=  2097152000 cpu:         0.5
 (Enter /opt/cluster/programs/g09/g09_d.01/g09/l302.exe)
 NPDir=0 NMtPBC=     1 NCelOv=     1 NCel=       1 NClECP=     1 NCelD=      1
         NCelK=      1 NCelE2=     1 NClLst=     1 CellRange=     0.0.
 One-electron integrals computed using PRISM.
   1 Symmetry operations used in ECPInt.
 ECPInt:  NShTT=    5886 NPrTT=   14376 LenC2=    5776 LenP2D=   12158.
 LDataN:  DoStor=T MaxTD1= 8 Len=  415
 NBasis=   348 RedAO= T EigKep=  6.28D-05  NBF=   348
 NBsUse=   348 1.00D-06 EigRej= -1.00D+00 NBFU=   348
 Precomputing XC quadrature grid using
 IXCGrd= 4 IRadAn=           0 IRanWt=          -1 IRanGd=           0 AccXCQ= 0.00D+00.
 Generated NRdTot=       0 NPtTot=           0 NUsed=           0 NTot=          32
 NSgBfM=   428   428   428   428   428 MxSgAt=     8 MxSgA2=     8.
 Leave Link  302 at Wed Aug 26 13:26:21 2020, MaxMem=  2097152000 cpu:         3.7
 (Enter /opt/cluster/programs/g09/g09_d.01/g09/l303.exe)
 DipDrv:  MaxL=1.
 Leave Link  303 at Wed Aug 26 13:26:21 2020, MaxMem=  2097152000 cpu:         0.3
 (Enter /opt/cluster/programs/g09/g09_d.01/g09/l401.exe)
 ExpMin= 7.60D-02 ExpMax= 1.17D+05 ExpMxC= 1.13D+03 IAcc=2 IRadAn=         4 AccDes= 0.00D+00
 Harris functional with IExCor=  419 and IRadAn=       4 diagonalized for initial guess.
 HarFok:  IExCor=  419 AccDes= 0.00D+00 IRadAn=         4 IDoV= 1 UseB2=F ITyADJ=14
 ICtDFT=  3500011 ScaDFX=  1.000000  1.000000  1.000000  1.000000
 FoFCou: FMM=F IPFlag=           0 FMFlag=      100000 FMFlg1=           0
         NFxFlg=           0 DoJE=T BraDBF=F KetDBF=T FulRan=T
         wScrn=  0.000000 ICntrl=     500 IOpCl=  0 I1Cent=   200000004 NGrid=           0
         NMat0=    1 NMatS0=      1 NMatT0=    0 NMatD0=    1 NMtDS0=    0 NMtDT0=    0
 Petite list used in FoFCou.
 Harris En= -192.033375087956    
 JPrj=0 DoOrth=F DoCkMO=F.
 Leave Link  401 at Wed Aug 26 13:26:22 2020, MaxMem=  2097152000 cpu:         8.3
 (Enter /opt/cluster/programs/g09/g09_d.01/g09/l502.exe)
 Closed shell SCF:
 Using DIIS extrapolation, IDIIS=  1040.
 Integral symmetry usage will be decided dynamically.
 Keep R1 ints in memory in canonical form, NReq=1883905047.
 IVT=      574566 IEndB=      574566 NGot=  2097152000 MDV=   252723534
 LenX=   252723534 LenY=   252539909
 Requested convergence on RMS density matrix=1.00D-08 within 128 cycles.
 Requested convergence on MAX density matrix=1.00D-06.
 Requested convergence on             energy=1.00D-06.
 No special actions if energy rises.
 FoFCou: FMM=F IPFlag=           0 FMFlag=           0 FMFlg1=           0
         NFxFlg=           0 DoJE=F BraDBF=F KetDBF=F FulRan=T
         wScrn=  0.000000 ICntrl=     600 IOpCl=  0 I1Cent=           0 NGrid=           0
         NMat0=    1 NMatS0=  60726 NMatT0=    0 NMatD0=    1 NMtDS0=    0 NMtDT0=    0
 Symmetry not used in FoFCou.
 Integral accuracy reduced to 1.0D-05 until final iterations.

 Cycle   1  Pass 0  IDiag  1:
 E= -191.474869959177    
 DIIS: error= 2.47D-02 at cycle   1 NSaved=   1.
 NSaved= 1 IEnMin= 1 EnMin= -191.474869959177     IErMin= 1 ErrMin= 2.47D-02
 ErrMax= 2.47D-02  0.00D+00 EMaxC= 1.00D-01 BMatC= 2.43D-01 BMatP= 2.43D-01
 IDIUse=3 WtCom= 7.53D-01 WtEn= 2.47D-01
 Coeff-Com:  0.100D+01
 Coeff-En:   0.100D+01
 Coeff:      0.100D+01
 Gap=     0.259 Goal=   None    Shift=    0.000
 GapD=    0.259 DampG=1.000 DampE=0.500 DampFc=0.5000 IDamp=-1.
 Damping current iteration by 5.00D-01
 RMSDP=1.83D-03 MaxDP=2.32D-01              OVMax= 1.96D-01

 Cycle   2  Pass 0  IDiag  1:
 E= -191.537724247648     Delta-E=       -0.062854288471 Rises=F Damp=T
 DIIS: error= 1.00D-02 at cycle   2 NSaved=   2.
 NSaved= 2 IEnMin= 2 EnMin= -191.537724247648     IErMin= 2 ErrMin= 1.00D-02
 ErrMax= 1.00D-02  0.00D+00 EMaxC= 1.00D-01 BMatC= 3.41D-02 BMatP= 2.43D-01
 IDIUse=3 WtCom= 9.00D-01 WtEn= 1.00D-01
 Coeff-Com: -0.145D+00 0.114D+01
 Coeff-En:   0.000D+00 0.100D+01
 Coeff:     -0.130D+00 0.113D+01
 Gap=     0.343 Goal=   None    Shift=    0.000
 RMSDP=6.50D-04 MaxDP=8.24D-02 DE=-6.29D-02 OVMax= 1.32D-01

 Cycle   3  Pass 0  IDiag  1:
 E= -191.593483101604     Delta-E=       -0.055758853956 Rises=F Damp=F
 DIIS: error= 1.19D-02 at cycle   3 NSaved=   3.
 NSaved= 3 IEnMin= 3 EnMin= -191.593483101604     IErMin= 2 ErrMin= 1.00D-02
 ErrMax= 1.19D-02  0.00D+00 EMaxC= 1.00D-01 BMatC= 1.94D-02 BMatP= 3.41D-02
 IDIUse=3 WtCom= 8.81D-01 WtEn= 1.19D-01
 Coeff-Com: -0.204D+00 0.547D+00 0.656D+00
 Coeff-En:   0.000D+00 0.000D+00 0.100D+01
 Coeff:     -0.179D+00 0.482D+00 0.697D+00
 Gap=     0.315 Goal=   None    Shift=    0.000
 RMSDP=2.62D-04 MaxDP=1.94D-02 DE=-5.58D-02 OVMax= 5.86D-02

 Cycle   4  Pass 0  IDiag  1:
 E= -191.604613223292     Delta-E=       -0.011130121688 Rises=F Damp=F
 DIIS: error= 4.84D-03 at cycle   4 NSaved=   4.
 NSaved= 4 IEnMin= 4 EnMin= -191.604613223292     IErMin= 4 ErrMin= 4.84D-03
 ErrMax= 4.84D-03  0.00D+00 EMaxC= 1.00D-01 BMatC= 3.30D-03 BMatP= 1.94D-02
 IDIUse=3 WtCom= 9.52D-01 WtEn= 4.84D-02
 Coeff-Com: -0.611D-01 0.101D+00 0.358D+00 0.602D+00
 Coeff-En:   0.000D+00 0.000D+00 0.156D+00 0.844D+00
 Coeff:     -0.582D-01 0.962D-01 0.348D+00 0.614D+00
 Gap=     0.306 Goal=   None    Shift=    0.000
 RMSDP=1.01D-04 MaxDP=8.02D-03 DE=-1.11D-02 OVMax= 1.54D-02

 Cycle   5  Pass 0  IDiag  1:
 E= -191.607303919083     Delta-E=       -0.002690695790 Rises=F Damp=F
 DIIS: error= 3.83D-04 at cycle   5 NSaved=   5.
 NSaved= 5 IEnMin= 5 EnMin= -191.607303919083     IErMin= 5 ErrMin= 3.83D-04
 ErrMax= 3.83D-04  0.00D+00 EMaxC= 1.00D-01 BMatC= 1.42D-05 BMatP= 3.30D-03
 IDIUse=3 WtCom= 9.96D-01 WtEn= 3.83D-03
 Coeff-Com: -0.621D-02 0.724D-02 0.410D-01 0.112D+00 0.846D+00
 Coeff-En:   0.000D+00 0.000D+00 0.000D+00 0.000D+00 0.100D+01
 Coeff:     -0.619D-02 0.721D-02 0.409D-01 0.112D+00 0.847D+00
 Gap=     0.305 Goal=   None    Shift=    0.000
 RMSDP=1.22D-05 MaxDP=1.04D-03 DE=-2.69D-03 OVMax= 2.42D-03

 Cycle   6  Pass 0  IDiag  1:
 E= -191.607318799689     Delta-E=       -0.000014880606 Rises=F Damp=F
 DIIS: error= 1.47D-04 at cycle   6 NSaved=   6.
 NSaved= 6 IEnMin= 6 EnMin= -191.607318799689     IErMin= 6 ErrMin= 1.47D-04
 ErrMax= 1.47D-04  0.00D+00 EMaxC= 1.00D-01 BMatC= 2.46D-06 BMatP= 1.42D-05
 IDIUse=3 WtCom= 9.99D-01 WtEn= 1.47D-03
 Coeff-Com:  0.328D-02-0.658D-02-0.160D-01-0.144D-01 0.314D+00 0.720D+00
 Coeff-En:   0.000D+00 0.000D+00 0.000D+00 0.000D+00 0.000D+00 0.100D+01
 Coeff:      0.327D-02-0.657D-02-0.160D-01-0.144D-01 0.313D+00 0.720D+00
 Gap=     0.306 Goal=   None    Shift=    0.000
 RMSDP=6.13D-06 MaxDP=5.76D-04 DE=-1.49D-05 OVMax= 1.14D-03

 Initial convergence to 1.0D-05 achieved.  Increase integral accuracy.
 Cycle   7  Pass 1  IDiag  1:
 E= -191.607313763267     Delta-E=        0.000005036422 Rises=F Damp=F
 DIIS: error= 4.48D-05 at cycle   1 NSaved=   1.
 NSaved= 1 IEnMin= 1 EnMin= -191.607313763267     IErMin= 1 ErrMin= 4.48D-05
 ErrMax= 4.48D-05  0.00D+00 EMaxC= 1.00D-01 BMatC= 4.66D-07 BMatP= 4.66D-07
 IDIUse=1 WtCom= 1.00D+00 WtEn= 0.00D+00
 Coeff-Com:  0.100D+01
 Coeff:      0.100D+01
 Gap=     0.306 Goal=   None    Shift=    0.000
 RMSDP=6.13D-06 MaxDP=5.76D-04 DE= 5.04D-06 OVMax= 5.02D-04

 Cycle   8  Pass 1  IDiag  1:
 E= -191.607313803960     Delta-E=       -0.000000040693 Rises=F Damp=F
 DIIS: error= 6.01D-05 at cycle   2 NSaved=   2.
 NSaved= 2 IEnMin= 2 EnMin= -191.607313803960     IErMin= 1 ErrMin= 4.48D-05
 ErrMax= 6.01D-05  0.00D+00 EMaxC= 1.00D-01 BMatC= 4.83D-07 BMatP= 4.66D-07
 IDIUse=1 WtCom= 1.00D+00 WtEn= 0.00D+00
 Coeff-Com:  0.505D+00 0.495D+00
 Coeff:      0.505D+00 0.495D+00
 Gap=     0.306 Goal=   None    Shift=    0.000
 RMSDP=1.17D-06 MaxDP=8.27D-05 DE=-4.07D-08 OVMax= 4.63D-04

 Cycle   9  Pass 1  IDiag  1:
 E= -191.607314306785     Delta-E=       -0.000000502824 Rises=F Damp=F
 DIIS: error= 6.47D-06 at cycle   3 NSaved=   3.
 NSaved= 3 IEnMin= 3 EnMin= -191.607314306785     IErMin= 3 ErrMin= 6.47D-06
 ErrMax= 6.47D-06  0.00D+00 EMaxC= 1.00D-01 BMatC= 2.13D-08 BMatP= 4.66D-07
 IDIUse=1 WtCom= 1.00D+00 WtEn= 0.00D+00
 Coeff-Com: -0.856D-01 0.101D+00 0.985D+00
 Coeff:     -0.856D-01 0.101D+00 0.985D+00
 Gap=     0.306 Goal=   None    Shift=    0.000
 RMSDP=9.06D-07 MaxDP=8.71D-05 DE=-5.03D-07 OVMax= 7.24D-05

 Cycle  10  Pass 1  IDiag  1:
 E= -191.607314332311     Delta-E=       -0.000000025527 Rises=F Damp=F
 DIIS: error= 5.87D-06 at cycle   4 NSaved=   4.
 NSaved= 4 IEnMin= 4 EnMin= -191.607314332311     IErMin= 4 ErrMin= 5.87D-06
 ErrMax= 5.87D-06  0.00D+00 EMaxC= 1.00D-01 BMatC= 4.19D-09 BMatP= 2.13D-08
 IDIUse=1 WtCom= 1.00D+00 WtEn= 0.00D+00
 Coeff-Com: -0.913D-01 0.188D-01 0.457D+00 0.616D+00
 Coeff:     -0.913D-01 0.188D-01 0.457D+00 0.616D+00
 Gap=     0.306 Goal=   None    Shift=    0.000
 RMSDP=1.54D-07 MaxDP=1.13D-05 DE=-2.55D-08 OVMax= 3.21D-05

 Cycle  11  Pass 1  IDiag  1:
 E= -191.607314336525     Delta-E=       -0.000000004214 Rises=F Damp=F
 DIIS: error= 1.70D-06 at cycle   5 NSaved=   5.
 NSaved= 5 IEnMin= 5 EnMin= -191.607314336525     IErMin= 5 ErrMin= 1.70D-06
 ErrMax= 1.70D-06  0.00D+00 EMaxC= 1.00D-01 BMatC= 8.71D-10 BMatP= 4.19D-09
 IDIUse=1 WtCom= 1.00D+00 WtEn= 0.00D+00
 Coeff-Com: -0.726D-02-0.989D-02-0.151D+00 0.264D+00 0.904D+00
 Coeff:     -0.726D-02-0.989D-02-0.151D+00 0.264D+00 0.904D+00
 Gap=     0.306 Goal=   None    Shift=    0.000
 RMSDP=1.61D-07 MaxDP=1.74D-05 DE=-4.21D-09 OVMax= 1.37D-05

 Cycle  12  Pass 1  IDiag  1:
 E= -191.607314337410     Delta-E=       -0.000000000885 Rises=F Damp=F
 DIIS: error= 2.55D-07 at cycle   6 NSaved=   6.
 NSaved= 6 IEnMin= 6 EnMin= -191.607314337410     IErMin= 6 ErrMin= 2.55D-07
 ErrMax= 2.55D-07  0.00D+00 EMaxC= 1.00D-01 BMatC= 1.11D-11 BMatP= 8.71D-10
 IDIUse=1 WtCom= 1.00D+00 WtEn= 0.00D+00
 Coeff-Com:  0.286D-02-0.139D-02-0.564D-01 0.334D-01 0.192D+00 0.829D+00
 Coeff:      0.286D-02-0.139D-02-0.564D-01 0.334D-01 0.192D+00 0.829D+00
 Gap=     0.306 Goal=   None    Shift=    0.000
 RMSDP=1.97D-08 MaxDP=1.70D-06 DE=-8.85D-10 OVMax= 1.77D-06

 Cycle  13  Pass 1  IDiag  1:
 E= -191.607314337418     Delta-E=       -0.000000000008 Rises=F Damp=F
 DIIS: error= 6.11D-08 at cycle   7 NSaved=   7.
 NSaved= 7 IEnMin= 7 EnMin= -191.607314337418     IErMin= 7 ErrMin= 6.11D-08
 ErrMax= 6.11D-08  0.00D+00 EMaxC= 1.00D-01 BMatC= 1.10D-12 BMatP= 1.11D-11
 IDIUse=1 WtCom= 1.00D+00 WtEn= 0.00D+00
 Coeff-Com:  0.966D-03 0.589D-03-0.327D-02-0.711D-02-0.212D-01 0.180D+00
 Coeff-Com:  0.850D+00
 Coeff:      0.966D-03 0.589D-03-0.327D-02-0.711D-02-0.212D-01 0.180D+00
 Coeff:      0.850D+00
 Gap=     0.306 Goal=   None    Shift=    0.000
 RMSDP=4.39D-09 MaxDP=1.75D-07 DE=-7.96D-12 OVMax= 4.12D-07

 SCF Done:  E(RB2PLYPD3) =  -191.607314337     A.U. after   13 cycles
            NFock= 13  Conv=0.44D-08     -V/T= 2.0037
 KE= 1.908978403541D+02 PE=-6.536048002708D+02 EE= 1.682589512159D+02
 Leave Link  502 at Wed Aug 26 13:27:30 2020, MaxMem=  2097152000 cpu:       284.9
 (Enter /opt/cluster/programs/g09/g09_d.01/g09/l801.exe)
 DoSCS=T DFT=T ScalE2(SS,OS)=  0.270000  0.270000
 ExpMin= 7.60D-02 ExpMax= 1.17D+05 ExpMxC= 1.13D+03 IAcc=3 IRadAn=         5 AccDes= 0.00D+00
 HarFok:  IExCor=  205 AccDes= 0.00D+00 IRadAn=         5 IDoV=-2 UseB2=F ITyADJ=14
 ICtDFT= 12500011 ScaDFX=  1.000000  1.000000  1.000000  1.000000
 Largest valence mixing into a core orbital is  1.14D-04
 Largest core mixing into a valence orbital is  1.94D-05
 Range of M.O.s used for correlation:     5   348
 NBasis=   348 NAE=    15 NBE=    15 NFC=     4 NFV=     0
 NROrb=    344 NOA=    11 NOB=    11 NVA=   333 NVB=   333

 **** Warning!!: The largest alpha MO coefficient is  0.29054009D+02

 Leave Link  801 at Wed Aug 26 13:27:30 2020, MaxMem=  2097152000 cpu:         0.9
 (Enter /opt/cluster/programs/g09/g09_d.01/g09/l906.exe)
 DoSCS=T DFT=T ScalE2(SS,OS)=  0.270000  0.270000
 FulOut=F Deriv=F AODrv=F NAtomX=     8
   MMem=        1190  MDisk=          11 MDiskD=          11
  W3Min=     1567764 MinDsk=     2827057 NBas6D=         428
 NBas2D=       93150    NTT=       91806    LW2=     4508827
    MDV=  2096571572 MDiskM=       10875 NBas2p=       89344
 Fully direct method using O(OVN) memory.
 IMap=   1   2   3   4   5   6   7   8   9  10  11
 JobTyp=1 Pass  1:  I=   1 to  11 NPSUse=  8 ParTrn=T ParDer=T DoDerP=F.
 Spin components of T(2) and E(2):
     alpha-alpha T2 =       0.4486700804D-01 E2=     -0.2973435917D-01
     alpha-beta  T2 =       0.2746717833D+00 E2=     -0.1894827008D+00
     beta-beta   T2 =       0.4486700804D-01 E2=     -0.2973435917D-01
 The integrals were generated   1 times.
 E2(B2PLYPD3) =    -0.2489514191D+00 E(B2PLYPD3) =    -0.19185626575651D+03
 Leave Link  906 at Wed Aug 26 13:28:19 2020, MaxMem=  2097152000 cpu:       386.1
 (Enter /opt/cluster/programs/g09/g09_d.01/g09/l601.exe)
 Copying SCF densities to generalized density rwf, IOpCl= 0 IROHF=0.

 **********************************************************************

            Population analysis using the SCF density.

 **********************************************************************

 Orbital symmetries:
       Occupied  (A) (A) (A) (A) (A) (A) (A) (A) (A) (A) (A) (A)
                 (A) (A) (A)
       Virtual   (A) (A) (A) (A) (A) (A) (A) (A) (A) (A) (A) (A)
                 (A) (A) (A) (A) (A) (A) (A) (A) (A) (A) (A) (A)
                 (A) (A) (A) (A) (A) (A) (A) (A) (A) (A) (A) (A)
                 (A) (A) (A) (A) (A) (A) (A) (A) (A) (A) (A) (A)
                 (A) (A) (A) (A) (A) (A) (A) (A) (A) (A) (A) (A)
                 (A) (A) (A) (A) (A) (A) (A) (A) (A) (A) (A) (A)
                 (A) (A) (A) (A) (A) (A) (A) (A) (A) (A) (A) (A)
                 (A) (A) (A) (A) (A) (A) (A) (A) (A) (A) (A) (A)
                 (A) (A) (A) (A) (A) (A) (A) (A) (A) (A) (A) (A)
                 (A) (A) (A) (A) (A) (A) (A) (A) (A) (A) (A) (A)
                 (A) (A) (A) (A) (A) (A) (A) (A) (A) (A) (A) (A)
                 (A) (A) (A) (A) (A) (A) (A) (A) (A) (A) (A) (A)
                 (A) (A) (A) (A) (A) (A) (A) (A) (A) (A) (A) (A)
                 (A) (A) (A) (A) (A) (A) (A) (A) (A) (A) (A) (A)
                 (A) (A) (A) (A) (A) (A) (A) (A) (A) (A) (A) (A)
                 (A) (A) (A) (A) (A) (A) (A) (A) (A) (A) (A) (A)
                 (A) (A) (A) (A) (A) (A) (A) (A) (A) (A) (A) (A)
                 (A) (A) (A) (A) (A) (A) (A) (A) (A) (A) (A) (A)
                 (A) (A) (A) (A) (A) (A) (A) (A) (A) (A) (A) (A)
                 (A) (A) (A) (A) (A) (A) (A) (A) (A) (A) (A) (A)
                 (A) (A) (A) (A) (A) (A) (A) (A) (A) (A) (A) (A)
                 (A) (A) (A) (A) (A) (A) (A) (A) (A) (A) (A) (A)
                 (A) (A) (A) (A) (A) (A) (A) (A) (A) (A) (A) (A)
                 (A) (A) (A) (A) (A) (A) (A) (A) (A) (A) (A) (A)
                 (A) (A) (A) (A) (A) (A) (A) (A) (A) (A) (A) (A)
                 (A) (A) (A) (A) (A) (A) (A) (A) (A) (A) (A) (A)
                 (A) (A) (A) (A) (A) (A) (A) (A) (A) (A) (A) (A)
                 (A) (A) (A) (A) (A) (A) (A) (A) (A)
 The electronic state is 1-A.
 Alpha  occ. eigenvalues --  -19.72670 -10.71156 -10.67137 -10.65081  -1.18786
 Alpha  occ. eigenvalues --   -0.92915  -0.76965  -0.66806  -0.57258  -0.55522
 Alpha  occ. eigenvalues --   -0.50479  -0.47150  -0.46506  -0.34222  -0.33725
 Alpha virt. eigenvalues --   -0.03133   0.05519   0.07326   0.08437   0.09624
 Alpha virt. eigenvalues --    0.12517   0.13803   0.15349   0.17643   0.19260
 Alpha virt. eigenvalues --    0.20085   0.21555   0.24933   0.26569   0.28578
 Alpha virt. eigenvalues --    0.31312   0.34449   0.35302   0.36745   0.37602
 Alpha virt. eigenvalues --    0.38623   0.41300   0.43635   0.44202   0.46245
 Alpha virt. eigenvalues --    0.47056   0.48694   0.51289   0.54572   0.58196
 Alpha virt. eigenvalues --    0.59808   0.64402   0.65980   0.67789   0.71284
 Alpha virt. eigenvalues --    0.73672   0.76271   0.78539   0.78699   0.80656
 Alpha virt. eigenvalues --    0.81235   0.82849   0.83501   0.84742   0.85428
 Alpha virt. eigenvalues --    0.88685   0.91200   0.92226   0.93871   0.94991
 Alpha virt. eigenvalues --    0.95930   0.98263   0.99972   1.01667   1.05563
 Alpha virt. eigenvalues --    1.09192   1.12317   1.13738   1.15518   1.19941
 Alpha virt. eigenvalues --    1.21866   1.25294   1.27345   1.33679   1.37902
 Alpha virt. eigenvalues --    1.43896   1.46335   1.48118   1.54908   1.56085
 Alpha virt. eigenvalues --    1.57034   1.61155   1.64607   1.68466   1.70720
 Alpha virt. eigenvalues --    1.72107   1.75942   1.80189   1.80972   1.84100
 Alpha virt. eigenvalues --    1.86193   1.90014   1.91672   1.93234   1.94830
 Alpha virt. eigenvalues --    1.96853   1.98260   2.01397   2.02453   2.04869
 Alpha virt. eigenvalues --    2.05906   2.08087   2.09612   2.12161   2.14866
 Alpha virt. eigenvalues --    2.15925   2.20132   2.22294   2.22697   2.25206
 Alpha virt. eigenvalues --    2.30731   2.35046   2.35883   2.39794   2.41385
 Alpha virt. eigenvalues --    2.43429   2.46117   2.47127   2.47938   2.54374
 Alpha virt. eigenvalues --    2.56356   2.58324   2.59747   2.61077   2.62564
 Alpha virt. eigenvalues --    2.66393   2.67196   2.68629   2.69358   2.73054
 Alpha virt. eigenvalues --    2.77143   2.77856   2.84763   2.85414   2.87910
 Alpha virt. eigenvalues --    2.88447   2.93584   2.97527   3.02039   3.03385
 Alpha virt. eigenvalues --    3.14963   3.17068   3.29373   3.29786   3.32789
 Alpha virt. eigenvalues --    3.37177   3.38881   3.40550   3.42804   3.49507
 Alpha virt. eigenvalues --    3.50806   3.53643   3.57339   3.58888   3.60990
 Alpha virt. eigenvalues --    3.67134   3.69409   3.78664   3.80607   3.88245
 Alpha virt. eigenvalues --    3.92298   3.98854   4.01276   4.03884   4.05988
 Alpha virt. eigenvalues --    4.11359   4.18886   4.20235   4.25670   4.31753
 Alpha virt. eigenvalues --    4.39345   4.43596   4.54308   4.60329   4.64528
 Alpha virt. eigenvalues --    4.67536   4.81258   4.87682   4.93082   5.00203
 Alpha virt. eigenvalues --    5.01376   5.06487   5.10116   5.10869   5.14189
 Alpha virt. eigenvalues --    5.23558   5.28209   5.31420   5.33286   5.40765
 Alpha virt. eigenvalues --    5.46170   5.50678   5.54253   5.56797   5.60827
 Alpha virt. eigenvalues --    5.63669   5.71243   5.72865   5.75432   5.76704
 Alpha virt. eigenvalues --    5.78833   5.80043   5.85138   5.88634   5.93468
 Alpha virt. eigenvalues --    5.95992   5.98183   5.99913   6.04174   6.08467
 Alpha virt. eigenvalues --    6.11566   6.12192   6.14280   6.16162   6.18070
 Alpha virt. eigenvalues --    6.20300   6.22345   6.23868   6.27244   6.29791
 Alpha virt. eigenvalues --    6.30947   6.34995   6.37633   6.42283   6.47484
 Alpha virt. eigenvalues --    6.50034   6.52244   6.53491   6.54872   6.57989
 Alpha virt. eigenvalues --    6.62001   6.63152   6.70970   6.75547   6.80991
 Alpha virt. eigenvalues --    6.82480   6.84572   6.93759   6.95080   6.98985
 Alpha virt. eigenvalues --    7.03110   7.08823   7.10256   7.14887   7.18672
 Alpha virt. eigenvalues --    7.29933   7.41028   7.41559   7.43293   7.48049
 Alpha virt. eigenvalues --    7.55334   7.57922   7.60592   7.64297   7.65331
 Alpha virt. eigenvalues --    7.67501   7.69709   7.72100   7.74884   7.76823
 Alpha virt. eigenvalues --    7.83558   7.89232   7.91322   8.01571   8.04568
 Alpha virt. eigenvalues --    8.06247   8.11082   8.14474   8.20500   8.23308
 Alpha virt. eigenvalues --    8.26751   8.30179   8.31881   8.32837   8.34831
 Alpha virt. eigenvalues --    8.35231   8.39382   8.43081   8.45990   8.52322
 Alpha virt. eigenvalues --    8.54952   8.62733   8.63415   8.64613   8.66158
 Alpha virt. eigenvalues --    8.69524   8.85093   8.86201   8.95093   9.04385
 Alpha virt. eigenvalues --    9.08206   9.08423   9.14896   9.26385   9.28953
 Alpha virt. eigenvalues --    9.34175   9.40007   9.63398   9.69224   9.76702
 Alpha virt. eigenvalues --    9.79925   9.84587   9.87843   9.91688   9.99017
 Alpha virt. eigenvalues --   10.01249  10.04750  10.17117  10.24182  10.27239
 Alpha virt. eigenvalues --   10.36966  10.44638  10.52884  10.56158  10.93836
 Alpha virt. eigenvalues --   11.03790  11.17352  11.25343  11.28154  11.47639
 Alpha virt. eigenvalues --   11.65695  11.76613  11.88031  12.05686  12.10181
 Alpha virt. eigenvalues --   12.32571  12.36840  12.48309  12.53020  12.90138
 Alpha virt. eigenvalues --   13.07423  13.35373  13.76461  14.38542  14.68502
 Alpha virt. eigenvalues --   28.58424  28.94013  29.44101  48.66342 148.18157
 Alpha virt. eigenvalues --  148.50256 149.01747 254.42364
          Condensed to atoms (all electrons):
               1          2          3          4          5          6
     1  C    4.495016   0.628725   0.358307  -0.055356  -0.033803  -0.002941
     2  O    0.628725   7.886194  -0.087828   0.004262   0.009448   0.000269
     3  C    0.358307  -0.087828   5.136454   0.518707   0.352890  -0.039888
     4  C   -0.055356   0.004262   0.518707   4.848679  -0.037131   0.415792
     5  H   -0.033803   0.009448   0.352890  -0.037131   0.589916   0.004970
     6  H   -0.002941   0.000269  -0.039888   0.415792   0.004970   0.576371
     7  H    0.002588  -0.000499  -0.031574   0.410950  -0.004028  -0.044966
     8  H    0.444189  -0.081268  -0.175782   0.014109   0.013304   0.006474
               7          8
     1  C    0.002588   0.444189
     2  O   -0.000499  -0.081268
     3  C   -0.031574  -0.175782
     4  C    0.410950   0.014109
     5  H   -0.004028   0.013304
     6  H   -0.044966   0.006474
     7  H    0.562034  -0.000623
     8  H   -0.000623   0.726745
 Mulliken charges:
               1
     1  C    0.163275
     2  O   -0.359304
     3  C   -0.031286
     4  C   -0.120012
     5  H    0.104435
     6  H    0.083919
     7  H    0.106120
     8  H    0.052852
 Sum of Mulliken charges =   0.00000
 Mulliken charges with hydrogens summed into heavy atoms:
               1
     1  C    0.216127
     2  O   -0.359304
     3  C    0.073149
     4  C    0.070027
 Electronic spatial extent (au):  <R**2>=            301.4099
 Charge=              0.0000 electrons
 Dipole moment (field-independent basis, Debye):
    X=              3.8633    Y=              0.6010    Z=             -0.0255  Tot=              3.9099
 Quadrupole moment (field-independent basis, Debye-Ang):
   XX=            -27.0350   YY=            -22.0913   ZZ=            -25.2909
   XY=             -0.3457   XZ=             -0.5162   YZ=              0.0320
 Traceless Quadrupole moment (field-independent basis, Debye-Ang):
   XX=             -2.2293   YY=              2.7144   ZZ=             -0.4851
   XY=             -0.3457   XZ=             -0.5162   YZ=              0.0320
 Octapole moment (field-independent basis, Debye-Ang**2):
  XXX=             17.9164  YYY=             -0.1623  ZZZ=             -0.3762  XYY=             -0.1170
  XXY=              1.1322  XXZ=             -0.3713  XZZ=             -4.2338  YZZ=              0.1525
  YYZ=             -0.3114  XYZ=             -0.1312
 Hexadecapole moment (field-independent basis, Debye-Ang**3):
 XXXX=           -301.7833 YYYY=            -55.2966 ZZZZ=            -27.9347 XXXY=             -1.2531
 XXXZ=             -2.2261 YYYX=              1.2921 YYYZ=              0.2775 ZZZX=             -0.2860
 ZZZY=              0.0335 XXYY=            -59.1541 XXZZ=            -58.1371 YYZZ=            -15.5061
 XXYZ=             -0.3090 YYXZ=             -0.5309 ZZXY=              0.2804
 N-N= 1.028406943634D+02 E-N=-6.536047914881D+02  KE= 1.908978403541D+02
 Leave Link  601 at Wed Aug 26 13:28:20 2020, MaxMem=  2097152000 cpu:         0.5
 (Enter /opt/cluster/programs/g09/g09_d.01/g09/l9999.exe)
 1\1\GINC-NODE40\SP\RB2PLYPD3-FC\def2QZVP\C3H4O1\BOITTIER\26-Aug-2020\0
 \\#p B2PLYPD3/Def2QZVP\\acrolein\\0,1\C,0,-4.980852,-1.423768,0.869171
 \O,0,-3.921137,-0.846779,0.688953\C,0,-5.193915,-2.814236,1.093272\C,0
 ,-6.437082,-3.309452,1.427529\H,0,-4.286192,-3.382532,1.166499\H,0,-7.
 348353,-2.664771,1.512969\H,0,-6.643161,-4.316302,1.660714\H,0,-5.9405
 35,-0.867667,0.811432\\Version=ES64L-G09RevD.01\State=1-A\HF=-191.6073
 143\MP2=-191.8562658\RMSD=4.389e-09\PG=C01 [X(C3H4O1)]\\@


 THAT'S WHAT MAKES US A GREAT COUNTRY.
 THE LITTLE THINGS ARE SERIOUS AND THE BIG ONES ARE NOT.
           WILL ROGERS
 Job cpu time:       0 days  0 hours 11 minutes 30.5 seconds.
 File lengths (MBytes):  RWF=     49 Int=      0 D2E=      0 Chk=      7 Scr=      1
 Normal termination of Gaussian 09 at Wed Aug 26 13:28:23 2020.
