 Entering Gaussian System, Link 0=/opt/cluster/programs/g09/g09_d.01/g09//g09
 Input=/home/boittier/MDCM/nms_sampling/acrolein_geom.xyz.dir/energies/acrolein_539_energy.com
 Output=/scratch/boittier/acrolein_539_energy/acrolein_539_energy.out
 Initial command:
 /opt/cluster/programs/g09/g09_d.01/g09/l1.exe "/scratch/boittier/acrolein_539_energy/Gau-128137.inp" -scrdir="/scratch/boittier/acrolein_539_energy/"
 Entering Link 1 = /opt/cluster/programs/g09/g09_d.01/g09/l1.exe PID=    128138.
  
 Copyright (c) 1988,1990,1992,1993,1995,1998,2003,2009,2013,
            Gaussian, Inc.  All Rights Reserved.
  
 This is part of the Gaussian(R) 09 program.  It is based on
 the Gaussian(R) 03 system (copyright 2003, Gaussian, Inc.),
 the Gaussian(R) 98 system (copyright 1998, Gaussian, Inc.),
 the Gaussian(R) 94 system (copyright 1995, Gaussian, Inc.),
 the Gaussian 92(TM) system (copyright 1992, Gaussian, Inc.),
 the Gaussian 90(TM) system (copyright 1990, Gaussian, Inc.),
 the Gaussian 88(TM) system (copyright 1988, Gaussian, Inc.),
 the Gaussian 86(TM) system (copyright 1986, Carnegie Mellon
 University), and the Gaussian 82(TM) system (copyright 1983,
 Carnegie Mellon University). Gaussian is a federally registered
 trademark of Gaussian, Inc.
  
 This software contains proprietary and confidential information,
 including trade secrets, belonging to Gaussian, Inc.
  
 This software is provided under written license and may be
 used, copied, transmitted, or stored only in accord with that
 written license.
  
 The following legend is applicable only to US Government
 contracts under FAR:
  
                    RESTRICTED RIGHTS LEGEND
  
 Use, reproduction and disclosure by the US Government is
 subject to restrictions as set forth in subparagraphs (a)
 and (c) of the Commercial Computer Software - Restricted
 Rights clause in FAR 52.227-19.
  
 Gaussian, Inc.
 340 Quinnipiac St., Bldg. 40, Wallingford CT 06492
  
  
 ---------------------------------------------------------------
 Warning -- This program may not be used in any manner that
 competes with the business of Gaussian, Inc. or will provide
 assistance to any competitor of Gaussian, Inc.  The licensee
 of this program is prohibited from giving any competitor of
 Gaussian, Inc. access to this program.  By using this program,
 the user acknowledges that Gaussian, Inc. is engaged in the
 business of creating and licensing software in the field of
 computational chemistry and represents and warrants to the
 licensee that it is not a competitor of Gaussian, Inc. and that
 it will not use this program in any manner prohibited above.
 ---------------------------------------------------------------
  

 Cite this work as:
 Gaussian 09, Revision D.01,
 M. J. Frisch, G. W. Trucks, H. B. Schlegel, G. E. Scuseria, 
 M. A. Robb, J. R. Cheeseman, G. Scalmani, V. Barone, B. Mennucci, 
 G. A. Petersson, H. Nakatsuji, M. Caricato, X. Li, H. P. Hratchian, 
 A. F. Izmaylov, J. Bloino, G. Zheng, J. L. Sonnenberg, M. Hada, 
 M. Ehara, K. Toyota, R. Fukuda, J. Hasegawa, M. Ishida, T. Nakajima, 
 Y. Honda, O. Kitao, H. Nakai, T. Vreven, J. A. Montgomery, Jr., 
 J. E. Peralta, F. Ogliaro, M. Bearpark, J. J. Heyd, E. Brothers, 
 K. N. Kudin, V. N. Staroverov, T. Keith, R. Kobayashi, J. Normand, 
 K. Raghavachari, A. Rendell, J. C. Burant, S. S. Iyengar, J. Tomasi, 
 M. Cossi, N. Rega, J. M. Millam, M. Klene, J. E. Knox, J. B. Cross, 
 V. Bakken, C. Adamo, J. Jaramillo, R. Gomperts, R. E. Stratmann, 
 O. Yazyev, A. J. Austin, R. Cammi, C. Pomelli, J. W. Ochterski, 
 R. L. Martin, K. Morokuma, V. G. Zakrzewski, G. A. Voth, 
 P. Salvador, J. J. Dannenberg, S. Dapprich, A. D. Daniels, 
 O. Farkas, J. B. Foresman, J. V. Ortiz, J. Cioslowski, 
 and D. J. Fox, Gaussian, Inc., Wallingford CT, 2013.
 
 ******************************************
 Gaussian 09:  ES64L-G09RevD.01 24-Apr-2013
                26-Aug-2020 
 ******************************************
 %chk=/home/boittier/MDCM/nms_sampling/acrolein_geom.xyz.dir/acrolein_539.chk
 %nproc=8
 Will use up to    8 processors via shared memory.
 %mem=16000MB
 --------------------
 #p B2PLYPD3/Def2QZVP
 --------------------
 1/38=1/1;
 2/12=2,17=6,18=5,40=1/2;
 3/5=45,7=101,11=9,16=1,25=1,30=1,74=-60/1,2,3;
 4//1;
 5/5=2,38=5/2;
 8/10=1/1;
 9/16=-3/6;
 6/7=2,8=2,9=2,10=2/1;
 99/5=1,9=1/99;
 Leave Link    1 at Wed Aug 26 16:19:21 2020, MaxMem=  2097152000 cpu:         0.3
 (Enter /opt/cluster/programs/g09/g09_d.01/g09/l101.exe)
 --------
 acrolein
 --------
 Symbolic Z-matrix:
 Charge =  0 Multiplicity = 1
 C                    -5.00018  -1.388     0.91169 
 O                    -3.93416  -0.86313   0.64017 
 C                    -5.18701  -2.82993   1.16427 
 C                    -6.41496  -3.30215   1.38818 
 H                    -4.29435  -3.4613    1.11619 
 H                    -7.3021   -2.64213   1.33338 
 H                    -6.58978  -4.38365   1.58019 
 H                    -5.92305  -0.77394   1.01828 
 
 NAtoms=      8 NQM=        8 NQMF=       0 NMMI=      0 NMMIF=      0
                NMic=       0 NMicF=      0.
                    Isotopes and Nuclear Properties:
 (Nuclear quadrupole moments (NQMom) in fm**2, nuclear magnetic moments (NMagM)
  in nuclear magnetons)

  Atom         1           2           3           4           5           6           7           8
 IAtWgt=          12          16          12          12           1           1           1           1
 AtmWgt=  12.0000000  15.9949146  12.0000000  12.0000000   1.0078250   1.0078250   1.0078250   1.0078250
 NucSpn=           0           0           0           0           1           1           1           1
 AtZEff=   0.0000000   0.0000000   0.0000000   0.0000000   0.0000000   0.0000000   0.0000000   0.0000000
 NQMom=    0.0000000   0.0000000   0.0000000   0.0000000   0.0000000   0.0000000   0.0000000   0.0000000
 NMagM=    0.0000000   0.0000000   0.0000000   0.0000000   2.7928460   2.7928460   2.7928460   2.7928460
 AtZNuc=   6.0000000   8.0000000   6.0000000   6.0000000   1.0000000   1.0000000   1.0000000   1.0000000
 Leave Link  101 at Wed Aug 26 16:19:21 2020, MaxMem=  2097152000 cpu:         0.5
 (Enter /opt/cluster/programs/g09/g09_d.01/g09/l202.exe)
                          Input orientation:                          
 ---------------------------------------------------------------------
 Center     Atomic      Atomic             Coordinates (Angstroms)
 Number     Number       Type             X           Y           Z
 ---------------------------------------------------------------------
      1          6           0       -5.000178   -1.388000    0.911690
      2          8           0       -3.934159   -0.863128    0.640166
      3          6           0       -5.187013   -2.829928    1.164267
      4          6           0       -6.414963   -3.302146    1.388182
      5          1           0       -4.294351   -3.461300    1.116189
      6          1           0       -7.302103   -2.642134    1.333381
      7          1           0       -6.589781   -4.383649    1.580190
      8          1           0       -5.923045   -0.773936    1.018281
 ---------------------------------------------------------------------
                    Distance matrix (angstroms):
                    1          2          3          4          5
     1  C    0.000000
     2  O    1.218857   0.000000
     3  C    1.475757   2.390110   0.000000
     4  C    2.427471   3.558472   1.334537   0.000000
     5  H    2.199678   2.665865   1.094435   2.143900   0.000000
     6  H    2.655096   3.871493   2.130134   1.107085   3.124864
     7  H    3.456536   4.508885   2.134197   1.112240   2.516947
     8  H    1.113607   2.026473   2.188643   2.602048   3.143908
                    6          7          8
     6  H    0.000000
     7  H    1.897681   0.000000
     8  H    2.343342   3.713530   0.000000
 Stoichiometry    C3H4O
 Framework group  C1[X(C3H4O)]
 Deg. of freedom    18
 Full point group                 C1      NOp   1
 Largest Abelian subgroup         C1      NOp   1
 Largest concise Abelian subgroup C1      NOp   1
                         Standard orientation:                         
 ---------------------------------------------------------------------
 Center     Atomic      Atomic             Coordinates (Angstroms)
 Number     Number       Type             X           Y           Z
 ---------------------------------------------------------------------
      1          6           0       -0.668152    0.343972   -0.015758
      2          8           0       -1.796819   -0.114778    0.019933
      3          6           0        0.567481   -0.462910   -0.019015
      4          6           0        1.751613    0.152032    0.006844
      5          1           0        0.449095   -1.550806   -0.003066
      6          1           0        1.824070    1.253871    0.086451
      7          1           0        2.701221   -0.427038    0.006798
      8          1           0       -0.505489    1.443636   -0.082073
 ---------------------------------------------------------------------
 Rotational constants (GHZ):     46.8362416      4.6567007      4.2375793
 Leave Link  202 at Wed Aug 26 16:19:21 2020, MaxMem=  2097152000 cpu:         0.1
 (Enter /opt/cluster/programs/g09/g09_d.01/g09/l301.exe)
 Standard basis: def2QZVP (5D, 7F)
 Ernie: Thresh=  0.10000D-02 Tol=  0.10000D-05 Strict=F.
 There are   428 symmetry adapted cartesian basis functions of A   symmetry.
 There are   348 symmetry adapted basis functions of A   symmetry.
   348 basis functions,   520 primitive gaussians,   428 cartesian basis functions
    15 alpha electrons       15 beta electrons
       nuclear repulsion energy       102.7039709383 Hartrees.
 IExCor=  419 DFT=T Ex+Corr=B2PLYPD3 ExCW=0 ScaHFX=  0.530000
 ScaDFX=  0.470000  0.470000  0.730000  0.730000 ScalE2=  0.270000  0.270000
 IRadAn=      0 IRanWt=     -1 IRanGd=            0 ICorTp=0 IEmpDi=141
 NAtoms=    8 NActive=    8 NUniq=    8 SFac= 1.00D+00 NAtFMM=   60 NAOKFM=F Big=F
 Integral buffers will be    131072 words long.
 Regular integral format.
 Two-electron integral symmetry is turned on.
 R6Disp:  Grimme-D3(BJ) Dispersion energy=       -0.0035802249 Hartrees.
 Nuclear repulsion after empirical dispersion term =      102.7003907134 Hartrees.
 Leave Link  301 at Wed Aug 26 16:19:21 2020, MaxMem=  2097152000 cpu:         0.4
 (Enter /opt/cluster/programs/g09/g09_d.01/g09/l302.exe)
 NPDir=0 NMtPBC=     1 NCelOv=     1 NCel=       1 NClECP=     1 NCelD=      1
         NCelK=      1 NCelE2=     1 NClLst=     1 CellRange=     0.0.
 One-electron integrals computed using PRISM.
   1 Symmetry operations used in ECPInt.
 ECPInt:  NShTT=    5886 NPrTT=   14376 LenC2=    5780 LenP2D=   12174.
 LDataN:  DoStor=T MaxTD1= 8 Len=  415
 NBasis=   348 RedAO= T EigKep=  6.06D-05  NBF=   348
 NBsUse=   348 1.00D-06 EigRej= -1.00D+00 NBFU=   348
 Precomputing XC quadrature grid using
 IXCGrd= 4 IRadAn=           0 IRanWt=          -1 IRanGd=           0 AccXCQ= 0.00D+00.
 Generated NRdTot=       0 NPtTot=           0 NUsed=           0 NTot=          32
 NSgBfM=   428   428   428   428   428 MxSgAt=     8 MxSgA2=     8.
 Leave Link  302 at Wed Aug 26 16:19:21 2020, MaxMem=  2097152000 cpu:         3.0
 (Enter /opt/cluster/programs/g09/g09_d.01/g09/l303.exe)
 DipDrv:  MaxL=1.
 Leave Link  303 at Wed Aug 26 16:19:21 2020, MaxMem=  2097152000 cpu:         0.3
 (Enter /opt/cluster/programs/g09/g09_d.01/g09/l401.exe)
 ExpMin= 7.60D-02 ExpMax= 1.17D+05 ExpMxC= 1.13D+03 IAcc=2 IRadAn=         4 AccDes= 0.00D+00
 Harris functional with IExCor=  419 and IRadAn=       4 diagonalized for initial guess.
 HarFok:  IExCor=  419 AccDes= 0.00D+00 IRadAn=         4 IDoV= 1 UseB2=F ITyADJ=14
 ICtDFT=  3500011 ScaDFX=  1.000000  1.000000  1.000000  1.000000
 FoFCou: FMM=F IPFlag=           0 FMFlag=      100000 FMFlg1=           0
         NFxFlg=           0 DoJE=T BraDBF=F KetDBF=T FulRan=T
         wScrn=  0.000000 ICntrl=     500 IOpCl=  0 I1Cent=   200000004 NGrid=           0
         NMat0=    1 NMatS0=      1 NMatT0=    0 NMatD0=    1 NMtDS0=    0 NMtDT0=    0
 Petite list used in FoFCou.
 Harris En= -192.041051831204    
 JPrj=0 DoOrth=F DoCkMO=F.
 Leave Link  401 at Wed Aug 26 16:19:22 2020, MaxMem=  2097152000 cpu:         6.9
 (Enter /opt/cluster/programs/g09/g09_d.01/g09/l502.exe)
 Closed shell SCF:
 Using DIIS extrapolation, IDIIS=  1040.
 Integral symmetry usage will be decided dynamically.
 Keep R1 ints in memory in canonical form, NReq=1883905047.
 IVT=      574566 IEndB=      574566 NGot=  2097152000 MDV=   252723534
 LenX=   252723534 LenY=   252539909
 Requested convergence on RMS density matrix=1.00D-08 within 128 cycles.
 Requested convergence on MAX density matrix=1.00D-06.
 Requested convergence on             energy=1.00D-06.
 No special actions if energy rises.
 FoFCou: FMM=F IPFlag=           0 FMFlag=           0 FMFlg1=           0
         NFxFlg=           0 DoJE=F BraDBF=F KetDBF=F FulRan=T
         wScrn=  0.000000 ICntrl=     600 IOpCl=  0 I1Cent=           0 NGrid=           0
         NMat0=    1 NMatS0=  60726 NMatT0=    0 NMatD0=    1 NMtDS0=    0 NMtDT0=    0
 Symmetry not used in FoFCou.
 Integral accuracy reduced to 1.0D-05 until final iterations.

 Cycle   1  Pass 0  IDiag  1:
 E= -191.475460581539    
 DIIS: error= 2.71D-02 at cycle   1 NSaved=   1.
 NSaved= 1 IEnMin= 1 EnMin= -191.475460581539     IErMin= 1 ErrMin= 2.71D-02
 ErrMax= 2.71D-02  0.00D+00 EMaxC= 1.00D-01 BMatC= 2.52D-01 BMatP= 2.52D-01
 IDIUse=3 WtCom= 7.29D-01 WtEn= 2.71D-01
 Coeff-Com:  0.100D+01
 Coeff-En:   0.100D+01
 Coeff:      0.100D+01
 Gap=     0.282 Goal=   None    Shift=    0.000
 GapD=    0.282 DampG=1.000 DampE=0.500 DampFc=0.5000 IDamp=-1.
 Damping current iteration by 5.00D-01
 RMSDP=1.82D-03 MaxDP=2.30D-01              OVMax= 1.76D-01

 Cycle   2  Pass 0  IDiag  1:
 E= -191.542228803538     Delta-E=       -0.066768221998 Rises=F Damp=T
 DIIS: error= 1.00D-02 at cycle   2 NSaved=   2.
 NSaved= 2 IEnMin= 2 EnMin= -191.542228803538     IErMin= 2 ErrMin= 1.00D-02
 ErrMax= 1.00D-02  0.00D+00 EMaxC= 1.00D-01 BMatC= 3.37D-02 BMatP= 2.52D-01
 IDIUse=3 WtCom= 9.00D-01 WtEn= 1.00D-01
 Coeff-Com: -0.139D+00 0.114D+01
 Coeff-En:   0.000D+00 0.100D+01
 Coeff:     -0.125D+00 0.113D+01
 Gap=     0.352 Goal=   None    Shift=    0.000
 RMSDP=6.26D-04 MaxDP=7.99D-02 DE=-6.68D-02 OVMax= 1.36D-01

 Cycle   3  Pass 0  IDiag  1:
 E= -191.602181938265     Delta-E=       -0.059953134727 Rises=F Damp=F
 DIIS: error= 1.11D-02 at cycle   3 NSaved=   3.
 NSaved= 3 IEnMin= 3 EnMin= -191.602181938265     IErMin= 2 ErrMin= 1.00D-02
 ErrMax= 1.11D-02  0.00D+00 EMaxC= 1.00D-01 BMatC= 1.77D-02 BMatP= 3.37D-02
 IDIUse=3 WtCom= 8.89D-01 WtEn= 1.11D-01
 Coeff-Com: -0.190D+00 0.524D+00 0.667D+00
 Coeff-En:   0.000D+00 0.000D+00 0.100D+01
 Coeff:     -0.169D+00 0.465D+00 0.704D+00
 Gap=     0.334 Goal=   None    Shift=    0.000
 RMSDP=2.47D-04 MaxDP=1.82D-02 DE=-6.00D-02 OVMax= 4.89D-02

 Cycle   4  Pass 0  IDiag  1:
 E= -191.611947228313     Delta-E=       -0.009765290049 Rises=F Damp=F
 DIIS: error= 4.76D-03 at cycle   4 NSaved=   4.
 NSaved= 4 IEnMin= 4 EnMin= -191.611947228313     IErMin= 4 ErrMin= 4.76D-03
 ErrMax= 4.76D-03  0.00D+00 EMaxC= 1.00D-01 BMatC= 3.32D-03 BMatP= 1.77D-02
 IDIUse=3 WtCom= 9.52D-01 WtEn= 4.76D-02
 Coeff-Com: -0.599D-01 0.982D-01 0.368D+00 0.594D+00
 Coeff-En:   0.000D+00 0.000D+00 0.173D+00 0.827D+00
 Coeff:     -0.571D-01 0.935D-01 0.358D+00 0.605D+00
 Gap=     0.320 Goal=   None    Shift=    0.000
 RMSDP=1.01D-04 MaxDP=8.10D-03 DE=-9.77D-03 OVMax= 1.49D-02

 Cycle   5  Pass 0  IDiag  1:
 E= -191.614634993958     Delta-E=       -0.002687765644 Rises=F Damp=F
 DIIS: error= 3.33D-04 at cycle   5 NSaved=   5.
 NSaved= 5 IEnMin= 5 EnMin= -191.614634993958     IErMin= 5 ErrMin= 3.33D-04
 ErrMax= 3.33D-04  0.00D+00 EMaxC= 1.00D-01 BMatC= 1.23D-05 BMatP= 3.32D-03
 IDIUse=3 WtCom= 9.97D-01 WtEn= 3.33D-03
 Coeff-Com: -0.718D-02 0.870D-02 0.513D-01 0.121D+00 0.827D+00
 Coeff-En:   0.000D+00 0.000D+00 0.000D+00 0.000D+00 0.100D+01
 Coeff:     -0.716D-02 0.867D-02 0.511D-01 0.120D+00 0.827D+00
 Gap=     0.319 Goal=   None    Shift=    0.000
 RMSDP=9.40D-06 MaxDP=7.37D-04 DE=-2.69D-03 OVMax= 2.27D-03

 Initial convergence to 1.0D-05 achieved.  Increase integral accuracy.
 Cycle   6  Pass 1  IDiag  1:
 E= -191.614635632819     Delta-E=       -0.000000638861 Rises=F Damp=F
 DIIS: error= 1.04D-04 at cycle   1 NSaved=   1.
 NSaved= 1 IEnMin= 1 EnMin= -191.614635632819     IErMin= 1 ErrMin= 1.04D-04
 ErrMax= 1.04D-04  0.00D+00 EMaxC= 1.00D-01 BMatC= 1.65D-06 BMatP= 1.65D-06
 IDIUse=3 WtCom= 9.99D-01 WtEn= 1.04D-03
 Coeff-Com:  0.100D+01
 Coeff-En:   0.100D+01
 Coeff:      0.100D+01
 Gap=     0.320 Goal=   None    Shift=    0.000
 RMSDP=9.40D-06 MaxDP=7.37D-04 DE=-6.39D-07 OVMax= 7.68D-04

 Cycle   7  Pass 1  IDiag  1:
 E= -191.614636963778     Delta-E=       -0.000001330959 Rises=F Damp=F
 DIIS: error= 7.12D-05 at cycle   2 NSaved=   2.
 NSaved= 2 IEnMin= 2 EnMin= -191.614636963778     IErMin= 2 ErrMin= 7.12D-05
 ErrMax= 7.12D-05  0.00D+00 EMaxC= 1.00D-01 BMatC= 9.34D-07 BMatP= 1.65D-06
 IDIUse=1 WtCom= 1.00D+00 WtEn= 0.00D+00
 Coeff-Com:  0.421D+00 0.579D+00
 Coeff:      0.421D+00 0.579D+00
 Gap=     0.320 Goal=   None    Shift=    0.000
 RMSDP=1.55D-06 MaxDP=9.24D-05 DE=-1.33D-06 OVMax= 4.04D-04

 Cycle   8  Pass 1  IDiag  1:
 E= -191.614637791713     Delta-E=       -0.000000827935 Rises=F Damp=F
 DIIS: error= 1.58D-05 at cycle   3 NSaved=   3.
 NSaved= 3 IEnMin= 3 EnMin= -191.614637791713     IErMin= 3 ErrMin= 1.58D-05
 ErrMax= 1.58D-05  0.00D+00 EMaxC= 1.00D-01 BMatC= 6.82D-08 BMatP= 9.34D-07
 IDIUse=1 WtCom= 1.00D+00 WtEn= 0.00D+00
 Coeff-Com:  0.488D-01 0.172D+00 0.779D+00
 Coeff:      0.488D-01 0.172D+00 0.779D+00
 Gap=     0.320 Goal=   None    Shift=    0.000
 RMSDP=1.44D-06 MaxDP=1.59D-04 DE=-8.28D-07 OVMax= 1.25D-04

 Cycle   9  Pass 1  IDiag  1:
 E= -191.614637856230     Delta-E=       -0.000000064517 Rises=F Damp=F
 DIIS: error= 1.90D-05 at cycle   4 NSaved=   4.
 NSaved= 4 IEnMin= 4 EnMin= -191.614637856230     IErMin= 3 ErrMin= 1.58D-05
 ErrMax= 1.90D-05  0.00D+00 EMaxC= 1.00D-01 BMatC= 2.41D-08 BMatP= 6.82D-08
 IDIUse=1 WtCom= 1.00D+00 WtEn= 0.00D+00
 Coeff-Com: -0.121D+00-0.101D+00 0.456D+00 0.766D+00
 Coeff:     -0.121D+00-0.101D+00 0.456D+00 0.766D+00
 Gap=     0.320 Goal=   None    Shift=    0.000
 RMSDP=7.19D-07 MaxDP=7.54D-05 DE=-6.45D-08 OVMax= 1.18D-04

 Cycle  10  Pass 1  IDiag  1:
 E= -191.614637888972     Delta-E=       -0.000000032742 Rises=F Damp=F
 DIIS: error= 1.69D-06 at cycle   5 NSaved=   5.
 NSaved= 5 IEnMin= 5 EnMin= -191.614637888972     IErMin= 5 ErrMin= 1.69D-06
 ErrMax= 1.69D-06  0.00D+00 EMaxC= 1.00D-01 BMatC= 9.59D-10 BMatP= 2.41D-08
 IDIUse=1 WtCom= 1.00D+00 WtEn= 0.00D+00
 Coeff-Com: -0.248D-01-0.287D-01 0.243D-01 0.195D+00 0.834D+00
 Coeff:     -0.248D-01-0.287D-01 0.243D-01 0.195D+00 0.834D+00
 Gap=     0.320 Goal=   None    Shift=    0.000
 RMSDP=1.50D-07 MaxDP=1.76D-05 DE=-3.27D-08 OVMax= 1.38D-05

 Cycle  11  Pass 1  IDiag  1:
 E= -191.614637889902     Delta-E=       -0.000000000930 Rises=F Damp=F
 DIIS: error= 6.80D-07 at cycle   6 NSaved=   6.
 NSaved= 6 IEnMin= 6 EnMin= -191.614637889902     IErMin= 6 ErrMin= 6.80D-07
 ErrMax= 6.80D-07  0.00D+00 EMaxC= 1.00D-01 BMatC= 1.02D-10 BMatP= 9.59D-10
 IDIUse=1 WtCom= 1.00D+00 WtEn= 0.00D+00
 Coeff-Com:  0.103D-01 0.585D-02-0.670D-01-0.301D-01 0.227D+00 0.853D+00
 Coeff:      0.103D-01 0.585D-02-0.670D-01-0.301D-01 0.227D+00 0.853D+00
 Gap=     0.320 Goal=   None    Shift=    0.000
 RMSDP=3.35D-08 MaxDP=1.93D-06 DE=-9.30D-10 OVMax= 4.89D-06

 Cycle  12  Pass 1  IDiag  1:
 E= -191.614637890029     Delta-E=       -0.000000000127 Rises=F Damp=F
 DIIS: error= 1.11D-07 at cycle   7 NSaved=   7.
 NSaved= 7 IEnMin= 7 EnMin= -191.614637890029     IErMin= 7 ErrMin= 1.11D-07
 ErrMax= 1.11D-07  0.00D+00 EMaxC= 1.00D-01 BMatC= 3.16D-12 BMatP= 1.02D-10
 IDIUse=1 WtCom= 1.00D+00 WtEn= 0.00D+00
 Coeff-Com:  0.218D-02 0.167D-02-0.972D-02-0.934D-02-0.171D-01 0.850D-01
 Coeff-Com:  0.947D+00
 Coeff:      0.218D-02 0.167D-02-0.972D-02-0.934D-02-0.171D-01 0.850D-01
 Coeff:      0.947D+00
 Gap=     0.320 Goal=   None    Shift=    0.000
 RMSDP=6.09D-09 MaxDP=3.65D-07 DE=-1.27D-10 OVMax= 1.31D-06

 SCF Done:  E(RB2PLYPD3) =  -191.614637890     A.U. after   12 cycles
            NFock= 12  Conv=0.61D-08     -V/T= 2.0041
 KE= 1.908293565675D+02 PE=-6.533381584452D+02 EE= 1.681937732743D+02
 Leave Link  502 at Wed Aug 26 16:20:24 2020, MaxMem=  2097152000 cpu:       270.6
 (Enter /opt/cluster/programs/g09/g09_d.01/g09/l801.exe)
 DoSCS=T DFT=T ScalE2(SS,OS)=  0.270000  0.270000
 ExpMin= 7.60D-02 ExpMax= 1.17D+05 ExpMxC= 1.13D+03 IAcc=3 IRadAn=         5 AccDes= 0.00D+00
 HarFok:  IExCor=  205 AccDes= 0.00D+00 IRadAn=         5 IDoV=-2 UseB2=F ITyADJ=14
 ICtDFT= 12500011 ScaDFX=  1.000000  1.000000  1.000000  1.000000
 Largest valence mixing into a core orbital is  1.16D-04
 Largest core mixing into a valence orbital is  1.93D-05
 Range of M.O.s used for correlation:     5   348
 NBasis=   348 NAE=    15 NBE=    15 NFC=     4 NFV=     0
 NROrb=    344 NOA=    11 NOB=    11 NVA=   333 NVB=   333

 **** Warning!!: The largest alpha MO coefficient is  0.30460369D+02

 Leave Link  801 at Wed Aug 26 16:20:25 2020, MaxMem=  2097152000 cpu:         0.9
 (Enter /opt/cluster/programs/g09/g09_d.01/g09/l906.exe)
 DoSCS=T DFT=T ScalE2(SS,OS)=  0.270000  0.270000
 FulOut=F Deriv=F AODrv=F NAtomX=     8
   MMem=        1190  MDisk=          11 MDiskD=          11
  W3Min=     1567764 MinDsk=     2827057 NBas6D=         428
 NBas2D=       93150    NTT=       91806    LW2=     4508827
    MDV=  2096571620 MDiskM=       10875 NBas2p=       89354
 Fully direct method using O(OVN) memory.
 IMap=   1   2   3   4   5   6   7   8   9  10  11
 JobTyp=1 Pass  1:  I=   1 to  11 NPSUse=  8 ParTrn=T ParDer=T DoDerP=F.
 Spin components of T(2) and E(2):
     alpha-alpha T2 =       0.4429250571D-01 E2=     -0.2957672296D-01
     alpha-beta  T2 =       0.2704152503D+00 E2=     -0.1888901186D+00
     beta-beta   T2 =       0.4429250571D-01 E2=     -0.2957672296D-01
 The integrals were generated   1 times.
 E2(B2PLYPD3) =    -0.2480435645D+00 E(B2PLYPD3) =    -0.19186268145455D+03
 Leave Link  906 at Wed Aug 26 16:21:25 2020, MaxMem=  2097152000 cpu:       483.9
 (Enter /opt/cluster/programs/g09/g09_d.01/g09/l601.exe)
 Copying SCF densities to generalized density rwf, IOpCl= 0 IROHF=0.

 **********************************************************************

            Population analysis using the SCF density.

 **********************************************************************

 Orbital symmetries:
       Occupied  (A) (A) (A) (A) (A) (A) (A) (A) (A) (A) (A) (A)
                 (A) (A) (A)
       Virtual   (A) (A) (A) (A) (A) (A) (A) (A) (A) (A) (A) (A)
                 (A) (A) (A) (A) (A) (A) (A) (A) (A) (A) (A) (A)
                 (A) (A) (A) (A) (A) (A) (A) (A) (A) (A) (A) (A)
                 (A) (A) (A) (A) (A) (A) (A) (A) (A) (A) (A) (A)
                 (A) (A) (A) (A) (A) (A) (A) (A) (A) (A) (A) (A)
                 (A) (A) (A) (A) (A) (A) (A) (A) (A) (A) (A) (A)
                 (A) (A) (A) (A) (A) (A) (A) (A) (A) (A) (A) (A)
                 (A) (A) (A) (A) (A) (A) (A) (A) (A) (A) (A) (A)
                 (A) (A) (A) (A) (A) (A) (A) (A) (A) (A) (A) (A)
                 (A) (A) (A) (A) (A) (A) (A) (A) (A) (A) (A) (A)
                 (A) (A) (A) (A) (A) (A) (A) (A) (A) (A) (A) (A)
                 (A) (A) (A) (A) (A) (A) (A) (A) (A) (A) (A) (A)
                 (A) (A) (A) (A) (A) (A) (A) (A) (A) (A) (A) (A)
                 (A) (A) (A) (A) (A) (A) (A) (A) (A) (A) (A) (A)
                 (A) (A) (A) (A) (A) (A) (A) (A) (A) (A) (A) (A)
                 (A) (A) (A) (A) (A) (A) (A) (A) (A) (A) (A) (A)
                 (A) (A) (A) (A) (A) (A) (A) (A) (A) (A) (A) (A)
                 (A) (A) (A) (A) (A) (A) (A) (A) (A) (A) (A) (A)
                 (A) (A) (A) (A) (A) (A) (A) (A) (A) (A) (A) (A)
                 (A) (A) (A) (A) (A) (A) (A) (A) (A) (A) (A) (A)
                 (A) (A) (A) (A) (A) (A) (A) (A) (A) (A) (A) (A)
                 (A) (A) (A) (A) (A) (A) (A) (A) (A) (A) (A) (A)
                 (A) (A) (A) (A) (A) (A) (A) (A) (A) (A) (A) (A)
                 (A) (A) (A) (A) (A) (A) (A) (A) (A) (A) (A) (A)
                 (A) (A) (A) (A) (A) (A) (A) (A) (A) (A) (A) (A)
                 (A) (A) (A) (A) (A) (A) (A) (A) (A) (A) (A) (A)
                 (A) (A) (A) (A) (A) (A) (A) (A) (A) (A) (A) (A)
                 (A) (A) (A) (A) (A) (A) (A) (A) (A)
 The electronic state is 1-A.
 Alpha  occ. eigenvalues --  -19.72843 -10.71804 -10.66141 -10.64749  -1.19005
 Alpha  occ. eigenvalues --   -0.92894  -0.74974  -0.66693  -0.56135  -0.56052
 Alpha  occ. eigenvalues --   -0.50304  -0.46745  -0.46441  -0.34711  -0.33818
 Alpha virt. eigenvalues --   -0.01818   0.05626   0.06981   0.07966   0.09691
 Alpha virt. eigenvalues --    0.12457   0.13878   0.15327   0.17388   0.19492
 Alpha virt. eigenvalues --    0.20099   0.21334   0.25257   0.26461   0.28779
 Alpha virt. eigenvalues --    0.31235   0.33290   0.35399   0.37148   0.38253
 Alpha virt. eigenvalues --    0.39497   0.41245   0.42771   0.44381   0.46032
 Alpha virt. eigenvalues --    0.46658   0.48900   0.52841   0.54170   0.57131
 Alpha virt. eigenvalues --    0.57837   0.64259   0.65886   0.67347   0.70804
 Alpha virt. eigenvalues --    0.74832   0.76618   0.78137   0.79341   0.80813
 Alpha virt. eigenvalues --    0.81339   0.82112   0.82610   0.84194   0.86082
 Alpha virt. eigenvalues --    0.87953   0.91545   0.92114   0.93496   0.95774
 Alpha virt. eigenvalues --    0.96321   0.97230   1.00584   1.02135   1.07214
 Alpha virt. eigenvalues --    1.09691   1.11980   1.15443   1.16286   1.18029
 Alpha virt. eigenvalues --    1.19520   1.25508   1.28189   1.33723   1.37478
 Alpha virt. eigenvalues --    1.43271   1.47236   1.47820   1.54955   1.56690
 Alpha virt. eigenvalues --    1.61691   1.61956   1.64170   1.66817   1.68696
 Alpha virt. eigenvalues --    1.74048   1.76666   1.77370   1.82117   1.83371
 Alpha virt. eigenvalues --    1.86447   1.89118   1.90937   1.94316   1.94477
 Alpha virt. eigenvalues --    1.96121   1.98299   2.00119   2.02321   2.02752
 Alpha virt. eigenvalues --    2.06186   2.09563   2.11760   2.13389   2.14373
 Alpha virt. eigenvalues --    2.15910   2.17896   2.19805   2.23172   2.25304
 Alpha virt. eigenvalues --    2.29504   2.34865   2.36821   2.38938   2.42281
 Alpha virt. eigenvalues --    2.45072   2.46025   2.47261   2.49391   2.53245
 Alpha virt. eigenvalues --    2.54296   2.57642   2.58473   2.60005   2.62846
 Alpha virt. eigenvalues --    2.64373   2.66228   2.67466   2.68289   2.73971
 Alpha virt. eigenvalues --    2.75264   2.77478   2.84718   2.85920   2.86148
 Alpha virt. eigenvalues --    2.88010   2.94780   2.97641   2.99882   3.03926
 Alpha virt. eigenvalues --    3.15964   3.16751   3.27694   3.29212   3.30606
 Alpha virt. eigenvalues --    3.32921   3.38053   3.40558   3.42434   3.46041
 Alpha virt. eigenvalues --    3.47657   3.53063   3.57743   3.61054   3.62012
 Alpha virt. eigenvalues --    3.65156   3.71939   3.75740   3.77419   3.89028
 Alpha virt. eigenvalues --    3.90041   3.98054   4.00911   4.01748   4.04390
 Alpha virt. eigenvalues --    4.08680   4.17943   4.18915   4.24562   4.31486
 Alpha virt. eigenvalues --    4.39395   4.41741   4.52911   4.60140   4.62550
 Alpha virt. eigenvalues --    4.66542   4.81252   4.88093   4.90408   4.97838
 Alpha virt. eigenvalues --    5.02349   5.05313   5.07872   5.08954   5.11339
 Alpha virt. eigenvalues --    5.20620   5.26217   5.30668   5.33468   5.41144
 Alpha virt. eigenvalues --    5.46120   5.52779   5.55239   5.58089   5.59355
 Alpha virt. eigenvalues --    5.65387   5.68498   5.71495   5.74367   5.76786
 Alpha virt. eigenvalues --    5.79132   5.81759   5.85483   5.89977   5.92943
 Alpha virt. eigenvalues --    5.94423   5.96170   5.99914   6.04275   6.06983
 Alpha virt. eigenvalues --    6.08054   6.13464   6.14462   6.17336   6.19040
 Alpha virt. eigenvalues --    6.19388   6.20587   6.25266   6.27068   6.28176
 Alpha virt. eigenvalues --    6.30446   6.33416   6.35867   6.38988   6.42640
 Alpha virt. eigenvalues --    6.43858   6.47873   6.49855   6.51366   6.56917
 Alpha virt. eigenvalues --    6.57932   6.60645   6.65323   6.71439   6.75450
 Alpha virt. eigenvalues --    6.79889   6.81429   6.90048   6.93443   6.96425
 Alpha virt. eigenvalues --    7.02347   7.06887   7.10012   7.16157   7.24778
 Alpha virt. eigenvalues --    7.28994   7.33377   7.40464   7.46903   7.47693
 Alpha virt. eigenvalues --    7.52361   7.56169   7.57944   7.61148   7.63032
 Alpha virt. eigenvalues --    7.65550   7.68972   7.70232   7.72169   7.75574
 Alpha virt. eigenvalues --    7.81906   7.84424   7.89636   8.01648   8.02959
 Alpha virt. eigenvalues --    8.08017   8.08741   8.11673   8.14463   8.15455
 Alpha virt. eigenvalues --    8.19080   8.24448   8.25848   8.29774   8.33216
 Alpha virt. eigenvalues --    8.33840   8.35063   8.38877   8.47427   8.51015
 Alpha virt. eigenvalues --    8.51845   8.55840   8.60829   8.61785   8.68455
 Alpha virt. eigenvalues --    8.76439   8.84212   8.86112   8.92863   9.05184
 Alpha virt. eigenvalues --    9.07693   9.08820   9.13835   9.21897   9.26702
 Alpha virt. eigenvalues --    9.32471   9.33917   9.52268   9.66753   9.70476
 Alpha virt. eigenvalues --    9.75163   9.80639   9.84879   9.86128   9.88034
 Alpha virt. eigenvalues --    9.89242   9.90976  10.14487  10.17386  10.19321
 Alpha virt. eigenvalues --   10.22082  10.26304  10.50564  10.66893  10.76670
 Alpha virt. eigenvalues --   10.99063  11.20053  11.25047  11.27796  11.43269
 Alpha virt. eigenvalues --   11.65222  11.75875  11.90192  12.03764  12.08058
 Alpha virt. eigenvalues --   12.32656  12.35583  12.46365  12.55324  12.90319
 Alpha virt. eigenvalues --   12.98630  13.33612  13.72841  14.36437  14.65929
 Alpha virt. eigenvalues --   28.54614  28.83918  29.45671  48.64451 148.12492
 Alpha virt. eigenvalues --  148.38895 149.04418 254.40349
          Condensed to atoms (all electrons):
               1          2          3          4          5          6
     1  C    4.499290   0.620123   0.369005  -0.056936  -0.029306  -0.004725
     2  O    0.620123   7.885000  -0.088973   0.006427   0.006002   0.000435
     3  C    0.369005  -0.088973   5.158571   0.479633   0.366950  -0.049020
     4  C   -0.056936   0.006427   0.479633   4.878694  -0.036222   0.422093
     5  H   -0.029306   0.006002   0.366950  -0.036222   0.578028   0.005124
     6  H   -0.004725   0.000435  -0.049020   0.422093   0.005124   0.572741
     7  H    0.002767  -0.000565  -0.031796   0.410490  -0.005036  -0.039601
     8  H    0.442250  -0.076375  -0.163680   0.023519   0.008336   0.006698
               7          8
     1  C    0.002767   0.442250
     2  O   -0.000565  -0.076375
     3  C   -0.031796  -0.163680
     4  C    0.410490   0.023519
     5  H   -0.005036   0.008336
     6  H   -0.039601   0.006698
     7  H    0.563526  -0.000776
     8  H   -0.000776   0.690465
 Mulliken charges:
               1
     1  C    0.157531
     2  O   -0.352075
     3  C   -0.040691
     4  C   -0.127698
     5  H    0.106124
     6  H    0.086255
     7  H    0.100991
     8  H    0.069563
 Sum of Mulliken charges =   0.00000
 Mulliken charges with hydrogens summed into heavy atoms:
               1
     1  C    0.227095
     2  O   -0.352075
     3  C    0.065433
     4  C    0.059547
 Electronic spatial extent (au):  <R**2>=            299.8743
 Charge=              0.0000 electrons
 Dipole moment (field-independent basis, Debye):
    X=              3.5349    Y=              0.7274    Z=             -0.0133  Tot=              3.6090
 Quadrupole moment (field-independent basis, Debye-Ang):
   XX=            -27.6372   YY=            -21.6765   ZZ=            -25.3258
   XY=             -0.8812   XZ=              0.2577   YZ=              0.0680
 Traceless Quadrupole moment (field-independent basis, Debye-Ang):
   XX=             -2.7573   YY=              3.2033   ZZ=             -0.4460
   XY=             -0.8812   XZ=              0.2577   YZ=              0.0680
 Octapole moment (field-independent basis, Debye-Ang**2):
  XXX=             15.0300  YYY=             -0.0817  ZZZ=              0.1525  XYY=             -0.1498
  XXY=              0.5937  XXZ=              0.0904  XZZ=             -4.4147  YZZ=              0.1642
  YYZ=              0.1252  XYZ=              0.2003
 Hexadecapole moment (field-independent basis, Debye-Ang**3):
 XXXX=           -304.8885 YYYY=            -56.0183 ZZZZ=            -27.6081 XXXY=             -3.4120
 XXXZ=              0.7260 YYYX=              0.4549 YYYZ=              0.0816 ZZZX=              0.0792
 ZZZY=              0.0554 XXYY=            -58.7858 XXZZ=            -57.8487 YYZZ=            -15.8205
 XXYZ=              0.4248 YYXZ=              0.3811 ZZXY=              0.3681
 N-N= 1.027003907134D+02 E-N=-6.533381661261D+02  KE= 1.908293565675D+02
 Leave Link  601 at Wed Aug 26 16:21:25 2020, MaxMem=  2097152000 cpu:         0.6
 (Enter /opt/cluster/programs/g09/g09_d.01/g09/l9999.exe)
 1\1\GINC-NODE15\SP\RB2PLYPD3-FC\def2QZVP\C3H4O1\BOITTIER\26-Aug-2020\0
 \\#p B2PLYPD3/Def2QZVP\\acrolein\\0,1\C,0,-5.000178,-1.388,0.91169\O,0
 ,-3.934159,-0.863128,0.640166\C,0,-5.187013,-2.829928,1.164267\C,0,-6.
 414963,-3.302146,1.388182\H,0,-4.294351,-3.4613,1.116189\H,0,-7.302103
 ,-2.642134,1.333381\H,0,-6.589781,-4.383649,1.58019\H,0,-5.923045,-0.7
 73936,1.018281\\Version=ES64L-G09RevD.01\State=1-A\HF=-191.6146379\MP2
 =-191.8626815\RMSD=6.087e-09\PG=C01 [X(C3H4O1)]\\@


 COLLEGE PROFESSOR: SOMEONE WHO TALKS IN OTHER PEOPLE'S SLEEP.
 Job cpu time:       0 days  0 hours 12 minutes 47.9 seconds.
 File lengths (MBytes):  RWF=     49 Int=      0 D2E=      0 Chk=      7 Scr=      1
 Normal termination of Gaussian 09 at Wed Aug 26 16:21:26 2020.
