 Entering Gaussian System, Link 0=/opt/cluster/programs/g09/g09_d.01/g09//g09
 Input=/home/boittier/MDCM/nms_sampling/acrolein_geom.xyz.dir/energies/acrolein_721_energy.com
 Output=/scratch/boittier/acrolein_721_energy/acrolein_721_energy.out
 Initial command:
 /opt/cluster/programs/g09/g09_d.01/g09/l1.exe "/scratch/boittier/acrolein_721_energy/Gau-123604.inp" -scrdir="/scratch/boittier/acrolein_721_energy/"
 Entering Link 1 = /opt/cluster/programs/g09/g09_d.01/g09/l1.exe PID=    123605.
  
 Copyright (c) 1988,1990,1992,1993,1995,1998,2003,2009,2013,
            Gaussian, Inc.  All Rights Reserved.
  
 This is part of the Gaussian(R) 09 program.  It is based on
 the Gaussian(R) 03 system (copyright 2003, Gaussian, Inc.),
 the Gaussian(R) 98 system (copyright 1998, Gaussian, Inc.),
 the Gaussian(R) 94 system (copyright 1995, Gaussian, Inc.),
 the Gaussian 92(TM) system (copyright 1992, Gaussian, Inc.),
 the Gaussian 90(TM) system (copyright 1990, Gaussian, Inc.),
 the Gaussian 88(TM) system (copyright 1988, Gaussian, Inc.),
 the Gaussian 86(TM) system (copyright 1986, Carnegie Mellon
 University), and the Gaussian 82(TM) system (copyright 1983,
 Carnegie Mellon University). Gaussian is a federally registered
 trademark of Gaussian, Inc.
  
 This software contains proprietary and confidential information,
 including trade secrets, belonging to Gaussian, Inc.
  
 This software is provided under written license and may be
 used, copied, transmitted, or stored only in accord with that
 written license.
  
 The following legend is applicable only to US Government
 contracts under FAR:
  
                    RESTRICTED RIGHTS LEGEND
  
 Use, reproduction and disclosure by the US Government is
 subject to restrictions as set forth in subparagraphs (a)
 and (c) of the Commercial Computer Software - Restricted
 Rights clause in FAR 52.227-19.
  
 Gaussian, Inc.
 340 Quinnipiac St., Bldg. 40, Wallingford CT 06492
  
  
 ---------------------------------------------------------------
 Warning -- This program may not be used in any manner that
 competes with the business of Gaussian, Inc. or will provide
 assistance to any competitor of Gaussian, Inc.  The licensee
 of this program is prohibited from giving any competitor of
 Gaussian, Inc. access to this program.  By using this program,
 the user acknowledges that Gaussian, Inc. is engaged in the
 business of creating and licensing software in the field of
 computational chemistry and represents and warrants to the
 licensee that it is not a competitor of Gaussian, Inc. and that
 it will not use this program in any manner prohibited above.
 ---------------------------------------------------------------
  

 Cite this work as:
 Gaussian 09, Revision D.01,
 M. J. Frisch, G. W. Trucks, H. B. Schlegel, G. E. Scuseria, 
 M. A. Robb, J. R. Cheeseman, G. Scalmani, V. Barone, B. Mennucci, 
 G. A. Petersson, H. Nakatsuji, M. Caricato, X. Li, H. P. Hratchian, 
 A. F. Izmaylov, J. Bloino, G. Zheng, J. L. Sonnenberg, M. Hada, 
 M. Ehara, K. Toyota, R. Fukuda, J. Hasegawa, M. Ishida, T. Nakajima, 
 Y. Honda, O. Kitao, H. Nakai, T. Vreven, J. A. Montgomery, Jr., 
 J. E. Peralta, F. Ogliaro, M. Bearpark, J. J. Heyd, E. Brothers, 
 K. N. Kudin, V. N. Staroverov, T. Keith, R. Kobayashi, J. Normand, 
 K. Raghavachari, A. Rendell, J. C. Burant, S. S. Iyengar, J. Tomasi, 
 M. Cossi, N. Rega, J. M. Millam, M. Klene, J. E. Knox, J. B. Cross, 
 V. Bakken, C. Adamo, J. Jaramillo, R. Gomperts, R. E. Stratmann, 
 O. Yazyev, A. J. Austin, R. Cammi, C. Pomelli, J. W. Ochterski, 
 R. L. Martin, K. Morokuma, V. G. Zakrzewski, G. A. Voth, 
 P. Salvador, J. J. Dannenberg, S. Dapprich, A. D. Daniels, 
 O. Farkas, J. B. Foresman, J. V. Ortiz, J. Cioslowski, 
 and D. J. Fox, Gaussian, Inc., Wallingford CT, 2013.
 
 ******************************************
 Gaussian 09:  ES64L-G09RevD.01 24-Apr-2013
                26-Aug-2020 
 ******************************************
 %chk=/home/boittier/MDCM/nms_sampling/acrolein_geom.xyz.dir/acrolein_721.chk
 %nproc=8
 Will use up to    8 processors via shared memory.
 %mem=16000MB
 --------------------
 #p B2PLYPD3/Def2QZVP
 --------------------
 1/38=1/1;
 2/12=2,17=6,18=5,40=1/2;
 3/5=45,7=101,11=9,16=1,25=1,30=1,74=-60/1,2,3;
 4//1;
 5/5=2,38=5/2;
 8/10=1/1;
 9/16=-3/6;
 6/7=2,8=2,9=2,10=2/1;
 99/5=1,9=1/99;
 Leave Link    1 at Wed Aug 26 19:04:03 2020, MaxMem=  2097152000 cpu:         0.3
 (Enter /opt/cluster/programs/g09/g09_d.01/g09/l101.exe)
 --------
 acrolein
 --------
 Symbolic Z-matrix:
 Charge =  0 Multiplicity = 1
 C                    -5.00575  -1.39338   0.8798 
 O                    -3.9432   -0.86085   0.6726 
 C                    -5.18663  -2.82342   1.13763 
 C                    -6.39667  -3.31096   1.40655 
 H                    -4.28913  -3.44735   1.06929 
 H                    -7.31904  -2.66129   1.50952 
 H                    -6.57045  -4.3348    1.59947 
 H                    -5.94286  -0.77061   0.83469 
 
 NAtoms=      8 NQM=        8 NQMF=       0 NMMI=      0 NMMIF=      0
                NMic=       0 NMicF=      0.
                    Isotopes and Nuclear Properties:
 (Nuclear quadrupole moments (NQMom) in fm**2, nuclear magnetic moments (NMagM)
  in nuclear magnetons)

  Atom         1           2           3           4           5           6           7           8
 IAtWgt=          12          16          12          12           1           1           1           1
 AtmWgt=  12.0000000  15.9949146  12.0000000  12.0000000   1.0078250   1.0078250   1.0078250   1.0078250
 NucSpn=           0           0           0           0           1           1           1           1
 AtZEff=   0.0000000   0.0000000   0.0000000   0.0000000   0.0000000   0.0000000   0.0000000   0.0000000
 NQMom=    0.0000000   0.0000000   0.0000000   0.0000000   0.0000000   0.0000000   0.0000000   0.0000000
 NMagM=    0.0000000   0.0000000   0.0000000   0.0000000   2.7928460   2.7928460   2.7928460   2.7928460
 AtZNuc=   6.0000000   8.0000000   6.0000000   6.0000000   1.0000000   1.0000000   1.0000000   1.0000000
 Leave Link  101 at Wed Aug 26 19:04:03 2020, MaxMem=  2097152000 cpu:         0.5
 (Enter /opt/cluster/programs/g09/g09_d.01/g09/l202.exe)
                          Input orientation:                          
 ---------------------------------------------------------------------
 Center     Atomic      Atomic             Coordinates (Angstroms)
 Number     Number       Type             X           Y           Z
 ---------------------------------------------------------------------
      1          6           0       -5.005755   -1.393376    0.879803
      2          8           0       -3.943200   -0.860845    0.672595
      3          6           0       -5.186626   -2.823422    1.137635
      4          6           0       -6.396672   -3.310956    1.406545
      5          1           0       -4.289125   -3.447348    1.069287
      6          1           0       -7.319039   -2.661289    1.509518
      7          1           0       -6.570453   -4.334801    1.599471
      8          1           0       -5.942858   -0.770614    0.834686
 ---------------------------------------------------------------------
                    Distance matrix (angstroms):
                    1          2          3          4          5
     1  C    0.000000
     2  O    1.206461   0.000000
     3  C    1.464317   2.369405   0.000000
     4  C    2.426772   3.544186   1.331996   0.000000
     5  H    2.183635   2.639513   1.095200   2.138715   0.000000
     6  H    2.712089   3.916418   2.170661   1.132886   3.161024
     7  H    3.408546   4.453081   2.100604   1.056257   2.504621
     8  H    1.126068   2.008245   2.208548   2.643162   3.155119
                    6          7          8
     6  H    0.000000
     7  H    1.835515   0.000000
     8  H    2.433911   3.698946   0.000000
 Stoichiometry    C3H4O
 Framework group  C1[X(C3H4O)]
 Deg. of freedom    18
 Full point group                 C1      NOp   1
 Largest Abelian subgroup         C1      NOp   1
 Largest concise Abelian subgroup C1      NOp   1
                         Standard orientation:                         
 ---------------------------------------------------------------------
 Center     Atomic      Atomic             Coordinates (Angstroms)
 Number     Number       Type             X           Y           Z
 ---------------------------------------------------------------------
      1          6           0       -0.667871    0.341762    0.013169
      2          8           0       -1.785117   -0.112388   -0.019317
      3          6           0        0.558791   -0.457928    0.008561
      4          6           0        1.750220    0.137492   -0.005055
      5          1           0        0.430852   -1.545080    0.043120
      6          1           0        1.882365    1.260538   -0.073874
      7          1           0        2.658555   -0.401564   -0.010138
      8          1           0       -0.537672    1.457253    0.095382
 ---------------------------------------------------------------------
 Rotational constants (GHZ):     47.3559791      4.6931920      4.2718522
 Leave Link  202 at Wed Aug 26 19:04:03 2020, MaxMem=  2097152000 cpu:         0.0
 (Enter /opt/cluster/programs/g09/g09_d.01/g09/l301.exe)
 Standard basis: def2QZVP (5D, 7F)
 Ernie: Thresh=  0.10000D-02 Tol=  0.10000D-05 Strict=F.
 There are   428 symmetry adapted cartesian basis functions of A   symmetry.
 There are   348 symmetry adapted basis functions of A   symmetry.
   348 basis functions,   520 primitive gaussians,   428 cartesian basis functions
    15 alpha electrons       15 beta electrons
       nuclear repulsion energy       103.2225360462 Hartrees.
 IExCor=  419 DFT=T Ex+Corr=B2PLYPD3 ExCW=0 ScaHFX=  0.530000
 ScaDFX=  0.470000  0.470000  0.730000  0.730000 ScalE2=  0.270000  0.270000
 IRadAn=      0 IRanWt=     -1 IRanGd=            0 ICorTp=0 IEmpDi=141
 NAtoms=    8 NActive=    8 NUniq=    8 SFac= 1.00D+00 NAtFMM=   60 NAOKFM=F Big=F
 Integral buffers will be    131072 words long.
 Regular integral format.
 Two-electron integral symmetry is turned on.
 R6Disp:  Grimme-D3(BJ) Dispersion energy=       -0.0035800502 Hartrees.
 Nuclear repulsion after empirical dispersion term =      103.2189559960 Hartrees.
 Leave Link  301 at Wed Aug 26 19:04:03 2020, MaxMem=  2097152000 cpu:         0.4
 (Enter /opt/cluster/programs/g09/g09_d.01/g09/l302.exe)
 NPDir=0 NMtPBC=     1 NCelOv=     1 NCel=       1 NClECP=     1 NCelD=      1
         NCelK=      1 NCelE2=     1 NClLst=     1 CellRange=     0.0.
 One-electron integrals computed using PRISM.
   1 Symmetry operations used in ECPInt.
 ECPInt:  NShTT=    5886 NPrTT=   14376 LenC2=    5781 LenP2D=   12177.
 LDataN:  DoStor=T MaxTD1= 8 Len=  415
 NBasis=   348 RedAO= T EigKep=  5.91D-05  NBF=   348
 NBsUse=   348 1.00D-06 EigRej= -1.00D+00 NBFU=   348
 Precomputing XC quadrature grid using
 IXCGrd= 4 IRadAn=           0 IRanWt=          -1 IRanGd=           0 AccXCQ= 0.00D+00.
 Generated NRdTot=       0 NPtTot=           0 NUsed=           0 NTot=          32
 NSgBfM=   428   428   428   428   428 MxSgAt=     8 MxSgA2=     8.
 Leave Link  302 at Wed Aug 26 19:04:04 2020, MaxMem=  2097152000 cpu:         3.0
 (Enter /opt/cluster/programs/g09/g09_d.01/g09/l303.exe)
 DipDrv:  MaxL=1.
 Leave Link  303 at Wed Aug 26 19:04:04 2020, MaxMem=  2097152000 cpu:         0.3
 (Enter /opt/cluster/programs/g09/g09_d.01/g09/l401.exe)
 ExpMin= 7.60D-02 ExpMax= 1.17D+05 ExpMxC= 1.13D+03 IAcc=2 IRadAn=         4 AccDes= 0.00D+00
 Harris functional with IExCor=  419 and IRadAn=       4 diagonalized for initial guess.
 HarFok:  IExCor=  419 AccDes= 0.00D+00 IRadAn=         4 IDoV= 1 UseB2=F ITyADJ=14
 ICtDFT=  3500011 ScaDFX=  1.000000  1.000000  1.000000  1.000000
 FoFCou: FMM=F IPFlag=           0 FMFlag=      100000 FMFlg1=           0
         NFxFlg=           0 DoJE=T BraDBF=F KetDBF=T FulRan=T
         wScrn=  0.000000 ICntrl=     500 IOpCl=  0 I1Cent=   200000004 NGrid=           0
         NMat0=    1 NMatS0=      1 NMatT0=    0 NMatD0=    1 NMtDS0=    0 NMtDT0=    0
 Petite list used in FoFCou.
 Harris En= -192.042838493726    
 JPrj=0 DoOrth=F DoCkMO=F.
 Leave Link  401 at Wed Aug 26 19:04:05 2020, MaxMem=  2097152000 cpu:         6.9
 (Enter /opt/cluster/programs/g09/g09_d.01/g09/l502.exe)
 Closed shell SCF:
 Using DIIS extrapolation, IDIIS=  1040.
 Integral symmetry usage will be decided dynamically.
 Keep R1 ints in memory in canonical form, NReq=1883905047.
 IVT=      574566 IEndB=      574566 NGot=  2097152000 MDV=   252723534
 LenX=   252723534 LenY=   252539909
 Requested convergence on RMS density matrix=1.00D-08 within 128 cycles.
 Requested convergence on MAX density matrix=1.00D-06.
 Requested convergence on             energy=1.00D-06.
 No special actions if energy rises.
 FoFCou: FMM=F IPFlag=           0 FMFlag=           0 FMFlg1=           0
         NFxFlg=           0 DoJE=F BraDBF=F KetDBF=F FulRan=T
         wScrn=  0.000000 ICntrl=     600 IOpCl=  0 I1Cent=           0 NGrid=           0
         NMat0=    1 NMatS0=  60726 NMatT0=    0 NMatD0=    1 NMtDS0=    0 NMtDT0=    0
 Symmetry not used in FoFCou.
 Integral accuracy reduced to 1.0D-05 until final iterations.

 Cycle   1  Pass 0  IDiag  1:
 E= -191.472209663199    
 DIIS: error= 2.78D-02 at cycle   1 NSaved=   1.
 NSaved= 1 IEnMin= 1 EnMin= -191.472209663199     IErMin= 1 ErrMin= 2.78D-02
 ErrMax= 2.78D-02  0.00D+00 EMaxC= 1.00D-01 BMatC= 2.56D-01 BMatP= 2.56D-01
 IDIUse=3 WtCom= 7.22D-01 WtEn= 2.78D-01
 Coeff-Com:  0.100D+01
 Coeff-En:   0.100D+01
 Coeff:      0.100D+01
 Gap=     0.288 Goal=   None    Shift=    0.000
 GapD=    0.288 DampG=1.000 DampE=0.500 DampFc=0.5000 IDamp=-1.
 Damping current iteration by 5.00D-01
 RMSDP=1.84D-03 MaxDP=2.37D-01              OVMax= 1.73D-01

 Cycle   2  Pass 0  IDiag  1:
 E= -191.540989189923     Delta-E=       -0.068779526725 Rises=F Damp=T
 DIIS: error= 9.61D-03 at cycle   2 NSaved=   2.
 NSaved= 2 IEnMin= 2 EnMin= -191.540989189923     IErMin= 2 ErrMin= 9.61D-03
 ErrMax= 9.61D-03  0.00D+00 EMaxC= 1.00D-01 BMatC= 3.36D-02 BMatP= 2.56D-01
 IDIUse=3 WtCom= 9.04D-01 WtEn= 9.61D-02
 Coeff-Com: -0.147D+00 0.115D+01
 Coeff-En:   0.000D+00 0.100D+01
 Coeff:     -0.133D+00 0.113D+01
 Gap=     0.354 Goal=   None    Shift=    0.000
 RMSDP=6.24D-04 MaxDP=8.10D-02 DE=-6.88D-02 OVMax= 1.33D-01

 Cycle   3  Pass 0  IDiag  1:
 E= -191.602533286101     Delta-E=       -0.061544096178 Rises=F Damp=F
 DIIS: error= 1.11D-02 at cycle   3 NSaved=   3.
 NSaved= 3 IEnMin= 3 EnMin= -191.602533286101     IErMin= 2 ErrMin= 9.61D-03
 ErrMax= 1.11D-02  0.00D+00 EMaxC= 1.00D-01 BMatC= 1.69D-02 BMatP= 3.36D-02
 IDIUse=3 WtCom= 8.89D-01 WtEn= 1.11D-01
 Coeff-Com: -0.189D+00 0.518D+00 0.671D+00
 Coeff-En:   0.000D+00 0.000D+00 0.100D+01
 Coeff:     -0.168D+00 0.460D+00 0.707D+00
 Gap=     0.336 Goal=   None    Shift=    0.000
 RMSDP=2.44D-04 MaxDP=1.89D-02 DE=-6.15D-02 OVMax= 4.70D-02

 Cycle   4  Pass 0  IDiag  1:
 E= -191.611721037007     Delta-E=       -0.009187750906 Rises=F Damp=F
 DIIS: error= 4.77D-03 at cycle   4 NSaved=   4.
 NSaved= 4 IEnMin= 4 EnMin= -191.611721037007     IErMin= 4 ErrMin= 4.77D-03
 ErrMax= 4.77D-03  0.00D+00 EMaxC= 1.00D-01 BMatC= 3.18D-03 BMatP= 1.69D-02
 IDIUse=3 WtCom= 9.52D-01 WtEn= 4.77D-02
 Coeff-Com: -0.592D-01 0.970D-01 0.368D+00 0.594D+00
 Coeff-En:   0.000D+00 0.000D+00 0.173D+00 0.827D+00
 Coeff:     -0.564D-01 0.924D-01 0.359D+00 0.605D+00
 Gap=     0.320 Goal=   None    Shift=    0.000
 RMSDP=9.99D-05 MaxDP=8.40D-03 DE=-9.19D-03 OVMax= 1.45D-02

 Cycle   5  Pass 0  IDiag  1:
 E= -191.614283544210     Delta-E=       -0.002562507203 Rises=F Damp=F
 DIIS: error= 3.30D-04 at cycle   5 NSaved=   5.
 NSaved= 5 IEnMin= 5 EnMin= -191.614283544210     IErMin= 5 ErrMin= 3.30D-04
 ErrMax= 3.30D-04  0.00D+00 EMaxC= 1.00D-01 BMatC= 1.16D-05 BMatP= 3.18D-03
 IDIUse=3 WtCom= 9.97D-01 WtEn= 3.30D-03
 Coeff-Com: -0.681D-02 0.812D-02 0.498D-01 0.118D+00 0.831D+00
 Coeff-En:   0.000D+00 0.000D+00 0.000D+00 0.000D+00 0.100D+01
 Coeff:     -0.679D-02 0.810D-02 0.496D-01 0.118D+00 0.831D+00
 Gap=     0.319 Goal=   None    Shift=    0.000
 RMSDP=9.21D-06 MaxDP=7.26D-04 DE=-2.56D-03 OVMax= 2.23D-03

 Initial convergence to 1.0D-05 achieved.  Increase integral accuracy.
 Cycle   6  Pass 1  IDiag  1:
 E= -191.614287735101     Delta-E=       -0.000004190891 Rises=F Damp=F
 DIIS: error= 1.04D-04 at cycle   1 NSaved=   1.
 NSaved= 1 IEnMin= 1 EnMin= -191.614287735101     IErMin= 1 ErrMin= 1.04D-04
 ErrMax= 1.04D-04  0.00D+00 EMaxC= 1.00D-01 BMatC= 1.55D-06 BMatP= 1.55D-06
 IDIUse=3 WtCom= 9.99D-01 WtEn= 1.04D-03
 Coeff-Com:  0.100D+01
 Coeff-En:   0.100D+01
 Coeff:      0.100D+01
 Gap=     0.320 Goal=   None    Shift=    0.000
 RMSDP=9.21D-06 MaxDP=7.26D-04 DE=-4.19D-06 OVMax= 7.45D-04

 Cycle   7  Pass 1  IDiag  1:
 E= -191.614288960098     Delta-E=       -0.000001224997 Rises=F Damp=F
 DIIS: error= 7.01D-05 at cycle   2 NSaved=   2.
 NSaved= 2 IEnMin= 2 EnMin= -191.614288960098     IErMin= 2 ErrMin= 7.01D-05
 ErrMax= 7.01D-05  0.00D+00 EMaxC= 1.00D-01 BMatC= 8.59D-07 BMatP= 1.55D-06
 IDIUse=1 WtCom= 1.00D+00 WtEn= 0.00D+00
 Coeff-Com:  0.419D+00 0.581D+00
 Coeff:      0.419D+00 0.581D+00
 Gap=     0.320 Goal=   None    Shift=    0.000
 RMSDP=1.58D-06 MaxDP=9.17D-05 DE=-1.22D-06 OVMax= 4.22D-04

 Cycle   8  Pass 1  IDiag  1:
 E= -191.614289733341     Delta-E=       -0.000000773243 Rises=F Damp=F
 DIIS: error= 1.46D-05 at cycle   3 NSaved=   3.
 NSaved= 3 IEnMin= 3 EnMin= -191.614289733341     IErMin= 3 ErrMin= 1.46D-05
 ErrMax= 1.46D-05  0.00D+00 EMaxC= 1.00D-01 BMatC= 6.51D-08 BMatP= 8.59D-07
 IDIUse=1 WtCom= 1.00D+00 WtEn= 0.00D+00
 Coeff-Com:  0.506D-01 0.180D+00 0.769D+00
 Coeff:      0.506D-01 0.180D+00 0.769D+00
 Gap=     0.320 Goal=   None    Shift=    0.000
 RMSDP=1.42D-06 MaxDP=1.64D-04 DE=-7.73D-07 OVMax= 1.18D-04

 Cycle   9  Pass 1  IDiag  1:
 E= -191.614289794026     Delta-E=       -0.000000060685 Rises=F Damp=F
 DIIS: error= 1.77D-05 at cycle   4 NSaved=   4.
 NSaved= 4 IEnMin= 4 EnMin= -191.614289794026     IErMin= 3 ErrMin= 1.46D-05
 ErrMax= 1.77D-05  0.00D+00 EMaxC= 1.00D-01 BMatC= 2.00D-08 BMatP= 6.51D-08
 IDIUse=1 WtCom= 1.00D+00 WtEn= 0.00D+00
 Coeff-Com: -0.117D+00-0.919D-01 0.429D+00 0.779D+00
 Coeff:     -0.117D+00-0.919D-01 0.429D+00 0.779D+00
 Gap=     0.320 Goal=   None    Shift=    0.000
 RMSDP=6.80D-07 MaxDP=7.34D-05 DE=-6.07D-08 OVMax= 1.10D-04

 Cycle  10  Pass 1  IDiag  1:
 E= -191.614289822001     Delta-E=       -0.000000027976 Rises=F Damp=F
 DIIS: error= 1.53D-06 at cycle   5 NSaved=   5.
 NSaved= 5 IEnMin= 5 EnMin= -191.614289822001     IErMin= 5 ErrMin= 1.53D-06
 ErrMax= 1.53D-06  0.00D+00 EMaxC= 1.00D-01 BMatC= 9.70D-10 BMatP= 2.00D-08
 IDIUse=1 WtCom= 1.00D+00 WtEn= 0.00D+00
 Coeff-Com: -0.264D-01-0.281D-01 0.304D-01 0.220D+00 0.804D+00
 Coeff:     -0.264D-01-0.281D-01 0.304D-01 0.220D+00 0.804D+00
 Gap=     0.320 Goal=   None    Shift=    0.000
 RMSDP=1.32D-07 MaxDP=1.52D-05 DE=-2.80D-08 OVMax= 1.81D-05

 Cycle  11  Pass 1  IDiag  1:
 E= -191.614289822877     Delta-E=       -0.000000000875 Rises=F Damp=F
 DIIS: error= 6.60D-07 at cycle   6 NSaved=   6.
 NSaved= 6 IEnMin= 6 EnMin= -191.614289822877     IErMin= 6 ErrMin= 6.60D-07
 ErrMax= 6.60D-07  0.00D+00 EMaxC= 1.00D-01 BMatC= 1.51D-10 BMatP= 9.70D-10
 IDIUse=1 WtCom= 1.00D+00 WtEn= 0.00D+00
 Coeff-Com:  0.816D-02 0.320D-02-0.671D-01-0.176D-01 0.297D+00 0.777D+00
 Coeff:      0.816D-02 0.320D-02-0.671D-01-0.176D-01 0.297D+00 0.777D+00
 Gap=     0.320 Goal=   None    Shift=    0.000
 RMSDP=4.42D-08 MaxDP=4.62D-06 DE=-8.75D-10 OVMax= 4.00D-06

 Cycle  12  Pass 1  IDiag  1:
 E= -191.614289823025     Delta-E=       -0.000000000148 Rises=F Damp=F
 DIIS: error= 3.54D-07 at cycle   7 NSaved=   7.
 NSaved= 7 IEnMin= 7 EnMin= -191.614289823025     IErMin= 7 ErrMin= 3.54D-07
 ErrMax= 3.54D-07  0.00D+00 EMaxC= 1.00D-01 BMatC= 1.08D-11 BMatP= 1.51D-10
 IDIUse=1 WtCom= 1.00D+00 WtEn= 0.00D+00
 Coeff-Com:  0.500D-02 0.317D-02-0.295D-01-0.173D-01 0.643D-01 0.300D+00
 Coeff-Com:  0.674D+00
 Coeff:      0.500D-02 0.317D-02-0.295D-01-0.173D-01 0.643D-01 0.300D+00
 Coeff:      0.674D+00
 Gap=     0.320 Goal=   None    Shift=    0.000
 RMSDP=7.34D-09 MaxDP=4.03D-07 DE=-1.48D-10 OVMax= 2.17D-06

 SCF Done:  E(RB2PLYPD3) =  -191.614289823     A.U. after   12 cycles
            NFock= 12  Conv=0.73D-08     -V/T= 2.0036
 KE= 1.909362529810D+02 PE=-6.544501784427D+02 EE= 1.686806796427D+02
 Leave Link  502 at Wed Aug 26 19:05:08 2020, MaxMem=  2097152000 cpu:       274.8
 (Enter /opt/cluster/programs/g09/g09_d.01/g09/l801.exe)
 DoSCS=T DFT=T ScalE2(SS,OS)=  0.270000  0.270000
 ExpMin= 7.60D-02 ExpMax= 1.17D+05 ExpMxC= 1.13D+03 IAcc=3 IRadAn=         5 AccDes= 0.00D+00
 HarFok:  IExCor=  205 AccDes= 0.00D+00 IRadAn=         5 IDoV=-2 UseB2=F ITyADJ=14
 ICtDFT= 12500011 ScaDFX=  1.000000  1.000000  1.000000  1.000000
 Largest valence mixing into a core orbital is  1.15D-04
 Largest core mixing into a valence orbital is  1.92D-05
 Range of M.O.s used for correlation:     5   348
 NBasis=   348 NAE=    15 NBE=    15 NFC=     4 NFV=     0
 NROrb=    344 NOA=    11 NOB=    11 NVA=   333 NVB=   333

 **** Warning!!: The largest alpha MO coefficient is  0.30090430D+02

 Leave Link  801 at Wed Aug 26 19:05:08 2020, MaxMem=  2097152000 cpu:         0.8
 (Enter /opt/cluster/programs/g09/g09_d.01/g09/l906.exe)
 DoSCS=T DFT=T ScalE2(SS,OS)=  0.270000  0.270000
 FulOut=F Deriv=F AODrv=F NAtomX=     8
   MMem=        1190  MDisk=          11 MDiskD=          11
  W3Min=     1567764 MinDsk=     2827057 NBas6D=         428
 NBas2D=       93150    NTT=       91806    LW2=     4508827
    MDV=  2096571546 MDiskM=       10875 NBas2p=       89405
 Fully direct method using O(OVN) memory.
 IMap=   1   2   3   4   5   6   7   8   9  10  11
 JobTyp=1 Pass  1:  I=   1 to  11 NPSUse=  8 ParTrn=T ParDer=T DoDerP=F.
 Spin components of T(2) and E(2):
     alpha-alpha T2 =       0.4374660833D-01 E2=     -0.2946348199D-01
     alpha-beta  T2 =       0.2671864127D+00 E2=     -0.1882353478D+00
     beta-beta   T2 =       0.4374660833D-01 E2=     -0.2946348199D-01
 The integrals were generated   1 times.
 E2(B2PLYPD3) =    -0.2471623118D+00 E(B2PLYPD3) =    -0.19186145213483D+03
 Leave Link  906 at Wed Aug 26 19:06:08 2020, MaxMem=  2097152000 cpu:       472.7
 (Enter /opt/cluster/programs/g09/g09_d.01/g09/l601.exe)
 Copying SCF densities to generalized density rwf, IOpCl= 0 IROHF=0.

 **********************************************************************

            Population analysis using the SCF density.

 **********************************************************************

 Orbital symmetries:
       Occupied  (A) (A) (A) (A) (A) (A) (A) (A) (A) (A) (A) (A)
                 (A) (A) (A)
       Virtual   (A) (A) (A) (A) (A) (A) (A) (A) (A) (A) (A) (A)
                 (A) (A) (A) (A) (A) (A) (A) (A) (A) (A) (A) (A)
                 (A) (A) (A) (A) (A) (A) (A) (A) (A) (A) (A) (A)
                 (A) (A) (A) (A) (A) (A) (A) (A) (A) (A) (A) (A)
                 (A) (A) (A) (A) (A) (A) (A) (A) (A) (A) (A) (A)
                 (A) (A) (A) (A) (A) (A) (A) (A) (A) (A) (A) (A)
                 (A) (A) (A) (A) (A) (A) (A) (A) (A) (A) (A) (A)
                 (A) (A) (A) (A) (A) (A) (A) (A) (A) (A) (A) (A)
                 (A) (A) (A) (A) (A) (A) (A) (A) (A) (A) (A) (A)
                 (A) (A) (A) (A) (A) (A) (A) (A) (A) (A) (A) (A)
                 (A) (A) (A) (A) (A) (A) (A) (A) (A) (A) (A) (A)
                 (A) (A) (A) (A) (A) (A) (A) (A) (A) (A) (A) (A)
                 (A) (A) (A) (A) (A) (A) (A) (A) (A) (A) (A) (A)
                 (A) (A) (A) (A) (A) (A) (A) (A) (A) (A) (A) (A)
                 (A) (A) (A) (A) (A) (A) (A) (A) (A) (A) (A) (A)
                 (A) (A) (A) (A) (A) (A) (A) (A) (A) (A) (A) (A)
                 (A) (A) (A) (A) (A) (A) (A) (A) (A) (A) (A) (A)
                 (A) (A) (A) (A) (A) (A) (A) (A) (A) (A) (A) (A)
                 (A) (A) (A) (A) (A) (A) (A) (A) (A) (A) (A) (A)
                 (A) (A) (A) (A) (A) (A) (A) (A) (A) (A) (A) (A)
                 (A) (A) (A) (A) (A) (A) (A) (A) (A) (A) (A) (A)
                 (A) (A) (A) (A) (A) (A) (A) (A) (A) (A) (A) (A)
                 (A) (A) (A) (A) (A) (A) (A) (A) (A) (A) (A) (A)
                 (A) (A) (A) (A) (A) (A) (A) (A) (A) (A) (A) (A)
                 (A) (A) (A) (A) (A) (A) (A) (A) (A) (A) (A) (A)
                 (A) (A) (A) (A) (A) (A) (A) (A) (A) (A) (A) (A)
                 (A) (A) (A) (A) (A) (A) (A) (A) (A) (A) (A) (A)
                 (A) (A) (A) (A) (A) (A) (A) (A) (A)
 The electronic state is 1-A.
 Alpha  occ. eigenvalues --  -19.72694 -10.71546 -10.65770 -10.64667  -1.19720
 Alpha  occ. eigenvalues --   -0.92948  -0.75413  -0.66382  -0.56869  -0.56030
 Alpha  occ. eigenvalues --   -0.50610  -0.46892  -0.46461  -0.34775  -0.33691
 Alpha virt. eigenvalues --   -0.01700   0.05698   0.07074   0.08253   0.09654
 Alpha virt. eigenvalues --    0.12446   0.14153   0.15329   0.17337   0.19504
 Alpha virt. eigenvalues --    0.20047   0.21654   0.25330   0.26440   0.28694
 Alpha virt. eigenvalues --    0.31180   0.33323   0.36032   0.36692   0.38538
 Alpha virt. eigenvalues --    0.39808   0.41659   0.42908   0.44535   0.46357
 Alpha virt. eigenvalues --    0.47294   0.49205   0.52823   0.53998   0.56333
 Alpha virt. eigenvalues --    0.58722   0.64847   0.66068   0.68090   0.71223
 Alpha virt. eigenvalues --    0.75253   0.76698   0.78344   0.79436   0.80648
 Alpha virt. eigenvalues --    0.81408   0.82036   0.82476   0.84253   0.85818
 Alpha virt. eigenvalues --    0.87765   0.91702   0.92463   0.93958   0.96023
 Alpha virt. eigenvalues --    0.96390   0.97750   1.01106   1.02493   1.07495
 Alpha virt. eigenvalues --    1.09294   1.12310   1.14520   1.15347   1.18756
 Alpha virt. eigenvalues --    1.20158   1.25610   1.27682   1.33955   1.38974
 Alpha virt. eigenvalues --    1.43670   1.47332   1.48376   1.55155   1.57138
 Alpha virt. eigenvalues --    1.61569   1.63225   1.63633   1.67158   1.69304
 Alpha virt. eigenvalues --    1.73931   1.76200   1.77799   1.82056   1.83371
 Alpha virt. eigenvalues --    1.86381   1.89259   1.90851   1.94382   1.94927
 Alpha virt. eigenvalues --    1.96323   1.98368   2.00265   2.01996   2.02543
 Alpha virt. eigenvalues --    2.05970   2.10476   2.11056   2.13624   2.14790
 Alpha virt. eigenvalues --    2.16229   2.18163   2.20657   2.23124   2.26579
 Alpha virt. eigenvalues --    2.30694   2.35025   2.37937   2.39336   2.43772
 Alpha virt. eigenvalues --    2.44739   2.46152   2.47283   2.48441   2.52897
 Alpha virt. eigenvalues --    2.53841   2.57877   2.58468   2.59925   2.64278
 Alpha virt. eigenvalues --    2.65239   2.66660   2.67341   2.69847   2.75430
 Alpha virt. eigenvalues --    2.75534   2.77616   2.84955   2.86532   2.87209
 Alpha virt. eigenvalues --    2.88431   2.94907   2.96933   2.99294   3.03934
 Alpha virt. eigenvalues --    3.15366   3.17840   3.28279   3.29008   3.30463
 Alpha virt. eigenvalues --    3.36062   3.38104   3.40676   3.45009   3.50148
 Alpha virt. eigenvalues --    3.52200   3.54355   3.56886   3.61152   3.62612
 Alpha virt. eigenvalues --    3.64867   3.74460   3.75002   3.79532   3.90246
 Alpha virt. eigenvalues --    3.90618   3.99716   4.01378   4.03947   4.05439
 Alpha virt. eigenvalues --    4.10694   4.18002   4.18951   4.25762   4.32211
 Alpha virt. eigenvalues --    4.39011   4.45163   4.54427   4.62239   4.63713
 Alpha virt. eigenvalues --    4.67370   4.82859   4.87215   4.90947   4.97726
 Alpha virt. eigenvalues --    5.02735   5.05888   5.09265   5.11349   5.12529
 Alpha virt. eigenvalues --    5.21639   5.27561   5.30182   5.33790   5.41236
 Alpha virt. eigenvalues --    5.45226   5.52262   5.54466   5.58095   5.60334
 Alpha virt. eigenvalues --    5.67788   5.70898   5.74250   5.75910   5.76750
 Alpha virt. eigenvalues --    5.80778   5.82908   5.86255   5.88949   5.93484
 Alpha virt. eigenvalues --    5.95871   5.96843   6.00238   6.02927   6.07596
 Alpha virt. eigenvalues --    6.08725   6.13403   6.14768   6.16561   6.18282
 Alpha virt. eigenvalues --    6.20547   6.22859   6.26269   6.26501   6.28187
 Alpha virt. eigenvalues --    6.31031   6.32386   6.37326   6.39337   6.42869
 Alpha virt. eigenvalues --    6.47679   6.49461   6.50565   6.53341   6.58411
 Alpha virt. eigenvalues --    6.59572   6.60301   6.66642   6.71530   6.78843
 Alpha virt. eigenvalues --    6.82532   6.84224   6.94357   6.98303   6.99960
 Alpha virt. eigenvalues --    7.06636   7.10392   7.12205   7.17060   7.24931
 Alpha virt. eigenvalues --    7.26814   7.39962   7.40436   7.45202   7.48624
 Alpha virt. eigenvalues --    7.50813   7.55189   7.59119   7.59876   7.64004
 Alpha virt. eigenvalues --    7.67744   7.68647   7.71794   7.73757   7.79045
 Alpha virt. eigenvalues --    7.83469   7.86922   7.90265   8.01623   8.03823
 Alpha virt. eigenvalues --    8.08535   8.09445   8.13215   8.16221   8.18931
 Alpha virt. eigenvalues --    8.23324   8.26473   8.27629   8.31321   8.32475
 Alpha virt. eigenvalues --    8.34067   8.38261   8.41621   8.46043   8.50590
 Alpha virt. eigenvalues --    8.56179   8.59500   8.61835   8.64073   8.67384
 Alpha virt. eigenvalues --    8.81243   8.89391   8.90165   8.97295   9.03390
 Alpha virt. eigenvalues --    9.07545   9.09205   9.13551   9.21663   9.30232
 Alpha virt. eigenvalues --    9.34373   9.34780   9.57793   9.68641   9.73134
 Alpha virt. eigenvalues --    9.75799   9.81745   9.84572   9.89017   9.93027
 Alpha virt. eigenvalues --    9.95111  10.01579  10.09106  10.21480  10.25311
 Alpha virt. eigenvalues --   10.31527  10.33213  10.53141  10.71547  10.97393
 Alpha virt. eigenvalues --   11.02555  11.25471  11.25552  11.28841  11.44491
 Alpha virt. eigenvalues --   11.66397  11.77548  11.86254  12.04061  12.11189
 Alpha virt. eigenvalues --   12.33307  12.36600  12.42794  12.54932  12.85323
 Alpha virt. eigenvalues --   13.07480  13.39475  13.77284  14.36086  14.75020
 Alpha virt. eigenvalues --   28.53401  28.88106  29.53700  48.66672 148.12096
 Alpha virt. eigenvalues --  148.43119 149.13225 254.42898
          Condensed to atoms (all electrons):
               1          2          3          4          5          6
     1  C    4.497745   0.622156   0.360579  -0.057178  -0.028640  -0.004352
     2  O    0.622156   7.881728  -0.088488   0.006628   0.006061   0.000357
     3  C    0.360579  -0.088488   5.169190   0.481651   0.366649  -0.045356
     4  C   -0.057178   0.006628   0.481651   4.870728  -0.036699   0.420723
     5  H   -0.028640   0.006061   0.366649  -0.036699   0.578464   0.005249
     6  H   -0.004352   0.000357  -0.045356   0.420723   0.005249   0.578387
     7  H    0.002852  -0.000593  -0.034353   0.413523  -0.005204  -0.043087
     8  H    0.448216  -0.082115  -0.165605   0.024187   0.008237   0.006479
               7          8
     1  C    0.002852   0.448216
     2  O   -0.000593  -0.082115
     3  C   -0.034353  -0.165605
     4  C    0.413523   0.024187
     5  H   -0.005204   0.008237
     6  H   -0.043087   0.006479
     7  H    0.565182  -0.000692
     8  H   -0.000692   0.696206
 Mulliken charges:
               1
     1  C    0.158621
     2  O   -0.345734
     3  C   -0.044267
     4  C   -0.123562
     5  H    0.105884
     6  H    0.081599
     7  H    0.102372
     8  H    0.065087
 Sum of Mulliken charges =   0.00000
 Mulliken charges with hydrogens summed into heavy atoms:
               1
     1  C    0.223708
     2  O   -0.345734
     3  C    0.061617
     4  C    0.060409
 Electronic spatial extent (au):  <R**2>=            297.9695
 Charge=              0.0000 electrons
 Dipole moment (field-independent basis, Debye):
    X=              3.5071    Y=              0.6897    Z=              0.0568  Tot=              3.5747
 Quadrupole moment (field-independent basis, Debye-Ang):
   XX=            -27.3261   YY=            -21.7621   ZZ=            -25.2452
   XY=             -0.7956   XZ=             -0.2247   YZ=             -0.1116
 Traceless Quadrupole moment (field-independent basis, Debye-Ang):
   XX=             -2.5483   YY=              3.0157   ZZ=             -0.4674
   XY=             -0.7956   XZ=             -0.2247   YZ=             -0.1116
 Octapole moment (field-independent basis, Debye-Ang**2):
  XXX=             15.2901  YYY=             -0.2776  ZZZ=             -0.0744  XYY=             -0.2287
  XXY=              1.0916  XXZ=             -0.0822  XZZ=             -4.3128  YZZ=              0.0866
  YYZ=              0.0766  XYZ=             -0.1802
 Hexadecapole moment (field-independent basis, Debye-Ang**3):
 XXXX=           -300.1898 YYYY=            -56.3875 ZZZZ=            -27.4408 XXXY=             -2.1278
 XXXZ=             -0.7499 YYYX=              0.3848 YYYZ=             -0.2682 ZZZX=              0.0016
 ZZZY=             -0.0935 XXYY=            -58.0973 XXZZ=            -57.0049 YYZZ=            -15.8519
 XXYZ=             -0.3686 YYXZ=             -0.2851 ZZXY=              0.2590
 N-N= 1.032189559960D+02 E-N=-6.544501542988D+02  KE= 1.909362529810D+02
 Leave Link  601 at Wed Aug 26 19:06:08 2020, MaxMem=  2097152000 cpu:         0.6
 (Enter /opt/cluster/programs/g09/g09_d.01/g09/l9999.exe)
 1\1\GINC-NODE09\SP\RB2PLYPD3-FC\def2QZVP\C3H4O1\BOITTIER\26-Aug-2020\0
 \\#p B2PLYPD3/Def2QZVP\\acrolein\\0,1\C,0,-5.005755,-1.393376,0.879803
 \O,0,-3.9432,-0.860845,0.672595\C,0,-5.186626,-2.823422,1.137635\C,0,-
 6.396672,-3.310956,1.406545\H,0,-4.289125,-3.447348,1.069287\H,0,-7.31
 9039,-2.661289,1.509518\H,0,-6.570453,-4.334801,1.599471\H,0,-5.942858
 ,-0.770614,0.834686\\Version=ES64L-G09RevD.01\State=1-A\HF=-191.614289
 8\MP2=-191.8614521\RMSD=7.343e-09\PG=C01 [X(C3H4O1)]\\@


 A true friend is someone who is there for
 you when he'd rather be anywhere else.
                               -- Len Wein
 Job cpu time:       0 days  0 hours 12 minutes 41.1 seconds.
 File lengths (MBytes):  RWF=     49 Int=      0 D2E=      0 Chk=      7 Scr=      1
 Normal termination of Gaussian 09 at Wed Aug 26 19:06:08 2020.
