 Entering Gaussian System, Link 0=/opt/cluster/programs/g09/g09_d.01/g09//g09
 Input=/home/boittier/MDCM/nms_sampling/acrolein_geom.xyz.dir/energies/acrolein_1603_energy.com
 Output=/scratch/boittier/acrolein_1603_energy/acrolein_1603_energy.out
 Initial command:
 /opt/cluster/programs/g09/g09_d.01/g09/l1.exe "/scratch/boittier/acrolein_1603_energy/Gau-149392.inp" -scrdir="/scratch/boittier/acrolein_1603_energy/"
 Entering Link 1 = /opt/cluster/programs/g09/g09_d.01/g09/l1.exe PID=    149393.
  
 Copyright (c) 1988,1990,1992,1993,1995,1998,2003,2009,2013,
            Gaussian, Inc.  All Rights Reserved.
  
 This is part of the Gaussian(R) 09 program.  It is based on
 the Gaussian(R) 03 system (copyright 2003, Gaussian, Inc.),
 the Gaussian(R) 98 system (copyright 1998, Gaussian, Inc.),
 the Gaussian(R) 94 system (copyright 1995, Gaussian, Inc.),
 the Gaussian 92(TM) system (copyright 1992, Gaussian, Inc.),
 the Gaussian 90(TM) system (copyright 1990, Gaussian, Inc.),
 the Gaussian 88(TM) system (copyright 1988, Gaussian, Inc.),
 the Gaussian 86(TM) system (copyright 1986, Carnegie Mellon
 University), and the Gaussian 82(TM) system (copyright 1983,
 Carnegie Mellon University). Gaussian is a federally registered
 trademark of Gaussian, Inc.
  
 This software contains proprietary and confidential information,
 including trade secrets, belonging to Gaussian, Inc.
  
 This software is provided under written license and may be
 used, copied, transmitted, or stored only in accord with that
 written license.
  
 The following legend is applicable only to US Government
 contracts under FAR:
  
                    RESTRICTED RIGHTS LEGEND
  
 Use, reproduction and disclosure by the US Government is
 subject to restrictions as set forth in subparagraphs (a)
 and (c) of the Commercial Computer Software - Restricted
 Rights clause in FAR 52.227-19.
  
 Gaussian, Inc.
 340 Quinnipiac St., Bldg. 40, Wallingford CT 06492
  
  
 ---------------------------------------------------------------
 Warning -- This program may not be used in any manner that
 competes with the business of Gaussian, Inc. or will provide
 assistance to any competitor of Gaussian, Inc.  The licensee
 of this program is prohibited from giving any competitor of
 Gaussian, Inc. access to this program.  By using this program,
 the user acknowledges that Gaussian, Inc. is engaged in the
 business of creating and licensing software in the field of
 computational chemistry and represents and warrants to the
 licensee that it is not a competitor of Gaussian, Inc. and that
 it will not use this program in any manner prohibited above.
 ---------------------------------------------------------------
  

 Cite this work as:
 Gaussian 09, Revision D.01,
 M. J. Frisch, G. W. Trucks, H. B. Schlegel, G. E. Scuseria, 
 M. A. Robb, J. R. Cheeseman, G. Scalmani, V. Barone, B. Mennucci, 
 G. A. Petersson, H. Nakatsuji, M. Caricato, X. Li, H. P. Hratchian, 
 A. F. Izmaylov, J. Bloino, G. Zheng, J. L. Sonnenberg, M. Hada, 
 M. Ehara, K. Toyota, R. Fukuda, J. Hasegawa, M. Ishida, T. Nakajima, 
 Y. Honda, O. Kitao, H. Nakai, T. Vreven, J. A. Montgomery, Jr., 
 J. E. Peralta, F. Ogliaro, M. Bearpark, J. J. Heyd, E. Brothers, 
 K. N. Kudin, V. N. Staroverov, T. Keith, R. Kobayashi, J. Normand, 
 K. Raghavachari, A. Rendell, J. C. Burant, S. S. Iyengar, J. Tomasi, 
 M. Cossi, N. Rega, J. M. Millam, M. Klene, J. E. Knox, J. B. Cross, 
 V. Bakken, C. Adamo, J. Jaramillo, R. Gomperts, R. E. Stratmann, 
 O. Yazyev, A. J. Austin, R. Cammi, C. Pomelli, J. W. Ochterski, 
 R. L. Martin, K. Morokuma, V. G. Zakrzewski, G. A. Voth, 
 P. Salvador, J. J. Dannenberg, S. Dapprich, A. D. Daniels, 
 O. Farkas, J. B. Foresman, J. V. Ortiz, J. Cioslowski, 
 and D. J. Fox, Gaussian, Inc., Wallingford CT, 2013.
 
 ******************************************
 Gaussian 09:  ES64L-G09RevD.01 24-Apr-2013
                26-Aug-2020 
 ******************************************
 %chk=/home/boittier/MDCM/nms_sampling/acrolein_geom.xyz.dir/acrolein_1603.chk
 %nproc=8
 Will use up to    8 processors via shared memory.
 %mem=16000MB
 --------------------
 #p B2PLYPD3/Def2QZVP
 --------------------
 1/38=1/1;
 2/12=2,17=6,18=5,40=1/2;
 3/5=45,7=101,11=9,16=1,25=1,30=1,74=-60/1,2,3;
 4//1;
 5/5=2,38=5/2;
 8/10=1/1;
 9/16=-3/6;
 6/7=2,8=2,9=2,10=2/1;
 99/5=1,9=1/99;
 Leave Link    1 at Wed Aug 26 09:34:17 2020, MaxMem=  2097152000 cpu:         0.2
 (Enter /opt/cluster/programs/g09/g09_d.01/g09/l101.exe)
 --------
 acrolein
 --------
 Symbolic Z-matrix:
 Charge =  0 Multiplicity = 1
 C                    -5.01583  -1.3718    0.92699 
 O                    -3.94413  -0.87814   0.63324 
 C                    -5.18519  -2.80449   1.15129 
 C                    -6.37906  -3.32123   1.37324 
 H                    -4.38139  -3.41357   1.24498 
 H                    -7.21527  -2.70442   1.42303 
 H                    -6.54878  -4.37639   1.61762 
 H                    -6.04916  -0.78028   1.00707 
 
 NAtoms=      8 NQM=        8 NQMF=       0 NMMI=      0 NMMIF=      0
                NMic=       0 NMicF=      0.
                    Isotopes and Nuclear Properties:
 (Nuclear quadrupole moments (NQMom) in fm**2, nuclear magnetic moments (NMagM)
  in nuclear magnetons)

  Atom         1           2           3           4           5           6           7           8
 IAtWgt=          12          16          12          12           1           1           1           1
 AtmWgt=  12.0000000  15.9949146  12.0000000  12.0000000   1.0078250   1.0078250   1.0078250   1.0078250
 NucSpn=           0           0           0           0           1           1           1           1
 AtZEff=   0.0000000   0.0000000   0.0000000   0.0000000   0.0000000   0.0000000   0.0000000   0.0000000
 NQMom=    0.0000000   0.0000000   0.0000000   0.0000000   0.0000000   0.0000000   0.0000000   0.0000000
 NMagM=    0.0000000   0.0000000   0.0000000   0.0000000   2.7928460   2.7928460   2.7928460   2.7928460
 AtZNuc=   6.0000000   8.0000000   6.0000000   6.0000000   1.0000000   1.0000000   1.0000000   1.0000000
 Leave Link  101 at Wed Aug 26 09:34:17 2020, MaxMem=  2097152000 cpu:         0.5
 (Enter /opt/cluster/programs/g09/g09_d.01/g09/l202.exe)
                          Input orientation:                          
 ---------------------------------------------------------------------
 Center     Atomic      Atomic             Coordinates (Angstroms)
 Number     Number       Type             X           Y           Z
 ---------------------------------------------------------------------
      1          6           0       -5.015827   -1.371800    0.926991
      2          8           0       -3.944129   -0.878139    0.633237
      3          6           0       -5.185190   -2.804493    1.151288
      4          6           0       -6.379063   -3.321229    1.373241
      5          1           0       -4.381394   -3.413570    1.244976
      6          1           0       -7.215265   -2.704419    1.423032
      7          1           0       -6.548779   -4.376388    1.617618
      8          1           0       -6.049162   -0.780277    1.007070
 ---------------------------------------------------------------------
                    Distance matrix (angstroms):
                    1          2          3          4          5
     1  C    0.000000
     2  O    1.215948   0.000000
     3  C    1.460001   2.349351   0.000000
     4  C    2.420294   3.527775   1.319701   0.000000
     5  H    2.161584   2.644586   1.012838   2.003911   0.000000
     6  H    2.619057   3.828760   2.050625   1.040273   2.926675
     7  H    3.443030   4.471124   2.132532   1.096305   2.400716
     8  H    1.193354   2.140208   2.205606   2.588311   3.126065
                    6          7          8
     6  H    0.000000
     7  H    1.810400   0.000000
     8  H    2.288043   3.681630   0.000000
 Stoichiometry    C3H4O
 Framework group  C1[X(C3H4O)]
 Deg. of freedom    18
 Full point group                 C1      NOp   1
 Largest Abelian subgroup         C1      NOp   1
 Largest concise Abelian subgroup C1      NOp   1
                         Standard orientation:                         
 ---------------------------------------------------------------------
 Center     Atomic      Atomic             Coordinates (Angstroms)
 Number     Number       Type             X           Y           Z
 ---------------------------------------------------------------------
      1          6           0        0.672203    0.357976    0.033016
      2          8           0        1.780932   -0.137757   -0.026135
      3          6           0       -0.548415   -0.442452    0.001296
      4          6           0       -1.736589    0.131000   -0.030453
      5          1           0       -0.511779   -1.448937    0.108475
      6          1           0       -1.818336    1.167629   -0.000692
      7          1           0       -2.680808   -0.424026    0.017301
      8          1           0        0.440273    1.528245    0.060842
 ---------------------------------------------------------------------
 Rotational constants (GHZ):     48.3225586      4.7376983      4.3183534
 Leave Link  202 at Wed Aug 26 09:34:17 2020, MaxMem=  2097152000 cpu:         0.0
 (Enter /opt/cluster/programs/g09/g09_d.01/g09/l301.exe)
 Standard basis: def2QZVP (5D, 7F)
 Ernie: Thresh=  0.10000D-02 Tol=  0.10000D-05 Strict=F.
 There are   428 symmetry adapted cartesian basis functions of A   symmetry.
 There are   348 symmetry adapted basis functions of A   symmetry.
   348 basis functions,   520 primitive gaussians,   428 cartesian basis functions
    15 alpha electrons       15 beta electrons
       nuclear repulsion energy       103.7601163089 Hartrees.
 IExCor=  419 DFT=T Ex+Corr=B2PLYPD3 ExCW=0 ScaHFX=  0.530000
 ScaDFX=  0.470000  0.470000  0.730000  0.730000 ScalE2=  0.270000  0.270000
 IRadAn=      0 IRanWt=     -1 IRanGd=            0 ICorTp=0 IEmpDi=141
 NAtoms=    8 NActive=    8 NUniq=    8 SFac= 1.00D+00 NAtFMM=   60 NAOKFM=F Big=F
 Integral buffers will be    131072 words long.
 Regular integral format.
 Two-electron integral symmetry is turned on.
 R6Disp:  Grimme-D3(BJ) Dispersion energy=       -0.0036050064 Hartrees.
 Nuclear repulsion after empirical dispersion term =      103.7565113025 Hartrees.
 Leave Link  301 at Wed Aug 26 09:34:17 2020, MaxMem=  2097152000 cpu:         0.4
 (Enter /opt/cluster/programs/g09/g09_d.01/g09/l302.exe)
 NPDir=0 NMtPBC=     1 NCelOv=     1 NCel=       1 NClECP=     1 NCelD=      1
         NCelK=      1 NCelE2=     1 NClLst=     1 CellRange=     0.0.
 One-electron integrals computed using PRISM.
   1 Symmetry operations used in ECPInt.
 ECPInt:  NShTT=    5886 NPrTT=   14376 LenC2=    5780 LenP2D=   12192.
 LDataN:  DoStor=T MaxTD1= 8 Len=  415
 NBasis=   348 RedAO= T EigKep=  5.66D-05  NBF=   348
 NBsUse=   348 1.00D-06 EigRej= -1.00D+00 NBFU=   348
 Precomputing XC quadrature grid using
 IXCGrd= 4 IRadAn=           0 IRanWt=          -1 IRanGd=           0 AccXCQ= 0.00D+00.
 Generated NRdTot=       0 NPtTot=           0 NUsed=           0 NTot=          32
 NSgBfM=   428   428   428   428   428 MxSgAt=     8 MxSgA2=     8.
 Leave Link  302 at Wed Aug 26 09:34:17 2020, MaxMem=  2097152000 cpu:         3.1
 (Enter /opt/cluster/programs/g09/g09_d.01/g09/l303.exe)
 DipDrv:  MaxL=1.
 Leave Link  303 at Wed Aug 26 09:34:17 2020, MaxMem=  2097152000 cpu:         0.3
 (Enter /opt/cluster/programs/g09/g09_d.01/g09/l401.exe)
 ExpMin= 7.60D-02 ExpMax= 1.17D+05 ExpMxC= 1.13D+03 IAcc=2 IRadAn=         4 AccDes= 0.00D+00
 Harris functional with IExCor=  419 and IRadAn=       4 diagonalized for initial guess.
 HarFok:  IExCor=  419 AccDes= 0.00D+00 IRadAn=         4 IDoV= 1 UseB2=F ITyADJ=14
 ICtDFT=  3500011 ScaDFX=  1.000000  1.000000  1.000000  1.000000
 FoFCou: FMM=F IPFlag=           0 FMFlag=      100000 FMFlg1=           0
         NFxFlg=           0 DoJE=T BraDBF=F KetDBF=T FulRan=T
         wScrn=  0.000000 ICntrl=     500 IOpCl=  0 I1Cent=   200000004 NGrid=           0
         NMat0=    1 NMatS0=      1 NMatT0=    0 NMatD0=    1 NMtDS0=    0 NMtDT0=    0
 Petite list used in FoFCou.
 Harris En= -192.044334163387    
 JPrj=0 DoOrth=F DoCkMO=F.
 Leave Link  401 at Wed Aug 26 09:34:18 2020, MaxMem=  2097152000 cpu:         7.0
 (Enter /opt/cluster/programs/g09/g09_d.01/g09/l502.exe)
 Closed shell SCF:
 Using DIIS extrapolation, IDIIS=  1040.
 Integral symmetry usage will be decided dynamically.
 Keep R1 ints in memory in canonical form, NReq=1883905047.
 IVT=      574566 IEndB=      574566 NGot=  2097152000 MDV=   252723534
 LenX=   252723534 LenY=   252539909
 Requested convergence on RMS density matrix=1.00D-08 within 128 cycles.
 Requested convergence on MAX density matrix=1.00D-06.
 Requested convergence on             energy=1.00D-06.
 No special actions if energy rises.
 FoFCou: FMM=F IPFlag=           0 FMFlag=           0 FMFlg1=           0
         NFxFlg=           0 DoJE=F BraDBF=F KetDBF=F FulRan=T
         wScrn=  0.000000 ICntrl=     600 IOpCl=  0 I1Cent=           0 NGrid=           0
         NMat0=    1 NMatS0=  60726 NMatT0=    0 NMatD0=    1 NMtDS0=    0 NMtDT0=    0
 Symmetry not used in FoFCou.
 Integral accuracy reduced to 1.0D-05 until final iterations.

 Cycle   1  Pass 0  IDiag  1:
 E= -191.453213121805    
 DIIS: error= 2.93D-02 at cycle   1 NSaved=   1.
 NSaved= 1 IEnMin= 1 EnMin= -191.453213121805     IErMin= 1 ErrMin= 2.93D-02
 ErrMax= 2.93D-02  0.00D+00 EMaxC= 1.00D-01 BMatC= 2.68D-01 BMatP= 2.68D-01
 IDIUse=3 WtCom= 7.07D-01 WtEn= 2.93D-01
 Coeff-Com:  0.100D+01
 Coeff-En:   0.100D+01
 Coeff:      0.100D+01
 Gap=     0.301 Goal=   None    Shift=    0.000
 GapD=    0.301 DampG=1.000 DampE=0.500 DampFc=0.5000 IDamp=-1.
 Damping current iteration by 5.00D-01
 RMSDP=1.74D-03 MaxDP=2.05D-01              OVMax= 1.75D-01

 Cycle   2  Pass 0  IDiag  1:
 E= -191.526874276280     Delta-E=       -0.073661154475 Rises=F Damp=T
 DIIS: error= 1.01D-02 at cycle   2 NSaved=   2.
 NSaved= 2 IEnMin= 2 EnMin= -191.526874276280     IErMin= 2 ErrMin= 1.01D-02
 ErrMax= 1.01D-02  0.00D+00 EMaxC= 1.00D-01 BMatC= 3.44D-02 BMatP= 2.68D-01
 IDIUse=3 WtCom= 8.99D-01 WtEn= 1.01D-01
 Coeff-Com: -0.141D+00 0.114D+01
 Coeff-En:   0.000D+00 0.100D+01
 Coeff:     -0.127D+00 0.113D+01
 Gap=     0.360 Goal=   None    Shift=    0.000
 RMSDP=5.95D-04 MaxDP=7.04D-02 DE=-7.37D-02 OVMax= 1.36D-01

 Cycle   3  Pass 0  IDiag  1:
 E= -191.592397081282     Delta-E=       -0.065522805002 Rises=F Damp=F
 DIIS: error= 1.13D-02 at cycle   3 NSaved=   3.
 NSaved= 3 IEnMin= 3 EnMin= -191.592397081282     IErMin= 2 ErrMin= 1.01D-02
 ErrMax= 1.13D-02  0.00D+00 EMaxC= 1.00D-01 BMatC= 1.86D-02 BMatP= 3.44D-02
 IDIUse=3 WtCom= 8.87D-01 WtEn= 1.13D-01
 Coeff-Com: -0.185D+00 0.528D+00 0.657D+00
 Coeff-En:   0.000D+00 0.000D+00 0.100D+01
 Coeff:     -0.164D+00 0.469D+00 0.696D+00
 Gap=     0.337 Goal=   None    Shift=    0.000
 RMSDP=2.55D-04 MaxDP=1.85D-02 DE=-6.55D-02 OVMax= 5.01D-02

 Cycle   4  Pass 0  IDiag  1:
 E= -191.602652698993     Delta-E=       -0.010255617711 Rises=F Damp=F
 DIIS: error= 4.83D-03 at cycle   4 NSaved=   4.
 NSaved= 4 IEnMin= 4 EnMin= -191.602652698993     IErMin= 4 ErrMin= 4.83D-03
 ErrMax= 4.83D-03  0.00D+00 EMaxC= 1.00D-01 BMatC= 3.55D-03 BMatP= 1.86D-02
 IDIUse=3 WtCom= 9.52D-01 WtEn= 4.83D-02
 Coeff-Com: -0.565D-01 0.918D-01 0.364D+00 0.601D+00
 Coeff-En:   0.000D+00 0.000D+00 0.175D+00 0.825D+00
 Coeff:     -0.538D-01 0.874D-01 0.355D+00 0.612D+00
 Gap=     0.322 Goal=   None    Shift=    0.000
 RMSDP=1.04D-04 MaxDP=8.23D-03 DE=-1.03D-02 OVMax= 1.57D-02

 Cycle   5  Pass 0  IDiag  1:
 E= -191.605475003447     Delta-E=       -0.002822304454 Rises=F Damp=F
 DIIS: error= 3.32D-04 at cycle   5 NSaved=   5.
 NSaved= 5 IEnMin= 5 EnMin= -191.605475003447     IErMin= 5 ErrMin= 3.32D-04
 ErrMax= 3.32D-04  0.00D+00 EMaxC= 1.00D-01 BMatC= 1.21D-05 BMatP= 3.55D-03
 IDIUse=3 WtCom= 9.97D-01 WtEn= 3.32D-03
 Coeff-Com: -0.626D-02 0.701D-02 0.475D-01 0.115D+00 0.836D+00
 Coeff-En:   0.000D+00 0.000D+00 0.000D+00 0.000D+00 0.100D+01
 Coeff:     -0.624D-02 0.698D-02 0.473D-01 0.115D+00 0.837D+00
 Gap=     0.321 Goal=   None    Shift=    0.000
 RMSDP=8.77D-06 MaxDP=5.54D-04 DE=-2.82D-03 OVMax= 2.15D-03

 Initial convergence to 1.0D-05 achieved.  Increase integral accuracy.
 Cycle   6  Pass 1  IDiag  1:
 E= -191.605473651383     Delta-E=        0.000001352064 Rises=F Damp=F
 DIIS: error= 9.59D-05 at cycle   1 NSaved=   1.
 NSaved= 1 IEnMin= 1 EnMin= -191.605473651383     IErMin= 1 ErrMin= 9.59D-05
 ErrMax= 9.59D-05  0.00D+00 EMaxC= 1.00D-01 BMatC= 1.60D-06 BMatP= 1.60D-06
 IDIUse=1 WtCom= 1.00D+00 WtEn= 0.00D+00
 Coeff-Com:  0.100D+01
 Coeff:      0.100D+01
 Gap=     0.322 Goal=   None    Shift=    0.000
 RMSDP=8.77D-06 MaxDP=5.54D-04 DE= 1.35D-06 OVMax= 7.95D-04

 Cycle   7  Pass 1  IDiag  1:
 E= -191.605474966299     Delta-E=       -0.000001314915 Rises=F Damp=F
 DIIS: error= 6.77D-05 at cycle   2 NSaved=   2.
 NSaved= 2 IEnMin= 2 EnMin= -191.605474966299     IErMin= 2 ErrMin= 6.77D-05
 ErrMax= 6.77D-05  0.00D+00 EMaxC= 1.00D-01 BMatC= 8.63D-07 BMatP= 1.60D-06
 IDIUse=1 WtCom= 1.00D+00 WtEn= 0.00D+00
 Coeff-Com:  0.414D+00 0.586D+00
 Coeff:      0.414D+00 0.586D+00
 Gap=     0.322 Goal=   None    Shift=    0.000
 RMSDP=1.59D-06 MaxDP=9.05D-05 DE=-1.31D-06 OVMax= 3.88D-04

 Cycle   8  Pass 1  IDiag  1:
 E= -191.605475737199     Delta-E=       -0.000000770900 Rises=F Damp=F
 DIIS: error= 1.41D-05 at cycle   3 NSaved=   3.
 NSaved= 3 IEnMin= 3 EnMin= -191.605475737199     IErMin= 3 ErrMin= 1.41D-05
 ErrMax= 1.41D-05  0.00D+00 EMaxC= 1.00D-01 BMatC= 6.13D-08 BMatP= 8.63D-07
 IDIUse=1 WtCom= 1.00D+00 WtEn= 0.00D+00
 Coeff-Com:  0.362D-01 0.158D+00 0.806D+00
 Coeff:      0.362D-01 0.158D+00 0.806D+00
 Gap=     0.322 Goal=   None    Shift=    0.000
 RMSDP=1.39D-06 MaxDP=1.50D-04 DE=-7.71D-07 OVMax= 1.32D-04

 Cycle   9  Pass 1  IDiag  1:
 E= -191.605475796422     Delta-E=       -0.000000059223 Rises=F Damp=F
 DIIS: error= 1.89D-05 at cycle   4 NSaved=   4.
 NSaved= 4 IEnMin= 4 EnMin= -191.605475796422     IErMin= 3 ErrMin= 1.41D-05
 ErrMax= 1.89D-05  0.00D+00 EMaxC= 1.00D-01 BMatC= 2.40D-08 BMatP= 6.13D-08
 IDIUse=1 WtCom= 1.00D+00 WtEn= 0.00D+00
 Coeff-Com: -0.120D+00-0.102D+00 0.481D+00 0.742D+00
 Coeff:     -0.120D+00-0.102D+00 0.481D+00 0.742D+00
 Gap=     0.322 Goal=   None    Shift=    0.000
 RMSDP=6.23D-07 MaxDP=6.15D-05 DE=-5.92D-08 OVMax= 1.12D-04

 Cycle  10  Pass 1  IDiag  1:
 E= -191.605475827919     Delta-E=       -0.000000031497 Rises=F Damp=F
 DIIS: error= 1.77D-06 at cycle   5 NSaved=   5.
 NSaved= 5 IEnMin= 5 EnMin= -191.605475827919     IErMin= 5 ErrMin= 1.77D-06
 ErrMax= 1.77D-06  0.00D+00 EMaxC= 1.00D-01 BMatC= 9.89D-10 BMatP= 2.40D-08
 IDIUse=1 WtCom= 1.00D+00 WtEn= 0.00D+00
 Coeff-Com: -0.230D-01-0.276D-01 0.230D-01 0.193D+00 0.835D+00
 Coeff:     -0.230D-01-0.276D-01 0.230D-01 0.193D+00 0.835D+00
 Gap=     0.322 Goal=   None    Shift=    0.000
 RMSDP=1.40D-07 MaxDP=1.53D-05 DE=-3.15D-08 OVMax= 1.69D-05

 Cycle  11  Pass 1  IDiag  1:
 E= -191.605475828856     Delta-E=       -0.000000000937 Rises=F Damp=F
 DIIS: error= 6.49D-07 at cycle   6 NSaved=   6.
 NSaved= 6 IEnMin= 6 EnMin= -191.605475828856     IErMin= 6 ErrMin= 6.49D-07
 ErrMax= 6.49D-07  0.00D+00 EMaxC= 1.00D-01 BMatC= 1.26D-10 BMatP= 9.89D-10
 IDIUse=1 WtCom= 1.00D+00 WtEn= 0.00D+00
 Coeff-Com:  0.944D-02 0.454D-02-0.721D-01-0.201D-01 0.269D+00 0.809D+00
 Coeff:      0.944D-02 0.454D-02-0.721D-01-0.201D-01 0.269D+00 0.809D+00
 Gap=     0.322 Goal=   None    Shift=    0.000
 RMSDP=4.41D-08 MaxDP=4.21D-06 DE=-9.37D-10 OVMax= 3.61D-06

 Cycle  12  Pass 1  IDiag  1:
 E= -191.605475828983     Delta-E=       -0.000000000127 Rises=F Damp=F
 DIIS: error= 2.52D-07 at cycle   7 NSaved=   7.
 NSaved= 7 IEnMin= 7 EnMin= -191.605475828983     IErMin= 7 ErrMin= 2.52D-07
 ErrMax= 2.52D-07  0.00D+00 EMaxC= 1.00D-01 BMatC= 7.16D-12 BMatP= 1.26D-10
 IDIUse=1 WtCom= 1.00D+00 WtEn= 0.00D+00
 Coeff-Com:  0.435D-02 0.284D-02-0.261D-01-0.124D-01 0.499D-01 0.274D+00
 Coeff-Com:  0.707D+00
 Coeff:      0.435D-02 0.284D-02-0.261D-01-0.124D-01 0.499D-01 0.274D+00
 Coeff:      0.707D+00
 Gap=     0.322 Goal=   None    Shift=    0.000
 RMSDP=6.42D-09 MaxDP=4.19D-07 DE=-1.27D-10 OVMax= 1.98D-06

 SCF Done:  E(RB2PLYPD3) =  -191.605475829     A.U. after   12 cycles
            NFock= 12  Conv=0.64D-08     -V/T= 2.0028
 KE= 1.910691082451D+02 PE=-6.555847820356D+02 EE= 1.691536866590D+02
 Leave Link  502 at Wed Aug 26 09:35:42 2020, MaxMem=  2097152000 cpu:       341.3
 (Enter /opt/cluster/programs/g09/g09_d.01/g09/l801.exe)
 DoSCS=T DFT=T ScalE2(SS,OS)=  0.270000  0.270000
 ExpMin= 7.60D-02 ExpMax= 1.17D+05 ExpMxC= 1.13D+03 IAcc=3 IRadAn=         5 AccDes= 0.00D+00
 HarFok:  IExCor=  205 AccDes= 0.00D+00 IRadAn=         5 IDoV=-2 UseB2=F ITyADJ=14
 ICtDFT= 12500011 ScaDFX=  1.000000  1.000000  1.000000  1.000000
 Largest valence mixing into a core orbital is  1.18D-04
 Largest core mixing into a valence orbital is  1.79D-05
 Range of M.O.s used for correlation:     5   348
 NBasis=   348 NAE=    15 NBE=    15 NFC=     4 NFV=     0
 NROrb=    344 NOA=    11 NOB=    11 NVA=   333 NVB=   333

 **** Warning!!: The largest alpha MO coefficient is  0.25726190D+02

 Leave Link  801 at Wed Aug 26 09:35:43 2020, MaxMem=  2097152000 cpu:         0.9
 (Enter /opt/cluster/programs/g09/g09_d.01/g09/l906.exe)
 DoSCS=T DFT=T ScalE2(SS,OS)=  0.270000  0.270000
 FulOut=F Deriv=F AODrv=F NAtomX=     8
   MMem=        1190  MDisk=          11 MDiskD=          11
  W3Min=     1567764 MinDsk=     2827057 NBas6D=         428
 NBas2D=       93150    NTT=       91806    LW2=     4508827
    MDV=  2096570550 MDiskM=       10875 NBas2p=       89466
 Fully direct method using O(OVN) memory.
 IMap=   1   2   3   4   5   6   7   8   9  10  11
 JobTyp=1 Pass  1:  I=   1 to  11 NPSUse=  8 ParTrn=T ParDer=T DoDerP=F.
 Spin components of T(2) and E(2):
     alpha-alpha T2 =       0.4393900222D-01 E2=     -0.2959220655D-01
     alpha-beta  T2 =       0.2667046611D+00 E2=     -0.1884432470D+00
     beta-beta   T2 =       0.4393900222D-01 E2=     -0.2959220655D-01
 The integrals were generated   1 times.
 E2(B2PLYPD3) =    -0.2476276601D+00 E(B2PLYPD3) =    -0.19185310348904D+03
 Leave Link  906 at Wed Aug 26 09:36:40 2020, MaxMem=  2097152000 cpu:       461.3
 (Enter /opt/cluster/programs/g09/g09_d.01/g09/l601.exe)
 Copying SCF densities to generalized density rwf, IOpCl= 0 IROHF=0.

 **********************************************************************

            Population analysis using the SCF density.

 **********************************************************************

 Orbital symmetries:
       Occupied  (A) (A) (A) (A) (A) (A) (A) (A) (A) (A) (A) (A)
                 (A) (A) (A)
       Virtual   (A) (A) (A) (A) (A) (A) (A) (A) (A) (A) (A) (A)
                 (A) (A) (A) (A) (A) (A) (A) (A) (A) (A) (A) (A)
                 (A) (A) (A) (A) (A) (A) (A) (A) (A) (A) (A) (A)
                 (A) (A) (A) (A) (A) (A) (A) (A) (A) (A) (A) (A)
                 (A) (A) (A) (A) (A) (A) (A) (A) (A) (A) (A) (A)
                 (A) (A) (A) (A) (A) (A) (A) (A) (A) (A) (A) (A)
                 (A) (A) (A) (A) (A) (A) (A) (A) (A) (A) (A) (A)
                 (A) (A) (A) (A) (A) (A) (A) (A) (A) (A) (A) (A)
                 (A) (A) (A) (A) (A) (A) (A) (A) (A) (A) (A) (A)
                 (A) (A) (A) (A) (A) (A) (A) (A) (A) (A) (A) (A)
                 (A) (A) (A) (A) (A) (A) (A) (A) (A) (A) (A) (A)
                 (A) (A) (A) (A) (A) (A) (A) (A) (A) (A) (A) (A)
                 (A) (A) (A) (A) (A) (A) (A) (A) (A) (A) (A) (A)
                 (A) (A) (A) (A) (A) (A) (A) (A) (A) (A) (A) (A)
                 (A) (A) (A) (A) (A) (A) (A) (A) (A) (A) (A) (A)
                 (A) (A) (A) (A) (A) (A) (A) (A) (A) (A) (A) (A)
                 (A) (A) (A) (A) (A) (A) (A) (A) (A) (A) (A) (A)
                 (A) (A) (A) (A) (A) (A) (A) (A) (A) (A) (A) (A)
                 (A) (A) (A) (A) (A) (A) (A) (A) (A) (A) (A) (A)
                 (A) (A) (A) (A) (A) (A) (A) (A) (A) (A) (A) (A)
                 (A) (A) (A) (A) (A) (A) (A) (A) (A) (A) (A) (A)
                 (A) (A) (A) (A) (A) (A) (A) (A) (A) (A) (A) (A)
                 (A) (A) (A) (A) (A) (A) (A) (A) (A) (A) (A) (A)
                 (A) (A) (A) (A) (A) (A) (A) (A) (A) (A) (A) (A)
                 (A) (A) (A) (A) (A) (A) (A) (A) (A) (A) (A) (A)
                 (A) (A) (A) (A) (A) (A) (A) (A) (A) (A) (A) (A)
                 (A) (A) (A) (A) (A) (A) (A) (A) (A) (A) (A) (A)
                 (A) (A) (A) (A) (A) (A) (A) (A) (A)
 The electronic state is 1-A.
 Alpha  occ. eigenvalues --  -19.73240 -10.72646 -10.64813 -10.63336  -1.19499
 Alpha  occ. eigenvalues --   -0.93766  -0.75380  -0.67438  -0.56652  -0.56294
 Alpha  occ. eigenvalues --   -0.50523  -0.47616  -0.46693  -0.34878  -0.33951
 Alpha virt. eigenvalues --   -0.01771   0.05758   0.07085   0.08092   0.09798
 Alpha virt. eigenvalues --    0.12667   0.13709   0.15242   0.17849   0.19850
 Alpha virt. eigenvalues --    0.20149   0.21353   0.25560   0.26373   0.28722
 Alpha virt. eigenvalues --    0.32006   0.32725   0.35225   0.37416   0.38851
 Alpha virt. eigenvalues --    0.39893   0.39997   0.43953   0.44239   0.46710
 Alpha virt. eigenvalues --    0.47267   0.49176   0.53748   0.54114   0.57665
 Alpha virt. eigenvalues --    0.60836   0.64564   0.65784   0.66630   0.71263
 Alpha virt. eigenvalues --    0.74614   0.76706   0.78212   0.79628   0.81422
 Alpha virt. eigenvalues --    0.81916   0.82830   0.83779   0.84353   0.87142
 Alpha virt. eigenvalues --    0.88854   0.91576   0.92820   0.93744   0.96031
 Alpha virt. eigenvalues --    0.97123   0.97703   1.01329   1.02614   1.07857
 Alpha virt. eigenvalues --    1.08053   1.12259   1.13161   1.17997   1.20279
 Alpha virt. eigenvalues --    1.22448   1.27855   1.29204   1.32991   1.39592
 Alpha virt. eigenvalues --    1.41072   1.47094   1.47647   1.54658   1.57800
 Alpha virt. eigenvalues --    1.59989   1.62106   1.64296   1.67316   1.70166
 Alpha virt. eigenvalues --    1.73851   1.76076   1.77392   1.82393   1.84653
 Alpha virt. eigenvalues --    1.86312   1.91176   1.91431   1.92933   1.94380
 Alpha virt. eigenvalues --    1.95689   1.98211   2.00137   2.01844   2.02961
 Alpha virt. eigenvalues --    2.07280   2.10372   2.12661   2.13651   2.14132
 Alpha virt. eigenvalues --    2.16807   2.19204   2.20844   2.24615   2.26585
 Alpha virt. eigenvalues --    2.29809   2.33016   2.34473   2.38915   2.40488
 Alpha virt. eigenvalues --    2.45384   2.47222   2.49901   2.50577   2.53103
 Alpha virt. eigenvalues --    2.55552   2.56963   2.59522   2.62082   2.65414
 Alpha virt. eigenvalues --    2.66204   2.67511   2.68975   2.72262   2.74548
 Alpha virt. eigenvalues --    2.75739   2.79863   2.84232   2.86163   2.89297
 Alpha virt. eigenvalues --    2.91665   2.95461   3.00192   3.04398   3.09273
 Alpha virt. eigenvalues --    3.16474   3.18871   3.23176   3.29357   3.32069
 Alpha virt. eigenvalues --    3.35453   3.42845   3.44506   3.45832   3.50260
 Alpha virt. eigenvalues --    3.53151   3.53271   3.59878   3.64588   3.67253
 Alpha virt. eigenvalues --    3.70003   3.73651   3.78140   3.84829   3.90980
 Alpha virt. eigenvalues --    3.95628   3.99471   4.05548   4.06372   4.10364
 Alpha virt. eigenvalues --    4.11697   4.18177   4.24671   4.27451   4.31052
 Alpha virt. eigenvalues --    4.38151   4.43664   4.55004   4.60428   4.63452
 Alpha virt. eigenvalues --    4.67640   4.87487   4.88513   4.94394   4.99539
 Alpha virt. eigenvalues --    5.01521   5.03689   5.10710   5.11464   5.16511
 Alpha virt. eigenvalues --    5.20706   5.24895   5.27613   5.35794   5.42668
 Alpha virt. eigenvalues --    5.46391   5.51239   5.54124   5.55706   5.61481
 Alpha virt. eigenvalues --    5.63244   5.69630   5.72603   5.73362   5.78573
 Alpha virt. eigenvalues --    5.80930   5.85218   5.88813   5.90435   5.90718
 Alpha virt. eigenvalues --    5.95323   5.97577   5.99546   6.04244   6.06589
 Alpha virt. eigenvalues --    6.08897   6.14495   6.15014   6.18096   6.19993
 Alpha virt. eigenvalues --    6.21714   6.22442   6.25110   6.26965   6.29741
 Alpha virt. eigenvalues --    6.34229   6.38970   6.40727   6.41343   6.44152
 Alpha virt. eigenvalues --    6.49002   6.51891   6.53741   6.54742   6.65138
 Alpha virt. eigenvalues --    6.66589   6.71290   6.75805   6.77854   6.84293
 Alpha virt. eigenvalues --    6.84718   6.91494   6.93231   6.99538   7.05802
 Alpha virt. eigenvalues --    7.09172   7.11473   7.14462   7.16156   7.21861
 Alpha virt. eigenvalues --    7.32668   7.34934   7.43782   7.47264   7.51657
 Alpha virt. eigenvalues --    7.54741   7.57909   7.62507   7.65009   7.68256
 Alpha virt. eigenvalues --    7.69813   7.72596   7.75222   7.78691   7.83840
 Alpha virt. eigenvalues --    7.86472   7.90220   7.93494   8.02346   8.05100
 Alpha virt. eigenvalues --    8.07130   8.09209   8.18039   8.19620   8.20980
 Alpha virt. eigenvalues --    8.24278   8.28160   8.30413   8.32728   8.33864
 Alpha virt. eigenvalues --    8.36495   8.45122   8.47272   8.54037   8.57900
 Alpha virt. eigenvalues --    8.59845   8.62175   8.71011   8.76805   8.81990
 Alpha virt. eigenvalues --    8.87540   8.90170   8.99158   9.01999   9.05402
 Alpha virt. eigenvalues --    9.07828   9.08099   9.15543   9.25597   9.35235
 Alpha virt. eigenvalues --    9.38410   9.45660   9.56040   9.58243   9.66565
 Alpha virt. eigenvalues --    9.74434   9.79705   9.90675   9.95949  10.01313
 Alpha virt. eigenvalues --   10.07098  10.20393  10.23225  10.32023  10.42562
 Alpha virt. eigenvalues --   10.50987  10.58153  10.67875  10.89327  10.91276
 Alpha virt. eigenvalues --   11.02941  11.24055  11.27985  11.29727  11.58481
 Alpha virt. eigenvalues --   11.65547  11.70694  11.86739  12.03409  12.04048
 Alpha virt. eigenvalues --   12.13148  12.33418  12.37572  12.49902  12.89014
 Alpha virt. eigenvalues --   13.14617  13.35485  13.76338  14.35091  14.66040
 Alpha virt. eigenvalues --   28.63558  28.89781  29.60658  48.63365 148.20847
 Alpha virt. eigenvalues --  148.48315 149.24032 254.39238
          Condensed to atoms (all electrons):
               1          2          3          4          5          6
     1  C    4.520912   0.607486   0.356698  -0.054192  -0.031114  -0.005502
     2  O    0.607486   7.877555  -0.087651   0.007380   0.002282   0.000471
     3  C    0.356698  -0.087651   5.150191   0.477706   0.377363  -0.050439
     4  C   -0.054192   0.007380   0.477706   4.865504  -0.045235   0.426274
     5  H   -0.031114   0.002282   0.377363  -0.045235   0.582432   0.006261
     6  H   -0.005502   0.000471  -0.050439   0.426274   0.006261   0.580382
     7  H    0.002576  -0.000469  -0.031808   0.418111  -0.005441  -0.043201
     8  H    0.448542  -0.064055  -0.165280   0.027564   0.006517   0.005893
               7          8
     1  C    0.002576   0.448542
     2  O   -0.000469  -0.064055
     3  C   -0.031808  -0.165280
     4  C    0.418111   0.027564
     5  H   -0.005441   0.006517
     6  H   -0.043201   0.005893
     7  H    0.566278  -0.000443
     8  H   -0.000443   0.684156
 Mulliken charges:
               1
     1  C    0.154596
     2  O   -0.343000
     3  C   -0.026781
     4  C   -0.123113
     5  H    0.106936
     6  H    0.079860
     7  H    0.094398
     8  H    0.057105
 Sum of Mulliken charges =   0.00000
 Mulliken charges with hydrogens summed into heavy atoms:
               1
     1  C    0.211701
     2  O   -0.343000
     3  C    0.080155
     4  C    0.051145
 Electronic spatial extent (au):  <R**2>=            295.0491
 Charge=              0.0000 electrons
 Dipole moment (field-independent basis, Debye):
    X=             -3.4904    Y=              0.7135    Z=              0.2284  Tot=              3.5699
 Quadrupole moment (field-independent basis, Debye-Ang):
   XX=            -27.2673   YY=            -21.9705   ZZ=            -25.1146
   XY=              0.9781   XZ=             -0.0079   YZ=             -0.1368
 Traceless Quadrupole moment (field-independent basis, Debye-Ang):
   XX=             -2.4832   YY=              2.8136   ZZ=             -0.3304
   XY=              0.9781   XZ=             -0.0079   YZ=             -0.1368
 Octapole moment (field-independent basis, Debye-Ang**2):
  XXX=            -15.2006  YYY=             -0.4743  ZZZ=              0.1789  XYY=              0.0309
  XXY=              0.2346  XXZ=              0.4766  XZZ=              4.0609  YZZ=             -0.1190
  YYZ=              0.3992  XYZ=              0.0617
 Hexadecapole moment (field-independent basis, Debye-Ang**3):
 XXXX=           -296.8177 YYYY=            -56.3254 ZZZZ=            -27.2395 XXXY=              2.8128
 XXXZ=             -0.8851 YYYX=             -0.3376 YYYZ=             -0.4556 ZZZX=             -0.4811
 ZZZY=             -0.1498 XXYY=            -57.8967 XXZZ=            -56.3854 YYZZ=            -15.4546
 XXYZ=             -0.1120 YYXZ=             -0.3555 ZZXY=             -0.5158
 N-N= 1.037565113025D+02 E-N=-6.555847656873D+02  KE= 1.910691082451D+02
 Leave Link  601 at Wed Aug 26 09:36:40 2020, MaxMem=  2097152000 cpu:         0.6
 (Enter /opt/cluster/programs/g09/g09_d.01/g09/l9999.exe)
 1\1\GINC-NODE19\SP\RB2PLYPD3-FC\def2QZVP\C3H4O1\BOITTIER\26-Aug-2020\0
 \\#p B2PLYPD3/Def2QZVP\\acrolein\\0,1\C,0,-5.015827,-1.3718,0.926991\O
 ,0,-3.944129,-0.878139,0.633237\C,0,-5.18519,-2.804493,1.151288\C,0,-6
 .379063,-3.321229,1.373241\H,0,-4.381394,-3.41357,1.244976\H,0,-7.2152
 65,-2.704419,1.423032\H,0,-6.548779,-4.376388,1.617618\H,0,-6.049162,-
 0.780277,1.00707\\Version=ES64L-G09RevD.01\State=1-A\HF=-191.6054758\M
 P2=-191.8531035\RMSD=6.425e-09\PG=C01 [X(C3H4O1)]\\@


 WHEN YOU REACH FOR THE STARS, YOU MAY NOT QUITE GET ONE,
 BUT YOU WON'T COME UP WITH A HANDFUL OF MUD, EITHER.

                                         -- LEO BURNETT (AD AGENCY HEAD)
 Job cpu time:       0 days  0 hours 13 minutes 36.4 seconds.
 File lengths (MBytes):  RWF=     49 Int=      0 D2E=      0 Chk=      7 Scr=      1
 Normal termination of Gaussian 09 at Wed Aug 26 09:36:41 2020.
