 Entering Gaussian System, Link 0=/opt/cluster/programs/g09/g09_d.01/g09//g09
 Input=/home/boittier/MDCM/nms_sampling/acrolein_geom.xyz.dir/energies/acrolein_1839_energy.com
 Output=/scratch/boittier/acrolein_1839_energy/acrolein_1839_energy.out
 Initial command:
 /opt/cluster/programs/g09/g09_d.01/g09/l1.exe "/scratch/boittier/acrolein_1839_energy/Gau-244383.inp" -scrdir="/scratch/boittier/acrolein_1839_energy/"
 Entering Link 1 = /opt/cluster/programs/g09/g09_d.01/g09/l1.exe PID=    244384.
  
 Copyright (c) 1988,1990,1992,1993,1995,1998,2003,2009,2013,
            Gaussian, Inc.  All Rights Reserved.
  
 This is part of the Gaussian(R) 09 program.  It is based on
 the Gaussian(R) 03 system (copyright 2003, Gaussian, Inc.),
 the Gaussian(R) 98 system (copyright 1998, Gaussian, Inc.),
 the Gaussian(R) 94 system (copyright 1995, Gaussian, Inc.),
 the Gaussian 92(TM) system (copyright 1992, Gaussian, Inc.),
 the Gaussian 90(TM) system (copyright 1990, Gaussian, Inc.),
 the Gaussian 88(TM) system (copyright 1988, Gaussian, Inc.),
 the Gaussian 86(TM) system (copyright 1986, Carnegie Mellon
 University), and the Gaussian 82(TM) system (copyright 1983,
 Carnegie Mellon University). Gaussian is a federally registered
 trademark of Gaussian, Inc.
  
 This software contains proprietary and confidential information,
 including trade secrets, belonging to Gaussian, Inc.
  
 This software is provided under written license and may be
 used, copied, transmitted, or stored only in accord with that
 written license.
  
 The following legend is applicable only to US Government
 contracts under FAR:
  
                    RESTRICTED RIGHTS LEGEND
  
 Use, reproduction and disclosure by the US Government is
 subject to restrictions as set forth in subparagraphs (a)
 and (c) of the Commercial Computer Software - Restricted
 Rights clause in FAR 52.227-19.
  
 Gaussian, Inc.
 340 Quinnipiac St., Bldg. 40, Wallingford CT 06492
  
  
 ---------------------------------------------------------------
 Warning -- This program may not be used in any manner that
 competes with the business of Gaussian, Inc. or will provide
 assistance to any competitor of Gaussian, Inc.  The licensee
 of this program is prohibited from giving any competitor of
 Gaussian, Inc. access to this program.  By using this program,
 the user acknowledges that Gaussian, Inc. is engaged in the
 business of creating and licensing software in the field of
 computational chemistry and represents and warrants to the
 licensee that it is not a competitor of Gaussian, Inc. and that
 it will not use this program in any manner prohibited above.
 ---------------------------------------------------------------
  

 Cite this work as:
 Gaussian 09, Revision D.01,
 M. J. Frisch, G. W. Trucks, H. B. Schlegel, G. E. Scuseria, 
 M. A. Robb, J. R. Cheeseman, G. Scalmani, V. Barone, B. Mennucci, 
 G. A. Petersson, H. Nakatsuji, M. Caricato, X. Li, H. P. Hratchian, 
 A. F. Izmaylov, J. Bloino, G. Zheng, J. L. Sonnenberg, M. Hada, 
 M. Ehara, K. Toyota, R. Fukuda, J. Hasegawa, M. Ishida, T. Nakajima, 
 Y. Honda, O. Kitao, H. Nakai, T. Vreven, J. A. Montgomery, Jr., 
 J. E. Peralta, F. Ogliaro, M. Bearpark, J. J. Heyd, E. Brothers, 
 K. N. Kudin, V. N. Staroverov, T. Keith, R. Kobayashi, J. Normand, 
 K. Raghavachari, A. Rendell, J. C. Burant, S. S. Iyengar, J. Tomasi, 
 M. Cossi, N. Rega, J. M. Millam, M. Klene, J. E. Knox, J. B. Cross, 
 V. Bakken, C. Adamo, J. Jaramillo, R. Gomperts, R. E. Stratmann, 
 O. Yazyev, A. J. Austin, R. Cammi, C. Pomelli, J. W. Ochterski, 
 R. L. Martin, K. Morokuma, V. G. Zakrzewski, G. A. Voth, 
 P. Salvador, J. J. Dannenberg, S. Dapprich, A. D. Daniels, 
 O. Farkas, J. B. Foresman, J. V. Ortiz, J. Cioslowski, 
 and D. J. Fox, Gaussian, Inc., Wallingford CT, 2013.
 
 ******************************************
 Gaussian 09:  ES64L-G09RevD.01 24-Apr-2013
                26-Aug-2020 
 ******************************************
 %chk=/home/boittier/MDCM/nms_sampling/acrolein_geom.xyz.dir/acrolein_1839.chk
 %nproc=8
 Will use up to    8 processors via shared memory.
 %mem=16000MB
 --------------------
 #p B2PLYPD3/Def2QZVP
 --------------------
 1/38=1/1;
 2/12=2,17=6,18=5,40=1/2;
 3/5=45,7=101,11=9,16=1,25=1,30=1,74=-60/1,2,3;
 4//1;
 5/5=2,38=5/2;
 8/10=1/1;
 9/16=-3/6;
 6/7=2,8=2,9=2,10=2/1;
 99/5=1,9=1/99;
 Leave Link    1 at Wed Aug 26 10:42:01 2020, MaxMem=  2097152000 cpu:         0.4
 (Enter /opt/cluster/programs/g09/g09_d.01/g09/l101.exe)
 --------
 acrolein
 --------
 Symbolic Z-matrix:
 Charge =  0 Multiplicity = 1
 C                    -4.98556  -1.38887   0.81309 
 O                    -3.94408  -0.84733   0.72805 
 C                    -5.1906   -2.86982   1.1079 
 C                    -6.43065  -3.28142   1.47238 
 H                    -4.28782  -3.55029   0.82798 
 H                    -7.27942  -2.67709   1.49087 
 H                    -6.49897  -4.20505   1.55766 
 H                    -5.84208  -0.83862   0.65031 
 
 NAtoms=      8 NQM=        8 NQMF=       0 NMMI=      0 NMMIF=      0
                NMic=       0 NMicF=      0.
                    Isotopes and Nuclear Properties:
 (Nuclear quadrupole moments (NQMom) in fm**2, nuclear magnetic moments (NMagM)
  in nuclear magnetons)

  Atom         1           2           3           4           5           6           7           8
 IAtWgt=          12          16          12          12           1           1           1           1
 AtmWgt=  12.0000000  15.9949146  12.0000000  12.0000000   1.0078250   1.0078250   1.0078250   1.0078250
 NucSpn=           0           0           0           0           1           1           1           1
 AtZEff=   0.0000000   0.0000000   0.0000000   0.0000000   0.0000000   0.0000000   0.0000000   0.0000000
 NQMom=    0.0000000   0.0000000   0.0000000   0.0000000   0.0000000   0.0000000   0.0000000   0.0000000
 NMagM=    0.0000000   0.0000000   0.0000000   0.0000000   2.7928460   2.7928460   2.7928460   2.7928460
 AtZNuc=   6.0000000   8.0000000   6.0000000   6.0000000   1.0000000   1.0000000   1.0000000   1.0000000
 Leave Link  101 at Wed Aug 26 10:42:03 2020, MaxMem=  2097152000 cpu:         0.5
 (Enter /opt/cluster/programs/g09/g09_d.01/g09/l202.exe)
                          Input orientation:                          
 ---------------------------------------------------------------------
 Center     Atomic      Atomic             Coordinates (Angstroms)
 Number     Number       Type             X           Y           Z
 ---------------------------------------------------------------------
      1          6           0       -4.985561   -1.388872    0.813094
      2          8           0       -3.944083   -0.847332    0.728054
      3          6           0       -5.190598   -2.869820    1.107902
      4          6           0       -6.430650   -3.281417    1.472375
      5          1           0       -4.287816   -3.550291    0.827982
      6          1           0       -7.279423   -2.677090    1.490865
      7          1           0       -6.498968   -4.205049    1.557655
      8          1           0       -5.842076   -0.838616    0.650306
 ---------------------------------------------------------------------
                    Distance matrix (angstroms):
                    1          2          3          4          5
     1  C    0.000000
     2  O    1.176934   0.000000
     3  C    1.523863   2.405939   0.000000
     4  C    2.470761   3.558342   1.356459   0.000000
     5  H    2.271300   2.726559   1.164651   2.253724   0.000000
     6  H    2.716741   3.879998   2.132368   1.042098   3.186159
     7  H    3.282625   4.299993   1.922744   0.930073   2.418744
     8  H    1.030970   1.899605   2.181652   2.643765   3.130571
                    6          7          8
     6  H    0.000000
     7  H    1.717041   0.000000
     8  H    2.480422   3.547909   0.000000
 Stoichiometry    C3H4O
 Framework group  C1[X(C3H4O)]
 Deg. of freedom    18
 Full point group                 C1      NOp   1
 Largest Abelian subgroup         C1      NOp   1
 Largest concise Abelian subgroup C1      NOp   1
                         Standard orientation:                         
 ---------------------------------------------------------------------
 Center     Atomic      Atomic             Coordinates (Angstroms)
 Number     Number       Type             X           Y           Z
 ---------------------------------------------------------------------
      1          6           0        0.694181   -0.332118    0.075989
      2          8           0        1.779996    0.093242   -0.082904
      3          6           0       -0.591350    0.484675    0.026813
      4          6           0       -1.767559   -0.183468   -0.073688
      5          1           0       -0.454658    1.619412    0.250642
      6          1           0       -1.870787   -1.219895   -0.040075
      7          1           0       -2.510361    0.373424   -0.017544
      8          1           0        0.584203   -1.333422    0.295521
 ---------------------------------------------------------------------
 Rotational constants (GHZ):     45.2968925      4.6508093      4.2462248
 Leave Link  202 at Wed Aug 26 10:42:03 2020, MaxMem=  2097152000 cpu:         0.0
 (Enter /opt/cluster/programs/g09/g09_d.01/g09/l301.exe)
 Standard basis: def2QZVP (5D, 7F)
 Ernie: Thresh=  0.10000D-02 Tol=  0.10000D-05 Strict=F.
 There are   428 symmetry adapted cartesian basis functions of A   symmetry.
 There are   348 symmetry adapted basis functions of A   symmetry.
   348 basis functions,   520 primitive gaussians,   428 cartesian basis functions
    15 alpha electrons       15 beta electrons
       nuclear repulsion energy       103.6206894749 Hartrees.
 IExCor=  419 DFT=T Ex+Corr=B2PLYPD3 ExCW=0 ScaHFX=  0.530000
 ScaDFX=  0.470000  0.470000  0.730000  0.730000 ScalE2=  0.270000  0.270000
 IRadAn=      0 IRanWt=     -1 IRanGd=            0 ICorTp=0 IEmpDi=141
 NAtoms=    8 NActive=    8 NUniq=    8 SFac= 1.00D+00 NAtFMM=   60 NAOKFM=F Big=F
 Integral buffers will be    131072 words long.
 Regular integral format.
 Two-electron integral symmetry is turned on.
 R6Disp:  Grimme-D3(BJ) Dispersion energy=       -0.0035879379 Hartrees.
 Nuclear repulsion after empirical dispersion term =      103.6171015371 Hartrees.
 Leave Link  301 at Wed Aug 26 10:42:04 2020, MaxMem=  2097152000 cpu:         0.4
 (Enter /opt/cluster/programs/g09/g09_d.01/g09/l302.exe)
 NPDir=0 NMtPBC=     1 NCelOv=     1 NCel=       1 NClECP=     1 NCelD=      1
         NCelK=      1 NCelE2=     1 NClLst=     1 CellRange=     0.0.
 One-electron integrals computed using PRISM.
   1 Symmetry operations used in ECPInt.
 ECPInt:  NShTT=    5886 NPrTT=   14376 LenC2=    5783 LenP2D=   12186.
 LDataN:  DoStor=T MaxTD1= 8 Len=  415
 NBasis=   348 RedAO= T EigKep=  6.19D-05  NBF=   348
 NBsUse=   348 1.00D-06 EigRej= -1.00D+00 NBFU=   348
 Precomputing XC quadrature grid using
 IXCGrd= 4 IRadAn=           0 IRanWt=          -1 IRanGd=           0 AccXCQ= 0.00D+00.
 Generated NRdTot=       0 NPtTot=           0 NUsed=           0 NTot=          32
 NSgBfM=   428   428   428   428   428 MxSgAt=     8 MxSgA2=     8.
 Leave Link  302 at Wed Aug 26 10:42:04 2020, MaxMem=  2097152000 cpu:         3.1
 (Enter /opt/cluster/programs/g09/g09_d.01/g09/l303.exe)
 DipDrv:  MaxL=1.
 Leave Link  303 at Wed Aug 26 10:42:04 2020, MaxMem=  2097152000 cpu:         0.3
 (Enter /opt/cluster/programs/g09/g09_d.01/g09/l401.exe)
 ExpMin= 7.60D-02 ExpMax= 1.17D+05 ExpMxC= 1.13D+03 IAcc=2 IRadAn=         4 AccDes= 0.00D+00
 Harris functional with IExCor=  419 and IRadAn=       4 diagonalized for initial guess.
 HarFok:  IExCor=  419 AccDes= 0.00D+00 IRadAn=         4 IDoV= 1 UseB2=F ITyADJ=14
 ICtDFT=  3500011 ScaDFX=  1.000000  1.000000  1.000000  1.000000
 FoFCou: FMM=F IPFlag=           0 FMFlag=      100000 FMFlg1=           0
         NFxFlg=           0 DoJE=T BraDBF=F KetDBF=T FulRan=T
         wScrn=  0.000000 ICntrl=     500 IOpCl=  0 I1Cent=   200000004 NGrid=           0
         NMat0=    1 NMatS0=      1 NMatT0=    0 NMatD0=    1 NMtDS0=    0 NMtDT0=    0
 Petite list used in FoFCou.
 Harris En= -192.025777644323    
 JPrj=0 DoOrth=F DoCkMO=F.
 Leave Link  401 at Wed Aug 26 10:42:05 2020, MaxMem=  2097152000 cpu:         7.0
 (Enter /opt/cluster/programs/g09/g09_d.01/g09/l502.exe)
 Closed shell SCF:
 Using DIIS extrapolation, IDIIS=  1040.
 Integral symmetry usage will be decided dynamically.
 Keep R1 ints in memory in canonical form, NReq=1883905047.
 IVT=      574566 IEndB=      574566 NGot=  2097152000 MDV=   252723534
 LenX=   252723534 LenY=   252539909
 Requested convergence on RMS density matrix=1.00D-08 within 128 cycles.
 Requested convergence on MAX density matrix=1.00D-06.
 Requested convergence on             energy=1.00D-06.
 No special actions if energy rises.
 FoFCou: FMM=F IPFlag=           0 FMFlag=           0 FMFlg1=           0
         NFxFlg=           0 DoJE=F BraDBF=F KetDBF=F FulRan=T
         wScrn=  0.000000 ICntrl=     600 IOpCl=  0 I1Cent=           0 NGrid=           0
         NMat0=    1 NMatS0=  60726 NMatT0=    0 NMatD0=    1 NMtDS0=    0 NMtDT0=    0
 Symmetry not used in FoFCou.
 Integral accuracy reduced to 1.0D-05 until final iterations.

 Cycle   1  Pass 0  IDiag  1:
 E= -191.422309212110    
 DIIS: error= 2.16D-02 at cycle   1 NSaved=   1.
 NSaved= 1 IEnMin= 1 EnMin= -191.422309212110     IErMin= 1 ErrMin= 2.16D-02
 ErrMax= 2.16D-02  0.00D+00 EMaxC= 1.00D-01 BMatC= 2.75D-01 BMatP= 2.75D-01
 IDIUse=3 WtCom= 7.84D-01 WtEn= 2.16D-01
 Coeff-Com:  0.100D+01
 Coeff-En:   0.100D+01
 Coeff:      0.100D+01
 Gap=     0.314 Goal=   None    Shift=    0.000
 GapD=    0.314 DampG=1.000 DampE=0.500 DampFc=0.5000 IDamp=-1.
 Damping current iteration by 5.00D-01
 RMSDP=1.61D-03 MaxDP=1.68D-01              OVMax= 1.85D-01

 Cycle   2  Pass 0  IDiag  1:
 E= -191.501444345399     Delta-E=       -0.079135133289 Rises=F Damp=T
 DIIS: error= 1.09D-02 at cycle   2 NSaved=   2.
 NSaved= 2 IEnMin= 2 EnMin= -191.501444345399     IErMin= 2 ErrMin= 1.09D-02
 ErrMax= 1.09D-02  0.00D+00 EMaxC= 1.00D-01 BMatC= 3.42D-02 BMatP= 2.75D-01
 IDIUse=3 WtCom= 8.91D-01 WtEn= 1.09D-01
 Coeff-Com: -0.176D+00 0.118D+01
 Coeff-En:   0.000D+00 0.100D+01
 Coeff:     -0.157D+00 0.116D+01
 Gap=     0.350 Goal=   None    Shift=    0.000
 RMSDP=4.62D-04 MaxDP=4.53D-02 DE=-7.91D-02 OVMax= 1.04D-01

 Cycle   3  Pass 0  IDiag  1:
 E= -191.570353525606     Delta-E=       -0.068909180207 Rises=F Damp=F
 DIIS: error= 6.20D-03 at cycle   3 NSaved=   3.
 NSaved= 3 IEnMin= 3 EnMin= -191.570353525606     IErMin= 3 ErrMin= 6.20D-03
 ErrMax= 6.20D-03  0.00D+00 EMaxC= 1.00D-01 BMatC= 1.38D-02 BMatP= 3.42D-02
 IDIUse=3 WtCom= 9.38D-01 WtEn= 6.20D-02
 Coeff-Com: -0.178D+00 0.493D+00 0.685D+00
 Coeff-En:   0.000D+00 0.000D+00 0.100D+01
 Coeff:     -0.167D+00 0.462D+00 0.705D+00
 Gap=     0.330 Goal=   None    Shift=    0.000
 RMSDP=1.94D-04 MaxDP=1.03D-02 DE=-6.89D-02 OVMax= 4.52D-02

 Cycle   4  Pass 0  IDiag  1:
 E= -191.578261375379     Delta-E=       -0.007907849773 Rises=F Damp=F
 DIIS: error= 2.48D-03 at cycle   4 NSaved=   4.
 NSaved= 4 IEnMin= 4 EnMin= -191.578261375379     IErMin= 4 ErrMin= 2.48D-03
 ErrMax= 2.48D-03  0.00D+00 EMaxC= 1.00D-01 BMatC= 2.23D-03 BMatP= 1.38D-02
 IDIUse=3 WtCom= 9.75D-01 WtEn= 2.48D-02
 Coeff-Com: -0.542D-01 0.908D-01 0.349D+00 0.614D+00
 Coeff-En:   0.000D+00 0.000D+00 0.128D+00 0.872D+00
 Coeff:     -0.528D-01 0.886D-01 0.344D+00 0.620D+00
 Gap=     0.324 Goal=   None    Shift=    0.000
 RMSDP=7.95D-05 MaxDP=5.53D-03 DE=-7.91D-03 OVMax= 1.16D-02

 Cycle   5  Pass 0  IDiag  1:
 E= -191.580053799598     Delta-E=       -0.001792424219 Rises=F Damp=F
 DIIS: error= 2.15D-04 at cycle   5 NSaved=   5.
 NSaved= 5 IEnMin= 5 EnMin= -191.580053799598     IErMin= 5 ErrMin= 2.15D-04
 ErrMax= 2.15D-04  0.00D+00 EMaxC= 1.00D-01 BMatC= 2.23D-05 BMatP= 2.23D-03
 IDIUse=3 WtCom= 9.98D-01 WtEn= 2.15D-03
 Coeff-Com: -0.147D-01 0.208D-01 0.106D+00 0.218D+00 0.669D+00
 Coeff-En:   0.000D+00 0.000D+00 0.000D+00 0.000D+00 0.100D+01
 Coeff:     -0.147D-01 0.207D-01 0.106D+00 0.218D+00 0.670D+00
 Gap=     0.322 Goal=   None    Shift=    0.000
 RMSDP=8.89D-06 MaxDP=4.57D-04 DE=-1.79D-03 OVMax= 2.67D-03

 Initial convergence to 1.0D-05 achieved.  Increase integral accuracy.
 Cycle   6  Pass 1  IDiag  1:
 E= -191.580060638025     Delta-E=       -0.000006838427 Rises=F Damp=F
 DIIS: error= 1.69D-04 at cycle   1 NSaved=   1.
 NSaved= 1 IEnMin= 1 EnMin= -191.580060638025     IErMin= 1 ErrMin= 1.69D-04
 ErrMax= 1.69D-04  0.00D+00 EMaxC= 1.00D-01 BMatC= 2.91D-06 BMatP= 2.91D-06
 IDIUse=3 WtCom= 9.98D-01 WtEn= 1.69D-03
 Coeff-Com:  0.100D+01
 Coeff-En:   0.100D+01
 Coeff:      0.100D+01
 Gap=     0.323 Goal=   None    Shift=    0.000
 RMSDP=8.89D-06 MaxDP=4.57D-04 DE=-6.84D-06 OVMax= 1.77D-03

 Cycle   7  Pass 1  IDiag  1:
 E= -191.580060643215     Delta-E=       -0.000000005190 Rises=F Damp=F
 DIIS: error= 1.65D-04 at cycle   2 NSaved=   2.
 NSaved= 2 IEnMin= 2 EnMin= -191.580060643215     IErMin= 2 ErrMin= 1.65D-04
 ErrMax= 1.65D-04  0.00D+00 EMaxC= 1.00D-01 BMatC= 3.69D-06 BMatP= 2.91D-06
 IDIUse=3 WtCom= 4.38D-01 WtEn= 5.62D-01
 Coeff-Com:  0.532D+00 0.468D+00
 Coeff-En:   0.500D+00 0.500D+00
 Coeff:      0.514D+00 0.486D+00
 Gap=     0.322 Goal=   None    Shift=    0.000
 RMSDP=3.42D-06 MaxDP=2.95D-04 DE=-5.19D-09 OVMax= 9.61D-04

 Cycle   8  Pass 1  IDiag  1:
 E= -191.580064081076     Delta-E=       -0.000003437861 Rises=F Damp=F
 DIIS: error= 2.35D-05 at cycle   3 NSaved=   3.
 NSaved= 3 IEnMin= 3 EnMin= -191.580064081076     IErMin= 3 ErrMin= 2.35D-05
 ErrMax= 2.35D-05  0.00D+00 EMaxC= 1.00D-01 BMatC= 5.07D-08 BMatP= 2.91D-06
 IDIUse=1 WtCom= 1.00D+00 WtEn= 0.00D+00
 Coeff-Com: -0.342D-01 0.460D-01 0.988D+00
 Coeff:     -0.342D-01 0.460D-01 0.988D+00
 Gap=     0.322 Goal=   None    Shift=    0.000
 RMSDP=1.35D-06 MaxDP=1.35D-04 DE=-3.44D-06 OVMax= 1.51D-04

 Cycle   9  Pass 1  IDiag  1:
 E= -191.580064155752     Delta-E=       -0.000000074676 Rises=F Damp=F
 DIIS: error= 5.95D-06 at cycle   4 NSaved=   4.
 NSaved= 4 IEnMin= 4 EnMin= -191.580064155752     IErMin= 4 ErrMin= 5.95D-06
 ErrMax= 5.95D-06  0.00D+00 EMaxC= 1.00D-01 BMatC= 1.09D-08 BMatP= 5.07D-08
 IDIUse=1 WtCom= 1.00D+00 WtEn= 0.00D+00
 Coeff-Com: -0.851D-01-0.501D-01 0.383D+00 0.753D+00
 Coeff:     -0.851D-01-0.501D-01 0.383D+00 0.753D+00
 Gap=     0.323 Goal=   None    Shift=    0.000
 RMSDP=4.19D-07 MaxDP=3.98D-05 DE=-7.47D-08 OVMax= 6.74D-05

 Cycle  10  Pass 1  IDiag  1:
 E= -191.580064169402     Delta-E=       -0.000000013650 Rises=F Damp=F
 DIIS: error= 2.63D-06 at cycle   5 NSaved=   5.
 NSaved= 5 IEnMin= 5 EnMin= -191.580064169402     IErMin= 5 ErrMin= 2.63D-06
 ErrMax= 2.63D-06  0.00D+00 EMaxC= 1.00D-01 BMatC= 2.61D-09 BMatP= 1.09D-08
 IDIUse=1 WtCom= 1.00D+00 WtEn= 0.00D+00
 Coeff-Com: -0.458D-01-0.341D-01 0.113D+00 0.418D+00 0.549D+00
 Coeff:     -0.458D-01-0.341D-01 0.113D+00 0.418D+00 0.549D+00
 Gap=     0.323 Goal=   None    Shift=    0.000
 RMSDP=1.48D-07 MaxDP=1.42D-05 DE=-1.37D-08 OVMax= 1.66D-05

 Cycle  11  Pass 1  IDiag  1:
 E= -191.580064171450     Delta-E=       -0.000000002048 Rises=F Damp=F
 DIIS: error= 6.59D-07 at cycle   6 NSaved=   6.
 NSaved= 6 IEnMin= 6 EnMin= -191.580064171450     IErMin= 6 ErrMin= 6.59D-07
 ErrMax= 6.59D-07  0.00D+00 EMaxC= 1.00D-01 BMatC= 9.25D-11 BMatP= 2.61D-09
 IDIUse=1 WtCom= 1.00D+00 WtEn= 0.00D+00
 Coeff-Com:  0.718D-02 0.219D-02-0.566D-01-0.174D-01 0.894D-01 0.975D+00
 Coeff:      0.718D-02 0.219D-02-0.566D-01-0.174D-01 0.894D-01 0.975D+00
 Gap=     0.323 Goal=   None    Shift=    0.000
 RMSDP=4.65D-08 MaxDP=1.53D-06 DE=-2.05D-09 OVMax= 9.74D-06

 Cycle  12  Pass 1  IDiag  1:
 E= -191.580064171681     Delta-E=       -0.000000000231 Rises=F Damp=F
 DIIS: error= 1.45D-07 at cycle   7 NSaved=   7.
 NSaved= 7 IEnMin= 7 EnMin= -191.580064171681     IErMin= 7 ErrMin= 1.45D-07
 ErrMax= 1.45D-07  0.00D+00 EMaxC= 1.00D-01 BMatC= 9.00D-12 BMatP= 9.25D-11
 IDIUse=1 WtCom= 1.00D+00 WtEn= 0.00D+00
 Coeff-Com:  0.344D-02 0.254D-02-0.126D-01-0.241D-01-0.372D-01 0.910D-01
 Coeff-Com:  0.977D+00
 Coeff:      0.344D-02 0.254D-02-0.126D-01-0.241D-01-0.372D-01 0.910D-01
 Coeff:      0.977D+00
 Gap=     0.323 Goal=   None    Shift=    0.000
 RMSDP=1.50D-08 MaxDP=6.30D-07 DE=-2.31D-10 OVMax= 4.89D-06

 Cycle  13  Pass 1  IDiag  1:
 E= -191.580064171708     Delta-E=       -0.000000000028 Rises=F Damp=F
 DIIS: error= 6.26D-08 at cycle   8 NSaved=   8.
 NSaved= 8 IEnMin= 8 EnMin= -191.580064171708     IErMin= 8 ErrMin= 6.26D-08
 ErrMax= 6.26D-08  0.00D+00 EMaxC= 1.00D-01 BMatC= 2.05D-12 BMatP= 9.00D-12
 IDIUse=1 WtCom= 1.00D+00 WtEn= 0.00D+00
 Coeff-Com: -0.412D-03 0.300D-03 0.656D-02-0.294D-02-0.214D-01-0.150D+00
 Coeff-Com:  0.236D+00 0.931D+00
 Coeff:     -0.412D-03 0.300D-03 0.656D-02-0.294D-02-0.214D-01-0.150D+00
 Coeff:      0.236D+00 0.931D+00
 Gap=     0.323 Goal=   None    Shift=    0.000
 RMSDP=7.49D-09 MaxDP=3.24D-07 DE=-2.77D-11 OVMax= 2.69D-06

 SCF Done:  E(RB2PLYPD3) =  -191.580064172     A.U. after   13 cycles
            NFock= 13  Conv=0.75D-08     -V/T= 2.0014
 KE= 1.913137357873D+02 PE=-6.554674647368D+02 EE= 1.689565632407D+02
 Leave Link  502 at Wed Aug 26 10:43:11 2020, MaxMem=  2097152000 cpu:       284.2
 (Enter /opt/cluster/programs/g09/g09_d.01/g09/l801.exe)
 DoSCS=T DFT=T ScalE2(SS,OS)=  0.270000  0.270000
 ExpMin= 7.60D-02 ExpMax= 1.17D+05 ExpMxC= 1.13D+03 IAcc=3 IRadAn=         5 AccDes= 0.00D+00
 HarFok:  IExCor=  205 AccDes= 0.00D+00 IRadAn=         5 IDoV=-2 UseB2=F ITyADJ=14
 ICtDFT= 12500011 ScaDFX=  1.000000  1.000000  1.000000  1.000000
 Largest valence mixing into a core orbital is  1.14D-04
 Largest core mixing into a valence orbital is  1.84D-05
 Range of M.O.s used for correlation:     5   348
 NBasis=   348 NAE=    15 NBE=    15 NFC=     4 NFV=     0
 NROrb=    344 NOA=    11 NOB=    11 NVA=   333 NVB=   333

 **** Warning!!: The largest alpha MO coefficient is  0.21879720D+02

 Leave Link  801 at Wed Aug 26 10:43:11 2020, MaxMem=  2097152000 cpu:         0.9
 (Enter /opt/cluster/programs/g09/g09_d.01/g09/l906.exe)
 DoSCS=T DFT=T ScalE2(SS,OS)=  0.270000  0.270000
 FulOut=F Deriv=F AODrv=F NAtomX=     8
   MMem=        1190  MDisk=          11 MDiskD=          11
  W3Min=     1567764 MinDsk=     2827057 NBas6D=         428
 NBas2D=       93150    NTT=       91806    LW2=     4508827
    MDV=  2096570120 MDiskM=       10875 NBas2p=       89801
 Fully direct method using O(OVN) memory.
 IMap=   1   2   3   4   5   6   7   8   9  10  11
 JobTyp=1 Pass  1:  I=   1 to  11 NPSUse=  8 ParTrn=T ParDer=T DoDerP=F.
 Spin components of T(2) and E(2):
     alpha-alpha T2 =       0.4258510304D-01 E2=     -0.2918073359D-01
     alpha-beta  T2 =       0.2609734134D+00 E2=     -0.1870559920D+00
     beta-beta   T2 =       0.4258510304D-01 E2=     -0.2918073359D-01
 The integrals were generated   1 times.
 E2(B2PLYPD3) =    -0.2454174592D+00 E(B2PLYPD3) =    -0.19182548163089D+03
 Leave Link  906 at Wed Aug 26 10:44:05 2020, MaxMem=  2097152000 cpu:       435.8
 (Enter /opt/cluster/programs/g09/g09_d.01/g09/l601.exe)
 Copying SCF densities to generalized density rwf, IOpCl= 0 IROHF=0.

 **********************************************************************

            Population analysis using the SCF density.

 **********************************************************************

 Orbital symmetries:
       Occupied  (A) (A) (A) (A) (A) (A) (A) (A) (A) (A) (A) (A)
                 (A) (A) (A)
       Virtual   (A) (A) (A) (A) (A) (A) (A) (A) (A) (A) (A) (A)
                 (A) (A) (A) (A) (A) (A) (A) (A) (A) (A) (A) (A)
                 (A) (A) (A) (A) (A) (A) (A) (A) (A) (A) (A) (A)
                 (A) (A) (A) (A) (A) (A) (A) (A) (A) (A) (A) (A)
                 (A) (A) (A) (A) (A) (A) (A) (A) (A) (A) (A) (A)
                 (A) (A) (A) (A) (A) (A) (A) (A) (A) (A) (A) (A)
                 (A) (A) (A) (A) (A) (A) (A) (A) (A) (A) (A) (A)
                 (A) (A) (A) (A) (A) (A) (A) (A) (A) (A) (A) (A)
                 (A) (A) (A) (A) (A) (A) (A) (A) (A) (A) (A) (A)
                 (A) (A) (A) (A) (A) (A) (A) (A) (A) (A) (A) (A)
                 (A) (A) (A) (A) (A) (A) (A) (A) (A) (A) (A) (A)
                 (A) (A) (A) (A) (A) (A) (A) (A) (A) (A) (A) (A)
                 (A) (A) (A) (A) (A) (A) (A) (A) (A) (A) (A) (A)
                 (A) (A) (A) (A) (A) (A) (A) (A) (A) (A) (A) (A)
                 (A) (A) (A) (A) (A) (A) (A) (A) (A) (A) (A) (A)
                 (A) (A) (A) (A) (A) (A) (A) (A) (A) (A) (A) (A)
                 (A) (A) (A) (A) (A) (A) (A) (A) (A) (A) (A) (A)
                 (A) (A) (A) (A) (A) (A) (A) (A) (A) (A) (A) (A)
                 (A) (A) (A) (A) (A) (A) (A) (A) (A) (A) (A) (A)
                 (A) (A) (A) (A) (A) (A) (A) (A) (A) (A) (A) (A)
                 (A) (A) (A) (A) (A) (A) (A) (A) (A) (A) (A) (A)
                 (A) (A) (A) (A) (A) (A) (A) (A) (A) (A) (A) (A)
                 (A) (A) (A) (A) (A) (A) (A) (A) (A) (A) (A) (A)
                 (A) (A) (A) (A) (A) (A) (A) (A) (A) (A) (A) (A)
                 (A) (A) (A) (A) (A) (A) (A) (A) (A) (A) (A) (A)
                 (A) (A) (A) (A) (A) (A) (A) (A) (A) (A) (A) (A)
                 (A) (A) (A) (A) (A) (A) (A) (A) (A) (A) (A) (A)
                 (A) (A) (A) (A) (A) (A) (A) (A) (A)
 The electronic state is 1-A.
 Alpha  occ. eigenvalues --  -19.72628 -10.70472 -10.65585 -10.63202  -1.21479
 Alpha  occ. eigenvalues --   -0.92305  -0.76161  -0.67317  -0.57936  -0.56567
 Alpha  occ. eigenvalues --   -0.51222  -0.48462  -0.46597  -0.34216  -0.33273
 Alpha virt. eigenvalues --   -0.01021   0.06202   0.06642   0.08265   0.09566
 Alpha virt. eigenvalues --    0.12998   0.14430   0.15199   0.17526   0.19425
 Alpha virt. eigenvalues --    0.20212   0.22610   0.24522   0.26992   0.28114
 Alpha virt. eigenvalues --    0.31689   0.32579   0.34277   0.37291   0.37823
 Alpha virt. eigenvalues --    0.39992   0.41282   0.42285   0.43635   0.47143
 Alpha virt. eigenvalues --    0.47910   0.48548   0.51907   0.54497   0.58578
 Alpha virt. eigenvalues --    0.62487   0.66244   0.66800   0.68119   0.72868
 Alpha virt. eigenvalues --    0.74298   0.76349   0.77772   0.79839   0.80135
 Alpha virt. eigenvalues --    0.81183   0.82499   0.83880   0.84777   0.86324
 Alpha virt. eigenvalues --    0.87589   0.89506   0.92975   0.95005   0.95720
 Alpha virt. eigenvalues --    0.97267   0.98947   1.01291   1.03516   1.04586
 Alpha virt. eigenvalues --    1.06083   1.08764   1.12878   1.18170   1.20540
 Alpha virt. eigenvalues --    1.23753   1.25628   1.28141   1.32618   1.41923
 Alpha virt. eigenvalues --    1.45691   1.48050   1.52261   1.54643   1.54974
 Alpha virt. eigenvalues --    1.56833   1.60254   1.65126   1.65970   1.70813
 Alpha virt. eigenvalues --    1.73499   1.76232   1.80579   1.81711   1.83885
 Alpha virt. eigenvalues --    1.86015   1.87590   1.89068   1.92780   1.93952
 Alpha virt. eigenvalues --    1.94741   1.98170   2.00722   2.01235   2.03803
 Alpha virt. eigenvalues --    2.06016   2.09541   2.10944   2.11904   2.14088
 Alpha virt. eigenvalues --    2.15412   2.16641   2.22530   2.25333   2.28635
 Alpha virt. eigenvalues --    2.32799   2.36768   2.37247   2.40035   2.41990
 Alpha virt. eigenvalues --    2.43915   2.47201   2.49836   2.50976   2.52373
 Alpha virt. eigenvalues --    2.56307   2.57682   2.59057   2.63785   2.64121
 Alpha virt. eigenvalues --    2.66877   2.67985   2.68609   2.72713   2.74333
 Alpha virt. eigenvalues --    2.76562   2.79679   2.83980   2.88137   2.90555
 Alpha virt. eigenvalues --    2.93828   2.95643   2.99430   3.01013   3.08759
 Alpha virt. eigenvalues --    3.13707   3.20425   3.23273   3.31924   3.32168
 Alpha virt. eigenvalues --    3.39098   3.40378   3.44560   3.49117   3.53511
 Alpha virt. eigenvalues --    3.55147   3.56887   3.60831   3.64127   3.70331
 Alpha virt. eigenvalues --    3.71786   3.80661   3.80917   3.86947   3.91061
 Alpha virt. eigenvalues --    3.96307   4.01760   4.04285   4.06806   4.14391
 Alpha virt. eigenvalues --    4.16260   4.18777   4.22607   4.27410   4.32205
 Alpha virt. eigenvalues --    4.37882   4.42665   4.56280   4.61050   4.62666
 Alpha virt. eigenvalues --    4.67231   4.77522   4.86560   4.91060   4.97565
 Alpha virt. eigenvalues --    5.00178   5.06330   5.11836   5.13353   5.15580
 Alpha virt. eigenvalues --    5.22717   5.27414   5.32950   5.34384   5.39083
 Alpha virt. eigenvalues --    5.48109   5.50455   5.54890   5.58358   5.59523
 Alpha virt. eigenvalues --    5.66245   5.67391   5.70708   5.73931   5.78417
 Alpha virt. eigenvalues --    5.80276   5.83753   5.89449   5.92203   5.95831
 Alpha virt. eigenvalues --    5.98134   6.02292   6.03595   6.05084   6.08426
 Alpha virt. eigenvalues --    6.09780   6.10549   6.13741   6.14974   6.18050
 Alpha virt. eigenvalues --    6.20965   6.25241   6.26580   6.27740   6.32572
 Alpha virt. eigenvalues --    6.35544   6.38039   6.41529   6.48443   6.49851
 Alpha virt. eigenvalues --    6.54455   6.57129   6.57978   6.62682   6.66843
 Alpha virt. eigenvalues --    6.72916   6.76798   6.78825   6.84283   6.85419
 Alpha virt. eigenvalues --    6.88986   6.92787   6.94133   6.98561   7.03002
 Alpha virt. eigenvalues --    7.05804   7.12539   7.17959   7.21829   7.27438
 Alpha virt. eigenvalues --    7.35812   7.40899   7.45711   7.50136   7.54286
 Alpha virt. eigenvalues --    7.55456   7.60790   7.63946   7.66981   7.69465
 Alpha virt. eigenvalues --    7.71591   7.75944   7.78307   7.81951   7.85118
 Alpha virt. eigenvalues --    7.88066   7.92211   7.93354   7.94693   7.99643
 Alpha virt. eigenvalues --    8.01155   8.08158   8.10194   8.14160   8.19293
 Alpha virt. eigenvalues --    8.22362   8.27785   8.33248   8.38328   8.41382
 Alpha virt. eigenvalues --    8.42044   8.44505   8.47350   8.53184   8.63630
 Alpha virt. eigenvalues --    8.65064   8.68245   8.72181   8.75170   8.78993
 Alpha virt. eigenvalues --    8.97932   8.99123   9.08248   9.09949   9.11048
 Alpha virt. eigenvalues --    9.19184   9.20607   9.28998   9.35267   9.46275
 Alpha virt. eigenvalues --    9.47518   9.51314   9.62351   9.64214   9.80444
 Alpha virt. eigenvalues --    9.83652   9.92125  10.02242  10.14615  10.17698
 Alpha virt. eigenvalues --   10.31366  10.34348  10.38234  10.42294  10.43753
 Alpha virt. eigenvalues --   10.55047  10.58163  10.77628  10.85843  11.03347
 Alpha virt. eigenvalues --   11.07457  11.27073  11.29502  11.37755  11.69130
 Alpha virt. eigenvalues --   11.72289  11.82274  11.92622  12.06192  12.19660
 Alpha virt. eigenvalues --   12.26587  12.40428  12.41945  12.47509  12.62882
 Alpha virt. eigenvalues --   13.10260  13.53994  13.91742  14.31848  14.97550
 Alpha virt. eigenvalues --   28.65543  29.00524  29.54220  48.70607 148.25060
 Alpha virt. eigenvalues --  148.59612 149.21169 254.47478
          Condensed to atoms (all electrons):
               1          2          3          4          5          6
     1  C    4.482902   0.634742   0.367010  -0.056350  -0.026285  -0.003381
     2  O    0.634742   7.860576  -0.090167   0.005467   0.005817   0.000447
     3  C    0.367010  -0.090167   5.191427   0.480885   0.373442  -0.045357
     4  C   -0.056350   0.005467   0.480885   4.850773  -0.031261   0.432982
     5  H   -0.026285   0.005817   0.373442  -0.031261   0.578049   0.004513
     6  H   -0.003381   0.000447  -0.045357   0.432982   0.004513   0.557844
     7  H    0.003859  -0.000898  -0.045524   0.438018  -0.006519  -0.042154
     8  H    0.443481  -0.090041  -0.178437   0.027164   0.008137   0.005835
               7          8
     1  C    0.003859   0.443481
     2  O   -0.000898  -0.090041
     3  C   -0.045524  -0.178437
     4  C    0.438018   0.027164
     5  H   -0.006519   0.008137
     6  H   -0.042154   0.005835
     7  H    0.544447  -0.001432
     8  H   -0.001432   0.705998
 Mulliken charges:
               1
     1  C    0.154022
     2  O   -0.325942
     3  C   -0.053279
     4  C   -0.147678
     5  H    0.094106
     6  H    0.089272
     7  H    0.110203
     8  H    0.079296
 Sum of Mulliken charges =   0.00000
 Mulliken charges with hydrogens summed into heavy atoms:
               1
     1  C    0.233318
     2  O   -0.325942
     3  C    0.040828
     4  C    0.051796
 Electronic spatial extent (au):  <R**2>=            298.1877
 Charge=              0.0000 electrons
 Dipole moment (field-independent basis, Debye):
    X=             -3.1526    Y=             -0.7603    Z=              0.5568  Tot=              3.2904
 Quadrupole moment (field-independent basis, Debye-Ang):
   XX=            -27.5997   YY=            -21.4191   ZZ=            -25.0449
   XY=             -0.6288   XZ=              0.4093   YZ=              0.3347
 Traceless Quadrupole moment (field-independent basis, Debye-Ang):
   XX=             -2.9118   YY=              3.2688   ZZ=             -0.3570
   XY=             -0.6288   XZ=              0.4093   YZ=              0.3347
 Octapole moment (field-independent basis, Debye-Ang**2):
  XXX=            -12.8584  YYY=             -0.1879  ZZZ=              0.2526  XYY=              0.0560
  XXY=             -1.7767  XXZ=              0.8770  XZZ=              4.3646  YZZ=             -0.4307
  YYZ=              1.0487  XYZ=             -0.1322
 Hexadecapole moment (field-independent basis, Debye-Ang**3):
 XXXX=           -303.6604 YYYY=            -55.0723 ZZZZ=            -28.7318 XXXY=             -0.5153
 XXXZ=              0.1088 YYYX=              0.5716 YYYZ=              1.0961 ZZZX=             -0.7333
 ZZZY=              0.1312 XXYY=            -56.8035 XXZZ=            -56.3391 YYZZ=            -15.5362
 XXYZ=              0.2227 YYXZ=             -0.2890 ZZXY=              0.1906
 N-N= 1.036171015371D+02 E-N=-6.554674722315D+02  KE= 1.913137357873D+02
 Leave Link  601 at Wed Aug 26 10:44:06 2020, MaxMem=  2097152000 cpu:         0.6
 (Enter /opt/cluster/programs/g09/g09_d.01/g09/l9999.exe)
 1\1\GINC-NODE01\SP\RB2PLYPD3-FC\def2QZVP\C3H4O1\BOITTIER\26-Aug-2020\0
 \\#p B2PLYPD3/Def2QZVP\\acrolein\\0,1\C,0,-4.985561,-1.388872,0.813094
 \O,0,-3.944083,-0.847332,0.728054\C,0,-5.190598,-2.86982,1.107902\C,0,
 -6.43065,-3.281417,1.472375\H,0,-4.287816,-3.550291,0.827982\H,0,-7.27
 9423,-2.67709,1.490865\H,0,-6.498968,-4.205049,1.557655\H,0,-5.842076,
 -0.838616,0.650306\\Version=ES64L-G09RevD.01\State=1-A\HF=-191.5800642
 \MP2=-191.8254816\RMSD=7.492e-09\PG=C01 [X(C3H4O1)]\\@


 WHEN A MATHEMATICIAN ENGAGED IN INVESTIGATING
 PHYSICAL ACTIONS AND RESULTS HAS ARRIVED AT HIS
 CONCLUSIONS, MAY THEY NOT BE EXPRESSED IN COMMON
 LANGUAGE AS FULLY, CLEARLY, AND DEFINITELY AS IN
 MATHEMATICAL FORMULAE?
           - LETTER FROM M. FARADAY TO J.C. MAXWELL, 1857.
 Job cpu time:       0 days  0 hours 12 minutes 13.9 seconds.
 File lengths (MBytes):  RWF=     49 Int=      0 D2E=      0 Chk=      7 Scr=      1
 Normal termination of Gaussian 09 at Wed Aug 26 10:44:06 2020.
