 Entering Gaussian System, Link 0=/opt/cluster/programs/g09/g09_d.01/g09//g09
 Input=/home/boittier/MDCM/nms_sampling/acrolein_geom.xyz.dir/energies/acrolein_1156_energy.com
 Output=/scratch/boittier/acrolein_1156_energy/acrolein_1156_energy.out
 Initial command:
 /opt/cluster/programs/g09/g09_d.01/g09/l1.exe "/scratch/boittier/acrolein_1156_energy/Gau-27456.inp" -scrdir="/scratch/boittier/acrolein_1156_energy/"
 Entering Link 1 = /opt/cluster/programs/g09/g09_d.01/g09/l1.exe PID=     27457.
  
 Copyright (c) 1988,1990,1992,1993,1995,1998,2003,2009,2013,
            Gaussian, Inc.  All Rights Reserved.
  
 This is part of the Gaussian(R) 09 program.  It is based on
 the Gaussian(R) 03 system (copyright 2003, Gaussian, Inc.),
 the Gaussian(R) 98 system (copyright 1998, Gaussian, Inc.),
 the Gaussian(R) 94 system (copyright 1995, Gaussian, Inc.),
 the Gaussian 92(TM) system (copyright 1992, Gaussian, Inc.),
 the Gaussian 90(TM) system (copyright 1990, Gaussian, Inc.),
 the Gaussian 88(TM) system (copyright 1988, Gaussian, Inc.),
 the Gaussian 86(TM) system (copyright 1986, Carnegie Mellon
 University), and the Gaussian 82(TM) system (copyright 1983,
 Carnegie Mellon University). Gaussian is a federally registered
 trademark of Gaussian, Inc.
  
 This software contains proprietary and confidential information,
 including trade secrets, belonging to Gaussian, Inc.
  
 This software is provided under written license and may be
 used, copied, transmitted, or stored only in accord with that
 written license.
  
 The following legend is applicable only to US Government
 contracts under FAR:
  
                    RESTRICTED RIGHTS LEGEND
  
 Use, reproduction and disclosure by the US Government is
 subject to restrictions as set forth in subparagraphs (a)
 and (c) of the Commercial Computer Software - Restricted
 Rights clause in FAR 52.227-19.
  
 Gaussian, Inc.
 340 Quinnipiac St., Bldg. 40, Wallingford CT 06492
  
  
 ---------------------------------------------------------------
 Warning -- This program may not be used in any manner that
 competes with the business of Gaussian, Inc. or will provide
 assistance to any competitor of Gaussian, Inc.  The licensee
 of this program is prohibited from giving any competitor of
 Gaussian, Inc. access to this program.  By using this program,
 the user acknowledges that Gaussian, Inc. is engaged in the
 business of creating and licensing software in the field of
 computational chemistry and represents and warrants to the
 licensee that it is not a competitor of Gaussian, Inc. and that
 it will not use this program in any manner prohibited above.
 ---------------------------------------------------------------
  

 Cite this work as:
 Gaussian 09, Revision D.01,
 M. J. Frisch, G. W. Trucks, H. B. Schlegel, G. E. Scuseria, 
 M. A. Robb, J. R. Cheeseman, G. Scalmani, V. Barone, B. Mennucci, 
 G. A. Petersson, H. Nakatsuji, M. Caricato, X. Li, H. P. Hratchian, 
 A. F. Izmaylov, J. Bloino, G. Zheng, J. L. Sonnenberg, M. Hada, 
 M. Ehara, K. Toyota, R. Fukuda, J. Hasegawa, M. Ishida, T. Nakajima, 
 Y. Honda, O. Kitao, H. Nakai, T. Vreven, J. A. Montgomery, Jr., 
 J. E. Peralta, F. Ogliaro, M. Bearpark, J. J. Heyd, E. Brothers, 
 K. N. Kudin, V. N. Staroverov, T. Keith, R. Kobayashi, J. Normand, 
 K. Raghavachari, A. Rendell, J. C. Burant, S. S. Iyengar, J. Tomasi, 
 M. Cossi, N. Rega, J. M. Millam, M. Klene, J. E. Knox, J. B. Cross, 
 V. Bakken, C. Adamo, J. Jaramillo, R. Gomperts, R. E. Stratmann, 
 O. Yazyev, A. J. Austin, R. Cammi, C. Pomelli, J. W. Ochterski, 
 R. L. Martin, K. Morokuma, V. G. Zakrzewski, G. A. Voth, 
 P. Salvador, J. J. Dannenberg, S. Dapprich, A. D. Daniels, 
 O. Farkas, J. B. Foresman, J. V. Ortiz, J. Cioslowski, 
 and D. J. Fox, Gaussian, Inc., Wallingford CT, 2013.
 
 ******************************************
 Gaussian 09:  ES64L-G09RevD.01 24-Apr-2013
                26-Aug-2020 
 ******************************************
 %chk=/home/boittier/MDCM/nms_sampling/acrolein_geom.xyz.dir/acrolein_1156.chk
 %nproc=8
 Will use up to    8 processors via shared memory.
 %mem=16000MB
 --------------------
 #p B2PLYPD3/Def2QZVP
 --------------------
 1/38=1/1;
 2/12=2,17=6,18=5,40=1/2;
 3/5=45,7=101,11=9,16=1,25=1,30=1,74=-60/1,2,3;
 4//1;
 5/5=2,38=5/2;
 8/10=1/1;
 9/16=-3/6;
 6/7=2,8=2,9=2,10=2/1;
 99/5=1,9=1/99;
 Leave Link    1 at Wed Aug 26 08:44:03 2020, MaxMem=  2097152000 cpu:         0.2
 (Enter /opt/cluster/programs/g09/g09_d.01/g09/l101.exe)
 --------
 acrolein
 --------
 Symbolic Z-matrix:
 Charge =  0 Multiplicity = 1
 C                    -4.99474  -1.3924    0.9009 
 O                    -3.92596  -0.86057   0.66242 
 C                    -5.1937   -2.83462   1.12732 
 C                    -6.43359  -3.29964   1.39725 
 H                    -4.24758  -3.47451   1.12926 
 H                    -7.32624  -2.6147    1.43769 
 H                    -6.61143  -4.36808   1.69931 
 H                    -5.82586  -0.77811   0.88851 
 
 NAtoms=      8 NQM=        8 NQMF=       0 NMMI=      0 NMMIF=      0
                NMic=       0 NMicF=      0.
                    Isotopes and Nuclear Properties:
 (Nuclear quadrupole moments (NQMom) in fm**2, nuclear magnetic moments (NMagM)
  in nuclear magnetons)

  Atom         1           2           3           4           5           6           7           8
 IAtWgt=          12          16          12          12           1           1           1           1
 AtmWgt=  12.0000000  15.9949146  12.0000000  12.0000000   1.0078250   1.0078250   1.0078250   1.0078250
 NucSpn=           0           0           0           0           1           1           1           1
 AtZEff=   0.0000000   0.0000000   0.0000000   0.0000000   0.0000000   0.0000000   0.0000000   0.0000000
 NQMom=    0.0000000   0.0000000   0.0000000   0.0000000   0.0000000   0.0000000   0.0000000   0.0000000
 NMagM=    0.0000000   0.0000000   0.0000000   0.0000000   2.7928460   2.7928460   2.7928460   2.7928460
 AtZNuc=   6.0000000   8.0000000   6.0000000   6.0000000   1.0000000   1.0000000   1.0000000   1.0000000
 Leave Link  101 at Wed Aug 26 08:44:03 2020, MaxMem=  2097152000 cpu:         0.6
 (Enter /opt/cluster/programs/g09/g09_d.01/g09/l202.exe)
                          Input orientation:                          
 ---------------------------------------------------------------------
 Center     Atomic      Atomic             Coordinates (Angstroms)
 Number     Number       Type             X           Y           Z
 ---------------------------------------------------------------------
      1          6           0       -4.994745   -1.392399    0.900901
      2          8           0       -3.925957   -0.860571    0.662417
      3          6           0       -5.193702   -2.834616    1.127315
      4          6           0       -6.433588   -3.299638    1.397247
      5          1           0       -4.247575   -3.474505    1.129260
      6          1           0       -7.326240   -2.614703    1.437689
      7          1           0       -6.611428   -4.368083    1.699306
      8          1           0       -5.825855   -0.778109    0.888513
 ---------------------------------------------------------------------
                    Distance matrix (angstroms):
                    1          2          3          4          5
     1  C    0.000000
     2  O    1.217384   0.000000
     3  C    1.473376   2.391686   0.000000
     4  C    2.440121   3.574526   1.351453   0.000000
     5  H    2.223865   2.674702   1.142199   2.209309   0.000000
     6  H    2.686641   3.903838   2.166198   1.125877   3.211318
     7  H    3.479340   4.537569   2.165327   1.124474   2.590605
     8  H    1.033562   1.915080   2.164686   2.643153   3.133605
                    6          7          8
     6  H    0.000000
     7  H    1.911476   0.000000
     8  H    2.434302   3.763300   0.000000
 Stoichiometry    C3H4O
 Framework group  C1[X(C3H4O)]
 Deg. of freedom    18
 Full point group                 C1      NOp   1
 Largest Abelian subgroup         C1      NOp   1
 Largest concise Abelian subgroup C1      NOp   1
                         Standard orientation:                         
 ---------------------------------------------------------------------
 Center     Atomic      Atomic             Coordinates (Angstroms)
 Number     Number       Type             X           Y           Z
 ---------------------------------------------------------------------
      1          6           0        0.667560    0.342359    0.007402
      2          8           0        1.799369   -0.106008    0.007402
      3          6           0       -0.565151   -0.463996   -0.025025
      4          6           0       -1.765449    0.156822   -0.007806
      5          1           0       -0.421477   -1.596602    0.009313
      6          1           0       -1.850410    1.279280    0.013848
      7          1           0       -2.726639   -0.417583    0.095223
      8          1           0        0.581820    1.371848   -0.025028
 ---------------------------------------------------------------------
 Rotational constants (GHZ):     46.9373801      4.6148574      4.2030266
 Leave Link  202 at Wed Aug 26 08:44:03 2020, MaxMem=  2097152000 cpu:         0.1
 (Enter /opt/cluster/programs/g09/g09_d.01/g09/l301.exe)
 Standard basis: def2QZVP (5D, 7F)
 Ernie: Thresh=  0.10000D-02 Tol=  0.10000D-05 Strict=F.
 There are   428 symmetry adapted cartesian basis functions of A   symmetry.
 There are   348 symmetry adapted basis functions of A   symmetry.
   348 basis functions,   520 primitive gaussians,   428 cartesian basis functions
    15 alpha electrons       15 beta electrons
       nuclear repulsion energy       102.4624135347 Hartrees.
 IExCor=  419 DFT=T Ex+Corr=B2PLYPD3 ExCW=0 ScaHFX=  0.530000
 ScaDFX=  0.470000  0.470000  0.730000  0.730000 ScalE2=  0.270000  0.270000
 IRadAn=      0 IRanWt=     -1 IRanGd=            0 ICorTp=0 IEmpDi=141
 NAtoms=    8 NActive=    8 NUniq=    8 SFac= 1.00D+00 NAtFMM=   60 NAOKFM=F Big=F
 Integral buffers will be    131072 words long.
 Regular integral format.
 Two-electron integral symmetry is turned on.
 R6Disp:  Grimme-D3(BJ) Dispersion energy=       -0.0035643253 Hartrees.
 Nuclear repulsion after empirical dispersion term =      102.4588492093 Hartrees.
 Leave Link  301 at Wed Aug 26 08:44:04 2020, MaxMem=  2097152000 cpu:         0.5
 (Enter /opt/cluster/programs/g09/g09_d.01/g09/l302.exe)
 NPDir=0 NMtPBC=     1 NCelOv=     1 NCel=       1 NClECP=     1 NCelD=      1
         NCelK=      1 NCelE2=     1 NClLst=     1 CellRange=     0.0.
 One-electron integrals computed using PRISM.
   1 Symmetry operations used in ECPInt.
 ECPInt:  NShTT=    5886 NPrTT=   14376 LenC2=    5777 LenP2D=   12161.
 LDataN:  DoStor=T MaxTD1= 8 Len=  415
 NBasis=   348 RedAO= T EigKep=  6.06D-05  NBF=   348
 NBsUse=   348 1.00D-06 EigRej= -1.00D+00 NBFU=   348
 Precomputing XC quadrature grid using
 IXCGrd= 4 IRadAn=           0 IRanWt=          -1 IRanGd=           0 AccXCQ= 0.00D+00.
 Generated NRdTot=       0 NPtTot=           0 NUsed=           0 NTot=          32
 NSgBfM=   428   428   428   428   428 MxSgAt=     8 MxSgA2=     8.
 Leave Link  302 at Wed Aug 26 08:44:04 2020, MaxMem=  2097152000 cpu:         2.9
 (Enter /opt/cluster/programs/g09/g09_d.01/g09/l303.exe)
 DipDrv:  MaxL=1.
 Leave Link  303 at Wed Aug 26 08:44:04 2020, MaxMem=  2097152000 cpu:         0.4
 (Enter /opt/cluster/programs/g09/g09_d.01/g09/l401.exe)
 ExpMin= 7.60D-02 ExpMax= 1.17D+05 ExpMxC= 1.13D+03 IAcc=2 IRadAn=         4 AccDes= 0.00D+00
 Harris functional with IExCor=  419 and IRadAn=       4 diagonalized for initial guess.
 HarFok:  IExCor=  419 AccDes= 0.00D+00 IRadAn=         4 IDoV= 1 UseB2=F ITyADJ=14
 ICtDFT=  3500011 ScaDFX=  1.000000  1.000000  1.000000  1.000000
 FoFCou: FMM=F IPFlag=           0 FMFlag=      100000 FMFlg1=           0
         NFxFlg=           0 DoJE=T BraDBF=F KetDBF=T FulRan=T
         wScrn=  0.000000 ICntrl=     500 IOpCl=  0 I1Cent=   200000004 NGrid=           0
         NMat0=    1 NMatS0=      1 NMatT0=    0 NMatD0=    1 NMtDS0=    0 NMtDT0=    0
 Petite list used in FoFCou.
 Harris En= -192.030183947871    
 JPrj=0 DoOrth=F DoCkMO=F.
 Leave Link  401 at Wed Aug 26 08:44:05 2020, MaxMem=  2097152000 cpu:         6.4
 (Enter /opt/cluster/programs/g09/g09_d.01/g09/l502.exe)
 Closed shell SCF:
 Using DIIS extrapolation, IDIIS=  1040.
 Integral symmetry usage will be decided dynamically.
 Keep R1 ints in memory in canonical form, NReq=1883905047.
 IVT=      574566 IEndB=      574566 NGot=  2097152000 MDV=   252723534
 LenX=   252723534 LenY=   252539909
 Requested convergence on RMS density matrix=1.00D-08 within 128 cycles.
 Requested convergence on MAX density matrix=1.00D-06.
 Requested convergence on             energy=1.00D-06.
 No special actions if energy rises.
 FoFCou: FMM=F IPFlag=           0 FMFlag=           0 FMFlg1=           0
         NFxFlg=           0 DoJE=F BraDBF=F KetDBF=F FulRan=T
         wScrn=  0.000000 ICntrl=     600 IOpCl=  0 I1Cent=           0 NGrid=           0
         NMat0=    1 NMatS0=  60726 NMatT0=    0 NMatD0=    1 NMtDS0=    0 NMtDT0=    0
 Symmetry not used in FoFCou.
 Integral accuracy reduced to 1.0D-05 until final iterations.

 Cycle   1  Pass 0  IDiag  1:
 E= -191.473620597606    
 DIIS: error= 2.43D-02 at cycle   1 NSaved=   1.
 NSaved= 1 IEnMin= 1 EnMin= -191.473620597606     IErMin= 1 ErrMin= 2.43D-02
 ErrMax= 2.43D-02  0.00D+00 EMaxC= 1.00D-01 BMatC= 2.44D-01 BMatP= 2.44D-01
 IDIUse=3 WtCom= 7.57D-01 WtEn= 2.43D-01
 Coeff-Com:  0.100D+01
 Coeff-En:   0.100D+01
 Coeff:      0.100D+01
 Gap=     0.271 Goal=   None    Shift=    0.000
 GapD=    0.271 DampG=1.000 DampE=0.500 DampFc=0.5000 IDamp=-1.
 Damping current iteration by 5.00D-01
 RMSDP=1.95D-03 MaxDP=2.61D-01              OVMax= 1.81D-01

 Cycle   2  Pass 0  IDiag  1:
 E= -191.537459983480     Delta-E=       -0.063839385874 Rises=F Damp=T
 DIIS: error= 1.21D-02 at cycle   2 NSaved=   2.
 NSaved= 2 IEnMin= 2 EnMin= -191.537459983480     IErMin= 2 ErrMin= 1.21D-02
 ErrMax= 1.21D-02  0.00D+00 EMaxC= 1.00D-01 BMatC= 3.35D-02 BMatP= 2.44D-01
 IDIUse=3 WtCom= 8.79D-01 WtEn= 1.21D-01
 Coeff-Com: -0.151D+00 0.115D+01
 Coeff-En:   0.000D+00 0.100D+01
 Coeff:     -0.132D+00 0.113D+01
 Gap=     0.351 Goal=   None    Shift=    0.000
 RMSDP=6.68D-04 MaxDP=9.19D-02 DE=-6.38D-02 OVMax= 1.32D-01

 Cycle   3  Pass 0  IDiag  1:
 E= -191.594514266602     Delta-E=       -0.057054283123 Rises=F Damp=F
 DIIS: error= 1.09D-02 at cycle   3 NSaved=   3.
 NSaved= 3 IEnMin= 3 EnMin= -191.594514266602     IErMin= 3 ErrMin= 1.09D-02
 ErrMax= 1.09D-02  0.00D+00 EMaxC= 1.00D-01 BMatC= 1.69D-02 BMatP= 3.35D-02
 IDIUse=3 WtCom= 8.91D-01 WtEn= 1.09D-01
 Coeff-Com: -0.196D+00 0.525D+00 0.671D+00
 Coeff-En:   0.000D+00 0.000D+00 0.100D+01
 Coeff:     -0.175D+00 0.468D+00 0.706D+00
 Gap=     0.328 Goal=   None    Shift=    0.000
 RMSDP=2.45D-04 MaxDP=1.92D-02 DE=-5.71D-02 OVMax= 4.84D-02

 Cycle   4  Pass 0  IDiag  1:
 E= -191.603846781026     Delta-E=       -0.009332514424 Rises=F Damp=F
 DIIS: error= 4.71D-03 at cycle   4 NSaved=   4.
 NSaved= 4 IEnMin= 4 EnMin= -191.603846781026     IErMin= 4 ErrMin= 4.71D-03
 ErrMax= 4.71D-03  0.00D+00 EMaxC= 1.00D-01 BMatC= 3.11D-03 BMatP= 1.69D-02
 IDIUse=3 WtCom= 9.53D-01 WtEn= 4.71D-02
 Coeff-Com: -0.618D-01 0.102D+00 0.367D+00 0.592D+00
 Coeff-En:   0.000D+00 0.000D+00 0.170D+00 0.830D+00
 Coeff:     -0.589D-01 0.976D-01 0.358D+00 0.603D+00
 Gap=     0.318 Goal=   None    Shift=    0.000
 RMSDP=1.00D-04 MaxDP=8.63D-03 DE=-9.33D-03 OVMax= 1.45D-02

 Cycle   5  Pass 0  IDiag  1:
 E= -191.606384107827     Delta-E=       -0.002537326801 Rises=F Damp=F
 DIIS: error= 3.53D-04 at cycle   5 NSaved=   5.
 NSaved= 5 IEnMin= 5 EnMin= -191.606384107827     IErMin= 5 ErrMin= 3.53D-04
 ErrMax= 3.53D-04  0.00D+00 EMaxC= 1.00D-01 BMatC= 1.28D-05 BMatP= 3.11D-03
 IDIUse=3 WtCom= 9.96D-01 WtEn= 3.53D-03
 Coeff-Com: -0.764D-02 0.961D-02 0.521D-01 0.123D+00 0.823D+00
 Coeff-En:   0.000D+00 0.000D+00 0.000D+00 0.000D+00 0.100D+01
 Coeff:     -0.761D-02 0.958D-02 0.519D-01 0.123D+00 0.823D+00
 Gap=     0.317 Goal=   None    Shift=    0.000
 RMSDP=1.05D-05 MaxDP=9.86D-04 DE=-2.54D-03 OVMax= 2.35D-03

 Cycle   6  Pass 0  IDiag  1:
 E= -191.606398296917     Delta-E=       -0.000014189090 Rises=F Damp=F
 DIIS: error= 9.11D-05 at cycle   6 NSaved=   6.
 NSaved= 6 IEnMin= 6 EnMin= -191.606398296917     IErMin= 6 ErrMin= 9.11D-05
 ErrMax= 9.11D-05  0.00D+00 EMaxC= 1.00D-01 BMatC= 1.61D-06 BMatP= 1.28D-05
 IDIUse=1 WtCom= 1.00D+00 WtEn= 0.00D+00
 Coeff-Com:  0.373D-02-0.716D-02-0.186D-01-0.223D-01 0.242D+00 0.802D+00
 Coeff:      0.373D-02-0.716D-02-0.186D-01-0.223D-01 0.242D+00 0.802D+00
 Gap=     0.317 Goal=   None    Shift=    0.000
 RMSDP=8.06D-06 MaxDP=9.25D-04 DE=-1.42D-05 OVMax= 5.28D-04

 Initial convergence to 1.0D-05 achieved.  Increase integral accuracy.
 Cycle   7  Pass 1  IDiag  1:
 E= -191.606389241012     Delta-E=        0.000009055905 Rises=F Damp=F
 DIIS: error= 1.98D-05 at cycle   1 NSaved=   1.
 NSaved= 1 IEnMin= 1 EnMin= -191.606389241012     IErMin= 1 ErrMin= 1.98D-05
 ErrMax= 1.98D-05  0.00D+00 EMaxC= 1.00D-01 BMatC= 1.93D-07 BMatP= 1.93D-07
 IDIUse=1 WtCom= 1.00D+00 WtEn= 0.00D+00
 Coeff-Com:  0.100D+01
 Coeff:      0.100D+01
 Gap=     0.318 Goal=   None    Shift=    0.000
 RMSDP=8.06D-06 MaxDP=9.25D-04 DE= 9.06D-06 OVMax= 2.01D-04

 Cycle   8  Pass 1  IDiag  1:
 E= -191.606389379191     Delta-E=       -0.000000138179 Rises=F Damp=F
 DIIS: error= 3.31D-05 at cycle   2 NSaved=   2.
 NSaved= 2 IEnMin= 2 EnMin= -191.606389379191     IErMin= 1 ErrMin= 1.98D-05
 ErrMax= 3.31D-05  0.00D+00 EMaxC= 1.00D-01 BMatC= 1.16D-07 BMatP= 1.93D-07
 IDIUse=1 WtCom= 1.00D+00 WtEn= 0.00D+00
 Coeff-Com:  0.420D+00 0.580D+00
 Coeff:      0.420D+00 0.580D+00
 Gap=     0.318 Goal=   None    Shift=    0.000
 RMSDP=5.87D-07 MaxDP=3.81D-05 DE=-1.38D-07 OVMax= 1.83D-04

 Cycle   9  Pass 1  IDiag  1:
 E= -191.606389473165     Delta-E=       -0.000000093975 Rises=F Damp=F
 DIIS: error= 9.31D-06 at cycle   3 NSaved=   3.
 NSaved= 3 IEnMin= 3 EnMin= -191.606389473165     IErMin= 3 ErrMin= 9.31D-06
 ErrMax= 9.31D-06  0.00D+00 EMaxC= 1.00D-01 BMatC= 2.86D-08 BMatP= 1.16D-07
 IDIUse=1 WtCom= 1.00D+00 WtEn= 0.00D+00
 Coeff-Com: -0.442D-01 0.304D+00 0.740D+00
 Coeff:     -0.442D-01 0.304D+00 0.740D+00
 Gap=     0.318 Goal=   None    Shift=    0.000
 RMSDP=7.25D-07 MaxDP=8.28D-05 DE=-9.40D-08 OVMax= 5.88D-05

 Cycle  10  Pass 1  IDiag  1:
 E= -191.606389496929     Delta-E=       -0.000000023764 Rises=F Damp=F
 DIIS: error= 3.19D-06 at cycle   4 NSaved=   4.
 NSaved= 4 IEnMin= 4 EnMin= -191.606389496929     IErMin= 4 ErrMin= 3.19D-06
 ErrMax= 3.19D-06  0.00D+00 EMaxC= 1.00D-01 BMatC= 2.02D-09 BMatP= 2.86D-08
 IDIUse=1 WtCom= 1.00D+00 WtEn= 0.00D+00
 Coeff-Com: -0.781D-01 0.713D-01 0.226D+00 0.781D+00
 Coeff:     -0.781D-01 0.713D-01 0.226D+00 0.781D+00
 Gap=     0.318 Goal=   None    Shift=    0.000
 RMSDP=1.96D-07 MaxDP=2.17D-05 DE=-2.38D-08 OVMax= 3.06D-05

 Cycle  11  Pass 1  IDiag  1:
 E= -191.606389499638     Delta-E=       -0.000000002709 Rises=F Damp=F
 DIIS: error= 1.50D-06 at cycle   5 NSaved=   5.
 NSaved= 5 IEnMin= 5 EnMin= -191.606389499638     IErMin= 5 ErrMin= 1.50D-06
 ErrMax= 1.50D-06  0.00D+00 EMaxC= 1.00D-01 BMatC= 3.68D-10 BMatP= 2.02D-09
 IDIUse=1 WtCom= 1.00D+00 WtEn= 0.00D+00
 Coeff-Com: -0.130D-01-0.125D-01-0.881D-01 0.230D+00 0.884D+00
 Coeff:     -0.130D-01-0.125D-01-0.881D-01 0.230D+00 0.884D+00
 Gap=     0.318 Goal=   None    Shift=    0.000
 RMSDP=1.07D-07 MaxDP=1.20D-05 DE=-2.71D-09 OVMax= 1.38D-05

 Cycle  12  Pass 1  IDiag  1:
 E= -191.606389500028     Delta-E=       -0.000000000390 Rises=F Damp=F
 DIIS: error= 5.17D-07 at cycle   6 NSaved=   6.
 NSaved= 6 IEnMin= 6 EnMin= -191.606389500028     IErMin= 6 ErrMin= 5.17D-07
 ErrMax= 5.17D-07  0.00D+00 EMaxC= 1.00D-01 BMatC= 5.61D-11 BMatP= 3.68D-10
 IDIUse=1 WtCom= 1.00D+00 WtEn= 0.00D+00
 Coeff-Com:  0.183D-02-0.121D-01-0.713D-01 0.234D-01 0.432D+00 0.626D+00
 Coeff:      0.183D-02-0.121D-01-0.713D-01 0.234D-01 0.432D+00 0.626D+00
 Gap=     0.318 Goal=   None    Shift=    0.000
 RMSDP=2.98D-08 MaxDP=3.48D-06 DE=-3.90D-10 OVMax= 2.67D-06

 Cycle  13  Pass 1  IDiag  1:
 E= -191.606389500092     Delta-E=       -0.000000000064 Rises=F Damp=F
 DIIS: error= 6.86D-08 at cycle   7 NSaved=   7.
 NSaved= 7 IEnMin= 7 EnMin= -191.606389500092     IErMin= 7 ErrMin= 6.86D-08
 ErrMax= 6.86D-08  0.00D+00 EMaxC= 1.00D-01 BMatC= 1.24D-12 BMatP= 5.61D-11
 IDIUse=1 WtCom= 1.00D+00 WtEn= 0.00D+00
 Coeff-Com:  0.124D-02-0.157D-02-0.133D-01-0.939D-02 0.614D-01 0.164D+00
 Coeff-Com:  0.798D+00
 Coeff:      0.124D-02-0.157D-02-0.133D-01-0.939D-02 0.614D-01 0.164D+00
 Coeff:      0.798D+00
 Gap=     0.318 Goal=   None    Shift=    0.000
 RMSDP=3.00D-09 MaxDP=1.00D-07 DE=-6.41D-11 OVMax= 6.02D-07

 SCF Done:  E(RB2PLYPD3) =  -191.606389500     A.U. after   13 cycles
            NFock= 13  Conv=0.30D-08     -V/T= 2.0042
 KE= 1.908108963330D+02 PE=-6.528431743433D+02 EE= 1.679670393009D+02
 Leave Link  502 at Wed Aug 26 08:45:16 2020, MaxMem=  2097152000 cpu:       312.3
 (Enter /opt/cluster/programs/g09/g09_d.01/g09/l801.exe)
 DoSCS=T DFT=T ScalE2(SS,OS)=  0.270000  0.270000
 ExpMin= 7.60D-02 ExpMax= 1.17D+05 ExpMxC= 1.13D+03 IAcc=3 IRadAn=         5 AccDes= 0.00D+00
 HarFok:  IExCor=  205 AccDes= 0.00D+00 IRadAn=         5 IDoV=-2 UseB2=F ITyADJ=14
 ICtDFT= 12500011 ScaDFX=  1.000000  1.000000  1.000000  1.000000
 Largest valence mixing into a core orbital is  1.14D-04
 Largest core mixing into a valence orbital is  2.00D-05
 Range of M.O.s used for correlation:     5   348
 NBasis=   348 NAE=    15 NBE=    15 NFC=     4 NFV=     0
 NROrb=    344 NOA=    11 NOB=    11 NVA=   333 NVB=   333

 **** Warning!!: The largest alpha MO coefficient is  0.30843237D+02

 Leave Link  801 at Wed Aug 26 08:45:21 2020, MaxMem=  2097152000 cpu:         0.7
 (Enter /opt/cluster/programs/g09/g09_d.01/g09/l906.exe)
 DoSCS=T DFT=T ScalE2(SS,OS)=  0.270000  0.270000
 FulOut=F Deriv=F AODrv=F NAtomX=     8
   MMem=        1190  MDisk=          11 MDiskD=          11
  W3Min=     1567764 MinDsk=     2827057 NBas6D=         428
 NBas2D=       93150    NTT=       91806    LW2=     4508827
    MDV=  2096571952 MDiskM=       10875 NBas2p=       89347
 Fully direct method using O(OVN) memory.
 IMap=   1   2   3   4   5   6   7   8   9  10  11
 JobTyp=1 Pass  1:  I=   1 to  11 NPSUse=  8 ParTrn=T ParDer=T DoDerP=F.
 Spin components of T(2) and E(2):
     alpha-alpha T2 =       0.4433125980D-01 E2=     -0.2954338512D-01
     alpha-beta  T2 =       0.2722493031D+00 E2=     -0.1890543212D+00
     beta-beta   T2 =       0.4433125980D-01 E2=     -0.2954338512D-01
 The integrals were generated   1 times.
 E2(B2PLYPD3) =    -0.2481410915D+00 E(B2PLYPD3) =    -0.19185453059157D+03
 Leave Link  906 at Wed Aug 26 08:46:07 2020, MaxMem=  2097152000 cpu:       359.6
 (Enter /opt/cluster/programs/g09/g09_d.01/g09/l601.exe)
 Copying SCF densities to generalized density rwf, IOpCl= 0 IROHF=0.

 **********************************************************************

            Population analysis using the SCF density.

 **********************************************************************

 Orbital symmetries:
       Occupied  (A) (A) (A) (A) (A) (A) (A) (A) (A) (A) (A) (A)
                 (A) (A) (A)
       Virtual   (A) (A) (A) (A) (A) (A) (A) (A) (A) (A) (A) (A)
                 (A) (A) (A) (A) (A) (A) (A) (A) (A) (A) (A) (A)
                 (A) (A) (A) (A) (A) (A) (A) (A) (A) (A) (A) (A)
                 (A) (A) (A) (A) (A) (A) (A) (A) (A) (A) (A) (A)
                 (A) (A) (A) (A) (A) (A) (A) (A) (A) (A) (A) (A)
                 (A) (A) (A) (A) (A) (A) (A) (A) (A) (A) (A) (A)
                 (A) (A) (A) (A) (A) (A) (A) (A) (A) (A) (A) (A)
                 (A) (A) (A) (A) (A) (A) (A) (A) (A) (A) (A) (A)
                 (A) (A) (A) (A) (A) (A) (A) (A) (A) (A) (A) (A)
                 (A) (A) (A) (A) (A) (A) (A) (A) (A) (A) (A) (A)
                 (A) (A) (A) (A) (A) (A) (A) (A) (A) (A) (A) (A)
                 (A) (A) (A) (A) (A) (A) (A) (A) (A) (A) (A) (A)
                 (A) (A) (A) (A) (A) (A) (A) (A) (A) (A) (A) (A)
                 (A) (A) (A) (A) (A) (A) (A) (A) (A) (A) (A) (A)
                 (A) (A) (A) (A) (A) (A) (A) (A) (A) (A) (A) (A)
                 (A) (A) (A) (A) (A) (A) (A) (A) (A) (A) (A) (A)
                 (A) (A) (A) (A) (A) (A) (A) (A) (A) (A) (A) (A)
                 (A) (A) (A) (A) (A) (A) (A) (A) (A) (A) (A) (A)
                 (A) (A) (A) (A) (A) (A) (A) (A) (A) (A) (A) (A)
                 (A) (A) (A) (A) (A) (A) (A) (A) (A) (A) (A) (A)
                 (A) (A) (A) (A) (A) (A) (A) (A) (A) (A) (A) (A)
                 (A) (A) (A) (A) (A) (A) (A) (A) (A) (A) (A) (A)
                 (A) (A) (A) (A) (A) (A) (A) (A) (A) (A) (A) (A)
                 (A) (A) (A) (A) (A) (A) (A) (A) (A) (A) (A) (A)
                 (A) (A) (A) (A) (A) (A) (A) (A) (A) (A) (A) (A)
                 (A) (A) (A) (A) (A) (A) (A) (A) (A) (A) (A) (A)
                 (A) (A) (A) (A) (A) (A) (A) (A) (A) (A) (A) (A)
                 (A) (A) (A) (A) (A) (A) (A) (A) (A)
 The electronic state is 1-A.
 Alpha  occ. eigenvalues --  -19.72453 -10.70801 -10.66817 -10.65548  -1.18945
 Alpha  occ. eigenvalues --   -0.92327  -0.75197  -0.67226  -0.56505  -0.55595
 Alpha  occ. eigenvalues --   -0.50073  -0.46361  -0.46181  -0.34440  -0.33780
 Alpha virt. eigenvalues --   -0.02016   0.05518   0.06923   0.08011   0.09566
 Alpha virt. eigenvalues --    0.12324   0.14091   0.15321   0.17350   0.19434
 Alpha virt. eigenvalues --    0.19906   0.21252   0.25099   0.26556   0.29041
 Alpha virt. eigenvalues --    0.30665   0.33373   0.34592   0.37188   0.37585
 Alpha virt. eigenvalues --    0.39379   0.41237   0.42919   0.45021   0.46126
 Alpha virt. eigenvalues --    0.47801   0.49016   0.52057   0.54207   0.56750
 Alpha virt. eigenvalues --    0.57783   0.64384   0.65923   0.67785   0.70987
 Alpha virt. eigenvalues --    0.74731   0.76461   0.78466   0.79052   0.80093
 Alpha virt. eigenvalues --    0.81123   0.81893   0.82297   0.84352   0.85468
 Alpha virt. eigenvalues --    0.87425   0.91620   0.91980   0.93445   0.95172
 Alpha virt. eigenvalues --    0.96242   0.97398   1.00394   1.02207   1.06314
 Alpha virt. eigenvalues --    1.09347   1.11584   1.15287   1.15884   1.18962
 Alpha virt. eigenvalues --    1.19221   1.24508   1.27149   1.35109   1.37759
 Alpha virt. eigenvalues --    1.44067   1.47415   1.47680   1.54571   1.56514
 Alpha virt. eigenvalues --    1.59777   1.60806   1.63942   1.66378   1.70627
 Alpha virt. eigenvalues --    1.72315   1.76586   1.78504   1.82434   1.83756
 Alpha virt. eigenvalues --    1.86321   1.88620   1.91242   1.93950   1.94461
 Alpha virt. eigenvalues --    1.96287   1.97437   1.99270   2.02511   2.03139
 Alpha virt. eigenvalues --    2.06654   2.09000   2.10755   2.13939   2.14280
 Alpha virt. eigenvalues --    2.15370   2.18019   2.19920   2.21698   2.24591
 Alpha virt. eigenvalues --    2.28155   2.36632   2.37207   2.40111   2.43689
 Alpha virt. eigenvalues --    2.44510   2.45792   2.46901   2.48601   2.52623
 Alpha virt. eigenvalues --    2.55353   2.57162   2.58395   2.60271   2.61910
 Alpha virt. eigenvalues --    2.63272   2.66106   2.67123   2.67704   2.71603
 Alpha virt. eigenvalues --    2.74730   2.75598   2.83768   2.86034   2.87641
 Alpha virt. eigenvalues --    2.88267   2.93259   2.95390   2.98154   3.03368
 Alpha virt. eigenvalues --    3.14431   3.16548   3.25402   3.28680   3.29993
 Alpha virt. eigenvalues --    3.35399   3.39157   3.39582   3.40546   3.42968
 Alpha virt. eigenvalues --    3.49367   3.52344   3.57237   3.59450   3.62303
 Alpha virt. eigenvalues --    3.63494   3.72472   3.75285   3.76795   3.89674
 Alpha virt. eigenvalues --    3.93328   3.96507   3.99418   4.00827   4.03484
 Alpha virt. eigenvalues --    4.11057   4.17125   4.18626   4.23709   4.31236
 Alpha virt. eigenvalues --    4.36495   4.41401   4.52275   4.60814   4.63103
 Alpha virt. eigenvalues --    4.64331   4.78750   4.86213   4.90781   4.97291
 Alpha virt. eigenvalues --    5.02184   5.05995   5.06992   5.08338   5.12345
 Alpha virt. eigenvalues --    5.19517   5.27777   5.33200   5.35697   5.40548
 Alpha virt. eigenvalues --    5.44586   5.52451   5.56926   5.58621   5.59248
 Alpha virt. eigenvalues --    5.63439   5.68670   5.69775   5.72491   5.73327
 Alpha virt. eigenvalues --    5.75022   5.79654   5.83858   5.87777   5.91180
 Alpha virt. eigenvalues --    5.95200   5.98524   6.00580   6.03161   6.05736
 Alpha virt. eigenvalues --    6.08353   6.11362   6.12762   6.15608   6.17739
 Alpha virt. eigenvalues --    6.19720   6.21396   6.22916   6.24238   6.28624
 Alpha virt. eigenvalues --    6.29879   6.30487   6.32439   6.39332   6.44445
 Alpha virt. eigenvalues --    6.45093   6.47241   6.50354   6.51552   6.57212
 Alpha virt. eigenvalues --    6.58064   6.62970   6.72216   6.73378   6.76591
 Alpha virt. eigenvalues --    6.80634   6.83625   6.88482   6.92155   6.97182
 Alpha virt. eigenvalues --    7.01523   7.07078   7.09500   7.14005   7.22269
 Alpha virt. eigenvalues --    7.24895   7.28984   7.35283   7.40565   7.42759
 Alpha virt. eigenvalues --    7.50386   7.55903   7.57467   7.61051   7.63760
 Alpha virt. eigenvalues --    7.65664   7.68831   7.71632   7.72830   7.77411
 Alpha virt. eigenvalues --    7.81863   7.86284   7.93126   7.96252   8.00734
 Alpha virt. eigenvalues --    8.03477   8.09640   8.11996   8.14584   8.15482
 Alpha virt. eigenvalues --    8.17440   8.24047   8.24597   8.29900   8.31707
 Alpha virt. eigenvalues --    8.33193   8.36763   8.39982   8.40798   8.44020
 Alpha virt. eigenvalues --    8.52643   8.55883   8.59165   8.61020   8.66470
 Alpha virt. eigenvalues --    8.70043   8.77083   8.86976   8.94895   9.01292
 Alpha virt. eigenvalues --    9.08554   9.09330   9.15737   9.20794   9.24876
 Alpha virt. eigenvalues --    9.31648   9.43790   9.49718   9.56988   9.65000
 Alpha virt. eigenvalues --    9.66703   9.74394   9.78061   9.83505   9.92339
 Alpha virt. eigenvalues --    9.96190   9.97668  10.08263  10.20710  10.25191
 Alpha virt. eigenvalues --   10.34177  10.37393  10.51058  10.56960  10.64393
 Alpha virt. eigenvalues --   10.96989  11.18923  11.26230  11.29295  11.42521
 Alpha virt. eigenvalues --   11.66502  11.78644  11.87764  12.04259  12.13148
 Alpha virt. eigenvalues --   12.28160  12.36368  12.46740  12.54558  12.73369
 Alpha virt. eigenvalues --   12.82217  13.34316  13.74487  14.37003  14.69788
 Alpha virt. eigenvalues --   28.48275  28.93936  29.35001  48.65821 148.05756
 Alpha virt. eigenvalues --  148.52302 148.91632 254.41860
          Condensed to atoms (all electrons):
               1          2          3          4          5          6
     1  C    4.480499   0.628232   0.370649  -0.054284  -0.026531  -0.003960
     2  O    0.628232   7.898596  -0.091715   0.005827   0.006663   0.000343
     3  C    0.370649  -0.091715   5.168844   0.478933   0.364995  -0.047728
     4  C   -0.054284   0.005827   0.478933   4.883645  -0.034938   0.418404
     5  H   -0.026531   0.006663   0.364995  -0.034938   0.577459   0.004918
     6  H   -0.003960   0.000343  -0.047728   0.418404   0.004918   0.576504
     7  H    0.002711  -0.000545  -0.029997   0.407065  -0.005008  -0.040140
     8  H    0.442925  -0.091125  -0.168785   0.022783   0.008769   0.005901
               7          8
     1  C    0.002711   0.442925
     2  O   -0.000545  -0.091125
     3  C   -0.029997  -0.168785
     4  C    0.407065   0.022783
     5  H   -0.005008   0.008769
     6  H   -0.040140   0.005901
     7  H    0.565133  -0.000689
     8  H   -0.000689   0.701974
 Mulliken charges:
               1
     1  C    0.159760
     2  O   -0.356277
     3  C   -0.045196
     4  C   -0.127435
     5  H    0.103672
     6  H    0.085758
     7  H    0.101471
     8  H    0.078247
 Sum of Mulliken charges =   0.00000
 Mulliken charges with hydrogens summed into heavy atoms:
               1
     1  C    0.238007
     2  O   -0.356277
     3  C    0.058476
     4  C    0.059793
 Electronic spatial extent (au):  <R**2>=            302.0606
 Charge=              0.0000 electrons
 Dipole moment (field-independent basis, Debye):
    X=             -3.5555    Y=              0.7989    Z=              0.0861  Tot=              3.6452
 Quadrupole moment (field-independent basis, Debye-Ang):
   XX=            -27.6583   YY=            -21.5409   ZZ=            -25.3879
   XY=              0.8812   XZ=             -0.3245   YZ=             -0.0713
 Traceless Quadrupole moment (field-independent basis, Debye-Ang):
   XX=             -2.7959   YY=              3.3215   ZZ=             -0.5255
   XY=              0.8812   XZ=             -0.3245   YZ=             -0.0713
 Octapole moment (field-independent basis, Debye-Ang**2):
  XXX=            -15.3572  YYY=              0.3377  ZZZ=              0.2140  XYY=              0.3840
  XXY=              1.0936  XXZ=              0.6984  XZZ=              4.6317  YZZ=              0.3653
  YYZ=              0.1034  XYZ=              0.1005
 Hexadecapole moment (field-independent basis, Debye-Ang**3):
 XXXX=           -308.1021 YYYY=            -54.9201 ZZZZ=            -27.7938 XXXY=              3.4037
 XXXZ=             -2.6694 YYYX=             -0.3522 YYYZ=             -0.1957 ZZZX=             -0.3565
 ZZZY=             -0.0619 XXYY=            -59.1924 XXZZ=            -58.6404 YYZZ=            -15.8176
 XXYZ=             -0.3521 YYXZ=             -0.2920 ZZXY=             -0.2423
 N-N= 1.024588492093D+02 E-N=-6.528431770812D+02  KE= 1.908108963330D+02
 Leave Link  601 at Wed Aug 26 08:46:07 2020, MaxMem=  2097152000 cpu:         0.5
 (Enter /opt/cluster/programs/g09/g09_d.01/g09/l9999.exe)
 1\1\GINC-NODE29\SP\RB2PLYPD3-FC\def2QZVP\C3H4O1\BOITTIER\26-Aug-2020\0
 \\#p B2PLYPD3/Def2QZVP\\acrolein\\0,1\C,0,-4.994745,-1.392399,0.900901
 \O,0,-3.925957,-0.860571,0.662417\C,0,-5.193702,-2.834616,1.127315\C,0
 ,-6.433588,-3.299638,1.397247\H,0,-4.247575,-3.474505,1.12926\H,0,-7.3
 2624,-2.614703,1.437689\H,0,-6.611428,-4.368083,1.699306\H,0,-5.825855
 ,-0.778109,0.888513\\Version=ES64L-G09RevD.01\State=1-A\HF=-191.606389
 5\MP2=-191.8545306\RMSD=3.005e-09\PG=C01 [X(C3H4O1)]\\@


 SCIENCE IS A VERY HUMAN FORM OF KNOWLEDGE.
 WE ARE ALWAYS AT THE BRINK OF THE KNOWN,
 WE ALWAYS FEEL FORWARD FOR WHAT IS HOPED.
 EVERY JUDGEMENT IN SCIENCE STANDS ON THE EDGE OF ERROR, AND IS PERSONAL.
 SCIENCE IS A TRIBUTE TO WHAT WE CAN KNOW ALTHOUGH WE ARE FALLIBLE.

                     -- J. BRONOWSKI
 Job cpu time:       0 days  0 hours 11 minutes 24.9 seconds.
 File lengths (MBytes):  RWF=     49 Int=      0 D2E=      0 Chk=      7 Scr=      1
 Normal termination of Gaussian 09 at Wed Aug 26 08:46:07 2020.
