 Entering Gaussian System, Link 0=/opt/cluster/programs/g09/g09_d.01/g09//g09
 Input=/home/boittier/MDCM/nms_sampling/acrolein_geom.xyz.dir/energies/acrolein_750_energy.com
 Output=/scratch/boittier/acrolein_750_energy/acrolein_750_energy.out
 Initial command:
 /opt/cluster/programs/g09/g09_d.01/g09/l1.exe "/scratch/boittier/acrolein_750_energy/Gau-138904.inp" -scrdir="/scratch/boittier/acrolein_750_energy/"
 Entering Link 1 = /opt/cluster/programs/g09/g09_d.01/g09/l1.exe PID=    138905.
  
 Copyright (c) 1988,1990,1992,1993,1995,1998,2003,2009,2013,
            Gaussian, Inc.  All Rights Reserved.
  
 This is part of the Gaussian(R) 09 program.  It is based on
 the Gaussian(R) 03 system (copyright 2003, Gaussian, Inc.),
 the Gaussian(R) 98 system (copyright 1998, Gaussian, Inc.),
 the Gaussian(R) 94 system (copyright 1995, Gaussian, Inc.),
 the Gaussian 92(TM) system (copyright 1992, Gaussian, Inc.),
 the Gaussian 90(TM) system (copyright 1990, Gaussian, Inc.),
 the Gaussian 88(TM) system (copyright 1988, Gaussian, Inc.),
 the Gaussian 86(TM) system (copyright 1986, Carnegie Mellon
 University), and the Gaussian 82(TM) system (copyright 1983,
 Carnegie Mellon University). Gaussian is a federally registered
 trademark of Gaussian, Inc.
  
 This software contains proprietary and confidential information,
 including trade secrets, belonging to Gaussian, Inc.
  
 This software is provided under written license and may be
 used, copied, transmitted, or stored only in accord with that
 written license.
  
 The following legend is applicable only to US Government
 contracts under FAR:
  
                    RESTRICTED RIGHTS LEGEND
  
 Use, reproduction and disclosure by the US Government is
 subject to restrictions as set forth in subparagraphs (a)
 and (c) of the Commercial Computer Software - Restricted
 Rights clause in FAR 52.227-19.
  
 Gaussian, Inc.
 340 Quinnipiac St., Bldg. 40, Wallingford CT 06492
  
  
 ---------------------------------------------------------------
 Warning -- This program may not be used in any manner that
 competes with the business of Gaussian, Inc. or will provide
 assistance to any competitor of Gaussian, Inc.  The licensee
 of this program is prohibited from giving any competitor of
 Gaussian, Inc. access to this program.  By using this program,
 the user acknowledges that Gaussian, Inc. is engaged in the
 business of creating and licensing software in the field of
 computational chemistry and represents and warrants to the
 licensee that it is not a competitor of Gaussian, Inc. and that
 it will not use this program in any manner prohibited above.
 ---------------------------------------------------------------
  

 Cite this work as:
 Gaussian 09, Revision D.01,
 M. J. Frisch, G. W. Trucks, H. B. Schlegel, G. E. Scuseria, 
 M. A. Robb, J. R. Cheeseman, G. Scalmani, V. Barone, B. Mennucci, 
 G. A. Petersson, H. Nakatsuji, M. Caricato, X. Li, H. P. Hratchian, 
 A. F. Izmaylov, J. Bloino, G. Zheng, J. L. Sonnenberg, M. Hada, 
 M. Ehara, K. Toyota, R. Fukuda, J. Hasegawa, M. Ishida, T. Nakajima, 
 Y. Honda, O. Kitao, H. Nakai, T. Vreven, J. A. Montgomery, Jr., 
 J. E. Peralta, F. Ogliaro, M. Bearpark, J. J. Heyd, E. Brothers, 
 K. N. Kudin, V. N. Staroverov, T. Keith, R. Kobayashi, J. Normand, 
 K. Raghavachari, A. Rendell, J. C. Burant, S. S. Iyengar, J. Tomasi, 
 M. Cossi, N. Rega, J. M. Millam, M. Klene, J. E. Knox, J. B. Cross, 
 V. Bakken, C. Adamo, J. Jaramillo, R. Gomperts, R. E. Stratmann, 
 O. Yazyev, A. J. Austin, R. Cammi, C. Pomelli, J. W. Ochterski, 
 R. L. Martin, K. Morokuma, V. G. Zakrzewski, G. A. Voth, 
 P. Salvador, J. J. Dannenberg, S. Dapprich, A. D. Daniels, 
 O. Farkas, J. B. Foresman, J. V. Ortiz, J. Cioslowski, 
 and D. J. Fox, Gaussian, Inc., Wallingford CT, 2013.
 
 ******************************************
 Gaussian 09:  ES64L-G09RevD.01 24-Apr-2013
                26-Aug-2020 
 ******************************************
 %chk=/home/boittier/MDCM/nms_sampling/acrolein_geom.xyz.dir/acrolein_750.chk
 %nproc=8
 Will use up to    8 processors via shared memory.
 %mem=16000MB
 --------------------
 #p B2PLYPD3/Def2QZVP
 --------------------
 1/38=1/1;
 2/12=2,17=6,18=5,40=1/2;
 3/5=45,7=101,11=9,16=1,25=1,30=1,74=-60/1,2,3;
 4//1;
 5/5=2,38=5/2;
 8/10=1/1;
 9/16=-3/6;
 6/7=2,8=2,9=2,10=2/1;
 99/5=1,9=1/99;
 Leave Link    1 at Wed Aug 26 19:12:48 2020, MaxMem=  2097152000 cpu:         0.3
 (Enter /opt/cluster/programs/g09/g09_d.01/g09/l101.exe)
 --------
 acrolein
 --------
 Symbolic Z-matrix:
 Charge =  0 Multiplicity = 1
 C                    -5.00073  -1.39103   0.89168 
 O                    -3.93194  -0.85932   0.65099 
 C                    -5.19121  -2.83273   1.16743 
 C                    -6.40953  -3.30301   1.3913 
 H                    -4.34062  -3.46581   1.10434 
 H                    -7.30964  -2.64133   1.4539 
 H                    -6.55038  -4.3372    1.51415 
 H                    -5.95236  -0.79117   0.96276 
 
 NAtoms=      8 NQM=        8 NQMF=       0 NMMI=      0 NMMIF=      0
                NMic=       0 NMicF=      0.
                    Isotopes and Nuclear Properties:
 (Nuclear quadrupole moments (NQMom) in fm**2, nuclear magnetic moments (NMagM)
  in nuclear magnetons)

  Atom         1           2           3           4           5           6           7           8
 IAtWgt=          12          16          12          12           1           1           1           1
 AtmWgt=  12.0000000  15.9949146  12.0000000  12.0000000   1.0078250   1.0078250   1.0078250   1.0078250
 NucSpn=           0           0           0           0           1           1           1           1
 AtZEff=   0.0000000   0.0000000   0.0000000   0.0000000   0.0000000   0.0000000   0.0000000   0.0000000
 NQMom=    0.0000000   0.0000000   0.0000000   0.0000000   0.0000000   0.0000000   0.0000000   0.0000000
 NMagM=    0.0000000   0.0000000   0.0000000   0.0000000   2.7928460   2.7928460   2.7928460   2.7928460
 AtZNuc=   6.0000000   8.0000000   6.0000000   6.0000000   1.0000000   1.0000000   1.0000000   1.0000000
 Leave Link  101 at Wed Aug 26 19:12:48 2020, MaxMem=  2097152000 cpu:         0.5
 (Enter /opt/cluster/programs/g09/g09_d.01/g09/l202.exe)
                          Input orientation:                          
 ---------------------------------------------------------------------
 Center     Atomic      Atomic             Coordinates (Angstroms)
 Number     Number       Type             X           Y           Z
 ---------------------------------------------------------------------
      1          6           0       -5.000726   -1.391032    0.891677
      2          8           0       -3.931943   -0.859318    0.650987
      3          6           0       -5.191211   -2.832725    1.167431
      4          6           0       -6.409531   -3.303012    1.391303
      5          1           0       -4.340619   -3.465805    1.104338
      6          1           0       -7.309643   -2.641329    1.453896
      7          1           0       -6.550378   -4.337195    1.514154
      8          1           0       -5.952359   -0.791171    0.962758
 ---------------------------------------------------------------------
                    Distance matrix (angstroms):
                    1          2          3          4          5
     1  C    0.000000
     2  O    1.217764   0.000000
     3  C    1.480136   2.397250   0.000000
     4  C    2.426937   3.557829   1.324988   0.000000
     5  H    2.187613   2.676998   1.062204   2.095053   0.000000
     6  H    2.685224   3.902446   2.146264   1.118903   3.101138
     7  H    3.386558   4.438118   2.056935   1.050935   2.410457
     8  H    1.127161   2.045465   2.188420   2.588823   3.125927
                    6          7          8
     6  H    0.000000
     7  H    1.859052   0.000000
     8  H    2.346598   3.638125   0.000000
 Stoichiometry    C3H4O
 Framework group  C1[X(C3H4O)]
 Deg. of freedom    18
 Full point group                 C1      NOp   1
 Largest Abelian subgroup         C1      NOp   1
 Largest concise Abelian subgroup C1      NOp   1
                         Standard orientation:                         
 ---------------------------------------------------------------------
 Center     Atomic      Atomic             Coordinates (Angstroms)
 Number     Number       Type             X           Y           Z
 ---------------------------------------------------------------------
      1          6           0       -0.669689    0.341384    0.005605
      2          8           0       -1.798856   -0.114609    0.005499
      3          6           0        0.572853   -0.462373   -0.023860
      4          6           0        1.749394    0.146291    0.005655
      5          1           0        0.479531   -1.520051    0.005893
      6          1           0        1.853367    1.260045   -0.020533
      7          1           0        2.627855   -0.428151    0.058455
      8          1           0       -0.485252    1.453210   -0.012205
 ---------------------------------------------------------------------
 Rotational constants (GHZ):     47.3459059      4.6641526      4.2466956
 Leave Link  202 at Wed Aug 26 19:12:48 2020, MaxMem=  2097152000 cpu:         0.0
 (Enter /opt/cluster/programs/g09/g09_d.01/g09/l301.exe)
 Standard basis: def2QZVP (5D, 7F)
 Ernie: Thresh=  0.10000D-02 Tol=  0.10000D-05 Strict=F.
 There are   428 symmetry adapted cartesian basis functions of A   symmetry.
 There are   348 symmetry adapted basis functions of A   symmetry.
   348 basis functions,   520 primitive gaussians,   428 cartesian basis functions
    15 alpha electrons       15 beta electrons
       nuclear repulsion energy       103.0481054793 Hartrees.
 IExCor=  419 DFT=T Ex+Corr=B2PLYPD3 ExCW=0 ScaHFX=  0.530000
 ScaDFX=  0.470000  0.470000  0.730000  0.730000 ScalE2=  0.270000  0.270000
 IRadAn=      0 IRanWt=     -1 IRanGd=            0 ICorTp=0 IEmpDi=141
 NAtoms=    8 NActive=    8 NUniq=    8 SFac= 1.00D+00 NAtFMM=   60 NAOKFM=F Big=F
 Integral buffers will be    131072 words long.
 Regular integral format.
 Two-electron integral symmetry is turned on.
 R6Disp:  Grimme-D3(BJ) Dispersion energy=       -0.0035895393 Hartrees.
 Nuclear repulsion after empirical dispersion term =      103.0445159400 Hartrees.
 Leave Link  301 at Wed Aug 26 19:12:49 2020, MaxMem=  2097152000 cpu:         0.5
 (Enter /opt/cluster/programs/g09/g09_d.01/g09/l302.exe)
 NPDir=0 NMtPBC=     1 NCelOv=     1 NCel=       1 NClECP=     1 NCelD=      1
         NCelK=      1 NCelE2=     1 NClLst=     1 CellRange=     0.0.
 One-electron integrals computed using PRISM.
   1 Symmetry operations used in ECPInt.
 ECPInt:  NShTT=    5886 NPrTT=   14376 LenC2=    5781 LenP2D=   12183.
 LDataN:  DoStor=T MaxTD1= 8 Len=  415
 NBasis=   348 RedAO= T EigKep=  5.85D-05  NBF=   348
 NBsUse=   348 1.00D-06 EigRej= -1.00D+00 NBFU=   348
 Precomputing XC quadrature grid using
 IXCGrd= 4 IRadAn=           0 IRanWt=          -1 IRanGd=           0 AccXCQ= 0.00D+00.
 Generated NRdTot=       0 NPtTot=           0 NUsed=           0 NTot=          32
 NSgBfM=   428   428   428   428   428 MxSgAt=     8 MxSgA2=     8.
 Leave Link  302 at Wed Aug 26 19:12:49 2020, MaxMem=  2097152000 cpu:         2.6
 (Enter /opt/cluster/programs/g09/g09_d.01/g09/l303.exe)
 DipDrv:  MaxL=1.
 Leave Link  303 at Wed Aug 26 19:12:49 2020, MaxMem=  2097152000 cpu:         0.3
 (Enter /opt/cluster/programs/g09/g09_d.01/g09/l401.exe)
 ExpMin= 7.60D-02 ExpMax= 1.17D+05 ExpMxC= 1.13D+03 IAcc=2 IRadAn=         4 AccDes= 0.00D+00
 Harris functional with IExCor=  419 and IRadAn=       4 diagonalized for initial guess.
 HarFok:  IExCor=  419 AccDes= 0.00D+00 IRadAn=         4 IDoV= 1 UseB2=F ITyADJ=14
 ICtDFT=  3500011 ScaDFX=  1.000000  1.000000  1.000000  1.000000
 FoFCou: FMM=F IPFlag=           0 FMFlag=      100000 FMFlg1=           0
         NFxFlg=           0 DoJE=T BraDBF=F KetDBF=T FulRan=T
         wScrn=  0.000000 ICntrl=     500 IOpCl=  0 I1Cent=   200000004 NGrid=           0
         NMat0=    1 NMatS0=      1 NMatT0=    0 NMatD0=    1 NMtDS0=    0 NMtDT0=    0
 Petite list used in FoFCou.
 Harris En= -192.046332975716    
 JPrj=0 DoOrth=F DoCkMO=F.
 Leave Link  401 at Wed Aug 26 19:12:50 2020, MaxMem=  2097152000 cpu:         6.2
 (Enter /opt/cluster/programs/g09/g09_d.01/g09/l502.exe)
 Closed shell SCF:
 Using DIIS extrapolation, IDIIS=  1040.
 Integral symmetry usage will be decided dynamically.
 Keep R1 ints in memory in canonical form, NReq=1883905047.
 IVT=      574566 IEndB=      574566 NGot=  2097152000 MDV=   252723534
 LenX=   252723534 LenY=   252539909
 Requested convergence on RMS density matrix=1.00D-08 within 128 cycles.
 Requested convergence on MAX density matrix=1.00D-06.
 Requested convergence on             energy=1.00D-06.
 No special actions if energy rises.
 FoFCou: FMM=F IPFlag=           0 FMFlag=           0 FMFlg1=           0
         NFxFlg=           0 DoJE=F BraDBF=F KetDBF=F FulRan=T
         wScrn=  0.000000 ICntrl=     600 IOpCl=  0 I1Cent=           0 NGrid=           0
         NMat0=    1 NMatS0=  60726 NMatT0=    0 NMatD0=    1 NMtDS0=    0 NMtDT0=    0
 Symmetry not used in FoFCou.
 Integral accuracy reduced to 1.0D-05 until final iterations.

 Cycle   1  Pass 0  IDiag  1:
 E= -191.469549428733    
 DIIS: error= 2.81D-02 at cycle   1 NSaved=   1.
 NSaved= 1 IEnMin= 1 EnMin= -191.469549428733     IErMin= 1 ErrMin= 2.81D-02
 ErrMax= 2.81D-02  0.00D+00 EMaxC= 1.00D-01 BMatC= 2.59D-01 BMatP= 2.59D-01
 IDIUse=3 WtCom= 7.19D-01 WtEn= 2.81D-01
 Coeff-Com:  0.100D+01
 Coeff-En:   0.100D+01
 Coeff:      0.100D+01
 Gap=     0.291 Goal=   None    Shift=    0.000
 GapD=    0.291 DampG=1.000 DampE=0.500 DampFc=0.5000 IDamp=-1.
 Damping current iteration by 5.00D-01
 RMSDP=1.76D-03 MaxDP=2.15D-01              OVMax= 1.71D-01

 Cycle   2  Pass 0  IDiag  1:
 E= -191.539607676066     Delta-E=       -0.070058247334 Rises=F Damp=T
 DIIS: error= 9.70D-03 at cycle   2 NSaved=   2.
 NSaved= 2 IEnMin= 2 EnMin= -191.539607676066     IErMin= 2 ErrMin= 9.70D-03
 ErrMax= 9.70D-03  0.00D+00 EMaxC= 1.00D-01 BMatC= 3.39D-02 BMatP= 2.59D-01
 IDIUse=3 WtCom= 9.03D-01 WtEn= 9.70D-02
 Coeff-Com: -0.145D+00 0.114D+01
 Coeff-En:   0.000D+00 0.100D+01
 Coeff:     -0.131D+00 0.113D+01
 Gap=     0.352 Goal=   None    Shift=    0.000
 RMSDP=5.99D-04 MaxDP=7.30D-02 DE=-7.01D-02 OVMax= 1.37D-01

 Cycle   3  Pass 0  IDiag  1:
 E= -191.601848904775     Delta-E=       -0.062241228709 Rises=F Damp=F
 DIIS: error= 1.15D-02 at cycle   3 NSaved=   3.
 NSaved= 3 IEnMin= 3 EnMin= -191.601848904775     IErMin= 2 ErrMin= 9.70D-03
 ErrMax= 1.15D-02  0.00D+00 EMaxC= 1.00D-01 BMatC= 1.78D-02 BMatP= 3.39D-02
 IDIUse=3 WtCom= 8.85D-01 WtEn= 1.15D-01
 Coeff-Com: -0.189D+00 0.525D+00 0.663D+00
 Coeff-En:   0.000D+00 0.000D+00 0.100D+01
 Coeff:     -0.167D+00 0.465D+00 0.702D+00
 Gap=     0.337 Goal=   None    Shift=    0.000
 RMSDP=2.48D-04 MaxDP=1.81D-02 DE=-6.22D-02 OVMax= 4.95D-02

 Cycle   4  Pass 0  IDiag  1:
 E= -191.611537573892     Delta-E=       -0.009688669116 Rises=F Damp=F
 DIIS: error= 5.00D-03 at cycle   4 NSaved=   4.
 NSaved= 4 IEnMin= 4 EnMin= -191.611537573892     IErMin= 4 ErrMin= 5.00D-03
 ErrMax= 5.00D-03  0.00D+00 EMaxC= 1.00D-01 BMatC= 3.44D-03 BMatP= 1.78D-02
 IDIUse=3 WtCom= 9.50D-01 WtEn= 5.00D-02
 Coeff-Com: -0.578D-01 0.944D-01 0.368D+00 0.596D+00
 Coeff-En:   0.000D+00 0.000D+00 0.178D+00 0.822D+00
 Coeff:     -0.549D-01 0.897D-01 0.358D+00 0.607D+00
 Gap=     0.321 Goal=   None    Shift=    0.000
 RMSDP=1.03D-04 MaxDP=8.35D-03 DE=-9.69D-03 OVMax= 1.51D-02

 Cycle   5  Pass 0  IDiag  1:
 E= -191.614281456897     Delta-E=       -0.002743883005 Rises=F Damp=F
 DIIS: error= 3.32D-04 at cycle   5 NSaved=   5.
 NSaved= 5 IEnMin= 5 EnMin= -191.614281456897     IErMin= 5 ErrMin= 3.32D-04
 ErrMax= 3.32D-04  0.00D+00 EMaxC= 1.00D-01 BMatC= 1.32D-05 BMatP= 3.44D-03
 IDIUse=3 WtCom= 9.97D-01 WtEn= 3.32D-03
 Coeff-Com: -0.779D-02 0.955D-02 0.578D-01 0.131D+00 0.810D+00
 Coeff-En:   0.000D+00 0.000D+00 0.000D+00 0.000D+00 0.100D+01
 Coeff:     -0.776D-02 0.952D-02 0.576D-01 0.130D+00 0.810D+00
 Gap=     0.320 Goal=   None    Shift=    0.000
 RMSDP=8.34D-06 MaxDP=5.00D-04 DE=-2.74D-03 OVMax= 2.28D-03

 Initial convergence to 1.0D-05 achieved.  Increase integral accuracy.
 Cycle   6  Pass 1  IDiag  1:
 E= -191.614285508099     Delta-E=       -0.000004051202 Rises=F Damp=F
 DIIS: error= 1.10D-04 at cycle   1 NSaved=   1.
 NSaved= 1 IEnMin= 1 EnMin= -191.614285508099     IErMin= 1 ErrMin= 1.10D-04
 ErrMax= 1.10D-04  0.00D+00 EMaxC= 1.00D-01 BMatC= 1.67D-06 BMatP= 1.67D-06
 IDIUse=3 WtCom= 9.99D-01 WtEn= 1.10D-03
 Coeff-Com:  0.100D+01
 Coeff-En:   0.100D+01
 Coeff:      0.100D+01
 Gap=     0.321 Goal=   None    Shift=    0.000
 RMSDP=8.34D-06 MaxDP=5.00D-04 DE=-4.05D-06 OVMax= 7.98D-04

 Cycle   7  Pass 1  IDiag  1:
 E= -191.614286786048     Delta-E=       -0.000001277949 Rises=F Damp=F
 DIIS: error= 7.13D-05 at cycle   2 NSaved=   2.
 NSaved= 2 IEnMin= 2 EnMin= -191.614286786048     IErMin= 2 ErrMin= 7.13D-05
 ErrMax= 7.13D-05  0.00D+00 EMaxC= 1.00D-01 BMatC= 9.41D-07 BMatP= 1.67D-06
 IDIUse=1 WtCom= 1.00D+00 WtEn= 0.00D+00
 Coeff-Com:  0.421D+00 0.579D+00
 Coeff:      0.421D+00 0.579D+00
 Gap=     0.321 Goal=   None    Shift=    0.000
 RMSDP=1.72D-06 MaxDP=1.14D-04 DE=-1.28D-06 OVMax= 4.70D-04

 Cycle   8  Pass 1  IDiag  1:
 E= -191.614287653128     Delta-E=       -0.000000867080 Rises=F Damp=F
 DIIS: error= 1.49D-05 at cycle   3 NSaved=   3.
 NSaved= 3 IEnMin= 3 EnMin= -191.614287653128     IErMin= 3 ErrMin= 1.49D-05
 ErrMax= 1.49D-05  0.00D+00 EMaxC= 1.00D-01 BMatC= 6.85D-08 BMatP= 9.41D-07
 IDIUse=1 WtCom= 1.00D+00 WtEn= 0.00D+00
 Coeff-Com:  0.480D-01 0.176D+00 0.776D+00
 Coeff:      0.480D-01 0.176D+00 0.776D+00
 Gap=     0.321 Goal=   None    Shift=    0.000
 RMSDP=1.46D-06 MaxDP=1.63D-04 DE=-8.67D-07 OVMax= 1.24D-04

 Cycle   9  Pass 1  IDiag  1:
 E= -191.614287719440     Delta-E=       -0.000000066312 Rises=F Damp=F
 DIIS: error= 1.81D-05 at cycle   4 NSaved=   4.
 NSaved= 4 IEnMin= 4 EnMin= -191.614287719440     IErMin= 3 ErrMin= 1.49D-05
 ErrMax= 1.81D-05  0.00D+00 EMaxC= 1.00D-01 BMatC= 2.05D-08 BMatP= 6.85D-08
 IDIUse=1 WtCom= 1.00D+00 WtEn= 0.00D+00
 Coeff-Com: -0.115D+00-0.881D-01 0.424D+00 0.778D+00
 Coeff:     -0.115D+00-0.881D-01 0.424D+00 0.778D+00
 Gap=     0.321 Goal=   None    Shift=    0.000
 RMSDP=6.85D-07 MaxDP=7.09D-05 DE=-6.63D-08 OVMax= 1.12D-04

 Cycle  10  Pass 1  IDiag  1:
 E= -191.614287748634     Delta-E=       -0.000000029193 Rises=F Damp=F
 DIIS: error= 2.25D-06 at cycle   5 NSaved=   5.
 NSaved= 5 IEnMin= 5 EnMin= -191.614287748634     IErMin= 5 ErrMin= 2.25D-06
 ErrMax= 2.25D-06  0.00D+00 EMaxC= 1.00D-01 BMatC= 1.61D-09 BMatP= 2.05D-08
 IDIUse=1 WtCom= 1.00D+00 WtEn= 0.00D+00
 Coeff-Com: -0.397D-01-0.383D-01 0.752D-01 0.304D+00 0.699D+00
 Coeff:     -0.397D-01-0.383D-01 0.752D-01 0.304D+00 0.699D+00
 Gap=     0.321 Goal=   None    Shift=    0.000
 RMSDP=1.38D-07 MaxDP=1.48D-05 DE=-2.92D-08 OVMax= 2.05D-05

 Cycle  11  Pass 1  IDiag  1:
 E= -191.614287749946     Delta-E=       -0.000000001312 Rises=F Damp=F
 DIIS: error= 1.11D-06 at cycle   6 NSaved=   6.
 NSaved= 6 IEnMin= 6 EnMin= -191.614287749946     IErMin= 6 ErrMin= 1.11D-06
 ErrMax= 1.11D-06  0.00D+00 EMaxC= 1.00D-01 BMatC= 2.23D-10 BMatP= 1.61D-09
 IDIUse=1 WtCom= 1.00D+00 WtEn= 0.00D+00
 Coeff-Com:  0.728D-02 0.200D-02-0.676D-01-0.700D-02 0.263D+00 0.802D+00
 Coeff:      0.728D-02 0.200D-02-0.676D-01-0.700D-02 0.263D+00 0.802D+00
 Gap=     0.321 Goal=   None    Shift=    0.000
 RMSDP=5.27D-08 MaxDP=5.60D-06 DE=-1.31D-09 OVMax= 5.94D-06

 Cycle  12  Pass 1  IDiag  1:
 E= -191.614287750189     Delta-E=       -0.000000000243 Rises=F Damp=F
 DIIS: error= 3.50D-07 at cycle   7 NSaved=   7.
 NSaved= 7 IEnMin= 7 EnMin= -191.614287750189     IErMin= 7 ErrMin= 3.50D-07
 ErrMax= 3.50D-07  0.00D+00 EMaxC= 1.00D-01 BMatC= 1.64D-11 BMatP= 2.23D-10
 IDIUse=1 WtCom= 1.00D+00 WtEn= 0.00D+00
 Coeff-Com:  0.581D-02 0.367D-02-0.339D-01-0.203D-01 0.483D-01 0.306D+00
 Coeff-Com:  0.691D+00
 Coeff:      0.581D-02 0.367D-02-0.339D-01-0.203D-01 0.483D-01 0.306D+00
 Coeff:      0.691D+00
 Gap=     0.321 Goal=   None    Shift=    0.000
 RMSDP=8.54D-09 MaxDP=4.73D-07 DE=-2.43D-10 OVMax= 2.06D-06

 SCF Done:  E(RB2PLYPD3) =  -191.614287750     A.U. after   12 cycles
            NFock= 12  Conv=0.85D-08     -V/T= 2.0034
 KE= 1.909563466686D+02 PE=-6.541134283569D+02 EE= 1.684982779981D+02
 Leave Link  502 at Wed Aug 26 19:13:51 2020, MaxMem=  2097152000 cpu:       248.0
 (Enter /opt/cluster/programs/g09/g09_d.01/g09/l801.exe)
 DoSCS=T DFT=T ScalE2(SS,OS)=  0.270000  0.270000
 ExpMin= 7.60D-02 ExpMax= 1.17D+05 ExpMxC= 1.13D+03 IAcc=3 IRadAn=         5 AccDes= 0.00D+00
 HarFok:  IExCor=  205 AccDes= 0.00D+00 IRadAn=         5 IDoV=-2 UseB2=F ITyADJ=14
 ICtDFT= 12500011 ScaDFX=  1.000000  1.000000  1.000000  1.000000
 Largest valence mixing into a core orbital is  1.17D-04
 Largest core mixing into a valence orbital is  1.87D-05
 Range of M.O.s used for correlation:     5   348
 NBasis=   348 NAE=    15 NBE=    15 NFC=     4 NFV=     0
 NROrb=    344 NOA=    11 NOB=    11 NVA=   333 NVB=   333

 **** Warning!!: The largest alpha MO coefficient is  0.29502769D+02

 Leave Link  801 at Wed Aug 26 19:13:51 2020, MaxMem=  2097152000 cpu:         0.7
 (Enter /opt/cluster/programs/g09/g09_d.01/g09/l906.exe)
 DoSCS=T DFT=T ScalE2(SS,OS)=  0.270000  0.270000
 FulOut=F Deriv=F AODrv=F NAtomX=     8
   MMem=        1190  MDisk=          11 MDiskD=          11
  W3Min=     1567764 MinDsk=     2827057 NBas6D=         428
 NBas2D=       93150    NTT=       91806    LW2=     4508827
    MDV=  2096570830 MDiskM=       10875 NBas2p=       89477
 Fully direct method using O(OVN) memory.
 IMap=   1   2   3   4   5   6   7   8   9  10  11
 JobTyp=1 Pass  1:  I=   1 to  11 NPSUse=  8 ParTrn=T ParDer=T DoDerP=F.
 Spin components of T(2) and E(2):
     alpha-alpha T2 =       0.4394867191D-01 E2=     -0.2952803381D-01
     alpha-beta  T2 =       0.2673661194D+00 E2=     -0.1884365757D+00
     beta-beta   T2 =       0.4394867191D-01 E2=     -0.2952803381D-01
 The integrals were generated   1 times.
 E2(B2PLYPD3) =    -0.2474926433D+00 E(B2PLYPD3) =    -0.19186178039353D+03
 Leave Link  906 at Wed Aug 26 19:14:38 2020, MaxMem=  2097152000 cpu:       371.2
 (Enter /opt/cluster/programs/g09/g09_d.01/g09/l601.exe)
 Copying SCF densities to generalized density rwf, IOpCl= 0 IROHF=0.

 **********************************************************************

            Population analysis using the SCF density.

 **********************************************************************

 Orbital symmetries:
       Occupied  (A) (A) (A) (A) (A) (A) (A) (A) (A) (A) (A) (A)
                 (A) (A) (A)
       Virtual   (A) (A) (A) (A) (A) (A) (A) (A) (A) (A) (A) (A)
                 (A) (A) (A) (A) (A) (A) (A) (A) (A) (A) (A) (A)
                 (A) (A) (A) (A) (A) (A) (A) (A) (A) (A) (A) (A)
                 (A) (A) (A) (A) (A) (A) (A) (A) (A) (A) (A) (A)
                 (A) (A) (A) (A) (A) (A) (A) (A) (A) (A) (A) (A)
                 (A) (A) (A) (A) (A) (A) (A) (A) (A) (A) (A) (A)
                 (A) (A) (A) (A) (A) (A) (A) (A) (A) (A) (A) (A)
                 (A) (A) (A) (A) (A) (A) (A) (A) (A) (A) (A) (A)
                 (A) (A) (A) (A) (A) (A) (A) (A) (A) (A) (A) (A)
                 (A) (A) (A) (A) (A) (A) (A) (A) (A) (A) (A) (A)
                 (A) (A) (A) (A) (A) (A) (A) (A) (A) (A) (A) (A)
                 (A) (A) (A) (A) (A) (A) (A) (A) (A) (A) (A) (A)
                 (A) (A) (A) (A) (A) (A) (A) (A) (A) (A) (A) (A)
                 (A) (A) (A) (A) (A) (A) (A) (A) (A) (A) (A) (A)
                 (A) (A) (A) (A) (A) (A) (A) (A) (A) (A) (A) (A)
                 (A) (A) (A) (A) (A) (A) (A) (A) (A) (A) (A) (A)
                 (A) (A) (A) (A) (A) (A) (A) (A) (A) (A) (A) (A)
                 (A) (A) (A) (A) (A) (A) (A) (A) (A) (A) (A) (A)
                 (A) (A) (A) (A) (A) (A) (A) (A) (A) (A) (A) (A)
                 (A) (A) (A) (A) (A) (A) (A) (A) (A) (A) (A) (A)
                 (A) (A) (A) (A) (A) (A) (A) (A) (A) (A) (A) (A)
                 (A) (A) (A) (A) (A) (A) (A) (A) (A) (A) (A) (A)
                 (A) (A) (A) (A) (A) (A) (A) (A) (A) (A) (A) (A)
                 (A) (A) (A) (A) (A) (A) (A) (A) (A) (A) (A) (A)
                 (A) (A) (A) (A) (A) (A) (A) (A) (A) (A) (A) (A)
                 (A) (A) (A) (A) (A) (A) (A) (A) (A) (A) (A) (A)
                 (A) (A) (A) (A) (A) (A) (A) (A) (A) (A) (A) (A)
                 (A) (A) (A) (A) (A) (A) (A) (A) (A)
 The electronic state is 1-A.
 Alpha  occ. eigenvalues --  -19.72941 -10.71961 -10.65395 -10.64241  -1.19093
 Alpha  occ. eigenvalues --   -0.93264  -0.75343  -0.66834  -0.56751  -0.55985
 Alpha  occ. eigenvalues --   -0.50564  -0.47173  -0.46528  -0.34887  -0.33779
 Alpha virt. eigenvalues --   -0.01685   0.05729   0.07132   0.08041   0.09694
 Alpha virt. eigenvalues --    0.12585   0.13896   0.15306   0.17539   0.19592
 Alpha virt. eigenvalues --    0.19971   0.21701   0.25354   0.26514   0.28532
 Alpha virt. eigenvalues --    0.31703   0.33247   0.36464   0.36920   0.39006
 Alpha virt. eigenvalues --    0.39292   0.41372   0.43157   0.44780   0.45963
 Alpha virt. eigenvalues --    0.46881   0.48915   0.53317   0.54065   0.56684
 Alpha virt. eigenvalues --    0.58024   0.64518   0.65832   0.68031   0.70671
 Alpha virt. eigenvalues --    0.75184   0.76439   0.77942   0.79686   0.81406
 Alpha virt. eigenvalues --    0.81681   0.82368   0.82831   0.84220   0.85894
 Alpha virt. eigenvalues --    0.88276   0.91432   0.91957   0.94094   0.95911
 Alpha virt. eigenvalues --    0.96243   0.97809   1.01405   1.02055   1.07891
 Alpha virt. eigenvalues --    1.09135   1.12004   1.14920   1.16693   1.18377
 Alpha virt. eigenvalues --    1.21060   1.26232   1.28161   1.34563   1.40415
 Alpha virt. eigenvalues --    1.41835   1.47211   1.48001   1.54952   1.57380
 Alpha virt. eigenvalues --    1.61149   1.62305   1.65459   1.68204   1.70005
 Alpha virt. eigenvalues --    1.73806   1.76169   1.78235   1.82039   1.82940
 Alpha virt. eigenvalues --    1.86491   1.88722   1.90638   1.93556   1.93717
 Alpha virt. eigenvalues --    1.96630   1.98706   1.99696   2.01906   2.02761
 Alpha virt. eigenvalues --    2.06105   2.10498   2.11912   2.13565   2.14253
 Alpha virt. eigenvalues --    2.15664   2.17926   2.19340   2.23804   2.27957
 Alpha virt. eigenvalues --    2.30164   2.34008   2.36692   2.40614   2.43386
 Alpha virt. eigenvalues --    2.45585   2.46308   2.48169   2.48988   2.53510
 Alpha virt. eigenvalues --    2.54655   2.56903   2.58876   2.60309   2.64178
 Alpha virt. eigenvalues --    2.64261   2.66033   2.67238   2.71715   2.74816
 Alpha virt. eigenvalues --    2.75541   2.79172   2.85317   2.86554   2.87827
 Alpha virt. eigenvalues --    2.89062   2.95263   2.99320   3.02528   3.05092
 Alpha virt. eigenvalues --    3.15597   3.18842   3.28335   3.29312   3.30404
 Alpha virt. eigenvalues --    3.37202   3.37675   3.42511   3.43117   3.51297
 Alpha virt. eigenvalues --    3.52013   3.58051   3.61134   3.62467   3.65482
 Alpha virt. eigenvalues --    3.65856   3.73564   3.77460   3.78608   3.90004
 Alpha virt. eigenvalues --    3.93030   3.99590   4.02356   4.04896   4.06970
 Alpha virt. eigenvalues --    4.09895   4.18427   4.21503   4.24983   4.31661
 Alpha virt. eigenvalues --    4.39565   4.42591   4.53746   4.59968   4.63110
 Alpha virt. eigenvalues --    4.67427   4.82859   4.88717   4.90698   4.97740
 Alpha virt. eigenvalues --    5.02445   5.05765   5.09943   5.11315   5.11989
 Alpha virt. eigenvalues --    5.21082   5.26321   5.29883   5.33379   5.42540
 Alpha virt. eigenvalues --    5.44928   5.52069   5.52750   5.57732   5.59753
 Alpha virt. eigenvalues --    5.66996   5.72086   5.73258   5.76444   5.78797
 Alpha virt. eigenvalues --    5.80217   5.83094   5.84725   5.89465   5.93928
 Alpha virt. eigenvalues --    5.94945   5.96801   5.99483   6.05945   6.07057
 Alpha virt. eigenvalues --    6.09989   6.13843   6.15539   6.17335   6.18971
 Alpha virt. eigenvalues --    6.21137   6.23556   6.26083   6.27653   6.29570
 Alpha virt. eigenvalues --    6.33042   6.34208   6.37686   6.38865   6.45016
 Alpha virt. eigenvalues --    6.48809   6.52596   6.54479   6.57525   6.60379
 Alpha virt. eigenvalues --    6.60740   6.62198   6.66811   6.71494   6.78621
 Alpha virt. eigenvalues --    6.83042   6.84483   6.96876   6.97798   7.02854
 Alpha virt. eigenvalues --    7.05009   7.12157   7.12479   7.16680   7.28887
 Alpha virt. eigenvalues --    7.31974   7.39173   7.44695   7.47982   7.48085
 Alpha virt. eigenvalues --    7.54942   7.57620   7.58405   7.62112   7.64826
 Alpha virt. eigenvalues --    7.67089   7.68752   7.70964   7.72470   7.77495
 Alpha virt. eigenvalues --    7.86285   7.87522   7.89319   8.03414   8.03762
 Alpha virt. eigenvalues --    8.09406   8.10375   8.13263   8.14080   8.16902
 Alpha virt. eigenvalues --    8.23265   8.24926   8.25654   8.32103   8.34346
 Alpha virt. eigenvalues --    8.36127   8.42073   8.46193   8.55271   8.56271
 Alpha virt. eigenvalues --    8.57186   8.61360   8.62645   8.67845   8.70004
 Alpha virt. eigenvalues --    8.86556   8.88387   8.93129   9.00667   9.07132
 Alpha virt. eigenvalues --    9.08127   9.08753   9.18232   9.26562   9.30202
 Alpha virt. eigenvalues --    9.33542   9.40257   9.55646   9.71011   9.72444
 Alpha virt. eigenvalues --    9.81864   9.82235   9.82905   9.89690   9.94713
 Alpha virt. eigenvalues --   10.00194  10.06268  10.20158  10.23635  10.25995
 Alpha virt. eigenvalues --   10.38899  10.43094  10.52298  10.76603  10.99200
 Alpha virt. eigenvalues --   10.99715  11.21385  11.24878  11.29249  11.59591
 Alpha virt. eigenvalues --   11.65102  11.72131  11.80206  12.03940  12.07706
 Alpha virt. eigenvalues --   12.32897  12.35779  12.44919  12.52436  12.93075
 Alpha virt. eigenvalues --   13.14091  13.34376  13.73988  14.36338  14.66665
 Alpha virt. eigenvalues --   28.60219  28.84823  29.56517  48.64391 148.18819
 Alpha virt. eigenvalues --  148.40225 149.17439 254.40294
          Condensed to atoms (all electrons):
               1          2          3          4          5          6
     1  C    4.498332   0.619612   0.366657  -0.056576  -0.029418  -0.004780
     2  O    0.619612   7.879661  -0.086822   0.006449   0.005839   0.000436
     3  C    0.366657  -0.086822   5.162784   0.482045   0.366188  -0.046191
     4  C   -0.056576   0.006449   0.482045   4.869542  -0.038204   0.423469
     5  H   -0.029418   0.005839   0.366188  -0.038204   0.581832   0.005245
     6  H   -0.004780   0.000436  -0.046191   0.423469   0.005245   0.569423
     7  H    0.002987  -0.000612  -0.037286   0.416148  -0.005389  -0.039890
     8  H    0.444096  -0.074681  -0.165938   0.024099   0.008429   0.006737
               7          8
     1  C    0.002987   0.444096
     2  O   -0.000612  -0.074681
     3  C   -0.037286  -0.165938
     4  C    0.416148   0.024099
     5  H   -0.005389   0.008429
     6  H   -0.039890   0.006737
     7  H    0.562880  -0.000741
     8  H   -0.000741   0.691727
 Mulliken charges:
               1
     1  C    0.159091
     2  O   -0.349883
     3  C   -0.041437
     4  C   -0.126973
     5  H    0.105477
     6  H    0.085550
     7  H    0.101902
     8  H    0.066272
 Sum of Mulliken charges =   0.00000
 Mulliken charges with hydrogens summed into heavy atoms:
               1
     1  C    0.225363
     2  O   -0.349883
     3  C    0.064040
     4  C    0.060479
 Electronic spatial extent (au):  <R**2>=            298.7106
 Charge=              0.0000 electrons
 Dipole moment (field-independent basis, Debye):
    X=              3.5400    Y=              0.6931    Z=              0.0307  Tot=              3.6074
 Quadrupole moment (field-independent basis, Debye-Ang):
   XX=            -27.6267   YY=            -21.6787   ZZ=            -25.2178
   XY=             -0.8566   XZ=              0.1516   YZ=             -0.0891
 Traceless Quadrupole moment (field-independent basis, Debye-Ang):
   XX=             -2.7856   YY=              3.1624   ZZ=             -0.3767
   XY=             -0.8566   XZ=              0.1516   YZ=             -0.0891
 Octapole moment (field-independent basis, Debye-Ang**2):
  XXX=             14.7650  YYY=             -0.2250  ZZZ=              0.1187  XYY=              0.1607
  XXY=              0.6403  XXZ=              0.2781  XZZ=             -4.2128  YZZ=              0.0230
  YYZ=             -0.0053  XYZ=             -0.1430
 Hexadecapole moment (field-independent basis, Debye-Ang**3):
 XXXX=           -304.6816 YYYY=            -55.9346 ZZZZ=            -27.3298 XXXY=             -2.7202
 XXXZ=              1.2446 YYYX=              0.3526 YYYZ=             -0.2647 ZZZX=              0.1831
 ZZZY=             -0.0730 XXYY=            -57.9713 XXZZ=            -57.1072 YYZZ=            -15.7040
 XXYZ=             -0.3628 YYXZ=              0.0415 ZZXY=              0.2466
 N-N= 1.030445159400D+02 E-N=-6.541133958938D+02  KE= 1.909563466686D+02
 Leave Link  601 at Wed Aug 26 19:14:38 2020, MaxMem=  2097152000 cpu:         0.5
 (Enter /opt/cluster/programs/g09/g09_d.01/g09/l9999.exe)
 1\1\GINC-NODE21\SP\RB2PLYPD3-FC\def2QZVP\C3H4O1\BOITTIER\26-Aug-2020\0
 \\#p B2PLYPD3/Def2QZVP\\acrolein\\0,1\C,0,-5.000726,-1.391032,0.891677
 \O,0,-3.931943,-0.859318,0.650987\C,0,-5.191211,-2.832725,1.167431\C,0
 ,-6.409531,-3.303012,1.391303\H,0,-4.340619,-3.465805,1.104338\H,0,-7.
 309643,-2.641329,1.453896\H,0,-6.550378,-4.337195,1.514154\H,0,-5.9523
 59,-0.791171,0.962758\\Version=ES64L-G09RevD.01\State=1-A\HF=-191.6142
 878\MP2=-191.8617804\RMSD=8.544e-09\PG=C01 [X(C3H4O1)]\\@


 FIREWORKS ENDED
 AND SPECTATORS GONE AWAY....
 AH, HOW VAST AND DARK
                     SHIKI
 Job cpu time:       0 days  0 hours 10 minutes 31.4 seconds.
 File lengths (MBytes):  RWF=     49 Int=      0 D2E=      0 Chk=      7 Scr=      1
 Normal termination of Gaussian 09 at Wed Aug 26 19:14:38 2020.
