 Entering Gaussian System, Link 0=/opt/cluster/programs/g09/g09_d.01/g09//g09
 Input=/home/boittier/MDCM/nms_sampling/acrolein_geom.xyz.dir/energies/acrolein_2268_energy.com
 Output=/scratch/boittier/acrolein_2268_energy/acrolein_2268_energy.out
 Initial command:
 /opt/cluster/programs/g09/g09_d.01/g09/l1.exe "/scratch/boittier/acrolein_2268_energy/Gau-86442.inp" -scrdir="/scratch/boittier/acrolein_2268_energy/"
 Entering Link 1 = /opt/cluster/programs/g09/g09_d.01/g09/l1.exe PID=     86443.
  
 Copyright (c) 1988,1990,1992,1993,1995,1998,2003,2009,2013,
            Gaussian, Inc.  All Rights Reserved.
  
 This is part of the Gaussian(R) 09 program.  It is based on
 the Gaussian(R) 03 system (copyright 2003, Gaussian, Inc.),
 the Gaussian(R) 98 system (copyright 1998, Gaussian, Inc.),
 the Gaussian(R) 94 system (copyright 1995, Gaussian, Inc.),
 the Gaussian 92(TM) system (copyright 1992, Gaussian, Inc.),
 the Gaussian 90(TM) system (copyright 1990, Gaussian, Inc.),
 the Gaussian 88(TM) system (copyright 1988, Gaussian, Inc.),
 the Gaussian 86(TM) system (copyright 1986, Carnegie Mellon
 University), and the Gaussian 82(TM) system (copyright 1983,
 Carnegie Mellon University). Gaussian is a federally registered
 trademark of Gaussian, Inc.
  
 This software contains proprietary and confidential information,
 including trade secrets, belonging to Gaussian, Inc.
  
 This software is provided under written license and may be
 used, copied, transmitted, or stored only in accord with that
 written license.
  
 The following legend is applicable only to US Government
 contracts under FAR:
  
                    RESTRICTED RIGHTS LEGEND
  
 Use, reproduction and disclosure by the US Government is
 subject to restrictions as set forth in subparagraphs (a)
 and (c) of the Commercial Computer Software - Restricted
 Rights clause in FAR 52.227-19.
  
 Gaussian, Inc.
 340 Quinnipiac St., Bldg. 40, Wallingford CT 06492
  
  
 ---------------------------------------------------------------
 Warning -- This program may not be used in any manner that
 competes with the business of Gaussian, Inc. or will provide
 assistance to any competitor of Gaussian, Inc.  The licensee
 of this program is prohibited from giving any competitor of
 Gaussian, Inc. access to this program.  By using this program,
 the user acknowledges that Gaussian, Inc. is engaged in the
 business of creating and licensing software in the field of
 computational chemistry and represents and warrants to the
 licensee that it is not a competitor of Gaussian, Inc. and that
 it will not use this program in any manner prohibited above.
 ---------------------------------------------------------------
  

 Cite this work as:
 Gaussian 09, Revision D.01,
 M. J. Frisch, G. W. Trucks, H. B. Schlegel, G. E. Scuseria, 
 M. A. Robb, J. R. Cheeseman, G. Scalmani, V. Barone, B. Mennucci, 
 G. A. Petersson, H. Nakatsuji, M. Caricato, X. Li, H. P. Hratchian, 
 A. F. Izmaylov, J. Bloino, G. Zheng, J. L. Sonnenberg, M. Hada, 
 M. Ehara, K. Toyota, R. Fukuda, J. Hasegawa, M. Ishida, T. Nakajima, 
 Y. Honda, O. Kitao, H. Nakai, T. Vreven, J. A. Montgomery, Jr., 
 J. E. Peralta, F. Ogliaro, M. Bearpark, J. J. Heyd, E. Brothers, 
 K. N. Kudin, V. N. Staroverov, T. Keith, R. Kobayashi, J. Normand, 
 K. Raghavachari, A. Rendell, J. C. Burant, S. S. Iyengar, J. Tomasi, 
 M. Cossi, N. Rega, J. M. Millam, M. Klene, J. E. Knox, J. B. Cross, 
 V. Bakken, C. Adamo, J. Jaramillo, R. Gomperts, R. E. Stratmann, 
 O. Yazyev, A. J. Austin, R. Cammi, C. Pomelli, J. W. Ochterski, 
 R. L. Martin, K. Morokuma, V. G. Zakrzewski, G. A. Voth, 
 P. Salvador, J. J. Dannenberg, S. Dapprich, A. D. Daniels, 
 O. Farkas, J. B. Foresman, J. V. Ortiz, J. Cioslowski, 
 and D. J. Fox, Gaussian, Inc., Wallingford CT, 2013.
 
 ******************************************
 Gaussian 09:  ES64L-G09RevD.01 24-Apr-2013
                26-Aug-2020 
 ******************************************
 %chk=/home/boittier/MDCM/nms_sampling/acrolein_geom.xyz.dir/acrolein_2268.chk
 %nproc=8
 Will use up to    8 processors via shared memory.
 %mem=16000MB
 --------------------
 #p B2PLYPD3/Def2QZVP
 --------------------
 1/38=1/1;
 2/12=2,17=6,18=5,40=1/2;
 3/5=45,7=101,11=9,16=1,25=1,30=1,74=-60/1,2,3;
 4//1;
 5/5=2,38=5/2;
 8/10=1/1;
 9/16=-3/6;
 6/7=2,8=2,9=2,10=2/1;
 99/5=1,9=1/99;
 Leave Link    1 at Wed Aug 26 12:50:09 2020, MaxMem=  2097152000 cpu:         0.2
 (Enter /opt/cluster/programs/g09/g09_d.01/g09/l101.exe)
 --------
 acrolein
 --------
 Symbolic Z-matrix:
 Charge =  0 Multiplicity = 1
 C                    -5.02968  -1.36897   0.83341 
 O                    -3.95159  -0.88867   0.70943 
 C                    -5.1885   -2.80908   1.09994 
 C                    -6.38451  -3.29864   1.45613 
 H                    -4.26662  -3.39669   0.95167 
 H                    -7.07836  -2.65195   1.31339 
 H                    -6.59606  -4.56258   1.70946 
 H                    -5.84734  -0.73928   0.88561 
 
 NAtoms=      8 NQM=        8 NQMF=       0 NMMI=      0 NMMIF=      0
                NMic=       0 NMicF=      0.
                    Isotopes and Nuclear Properties:
 (Nuclear quadrupole moments (NQMom) in fm**2, nuclear magnetic moments (NMagM)
  in nuclear magnetons)

  Atom         1           2           3           4           5           6           7           8
 IAtWgt=          12          16          12          12           1           1           1           1
 AtmWgt=  12.0000000  15.9949146  12.0000000  12.0000000   1.0078250   1.0078250   1.0078250   1.0078250
 NucSpn=           0           0           0           0           1           1           1           1
 AtZEff=   0.0000000   0.0000000   0.0000000   0.0000000   0.0000000   0.0000000   0.0000000   0.0000000
 NQMom=    0.0000000   0.0000000   0.0000000   0.0000000   0.0000000   0.0000000   0.0000000   0.0000000
 NMagM=    0.0000000   0.0000000   0.0000000   0.0000000   2.7928460   2.7928460   2.7928460   2.7928460
 AtZNuc=   6.0000000   8.0000000   6.0000000   6.0000000   1.0000000   1.0000000   1.0000000   1.0000000
 Leave Link  101 at Wed Aug 26 12:50:09 2020, MaxMem=  2097152000 cpu:         0.5
 (Enter /opt/cluster/programs/g09/g09_d.01/g09/l202.exe)
                          Input orientation:                          
 ---------------------------------------------------------------------
 Center     Atomic      Atomic             Coordinates (Angstroms)
 Number     Number       Type             X           Y           Z
 ---------------------------------------------------------------------
      1          6           0       -5.029677   -1.368973    0.833405
      2          8           0       -3.951591   -0.888665    0.709425
      3          6           0       -5.188500   -2.809077    1.099937
      4          6           0       -6.384509   -3.298642    1.456130
      5          1           0       -4.266623   -3.396685    0.951670
      6          1           0       -7.078362   -2.651948    1.313386
      7          1           0       -6.596061   -4.562581    1.709461
      8          1           0       -5.847338   -0.739283    0.885612
 ---------------------------------------------------------------------
                    Distance matrix (angstroms):
                    1          2          3          4          5
     1  C    0.000000
     2  O    1.186733   0.000000
     3  C    1.473148   2.317418   0.000000
     4  C    2.438643   3.504946   1.340517   0.000000
     5  H    2.169759   2.539309   1.103233   2.179342   0.000000
     6  H    2.464451   3.640142   1.908358   0.959177   2.931100
     7  H    3.663354   4.635834   2.329705   1.306320   2.712903
     8  H    1.033346   1.909768   2.182670   2.676633   3.092703
                    6          7          8
     6  H    0.000000
     7  H    2.009977   0.000000
     8  H    2.314454   3.982075   0.000000
 Stoichiometry    C3H4O
 Framework group  C1[X(C3H4O)]
 Deg. of freedom    18
 Full point group                 C1      NOp   1
 Largest Abelian subgroup         C1      NOp   1
 Largest concise Abelian subgroup C1      NOp   1
                         Standard orientation:                         
 ---------------------------------------------------------------------
 Center     Atomic      Atomic             Coordinates (Angstroms)
 Number     Number       Type             X           Y           Z
 ---------------------------------------------------------------------
      1          6           0       -0.684128    0.368686    0.057960
      2          8           0       -1.745858   -0.149618   -0.053515
      3          6           0        0.552400   -0.431843    0.040214
      4          6           0        1.744075    0.174430   -0.056374
      5          1           0        0.384706   -1.517850    0.138142
      6          1           0        1.663044    1.119311    0.087342
      7          1           0        2.878632   -0.472629   -0.080234
      8          1           0       -0.633604    1.400472    0.032076
 ---------------------------------------------------------------------
 Rotational constants (GHZ):     47.9383338      4.7637301      4.3463648
 Leave Link  202 at Wed Aug 26 12:50:09 2020, MaxMem=  2097152000 cpu:         0.0
 (Enter /opt/cluster/programs/g09/g09_d.01/g09/l301.exe)
 Standard basis: def2QZVP (5D, 7F)
 Ernie: Thresh=  0.10000D-02 Tol=  0.10000D-05 Strict=F.
 There are   428 symmetry adapted cartesian basis functions of A   symmetry.
 There are   348 symmetry adapted basis functions of A   symmetry.
   348 basis functions,   520 primitive gaussians,   428 cartesian basis functions
    15 alpha electrons       15 beta electrons
       nuclear repulsion energy       104.1319472300 Hartrees.
 IExCor=  419 DFT=T Ex+Corr=B2PLYPD3 ExCW=0 ScaHFX=  0.530000
 ScaDFX=  0.470000  0.470000  0.730000  0.730000 ScalE2=  0.270000  0.270000
 IRadAn=      0 IRanWt=     -1 IRanGd=            0 ICorTp=0 IEmpDi=141
 NAtoms=    8 NActive=    8 NUniq=    8 SFac= 1.00D+00 NAtFMM=   60 NAOKFM=F Big=F
 Integral buffers will be    131072 words long.
 Regular integral format.
 Two-electron integral symmetry is turned on.
 R6Disp:  Grimme-D3(BJ) Dispersion energy=       -0.0036057688 Hartrees.
 Nuclear repulsion after empirical dispersion term =      104.1283414613 Hartrees.
 Leave Link  301 at Wed Aug 26 12:50:09 2020, MaxMem=  2097152000 cpu:         0.4
 (Enter /opt/cluster/programs/g09/g09_d.01/g09/l302.exe)
 NPDir=0 NMtPBC=     1 NCelOv=     1 NCel=       1 NClECP=     1 NCelD=      1
         NCelK=      1 NCelE2=     1 NClLst=     1 CellRange=     0.0.
 One-electron integrals computed using PRISM.
   1 Symmetry operations used in ECPInt.
 ECPInt:  NShTT=    5886 NPrTT=   14376 LenC2=    5778 LenP2D=   12197.
 LDataN:  DoStor=T MaxTD1= 8 Len=  415
 NBasis=   348 RedAO= T EigKep=  5.59D-05  NBF=   348
 NBsUse=   348 1.00D-06 EigRej= -1.00D+00 NBFU=   348
 Precomputing XC quadrature grid using
 IXCGrd= 4 IRadAn=           0 IRanWt=          -1 IRanGd=           0 AccXCQ= 0.00D+00.
 Generated NRdTot=       0 NPtTot=           0 NUsed=           0 NTot=          32
 NSgBfM=   428   428   428   428   428 MxSgAt=     8 MxSgA2=     8.
 Leave Link  302 at Wed Aug 26 12:50:09 2020, MaxMem=  2097152000 cpu:         2.9
 (Enter /opt/cluster/programs/g09/g09_d.01/g09/l303.exe)
 DipDrv:  MaxL=1.
 Leave Link  303 at Wed Aug 26 12:50:09 2020, MaxMem=  2097152000 cpu:         0.3
 (Enter /opt/cluster/programs/g09/g09_d.01/g09/l401.exe)
 ExpMin= 7.60D-02 ExpMax= 1.17D+05 ExpMxC= 1.13D+03 IAcc=2 IRadAn=         4 AccDes= 0.00D+00
 Harris functional with IExCor=  419 and IRadAn=       4 diagonalized for initial guess.
 HarFok:  IExCor=  419 AccDes= 0.00D+00 IRadAn=         4 IDoV= 1 UseB2=F ITyADJ=14
 ICtDFT=  3500011 ScaDFX=  1.000000  1.000000  1.000000  1.000000
 FoFCou: FMM=F IPFlag=           0 FMFlag=      100000 FMFlg1=           0
         NFxFlg=           0 DoJE=T BraDBF=F KetDBF=T FulRan=T
         wScrn=  0.000000 ICntrl=     500 IOpCl=  0 I1Cent=   200000004 NGrid=           0
         NMat0=    1 NMatS0=      1 NMatT0=    0 NMatD0=    1 NMtDS0=    0 NMtDT0=    0
 Petite list used in FoFCou.
 Harris En= -192.007121710558    
 JPrj=0 DoOrth=F DoCkMO=F.
 Leave Link  401 at Wed Aug 26 12:50:10 2020, MaxMem=  2097152000 cpu:         6.7
 (Enter /opt/cluster/programs/g09/g09_d.01/g09/l502.exe)
 Closed shell SCF:
 Using DIIS extrapolation, IDIIS=  1040.
 Integral symmetry usage will be decided dynamically.
 Keep R1 ints in memory in canonical form, NReq=1883905047.
 IVT=      574566 IEndB=      574566 NGot=  2097152000 MDV=   252723534
 LenX=   252723534 LenY=   252539909
 Requested convergence on RMS density matrix=1.00D-08 within 128 cycles.
 Requested convergence on MAX density matrix=1.00D-06.
 Requested convergence on             energy=1.00D-06.
 No special actions if energy rises.
 FoFCou: FMM=F IPFlag=           0 FMFlag=           0 FMFlg1=           0
         NFxFlg=           0 DoJE=F BraDBF=F KetDBF=F FulRan=T
         wScrn=  0.000000 ICntrl=     600 IOpCl=  0 I1Cent=           0 NGrid=           0
         NMat0=    1 NMatS0=  60726 NMatT0=    0 NMatD0=    1 NMtDS0=    0 NMtDT0=    0
 Symmetry not used in FoFCou.
 Integral accuracy reduced to 1.0D-05 until final iterations.

 Cycle   1  Pass 0  IDiag  1:
 E= -191.420741893251    
 DIIS: error= 2.32D-02 at cycle   1 NSaved=   1.
 NSaved= 1 IEnMin= 1 EnMin= -191.420741893251     IErMin= 1 ErrMin= 2.32D-02
 ErrMax= 2.32D-02  0.00D+00 EMaxC= 1.00D-01 BMatC= 2.62D-01 BMatP= 2.62D-01
 IDIUse=3 WtCom= 7.68D-01 WtEn= 2.32D-01
 Coeff-Com:  0.100D+01
 Coeff-En:   0.100D+01
 Coeff:      0.100D+01
 Gap=     0.294 Goal=   None    Shift=    0.000
 GapD=    0.294 DampG=1.000 DampE=0.500 DampFc=0.5000 IDamp=-1.
 Damping current iteration by 5.00D-01
 RMSDP=1.98D-03 MaxDP=2.52D-01              OVMax= 1.74D-01

 Cycle   2  Pass 0  IDiag  1:
 E= -191.494753715890     Delta-E=       -0.074011822639 Rises=F Damp=T
 DIIS: error= 8.24D-03 at cycle   2 NSaved=   2.
 NSaved= 2 IEnMin= 2 EnMin= -191.494753715890     IErMin= 2 ErrMin= 8.24D-03
 ErrMax= 8.24D-03  0.00D+00 EMaxC= 1.00D-01 BMatC= 3.33D-02 BMatP= 2.62D-01
 IDIUse=3 WtCom= 9.18D-01 WtEn= 8.24D-02
 Coeff-Com: -0.174D+00 0.117D+01
 Coeff-En:   0.000D+00 0.100D+01
 Coeff:     -0.160D+00 0.116D+01
 Gap=     0.407 Goal=   None    Shift=    0.000
 RMSDP=6.53D-04 MaxDP=8.65D-02 DE=-7.40D-02 OVMax= 1.01D-01

 Cycle   3  Pass 0  IDiag  1:
 E= -191.560328396221     Delta-E=       -0.065574680330 Rises=F Damp=F
 DIIS: error= 8.56D-03 at cycle   3 NSaved=   3.
 NSaved= 3 IEnMin= 3 EnMin= -191.560328396221     IErMin= 2 ErrMin= 8.24D-03
 ErrMax= 8.56D-03  0.00D+00 EMaxC= 1.00D-01 BMatC= 1.41D-02 BMatP= 3.33D-02
 IDIUse=3 WtCom= 9.14D-01 WtEn= 8.56D-02
 Coeff-Com: -0.186D+00 0.498D+00 0.687D+00
 Coeff-En:   0.000D+00 0.000D+00 0.100D+01
 Coeff:     -0.170D+00 0.456D+00 0.714D+00
 Gap=     0.334 Goal=   None    Shift=    0.000
 RMSDP=2.21D-04 MaxDP=1.68D-02 DE=-6.56D-02 OVMax= 3.85D-02

 Cycle   4  Pass 0  IDiag  1:
 E= -191.567633971011     Delta-E=       -0.007305574790 Rises=F Damp=F
 DIIS: error= 3.53D-03 at cycle   4 NSaved=   4.
 NSaved= 4 IEnMin= 4 EnMin= -191.567633971011     IErMin= 4 ErrMin= 3.53D-03
 ErrMax= 3.53D-03  0.00D+00 EMaxC= 1.00D-01 BMatC= 2.77D-03 BMatP= 1.41D-02
 IDIUse=3 WtCom= 9.65D-01 WtEn= 3.53D-02
 Coeff-Com: -0.632D-01 0.106D+00 0.377D+00 0.580D+00
 Coeff-En:   0.000D+00 0.000D+00 0.178D+00 0.822D+00
 Coeff:     -0.609D-01 0.102D+00 0.370D+00 0.589D+00
 Gap=     0.326 Goal=   None    Shift=    0.000
 RMSDP=9.28D-05 MaxDP=7.47D-03 DE=-7.31D-03 OVMax= 1.30D-02

 Cycle   5  Pass 0  IDiag  1:
 E= -191.569887978856     Delta-E=       -0.002254007845 Rises=F Damp=F
 DIIS: error= 2.92D-04 at cycle   5 NSaved=   5.
 NSaved= 5 IEnMin= 5 EnMin= -191.569887978856     IErMin= 5 ErrMin= 2.92D-04
 ErrMax= 2.92D-04  0.00D+00 EMaxC= 1.00D-01 BMatC= 1.07D-05 BMatP= 2.77D-03
 IDIUse=3 WtCom= 9.97D-01 WtEn= 2.92D-03
 Coeff-Com: -0.853D-02 0.113D-01 0.576D-01 0.122D+00 0.818D+00
 Coeff-En:   0.000D+00 0.000D+00 0.000D+00 0.000D+00 0.100D+01
 Coeff:     -0.850D-02 0.113D-01 0.574D-01 0.122D+00 0.818D+00
 Gap=     0.325 Goal=   None    Shift=    0.000
 RMSDP=9.33D-06 MaxDP=7.02D-04 DE=-2.25D-03 OVMax= 2.42D-03

 Initial convergence to 1.0D-05 achieved.  Increase integral accuracy.
 Cycle   6  Pass 1  IDiag  1:
 E= -191.569883408341     Delta-E=        0.000004570515 Rises=F Damp=F
 DIIS: error= 7.88D-05 at cycle   1 NSaved=   1.
 NSaved= 1 IEnMin= 1 EnMin= -191.569883408341     IErMin= 1 ErrMin= 7.88D-05
 ErrMax= 7.88D-05  0.00D+00 EMaxC= 1.00D-01 BMatC= 1.96D-06 BMatP= 1.96D-06
 IDIUse=1 WtCom= 1.00D+00 WtEn= 0.00D+00
 Coeff-Com:  0.100D+01
 Coeff:      0.100D+01
 Gap=     0.325 Goal=   None    Shift=    0.000
 RMSDP=9.33D-06 MaxDP=7.02D-04 DE= 4.57D-06 OVMax= 7.40D-04

 Cycle   7  Pass 1  IDiag  1:
 E= -191.569884253819     Delta-E=       -0.000000845478 Rises=F Damp=F
 DIIS: error= 1.10D-04 at cycle   2 NSaved=   2.
 NSaved= 2 IEnMin= 2 EnMin= -191.569884253819     IErMin= 1 ErrMin= 7.88D-05
 ErrMax= 1.10D-04  0.00D+00 EMaxC= 1.00D-01 BMatC= 1.53D-06 BMatP= 1.96D-06
 IDIUse=3 WtCom= 9.99D-01 WtEn= 1.10D-03
 Coeff-Com:  0.466D+00 0.534D+00
 Coeff-En:   0.340D+00 0.660D+00
 Coeff:      0.466D+00 0.534D+00
 Gap=     0.325 Goal=   None    Shift=    0.000
 RMSDP=2.28D-06 MaxDP=1.79D-04 DE=-8.45D-07 OVMax= 7.20D-04

 Cycle   8  Pass 1  IDiag  1:
 E= -191.569885751133     Delta-E=       -0.000001497314 Rises=F Damp=F
 DIIS: error= 1.64D-05 at cycle   3 NSaved=   3.
 NSaved= 3 IEnMin= 3 EnMin= -191.569885751133     IErMin= 3 ErrMin= 1.64D-05
 ErrMax= 1.64D-05  0.00D+00 EMaxC= 1.00D-01 BMatC= 7.99D-08 BMatP= 1.53D-06
 IDIUse=1 WtCom= 1.00D+00 WtEn= 0.00D+00
 Coeff-Com:  0.795D-01 0.188D+00 0.732D+00
 Coeff:      0.795D-01 0.188D+00 0.732D+00
 Gap=     0.325 Goal=   None    Shift=    0.000
 RMSDP=1.33D-06 MaxDP=1.51D-04 DE=-1.50D-06 OVMax= 9.65D-05

 Cycle   9  Pass 1  IDiag  1:
 E= -191.569885836125     Delta-E=       -0.000000084991 Rises=F Damp=F
 DIIS: error= 9.47D-06 at cycle   4 NSaved=   4.
 NSaved= 4 IEnMin= 4 EnMin= -191.569885836125     IErMin= 4 ErrMin= 9.47D-06
 ErrMax= 9.47D-06  0.00D+00 EMaxC= 1.00D-01 BMatC= 1.10D-08 BMatP= 7.99D-08
 IDIUse=1 WtCom= 1.00D+00 WtEn= 0.00D+00
 Coeff-Com: -0.103D+00-0.627D-01 0.252D+00 0.914D+00
 Coeff:     -0.103D+00-0.627D-01 0.252D+00 0.914D+00
 Gap=     0.325 Goal=   None    Shift=    0.000
 RMSDP=7.88D-07 MaxDP=8.46D-05 DE=-8.50D-08 OVMax= 1.03D-04

 Cycle  10  Pass 1  IDiag  1:
 E= -191.569885857965     Delta-E=       -0.000000021840 Rises=F Damp=F
 DIIS: error= 3.56D-06 at cycle   5 NSaved=   5.
 NSaved= 5 IEnMin= 5 EnMin= -191.569885857965     IErMin= 5 ErrMin= 3.56D-06
 ErrMax= 3.56D-06  0.00D+00 EMaxC= 1.00D-01 BMatC= 2.41D-09 BMatP= 1.10D-08
 IDIUse=1 WtCom= 1.00D+00 WtEn= 0.00D+00
 Coeff-Com: -0.545D-01-0.405D-01 0.584D-01 0.463D+00 0.574D+00
 Coeff:     -0.545D-01-0.405D-01 0.584D-01 0.463D+00 0.574D+00
 Gap=     0.325 Goal=   None    Shift=    0.000
 RMSDP=1.74D-07 MaxDP=1.91D-05 DE=-2.18D-08 OVMax= 1.77D-05

 Cycle  11  Pass 1  IDiag  1:
 E= -191.569885859792     Delta-E=       -0.000000001827 Rises=F Damp=F
 DIIS: error= 8.38D-07 at cycle   6 NSaved=   6.
 NSaved= 6 IEnMin= 6 EnMin= -191.569885859792     IErMin= 6 ErrMin= 8.38D-07
 ErrMax= 8.38D-07  0.00D+00 EMaxC= 1.00D-01 BMatC= 1.77D-10 BMatP= 2.41D-09
 IDIUse=1 WtCom= 1.00D+00 WtEn= 0.00D+00
 Coeff-Com:  0.702D-02 0.310D-02-0.527D-01-0.315D-01 0.161D+00 0.913D+00
 Coeff:      0.702D-02 0.310D-02-0.527D-01-0.315D-01 0.161D+00 0.913D+00
 Gap=     0.325 Goal=   None    Shift=    0.000
 RMSDP=5.35D-08 MaxDP=4.42D-06 DE=-1.83D-09 OVMax= 9.96D-06

 Cycle  12  Pass 1  IDiag  1:
 E= -191.569885860070     Delta-E=       -0.000000000278 Rises=F Damp=F
 DIIS: error= 2.61D-07 at cycle   7 NSaved=   7.
 NSaved= 7 IEnMin= 7 EnMin= -191.569885860070     IErMin= 7 ErrMin= 2.61D-07
 ErrMax= 2.61D-07  0.00D+00 EMaxC= 1.00D-01 BMatC= 1.71D-11 BMatP= 1.77D-10
 IDIUse=1 WtCom= 1.00D+00 WtEn= 0.00D+00
 Coeff-Com:  0.608D-02 0.396D-02-0.231D-01-0.395D-01 0.208D-02 0.293D+00
 Coeff-Com:  0.757D+00
 Coeff:      0.608D-02 0.396D-02-0.231D-01-0.395D-01 0.208D-02 0.293D+00
 Coeff:      0.757D+00
 Gap=     0.325 Goal=   None    Shift=    0.000
 RMSDP=1.24D-08 MaxDP=3.90D-07 DE=-2.78D-10 OVMax= 3.95D-06

 Cycle  13  Pass 1  IDiag  1:
 E= -191.569885860108     Delta-E=       -0.000000000038 Rises=F Damp=F
 DIIS: error= 8.42D-08 at cycle   8 NSaved=   8.
 NSaved= 8 IEnMin= 8 EnMin= -191.569885860108     IErMin= 8 ErrMin= 8.42D-08
 ErrMax= 8.42D-08  0.00D+00 EMaxC= 1.00D-01 BMatC= 1.81D-12 BMatP= 1.71D-11
 IDIUse=1 WtCom= 1.00D+00 WtEn= 0.00D+00
 Coeff-Com: -0.128D-02-0.542D-03 0.963D-02 0.668D-02-0.279D-01-0.174D+00
 Coeff-Com:  0.103D-01 0.118D+01
 Coeff:     -0.128D-02-0.542D-03 0.963D-02 0.668D-02-0.279D-01-0.174D+00
 Coeff:      0.103D-01 0.118D+01
 Gap=     0.325 Goal=   None    Shift=    0.000
 RMSDP=9.20D-09 MaxDP=4.25D-07 DE=-3.78D-11 OVMax= 3.54D-06

 SCF Done:  E(RB2PLYPD3) =  -191.569885860     A.U. after   13 cycles
            NFock= 13  Conv=0.92D-08     -V/T= 2.0023
 KE= 1.911275742304D+02 PE=-6.563507746106D+02 EE= 1.695249730588D+02
 Leave Link  502 at Wed Aug 26 12:51:17 2020, MaxMem=  2097152000 cpu:       300.4
 (Enter /opt/cluster/programs/g09/g09_d.01/g09/l801.exe)
 DoSCS=T DFT=T ScalE2(SS,OS)=  0.270000  0.270000
 ExpMin= 7.60D-02 ExpMax= 1.17D+05 ExpMxC= 1.13D+03 IAcc=3 IRadAn=         5 AccDes= 0.00D+00
 HarFok:  IExCor=  205 AccDes= 0.00D+00 IRadAn=         5 IDoV=-2 UseB2=F ITyADJ=14
 ICtDFT= 12500011 ScaDFX=  1.000000  1.000000  1.000000  1.000000
 Largest valence mixing into a core orbital is  1.10D-04
 Largest core mixing into a valence orbital is  1.87D-05
 Range of M.O.s used for correlation:     5   348
 NBasis=   348 NAE=    15 NBE=    15 NFC=     4 NFV=     0
 NROrb=    344 NOA=    11 NOB=    11 NVA=   333 NVB=   333

 **** Warning!!: The largest alpha MO coefficient is  0.25963990D+02

 Leave Link  801 at Wed Aug 26 12:51:17 2020, MaxMem=  2097152000 cpu:         0.8
 (Enter /opt/cluster/programs/g09/g09_d.01/g09/l906.exe)
 DoSCS=T DFT=T ScalE2(SS,OS)=  0.270000  0.270000
 FulOut=F Deriv=F AODrv=F NAtomX=     8
   MMem=        1190  MDisk=          11 MDiskD=          11
  W3Min=     1567764 MinDsk=     2827057 NBas6D=         428
 NBas2D=       93150    NTT=       91806    LW2=     4508827
    MDV=  2096571180 MDiskM=       10875 NBas2p=       89286
 Fully direct method using O(OVN) memory.
 IMap=   1   2   3   4   5   6   7   8   9  10  11
 JobTyp=1 Pass  1:  I=   1 to  11 NPSUse=  8 ParTrn=T ParDer=T DoDerP=F.
 Spin components of T(2) and E(2):
     alpha-alpha T2 =       0.4328350015D-01 E2=     -0.2936576814D-01
     alpha-beta  T2 =       0.2670096612D+00 E2=     -0.1881102608D+00
     beta-beta   T2 =       0.4328350015D-01 E2=     -0.2936576814D-01
 The integrals were generated   1 times.
 E2(B2PLYPD3) =    -0.2468417970D+00 E(B2PLYPD3) =    -0.19181672765714D+03
 Leave Link  906 at Wed Aug 26 12:52:09 2020, MaxMem=  2097152000 cpu:       413.8
 (Enter /opt/cluster/programs/g09/g09_d.01/g09/l601.exe)
 Copying SCF densities to generalized density rwf, IOpCl= 0 IROHF=0.

 **********************************************************************

            Population analysis using the SCF density.

 **********************************************************************

 Orbital symmetries:
       Occupied  (A) (A) (A) (A) (A) (A) (A) (A) (A) (A) (A) (A)
                 (A) (A) (A)
       Virtual   (A) (A) (A) (A) (A) (A) (A) (A) (A) (A) (A) (A)
                 (A) (A) (A) (A) (A) (A) (A) (A) (A) (A) (A) (A)
                 (A) (A) (A) (A) (A) (A) (A) (A) (A) (A) (A) (A)
                 (A) (A) (A) (A) (A) (A) (A) (A) (A) (A) (A) (A)
                 (A) (A) (A) (A) (A) (A) (A) (A) (A) (A) (A) (A)
                 (A) (A) (A) (A) (A) (A) (A) (A) (A) (A) (A) (A)
                 (A) (A) (A) (A) (A) (A) (A) (A) (A) (A) (A) (A)
                 (A) (A) (A) (A) (A) (A) (A) (A) (A) (A) (A) (A)
                 (A) (A) (A) (A) (A) (A) (A) (A) (A) (A) (A) (A)
                 (A) (A) (A) (A) (A) (A) (A) (A) (A) (A) (A) (A)
                 (A) (A) (A) (A) (A) (A) (A) (A) (A) (A) (A) (A)
                 (A) (A) (A) (A) (A) (A) (A) (A) (A) (A) (A) (A)
                 (A) (A) (A) (A) (A) (A) (A) (A) (A) (A) (A) (A)
                 (A) (A) (A) (A) (A) (A) (A) (A) (A) (A) (A) (A)
                 (A) (A) (A) (A) (A) (A) (A) (A) (A) (A) (A) (A)
                 (A) (A) (A) (A) (A) (A) (A) (A) (A) (A) (A) (A)
                 (A) (A) (A) (A) (A) (A) (A) (A) (A) (A) (A) (A)
                 (A) (A) (A) (A) (A) (A) (A) (A) (A) (A) (A) (A)
                 (A) (A) (A) (A) (A) (A) (A) (A) (A) (A) (A) (A)
                 (A) (A) (A) (A) (A) (A) (A) (A) (A) (A) (A) (A)
                 (A) (A) (A) (A) (A) (A) (A) (A) (A) (A) (A) (A)
                 (A) (A) (A) (A) (A) (A) (A) (A) (A) (A) (A) (A)
                 (A) (A) (A) (A) (A) (A) (A) (A) (A) (A) (A) (A)
                 (A) (A) (A) (A) (A) (A) (A) (A) (A) (A) (A) (A)
                 (A) (A) (A) (A) (A) (A) (A) (A) (A) (A) (A) (A)
                 (A) (A) (A) (A) (A) (A) (A) (A) (A) (A) (A) (A)
                 (A) (A) (A) (A) (A) (A) (A) (A) (A) (A) (A) (A)
                 (A) (A) (A) (A) (A) (A) (A) (A) (A)
 The electronic state is 1-A.
 Alpha  occ. eigenvalues --  -19.72493 -10.70485 -10.65877 -10.64436  -1.21084
 Alpha  occ. eigenvalues --   -0.93011  -0.74742  -0.68540  -0.57983  -0.54701
 Alpha  occ. eigenvalues --   -0.49741  -0.47640  -0.46100  -0.34312  -0.33825
 Alpha virt. eigenvalues --   -0.01296   0.05059   0.06969   0.08028   0.09818
 Alpha virt. eigenvalues --    0.11903   0.13824   0.15271   0.17596   0.19590
 Alpha virt. eigenvalues --    0.20381   0.21023   0.25104   0.26245   0.28432
 Alpha virt. eigenvalues --    0.29770   0.32568   0.35164   0.35707   0.37245
 Alpha virt. eigenvalues --    0.39876   0.41547   0.43075   0.45251   0.46068
 Alpha virt. eigenvalues --    0.48423   0.50151   0.54827   0.55629   0.57229
 Alpha virt. eigenvalues --    0.61419   0.64448   0.65100   0.67231   0.70224
 Alpha virt. eigenvalues --    0.73980   0.76002   0.78999   0.80213   0.80396
 Alpha virt. eigenvalues --    0.81124   0.82289   0.83449   0.84197   0.87201
 Alpha virt. eigenvalues --    0.88609   0.91574   0.93107   0.94060   0.95849
 Alpha virt. eigenvalues --    0.96489   0.98364   0.99979   1.02570   1.06135
 Alpha virt. eigenvalues --    1.08051   1.08612   1.15751   1.17246   1.20119
 Alpha virt. eigenvalues --    1.21869   1.25534   1.28885   1.30849   1.41345
 Alpha virt. eigenvalues --    1.43787   1.46071   1.48505   1.53389   1.55295
 Alpha virt. eigenvalues --    1.55997   1.60466   1.67691   1.68152   1.70377
 Alpha virt. eigenvalues --    1.72881   1.76141   1.79104   1.82384   1.84564
 Alpha virt. eigenvalues --    1.86390   1.89864   1.92508   1.93675   1.93962
 Alpha virt. eigenvalues --    1.96448   1.97207   1.99163   2.01949   2.04063
 Alpha virt. eigenvalues --    2.06819   2.08053   2.11824   2.12427   2.15802
 Alpha virt. eigenvalues --    2.17160   2.17687   2.20782   2.22368   2.24095
 Alpha virt. eigenvalues --    2.26986   2.33072   2.35927   2.38297   2.39957
 Alpha virt. eigenvalues --    2.43470   2.46534   2.49203   2.51787   2.53378
 Alpha virt. eigenvalues --    2.53843   2.56546   2.58438   2.61147   2.63714
 Alpha virt. eigenvalues --    2.64409   2.65476   2.68204   2.70608   2.72067
 Alpha virt. eigenvalues --    2.74564   2.75082   2.79095   2.83335   2.87429
 Alpha virt. eigenvalues --    2.89809   2.93972   3.00301   3.01730   3.08018
 Alpha virt. eigenvalues --    3.12772   3.16078   3.21791   3.30499   3.32315
 Alpha virt. eigenvalues --    3.33614   3.37278   3.40142   3.44693   3.47503
 Alpha virt. eigenvalues --    3.52564   3.55157   3.60708   3.62625   3.64768
 Alpha virt. eigenvalues --    3.68962   3.75117   3.78863   3.87361   3.92105
 Alpha virt. eigenvalues --    3.95298   3.99516   4.03187   4.06826   4.09979
 Alpha virt. eigenvalues --    4.13213   4.15994   4.20437   4.26073   4.31383
 Alpha virt. eigenvalues --    4.34368   4.46791   4.50625   4.60280   4.62156
 Alpha virt. eigenvalues --    4.68950   4.81143   4.86244   4.91713   4.98748
 Alpha virt. eigenvalues --    5.02529   5.04014   5.10836   5.12358   5.14664
 Alpha virt. eigenvalues --    5.20448   5.25481   5.31575   5.37126   5.42389
 Alpha virt. eigenvalues --    5.47158   5.50489   5.52954   5.56005   5.59082
 Alpha virt. eigenvalues --    5.60599   5.63222   5.65758   5.68086   5.71274
 Alpha virt. eigenvalues --    5.77419   5.81959   5.85666   5.88797   5.90086
 Alpha virt. eigenvalues --    5.95404   5.96698   5.99614   6.02011   6.06092
 Alpha virt. eigenvalues --    6.07886   6.09929   6.11751   6.15341   6.17489
 Alpha virt. eigenvalues --    6.20871   6.22391   6.26250   6.27261   6.28580
 Alpha virt. eigenvalues --    6.32315   6.35080   6.40372   6.41423   6.43228
 Alpha virt. eigenvalues --    6.47868   6.53557   6.56120   6.58814   6.62156
 Alpha virt. eigenvalues --    6.62960   6.69298   6.71835   6.76279   6.81169
 Alpha virt. eigenvalues --    6.83375   6.88750   6.90995   6.93919   6.97836
 Alpha virt. eigenvalues --    7.02355   7.07302   7.13305   7.18921   7.22125
 Alpha virt. eigenvalues --    7.25339   7.30085   7.35712   7.46618   7.50009
 Alpha virt. eigenvalues --    7.50102   7.56854   7.61955   7.63480   7.64710
 Alpha virt. eigenvalues --    7.67079   7.72543   7.74332   7.79392   7.81957
 Alpha virt. eigenvalues --    7.84180   7.87066   7.90673   7.95696   7.98022
 Alpha virt. eigenvalues --    8.01201   8.07031   8.07993   8.15707   8.17263
 Alpha virt. eigenvalues --    8.18601   8.20724   8.26321   8.28054   8.33896
 Alpha virt. eigenvalues --    8.34770   8.43676   8.45711   8.50760   8.55853
 Alpha virt. eigenvalues --    8.57722   8.64269   8.66944   8.69629   8.76851
 Alpha virt. eigenvalues --    8.78627   8.81149   8.90361   8.95474   9.00358
 Alpha virt. eigenvalues --    9.04534   9.08991   9.10519   9.16581   9.24068
 Alpha virt. eigenvalues --    9.31360   9.33649   9.46668   9.47759   9.66681
 Alpha virt. eigenvalues --    9.76909   9.82759   9.89800  10.01238  10.13439
 Alpha virt. eigenvalues --   10.15491  10.22708  10.28372  10.37465  10.42362
 Alpha virt. eigenvalues --   10.47315  10.56793  10.65572  10.73521  10.86008
 Alpha virt. eigenvalues --   11.05184  11.14982  11.26950  11.30221  11.45543
 Alpha virt. eigenvalues --   11.56456  11.69982  11.77714  11.82287  12.05390
 Alpha virt. eigenvalues --   12.18109  12.29086  12.39398  12.48604  12.60534
 Alpha virt. eigenvalues --   12.90173  13.48918  13.89226  14.34057  14.90236
 Alpha virt. eigenvalues --   28.65387  29.00153  29.34326  48.69468 148.26869
 Alpha virt. eigenvalues --  148.60252 148.94833 254.46176
          Condensed to atoms (all electrons):
               1          2          3          4          5          6
     1  C    4.490314   0.627289   0.384981  -0.050835  -0.035346  -0.006813
     2  O    0.627289   7.889730  -0.104693   0.007745   0.006650   0.000406
     3  C    0.384981  -0.104693   5.183851   0.458925   0.370945  -0.073488
     4  C   -0.050835   0.007745   0.458925   4.917363  -0.033931   0.435794
     5  H   -0.035346   0.006650   0.370945  -0.033931   0.577604   0.005957
     6  H   -0.006813   0.000406  -0.073488   0.435794   0.005957   0.564089
     7  H    0.002384  -0.000470  -0.019036   0.392085  -0.004361  -0.031135
     8  H    0.441072  -0.088527  -0.167034   0.026975   0.007914   0.005548
               7          8
     1  C    0.002384   0.441072
     2  O   -0.000470  -0.088527
     3  C   -0.019036  -0.167034
     4  C    0.392085   0.026975
     5  H   -0.004361   0.007914
     6  H   -0.031135   0.005548
     7  H    0.563382  -0.000783
     8  H   -0.000783   0.697233
 Mulliken charges:
               1
     1  C    0.146953
     2  O   -0.338129
     3  C   -0.034451
     4  C   -0.154121
     5  H    0.104569
     6  H    0.099642
     7  H    0.097934
     8  H    0.077602
 Sum of Mulliken charges =   0.00000
 Mulliken charges with hydrogens summed into heavy atoms:
               1
     1  C    0.224556
     2  O   -0.338129
     3  C    0.070118
     4  C    0.043456
 Electronic spatial extent (au):  <R**2>=            294.6034
 Charge=              0.0000 electrons
 Dipole moment (field-independent basis, Debye):
    X=              3.0822    Y=              0.8982    Z=              0.3348  Tot=              3.2279
 Quadrupole moment (field-independent basis, Debye-Ang):
   XX=            -27.3719   YY=            -21.7622   ZZ=            -25.2102
   XY=             -1.5421   XZ=             -0.2409   YZ=             -0.0026
 Traceless Quadrupole moment (field-independent basis, Debye-Ang):
   XX=             -2.5905   YY=              3.0193   ZZ=             -0.4288
   XY=             -1.5421   XZ=             -0.2409   YZ=             -0.0026
 Octapole moment (field-independent basis, Debye-Ang**2):
  XXX=             13.5660  YYY=              0.5126  ZZZ=              0.1838  XYY=             -1.3542
  XXY=             -0.2546  XXZ=              0.3174  XZZ=             -5.0134  YZZ=              0.4380
  YYZ=              0.5248  XYZ=              0.3262
 Hexadecapole moment (field-independent basis, Debye-Ang**3):
 XXXX=           -297.6470 YYYY=            -54.0925 ZZZZ=            -27.9200 XXXY=             -8.4688
 XXXZ=             -0.8834 YYYX=             -0.0956 YYYZ=             -0.2959 ZZZX=              0.7540
 ZZZY=              0.1334 XXYY=            -58.7239 XXZZ=            -58.3164 YYZZ=            -15.0725
 XXYZ=              0.8273 YYXZ=              0.5414 ZZXY=              0.6887
 N-N= 1.041283414613D+02 E-N=-6.563507832674D+02  KE= 1.911275742304D+02
 Leave Link  601 at Wed Aug 26 12:52:09 2020, MaxMem=  2097152000 cpu:         0.5
 (Enter /opt/cluster/programs/g09/g09_d.01/g09/l9999.exe)
 1\1\GINC-NODE07\SP\RB2PLYPD3-FC\def2QZVP\C3H4O1\BOITTIER\26-Aug-2020\0
 \\#p B2PLYPD3/Def2QZVP\\acrolein\\0,1\C,0,-5.029677,-1.368973,0.833405
 \O,0,-3.951591,-0.888665,0.709425\C,0,-5.1885,-2.809077,1.099937\C,0,-
 6.384509,-3.298642,1.45613\H,0,-4.266623,-3.396685,0.95167\H,0,-7.0783
 62,-2.651948,1.313386\H,0,-6.596061,-4.562581,1.709461\H,0,-5.847338,-
 0.739283,0.885612\\Version=ES64L-G09RevD.01\State=1-A\HF=-191.5698859\
 MP2=-191.8167277\RMSD=9.196e-09\PG=C01 [X(C3H4O1)]\\@


 I am not a vegetarian because I love animals;
 I am a vegetarian because I hate plants.
                               -- A. Whitney Brown
 Job cpu time:       0 days  0 hours 12 minutes  7.0 seconds.
 File lengths (MBytes):  RWF=     49 Int=      0 D2E=      0 Chk=      7 Scr=      1
 Normal termination of Gaussian 09 at Wed Aug 26 12:52:09 2020.
