 Entering Gaussian System, Link 0=/opt/cluster/programs/g09/g09_d.01/g09//g09
 Input=/home/boittier/MDCM/nms_sampling/acrolein_geom.xyz.dir/energies/acrolein_272_energy.com
 Output=/scratch/boittier/acrolein_272_energy/acrolein_272_energy.out
 Initial command:
 /opt/cluster/programs/g09/g09_d.01/g09/l1.exe "/scratch/boittier/acrolein_272_energy/Gau-149115.inp" -scrdir="/scratch/boittier/acrolein_272_energy/"
 Entering Link 1 = /opt/cluster/programs/g09/g09_d.01/g09/l1.exe PID=    149116.
  
 Copyright (c) 1988,1990,1992,1993,1995,1998,2003,2009,2013,
            Gaussian, Inc.  All Rights Reserved.
  
 This is part of the Gaussian(R) 09 program.  It is based on
 the Gaussian(R) 03 system (copyright 2003, Gaussian, Inc.),
 the Gaussian(R) 98 system (copyright 1998, Gaussian, Inc.),
 the Gaussian(R) 94 system (copyright 1995, Gaussian, Inc.),
 the Gaussian 92(TM) system (copyright 1992, Gaussian, Inc.),
 the Gaussian 90(TM) system (copyright 1990, Gaussian, Inc.),
 the Gaussian 88(TM) system (copyright 1988, Gaussian, Inc.),
 the Gaussian 86(TM) system (copyright 1986, Carnegie Mellon
 University), and the Gaussian 82(TM) system (copyright 1983,
 Carnegie Mellon University). Gaussian is a federally registered
 trademark of Gaussian, Inc.
  
 This software contains proprietary and confidential information,
 including trade secrets, belonging to Gaussian, Inc.
  
 This software is provided under written license and may be
 used, copied, transmitted, or stored only in accord with that
 written license.
  
 The following legend is applicable only to US Government
 contracts under FAR:
  
                    RESTRICTED RIGHTS LEGEND
  
 Use, reproduction and disclosure by the US Government is
 subject to restrictions as set forth in subparagraphs (a)
 and (c) of the Commercial Computer Software - Restricted
 Rights clause in FAR 52.227-19.
  
 Gaussian, Inc.
 340 Quinnipiac St., Bldg. 40, Wallingford CT 06492
  
  
 ---------------------------------------------------------------
 Warning -- This program may not be used in any manner that
 competes with the business of Gaussian, Inc. or will provide
 assistance to any competitor of Gaussian, Inc.  The licensee
 of this program is prohibited from giving any competitor of
 Gaussian, Inc. access to this program.  By using this program,
 the user acknowledges that Gaussian, Inc. is engaged in the
 business of creating and licensing software in the field of
 computational chemistry and represents and warrants to the
 licensee that it is not a competitor of Gaussian, Inc. and that
 it will not use this program in any manner prohibited above.
 ---------------------------------------------------------------
  

 Cite this work as:
 Gaussian 09, Revision D.01,
 M. J. Frisch, G. W. Trucks, H. B. Schlegel, G. E. Scuseria, 
 M. A. Robb, J. R. Cheeseman, G. Scalmani, V. Barone, B. Mennucci, 
 G. A. Petersson, H. Nakatsuji, M. Caricato, X. Li, H. P. Hratchian, 
 A. F. Izmaylov, J. Bloino, G. Zheng, J. L. Sonnenberg, M. Hada, 
 M. Ehara, K. Toyota, R. Fukuda, J. Hasegawa, M. Ishida, T. Nakajima, 
 Y. Honda, O. Kitao, H. Nakai, T. Vreven, J. A. Montgomery, Jr., 
 J. E. Peralta, F. Ogliaro, M. Bearpark, J. J. Heyd, E. Brothers, 
 K. N. Kudin, V. N. Staroverov, T. Keith, R. Kobayashi, J. Normand, 
 K. Raghavachari, A. Rendell, J. C. Burant, S. S. Iyengar, J. Tomasi, 
 M. Cossi, N. Rega, J. M. Millam, M. Klene, J. E. Knox, J. B. Cross, 
 V. Bakken, C. Adamo, J. Jaramillo, R. Gomperts, R. E. Stratmann, 
 O. Yazyev, A. J. Austin, R. Cammi, C. Pomelli, J. W. Ochterski, 
 R. L. Martin, K. Morokuma, V. G. Zakrzewski, G. A. Voth, 
 P. Salvador, J. J. Dannenberg, S. Dapprich, A. D. Daniels, 
 O. Farkas, J. B. Foresman, J. V. Ortiz, J. Cioslowski, 
 and D. J. Fox, Gaussian, Inc., Wallingford CT, 2013.
 
 ******************************************
 Gaussian 09:  ES64L-G09RevD.01 24-Apr-2013
                26-Aug-2020 
 ******************************************
 %chk=/home/boittier/MDCM/nms_sampling/acrolein_geom.xyz.dir/acrolein_272.chk
 %nproc=8
 Will use up to    8 processors via shared memory.
 %mem=16000MB
 --------------------
 #p B2PLYPD3/Def2QZVP
 --------------------
 1/38=1/1;
 2/12=2,17=6,18=5,40=1/2;
 3/5=45,7=101,11=9,16=1,25=1,30=1,74=-60/1,2,3;
 4//1;
 5/5=2,38=5/2;
 8/10=1/1;
 9/16=-3/6;
 6/7=2,8=2,9=2,10=2/1;
 99/5=1,9=1/99;
 Leave Link    1 at Wed Aug 26 15:04:22 2020, MaxMem=  2097152000 cpu:         0.3
 (Enter /opt/cluster/programs/g09/g09_d.01/g09/l101.exe)
 --------
 acrolein
 --------
 Symbolic Z-matrix:
 Charge =  0 Multiplicity = 1
 C                    -5.00385  -1.39754   0.8683 
 O                    -3.93738  -0.86458   0.67877 
 C                    -5.1936   -2.81569   1.12672 
 C                    -6.39912  -3.30746   1.42423 
 H                    -4.32612  -3.42087   1.09679 
 H                    -7.24069  -2.64295   1.47493 
 H                    -6.58939  -4.38762   1.54398 
 H                    -5.95917  -0.77632   0.85417 
 
 NAtoms=      8 NQM=        8 NQMF=       0 NMMI=      0 NMMIF=      0
                NMic=       0 NMicF=      0.
                    Isotopes and Nuclear Properties:
 (Nuclear quadrupole moments (NQMom) in fm**2, nuclear magnetic moments (NMagM)
  in nuclear magnetons)

  Atom         1           2           3           4           5           6           7           8
 IAtWgt=          12          16          12          12           1           1           1           1
 AtmWgt=  12.0000000  15.9949146  12.0000000  12.0000000   1.0078250   1.0078250   1.0078250   1.0078250
 NucSpn=           0           0           0           0           1           1           1           1
 AtZEff=   0.0000000   0.0000000   0.0000000   0.0000000   0.0000000   0.0000000   0.0000000   0.0000000
 NQMom=    0.0000000   0.0000000   0.0000000   0.0000000   0.0000000   0.0000000   0.0000000   0.0000000
 NMagM=    0.0000000   0.0000000   0.0000000   0.0000000   2.7928460   2.7928460   2.7928460   2.7928460
 AtZNuc=   6.0000000   8.0000000   6.0000000   6.0000000   1.0000000   1.0000000   1.0000000   1.0000000
 Leave Link  101 at Wed Aug 26 15:04:23 2020, MaxMem=  2097152000 cpu:         0.5
 (Enter /opt/cluster/programs/g09/g09_d.01/g09/l202.exe)
                          Input orientation:                          
 ---------------------------------------------------------------------
 Center     Atomic      Atomic             Coordinates (Angstroms)
 Number     Number       Type             X           Y           Z
 ---------------------------------------------------------------------
      1          6           0       -5.003846   -1.397539    0.868301
      2          8           0       -3.937380   -0.864578    0.678766
      3          6           0       -5.193599   -2.815690    1.126720
      4          6           0       -6.399115   -3.307463    1.424234
      5          1           0       -4.326120   -3.420868    1.096789
      6          1           0       -7.240687   -2.642945    1.474926
      7          1           0       -6.589386   -4.387625    1.543975
      8          1           0       -5.959168   -0.776319    0.854169
 ---------------------------------------------------------------------
                    Distance matrix (angstroms):
                    1          2          3          4          5
     1  C    0.000000
     2  O    1.207195   0.000000
     3  C    1.453939   2.363385   0.000000
     4  C    2.429742   3.547330   1.335524   0.000000
     5  H    2.146015   2.619252   1.058138   2.101759   0.000000
     6  H    2.631062   3.835140   2.083664   1.073498   3.040206
     7  H    3.451244   4.493727   2.143199   1.103309   2.501393
     8  H    1.139629   2.031301   2.195316   2.631581   3.117587
                    6          7          8
     6  H    0.000000
     7  H    1.863564   0.000000
     8  H    2.347748   3.730220   0.000000
 Stoichiometry    C3H4O
 Framework group  C1[X(C3H4O)]
 Deg. of freedom    18
 Full point group                 C1      NOp   1
 Largest Abelian subgroup         C1      NOp   1
 Largest concise Abelian subgroup C1      NOp   1
                         Standard orientation:                         
 ---------------------------------------------------------------------
 Center     Atomic      Atomic             Coordinates (Angstroms)
 Number     Number       Type             X           Y           Z
 ---------------------------------------------------------------------
      1          6           0       -0.668215    0.337545    0.025077
      2          8           0       -1.784502   -0.119533   -0.022928
      3          6           0        0.555698   -0.447261    0.017645
      4          6           0        1.753135    0.142497   -0.026553
      5          1           0        0.441556   -1.499224    0.017033
      6          1           0        1.811171    1.213932   -0.059052
      7          1           0        2.698500   -0.421213    0.049656
      8          1           0       -0.518926    1.466077    0.078767
 ---------------------------------------------------------------------
 Rotational constants (GHZ):     48.7586196      4.6928624      4.2837885
 Leave Link  202 at Wed Aug 26 15:04:23 2020, MaxMem=  2097152000 cpu:         0.0
 (Enter /opt/cluster/programs/g09/g09_d.01/g09/l301.exe)
 Standard basis: def2QZVP (5D, 7F)
 Ernie: Thresh=  0.10000D-02 Tol=  0.10000D-05 Strict=F.
 There are   428 symmetry adapted cartesian basis functions of A   symmetry.
 There are   348 symmetry adapted basis functions of A   symmetry.
   348 basis functions,   520 primitive gaussians,   428 cartesian basis functions
    15 alpha electrons       15 beta electrons
       nuclear repulsion energy       103.5062844443 Hartrees.
 IExCor=  419 DFT=T Ex+Corr=B2PLYPD3 ExCW=0 ScaHFX=  0.530000
 ScaDFX=  0.470000  0.470000  0.730000  0.730000 ScalE2=  0.270000  0.270000
 IRadAn=      0 IRanWt=     -1 IRanGd=            0 ICorTp=0 IEmpDi=141
 NAtoms=    8 NActive=    8 NUniq=    8 SFac= 1.00D+00 NAtFMM=   60 NAOKFM=F Big=F
 Integral buffers will be    131072 words long.
 Regular integral format.
 Two-electron integral symmetry is turned on.
 R6Disp:  Grimme-D3(BJ) Dispersion energy=       -0.0035907117 Hartrees.
 Nuclear repulsion after empirical dispersion term =      103.5026937326 Hartrees.
 Leave Link  301 at Wed Aug 26 15:04:23 2020, MaxMem=  2097152000 cpu:         0.4
 (Enter /opt/cluster/programs/g09/g09_d.01/g09/l302.exe)
 NPDir=0 NMtPBC=     1 NCelOv=     1 NCel=       1 NClECP=     1 NCelD=      1
         NCelK=      1 NCelE2=     1 NClLst=     1 CellRange=     0.0.
 One-electron integrals computed using PRISM.
   1 Symmetry operations used in ECPInt.
 ECPInt:  NShTT=    5886 NPrTT=   14376 LenC2=    5780 LenP2D=   12182.
 LDataN:  DoStor=T MaxTD1= 8 Len=  415
 NBasis=   348 RedAO= T EigKep=  5.75D-05  NBF=   348
 NBsUse=   348 1.00D-06 EigRej= -1.00D+00 NBFU=   348
 Precomputing XC quadrature grid using
 IXCGrd= 4 IRadAn=           0 IRanWt=          -1 IRanGd=           0 AccXCQ= 0.00D+00.
 Generated NRdTot=       0 NPtTot=           0 NUsed=           0 NTot=          32
 NSgBfM=   428   428   428   428   428 MxSgAt=     8 MxSgA2=     8.
 Leave Link  302 at Wed Aug 26 15:04:23 2020, MaxMem=  2097152000 cpu:         3.0
 (Enter /opt/cluster/programs/g09/g09_d.01/g09/l303.exe)
 DipDrv:  MaxL=1.
 Leave Link  303 at Wed Aug 26 15:04:23 2020, MaxMem=  2097152000 cpu:         0.3
 (Enter /opt/cluster/programs/g09/g09_d.01/g09/l401.exe)
 ExpMin= 7.60D-02 ExpMax= 1.17D+05 ExpMxC= 1.13D+03 IAcc=2 IRadAn=         4 AccDes= 0.00D+00
 Harris functional with IExCor=  419 and IRadAn=       4 diagonalized for initial guess.
 HarFok:  IExCor=  419 AccDes= 0.00D+00 IRadAn=         4 IDoV= 1 UseB2=F ITyADJ=14
 ICtDFT=  3500011 ScaDFX=  1.000000  1.000000  1.000000  1.000000
 FoFCou: FMM=F IPFlag=           0 FMFlag=      100000 FMFlg1=           0
         NFxFlg=           0 DoJE=T BraDBF=F KetDBF=T FulRan=T
         wScrn=  0.000000 ICntrl=     500 IOpCl=  0 I1Cent=   200000004 NGrid=           0
         NMat0=    1 NMatS0=      1 NMatT0=    0 NMatD0=    1 NMtDS0=    0 NMtDT0=    0
 Petite list used in FoFCou.
 Harris En= -192.045792879802    
 JPrj=0 DoOrth=F DoCkMO=F.
 Leave Link  401 at Wed Aug 26 15:04:25 2020, MaxMem=  2097152000 cpu:         6.9
 (Enter /opt/cluster/programs/g09/g09_d.01/g09/l502.exe)
 Closed shell SCF:
 Using DIIS extrapolation, IDIIS=  1040.
 Integral symmetry usage will be decided dynamically.
 Keep R1 ints in memory in canonical form, NReq=1883905047.
 IVT=      574566 IEndB=      574566 NGot=  2097152000 MDV=   252723534
 LenX=   252723534 LenY=   252539909
 Requested convergence on RMS density matrix=1.00D-08 within 128 cycles.
 Requested convergence on MAX density matrix=1.00D-06.
 Requested convergence on             energy=1.00D-06.
 No special actions if energy rises.
 FoFCou: FMM=F IPFlag=           0 FMFlag=           0 FMFlg1=           0
         NFxFlg=           0 DoJE=F BraDBF=F KetDBF=F FulRan=T
         wScrn=  0.000000 ICntrl=     600 IOpCl=  0 I1Cent=           0 NGrid=           0
         NMat0=    1 NMatS0=  60726 NMatT0=    0 NMatD0=    1 NMtDS0=    0 NMtDT0=    0
 Symmetry not used in FoFCou.
 Integral accuracy reduced to 1.0D-05 until final iterations.

 Cycle   1  Pass 0  IDiag  1:
 E= -191.472146379295    
 DIIS: error= 2.67D-02 at cycle   1 NSaved=   1.
 NSaved= 1 IEnMin= 1 EnMin= -191.472146379295     IErMin= 1 ErrMin= 2.67D-02
 ErrMax= 2.67D-02  0.00D+00 EMaxC= 1.00D-01 BMatC= 2.57D-01 BMatP= 2.57D-01
 IDIUse=3 WtCom= 7.33D-01 WtEn= 2.67D-01
 Coeff-Com:  0.100D+01
 Coeff-En:   0.100D+01
 Coeff:      0.100D+01
 Gap=     0.286 Goal=   None    Shift=    0.000
 GapD=    0.286 DampG=1.000 DampE=0.500 DampFc=0.5000 IDamp=-1.
 Damping current iteration by 5.00D-01
 RMSDP=1.83D-03 MaxDP=2.33D-01              OVMax= 1.77D-01

 Cycle   2  Pass 0  IDiag  1:
 E= -191.541446185648     Delta-E=       -0.069299806354 Rises=F Damp=T
 DIIS: error= 1.02D-02 at cycle   2 NSaved=   2.
 NSaved= 2 IEnMin= 2 EnMin= -191.541446185648     IErMin= 2 ErrMin= 1.02D-02
 ErrMax= 1.02D-02  0.00D+00 EMaxC= 1.00D-01 BMatC= 3.38D-02 BMatP= 2.57D-01
 IDIUse=3 WtCom= 8.98D-01 WtEn= 1.02D-01
 Coeff-Com: -0.149D+00 0.115D+01
 Coeff-En:   0.000D+00 0.100D+01
 Coeff:     -0.134D+00 0.113D+01
 Gap=     0.351 Goal=   None    Shift=    0.000
 RMSDP=6.27D-04 MaxDP=8.02D-02 DE=-6.93D-02 OVMax= 1.32D-01

 Cycle   3  Pass 0  IDiag  1:
 E= -191.603172058527     Delta-E=       -0.061725872878 Rises=F Damp=F
 DIIS: error= 1.11D-02 at cycle   3 NSaved=   3.
 NSaved= 3 IEnMin= 3 EnMin= -191.603172058527     IErMin= 2 ErrMin= 1.02D-02
 ErrMax= 1.11D-02  0.00D+00 EMaxC= 1.00D-01 BMatC= 1.73D-02 BMatP= 3.38D-02
 IDIUse=3 WtCom= 8.89D-01 WtEn= 1.11D-01
 Coeff-Com: -0.190D+00 0.523D+00 0.667D+00
 Coeff-En:   0.000D+00 0.000D+00 0.100D+01
 Coeff:     -0.169D+00 0.465D+00 0.704D+00
 Gap=     0.333 Goal=   None    Shift=    0.000
 RMSDP=2.48D-04 MaxDP=1.91D-02 DE=-6.17D-02 OVMax= 4.88D-02

 Cycle   4  Pass 0  IDiag  1:
 E= -191.612661508967     Delta-E=       -0.009489450440 Rises=F Damp=F
 DIIS: error= 4.69D-03 at cycle   4 NSaved=   4.
 NSaved= 4 IEnMin= 4 EnMin= -191.612661508967     IErMin= 4 ErrMin= 4.69D-03
 ErrMax= 4.69D-03  0.00D+00 EMaxC= 1.00D-01 BMatC= 3.21D-03 BMatP= 1.73D-02
 IDIUse=3 WtCom= 9.53D-01 WtEn= 4.69D-02
 Coeff-Com: -0.585D-01 0.957D-01 0.365D+00 0.598D+00
 Coeff-En:   0.000D+00 0.000D+00 0.170D+00 0.830D+00
 Coeff:     -0.558D-01 0.912D-01 0.356D+00 0.609D+00
 Gap=     0.319 Goal=   None    Shift=    0.000
 RMSDP=1.00D-04 MaxDP=8.25D-03 DE=-9.49D-03 OVMax= 1.46D-02

 Cycle   5  Pass 0  IDiag  1:
 E= -191.615241077769     Delta-E=       -0.002579568803 Rises=F Damp=F
 DIIS: error= 3.30D-04 at cycle   5 NSaved=   5.
 NSaved= 5 IEnMin= 5 EnMin= -191.615241077769     IErMin= 5 ErrMin= 3.30D-04
 ErrMax= 3.30D-04  0.00D+00 EMaxC= 1.00D-01 BMatC= 1.11D-05 BMatP= 3.21D-03
 IDIUse=3 WtCom= 9.97D-01 WtEn= 3.30D-03
 Coeff-Com: -0.600D-02 0.686D-02 0.440D-01 0.110D+00 0.846D+00
 Coeff-En:   0.000D+00 0.000D+00 0.000D+00 0.000D+00 0.100D+01
 Coeff:     -0.598D-02 0.684D-02 0.438D-01 0.109D+00 0.846D+00
 Gap=     0.318 Goal=   None    Shift=    0.000
 RMSDP=9.95D-06 MaxDP=8.36D-04 DE=-2.58D-03 OVMax= 2.10D-03

 Initial convergence to 1.0D-05 achieved.  Increase integral accuracy.
 Cycle   6  Pass 1  IDiag  1:
 E= -191.615240011200     Delta-E=        0.000001066569 Rises=F Damp=F
 DIIS: error= 9.25D-05 at cycle   1 NSaved=   1.
 NSaved= 1 IEnMin= 1 EnMin= -191.615240011200     IErMin= 1 ErrMin= 9.25D-05
 ErrMax= 9.25D-05  0.00D+00 EMaxC= 1.00D-01 BMatC= 1.54D-06 BMatP= 1.54D-06
 IDIUse=1 WtCom= 1.00D+00 WtEn= 0.00D+00
 Coeff-Com:  0.100D+01
 Coeff:      0.100D+01
 Gap=     0.318 Goal=   None    Shift=    0.000
 RMSDP=9.95D-06 MaxDP=8.36D-04 DE= 1.07D-06 OVMax= 6.97D-04

 Cycle   7  Pass 1  IDiag  1:
 E= -191.615241181502     Delta-E=       -0.000001170302 Rises=F Damp=F
 DIIS: error= 7.16D-05 at cycle   2 NSaved=   2.
 NSaved= 2 IEnMin= 2 EnMin= -191.615241181502     IErMin= 2 ErrMin= 7.16D-05
 ErrMax= 7.16D-05  0.00D+00 EMaxC= 1.00D-01 BMatC= 9.63D-07 BMatP= 1.54D-06
 IDIUse=1 WtCom= 1.00D+00 WtEn= 0.00D+00
 Coeff-Com:  0.435D+00 0.565D+00
 Coeff:      0.435D+00 0.565D+00
 Gap=     0.318 Goal=   None    Shift=    0.000
 RMSDP=1.45D-06 MaxDP=1.06D-04 DE=-1.17D-06 OVMax= 3.62D-04

 Cycle   8  Pass 1  IDiag  1:
 E= -191.615242003645     Delta-E=       -0.000000822143 Rises=F Damp=F
 DIIS: error= 1.91D-05 at cycle   3 NSaved=   3.
 NSaved= 3 IEnMin= 3 EnMin= -191.615242003645     IErMin= 3 ErrMin= 1.91D-05
 ErrMax= 1.91D-05  0.00D+00 EMaxC= 1.00D-01 BMatC= 6.17D-08 BMatP= 9.63D-07
 IDIUse=1 WtCom= 1.00D+00 WtEn= 0.00D+00
 Coeff-Com:  0.551D-01 0.166D+00 0.779D+00
 Coeff:      0.551D-01 0.166D+00 0.779D+00
 Gap=     0.318 Goal=   None    Shift=    0.000
 RMSDP=1.25D-06 MaxDP=1.33D-04 DE=-8.22D-07 OVMax= 1.09D-04

 Cycle   9  Pass 1  IDiag  1:
 E= -191.615242066393     Delta-E=       -0.000000062748 Rises=F Damp=F
 DIIS: error= 1.77D-05 at cycle   4 NSaved=   4.
 NSaved= 4 IEnMin= 4 EnMin= -191.615242066393     IErMin= 4 ErrMin= 1.77D-05
 ErrMax= 1.77D-05  0.00D+00 EMaxC= 1.00D-01 BMatC= 2.07D-08 BMatP= 6.17D-08
 IDIUse=1 WtCom= 1.00D+00 WtEn= 0.00D+00
 Coeff-Com: -0.115D+00-0.989D-01 0.424D+00 0.790D+00
 Coeff:     -0.115D+00-0.989D-01 0.424D+00 0.790D+00
 Gap=     0.318 Goal=   None    Shift=    0.000
 RMSDP=6.89D-07 MaxDP=7.21D-05 DE=-6.27D-08 OVMax= 1.06D-04

 Cycle  10  Pass 1  IDiag  1:
 E= -191.615242094833     Delta-E=       -0.000000028439 Rises=F Damp=F
 DIIS: error= 1.89D-06 at cycle   5 NSaved=   5.
 NSaved= 5 IEnMin= 5 EnMin= -191.615242094833     IErMin= 5 ErrMin= 1.89D-06
 ErrMax= 1.89D-06  0.00D+00 EMaxC= 1.00D-01 BMatC= 1.34D-09 BMatP= 2.07D-08
 IDIUse=1 WtCom= 1.00D+00 WtEn= 0.00D+00
 Coeff-Com: -0.428D-01-0.462D-01 0.835D-01 0.300D+00 0.706D+00
 Coeff:     -0.428D-01-0.462D-01 0.835D-01 0.300D+00 0.706D+00
 Gap=     0.318 Goal=   None    Shift=    0.000
 RMSDP=1.84D-07 MaxDP=2.20D-05 DE=-2.84D-08 OVMax= 1.52D-05

 Cycle  11  Pass 1  IDiag  1:
 E= -191.615242095947     Delta-E=       -0.000000001114 Rises=F Damp=F
 DIIS: error= 1.26D-06 at cycle   6 NSaved=   6.
 NSaved= 6 IEnMin= 6 EnMin= -191.615242095947     IErMin= 6 ErrMin= 1.26D-06
 ErrMax= 1.26D-06  0.00D+00 EMaxC= 1.00D-01 BMatC= 1.61D-10 BMatP= 1.34D-09
 IDIUse=1 WtCom= 1.00D+00 WtEn= 0.00D+00
 Coeff-Com:  0.631D-02 0.138D-02-0.532D-01-0.105D-01 0.268D+00 0.788D+00
 Coeff:      0.631D-02 0.138D-02-0.532D-01-0.105D-01 0.268D+00 0.788D+00
 Gap=     0.318 Goal=   None    Shift=    0.000
 RMSDP=3.61D-08 MaxDP=1.37D-06 DE=-1.11D-09 OVMax= 1.08D-05

 Cycle  12  Pass 1  IDiag  1:
 E= -191.615242096140     Delta-E=       -0.000000000194 Rises=F Damp=F
 DIIS: error= 2.43D-07 at cycle   7 NSaved=   7.
 NSaved= 7 IEnMin= 7 EnMin= -191.615242096140     IErMin= 7 ErrMin= 2.43D-07
 ErrMax= 2.43D-07  0.00D+00 EMaxC= 1.00D-01 BMatC= 1.70D-11 BMatP= 1.61D-10
 IDIUse=1 WtCom= 1.00D+00 WtEn= 0.00D+00
 Coeff-Com:  0.538D-02 0.343D-02-0.287D-01-0.230D-01 0.371D-01 0.306D+00
 Coeff-Com:  0.700D+00
 Coeff:      0.538D-02 0.343D-02-0.287D-01-0.230D-01 0.371D-01 0.306D+00
 Coeff:      0.700D+00
 Gap=     0.318 Goal=   None    Shift=    0.000
 RMSDP=1.08D-08 MaxDP=8.68D-07 DE=-1.94D-10 OVMax= 1.28D-06

 Cycle  13  Pass 1  IDiag  1:
 E= -191.615242096164     Delta-E=       -0.000000000024 Rises=F Damp=F
 DIIS: error= 4.50D-08 at cycle   8 NSaved=   8.
 NSaved= 8 IEnMin= 8 EnMin= -191.615242096164     IErMin= 8 ErrMin= 4.50D-08
 ErrMax= 4.50D-08  0.00D+00 EMaxC= 1.00D-01 BMatC= 6.30D-13 BMatP= 1.70D-11
 IDIUse=1 WtCom= 1.00D+00 WtEn= 0.00D+00
 Coeff-Com: -0.227D-03 0.472D-04 0.374D-02 0.728D-03-0.327D-01-0.556D-01
 Coeff-Com:  0.771D-01 0.101D+01
 Coeff:     -0.227D-03 0.472D-04 0.374D-02 0.728D-03-0.327D-01-0.556D-01
 Coeff:      0.771D-01 0.101D+01
 Gap=     0.318 Goal=   None    Shift=    0.000
 RMSDP=3.46D-09 MaxDP=1.22D-07 DE=-2.39D-11 OVMax= 9.28D-07

 SCF Done:  E(RB2PLYPD3) =  -191.615242096     A.U. after   13 cycles
            NFock= 13  Conv=0.35D-08     -V/T= 2.0033
 KE= 1.909937470682D+02 PE=-6.550452256736D+02 EE= 1.689335427766D+02
 Leave Link  502 at Wed Aug 26 15:06:09 2020, MaxMem=  2097152000 cpu:       411.2
 (Enter /opt/cluster/programs/g09/g09_d.01/g09/l801.exe)
 DoSCS=T DFT=T ScalE2(SS,OS)=  0.270000  0.270000
 ExpMin= 7.60D-02 ExpMax= 1.17D+05 ExpMxC= 1.13D+03 IAcc=3 IRadAn=         5 AccDes= 0.00D+00
 HarFok:  IExCor=  205 AccDes= 0.00D+00 IRadAn=         5 IDoV=-2 UseB2=F ITyADJ=14
 ICtDFT= 12500011 ScaDFX=  1.000000  1.000000  1.000000  1.000000
 Largest valence mixing into a core orbital is  1.16D-04
 Largest core mixing into a valence orbital is  1.88D-05
 Range of M.O.s used for correlation:     5   348
 NBasis=   348 NAE=    15 NBE=    15 NFC=     4 NFV=     0
 NROrb=    344 NOA=    11 NOB=    11 NVA=   333 NVB=   333

 **** Warning!!: The largest alpha MO coefficient is  0.31130716D+02

 Leave Link  801 at Wed Aug 26 15:06:10 2020, MaxMem=  2097152000 cpu:         0.9
 (Enter /opt/cluster/programs/g09/g09_d.01/g09/l906.exe)
 DoSCS=T DFT=T ScalE2(SS,OS)=  0.270000  0.270000
 FulOut=F Deriv=F AODrv=F NAtomX=     8
   MMem=        1190  MDisk=          11 MDiskD=          11
  W3Min=     1567764 MinDsk=     2827057 NBas6D=         428
 NBas2D=       93150    NTT=       91806    LW2=     4508827
    MDV=  2096570736 MDiskM=       10875 NBas2p=       89493
 Fully direct method using O(OVN) memory.
 IMap=   1   2   3   4   5   6   7   8   9  10  11
 JobTyp=1 Pass  1:  I=   1 to  11 NPSUse=  8 ParTrn=T ParDer=T DoDerP=F.
 Spin components of T(2) and E(2):
     alpha-alpha T2 =       0.4375246619D-01 E2=     -0.2949621082D-01
     alpha-beta  T2 =       0.2667554261D+00 E2=     -0.1882010127D+00
     beta-beta   T2 =       0.4375246619D-01 E2=     -0.2949621082D-01
 The integrals were generated   1 times.
 E2(B2PLYPD3) =    -0.2471934343D+00 E(B2PLYPD3) =    -0.19186243553047D+03
 Leave Link  906 at Wed Aug 26 15:06:57 2020, MaxMem=  2097152000 cpu:       376.5
 (Enter /opt/cluster/programs/g09/g09_d.01/g09/l601.exe)
 Copying SCF densities to generalized density rwf, IOpCl= 0 IROHF=0.

 **********************************************************************

            Population analysis using the SCF density.

 **********************************************************************

 Orbital symmetries:
       Occupied  (A) (A) (A) (A) (A) (A) (A) (A) (A) (A) (A) (A)
                 (A) (A) (A)
       Virtual   (A) (A) (A) (A) (A) (A) (A) (A) (A) (A) (A) (A)
                 (A) (A) (A) (A) (A) (A) (A) (A) (A) (A) (A) (A)
                 (A) (A) (A) (A) (A) (A) (A) (A) (A) (A) (A) (A)
                 (A) (A) (A) (A) (A) (A) (A) (A) (A) (A) (A) (A)
                 (A) (A) (A) (A) (A) (A) (A) (A) (A) (A) (A) (A)
                 (A) (A) (A) (A) (A) (A) (A) (A) (A) (A) (A) (A)
                 (A) (A) (A) (A) (A) (A) (A) (A) (A) (A) (A) (A)
                 (A) (A) (A) (A) (A) (A) (A) (A) (A) (A) (A) (A)
                 (A) (A) (A) (A) (A) (A) (A) (A) (A) (A) (A) (A)
                 (A) (A) (A) (A) (A) (A) (A) (A) (A) (A) (A) (A)
                 (A) (A) (A) (A) (A) (A) (A) (A) (A) (A) (A) (A)
                 (A) (A) (A) (A) (A) (A) (A) (A) (A) (A) (A) (A)
                 (A) (A) (A) (A) (A) (A) (A) (A) (A) (A) (A) (A)
                 (A) (A) (A) (A) (A) (A) (A) (A) (A) (A) (A) (A)
                 (A) (A) (A) (A) (A) (A) (A) (A) (A) (A) (A) (A)
                 (A) (A) (A) (A) (A) (A) (A) (A) (A) (A) (A) (A)
                 (A) (A) (A) (A) (A) (A) (A) (A) (A) (A) (A) (A)
                 (A) (A) (A) (A) (A) (A) (A) (A) (A) (A) (A) (A)
                 (A) (A) (A) (A) (A) (A) (A) (A) (A) (A) (A) (A)
                 (A) (A) (A) (A) (A) (A) (A) (A) (A) (A) (A) (A)
                 (A) (A) (A) (A) (A) (A) (A) (A) (A) (A) (A) (A)
                 (A) (A) (A) (A) (A) (A) (A) (A) (A) (A) (A) (A)
                 (A) (A) (A) (A) (A) (A) (A) (A) (A) (A) (A) (A)
                 (A) (A) (A) (A) (A) (A) (A) (A) (A) (A) (A) (A)
                 (A) (A) (A) (A) (A) (A) (A) (A) (A) (A) (A) (A)
                 (A) (A) (A) (A) (A) (A) (A) (A) (A) (A) (A) (A)
                 (A) (A) (A) (A) (A) (A) (A) (A) (A) (A) (A) (A)
                 (A) (A) (A) (A) (A) (A) (A) (A) (A)
 The electronic state is 1-A.
 Alpha  occ. eigenvalues --  -19.72803 -10.71669 -10.65760 -10.64155  -1.19746
 Alpha  occ. eigenvalues --   -0.93242  -0.75458  -0.66904  -0.56485  -0.56448
 Alpha  occ. eigenvalues --   -0.50493  -0.47218  -0.46955  -0.34718  -0.33749
 Alpha virt. eigenvalues --   -0.01920   0.05745   0.07138   0.08391   0.09789
 Alpha virt. eigenvalues --    0.12499   0.13892   0.15377   0.17535   0.19619
 Alpha virt. eigenvalues --    0.20064   0.21473   0.25484   0.26330   0.28955
 Alpha virt. eigenvalues --    0.31777   0.33588   0.35057   0.37133   0.38157
 Alpha virt. eigenvalues --    0.39487   0.41737   0.43503   0.44311   0.46179
 Alpha virt. eigenvalues --    0.48047   0.48978   0.53783   0.54974   0.57240
 Alpha virt. eigenvalues --    0.57951   0.64321   0.66148   0.67187   0.71216
 Alpha virt. eigenvalues --    0.74915   0.76531   0.78509   0.79690   0.80917
 Alpha virt. eigenvalues --    0.81575   0.82172   0.83048   0.84377   0.86513
 Alpha virt. eigenvalues --    0.88425   0.91621   0.92755   0.93598   0.95692
 Alpha virt. eigenvalues --    0.96605   0.97740   1.00563   1.02175   1.07876
 Alpha virt. eigenvalues --    1.09574   1.12226   1.16183   1.17532   1.18192
 Alpha virt. eigenvalues --    1.19636   1.26054   1.28470   1.34116   1.38697
 Alpha virt. eigenvalues --    1.43520   1.47303   1.48044   1.55031   1.57158
 Alpha virt. eigenvalues --    1.59536   1.62570   1.66419   1.68008   1.69013
 Alpha virt. eigenvalues --    1.74370   1.76119   1.78075   1.82019   1.83339
 Alpha virt. eigenvalues --    1.86481   1.90359   1.91056   1.93168   1.94421
 Alpha virt. eigenvalues --    1.95823   1.98561   2.00139   2.01524   2.03324
 Alpha virt. eigenvalues --    2.06548   2.09788   2.11197   2.14169   2.15721
 Alpha virt. eigenvalues --    2.16576   2.18554   2.20491   2.23311   2.26862
 Alpha virt. eigenvalues --    2.29523   2.35497   2.36586   2.39142   2.42526
 Alpha virt. eigenvalues --    2.45631   2.45839   2.48913   2.49843   2.53614
 Alpha virt. eigenvalues --    2.55108   2.56858   2.59194   2.61235   2.64461
 Alpha virt. eigenvalues --    2.65450   2.66690   2.67345   2.69256   2.74388
 Alpha virt. eigenvalues --    2.75984   2.78287   2.84766   2.86992   2.87306
 Alpha virt. eigenvalues --    2.89033   2.96532   2.99646   3.02116   3.06686
 Alpha virt. eigenvalues --    3.17574   3.18818   3.27230   3.29997   3.33243
 Alpha virt. eigenvalues --    3.34479   3.40898   3.42647   3.45676   3.48066
 Alpha virt. eigenvalues --    3.50804   3.53330   3.60520   3.62730   3.64214
 Alpha virt. eigenvalues --    3.65575   3.74689   3.77850   3.82762   3.90638
 Alpha virt. eigenvalues --    3.94560   3.99959   4.01828   4.04683   4.06026
 Alpha virt. eigenvalues --    4.10366   4.18934   4.21598   4.26842   4.32783
 Alpha virt. eigenvalues --    4.40811   4.42871   4.54377   4.60251   4.63214
 Alpha virt. eigenvalues --    4.67489   4.84181   4.87401   4.92523   4.99542
 Alpha virt. eigenvalues --    5.03739   5.05516   5.09421   5.11749   5.12086
 Alpha virt. eigenvalues --    5.21582   5.26280   5.29699   5.34731   5.43061
 Alpha virt. eigenvalues --    5.45183   5.53269   5.53916   5.58717   5.60022
 Alpha virt. eigenvalues --    5.65637   5.69309   5.71369   5.73205   5.78897
 Alpha virt. eigenvalues --    5.80982   5.83584   5.87003   5.90969   5.94592
 Alpha virt. eigenvalues --    5.95259   5.97127   5.99647   6.05826   6.07182
 Alpha virt. eigenvalues --    6.10978   6.14723   6.16378   6.17836   6.19419
 Alpha virt. eigenvalues --    6.21239   6.23317   6.26532   6.27694   6.31712
 Alpha virt. eigenvalues --    6.33058   6.36109   6.37087   6.39117   6.44625
 Alpha virt. eigenvalues --    6.47568   6.50837   6.53302   6.53603   6.60136
 Alpha virt. eigenvalues --    6.63346   6.67907   6.70084   6.73005   6.80088
 Alpha virt. eigenvalues --    6.83685   6.85637   6.94742   6.99645   7.02189
 Alpha virt. eigenvalues --    7.06492   7.07586   7.13075   7.15464   7.20922
 Alpha virt. eigenvalues --    7.33619   7.37929   7.45235   7.47017   7.53011
 Alpha virt. eigenvalues --    7.58529   7.59569   7.62242   7.63041   7.65433
 Alpha virt. eigenvalues --    7.66560   7.71578   7.72262   7.74682   7.77553
 Alpha virt. eigenvalues --    7.85165   7.86928   7.89890   8.02727   8.03954
 Alpha virt. eigenvalues --    8.07748   8.09561   8.15412   8.16002   8.21947
 Alpha virt. eigenvalues --    8.23188   8.25081   8.28324   8.33069   8.34598
 Alpha virt. eigenvalues --    8.35629   8.38377   8.45951   8.53621   8.55543
 Alpha virt. eigenvalues --    8.56734   8.57523   8.61968   8.70049   8.73981
 Alpha virt. eigenvalues --    8.81290   8.87128   8.92173   8.97696   9.06356
 Alpha virt. eigenvalues --    9.07514   9.09249   9.18774   9.29436   9.31129
 Alpha virt. eigenvalues --    9.31838   9.42081   9.59912   9.69480   9.76062
 Alpha virt. eigenvalues --    9.76717   9.83673   9.86096   9.87685   9.94236
 Alpha virt. eigenvalues --   10.01163  10.08287  10.21033  10.26202  10.33260
 Alpha virt. eigenvalues --   10.35453  10.48323  10.53045  10.66753  10.90592
 Alpha virt. eigenvalues --   11.02120  11.22666  11.25271  11.28606  11.56345
 Alpha virt. eigenvalues --   11.66290  11.76719  11.88051  12.04430  12.10564
 Alpha virt. eigenvalues --   12.32429  12.36569  12.41620  12.53519  13.00138
 Alpha virt. eigenvalues --   13.08382  13.39487  13.78881  14.36388  14.74774
 Alpha virt. eigenvalues --   28.61448  28.88469  29.52657  48.66520 148.20154
 Alpha virt. eigenvalues --  148.43787 149.12963 254.42724
          Condensed to atoms (all electrons):
               1          2          3          4          5          6
     1  C    4.507323   0.620525   0.358340  -0.055704  -0.032036  -0.004208
     2  O    0.620525   7.880337  -0.087369   0.006142   0.006777   0.000367
     3  C    0.358340  -0.087369   5.162863   0.487592   0.361231  -0.052574
     4  C   -0.055704   0.006142   0.487592   4.867601  -0.037359   0.424066
     5  H   -0.032036   0.006777   0.361231  -0.037359   0.584991   0.005707
     6  H   -0.004208   0.000367  -0.052574   0.424066   0.005707   0.573683
     7  H    0.002641  -0.000512  -0.031338   0.414290  -0.005051  -0.040229
     8  H    0.448601  -0.080237  -0.165993   0.021753   0.009238   0.007114
               7          8
     1  C    0.002641   0.448601
     2  O   -0.000512  -0.080237
     3  C   -0.031338  -0.165993
     4  C    0.414290   0.021753
     5  H   -0.005051   0.009238
     6  H   -0.040229   0.007114
     7  H    0.558504  -0.000744
     8  H   -0.000744   0.702636
 Mulliken charges:
               1
     1  C    0.154518
     2  O   -0.346031
     3  C   -0.032753
     4  C   -0.128381
     5  H    0.106502
     6  H    0.086074
     7  H    0.102439
     8  H    0.057632
 Sum of Mulliken charges =   0.00000
 Mulliken charges with hydrogens summed into heavy atoms:
               1
     1  C    0.212150
     2  O   -0.346031
     3  C    0.073749
     4  C    0.060132
 Electronic spatial extent (au):  <R**2>=            296.9597
 Charge=              0.0000 electrons
 Dipole moment (field-independent basis, Debye):
    X=              3.5136    Y=              0.6815    Z=              0.1104  Tot=              3.5808
 Quadrupole moment (field-independent basis, Debye-Ang):
   XX=            -27.2958   YY=            -21.8963   ZZ=            -25.1986
   XY=             -0.9217   XZ=             -0.0674   YZ=             -0.0896
 Traceless Quadrupole moment (field-independent basis, Debye-Ang):
   XX=             -2.4989   YY=              2.9006   ZZ=             -0.4017
   XY=             -0.9217   XZ=             -0.0674   YZ=             -0.0896
 Octapole moment (field-independent basis, Debye-Ang**2):
  XXX=             15.2937  YYY=             -0.2479  ZZZ=             -0.0185  XYY=             -0.2720
  XXY=              0.4942  XXZ=              0.4882  XZZ=             -4.2888  YZZ=              0.0615
  YYZ=              0.0089  XYZ=             -0.2040
 Hexadecapole moment (field-independent basis, Debye-Ang**3):
 XXXX=           -299.6195 YYYY=            -55.6537 ZZZZ=            -27.4038 XXXY=             -3.6180
 XXXZ=              1.0612 YYYX=              0.3858 YYYZ=             -0.1124 ZZZX=              0.2248
 ZZZY=             -0.0907 XXYY=            -58.2825 XXZZ=            -57.0726 YYZZ=            -15.5169
 XXYZ=             -0.5253 YYXZ=             -0.0714 ZZXY=              0.4120
 N-N= 1.035026937326D+02 E-N=-6.550452308521D+02  KE= 1.909937470682D+02
 Leave Link  601 at Wed Aug 26 15:06:57 2020, MaxMem=  2097152000 cpu:         0.6
 (Enter /opt/cluster/programs/g09/g09_d.01/g09/l9999.exe)
 1\1\GINC-NODE07\SP\RB2PLYPD3-FC\def2QZVP\C3H4O1\BOITTIER\26-Aug-2020\0
 \\#p B2PLYPD3/Def2QZVP\\acrolein\\0,1\C,0,-5.003846,-1.397539,0.868301
 \O,0,-3.93738,-0.864578,0.678766\C,0,-5.193599,-2.81569,1.12672\C,0,-6
 .399115,-3.307463,1.424234\H,0,-4.32612,-3.420868,1.096789\H,0,-7.2406
 87,-2.642945,1.474926\H,0,-6.589386,-4.387625,1.543975\H,0,-5.959168,-
 0.776319,0.854169\\Version=ES64L-G09RevD.01\State=1-A\HF=-191.6152421\
 MP2=-191.8624355\RMSD=3.461e-09\PG=C01 [X(C3H4O1)]\\@


 QUHEN THE CAUSS IS TAKEN AWAY THE EFFECT WANISHETH.
 -- PROVERBS AND REASONS OF THE YEAR 1585
           AS REPRINTED IN PAISLEY MAGAZINE 1828.
 Job cpu time:       0 days  0 hours 13 minutes 21.3 seconds.
 File lengths (MBytes):  RWF=     49 Int=      0 D2E=      0 Chk=      7 Scr=      1
 Normal termination of Gaussian 09 at Wed Aug 26 15:06:57 2020.
