 Entering Gaussian System, Link 0=/opt/cluster/programs/g09/g09_d.01/g09//g09
 Input=/home/boittier/MDCM/nms_sampling/acrolein_geom.xyz.dir/energies/acrolein_1023_energy.com
 Output=/scratch/boittier/acrolein_1023_energy/acrolein_1023_energy.out
 Initial command:
 /opt/cluster/programs/g09/g09_d.01/g09/l1.exe "/scratch/boittier/acrolein_1023_energy/Gau-25744.inp" -scrdir="/scratch/boittier/acrolein_1023_energy/"
 Entering Link 1 = /opt/cluster/programs/g09/g09_d.01/g09/l1.exe PID=     25745.
  
 Copyright (c) 1988,1990,1992,1993,1995,1998,2003,2009,2013,
            Gaussian, Inc.  All Rights Reserved.
  
 This is part of the Gaussian(R) 09 program.  It is based on
 the Gaussian(R) 03 system (copyright 2003, Gaussian, Inc.),
 the Gaussian(R) 98 system (copyright 1998, Gaussian, Inc.),
 the Gaussian(R) 94 system (copyright 1995, Gaussian, Inc.),
 the Gaussian 92(TM) system (copyright 1992, Gaussian, Inc.),
 the Gaussian 90(TM) system (copyright 1990, Gaussian, Inc.),
 the Gaussian 88(TM) system (copyright 1988, Gaussian, Inc.),
 the Gaussian 86(TM) system (copyright 1986, Carnegie Mellon
 University), and the Gaussian 82(TM) system (copyright 1983,
 Carnegie Mellon University). Gaussian is a federally registered
 trademark of Gaussian, Inc.
  
 This software contains proprietary and confidential information,
 including trade secrets, belonging to Gaussian, Inc.
  
 This software is provided under written license and may be
 used, copied, transmitted, or stored only in accord with that
 written license.
  
 The following legend is applicable only to US Government
 contracts under FAR:
  
                    RESTRICTED RIGHTS LEGEND
  
 Use, reproduction and disclosure by the US Government is
 subject to restrictions as set forth in subparagraphs (a)
 and (c) of the Commercial Computer Software - Restricted
 Rights clause in FAR 52.227-19.
  
 Gaussian, Inc.
 340 Quinnipiac St., Bldg. 40, Wallingford CT 06492
  
  
 ---------------------------------------------------------------
 Warning -- This program may not be used in any manner that
 competes with the business of Gaussian, Inc. or will provide
 assistance to any competitor of Gaussian, Inc.  The licensee
 of this program is prohibited from giving any competitor of
 Gaussian, Inc. access to this program.  By using this program,
 the user acknowledges that Gaussian, Inc. is engaged in the
 business of creating and licensing software in the field of
 computational chemistry and represents and warrants to the
 licensee that it is not a competitor of Gaussian, Inc. and that
 it will not use this program in any manner prohibited above.
 ---------------------------------------------------------------
  

 Cite this work as:
 Gaussian 09, Revision D.01,
 M. J. Frisch, G. W. Trucks, H. B. Schlegel, G. E. Scuseria, 
 M. A. Robb, J. R. Cheeseman, G. Scalmani, V. Barone, B. Mennucci, 
 G. A. Petersson, H. Nakatsuji, M. Caricato, X. Li, H. P. Hratchian, 
 A. F. Izmaylov, J. Bloino, G. Zheng, J. L. Sonnenberg, M. Hada, 
 M. Ehara, K. Toyota, R. Fukuda, J. Hasegawa, M. Ishida, T. Nakajima, 
 Y. Honda, O. Kitao, H. Nakai, T. Vreven, J. A. Montgomery, Jr., 
 J. E. Peralta, F. Ogliaro, M. Bearpark, J. J. Heyd, E. Brothers, 
 K. N. Kudin, V. N. Staroverov, T. Keith, R. Kobayashi, J. Normand, 
 K. Raghavachari, A. Rendell, J. C. Burant, S. S. Iyengar, J. Tomasi, 
 M. Cossi, N. Rega, J. M. Millam, M. Klene, J. E. Knox, J. B. Cross, 
 V. Bakken, C. Adamo, J. Jaramillo, R. Gomperts, R. E. Stratmann, 
 O. Yazyev, A. J. Austin, R. Cammi, C. Pomelli, J. W. Ochterski, 
 R. L. Martin, K. Morokuma, V. G. Zakrzewski, G. A. Voth, 
 P. Salvador, J. J. Dannenberg, S. Dapprich, A. D. Daniels, 
 O. Farkas, J. B. Foresman, J. V. Ortiz, J. Cioslowski, 
 and D. J. Fox, Gaussian, Inc., Wallingford CT, 2013.
 
 ******************************************
 Gaussian 09:  ES64L-G09RevD.01 24-Apr-2013
                26-Aug-2020 
 ******************************************
 %chk=/home/boittier/MDCM/nms_sampling/acrolein_geom.xyz.dir/acrolein_1023.chk
 %nproc=8
 Will use up to    8 processors via shared memory.
 %mem=16000MB
 --------------------
 #p B2PLYPD3/Def2QZVP
 --------------------
 1/38=1/1;
 2/12=2,17=6,18=5,40=1/2;
 3/5=45,7=101,11=9,16=1,25=1,30=1,74=-60/1,2,3;
 4//1;
 5/5=2,38=5/2;
 8/10=1/1;
 9/16=-3/6;
 6/7=2,8=2,9=2,10=2/1;
 99/5=1,9=1/99;
 Leave Link    1 at Wed Aug 26 08:33:22 2020, MaxMem=  2097152000 cpu:         0.2
 (Enter /opt/cluster/programs/g09/g09_d.01/g09/l101.exe)
 --------
 acrolein
 --------
 Symbolic Z-matrix:
 Charge =  0 Multiplicity = 1
 C                    -5.01432  -1.36262   0.91984 
 O                    -3.92659  -0.8843    0.63391 
 C                    -5.18748  -2.80232   1.18704 
 C                    -6.40604  -3.32708   1.36891 
 H                    -4.29151  -3.40278   1.08358 
 H                    -7.28772  -2.71616   1.48029 
 H                    -6.59563  -4.41294   1.52223 
 H                    -5.98281  -0.73208   0.92015 
 
 NAtoms=      8 NQM=        8 NQMF=       0 NMMI=      0 NMMIF=      0
                NMic=       0 NMicF=      0.
                    Isotopes and Nuclear Properties:
 (Nuclear quadrupole moments (NQMom) in fm**2, nuclear magnetic moments (NMagM)
  in nuclear magnetons)

  Atom         1           2           3           4           5           6           7           8
 IAtWgt=          12          16          12          12           1           1           1           1
 AtmWgt=  12.0000000  15.9949146  12.0000000  12.0000000   1.0078250   1.0078250   1.0078250   1.0078250
 NucSpn=           0           0           0           0           1           1           1           1
 AtZEff=   0.0000000   0.0000000   0.0000000   0.0000000   0.0000000   0.0000000   0.0000000   0.0000000
 NQMom=    0.0000000   0.0000000   0.0000000   0.0000000   0.0000000   0.0000000   0.0000000   0.0000000
 NMagM=    0.0000000   0.0000000   0.0000000   0.0000000   2.7928460   2.7928460   2.7928460   2.7928460
 AtZNuc=   6.0000000   8.0000000   6.0000000   6.0000000   1.0000000   1.0000000   1.0000000   1.0000000
 Leave Link  101 at Wed Aug 26 08:33:22 2020, MaxMem=  2097152000 cpu:         0.5
 (Enter /opt/cluster/programs/g09/g09_d.01/g09/l202.exe)
                          Input orientation:                          
 ---------------------------------------------------------------------
 Center     Atomic      Atomic             Coordinates (Angstroms)
 Number     Number       Type             X           Y           Z
 ---------------------------------------------------------------------
      1          6           0       -5.014319   -1.362623    0.919841
      2          8           0       -3.926590   -0.884297    0.633908
      3          6           0       -5.187483   -2.802315    1.187035
      4          6           0       -6.406036   -3.327082    1.368905
      5          1           0       -4.291506   -3.402777    1.083582
      6          1           0       -7.287718   -2.716160    1.480290
      7          1           0       -6.595631   -4.412944    1.522229
      8          1           0       -5.982814   -0.732081    0.920152
 ---------------------------------------------------------------------
                    Distance matrix (angstroms):
                    1          2          3          4          5
     1  C    0.000000
     2  O    1.222173   0.000000
     3  C    1.474480   2.361058   0.000000
     4  C    2.449007   3.557397   1.339152   0.000000
     5  H    2.170599   2.584204   1.083528   2.135035   0.000000
     6  H    2.704535   3.920366   2.122359   1.078423   3.099372
     7  H    3.488248   4.512676   2.165493   1.112902   2.553789
     8  H    1.155667   2.081625   2.233752   2.667307   3.165415
                    6          7          8
     6  H    0.000000
     7  H    1.832981   0.000000
     8  H    2.439897   3.779788   0.000000
 Stoichiometry    C3H4O
 Framework group  C1[X(C3H4O)]
 Deg. of freedom    18
 Full point group                 C1      NOp   1
 Largest Abelian subgroup         C1      NOp   1
 Largest concise Abelian subgroup C1      NOp   1
                         Standard orientation:                         
 ---------------------------------------------------------------------
 Center     Atomic      Atomic             Coordinates (Angstroms)
 Number     Number       Type             X           Y           Z
 ---------------------------------------------------------------------
      1          6           0        0.676570    0.370877    0.025379
      2          8           0        1.787777   -0.135467   -0.025029
      3          6           0       -0.551862   -0.444322    0.047698
      4          6           0       -1.759802    0.128594   -0.029611
      5          1           0       -0.397308   -1.515087   -0.012351
      6          1           0       -1.899102    1.195593    0.041830
      7          1           0       -2.714235   -0.442456   -0.068507
      8          1           0        0.518996    1.514789   -0.021541
 ---------------------------------------------------------------------
 Rotational constants (GHZ):     46.6756917      4.6521907      4.2349361
 Leave Link  202 at Wed Aug 26 08:33:22 2020, MaxMem=  2097152000 cpu:         0.0
 (Enter /opt/cluster/programs/g09/g09_d.01/g09/l301.exe)
 Standard basis: def2QZVP (5D, 7F)
 Ernie: Thresh=  0.10000D-02 Tol=  0.10000D-05 Strict=F.
 There are   428 symmetry adapted cartesian basis functions of A   symmetry.
 There are   348 symmetry adapted basis functions of A   symmetry.
   348 basis functions,   520 primitive gaussians,   428 cartesian basis functions
    15 alpha electrons       15 beta electrons
       nuclear repulsion energy       102.5694049338 Hartrees.
 IExCor=  419 DFT=T Ex+Corr=B2PLYPD3 ExCW=0 ScaHFX=  0.530000
 ScaDFX=  0.470000  0.470000  0.730000  0.730000 ScalE2=  0.270000  0.270000
 IRadAn=      0 IRanWt=     -1 IRanGd=            0 ICorTp=0 IEmpDi=141
 NAtoms=    8 NActive=    8 NUniq=    8 SFac= 1.00D+00 NAtFMM=   60 NAOKFM=F Big=F
 Integral buffers will be    131072 words long.
 Regular integral format.
 Two-electron integral symmetry is turned on.
 R6Disp:  Grimme-D3(BJ) Dispersion energy=       -0.0035707101 Hartrees.
 Nuclear repulsion after empirical dispersion term =      102.5658342237 Hartrees.
 Leave Link  301 at Wed Aug 26 08:33:22 2020, MaxMem=  2097152000 cpu:         0.4
 (Enter /opt/cluster/programs/g09/g09_d.01/g09/l302.exe)
 NPDir=0 NMtPBC=     1 NCelOv=     1 NCel=       1 NClECP=     1 NCelD=      1
         NCelK=      1 NCelE2=     1 NClLst=     1 CellRange=     0.0.
 One-electron integrals computed using PRISM.
   1 Symmetry operations used in ECPInt.
 ECPInt:  NShTT=    5886 NPrTT=   14376 LenC2=    5780 LenP2D=   12165.
 LDataN:  DoStor=T MaxTD1= 8 Len=  415
 NBasis=   348 RedAO= T EigKep=  6.27D-05  NBF=   348
 NBsUse=   348 1.00D-06 EigRej= -1.00D+00 NBFU=   348
 Precomputing XC quadrature grid using
 IXCGrd= 4 IRadAn=           0 IRanWt=          -1 IRanGd=           0 AccXCQ= 0.00D+00.
 Generated NRdTot=       0 NPtTot=           0 NUsed=           0 NTot=          32
 NSgBfM=   428   428   428   428   428 MxSgAt=     8 MxSgA2=     8.
 Leave Link  302 at Wed Aug 26 08:33:23 2020, MaxMem=  2097152000 cpu:         2.4
 (Enter /opt/cluster/programs/g09/g09_d.01/g09/l303.exe)
 DipDrv:  MaxL=1.
 Leave Link  303 at Wed Aug 26 08:33:23 2020, MaxMem=  2097152000 cpu:         0.3
 (Enter /opt/cluster/programs/g09/g09_d.01/g09/l401.exe)
 ExpMin= 7.60D-02 ExpMax= 1.17D+05 ExpMxC= 1.13D+03 IAcc=2 IRadAn=         4 AccDes= 0.00D+00
 Harris functional with IExCor=  419 and IRadAn=       4 diagonalized for initial guess.
 HarFok:  IExCor=  419 AccDes= 0.00D+00 IRadAn=         4 IDoV= 1 UseB2=F ITyADJ=14
 ICtDFT=  3500011 ScaDFX=  1.000000  1.000000  1.000000  1.000000
 FoFCou: FMM=F IPFlag=           0 FMFlag=      100000 FMFlg1=           0
         NFxFlg=           0 DoJE=T BraDBF=F KetDBF=T FulRan=T
         wScrn=  0.000000 ICntrl=     500 IOpCl=  0 I1Cent=   200000004 NGrid=           0
         NMat0=    1 NMatS0=      1 NMatT0=    0 NMatD0=    1 NMtDS0=    0 NMtDT0=    0
 Petite list used in FoFCou.
 Harris En= -192.039509715435    
 JPrj=0 DoOrth=F DoCkMO=F.
 Leave Link  401 at Wed Aug 26 08:33:23 2020, MaxMem=  2097152000 cpu:         5.6
 (Enter /opt/cluster/programs/g09/g09_d.01/g09/l502.exe)
 Closed shell SCF:
 Using DIIS extrapolation, IDIIS=  1040.
 Integral symmetry usage will be decided dynamically.
 Keep R1 ints in memory in canonical form, NReq=1883905047.
 IVT=      574566 IEndB=      574566 NGot=  2097152000 MDV=   252723534
 LenX=   252723534 LenY=   252539909
 Requested convergence on RMS density matrix=1.00D-08 within 128 cycles.
 Requested convergence on MAX density matrix=1.00D-06.
 Requested convergence on             energy=1.00D-06.
 No special actions if energy rises.
 FoFCou: FMM=F IPFlag=           0 FMFlag=           0 FMFlg1=           0
         NFxFlg=           0 DoJE=F BraDBF=F KetDBF=F FulRan=T
         wScrn=  0.000000 ICntrl=     600 IOpCl=  0 I1Cent=           0 NGrid=           0
         NMat0=    1 NMatS0=  60726 NMatT0=    0 NMatD0=    1 NMtDS0=    0 NMtDT0=    0
 Symmetry not used in FoFCou.
 Integral accuracy reduced to 1.0D-05 until final iterations.

 Cycle   1  Pass 0  IDiag  1:
 E= -191.471793566408    
 DIIS: error= 2.69D-02 at cycle   1 NSaved=   1.
 NSaved= 1 IEnMin= 1 EnMin= -191.471793566408     IErMin= 1 ErrMin= 2.69D-02
 ErrMax= 2.69D-02  0.00D+00 EMaxC= 1.00D-01 BMatC= 2.54D-01 BMatP= 2.54D-01
 IDIUse=3 WtCom= 7.31D-01 WtEn= 2.69D-01
 Coeff-Com:  0.100D+01
 Coeff-En:   0.100D+01
 Coeff:      0.100D+01
 Gap=     0.285 Goal=   None    Shift=    0.000
 GapD=    0.285 DampG=1.000 DampE=0.500 DampFc=0.5000 IDamp=-1.
 Damping current iteration by 5.00D-01
 RMSDP=1.75D-03 MaxDP=2.14D-01              OVMax= 1.75D-01

 Cycle   2  Pass 0  IDiag  1:
 E= -191.538559365587     Delta-E=       -0.066765799179 Rises=F Damp=T
 DIIS: error= 1.12D-02 at cycle   2 NSaved=   2.
 NSaved= 2 IEnMin= 2 EnMin= -191.538559365587     IErMin= 2 ErrMin= 1.12D-02
 ErrMax= 1.12D-02  0.00D+00 EMaxC= 1.00D-01 BMatC= 3.40D-02 BMatP= 2.54D-01
 IDIUse=3 WtCom= 8.88D-01 WtEn= 1.12D-01
 Coeff-Com: -0.128D+00 0.113D+01
 Coeff-En:   0.000D+00 0.100D+01
 Coeff:     -0.113D+00 0.111D+01
 Gap=     0.353 Goal=   None    Shift=    0.000
 RMSDP=6.09D-04 MaxDP=7.53D-02 DE=-6.68D-02 OVMax= 1.42D-01

 Cycle   3  Pass 0  IDiag  1:
 E= -191.599211474108     Delta-E=       -0.060652108522 Rises=F Damp=F
 DIIS: error= 1.15D-02 at cycle   3 NSaved=   3.
 NSaved= 3 IEnMin= 3 EnMin= -191.599211474108     IErMin= 2 ErrMin= 1.12D-02
 ErrMax= 1.15D-02  0.00D+00 EMaxC= 1.00D-01 BMatC= 1.85D-02 BMatP= 3.40D-02
 IDIUse=3 WtCom= 8.85D-01 WtEn= 1.15D-01
 Coeff-Com: -0.188D+00 0.523D+00 0.665D+00
 Coeff-En:   0.000D+00 0.000D+00 0.100D+01
 Coeff:     -0.166D+00 0.463D+00 0.703D+00
 Gap=     0.331 Goal=   None    Shift=    0.000
 RMSDP=2.52D-04 MaxDP=1.79D-02 DE=-6.07D-02 OVMax= 5.05D-02

 Cycle   4  Pass 0  IDiag  1:
 E= -191.609530341276     Delta-E=       -0.010318867168 Rises=F Damp=F
 DIIS: error= 4.86D-03 at cycle   4 NSaved=   4.
 NSaved= 4 IEnMin= 4 EnMin= -191.609530341276     IErMin= 4 ErrMin= 4.86D-03
 ErrMax= 4.86D-03  0.00D+00 EMaxC= 1.00D-01 BMatC= 3.43D-03 BMatP= 1.85D-02
 IDIUse=3 WtCom= 9.51D-01 WtEn= 4.86D-02
 Coeff-Com: -0.586D-01 0.953D-01 0.365D+00 0.598D+00
 Coeff-En:   0.000D+00 0.000D+00 0.171D+00 0.829D+00
 Coeff:     -0.557D-01 0.907D-01 0.356D+00 0.609D+00
 Gap=     0.320 Goal=   None    Shift=    0.000
 RMSDP=1.01D-04 MaxDP=8.00D-03 DE=-1.03D-02 OVMax= 1.54D-02

 Cycle   5  Pass 0  IDiag  1:
 E= -191.612308837960     Delta-E=       -0.002778496684 Rises=F Damp=F
 DIIS: error= 3.34D-04 at cycle   5 NSaved=   5.
 NSaved= 5 IEnMin= 5 EnMin= -191.612308837960     IErMin= 5 ErrMin= 3.34D-04
 ErrMax= 3.34D-04  0.00D+00 EMaxC= 1.00D-01 BMatC= 1.26D-05 BMatP= 3.43D-03
 IDIUse=3 WtCom= 9.97D-01 WtEn= 3.34D-03
 Coeff-Com: -0.668D-02 0.771D-02 0.491D-01 0.119D+00 0.831D+00
 Coeff-En:   0.000D+00 0.000D+00 0.000D+00 0.000D+00 0.100D+01
 Coeff:     -0.665D-02 0.768D-02 0.490D-01 0.118D+00 0.832D+00
 Gap=     0.318 Goal=   None    Shift=    0.000
 RMSDP=9.02D-06 MaxDP=5.91D-04 DE=-2.78D-03 OVMax= 2.37D-03

 Initial convergence to 1.0D-05 achieved.  Increase integral accuracy.
 Cycle   6  Pass 1  IDiag  1:
 E= -191.612315074189     Delta-E=       -0.000006236229 Rises=F Damp=F
 DIIS: error= 1.09D-04 at cycle   1 NSaved=   1.
 NSaved= 1 IEnMin= 1 EnMin= -191.612315074189     IErMin= 1 ErrMin= 1.09D-04
 ErrMax= 1.09D-04  0.00D+00 EMaxC= 1.00D-01 BMatC= 1.77D-06 BMatP= 1.77D-06
 IDIUse=3 WtCom= 9.99D-01 WtEn= 1.09D-03
 Coeff-Com:  0.100D+01
 Coeff-En:   0.100D+01
 Coeff:      0.100D+01
 Gap=     0.319 Goal=   None    Shift=    0.000
 RMSDP=9.02D-06 MaxDP=5.91D-04 DE=-6.24D-06 OVMax= 8.13D-04

 Cycle   7  Pass 1  IDiag  1:
 E= -191.612316433507     Delta-E=       -0.000001359318 Rises=F Damp=F
 DIIS: error= 7.27D-05 at cycle   2 NSaved=   2.
 NSaved= 2 IEnMin= 2 EnMin= -191.612316433507     IErMin= 2 ErrMin= 7.27D-05
 ErrMax= 7.27D-05  0.00D+00 EMaxC= 1.00D-01 BMatC= 1.01D-06 BMatP= 1.77D-06
 IDIUse=1 WtCom= 1.00D+00 WtEn= 0.00D+00
 Coeff-Com:  0.423D+00 0.577D+00
 Coeff:      0.423D+00 0.577D+00
 Gap=     0.319 Goal=   None    Shift=    0.000
 RMSDP=1.79D-06 MaxDP=1.17D-04 DE=-1.36D-06 OVMax= 4.83D-04

 Cycle   8  Pass 1  IDiag  1:
 E= -191.612317361659     Delta-E=       -0.000000928152 Rises=F Damp=F
 DIIS: error= 1.56D-05 at cycle   3 NSaved=   3.
 NSaved= 3 IEnMin= 3 EnMin= -191.612317361659     IErMin= 3 ErrMin= 1.56D-05
 ErrMax= 1.56D-05  0.00D+00 EMaxC= 1.00D-01 BMatC= 7.67D-08 BMatP= 1.01D-06
 IDIUse=1 WtCom= 1.00D+00 WtEn= 0.00D+00
 Coeff-Com:  0.582D-01 0.187D+00 0.755D+00
 Coeff:      0.582D-01 0.187D+00 0.755D+00
 Gap=     0.319 Goal=   None    Shift=    0.000
 RMSDP=1.40D-06 MaxDP=1.53D-04 DE=-9.28D-07 OVMax= 1.28D-04

 Cycle   9  Pass 1  IDiag  1:
 E= -191.612317434543     Delta-E=       -0.000000072884 Rises=F Damp=F
 DIIS: error= 1.84D-05 at cycle   4 NSaved=   4.
 NSaved= 4 IEnMin= 4 EnMin= -191.612317434543     IErMin= 3 ErrMin= 1.56D-05
 ErrMax= 1.84D-05  0.00D+00 EMaxC= 1.00D-01 BMatC= 2.21D-08 BMatP= 7.67D-08
 IDIUse=1 WtCom= 1.00D+00 WtEn= 0.00D+00
 Coeff-Com: -0.119D+00-0.925D-01 0.417D+00 0.795D+00
 Coeff:     -0.119D+00-0.925D-01 0.417D+00 0.795D+00
 Gap=     0.319 Goal=   None    Shift=    0.000
 RMSDP=7.07D-07 MaxDP=7.06D-05 DE=-7.29D-08 OVMax= 1.25D-04

 Cycle  10  Pass 1  IDiag  1:
 E= -191.612317467624     Delta-E=       -0.000000033081 Rises=F Damp=F
 DIIS: error= 2.04D-06 at cycle   5 NSaved=   5.
 NSaved= 5 IEnMin= 5 EnMin= -191.612317467624     IErMin= 5 ErrMin= 2.04D-06
 ErrMax= 2.04D-06  0.00D+00 EMaxC= 1.00D-01 BMatC= 1.53D-09 BMatP= 2.21D-08
 IDIUse=1 WtCom= 1.00D+00 WtEn= 0.00D+00
 Coeff-Com: -0.375D-01-0.361D-01 0.619D-01 0.285D+00 0.726D+00
 Coeff:     -0.375D-01-0.361D-01 0.619D-01 0.285D+00 0.726D+00
 Gap=     0.319 Goal=   None    Shift=    0.000
 RMSDP=1.40D-07 MaxDP=1.46D-05 DE=-3.31D-08 OVMax= 2.21D-05

 Cycle  11  Pass 1  IDiag  1:
 E= -191.612317468920     Delta-E=       -0.000000001296 Rises=F Damp=F
 DIIS: error= 1.02D-06 at cycle   6 NSaved=   6.
 NSaved= 6 IEnMin= 6 EnMin= -191.612317468920     IErMin= 6 ErrMin= 1.02D-06
 ErrMax= 1.02D-06  0.00D+00 EMaxC= 1.00D-01 BMatC= 2.44D-10 BMatP= 1.53D-09
 IDIUse=1 WtCom= 1.00D+00 WtEn= 0.00D+00
 Coeff-Com:  0.807D-02 0.285D-02-0.694D-01-0.135D-01 0.282D+00 0.790D+00
 Coeff:      0.807D-02 0.285D-02-0.694D-01-0.135D-01 0.282D+00 0.790D+00
 Gap=     0.319 Goal=   None    Shift=    0.000
 RMSDP=5.93D-08 MaxDP=6.03D-06 DE=-1.30D-09 OVMax= 5.99D-06

 Cycle  12  Pass 1  IDiag  1:
 E= -191.612317469191     Delta-E=       -0.000000000271 Rises=F Damp=F
 DIIS: error= 3.70D-07 at cycle   7 NSaved=   7.
 NSaved= 7 IEnMin= 7 EnMin= -191.612317469191     IErMin= 7 ErrMin= 3.70D-07
 ErrMax= 3.70D-07  0.00D+00 EMaxC= 1.00D-01 BMatC= 1.91D-11 BMatP= 2.44D-10
 IDIUse=1 WtCom= 1.00D+00 WtEn= 0.00D+00
 Coeff-Com:  0.619D-02 0.401D-02-0.343D-01-0.230D-01 0.534D-01 0.308D+00
 Coeff-Com:  0.685D+00
 Coeff:      0.619D-02 0.401D-02-0.343D-01-0.230D-01 0.534D-01 0.308D+00
 Coeff:      0.685D+00
 Gap=     0.319 Goal=   None    Shift=    0.000
 RMSDP=9.97D-09 MaxDP=4.75D-07 DE=-2.71D-10 OVMax= 2.48D-06

 SCF Done:  E(RB2PLYPD3) =  -191.612317469     A.U. after   12 cycles
            NFock= 12  Conv=0.10D-07     -V/T= 2.0042
 KE= 1.908035827510D+02 PE=-6.530411282139D+02 EE= 1.680593937700D+02
 Leave Link  502 at Wed Aug 26 08:34:31 2020, MaxMem=  2097152000 cpu:       305.8
 (Enter /opt/cluster/programs/g09/g09_d.01/g09/l801.exe)
 DoSCS=T DFT=T ScalE2(SS,OS)=  0.270000  0.270000
 ExpMin= 7.60D-02 ExpMax= 1.17D+05 ExpMxC= 1.13D+03 IAcc=3 IRadAn=         5 AccDes= 0.00D+00
 HarFok:  IExCor=  205 AccDes= 0.00D+00 IRadAn=         5 IDoV=-2 UseB2=F ITyADJ=14
 ICtDFT= 12500011 ScaDFX=  1.000000  1.000000  1.000000  1.000000
 Largest valence mixing into a core orbital is  1.18D-04
 Largest core mixing into a valence orbital is  1.93D-05
 Range of M.O.s used for correlation:     5   348
 NBasis=   348 NAE=    15 NBE=    15 NFC=     4 NFV=     0
 NROrb=    344 NOA=    11 NOB=    11 NVA=   333 NVB=   333

 **** Warning!!: The largest alpha MO coefficient is  0.28391002D+02

 Leave Link  801 at Wed Aug 26 08:34:32 2020, MaxMem=  2097152000 cpu:         0.8
 (Enter /opt/cluster/programs/g09/g09_d.01/g09/l906.exe)
 DoSCS=T DFT=T ScalE2(SS,OS)=  0.270000  0.270000
 FulOut=F Deriv=F AODrv=F NAtomX=     8
   MMem=        1190  MDisk=          11 MDiskD=          11
  W3Min=     1567764 MinDsk=     2827057 NBas6D=         428
 NBas2D=       93150    NTT=       91806    LW2=     4508827
    MDV=  2096571732 MDiskM=       10875 NBas2p=       89368
 Fully direct method using O(OVN) memory.
 IMap=   1   2   3   4   5   6   7   8   9  10  11
 JobTyp=1 Pass  1:  I=   1 to  11 NPSUse=  8 ParTrn=T ParDer=T DoDerP=F.
 Spin components of T(2) and E(2):
     alpha-alpha T2 =       0.4452994426D-01 E2=     -0.2962853618D-01
     alpha-beta  T2 =       0.2722551797D+00 E2=     -0.1892181438D+00
     beta-beta   T2 =       0.4452994426D-01 E2=     -0.2962853618D-01
 The integrals were generated   1 times.
 E2(B2PLYPD3) =    -0.2484752162D+00 E(B2PLYPD3) =    -0.19186079268535D+03
 Leave Link  906 at Wed Aug 26 08:35:25 2020, MaxMem=  2097152000 cpu:       417.8
 (Enter /opt/cluster/programs/g09/g09_d.01/g09/l601.exe)
 Copying SCF densities to generalized density rwf, IOpCl= 0 IROHF=0.

 **********************************************************************

            Population analysis using the SCF density.

 **********************************************************************

 Orbital symmetries:
       Occupied  (A) (A) (A) (A) (A) (A) (A) (A) (A) (A) (A) (A)
                 (A) (A) (A)
       Virtual   (A) (A) (A) (A) (A) (A) (A) (A) (A) (A) (A) (A)
                 (A) (A) (A) (A) (A) (A) (A) (A) (A) (A) (A) (A)
                 (A) (A) (A) (A) (A) (A) (A) (A) (A) (A) (A) (A)
                 (A) (A) (A) (A) (A) (A) (A) (A) (A) (A) (A) (A)
                 (A) (A) (A) (A) (A) (A) (A) (A) (A) (A) (A) (A)
                 (A) (A) (A) (A) (A) (A) (A) (A) (A) (A) (A) (A)
                 (A) (A) (A) (A) (A) (A) (A) (A) (A) (A) (A) (A)
                 (A) (A) (A) (A) (A) (A) (A) (A) (A) (A) (A) (A)
                 (A) (A) (A) (A) (A) (A) (A) (A) (A) (A) (A) (A)
                 (A) (A) (A) (A) (A) (A) (A) (A) (A) (A) (A) (A)
                 (A) (A) (A) (A) (A) (A) (A) (A) (A) (A) (A) (A)
                 (A) (A) (A) (A) (A) (A) (A) (A) (A) (A) (A) (A)
                 (A) (A) (A) (A) (A) (A) (A) (A) (A) (A) (A) (A)
                 (A) (A) (A) (A) (A) (A) (A) (A) (A) (A) (A) (A)
                 (A) (A) (A) (A) (A) (A) (A) (A) (A) (A) (A) (A)
                 (A) (A) (A) (A) (A) (A) (A) (A) (A) (A) (A) (A)
                 (A) (A) (A) (A) (A) (A) (A) (A) (A) (A) (A) (A)
                 (A) (A) (A) (A) (A) (A) (A) (A) (A) (A) (A) (A)
                 (A) (A) (A) (A) (A) (A) (A) (A) (A) (A) (A) (A)
                 (A) (A) (A) (A) (A) (A) (A) (A) (A) (A) (A) (A)
                 (A) (A) (A) (A) (A) (A) (A) (A) (A) (A) (A) (A)
                 (A) (A) (A) (A) (A) (A) (A) (A) (A) (A) (A) (A)
                 (A) (A) (A) (A) (A) (A) (A) (A) (A) (A) (A) (A)
                 (A) (A) (A) (A) (A) (A) (A) (A) (A) (A) (A) (A)
                 (A) (A) (A) (A) (A) (A) (A) (A) (A) (A) (A) (A)
                 (A) (A) (A) (A) (A) (A) (A) (A) (A) (A) (A) (A)
                 (A) (A) (A) (A) (A) (A) (A) (A) (A) (A) (A) (A)
                 (A) (A) (A) (A) (A) (A) (A) (A) (A)
 The electronic state is 1-A.
 Alpha  occ. eigenvalues --  -19.73013 -10.72351 -10.65883 -10.64721  -1.18998
 Alpha  occ. eigenvalues --   -0.92625  -0.75144  -0.66491  -0.56488  -0.55765
 Alpha  occ. eigenvalues --   -0.50333  -0.46535  -0.46492  -0.34568  -0.33885
 Alpha virt. eigenvalues --   -0.01968   0.05625   0.07090   0.07804   0.09742
 Alpha virt. eigenvalues --    0.12282   0.13824   0.15307   0.17402   0.19807
 Alpha virt. eigenvalues --    0.19997   0.21494   0.24902   0.26503   0.28603
 Alpha virt. eigenvalues --    0.31468   0.32623   0.35225   0.36842   0.37718
 Alpha virt. eigenvalues --    0.39031   0.40583   0.42615   0.43985   0.46459
 Alpha virt. eigenvalues --    0.47641   0.49218   0.53793   0.54520   0.55985
 Alpha virt. eigenvalues --    0.58590   0.64241   0.66028   0.67279   0.70649
 Alpha virt. eigenvalues --    0.74310   0.76511   0.77315   0.79569   0.80528
 Alpha virt. eigenvalues --    0.81573   0.82303   0.82424   0.84348   0.86443
 Alpha virt. eigenvalues --    0.87448   0.91230   0.92642   0.93482   0.95616
 Alpha virt. eigenvalues --    0.96737   0.96791   1.00251   1.02348   1.06891
 Alpha virt. eigenvalues --    1.09760   1.11475   1.13674   1.16335   1.18209
 Alpha virt. eigenvalues --    1.20359   1.26009   1.27710   1.31838   1.38805
 Alpha virt. eigenvalues --    1.40761   1.46967   1.48357   1.54056   1.56163
 Alpha virt. eigenvalues --    1.57394   1.60135   1.63471   1.68585   1.70904
 Alpha virt. eigenvalues --    1.73636   1.76503   1.78993   1.82559   1.83531
 Alpha virt. eigenvalues --    1.86237   1.90846   1.91199   1.93649   1.95177
 Alpha virt. eigenvalues --    1.95593   1.97701   2.00059   2.01308   2.03485
 Alpha virt. eigenvalues --    2.05688   2.10182   2.11280   2.12599   2.14042
 Alpha virt. eigenvalues --    2.17244   2.17374   2.20764   2.22561   2.25247
 Alpha virt. eigenvalues --    2.29417   2.34395   2.35137   2.39618   2.41196
 Alpha virt. eigenvalues --    2.44114   2.46129   2.47528   2.49057   2.52566
 Alpha virt. eigenvalues --    2.54170   2.57119   2.57865   2.60138   2.64009
 Alpha virt. eigenvalues --    2.64883   2.66178   2.68222   2.68787   2.73360
 Alpha virt. eigenvalues --    2.75404   2.77514   2.83085   2.85298   2.86198
 Alpha virt. eigenvalues --    2.87686   2.94244   2.95139   3.01009   3.04456
 Alpha virt. eigenvalues --    3.14563   3.15471   3.24594   3.26587   3.30423
 Alpha virt. eigenvalues --    3.33317   3.38268   3.40567   3.42328   3.45637
 Alpha virt. eigenvalues --    3.47820   3.50370   3.57840   3.59665   3.63201
 Alpha virt. eigenvalues --    3.64580   3.69930   3.73536   3.79488   3.85877
 Alpha virt. eigenvalues --    3.89482   3.96870   3.99475   4.02617   4.05767
 Alpha virt. eigenvalues --    4.06502   4.17071   4.17923   4.24410   4.31821
 Alpha virt. eigenvalues --    4.40661   4.44941   4.51790   4.61151   4.62653
 Alpha virt. eigenvalues --    4.64816   4.81487   4.88355   4.90203   4.98931
 Alpha virt. eigenvalues --    5.00579   5.02775   5.07563   5.10038   5.13569
 Alpha virt. eigenvalues --    5.21126   5.25493   5.28925   5.32380   5.42894
 Alpha virt. eigenvalues --    5.43887   5.52502   5.57166   5.58416   5.60356
 Alpha virt. eigenvalues --    5.64340   5.67241   5.69579   5.74932   5.77522
 Alpha virt. eigenvalues --    5.79806   5.84328   5.86519   5.88871   5.91460
 Alpha virt. eigenvalues --    5.93765   5.95601   5.99878   6.03484   6.05779
 Alpha virt. eigenvalues --    6.08782   6.12080   6.14784   6.15930   6.16822
 Alpha virt. eigenvalues --    6.20328   6.21730   6.23686   6.27336   6.28696
 Alpha virt. eigenvalues --    6.29147   6.33538   6.34997   6.37216   6.41963
 Alpha virt. eigenvalues --    6.43933   6.45086   6.49567   6.51187   6.56175
 Alpha virt. eigenvalues --    6.59394   6.62156   6.64556   6.71529   6.74689
 Alpha virt. eigenvalues --    6.80023   6.82690   6.89491   6.92807   6.97533
 Alpha virt. eigenvalues --    7.02184   7.06690   7.07468   7.14863   7.19867
 Alpha virt. eigenvalues --    7.25709   7.39412   7.41958   7.44647   7.47988
 Alpha virt. eigenvalues --    7.51684   7.55295   7.57572   7.59324   7.63465
 Alpha virt. eigenvalues --    7.66494   7.68996   7.69263   7.72054   7.76299
 Alpha virt. eigenvalues --    7.80529   7.85161   7.87413   7.95926   8.01991
 Alpha virt. eigenvalues --    8.05093   8.07079   8.13973   8.16886   8.20529
 Alpha virt. eigenvalues --    8.20960   8.24103   8.28060   8.28676   8.31943
 Alpha virt. eigenvalues --    8.32890   8.36030   8.40818   8.44622   8.48263
 Alpha virt. eigenvalues --    8.54359   8.56429   8.61234   8.63124   8.69630
 Alpha virt. eigenvalues --    8.77772   8.80045   8.87746   8.93542   9.01618
 Alpha virt. eigenvalues --    9.06676   9.08235   9.12316   9.20418   9.24772
 Alpha virt. eigenvalues --    9.27862   9.32991   9.55020   9.62474   9.65667
 Alpha virt. eigenvalues --    9.69042   9.72185   9.78360   9.84119   9.88004
 Alpha virt. eigenvalues --    9.97100  10.04717  10.15728  10.18070  10.20042
 Alpha virt. eigenvalues --   10.23377  10.26995  10.49291  10.63284  10.90804
 Alpha virt. eigenvalues --   10.95959  11.19710  11.24527  11.27341  11.39682
 Alpha virt. eigenvalues --   11.64735  11.74422  11.91774  12.03277  12.05034
 Alpha virt. eigenvalues --   12.28953  12.34182  12.36635  12.49532  12.93832
 Alpha virt. eigenvalues --   13.00203  13.31684  13.68647  14.35167  14.60941
 Alpha virt. eigenvalues --   28.54733  28.78978  29.48454  48.62081 148.12796
 Alpha virt. eigenvalues --  148.33742 149.07540 254.37744
          Condensed to atoms (all electrons):
               1          2          3          4          5          6
     1  C    4.510748   0.608852   0.374219  -0.056057  -0.032738  -0.004588
     2  O    0.608852   7.890728  -0.092020   0.007373   0.005697   0.000391
     3  C    0.374219  -0.092020   5.142149   0.479313   0.370969  -0.047912
     4  C   -0.056057   0.007373   0.479313   4.876023  -0.036620   0.421085
     5  H   -0.032738   0.005697   0.370969  -0.036620   0.572531   0.005324
     6  H   -0.004588   0.000391  -0.047912   0.421085   0.005324   0.579322
     7  H    0.002778  -0.000551  -0.029351   0.410782  -0.005091  -0.044086
     8  H    0.435907  -0.068827  -0.151072   0.023648   0.007660   0.005759
               7          8
     1  C    0.002778   0.435907
     2  O   -0.000551  -0.068827
     3  C   -0.029351  -0.151072
     4  C    0.410782   0.023648
     5  H   -0.005091   0.007660
     6  H   -0.044086   0.005759
     7  H    0.569369  -0.000736
     8  H   -0.000736   0.678912
 Mulliken charges:
               1
     1  C    0.160878
     2  O   -0.351644
     3  C   -0.046296
     4  C   -0.125547
     5  H    0.112268
     6  H    0.084704
     7  H    0.096886
     8  H    0.068750
 Sum of Mulliken charges =   0.00000
 Mulliken charges with hydrogens summed into heavy atoms:
               1
     1  C    0.229627
     2  O   -0.351644
     3  C    0.065973
     4  C    0.056044
 Electronic spatial extent (au):  <R**2>=            300.4678
 Charge=              0.0000 electrons
 Dipole moment (field-independent basis, Debye):
    X=             -3.4919    Y=              0.8112    Z=              0.0396  Tot=              3.5851
 Quadrupole moment (field-independent basis, Debye-Ang):
   XX=            -27.3514   YY=            -21.7857   ZZ=            -25.3525
   XY=              0.8480   XZ=              0.2237   YZ=              0.1218
 Traceless Quadrupole moment (field-independent basis, Debye-Ang):
   XX=             -2.5215   YY=              3.0441   ZZ=             -0.5226
   XY=              0.8480   XZ=              0.2237   YZ=              0.1218
 Octapole moment (field-independent basis, Debye-Ang**2):
  XXX=            -15.7578  YYY=             -0.0718  ZZZ=             -0.1473  XYY=              0.3959
  XXY=              0.9843  XXZ=             -0.0674  XZZ=              4.3361  YZZ=              0.0896
  YYZ=             -0.1101  XYZ=             -0.2145
 Hexadecapole moment (field-independent basis, Debye-Ang**3):
 XXXX=           -302.7807 YYYY=            -56.6252 ZZZZ=            -27.7537 XXXY=              2.1033
 XXXZ=              1.0522 YYYX=             -0.7602 YYYZ=              0.2889 ZZZX=             -0.0493
 ZZZY=              0.1538 XXYY=            -58.9149 XXZZ=            -57.9838 YYZZ=            -15.8896
 XXYZ=              0.5488 YYXZ=             -0.1483 ZZXY=             -0.5293
 N-N= 1.025658342237D+02 E-N=-6.530410929110D+02  KE= 1.908035827510D+02
 Leave Link  601 at Wed Aug 26 08:35:26 2020, MaxMem=  2097152000 cpu:         0.7
 (Enter /opt/cluster/programs/g09/g09_d.01/g09/l9999.exe)
 1\1\GINC-NODE29\SP\RB2PLYPD3-FC\def2QZVP\C3H4O1\BOITTIER\26-Aug-2020\0
 \\#p B2PLYPD3/Def2QZVP\\acrolein\\0,1\C,0,-5.014319,-1.362623,0.919841
 \O,0,-3.92659,-0.884297,0.633908\C,0,-5.187483,-2.802315,1.187035\C,0,
 -6.406036,-3.327082,1.368905\H,0,-4.291506,-3.402777,1.083582\H,0,-7.2
 87718,-2.71616,1.48029\H,0,-6.595631,-4.412944,1.522229\H,0,-5.982814,
 -0.732081,0.920152\\Version=ES64L-G09RevD.01\State=1-A\HF=-191.6123175
 \MP2=-191.8607927\RMSD=9.967e-09\PG=C01 [X(C3H4O1)]\\@


 The arm of the moral universe is long, but it bends toward justice.
 -- Martin Luther King, Jr.
 Job cpu time:       0 days  0 hours 12 minutes 16.3 seconds.
 File lengths (MBytes):  RWF=     49 Int=      0 D2E=      0 Chk=      7 Scr=      1
 Normal termination of Gaussian 09 at Wed Aug 26 08:35:28 2020.
