 Entering Gaussian System, Link 0=/opt/cluster/programs/g09/g09_d.01/g09//g09
 Input=/home/boittier/MDCM/nms_sampling/acrolein_geom.xyz.dir/energies/acrolein_1396_energy.com
 Output=/scratch/boittier/acrolein_1396_energy/acrolein_1396_energy.out
 Initial command:
 /opt/cluster/programs/g09/g09_d.01/g09/l1.exe "/scratch/boittier/acrolein_1396_energy/Gau-234981.inp" -scrdir="/scratch/boittier/acrolein_1396_energy/"
 Entering Link 1 = /opt/cluster/programs/g09/g09_d.01/g09/l1.exe PID=    234982.
  
 Copyright (c) 1988,1990,1992,1993,1995,1998,2003,2009,2013,
            Gaussian, Inc.  All Rights Reserved.
  
 This is part of the Gaussian(R) 09 program.  It is based on
 the Gaussian(R) 03 system (copyright 2003, Gaussian, Inc.),
 the Gaussian(R) 98 system (copyright 1998, Gaussian, Inc.),
 the Gaussian(R) 94 system (copyright 1995, Gaussian, Inc.),
 the Gaussian 92(TM) system (copyright 1992, Gaussian, Inc.),
 the Gaussian 90(TM) system (copyright 1990, Gaussian, Inc.),
 the Gaussian 88(TM) system (copyright 1988, Gaussian, Inc.),
 the Gaussian 86(TM) system (copyright 1986, Carnegie Mellon
 University), and the Gaussian 82(TM) system (copyright 1983,
 Carnegie Mellon University). Gaussian is a federally registered
 trademark of Gaussian, Inc.
  
 This software contains proprietary and confidential information,
 including trade secrets, belonging to Gaussian, Inc.
  
 This software is provided under written license and may be
 used, copied, transmitted, or stored only in accord with that
 written license.
  
 The following legend is applicable only to US Government
 contracts under FAR:
  
                    RESTRICTED RIGHTS LEGEND
  
 Use, reproduction and disclosure by the US Government is
 subject to restrictions as set forth in subparagraphs (a)
 and (c) of the Commercial Computer Software - Restricted
 Rights clause in FAR 52.227-19.
  
 Gaussian, Inc.
 340 Quinnipiac St., Bldg. 40, Wallingford CT 06492
  
  
 ---------------------------------------------------------------
 Warning -- This program may not be used in any manner that
 competes with the business of Gaussian, Inc. or will provide
 assistance to any competitor of Gaussian, Inc.  The licensee
 of this program is prohibited from giving any competitor of
 Gaussian, Inc. access to this program.  By using this program,
 the user acknowledges that Gaussian, Inc. is engaged in the
 business of creating and licensing software in the field of
 computational chemistry and represents and warrants to the
 licensee that it is not a competitor of Gaussian, Inc. and that
 it will not use this program in any manner prohibited above.
 ---------------------------------------------------------------
  

 Cite this work as:
 Gaussian 09, Revision D.01,
 M. J. Frisch, G. W. Trucks, H. B. Schlegel, G. E. Scuseria, 
 M. A. Robb, J. R. Cheeseman, G. Scalmani, V. Barone, B. Mennucci, 
 G. A. Petersson, H. Nakatsuji, M. Caricato, X. Li, H. P. Hratchian, 
 A. F. Izmaylov, J. Bloino, G. Zheng, J. L. Sonnenberg, M. Hada, 
 M. Ehara, K. Toyota, R. Fukuda, J. Hasegawa, M. Ishida, T. Nakajima, 
 Y. Honda, O. Kitao, H. Nakai, T. Vreven, J. A. Montgomery, Jr., 
 J. E. Peralta, F. Ogliaro, M. Bearpark, J. J. Heyd, E. Brothers, 
 K. N. Kudin, V. N. Staroverov, T. Keith, R. Kobayashi, J. Normand, 
 K. Raghavachari, A. Rendell, J. C. Burant, S. S. Iyengar, J. Tomasi, 
 M. Cossi, N. Rega, J. M. Millam, M. Klene, J. E. Knox, J. B. Cross, 
 V. Bakken, C. Adamo, J. Jaramillo, R. Gomperts, R. E. Stratmann, 
 O. Yazyev, A. J. Austin, R. Cammi, C. Pomelli, J. W. Ochterski, 
 R. L. Martin, K. Morokuma, V. G. Zakrzewski, G. A. Voth, 
 P. Salvador, J. J. Dannenberg, S. Dapprich, A. D. Daniels, 
 O. Farkas, J. B. Foresman, J. V. Ortiz, J. Cioslowski, 
 and D. J. Fox, Gaussian, Inc., Wallingford CT, 2013.
 
 ******************************************
 Gaussian 09:  ES64L-G09RevD.01 24-Apr-2013
                26-Aug-2020 
 ******************************************
 %chk=/home/boittier/MDCM/nms_sampling/acrolein_geom.xyz.dir/acrolein_1396.chk
 %nproc=8
 Will use up to    8 processors via shared memory.
 %mem=16000MB
 --------------------
 #p B2PLYPD3/Def2QZVP
 --------------------
 1/38=1/1;
 2/12=2,17=6,18=5,40=1/2;
 3/5=45,7=101,11=9,16=1,25=1,30=1,74=-60/1,2,3;
 4//1;
 5/5=2,38=5/2;
 8/10=1/1;
 9/16=-3/6;
 6/7=2,8=2,9=2,10=2/1;
 99/5=1,9=1/99;
 Leave Link    1 at Wed Aug 26 09:08:43 2020, MaxMem=  2097152000 cpu:         0.2
 (Enter /opt/cluster/programs/g09/g09_d.01/g09/l101.exe)
 --------
 acrolein
 --------
 Symbolic Z-matrix:
 Charge =  0 Multiplicity = 1
 C                    -5.00483  -1.37037   0.85276 
 O                    -3.92235  -0.8839    0.691 
 C                    -5.1995   -2.79918   1.11877 
 C                    -6.41847  -3.31918   1.4309 
 H                    -4.2974   -3.44809   1.08227 
 H                    -7.24405  -2.66518   1.53386 
 H                    -6.5906   -4.44131   1.54761 
 H                    -5.91683  -0.74641   0.81178 
 
 NAtoms=      8 NQM=        8 NQMF=       0 NMMI=      0 NMMIF=      0
                NMic=       0 NMicF=      0.
                    Isotopes and Nuclear Properties:
 (Nuclear quadrupole moments (NQMom) in fm**2, nuclear magnetic moments (NMagM)
  in nuclear magnetons)

  Atom         1           2           3           4           5           6           7           8
 IAtWgt=          12          16          12          12           1           1           1           1
 AtmWgt=  12.0000000  15.9949146  12.0000000  12.0000000   1.0078250   1.0078250   1.0078250   1.0078250
 NucSpn=           0           0           0           0           1           1           1           1
 AtZEff=   0.0000000   0.0000000   0.0000000   0.0000000   0.0000000   0.0000000   0.0000000   0.0000000
 NQMom=    0.0000000   0.0000000   0.0000000   0.0000000   0.0000000   0.0000000   0.0000000   0.0000000
 NMagM=    0.0000000   0.0000000   0.0000000   0.0000000   2.7928460   2.7928460   2.7928460   2.7928460
 AtZNuc=   6.0000000   8.0000000   6.0000000   6.0000000   1.0000000   1.0000000   1.0000000   1.0000000
 Leave Link  101 at Wed Aug 26 09:08:43 2020, MaxMem=  2097152000 cpu:         0.5
 (Enter /opt/cluster/programs/g09/g09_d.01/g09/l202.exe)
                          Input orientation:                          
 ---------------------------------------------------------------------
 Center     Atomic      Atomic             Coordinates (Angstroms)
 Number     Number       Type             X           Y           Z
 ---------------------------------------------------------------------
      1          6           0       -5.004825   -1.370371    0.852757
      2          8           0       -3.922350   -0.883895    0.691004
      3          6           0       -5.199501   -2.799177    1.118768
      4          6           0       -6.418472   -3.319178    1.430900
      5          1           0       -4.297402   -3.448091    1.082266
      6          1           0       -7.244054   -2.665181    1.533858
      7          1           0       -6.590602   -4.441309    1.547614
      8          1           0       -5.916829   -0.746414    0.811778
 ---------------------------------------------------------------------
                    Distance matrix (angstroms):
                    1          2          3          4          5
     1  C    0.000000
     2  O    1.197737   0.000000
     3  C    1.466338   2.341453   0.000000
     4  C    2.475984   3.564923   1.361513   0.000000
     5  H    2.206817   2.620849   1.111847   2.153393   0.000000
     6  H    2.674804   3.862266   2.090563   1.058252   3.082149
     7  H    3.525362   4.528636   2.194463   1.141240   2.542006
     8  H    1.105782   2.002856   2.196051   2.693339   3.161450
                    6          7          8
     6  H    0.000000
     7  H    1.892570   0.000000
     8  H    2.442252   3.827228   0.000000
 Stoichiometry    C3H4O
 Framework group  C1[X(C3H4O)]
 Deg. of freedom    18
 Full point group                 C1      NOp   1
 Largest Abelian subgroup         C1      NOp   1
 Largest concise Abelian subgroup C1      NOp   1
                         Standard orientation:                         
 ---------------------------------------------------------------------
 Center     Atomic      Atomic             Coordinates (Angstroms)
 Number     Number       Type             X           Y           Z
 ---------------------------------------------------------------------
      1          6           0       -0.689872    0.359996    0.037139
      2          8           0       -1.778076   -0.135261   -0.034344
      3          6           0        0.543722   -0.432584    0.022710
      4          6           0        1.775850    0.144473   -0.028132
      5          1           0        0.434269   -1.539020    0.027673
      6          1           0        1.846274    1.197213   -0.109845
      7          1           0        2.737742   -0.464243    0.053457
      8          1           0       -0.571877    1.456832    0.113165
 ---------------------------------------------------------------------
 Rotational constants (GHZ):     47.6717831      4.6400651      4.2341241
 Leave Link  202 at Wed Aug 26 09:08:43 2020, MaxMem=  2097152000 cpu:         0.1
 (Enter /opt/cluster/programs/g09/g09_d.01/g09/l301.exe)
 Standard basis: def2QZVP (5D, 7F)
 Ernie: Thresh=  0.10000D-02 Tol=  0.10000D-05 Strict=F.
 There are   428 symmetry adapted cartesian basis functions of A   symmetry.
 There are   348 symmetry adapted basis functions of A   symmetry.
   348 basis functions,   520 primitive gaussians,   428 cartesian basis functions
    15 alpha electrons       15 beta electrons
       nuclear repulsion energy       102.9005292366 Hartrees.
 IExCor=  419 DFT=T Ex+Corr=B2PLYPD3 ExCW=0 ScaHFX=  0.530000
 ScaDFX=  0.470000  0.470000  0.730000  0.730000 ScalE2=  0.270000  0.270000
 IRadAn=      0 IRanWt=     -1 IRanGd=            0 ICorTp=0 IEmpDi=141
 NAtoms=    8 NActive=    8 NUniq=    8 SFac= 1.00D+00 NAtFMM=   60 NAOKFM=F Big=F
 Integral buffers will be    131072 words long.
 Regular integral format.
 Two-electron integral symmetry is turned on.
 R6Disp:  Grimme-D3(BJ) Dispersion energy=       -0.0035672310 Hartrees.
 Nuclear repulsion after empirical dispersion term =      102.8969620057 Hartrees.
 Leave Link  301 at Wed Aug 26 09:08:43 2020, MaxMem=  2097152000 cpu:         0.4
 (Enter /opt/cluster/programs/g09/g09_d.01/g09/l302.exe)
 NPDir=0 NMtPBC=     1 NCelOv=     1 NCel=       1 NClECP=     1 NCelD=      1
         NCelK=      1 NCelE2=     1 NClLst=     1 CellRange=     0.0.
 One-electron integrals computed using PRISM.
   1 Symmetry operations used in ECPInt.
 ECPInt:  NShTT=    5886 NPrTT=   14376 LenC2=    5779 LenP2D=   12159.
 LDataN:  DoStor=T MaxTD1= 8 Len=  415
 NBasis=   348 RedAO= T EigKep=  6.22D-05  NBF=   348
 NBsUse=   348 1.00D-06 EigRej= -1.00D+00 NBFU=   348
 Precomputing XC quadrature grid using
 IXCGrd= 4 IRadAn=           0 IRanWt=          -1 IRanGd=           0 AccXCQ= 0.00D+00.
 Generated NRdTot=       0 NPtTot=           0 NUsed=           0 NTot=          32
 NSgBfM=   428   428   428   428   428 MxSgAt=     8 MxSgA2=     8.
 Leave Link  302 at Wed Aug 26 09:08:44 2020, MaxMem=  2097152000 cpu:         3.0
 (Enter /opt/cluster/programs/g09/g09_d.01/g09/l303.exe)
 DipDrv:  MaxL=1.
 Leave Link  303 at Wed Aug 26 09:08:44 2020, MaxMem=  2097152000 cpu:         0.3
 (Enter /opt/cluster/programs/g09/g09_d.01/g09/l401.exe)
 ExpMin= 7.60D-02 ExpMax= 1.17D+05 ExpMxC= 1.13D+03 IAcc=2 IRadAn=         4 AccDes= 0.00D+00
 Harris functional with IExCor=  419 and IRadAn=       4 diagonalized for initial guess.
 HarFok:  IExCor=  419 AccDes= 0.00D+00 IRadAn=         4 IDoV= 1 UseB2=F ITyADJ=14
 ICtDFT=  3500011 ScaDFX=  1.000000  1.000000  1.000000  1.000000
 FoFCou: FMM=F IPFlag=           0 FMFlag=      100000 FMFlg1=           0
         NFxFlg=           0 DoJE=T BraDBF=F KetDBF=T FulRan=T
         wScrn=  0.000000 ICntrl=     500 IOpCl=  0 I1Cent=   200000004 NGrid=           0
         NMat0=    1 NMatS0=      1 NMatT0=    0 NMatD0=    1 NMtDS0=    0 NMtDT0=    0
 Petite list used in FoFCou.
 Harris En= -192.036753540455    
 JPrj=0 DoOrth=F DoCkMO=F.
 Leave Link  401 at Wed Aug 26 09:08:45 2020, MaxMem=  2097152000 cpu:         6.9
 (Enter /opt/cluster/programs/g09/g09_d.01/g09/l502.exe)
 Closed shell SCF:
 Using DIIS extrapolation, IDIIS=  1040.
 Integral symmetry usage will be decided dynamically.
 Keep R1 ints in memory in canonical form, NReq=1883905047.
 IVT=      574566 IEndB=      574566 NGot=  2097152000 MDV=   252723534
 LenX=   252723534 LenY=   252539909
 Requested convergence on RMS density matrix=1.00D-08 within 128 cycles.
 Requested convergence on MAX density matrix=1.00D-06.
 Requested convergence on             energy=1.00D-06.
 No special actions if energy rises.
 FoFCou: FMM=F IPFlag=           0 FMFlag=           0 FMFlg1=           0
         NFxFlg=           0 DoJE=F BraDBF=F KetDBF=F FulRan=T
         wScrn=  0.000000 ICntrl=     600 IOpCl=  0 I1Cent=           0 NGrid=           0
         NMat0=    1 NMatS0=  60726 NMatT0=    0 NMatD0=    1 NMtDS0=    0 NMtDT0=    0
 Symmetry not used in FoFCou.
 Integral accuracy reduced to 1.0D-05 until final iterations.

 Cycle   1  Pass 0  IDiag  1:
 E= -191.474361341791    
 DIIS: error= 2.60D-02 at cycle   1 NSaved=   1.
 NSaved= 1 IEnMin= 1 EnMin= -191.474361341791     IErMin= 1 ErrMin= 2.60D-02
 ErrMax= 2.60D-02  0.00D+00 EMaxC= 1.00D-01 BMatC= 2.50D-01 BMatP= 2.50D-01
 IDIUse=3 WtCom= 7.40D-01 WtEn= 2.60D-01
 Coeff-Com:  0.100D+01
 Coeff-En:   0.100D+01
 Coeff:      0.100D+01
 Gap=     0.282 Goal=   None    Shift=    0.000
 GapD=    0.282 DampG=1.000 DampE=0.500 DampFc=0.5000 IDamp=-1.
 Damping current iteration by 5.00D-01
 RMSDP=1.84D-03 MaxDP=2.35D-01              OVMax= 1.76D-01

 Cycle   2  Pass 0  IDiag  1:
 E= -191.540552006161     Delta-E=       -0.066190664370 Rises=F Damp=T
 DIIS: error= 1.15D-02 at cycle   2 NSaved=   2.
 NSaved= 2 IEnMin= 2 EnMin= -191.540552006161     IErMin= 2 ErrMin= 1.15D-02
 ErrMax= 1.15D-02  0.00D+00 EMaxC= 1.00D-01 BMatC= 3.34D-02 BMatP= 2.50D-01
 IDIUse=3 WtCom= 8.85D-01 WtEn= 1.15D-01
 Coeff-Com: -0.148D+00 0.115D+01
 Coeff-En:   0.000D+00 0.100D+01
 Coeff:     -0.131D+00 0.113D+01
 Gap=     0.353 Goal=   None    Shift=    0.000
 RMSDP=6.25D-04 MaxDP=8.14D-02 DE=-6.62D-02 OVMax= 1.28D-01

 Cycle   3  Pass 0  IDiag  1:
 E= -191.600166136316     Delta-E=       -0.059614130155 Rises=F Damp=F
 DIIS: error= 8.56D-03 at cycle   3 NSaved=   3.
 NSaved= 3 IEnMin= 3 EnMin= -191.600166136316     IErMin= 3 ErrMin= 8.56D-03
 ErrMax= 8.56D-03  0.00D+00 EMaxC= 1.00D-01 BMatC= 1.63D-02 BMatP= 3.34D-02
 IDIUse=3 WtCom= 9.14D-01 WtEn= 8.56D-02
 Coeff-Com: -0.191D+00 0.514D+00 0.676D+00
 Coeff-En:   0.000D+00 0.000D+00 0.100D+01
 Coeff:     -0.174D+00 0.470D+00 0.704D+00
 Gap=     0.325 Goal=   None    Shift=    0.000
 RMSDP=2.29D-04 MaxDP=1.66D-02 DE=-5.96D-02 OVMax= 4.64D-02

 Cycle   4  Pass 0  IDiag  1:
 E= -191.609398805591     Delta-E=       -0.009232669275 Rises=F Damp=F
 DIIS: error= 3.42D-03 at cycle   4 NSaved=   4.
 NSaved= 4 IEnMin= 4 EnMin= -191.609398805591     IErMin= 4 ErrMin= 3.42D-03
 ErrMax= 3.42D-03  0.00D+00 EMaxC= 1.00D-01 BMatC= 2.61D-03 BMatP= 1.63D-02
 IDIUse=3 WtCom= 9.66D-01 WtEn= 3.42D-02
 Coeff-Com: -0.619D-01 0.103D+00 0.356D+00 0.604D+00
 Coeff-En:   0.000D+00 0.000D+00 0.140D+00 0.860D+00
 Coeff:     -0.598D-01 0.990D-01 0.348D+00 0.612D+00
 Gap=     0.319 Goal=   None    Shift=    0.000
 RMSDP=8.81D-05 MaxDP=6.78D-03 DE=-9.23D-03 OVMax= 1.26D-02

 Cycle   5  Pass 0  IDiag  1:
 E= -191.611560765338     Delta-E=       -0.002161959747 Rises=F Damp=F
 DIIS: error= 3.10D-04 at cycle   5 NSaved=   5.
 NSaved= 5 IEnMin= 5 EnMin= -191.611560765338     IErMin= 5 ErrMin= 3.10D-04
 ErrMax= 3.10D-04  0.00D+00 EMaxC= 1.00D-01 BMatC= 9.41D-06 BMatP= 2.61D-03
 IDIUse=3 WtCom= 9.97D-01 WtEn= 3.10D-03
 Coeff-Com: -0.697D-02 0.874D-02 0.449D-01 0.110D+00 0.843D+00
 Coeff-En:   0.000D+00 0.000D+00 0.000D+00 0.000D+00 0.100D+01
 Coeff:     -0.694D-02 0.871D-02 0.448D-01 0.110D+00 0.844D+00
 Gap=     0.318 Goal=   None    Shift=    0.000
 RMSDP=9.89D-06 MaxDP=8.61D-04 DE=-2.16D-03 OVMax= 1.90D-03

 Initial convergence to 1.0D-05 achieved.  Increase integral accuracy.
 Cycle   6  Pass 1  IDiag  1:
 E= -191.611561332705     Delta-E=       -0.000000567367 Rises=F Damp=F
 DIIS: error= 9.26D-05 at cycle   1 NSaved=   1.
 NSaved= 1 IEnMin= 1 EnMin= -191.611561332705     IErMin= 1 ErrMin= 9.26D-05
 ErrMax= 9.26D-05  0.00D+00 EMaxC= 1.00D-01 BMatC= 1.50D-06 BMatP= 1.50D-06
 IDIUse=1 WtCom= 1.00D+00 WtEn= 0.00D+00
 Coeff-Com:  0.100D+01
 Coeff:      0.100D+01
 Gap=     0.318 Goal=   None    Shift=    0.000
 RMSDP=9.89D-06 MaxDP=8.61D-04 DE=-5.67D-07 OVMax= 6.27D-04

 Cycle   7  Pass 1  IDiag  1:
 E= -191.611562537706     Delta-E=       -0.000001205001 Rises=F Damp=F
 DIIS: error= 7.22D-05 at cycle   2 NSaved=   2.
 NSaved= 2 IEnMin= 2 EnMin= -191.611562537706     IErMin= 2 ErrMin= 7.22D-05
 ErrMax= 7.22D-05  0.00D+00 EMaxC= 1.00D-01 BMatC= 8.43D-07 BMatP= 1.50D-06
 IDIUse=1 WtCom= 1.00D+00 WtEn= 0.00D+00
 Coeff-Com:  0.420D+00 0.580D+00
 Coeff:      0.420D+00 0.580D+00
 Gap=     0.318 Goal=   None    Shift=    0.000
 RMSDP=1.51D-06 MaxDP=8.70D-05 DE=-1.21D-06 OVMax= 3.53D-04

 Cycle   8  Pass 1  IDiag  1:
 E= -191.611563295230     Delta-E=       -0.000000757524 Rises=F Damp=F
 DIIS: error= 1.63D-05 at cycle   3 NSaved=   3.
 NSaved= 3 IEnMin= 3 EnMin= -191.611563295230     IErMin= 3 ErrMin= 1.63D-05
 ErrMax= 1.63D-05  0.00D+00 EMaxC= 1.00D-01 BMatC= 6.31D-08 BMatP= 8.43D-07
 IDIUse=1 WtCom= 1.00D+00 WtEn= 0.00D+00
 Coeff-Com:  0.496D-01 0.178D+00 0.773D+00
 Coeff:      0.496D-01 0.178D+00 0.773D+00
 Gap=     0.318 Goal=   None    Shift=    0.000
 RMSDP=1.37D-06 MaxDP=1.51D-04 DE=-7.58D-07 OVMax= 1.06D-04

 Cycle   9  Pass 1  IDiag  1:
 E= -191.611563354749     Delta-E=       -0.000000059519 Rises=F Damp=F
 DIIS: error= 1.39D-05 at cycle   4 NSaved=   4.
 NSaved= 4 IEnMin= 4 EnMin= -191.611563354749     IErMin= 4 ErrMin= 1.39D-05
 ErrMax= 1.39D-05  0.00D+00 EMaxC= 1.00D-01 BMatC= 1.98D-08 BMatP= 6.31D-08
 IDIUse=1 WtCom= 1.00D+00 WtEn= 0.00D+00
 Coeff-Com: -0.118D+00-0.935D-01 0.433D+00 0.779D+00
 Coeff:     -0.118D+00-0.935D-01 0.433D+00 0.779D+00
 Gap=     0.318 Goal=   None    Shift=    0.000
 RMSDP=6.67D-07 MaxDP=6.90D-05 DE=-5.95D-08 OVMax= 9.28D-05

 Cycle  10  Pass 1  IDiag  1:
 E= -191.611563382424     Delta-E=       -0.000000027674 Rises=F Damp=F
 DIIS: error= 1.50D-06 at cycle   5 NSaved=   5.
 NSaved= 5 IEnMin= 5 EnMin= -191.611563382424     IErMin= 5 ErrMin= 1.50D-06
 ErrMax= 1.50D-06  0.00D+00 EMaxC= 1.00D-01 BMatC= 7.88D-10 BMatP= 1.98D-08
 IDIUse=1 WtCom= 1.00D+00 WtEn= 0.00D+00
 Coeff-Com: -0.207D-01-0.236D-01 0.875D-02 0.180D+00 0.856D+00
 Coeff:     -0.207D-01-0.236D-01 0.875D-02 0.180D+00 0.856D+00
 Gap=     0.318 Goal=   None    Shift=    0.000
 RMSDP=1.36D-07 MaxDP=1.56D-05 DE=-2.77D-08 OVMax= 1.53D-05

 Cycle  11  Pass 1  IDiag  1:
 E= -191.611563383220     Delta-E=       -0.000000000796 Rises=F Damp=F
 DIIS: error= 5.51D-07 at cycle   6 NSaved=   6.
 NSaved= 6 IEnMin= 6 EnMin= -191.611563383220     IErMin= 6 ErrMin= 5.51D-07
 ErrMax= 5.51D-07  0.00D+00 EMaxC= 1.00D-01 BMatC= 9.74D-11 BMatP= 7.88D-10
 IDIUse=1 WtCom= 1.00D+00 WtEn= 0.00D+00
 Coeff-Com:  0.955D-02 0.499D-02-0.665D-01-0.306D-01 0.257D+00 0.826D+00
 Coeff:      0.955D-02 0.499D-02-0.665D-01-0.306D-01 0.257D+00 0.826D+00
 Gap=     0.318 Goal=   None    Shift=    0.000
 RMSDP=3.73D-08 MaxDP=3.10D-06 DE=-7.96D-10 OVMax= 4.25D-06

 Cycle  12  Pass 1  IDiag  1:
 E= -191.611563383337     Delta-E=       -0.000000000117 Rises=F Damp=F
 DIIS: error= 2.17D-07 at cycle   7 NSaved=   7.
 NSaved= 7 IEnMin= 7 EnMin= -191.611563383337     IErMin= 7 ErrMin= 2.17D-07
 ErrMax= 2.17D-07  0.00D+00 EMaxC= 1.00D-01 BMatC= 4.35D-12 BMatP= 9.74D-11
 IDIUse=1 WtCom= 1.00D+00 WtEn= 0.00D+00
 Coeff-Com:  0.321D-02 0.222D-02-0.165D-01-0.117D-01 0.234D-01 0.197D+00
 Coeff-Com:  0.803D+00
 Coeff:      0.321D-02 0.222D-02-0.165D-01-0.117D-01 0.234D-01 0.197D+00
 Coeff:      0.803D+00
 Gap=     0.318 Goal=   None    Shift=    0.000
 RMSDP=7.47D-09 MaxDP=5.03D-07 DE=-1.17D-10 OVMax= 1.92D-06

 SCF Done:  E(RB2PLYPD3) =  -191.611563383     A.U. after   12 cycles
            NFock= 12  Conv=0.75D-08     -V/T= 2.0038
 KE= 1.908767272957D+02 PE=-6.537521861781D+02 EE= 1.683669334934D+02
 Leave Link  502 at Wed Aug 26 09:09:59 2020, MaxMem=  2097152000 cpu:       308.5
 (Enter /opt/cluster/programs/g09/g09_d.01/g09/l801.exe)
 DoSCS=T DFT=T ScalE2(SS,OS)=  0.270000  0.270000
 ExpMin= 7.60D-02 ExpMax= 1.17D+05 ExpMxC= 1.13D+03 IAcc=3 IRadAn=         5 AccDes= 0.00D+00
 HarFok:  IExCor=  205 AccDes= 0.00D+00 IRadAn=         5 IDoV=-2 UseB2=F ITyADJ=14
 ICtDFT= 12500011 ScaDFX=  1.000000  1.000000  1.000000  1.000000
 Largest valence mixing into a core orbital is  1.14D-04
 Largest core mixing into a valence orbital is  1.97D-05
 Range of M.O.s used for correlation:     5   348
 NBasis=   348 NAE=    15 NBE=    15 NFC=     4 NFV=     0
 NROrb=    344 NOA=    11 NOB=    11 NVA=   333 NVB=   333

 **** Warning!!: The largest alpha MO coefficient is  0.31721017D+02

 Leave Link  801 at Wed Aug 26 09:09:59 2020, MaxMem=  2097152000 cpu:         1.0
 (Enter /opt/cluster/programs/g09/g09_d.01/g09/l906.exe)
 DoSCS=T DFT=T ScalE2(SS,OS)=  0.270000  0.270000
 FulOut=F Deriv=F AODrv=F NAtomX=     8
   MMem=        1190  MDisk=          11 MDiskD=          11
  W3Min=     1567764 MinDsk=     2827057 NBas6D=         428
 NBas2D=       93150    NTT=       91806    LW2=     4508827
    MDV=  2096571678 MDiskM=       10875 NBas2p=       89389
 Fully direct method using O(OVN) memory.
 IMap=   1   2   3   4   5   6   7   8   9  10  11
 JobTyp=1 Pass  1:  I=   1 to  11 NPSUse=  8 ParTrn=T ParDer=T DoDerP=F.
 Spin components of T(2) and E(2):
     alpha-alpha T2 =       0.4394300253D-01 E2=     -0.2946466817D-01
     alpha-beta  T2 =       0.2698824950D+00 E2=     -0.1885132654D+00
     beta-beta   T2 =       0.4394300253D-01 E2=     -0.2946466817D-01
 The integrals were generated   1 times.
 E2(B2PLYPD3) =    -0.2474426018D+00 E(B2PLYPD3) =    -0.19185900598510D+03
 Leave Link  906 at Wed Aug 26 09:11:07 2020, MaxMem=  2097152000 cpu:       540.2
 (Enter /opt/cluster/programs/g09/g09_d.01/g09/l601.exe)
 Copying SCF densities to generalized density rwf, IOpCl= 0 IROHF=0.

 **********************************************************************

            Population analysis using the SCF density.

 **********************************************************************

 Orbital symmetries:
       Occupied  (A) (A) (A) (A) (A) (A) (A) (A) (A) (A) (A) (A)
                 (A) (A) (A)
       Virtual   (A) (A) (A) (A) (A) (A) (A) (A) (A) (A) (A) (A)
                 (A) (A) (A) (A) (A) (A) (A) (A) (A) (A) (A) (A)
                 (A) (A) (A) (A) (A) (A) (A) (A) (A) (A) (A) (A)
                 (A) (A) (A) (A) (A) (A) (A) (A) (A) (A) (A) (A)
                 (A) (A) (A) (A) (A) (A) (A) (A) (A) (A) (A) (A)
                 (A) (A) (A) (A) (A) (A) (A) (A) (A) (A) (A) (A)
                 (A) (A) (A) (A) (A) (A) (A) (A) (A) (A) (A) (A)
                 (A) (A) (A) (A) (A) (A) (A) (A) (A) (A) (A) (A)
                 (A) (A) (A) (A) (A) (A) (A) (A) (A) (A) (A) (A)
                 (A) (A) (A) (A) (A) (A) (A) (A) (A) (A) (A) (A)
                 (A) (A) (A) (A) (A) (A) (A) (A) (A) (A) (A) (A)
                 (A) (A) (A) (A) (A) (A) (A) (A) (A) (A) (A) (A)
                 (A) (A) (A) (A) (A) (A) (A) (A) (A) (A) (A) (A)
                 (A) (A) (A) (A) (A) (A) (A) (A) (A) (A) (A) (A)
                 (A) (A) (A) (A) (A) (A) (A) (A) (A) (A) (A) (A)
                 (A) (A) (A) (A) (A) (A) (A) (A) (A) (A) (A) (A)
                 (A) (A) (A) (A) (A) (A) (A) (A) (A) (A) (A) (A)
                 (A) (A) (A) (A) (A) (A) (A) (A) (A) (A) (A) (A)
                 (A) (A) (A) (A) (A) (A) (A) (A) (A) (A) (A) (A)
                 (A) (A) (A) (A) (A) (A) (A) (A) (A) (A) (A) (A)
                 (A) (A) (A) (A) (A) (A) (A) (A) (A) (A) (A) (A)
                 (A) (A) (A) (A) (A) (A) (A) (A) (A) (A) (A) (A)
                 (A) (A) (A) (A) (A) (A) (A) (A) (A) (A) (A) (A)
                 (A) (A) (A) (A) (A) (A) (A) (A) (A) (A) (A) (A)
                 (A) (A) (A) (A) (A) (A) (A) (A) (A) (A) (A) (A)
                 (A) (A) (A) (A) (A) (A) (A) (A) (A) (A) (A) (A)
                 (A) (A) (A) (A) (A) (A) (A) (A) (A) (A) (A) (A)
                 (A) (A) (A) (A) (A) (A) (A) (A) (A)
 The electronic state is 1-A.
 Alpha  occ. eigenvalues --  -19.72759 -10.71452 -10.66150 -10.64922  -1.20383
 Alpha  occ. eigenvalues --   -0.92047  -0.75129  -0.66731  -0.56830  -0.55709
 Alpha  occ. eigenvalues --   -0.50296  -0.47145  -0.46643  -0.34180  -0.33792
 Alpha virt. eigenvalues --   -0.01964   0.05669   0.07039   0.08269   0.09754
 Alpha virt. eigenvalues --    0.12305   0.13941   0.15502   0.17433   0.19474
 Alpha virt. eigenvalues --    0.20053   0.21334   0.25358   0.26298   0.28936
 Alpha virt. eigenvalues --    0.31566   0.33094   0.34825   0.37494   0.38227
 Alpha virt. eigenvalues --    0.39483   0.41403   0.43231   0.44072   0.45431
 Alpha virt. eigenvalues --    0.46629   0.49026   0.53723   0.54906   0.57176
 Alpha virt. eigenvalues --    0.57928   0.64342   0.66098   0.66851   0.70764
 Alpha virt. eigenvalues --    0.74479   0.76636   0.78109   0.79188   0.80037
 Alpha virt. eigenvalues --    0.81587   0.82154   0.82829   0.84255   0.86412
 Alpha virt. eigenvalues --    0.87769   0.90786   0.92459   0.93494   0.95389
 Alpha virt. eigenvalues --    0.96571   0.97200   1.00385   1.02098   1.07652
 Alpha virt. eigenvalues --    1.09749   1.10599   1.15883   1.17211   1.17456
 Alpha virt. eigenvalues --    1.18741   1.25498   1.28163   1.32803   1.37384
 Alpha virt. eigenvalues --    1.43823   1.47242   1.48598   1.54986   1.56401
 Alpha virt. eigenvalues --    1.60180   1.61171   1.66360   1.66952   1.67940
 Alpha virt. eigenvalues --    1.73847   1.77204   1.78176   1.81524   1.83335
 Alpha virt. eigenvalues --    1.85496   1.90379   1.91628   1.93287   1.94696
 Alpha virt. eigenvalues --    1.95564   1.97874   1.99355   2.01335   2.03193
 Alpha virt. eigenvalues --    2.07053   2.09226   2.11347   2.13508   2.13820
 Alpha virt. eigenvalues --    2.16235   2.17335   2.19232   2.22615   2.25869
 Alpha virt. eigenvalues --    2.28897   2.35276   2.36428   2.37865   2.41958
 Alpha virt. eigenvalues --    2.44154   2.45923   2.48224   2.49474   2.53234
 Alpha virt. eigenvalues --    2.55228   2.57564   2.59159   2.60405   2.62948
 Alpha virt. eigenvalues --    2.63758   2.65411   2.66623   2.68044   2.71800
 Alpha virt. eigenvalues --    2.74239   2.76682   2.83543   2.85466   2.86831
 Alpha virt. eigenvalues --    2.88116   2.94676   2.97952   2.99491   3.04603
 Alpha virt. eigenvalues --    3.15082   3.17321   3.26823   3.29367   3.30277
 Alpha virt. eigenvalues --    3.31962   3.38063   3.41868   3.44111   3.46274
 Alpha virt. eigenvalues --    3.47829   3.49471   3.57493   3.59715   3.62284
 Alpha virt. eigenvalues --    3.64840   3.71611   3.75583   3.81137   3.87475
 Alpha virt. eigenvalues --    3.92351   3.96740   3.99305   4.01569   4.06284
 Alpha virt. eigenvalues --    4.09052   4.18232   4.20158   4.26523   4.32756
 Alpha virt. eigenvalues --    4.39624   4.40723   4.53292   4.60703   4.62066
 Alpha virt. eigenvalues --    4.65465   4.81272   4.87021   4.92158   4.99117
 Alpha virt. eigenvalues --    5.01517   5.03301   5.08315   5.10146   5.12122
 Alpha virt. eigenvalues --    5.20931   5.27129   5.31669   5.34187   5.41202
 Alpha virt. eigenvalues --    5.45658   5.52200   5.57018   5.58757   5.60978
 Alpha virt. eigenvalues --    5.62897   5.64705   5.68315   5.72391   5.76303
 Alpha virt. eigenvalues --    5.79010   5.82062   5.86847   5.90258   5.93274
 Alpha virt. eigenvalues --    5.95940   5.97307   5.98838   6.04594   6.06752
 Alpha virt. eigenvalues --    6.08117   6.13349   6.14626   6.17648   6.18512
 Alpha virt. eigenvalues --    6.19661   6.22334   6.23170   6.24746   6.29873
 Alpha virt. eigenvalues --    6.31199   6.33127   6.35186   6.40140   6.42106
 Alpha virt. eigenvalues --    6.43923   6.48883   6.49379   6.51410   6.56348
 Alpha virt. eigenvalues --    6.59679   6.66281   6.71234   6.72391   6.75160
 Alpha virt. eigenvalues --    6.80894   6.81826   6.88478   6.92282   6.97189
 Alpha virt. eigenvalues --    7.01609   7.02290   7.08124   7.12979   7.21096
 Alpha virt. eigenvalues --    7.29141   7.32265   7.43047   7.48545   7.50451
 Alpha virt. eigenvalues --    7.55009   7.55687   7.60480   7.62316   7.63537
 Alpha virt. eigenvalues --    7.65663   7.69669   7.70098   7.74171   7.76703
 Alpha virt. eigenvalues --    7.83111   7.84198   7.90048   7.96227   8.01151
 Alpha virt. eigenvalues --    8.03051   8.05996   8.10056   8.14304   8.16047
 Alpha virt. eigenvalues --    8.18173   8.25893   8.27142   8.27912   8.29866
 Alpha virt. eigenvalues --    8.35017   8.36506   8.44446   8.45955   8.48308
 Alpha virt. eigenvalues --    8.55783   8.55980   8.61415   8.62655   8.69368
 Alpha virt. eigenvalues --    8.70879   8.78192   8.86381   8.89737   9.06220
 Alpha virt. eigenvalues --    9.07809   9.08956   9.14535   9.22122   9.27184
 Alpha virt. eigenvalues --    9.34735   9.36313   9.53109   9.61075   9.67720
 Alpha virt. eigenvalues --    9.77048   9.80608   9.85703   9.90877   9.91741
 Alpha virt. eigenvalues --    9.94302   9.97644  10.10595  10.20406  10.21319
 Alpha virt. eigenvalues --   10.29740  10.34890  10.53511  10.55181  10.76288
 Alpha virt. eigenvalues --   11.01777  11.25651  11.26299  11.27406  11.37011
 Alpha virt. eigenvalues --   11.67303  11.78387  11.84778  12.04238  12.11846
 Alpha virt. eigenvalues --   12.33916  12.37619  12.47208  12.57701  12.84682
 Alpha virt. eigenvalues --   12.90064  13.43327  13.83463  14.34445  14.80866
 Alpha virt. eigenvalues --   28.55693  28.88440  29.36034  48.67393 148.14320
 Alpha virt. eigenvalues --  148.44099 148.93772 254.43805
          Condensed to atoms (all electrons):
               1          2          3          4          5          6
     1  C    4.496965   0.620701   0.365822  -0.051340  -0.029798  -0.002874
     2  O    0.620701   7.879105  -0.094366   0.007027   0.005766   0.000272
     3  C    0.365822  -0.094366   5.171206   0.479311   0.366339  -0.053076
     4  C   -0.051340   0.007027   0.479311   4.885427  -0.037227   0.421269
     5  H   -0.029798   0.005766   0.366339  -0.037227   0.582158   0.005579
     6  H   -0.002874   0.000272  -0.053076   0.421269   0.005579   0.573156
     7  H    0.002276  -0.000497  -0.028319   0.410930  -0.005176  -0.038661
     8  H    0.444716  -0.078464  -0.162560   0.022661   0.008025   0.006012
               7          8
     1  C    0.002276   0.444716
     2  O   -0.000497  -0.078464
     3  C   -0.028319  -0.162560
     4  C    0.410930   0.022661
     5  H   -0.005176   0.008025
     6  H   -0.038661   0.006012
     7  H    0.556994  -0.000822
     8  H   -0.000822   0.687940
 Mulliken charges:
               1
     1  C    0.153532
     2  O   -0.339543
     3  C   -0.044357
     4  C   -0.138056
     5  H    0.104334
     6  H    0.088324
     7  H    0.103276
     8  H    0.072491
 Sum of Mulliken charges =   0.00000
 Mulliken charges with hydrogens summed into heavy atoms:
               1
     1  C    0.226023
     2  O   -0.339543
     3  C    0.059976
     4  C    0.053543
 Electronic spatial extent (au):  <R**2>=            300.3836
 Charge=              0.0000 electrons
 Dipole moment (field-independent basis, Debye):
    X=              3.3568    Y=              0.8243    Z=              0.1296  Tot=              3.4590
 Quadrupole moment (field-independent basis, Debye-Ang):
   XX=            -27.2635   YY=            -21.7675   ZZ=            -25.3560
   XY=             -1.1133   XZ=             -0.1976   YZ=             -0.1539
 Traceless Quadrupole moment (field-independent basis, Debye-Ang):
   XX=             -2.4679   YY=              3.0282   ZZ=             -0.5603
   XY=             -1.1133   XZ=             -0.1976   YZ=             -0.1539
 Octapole moment (field-independent basis, Debye-Ang**2):
  XXX=             14.7544  YYY=              0.0948  ZZZ=             -0.0958  XYY=             -0.4912
  XXY=              0.5856  XXZ=              0.4878  XZZ=             -4.6777  YZZ=              0.2772
  YYZ=             -0.0409  XYZ=             -0.3567
 Hexadecapole moment (field-independent basis, Debye-Ang**3):
 XXXX=           -304.2088 YYYY=            -55.6521 ZZZZ=            -27.9991 XXXY=             -4.3693
 XXXZ=              0.8257 YYYX=              0.2654 YYYZ=             -0.2474 ZZZX=              0.1857
 ZZZY=             -0.1223 XXYY=            -58.7742 XXZZ=            -58.3142 YYZZ=            -15.7046
 XXYZ=             -0.8377 YYXZ=             -0.2511 ZZXY=              0.5212
 N-N= 1.028969620057D+02 E-N=-6.537521761773D+02  KE= 1.908767272957D+02
 Leave Link  601 at Wed Aug 26 09:11:07 2020, MaxMem=  2097152000 cpu:         0.5
 (Enter /opt/cluster/programs/g09/g09_d.01/g09/l9999.exe)
 1\1\GINC-NODE03\SP\RB2PLYPD3-FC\def2QZVP\C3H4O1\BOITTIER\26-Aug-2020\0
 \\#p B2PLYPD3/Def2QZVP\\acrolein\\0,1\C,0,-5.004825,-1.370371,0.852757
 \O,0,-3.92235,-0.883895,0.691004\C,0,-5.199501,-2.799177,1.118768\C,0,
 -6.418472,-3.319178,1.4309\H,0,-4.297402,-3.448091,1.082266\H,0,-7.244
 054,-2.665181,1.533858\H,0,-6.590602,-4.441309,1.547614\H,0,-5.916829,
 -0.746414,0.811778\\Version=ES64L-G09RevD.01\State=1-A\HF=-191.6115634
 \MP2=-191.859006\RMSD=7.468e-09\PG=C01 [X(C3H4O1)]\\@


 YOU ARE IN A MAZE OF TWISTY LITTLE PASSAGES.
 Job cpu time:       0 days  0 hours 14 minutes 22.1 seconds.
 File lengths (MBytes):  RWF=     49 Int=      0 D2E=      0 Chk=      7 Scr=      1
 Normal termination of Gaussian 09 at Wed Aug 26 09:11:08 2020.
