 Entering Gaussian System, Link 0=/opt/cluster/programs/g09/g09_d.01/g09//g09
 Input=/home/boittier/MDCM/nms_sampling/acrolein_geom.xyz.dir/energies/acrolein_1998_energy.com
 Output=/scratch/boittier/acrolein_1998_energy/acrolein_1998_energy.out
 Initial command:
 /opt/cluster/programs/g09/g09_d.01/g09/l1.exe "/scratch/boittier/acrolein_1998_energy/Gau-56639.inp" -scrdir="/scratch/boittier/acrolein_1998_energy/"
 Entering Link 1 = /opt/cluster/programs/g09/g09_d.01/g09/l1.exe PID=     56640.
  
 Copyright (c) 1988,1990,1992,1993,1995,1998,2003,2009,2013,
            Gaussian, Inc.  All Rights Reserved.
  
 This is part of the Gaussian(R) 09 program.  It is based on
 the Gaussian(R) 03 system (copyright 2003, Gaussian, Inc.),
 the Gaussian(R) 98 system (copyright 1998, Gaussian, Inc.),
 the Gaussian(R) 94 system (copyright 1995, Gaussian, Inc.),
 the Gaussian 92(TM) system (copyright 1992, Gaussian, Inc.),
 the Gaussian 90(TM) system (copyright 1990, Gaussian, Inc.),
 the Gaussian 88(TM) system (copyright 1988, Gaussian, Inc.),
 the Gaussian 86(TM) system (copyright 1986, Carnegie Mellon
 University), and the Gaussian 82(TM) system (copyright 1983,
 Carnegie Mellon University). Gaussian is a federally registered
 trademark of Gaussian, Inc.
  
 This software contains proprietary and confidential information,
 including trade secrets, belonging to Gaussian, Inc.
  
 This software is provided under written license and may be
 used, copied, transmitted, or stored only in accord with that
 written license.
  
 The following legend is applicable only to US Government
 contracts under FAR:
  
                    RESTRICTED RIGHTS LEGEND
  
 Use, reproduction and disclosure by the US Government is
 subject to restrictions as set forth in subparagraphs (a)
 and (c) of the Commercial Computer Software - Restricted
 Rights clause in FAR 52.227-19.
  
 Gaussian, Inc.
 340 Quinnipiac St., Bldg. 40, Wallingford CT 06492
  
  
 ---------------------------------------------------------------
 Warning -- This program may not be used in any manner that
 competes with the business of Gaussian, Inc. or will provide
 assistance to any competitor of Gaussian, Inc.  The licensee
 of this program is prohibited from giving any competitor of
 Gaussian, Inc. access to this program.  By using this program,
 the user acknowledges that Gaussian, Inc. is engaged in the
 business of creating and licensing software in the field of
 computational chemistry and represents and warrants to the
 licensee that it is not a competitor of Gaussian, Inc. and that
 it will not use this program in any manner prohibited above.
 ---------------------------------------------------------------
  

 Cite this work as:
 Gaussian 09, Revision D.01,
 M. J. Frisch, G. W. Trucks, H. B. Schlegel, G. E. Scuseria, 
 M. A. Robb, J. R. Cheeseman, G. Scalmani, V. Barone, B. Mennucci, 
 G. A. Petersson, H. Nakatsuji, M. Caricato, X. Li, H. P. Hratchian, 
 A. F. Izmaylov, J. Bloino, G. Zheng, J. L. Sonnenberg, M. Hada, 
 M. Ehara, K. Toyota, R. Fukuda, J. Hasegawa, M. Ishida, T. Nakajima, 
 Y. Honda, O. Kitao, H. Nakai, T. Vreven, J. A. Montgomery, Jr., 
 J. E. Peralta, F. Ogliaro, M. Bearpark, J. J. Heyd, E. Brothers, 
 K. N. Kudin, V. N. Staroverov, T. Keith, R. Kobayashi, J. Normand, 
 K. Raghavachari, A. Rendell, J. C. Burant, S. S. Iyengar, J. Tomasi, 
 M. Cossi, N. Rega, J. M. Millam, M. Klene, J. E. Knox, J. B. Cross, 
 V. Bakken, C. Adamo, J. Jaramillo, R. Gomperts, R. E. Stratmann, 
 O. Yazyev, A. J. Austin, R. Cammi, C. Pomelli, J. W. Ochterski, 
 R. L. Martin, K. Morokuma, V. G. Zakrzewski, G. A. Voth, 
 P. Salvador, J. J. Dannenberg, S. Dapprich, A. D. Daniels, 
 O. Farkas, J. B. Foresman, J. V. Ortiz, J. Cioslowski, 
 and D. J. Fox, Gaussian, Inc., Wallingford CT, 2013.
 
 ******************************************
 Gaussian 09:  ES64L-G09RevD.01 24-Apr-2013
                26-Aug-2020 
 ******************************************
 %chk=/home/boittier/MDCM/nms_sampling/acrolein_geom.xyz.dir/acrolein_1998.chk
 %nproc=8
 Will use up to    8 processors via shared memory.
 %mem=16000MB
 --------------------
 #p B2PLYPD3/Def2QZVP
 --------------------
 1/38=1/1;
 2/12=2,17=6,18=5,40=1/2;
 3/5=45,7=101,11=9,16=1,25=1,30=1,74=-60/1,2,3;
 4//1;
 5/5=2,38=5/2;
 8/10=1/1;
 9/16=-3/6;
 6/7=2,8=2,9=2,10=2/1;
 99/5=1,9=1/99;
 Leave Link    1 at Wed Aug 26 11:26:23 2020, MaxMem=  2097152000 cpu:         0.2
 (Enter /opt/cluster/programs/g09/g09_d.01/g09/l101.exe)
 --------
 acrolein
 --------
 Symbolic Z-matrix:
 Charge =  0 Multiplicity = 1
 C                    -4.97102  -1.41513   0.88485 
 O                    -3.93874  -0.84707   0.6853 
 C                    -5.20768  -2.83483   1.08253 
 C                    -6.43078  -3.29214   1.45408 
 H                    -4.2304   -3.50828   1.09963 
 H                    -7.43691  -2.57308   1.27572 
 H                    -6.60439  -4.31445   1.6607 
 H                    -5.70631  -0.89272   0.81896 
 
 NAtoms=      8 NQM=        8 NQMF=       0 NMMI=      0 NMMIF=      0
                NMic=       0 NMicF=      0.
                    Isotopes and Nuclear Properties:
 (Nuclear quadrupole moments (NQMom) in fm**2, nuclear magnetic moments (NMagM)
  in nuclear magnetons)

  Atom         1           2           3           4           5           6           7           8
 IAtWgt=          12          16          12          12           1           1           1           1
 AtmWgt=  12.0000000  15.9949146  12.0000000  12.0000000   1.0078250   1.0078250   1.0078250   1.0078250
 NucSpn=           0           0           0           0           1           1           1           1
 AtZEff=   0.0000000   0.0000000   0.0000000   0.0000000   0.0000000   0.0000000   0.0000000   0.0000000
 NQMom=    0.0000000   0.0000000   0.0000000   0.0000000   0.0000000   0.0000000   0.0000000   0.0000000
 NMagM=    0.0000000   0.0000000   0.0000000   0.0000000   2.7928460   2.7928460   2.7928460   2.7928460
 AtZNuc=   6.0000000   8.0000000   6.0000000   6.0000000   1.0000000   1.0000000   1.0000000   1.0000000
 Leave Link  101 at Wed Aug 26 11:26:23 2020, MaxMem=  2097152000 cpu:         0.5
 (Enter /opt/cluster/programs/g09/g09_d.01/g09/l202.exe)
                          Input orientation:                          
 ---------------------------------------------------------------------
 Center     Atomic      Atomic             Coordinates (Angstroms)
 Number     Number       Type             X           Y           Z
 ---------------------------------------------------------------------
      1          6           0       -4.971018   -1.415125    0.884849
      2          8           0       -3.938738   -0.847073    0.685302
      3          6           0       -5.207683   -2.834833    1.082528
      4          6           0       -6.430780   -3.292137    1.454075
      5          1           0       -4.230404   -3.508276    1.099633
      6          1           0       -7.436913   -2.573083    1.275715
      7          1           0       -6.604390   -4.314452    1.660700
      8          1           0       -5.706308   -0.892719    0.818959
 ---------------------------------------------------------------------
                    Distance matrix (angstroms):
                    1          2          3          4          5
     1  C    0.000000
     2  O    1.195033   0.000000
     3  C    1.452810   2.391485   0.000000
     4  C    2.445015   3.574860   1.357623   0.000000
     5  H    2.230678   2.709011   1.186968   2.239196   0.000000
     6  H    2.752141   3.945241   2.252843   1.249462   3.344741
     7  H    3.417008   4.481051   2.115265   1.057337   2.569149
     8  H    0.904379   1.773204   2.022351   2.585622   3.016324
                    6          7          8
     6  H    0.000000
     7  H    1.968165   0.000000
     8  H    2.455044   3.636391   0.000000
 Stoichiometry    C3H4O
 Framework group  C1[X(C3H4O)]
 Deg. of freedom    18
 Full point group                 C1      NOp   1
 Largest Abelian subgroup         C1      NOp   1
 Largest concise Abelian subgroup C1      NOp   1
                         Standard orientation:                         
 ---------------------------------------------------------------------
 Center     Atomic      Atomic             Coordinates (Angstroms)
 Number     Number       Type             X           Y           Z
 ---------------------------------------------------------------------
      1          6           0        0.667613   -0.314476    0.001381
      2          8           0        1.796540    0.076330   -0.028573
      3          6           0       -0.562670    0.455108    0.070687
      4          6           0       -1.771027   -0.149536   -0.061299
      5          1           0       -0.419533    1.632988    0.039052
      6          1           0       -1.866302   -1.381457    0.124299
      7          1           0       -2.672350    0.403114   -0.073860
      8          1           0        0.582370   -1.211857    0.074473
 ---------------------------------------------------------------------
 Rotational constants (GHZ):     48.4606578      4.6177196      4.2259094
 Leave Link  202 at Wed Aug 26 11:26:23 2020, MaxMem=  2097152000 cpu:         0.0
 (Enter /opt/cluster/programs/g09/g09_d.01/g09/l301.exe)
 Standard basis: def2QZVP (5D, 7F)
 Ernie: Thresh=  0.10000D-02 Tol=  0.10000D-05 Strict=F.
 There are   428 symmetry adapted cartesian basis functions of A   symmetry.
 There are   348 symmetry adapted basis functions of A   symmetry.
   348 basis functions,   520 primitive gaussians,   428 cartesian basis functions
    15 alpha electrons       15 beta electrons
       nuclear repulsion energy       103.4178083458 Hartrees.
 IExCor=  419 DFT=T Ex+Corr=B2PLYPD3 ExCW=0 ScaHFX=  0.530000
 ScaDFX=  0.470000  0.470000  0.730000  0.730000 ScalE2=  0.270000  0.270000
 IRadAn=      0 IRanWt=     -1 IRanGd=            0 ICorTp=0 IEmpDi=141
 NAtoms=    8 NActive=    8 NUniq=    8 SFac= 1.00D+00 NAtFMM=   60 NAOKFM=F Big=F
 Integral buffers will be    131072 words long.
 Regular integral format.
 Two-electron integral symmetry is turned on.
 R6Disp:  Grimme-D3(BJ) Dispersion energy=       -0.0035777285 Hartrees.
 Nuclear repulsion after empirical dispersion term =      103.4142306173 Hartrees.
 Leave Link  301 at Wed Aug 26 11:26:23 2020, MaxMem=  2097152000 cpu:         1.3
 (Enter /opt/cluster/programs/g09/g09_d.01/g09/l302.exe)
 NPDir=0 NMtPBC=     1 NCelOv=     1 NCel=       1 NClECP=     1 NCelD=      1
         NCelK=      1 NCelE2=     1 NClLst=     1 CellRange=     0.0.
 One-electron integrals computed using PRISM.
   1 Symmetry operations used in ECPInt.
 ECPInt:  NShTT=    5886 NPrTT=   14376 LenC2=    5778 LenP2D=   12167.
 LDataN:  DoStor=T MaxTD1= 8 Len=  415
 NBasis=   348 RedAO= T EigKep=  5.44D-05  NBF=   348
 NBsUse=   348 1.00D-06 EigRej= -1.00D+00 NBFU=   348
 Precomputing XC quadrature grid using
 IXCGrd= 4 IRadAn=           0 IRanWt=          -1 IRanGd=           0 AccXCQ= 0.00D+00.
 Generated NRdTot=       0 NPtTot=           0 NUsed=           0 NTot=          32
 NSgBfM=   428   428   428   428   428 MxSgAt=     8 MxSgA2=     8.
 Leave Link  302 at Wed Aug 26 11:26:23 2020, MaxMem=  2097152000 cpu:         3.0
 (Enter /opt/cluster/programs/g09/g09_d.01/g09/l303.exe)
 DipDrv:  MaxL=1.
 Leave Link  303 at Wed Aug 26 11:26:23 2020, MaxMem=  2097152000 cpu:         0.3
 (Enter /opt/cluster/programs/g09/g09_d.01/g09/l401.exe)
 ExpMin= 7.60D-02 ExpMax= 1.17D+05 ExpMxC= 1.13D+03 IAcc=2 IRadAn=         4 AccDes= 0.00D+00
 Harris functional with IExCor=  419 and IRadAn=       4 diagonalized for initial guess.
 HarFok:  IExCor=  419 AccDes= 0.00D+00 IRadAn=         4 IDoV= 1 UseB2=F ITyADJ=14
 ICtDFT=  3500011 ScaDFX=  1.000000  1.000000  1.000000  1.000000
 FoFCou: FMM=F IPFlag=           0 FMFlag=      100000 FMFlg1=           0
         NFxFlg=           0 DoJE=T BraDBF=F KetDBF=T FulRan=T
         wScrn=  0.000000 ICntrl=     500 IOpCl=  0 I1Cent=   200000004 NGrid=           0
         NMat0=    1 NMatS0=      1 NMatT0=    0 NMatD0=    1 NMtDS0=    0 NMtDT0=    0
 Petite list used in FoFCou.
 Harris En= -191.988834713631    
 JPrj=0 DoOrth=F DoCkMO=F.
 Leave Link  401 at Wed Aug 26 11:26:24 2020, MaxMem=  2097152000 cpu:         6.9
 (Enter /opt/cluster/programs/g09/g09_d.01/g09/l502.exe)
 Closed shell SCF:
 Using DIIS extrapolation, IDIIS=  1040.
 Integral symmetry usage will be decided dynamically.
 Keep R1 ints in memory in canonical form, NReq=1883905047.
 IVT=      574566 IEndB=      574566 NGot=  2097152000 MDV=   252723534
 LenX=   252723534 LenY=   252539909
 Requested convergence on RMS density matrix=1.00D-08 within 128 cycles.
 Requested convergence on MAX density matrix=1.00D-06.
 Requested convergence on             energy=1.00D-06.
 No special actions if energy rises.
 FoFCou: FMM=F IPFlag=           0 FMFlag=           0 FMFlg1=           0
         NFxFlg=           0 DoJE=F BraDBF=F KetDBF=F FulRan=T
         wScrn=  0.000000 ICntrl=     600 IOpCl=  0 I1Cent=           0 NGrid=           0
         NMat0=    1 NMatS0=  60726 NMatT0=    0 NMatD0=    1 NMtDS0=    0 NMtDT0=    0
 Symmetry not used in FoFCou.
 Integral accuracy reduced to 1.0D-05 until final iterations.

 Cycle   1  Pass 0  IDiag  1:
 E= -191.421943983835    
 DIIS: error= 2.25D-02 at cycle   1 NSaved=   1.
 NSaved= 1 IEnMin= 1 EnMin= -191.421943983835     IErMin= 1 ErrMin= 2.25D-02
 ErrMax= 2.25D-02  0.00D+00 EMaxC= 1.00D-01 BMatC= 2.41D-01 BMatP= 2.41D-01
 IDIUse=3 WtCom= 7.75D-01 WtEn= 2.25D-01
 Coeff-Com:  0.100D+01
 Coeff-En:   0.100D+01
 Coeff:      0.100D+01
 Gap=     0.276 Goal=   None    Shift=    0.000
 GapD=    0.276 DampG=1.000 DampE=0.500 DampFc=0.5000 IDamp=-1.
 Damping current iteration by 5.00D-01
 RMSDP=2.03D-03 MaxDP=2.68D-01              OVMax= 1.82D-01

 Cycle   2  Pass 0  IDiag  1:
 E= -191.488702378705     Delta-E=       -0.066758394870 Rises=F Damp=T
 DIIS: error= 9.71D-03 at cycle   2 NSaved=   2.
 NSaved= 2 IEnMin= 2 EnMin= -191.488702378705     IErMin= 2 ErrMin= 9.71D-03
 ErrMax= 9.71D-03  0.00D+00 EMaxC= 1.00D-01 BMatC= 3.34D-02 BMatP= 2.41D-01
 IDIUse=3 WtCom= 9.03D-01 WtEn= 9.71D-02
 Coeff-Com: -0.210D+00 0.121D+01
 Coeff-En:   0.000D+00 0.100D+01
 Coeff:     -0.190D+00 0.119D+01
 Gap=     0.353 Goal=   None    Shift=    0.000
 RMSDP=6.69D-04 MaxDP=9.28D-02 DE=-6.68D-02 OVMax= 1.08D-01

 Cycle   3  Pass 0  IDiag  1:
 E= -191.546175936860     Delta-E=       -0.057473558155 Rises=F Damp=F
 DIIS: error= 7.74D-03 at cycle   3 NSaved=   3.
 NSaved= 3 IEnMin= 3 EnMin= -191.546175936860     IErMin= 3 ErrMin= 7.74D-03
 ErrMax= 7.74D-03  0.00D+00 EMaxC= 1.00D-01 BMatC= 1.45D-02 BMatP= 3.34D-02
 IDIUse=3 WtCom= 9.23D-01 WtEn= 7.74D-02
 Coeff-Com: -0.207D+00 0.536D+00 0.672D+00
 Coeff-En:   0.000D+00 0.000D+00 0.100D+01
 Coeff:     -0.191D+00 0.494D+00 0.697D+00
 Gap=     0.324 Goal=   None    Shift=    0.000
 RMSDP=2.30D-04 MaxDP=1.90D-02 DE=-5.75D-02 OVMax= 4.38D-02

 Cycle   4  Pass 0  IDiag  1:
 E= -191.554014492106     Delta-E=       -0.007838555245 Rises=F Damp=F
 DIIS: error= 2.89D-03 at cycle   4 NSaved=   4.
 NSaved= 4 IEnMin= 4 EnMin= -191.554014492106     IErMin= 4 ErrMin= 2.89D-03
 ErrMax= 2.89D-03  0.00D+00 EMaxC= 1.00D-01 BMatC= 2.52D-03 BMatP= 1.45D-02
 IDIUse=3 WtCom= 9.71D-01 WtEn= 2.89D-02
 Coeff-Com: -0.695D-01 0.120D+00 0.364D+00 0.586D+00
 Coeff-En:   0.000D+00 0.000D+00 0.153D+00 0.847D+00
 Coeff:     -0.675D-01 0.117D+00 0.357D+00 0.593D+00
 Gap=     0.316 Goal=   None    Shift=    0.000
 RMSDP=9.13D-05 MaxDP=7.62D-03 DE=-7.84D-03 OVMax= 1.36D-02

 Cycle   5  Pass 0  IDiag  1:
 E= -191.556074616119     Delta-E=       -0.002060124014 Rises=F Damp=F
 DIIS: error= 3.35D-04 at cycle   5 NSaved=   5.
 NSaved= 5 IEnMin= 5 EnMin= -191.556074616119     IErMin= 5 ErrMin= 3.35D-04
 ErrMax= 3.35D-04  0.00D+00 EMaxC= 1.00D-01 BMatC= 1.42D-05 BMatP= 2.52D-03
 IDIUse=3 WtCom= 9.97D-01 WtEn= 3.35D-03
 Coeff-Com: -0.114D-01 0.166D-01 0.638D-01 0.140D+00 0.791D+00
 Coeff-En:   0.000D+00 0.000D+00 0.000D+00 0.000D+00 0.100D+01
 Coeff:     -0.114D-01 0.166D-01 0.635D-01 0.139D+00 0.792D+00
 Gap=     0.315 Goal=   None    Shift=    0.000
 RMSDP=1.27D-05 MaxDP=1.21D-03 DE=-2.06D-03 OVMax= 2.31D-03

 Cycle   6  Pass 0  IDiag  1:
 E= -191.556089763812     Delta-E=       -0.000015147693 Rises=F Damp=F
 DIIS: error= 1.08D-04 at cycle   6 NSaved=   6.
 NSaved= 6 IEnMin= 6 EnMin= -191.556089763812     IErMin= 6 ErrMin= 1.08D-04
 ErrMax= 1.08D-04  0.00D+00 EMaxC= 1.00D-01 BMatC= 1.84D-06 BMatP= 1.42D-05
 IDIUse=3 WtCom= 9.99D-01 WtEn= 1.08D-03
 Coeff-Com:  0.303D-02-0.633D-02-0.134D-01-0.136D-01 0.241D+00 0.789D+00
 Coeff-En:   0.000D+00 0.000D+00 0.000D+00 0.000D+00 0.000D+00 0.100D+01
 Coeff:      0.303D-02-0.632D-02-0.133D-01-0.136D-01 0.241D+00 0.789D+00
 Gap=     0.315 Goal=   None    Shift=    0.000
 RMSDP=7.94D-06 MaxDP=8.50D-04 DE=-1.51D-05 OVMax= 8.98D-04

 Initial convergence to 1.0D-05 achieved.  Increase integral accuracy.
 Cycle   7  Pass 1  IDiag  1:
 E= -191.556084031467     Delta-E=        0.000005732345 Rises=F Damp=F
 DIIS: error= 3.52D-05 at cycle   1 NSaved=   1.
 NSaved= 1 IEnMin= 1 EnMin= -191.556084031467     IErMin= 1 ErrMin= 3.52D-05
 ErrMax= 3.52D-05  0.00D+00 EMaxC= 1.00D-01 BMatC= 3.41D-07 BMatP= 3.41D-07
 IDIUse=1 WtCom= 1.00D+00 WtEn= 0.00D+00
 Coeff-Com:  0.100D+01
 Coeff:      0.100D+01
 Gap=     0.316 Goal=   None    Shift=    0.000
 RMSDP=7.94D-06 MaxDP=8.50D-04 DE= 5.73D-06 OVMax= 3.96D-04

 Cycle   8  Pass 1  IDiag  1:
 E= -191.556084159297     Delta-E=       -0.000000127830 Rises=F Damp=F
 DIIS: error= 4.96D-05 at cycle   2 NSaved=   2.
 NSaved= 2 IEnMin= 2 EnMin= -191.556084159297     IErMin= 1 ErrMin= 3.52D-05
 ErrMax= 4.96D-05  0.00D+00 EMaxC= 1.00D-01 BMatC= 2.81D-07 BMatP= 3.41D-07
 IDIUse=1 WtCom= 1.00D+00 WtEn= 0.00D+00
 Coeff-Com:  0.472D+00 0.528D+00
 Coeff:      0.472D+00 0.528D+00
 Gap=     0.315 Goal=   None    Shift=    0.000
 RMSDP=9.19D-07 MaxDP=5.58D-05 DE=-1.28D-07 OVMax= 3.52D-04

 Cycle   9  Pass 1  IDiag  1:
 E= -191.556084443692     Delta-E=       -0.000000284395 Rises=F Damp=F
 DIIS: error= 6.89D-06 at cycle   3 NSaved=   3.
 NSaved= 3 IEnMin= 3 EnMin= -191.556084443692     IErMin= 3 ErrMin= 6.89D-06
 ErrMax= 6.89D-06  0.00D+00 EMaxC= 1.00D-01 BMatC= 2.07D-08 BMatP= 2.81D-07
 IDIUse=1 WtCom= 1.00D+00 WtEn= 0.00D+00
 Coeff-Com: -0.796D-01 0.149D+00 0.930D+00
 Coeff:     -0.796D-01 0.149D+00 0.930D+00
 Gap=     0.315 Goal=   None    Shift=    0.000
 RMSDP=9.38D-07 MaxDP=9.62D-05 DE=-2.84D-07 OVMax= 6.46D-05

 Cycle  10  Pass 1  IDiag  1:
 E= -191.556084467989     Delta-E=       -0.000000024297 Rises=F Damp=F
 DIIS: error= 3.08D-06 at cycle   4 NSaved=   4.
 NSaved= 4 IEnMin= 4 EnMin= -191.556084467989     IErMin= 4 ErrMin= 3.08D-06
 ErrMax= 3.08D-06  0.00D+00 EMaxC= 1.00D-01 BMatC= 2.28D-09 BMatP= 2.07D-08
 IDIUse=1 WtCom= 1.00D+00 WtEn= 0.00D+00
 Coeff-Com: -0.749D-01 0.332D-01 0.338D+00 0.704D+00
 Coeff:     -0.749D-01 0.332D-01 0.338D+00 0.704D+00
 Gap=     0.315 Goal=   None    Shift=    0.000
 RMSDP=1.54D-07 MaxDP=1.32D-05 DE=-2.43D-08 OVMax= 3.11D-05

 Cycle  11  Pass 1  IDiag  1:
 E= -191.556084470634     Delta-E=       -0.000000002645 Rises=F Damp=F
 DIIS: error= 1.70D-06 at cycle   5 NSaved=   5.
 NSaved= 5 IEnMin= 5 EnMin= -191.556084470634     IErMin= 5 ErrMin= 1.70D-06
 ErrMax= 1.70D-06  0.00D+00 EMaxC= 1.00D-01 BMatC= 7.11D-10 BMatP= 2.28D-09
 IDIUse=1 WtCom= 1.00D+00 WtEn= 0.00D+00
 Coeff-Com: -0.163D-01-0.939D-02-0.830D-01 0.345D+00 0.763D+00
 Coeff:     -0.163D-01-0.939D-02-0.830D-01 0.345D+00 0.763D+00
 Gap=     0.315 Goal=   None    Shift=    0.000
 RMSDP=1.31D-07 MaxDP=1.49D-05 DE=-2.64D-09 OVMax= 1.34D-05

 Cycle  12  Pass 1  IDiag  1:
 E= -191.556084471304     Delta-E=       -0.000000000670 Rises=F Damp=F
 DIIS: error= 4.48D-07 at cycle   6 NSaved=   6.
 NSaved= 6 IEnMin= 6 EnMin= -191.556084471304     IErMin= 6 ErrMin= 4.48D-07
 ErrMax= 4.48D-07  0.00D+00 EMaxC= 1.00D-01 BMatC= 4.71D-11 BMatP= 7.11D-10
 IDIUse=1 WtCom= 1.00D+00 WtEn= 0.00D+00
 Coeff-Com:  0.263D-02-0.507D-02-0.772D-01 0.609D-01 0.301D+00 0.718D+00
 Coeff:      0.263D-02-0.507D-02-0.772D-01 0.609D-01 0.301D+00 0.718D+00
 Gap=     0.315 Goal=   None    Shift=    0.000
 RMSDP=2.74D-08 MaxDP=2.69D-06 DE=-6.70D-10 OVMax= 3.71D-06

 Cycle  13  Pass 1  IDiag  1:
 E= -191.556084471362     Delta-E=       -0.000000000058 Rises=F Damp=F
 DIIS: error= 6.33D-08 at cycle   7 NSaved=   7.
 NSaved= 7 IEnMin= 7 EnMin= -191.556084471362     IErMin= 7 ErrMin= 6.33D-08
 ErrMax= 6.33D-08  0.00D+00 EMaxC= 1.00D-01 BMatC= 2.45D-12 BMatP= 4.71D-11
 IDIUse=1 WtCom= 1.00D+00 WtEn= 0.00D+00
 Coeff-Com:  0.156D-02 0.426D-04-0.971D-02-0.128D-01 0.238D-02 0.156D+00
 Coeff-Com:  0.862D+00
 Coeff:      0.156D-02 0.426D-04-0.971D-02-0.128D-01 0.238D-02 0.156D+00
 Coeff:      0.862D+00
 Gap=     0.315 Goal=   None    Shift=    0.000
 RMSDP=6.33D-09 MaxDP=1.98D-07 DE=-5.78D-11 OVMax= 1.95D-06

 SCF Done:  E(RB2PLYPD3) =  -191.556084471     A.U. after   13 cycles
            NFock= 13  Conv=0.63D-08     -V/T= 2.0024
 KE= 1.911047555901D+02 PE=-6.548641098705D+02 EE= 1.687890391918D+02
 Leave Link  502 at Wed Aug 26 11:27:27 2020, MaxMem=  2097152000 cpu:       264.9
 (Enter /opt/cluster/programs/g09/g09_d.01/g09/l801.exe)
 DoSCS=T DFT=T ScalE2(SS,OS)=  0.270000  0.270000
 ExpMin= 7.60D-02 ExpMax= 1.17D+05 ExpMxC= 1.13D+03 IAcc=3 IRadAn=         5 AccDes= 0.00D+00
 HarFok:  IExCor=  205 AccDes= 0.00D+00 IRadAn=         5 IDoV=-2 UseB2=F ITyADJ=14
 ICtDFT= 12500011 ScaDFX=  1.000000  1.000000  1.000000  1.000000
 Largest valence mixing into a core orbital is  1.15D-04
 Largest core mixing into a valence orbital is  1.99D-05
 Range of M.O.s used for correlation:     5   348
 NBasis=   348 NAE=    15 NBE=    15 NFC=     4 NFV=     0
 NROrb=    344 NOA=    11 NOB=    11 NVA=   333 NVB=   333

 **** Warning!!: The largest alpha MO coefficient is  0.26041697D+02

 Leave Link  801 at Wed Aug 26 11:27:27 2020, MaxMem=  2097152000 cpu:         0.9
 (Enter /opt/cluster/programs/g09/g09_d.01/g09/l906.exe)
 DoSCS=T DFT=T ScalE2(SS,OS)=  0.270000  0.270000
 FulOut=F Deriv=F AODrv=F NAtomX=     8
   MMem=        1190  MDisk=          11 MDiskD=          11
  W3Min=     1567764 MinDsk=     2827057 NBas6D=         428
 NBas2D=       93150    NTT=       91806    LW2=     4508827
    MDV=  2096571916 MDiskM=       10875 NBas2p=       89301
 Fully direct method using O(OVN) memory.
 IMap=   1   2   3   4   5   6   7   8   9  10  11
 JobTyp=1 Pass  1:  I=   1 to  11 NPSUse=  8 ParTrn=T ParDer=T DoDerP=F.
 Spin components of T(2) and E(2):
     alpha-alpha T2 =       0.4381712494D-01 E2=     -0.2943768299D-01
     alpha-beta  T2 =       0.2707566772D+00 E2=     -0.1886560098D+00
     beta-beta   T2 =       0.4381712494D-01 E2=     -0.2943768299D-01
 The integrals were generated   1 times.
 E2(B2PLYPD3) =    -0.2475313758D+00 E(B2PLYPD3) =    -0.19180361584715D+03
 Leave Link  906 at Wed Aug 26 11:28:21 2020, MaxMem=  2097152000 cpu:       423.8
 (Enter /opt/cluster/programs/g09/g09_d.01/g09/l601.exe)
 Copying SCF densities to generalized density rwf, IOpCl= 0 IROHF=0.

 **********************************************************************

            Population analysis using the SCF density.

 **********************************************************************

 Orbital symmetries:
       Occupied  (A) (A) (A) (A) (A) (A) (A) (A) (A) (A) (A) (A)
                 (A) (A) (A)
       Virtual   (A) (A) (A) (A) (A) (A) (A) (A) (A) (A) (A) (A)
                 (A) (A) (A) (A) (A) (A) (A) (A) (A) (A) (A) (A)
                 (A) (A) (A) (A) (A) (A) (A) (A) (A) (A) (A) (A)
                 (A) (A) (A) (A) (A) (A) (A) (A) (A) (A) (A) (A)
                 (A) (A) (A) (A) (A) (A) (A) (A) (A) (A) (A) (A)
                 (A) (A) (A) (A) (A) (A) (A) (A) (A) (A) (A) (A)
                 (A) (A) (A) (A) (A) (A) (A) (A) (A) (A) (A) (A)
                 (A) (A) (A) (A) (A) (A) (A) (A) (A) (A) (A) (A)
                 (A) (A) (A) (A) (A) (A) (A) (A) (A) (A) (A) (A)
                 (A) (A) (A) (A) (A) (A) (A) (A) (A) (A) (A) (A)
                 (A) (A) (A) (A) (A) (A) (A) (A) (A) (A) (A) (A)
                 (A) (A) (A) (A) (A) (A) (A) (A) (A) (A) (A) (A)
                 (A) (A) (A) (A) (A) (A) (A) (A) (A) (A) (A) (A)
                 (A) (A) (A) (A) (A) (A) (A) (A) (A) (A) (A) (A)
                 (A) (A) (A) (A) (A) (A) (A) (A) (A) (A) (A) (A)
                 (A) (A) (A) (A) (A) (A) (A) (A) (A) (A) (A) (A)
                 (A) (A) (A) (A) (A) (A) (A) (A) (A) (A) (A) (A)
                 (A) (A) (A) (A) (A) (A) (A) (A) (A) (A) (A) (A)
                 (A) (A) (A) (A) (A) (A) (A) (A) (A) (A) (A) (A)
                 (A) (A) (A) (A) (A) (A) (A) (A) (A) (A) (A) (A)
                 (A) (A) (A) (A) (A) (A) (A) (A) (A) (A) (A) (A)
                 (A) (A) (A) (A) (A) (A) (A) (A) (A) (A) (A) (A)
                 (A) (A) (A) (A) (A) (A) (A) (A) (A) (A) (A) (A)
                 (A) (A) (A) (A) (A) (A) (A) (A) (A) (A) (A) (A)
                 (A) (A) (A) (A) (A) (A) (A) (A) (A) (A) (A) (A)
                 (A) (A) (A) (A) (A) (A) (A) (A) (A) (A) (A) (A)
                 (A) (A) (A) (A) (A) (A) (A) (A) (A) (A) (A) (A)
                 (A) (A) (A) (A) (A) (A) (A) (A) (A)
 The electronic state is 1-A.
 Alpha  occ. eigenvalues --  -19.72170 -10.68766 -10.67519 -10.65795  -1.20245
 Alpha  occ. eigenvalues --   -0.92496  -0.76930  -0.68474  -0.56713  -0.55298
 Alpha  occ. eigenvalues --   -0.50902  -0.47069  -0.44808  -0.34512  -0.33799
 Alpha virt. eigenvalues --   -0.02252   0.05155   0.06716   0.08398   0.09453
 Alpha virt. eigenvalues --    0.12311   0.14027   0.15300   0.17289   0.19007
 Alpha virt. eigenvalues --    0.19880   0.21501   0.24193   0.27414   0.28505
 Alpha virt. eigenvalues --    0.29196   0.31732   0.34107   0.36197   0.38182
 Alpha virt. eigenvalues --    0.38773   0.40697   0.42147   0.45870   0.46669
 Alpha virt. eigenvalues --    0.48334   0.51715   0.53130   0.55514   0.57032
 Alpha virt. eigenvalues --    0.60414   0.64458   0.66102   0.68927   0.71025
 Alpha virt. eigenvalues --    0.73765   0.75719   0.76576   0.79883   0.80259
 Alpha virt. eigenvalues --    0.80638   0.83011   0.83604   0.84264   0.85292
 Alpha virt. eigenvalues --    0.88669   0.91567   0.92914   0.93929   0.94708
 Alpha virt. eigenvalues --    0.95891   0.98465   1.00734   1.02042   1.05608
 Alpha virt. eigenvalues --    1.07895   1.10094   1.15013   1.17061   1.18945
 Alpha virt. eigenvalues --    1.20558   1.23058   1.28517   1.34691   1.39767
 Alpha virt. eigenvalues --    1.42401   1.46486   1.48962   1.50689   1.53842
 Alpha virt. eigenvalues --    1.56995   1.60034   1.66373   1.67553   1.73240
 Alpha virt. eigenvalues --    1.74003   1.77663   1.79335   1.82642   1.84353
 Alpha virt. eigenvalues --    1.85921   1.88311   1.91757   1.93715   1.94167
 Alpha virt. eigenvalues --    1.96385   1.98729   1.99400   2.01197   2.06181
 Alpha virt. eigenvalues --    2.06554   2.08628   2.10436   2.13027   2.14425
 Alpha virt. eigenvalues --    2.16636   2.18866   2.21714   2.23411   2.23905
 Alpha virt. eigenvalues --    2.28169   2.36134   2.37350   2.39213   2.40990
 Alpha virt. eigenvalues --    2.44907   2.44977   2.46369   2.48232   2.52075
 Alpha virt. eigenvalues --    2.56263   2.57285   2.58175   2.60395   2.61401
 Alpha virt. eigenvalues --    2.63389   2.66916   2.69061   2.69420   2.70661
 Alpha virt. eigenvalues --    2.70799   2.74399   2.81118   2.83089   2.88995
 Alpha virt. eigenvalues --    2.91525   2.93622   2.96846   2.99931   3.02783
 Alpha virt. eigenvalues --    3.10508   3.15115   3.21763   3.27328   3.29865
 Alpha virt. eigenvalues --    3.34042   3.38034   3.39753   3.44037   3.46923
 Alpha virt. eigenvalues --    3.51170   3.52674   3.57333   3.63877   3.65380
 Alpha virt. eigenvalues --    3.67365   3.74451   3.78676   3.80485   3.91936
 Alpha virt. eigenvalues --    3.97636   3.99502   4.04234   4.04637   4.09286
 Alpha virt. eigenvalues --    4.11526   4.19823   4.23457   4.24280   4.32234
 Alpha virt. eigenvalues --    4.35066   4.39781   4.54044   4.60902   4.62744
 Alpha virt. eigenvalues --    4.65964   4.83244   4.86141   4.93670   4.99706
 Alpha virt. eigenvalues --    5.02470   5.07499   5.11154   5.14266   5.17612
 Alpha virt. eigenvalues --    5.21441   5.28901   5.31776   5.35478   5.39737
 Alpha virt. eigenvalues --    5.45294   5.50561   5.51078   5.58691   5.58971
 Alpha virt. eigenvalues --    5.62340   5.65099   5.67324   5.69043   5.72678
 Alpha virt. eigenvalues --    5.74399   5.79574   5.81783   5.83669   5.87972
 Alpha virt. eigenvalues --    5.94814   5.97681   5.98386   6.01516   6.03210
 Alpha virt. eigenvalues --    6.06230   6.09992   6.11704   6.13597   6.15262
 Alpha virt. eigenvalues --    6.17721   6.20854   6.23642   6.26610   6.28039
 Alpha virt. eigenvalues --    6.29352   6.31556   6.36508   6.38584   6.40844
 Alpha virt. eigenvalues --    6.46075   6.47602   6.53322   6.56701   6.58666
 Alpha virt. eigenvalues --    6.61268   6.69380   6.72753   6.77306   6.82085
 Alpha virt. eigenvalues --    6.84217   6.89095   6.90722   6.96172   6.99672
 Alpha virt. eigenvalues --    7.01464   7.06436   7.09468   7.13449   7.16396
 Alpha virt. eigenvalues --    7.21270   7.28015   7.31304   7.39843   7.45292
 Alpha virt. eigenvalues --    7.49380   7.55245   7.61882   7.64170   7.68452
 Alpha virt. eigenvalues --    7.71236   7.72042   7.75039   7.80481   7.82370
 Alpha virt. eigenvalues --    7.85340   7.89053   7.91375   7.96915   7.99225
 Alpha virt. eigenvalues --    8.02985   8.07560   8.08785   8.14262   8.19097
 Alpha virt. eigenvalues --    8.23829   8.24703   8.26407   8.28026   8.31176
 Alpha virt. eigenvalues --    8.32152   8.38618   8.43394   8.50224   8.55812
 Alpha virt. eigenvalues --    8.57537   8.61183   8.64892   8.73967   8.77350
 Alpha virt. eigenvalues --    8.80414   8.89885   8.92114   8.98476   9.01505
 Alpha virt. eigenvalues --    9.05831   9.09406   9.13050   9.15801   9.25756
 Alpha virt. eigenvalues --    9.35311   9.39641   9.42600   9.44795   9.58631
 Alpha virt. eigenvalues --    9.62507   9.72166   9.77726   9.79840   9.99986
 Alpha virt. eigenvalues --   10.12069  10.22429  10.29352  10.30169  10.43887
 Alpha virt. eigenvalues --   10.57268  10.57907  10.75734  10.94666  10.96151
 Alpha virt. eigenvalues --   11.02203  11.18347  11.28452  11.28743  11.41819
 Alpha virt. eigenvalues --   11.52266  11.69083  11.70509  11.83837  12.07699
 Alpha virt. eigenvalues --   12.12188  12.29053  12.41081  12.56123  12.63851
 Alpha virt. eigenvalues --   12.65134  13.46820  14.01139  14.39162  14.91728
 Alpha virt. eigenvalues --   28.46095  29.11858  29.29610  48.74176 148.04665
 Alpha virt. eigenvalues --  148.74463 148.90383 254.51246
          Condensed to atoms (all electrons):
               1          2          3          4          5          6
     1  C    4.441071   0.658466   0.368707  -0.045097  -0.028206  -0.005199
     2  O    0.658466   7.890011  -0.095715   0.004082   0.008769   0.000139
     3  C    0.368707  -0.095715   5.203259   0.486553   0.355358  -0.038919
     4  C   -0.045097   0.004082   0.486553   4.896526  -0.038731   0.399663
     5  H   -0.028206   0.008769   0.355358  -0.038731   0.600812   0.005737
     6  H   -0.005199   0.000139  -0.038919   0.399663   0.005737   0.592954
     7  H    0.002690  -0.000603  -0.033801   0.408786  -0.006505  -0.037463
     8  H    0.432484  -0.113681  -0.199964   0.015131   0.013553   0.008161
               7          8
     1  C    0.002690   0.432484
     2  O   -0.000603  -0.113681
     3  C   -0.033801  -0.199964
     4  C    0.408786   0.015131
     5  H   -0.006505   0.013553
     6  H   -0.037463   0.008161
     7  H    0.557897  -0.001145
     8  H   -0.001145   0.770974
 Mulliken charges:
               1
     1  C    0.175085
     2  O   -0.351468
     3  C   -0.045476
     4  C   -0.126912
     5  H    0.089213
     6  H    0.074927
     7  H    0.110143
     8  H    0.074487
 Sum of Mulliken charges =   0.00000
 Mulliken charges with hydrogens summed into heavy atoms:
               1
     1  C    0.249572
     2  O   -0.351468
     3  C    0.043737
     4  C    0.058158
 Electronic spatial extent (au):  <R**2>=            300.5312
 Charge=              0.0000 electrons
 Dipole moment (field-independent basis, Debye):
    X=             -3.5553    Y=             -0.7014    Z=              0.1588  Tot=              3.6273
 Quadrupole moment (field-independent basis, Debye-Ang):
   XX=            -27.5121   YY=            -21.6662   ZZ=            -25.2426
   XY=             -0.8485   XZ=              0.1590   YZ=             -0.2325
 Traceless Quadrupole moment (field-independent basis, Debye-Ang):
   XX=             -2.7051   YY=              3.1408   ZZ=             -0.4356
   XY=             -0.8485   XZ=              0.1590   YZ=             -0.2325
 Octapole moment (field-independent basis, Debye-Ang**2):
  XXX=            -14.9117  YYY=             -0.5399  ZZZ=             -0.0236  XYY=              0.4070
  XXY=             -0.8047  XXZ=              0.2538  XZZ=              4.8703  YZZ=             -0.4865
  YYZ=              0.4986  XYZ=              0.4646
 Hexadecapole moment (field-independent basis, Debye-Ang**3):
 XXXX=           -306.6233 YYYY=            -54.4695 ZZZZ=            -27.9672 XXXY=             -4.8736
 XXXZ=              0.8843 YYYX=              0.0623 YYYZ=             -0.7964 ZZZX=             -0.0206
 ZZZY=             -0.2063 XXYY=            -58.9917 XXZZ=            -58.2198 YYZZ=            -15.7735
 XXYZ=             -1.0371 YYXZ=             -0.5794 ZZXY=             -0.2565
 N-N= 1.034142306173D+02 E-N=-6.548641148796D+02  KE= 1.911047555901D+02
 Leave Link  601 at Wed Aug 26 11:28:22 2020, MaxMem=  2097152000 cpu:         0.5
 (Enter /opt/cluster/programs/g09/g09_d.01/g09/l9999.exe)
 1\1\GINC-NODE04\SP\RB2PLYPD3-FC\def2QZVP\C3H4O1\BOITTIER\26-Aug-2020\0
 \\#p B2PLYPD3/Def2QZVP\\acrolein\\0,1\C,0,-4.971018,-1.415125,0.884849
 \O,0,-3.938738,-0.847073,0.685302\C,0,-5.207683,-2.834833,1.082528\C,0
 ,-6.43078,-3.292137,1.454075\H,0,-4.230404,-3.508276,1.099633\H,0,-7.4
 36913,-2.573083,1.275715\H,0,-6.60439,-4.314452,1.6607\H,0,-5.706308,-
 0.892719,0.818959\\Version=ES64L-G09RevD.01\State=1-A\HF=-191.5560845\
 MP2=-191.8036158\RMSD=6.329e-09\PG=C01 [X(C3H4O1)]\\@


 SOME THINGS ARE EASY, THEY ARE ONLY HARD TO DO.
            -- A. EINSTEIN TO J. O. HIRSCHFELDER
 THE ONLY TROUBLE WITH A SURE THING IS THE UNCERTAINTY.
     -- FROM A TEABAG (BELONGING TO W.H.?)
 Job cpu time:       0 days  0 hours 11 minutes 43.0 seconds.
 File lengths (MBytes):  RWF=     49 Int=      0 D2E=      0 Chk=      7 Scr=      1
 Normal termination of Gaussian 09 at Wed Aug 26 11:28:23 2020.
