 Entering Gaussian System, Link 0=/opt/cluster/programs/g09/g09_d.01/g09//g09
 Input=/home/boittier/MDCM/nms_sampling/acrolein_geom.xyz.dir/energies/acrolein_98_energy.com
 Output=/scratch/boittier/acrolein_98_energy/acrolein_98_energy.out
 Initial command:
 /opt/cluster/programs/g09/g09_d.01/g09/l1.exe "/scratch/boittier/acrolein_98_energy/Gau-240822.inp" -scrdir="/scratch/boittier/acrolein_98_energy/"
 Entering Link 1 = /opt/cluster/programs/g09/g09_d.01/g09/l1.exe PID=    240823.
  
 Copyright (c) 1988,1990,1992,1993,1995,1998,2003,2009,2013,
            Gaussian, Inc.  All Rights Reserved.
  
 This is part of the Gaussian(R) 09 program.  It is based on
 the Gaussian(R) 03 system (copyright 2003, Gaussian, Inc.),
 the Gaussian(R) 98 system (copyright 1998, Gaussian, Inc.),
 the Gaussian(R) 94 system (copyright 1995, Gaussian, Inc.),
 the Gaussian 92(TM) system (copyright 1992, Gaussian, Inc.),
 the Gaussian 90(TM) system (copyright 1990, Gaussian, Inc.),
 the Gaussian 88(TM) system (copyright 1988, Gaussian, Inc.),
 the Gaussian 86(TM) system (copyright 1986, Carnegie Mellon
 University), and the Gaussian 82(TM) system (copyright 1983,
 Carnegie Mellon University). Gaussian is a federally registered
 trademark of Gaussian, Inc.
  
 This software contains proprietary and confidential information,
 including trade secrets, belonging to Gaussian, Inc.
  
 This software is provided under written license and may be
 used, copied, transmitted, or stored only in accord with that
 written license.
  
 The following legend is applicable only to US Government
 contracts under FAR:
  
                    RESTRICTED RIGHTS LEGEND
  
 Use, reproduction and disclosure by the US Government is
 subject to restrictions as set forth in subparagraphs (a)
 and (c) of the Commercial Computer Software - Restricted
 Rights clause in FAR 52.227-19.
  
 Gaussian, Inc.
 340 Quinnipiac St., Bldg. 40, Wallingford CT 06492
  
  
 ---------------------------------------------------------------
 Warning -- This program may not be used in any manner that
 competes with the business of Gaussian, Inc. or will provide
 assistance to any competitor of Gaussian, Inc.  The licensee
 of this program is prohibited from giving any competitor of
 Gaussian, Inc. access to this program.  By using this program,
 the user acknowledges that Gaussian, Inc. is engaged in the
 business of creating and licensing software in the field of
 computational chemistry and represents and warrants to the
 licensee that it is not a competitor of Gaussian, Inc. and that
 it will not use this program in any manner prohibited above.
 ---------------------------------------------------------------
  

 Cite this work as:
 Gaussian 09, Revision D.01,
 M. J. Frisch, G. W. Trucks, H. B. Schlegel, G. E. Scuseria, 
 M. A. Robb, J. R. Cheeseman, G. Scalmani, V. Barone, B. Mennucci, 
 G. A. Petersson, H. Nakatsuji, M. Caricato, X. Li, H. P. Hratchian, 
 A. F. Izmaylov, J. Bloino, G. Zheng, J. L. Sonnenberg, M. Hada, 
 M. Ehara, K. Toyota, R. Fukuda, J. Hasegawa, M. Ishida, T. Nakajima, 
 Y. Honda, O. Kitao, H. Nakai, T. Vreven, J. A. Montgomery, Jr., 
 J. E. Peralta, F. Ogliaro, M. Bearpark, J. J. Heyd, E. Brothers, 
 K. N. Kudin, V. N. Staroverov, T. Keith, R. Kobayashi, J. Normand, 
 K. Raghavachari, A. Rendell, J. C. Burant, S. S. Iyengar, J. Tomasi, 
 M. Cossi, N. Rega, J. M. Millam, M. Klene, J. E. Knox, J. B. Cross, 
 V. Bakken, C. Adamo, J. Jaramillo, R. Gomperts, R. E. Stratmann, 
 O. Yazyev, A. J. Austin, R. Cammi, C. Pomelli, J. W. Ochterski, 
 R. L. Martin, K. Morokuma, V. G. Zakrzewski, G. A. Voth, 
 P. Salvador, J. J. Dannenberg, S. Dapprich, A. D. Daniels, 
 O. Farkas, J. B. Foresman, J. V. Ortiz, J. Cioslowski, 
 and D. J. Fox, Gaussian, Inc., Wallingford CT, 2013.
 
 ******************************************
 Gaussian 09:  ES64L-G09RevD.01 24-Apr-2013
                26-Aug-2020 
 ******************************************
 %chk=/home/boittier/MDCM/nms_sampling/acrolein_geom.xyz.dir/acrolein_98.chk
 %nproc=8
 Will use up to    8 processors via shared memory.
 %mem=16000MB
 --------------------
 #p B2PLYPD3/Def2QZVP
 --------------------
 1/38=1/1;
 2/12=2,17=6,18=5,40=1/2;
 3/5=45,7=101,11=9,16=1,25=1,30=1,74=-60/1,2,3;
 4//1;
 5/5=2,38=5/2;
 8/10=1/1;
 9/16=-3/6;
 6/7=2,8=2,9=2,10=2/1;
 99/5=1,9=1/99;
 Leave Link    1 at Wed Aug 26 21:18:42 2020, MaxMem=  2097152000 cpu:         2.1
 (Enter /opt/cluster/programs/g09/g09_d.01/g09/l101.exe)
 --------
 acrolein
 --------
 Symbolic Z-matrix:
 Charge =  0 Multiplicity = 1
 C                    -5.00179  -1.39597   0.87315 
 O                    -3.94064  -0.86617   0.67255 
 C                    -5.19483  -2.80846   1.13343 
 C                    -6.4022   -3.3169    1.4116 
 H                    -4.28323  -3.41704   1.09637 
 H                    -7.24443  -2.65797   1.42606 
 H                    -6.56845  -4.35386   1.62124 
 H                    -5.94556  -0.7769    0.93746 
 
 NAtoms=      8 NQM=        8 NQMF=       0 NMMI=      0 NMMIF=      0
                NMic=       0 NMicF=      0.
                    Isotopes and Nuclear Properties:
 (Nuclear quadrupole moments (NQMom) in fm**2, nuclear magnetic moments (NMagM)
  in nuclear magnetons)

  Atom         1           2           3           4           5           6           7           8
 IAtWgt=          12          16          12          12           1           1           1           1
 AtmWgt=  12.0000000  15.9949146  12.0000000  12.0000000   1.0078250   1.0078250   1.0078250   1.0078250
 NucSpn=           0           0           0           0           1           1           1           1
 AtZEff=   0.0000000   0.0000000   0.0000000   0.0000000   0.0000000   0.0000000   0.0000000   0.0000000
 NQMom=    0.0000000   0.0000000   0.0000000   0.0000000   0.0000000   0.0000000   0.0000000   0.0000000
 NMagM=    0.0000000   0.0000000   0.0000000   0.0000000   2.7928460   2.7928460   2.7928460   2.7928460
 AtZNuc=   6.0000000   8.0000000   6.0000000   6.0000000   1.0000000   1.0000000   1.0000000   1.0000000
 Leave Link  101 at Wed Aug 26 21:18:44 2020, MaxMem=  2097152000 cpu:         0.5
 (Enter /opt/cluster/programs/g09/g09_d.01/g09/l202.exe)
                          Input orientation:                          
 ---------------------------------------------------------------------
 Center     Atomic      Atomic             Coordinates (Angstroms)
 Number     Number       Type             X           Y           Z
 ---------------------------------------------------------------------
      1          6           0       -5.001793   -1.395969    0.873150
      2          8           0       -3.940636   -0.866167    0.672548
      3          6           0       -5.194829   -2.808456    1.133434
      4          6           0       -6.402200   -3.316901    1.411604
      5          1           0       -4.283228   -3.417037    1.096369
      6          1           0       -7.244429   -2.657974    1.426062
      7          1           0       -6.568447   -4.353856    1.621239
      8          1           0       -5.945559   -0.776900    0.937455
 ---------------------------------------------------------------------
                    Distance matrix (angstroms):
                    1          2          3          4          5
     1  C    0.000000
     2  O    1.202907   0.000000
     3  C    1.449183   2.357520   0.000000
     4  C    2.437427   3.551281   1.339268   0.000000
     5  H    2.156589   2.608435   1.096705   2.144631   0.000000
     6  H    2.632068   3.833198   2.075846   1.069459   3.074668
     7  H    3.429743   4.468711   2.124392   1.070916   2.524944
     8  H    1.130520   2.024317   2.174678   2.623918   3.123927
                    6          7          8
     6  H    0.000000
     7  H    1.836045   0.000000
     8  H    2.337571   3.694613   0.000000
 Stoichiometry    C3H4O
 Framework group  C1[X(C3H4O)]
 Deg. of freedom    18
 Full point group                 C1      NOp   1
 Largest Abelian subgroup         C1      NOp   1
 Largest concise Abelian subgroup C1      NOp   1
                         Standard orientation:                         
 ---------------------------------------------------------------------
 Center     Atomic      Atomic             Coordinates (Angstroms)
 Number     Number       Type             X           Y           Z
 ---------------------------------------------------------------------
      1          6           0       -0.668958    0.338286    0.021313
      2          8           0       -1.782144   -0.116077   -0.015533
      3          6           0        0.552677   -0.441241    0.012502
      4          6           0        1.760034    0.137954   -0.008962
      5          1           0        0.410492   -1.528689    0.012901
      6          1           0        1.815848    1.205948   -0.004917
      7          1           0        2.676488   -0.415695   -0.030075
      8          1           0       -0.508196    1.457058   -0.002758
 ---------------------------------------------------------------------
 Rotational constants (GHZ):     49.1055676      4.6943336      4.2856836
 Leave Link  202 at Wed Aug 26 21:18:46 2020, MaxMem=  2097152000 cpu:         0.0
 (Enter /opt/cluster/programs/g09/g09_d.01/g09/l301.exe)
 Standard basis: def2QZVP (5D, 7F)
 Ernie: Thresh=  0.10000D-02 Tol=  0.10000D-05 Strict=F.
 There are   428 symmetry adapted cartesian basis functions of A   symmetry.
 There are   348 symmetry adapted basis functions of A   symmetry.
   348 basis functions,   520 primitive gaussians,   428 cartesian basis functions
    15 alpha electrons       15 beta electrons
       nuclear repulsion energy       103.6196244250 Hartrees.
 IExCor=  419 DFT=T Ex+Corr=B2PLYPD3 ExCW=0 ScaHFX=  0.530000
 ScaDFX=  0.470000  0.470000  0.730000  0.730000 ScalE2=  0.270000  0.270000
 IRadAn=      0 IRanWt=     -1 IRanGd=            0 ICorTp=0 IEmpDi=141
 NAtoms=    8 NActive=    8 NUniq=    8 SFac= 1.00D+00 NAtFMM=   60 NAOKFM=F Big=F
 Integral buffers will be    131072 words long.
 Regular integral format.
 Two-electron integral symmetry is turned on.
 R6Disp:  Grimme-D3(BJ) Dispersion energy=       -0.0035919539 Hartrees.
 Nuclear repulsion after empirical dispersion term =      103.6160324711 Hartrees.
 Leave Link  301 at Wed Aug 26 21:18:47 2020, MaxMem=  2097152000 cpu:         0.5
 (Enter /opt/cluster/programs/g09/g09_d.01/g09/l302.exe)
 NPDir=0 NMtPBC=     1 NCelOv=     1 NCel=       1 NClECP=     1 NCelD=      1
         NCelK=      1 NCelE2=     1 NClLst=     1 CellRange=     0.0.
 One-electron integrals computed using PRISM.
   1 Symmetry operations used in ECPInt.
 ECPInt:  NShTT=    5886 NPrTT=   14376 LenC2=    5780 LenP2D=   12189.
 LDataN:  DoStor=T MaxTD1= 8 Len=  415
 NBasis=   348 RedAO= T EigKep=  5.74D-05  NBF=   348
 NBsUse=   348 1.00D-06 EigRej= -1.00D+00 NBFU=   348
 Precomputing XC quadrature grid using
 IXCGrd= 4 IRadAn=           0 IRanWt=          -1 IRanGd=           0 AccXCQ= 0.00D+00.
 Generated NRdTot=       0 NPtTot=           0 NUsed=           0 NTot=          32
 NSgBfM=   428   428   428   428   428 MxSgAt=     8 MxSgA2=     8.
 Leave Link  302 at Wed Aug 26 21:18:48 2020, MaxMem=  2097152000 cpu:         2.5
 (Enter /opt/cluster/programs/g09/g09_d.01/g09/l303.exe)
 DipDrv:  MaxL=1.
 Leave Link  303 at Wed Aug 26 21:18:48 2020, MaxMem=  2097152000 cpu:         0.3
 (Enter /opt/cluster/programs/g09/g09_d.01/g09/l401.exe)
 ExpMin= 7.60D-02 ExpMax= 1.17D+05 ExpMxC= 1.13D+03 IAcc=2 IRadAn=         4 AccDes= 0.00D+00
 Harris functional with IExCor=  419 and IRadAn=       4 diagonalized for initial guess.
 HarFok:  IExCor=  419 AccDes= 0.00D+00 IRadAn=         4 IDoV= 1 UseB2=F ITyADJ=14
 ICtDFT=  3500011 ScaDFX=  1.000000  1.000000  1.000000  1.000000
 FoFCou: FMM=F IPFlag=           0 FMFlag=      100000 FMFlg1=           0
         NFxFlg=           0 DoJE=T BraDBF=F KetDBF=T FulRan=T
         wScrn=  0.000000 ICntrl=     500 IOpCl=  0 I1Cent=   200000004 NGrid=           0
         NMat0=    1 NMatS0=      1 NMatT0=    0 NMatD0=    1 NMtDS0=    0 NMtDT0=    0
 Petite list used in FoFCou.
 Harris En= -192.046161907158    
 JPrj=0 DoOrth=F DoCkMO=F.
 Leave Link  401 at Wed Aug 26 21:18:49 2020, MaxMem=  2097152000 cpu:         6.1
 (Enter /opt/cluster/programs/g09/g09_d.01/g09/l502.exe)
 Closed shell SCF:
 Using DIIS extrapolation, IDIIS=  1040.
 Integral symmetry usage will be decided dynamically.
 Keep R1 ints in memory in canonical form, NReq=1883905047.
 IVT=      574566 IEndB=      574566 NGot=  2097152000 MDV=   252723534
 LenX=   252723534 LenY=   252539909
 Requested convergence on RMS density matrix=1.00D-08 within 128 cycles.
 Requested convergence on MAX density matrix=1.00D-06.
 Requested convergence on             energy=1.00D-06.
 No special actions if energy rises.
 FoFCou: FMM=F IPFlag=           0 FMFlag=           0 FMFlg1=           0
         NFxFlg=           0 DoJE=F BraDBF=F KetDBF=F FulRan=T
         wScrn=  0.000000 ICntrl=     600 IOpCl=  0 I1Cent=           0 NGrid=           0
         NMat0=    1 NMatS0=  60726 NMatT0=    0 NMatD0=    1 NMtDS0=    0 NMtDT0=    0
 Symmetry not used in FoFCou.
 Integral accuracy reduced to 1.0D-05 until final iterations.

 Cycle   1  Pass 0  IDiag  1:
 E= -191.474487560313    
 DIIS: error= 2.79D-02 at cycle   1 NSaved=   1.
 NSaved= 1 IEnMin= 1 EnMin= -191.474487560313     IErMin= 1 ErrMin= 2.79D-02
 ErrMax= 2.79D-02  0.00D+00 EMaxC= 1.00D-01 BMatC= 2.56D-01 BMatP= 2.56D-01
 IDIUse=3 WtCom= 7.21D-01 WtEn= 2.79D-01
 Coeff-Com:  0.100D+01
 Coeff-En:   0.100D+01
 Coeff:      0.100D+01
 Gap=     0.290 Goal=   None    Shift=    0.000
 GapD=    0.290 DampG=1.000 DampE=0.500 DampFc=0.5000 IDamp=-1.
 Damping current iteration by 5.00D-01
 RMSDP=1.75D-03 MaxDP=2.16D-01              OVMax= 1.72D-01

 Cycle   2  Pass 0  IDiag  1:
 E= -191.543574001394     Delta-E=       -0.069086441081 Rises=F Damp=T
 DIIS: error= 9.64D-03 at cycle   2 NSaved=   2.
 NSaved= 2 IEnMin= 2 EnMin= -191.543574001394     IErMin= 2 ErrMin= 9.64D-03
 ErrMax= 9.64D-03  0.00D+00 EMaxC= 1.00D-01 BMatC= 3.36D-02 BMatP= 2.56D-01
 IDIUse=3 WtCom= 9.04D-01 WtEn= 9.64D-02
 Coeff-Com: -0.158D+00 0.116D+01
 Coeff-En:   0.000D+00 0.100D+01
 Coeff:     -0.142D+00 0.114D+01
 Gap=     0.350 Goal=   None    Shift=    0.000
 RMSDP=5.91D-04 MaxDP=7.27D-02 DE=-6.91D-02 OVMax= 1.30D-01

 Cycle   3  Pass 0  IDiag  1:
 E= -191.604524671586     Delta-E=       -0.060950670192 Rises=F Damp=F
 DIIS: error= 1.15D-02 at cycle   3 NSaved=   3.
 NSaved= 3 IEnMin= 3 EnMin= -191.604524671586     IErMin= 2 ErrMin= 9.64D-03
 ErrMax= 1.15D-02  0.00D+00 EMaxC= 1.00D-01 BMatC= 1.68D-02 BMatP= 3.36D-02
 IDIUse=3 WtCom= 8.85D-01 WtEn= 1.15D-01
 Coeff-Com: -0.192D+00 0.524D+00 0.667D+00
 Coeff-En:   0.000D+00 0.000D+00 0.100D+01
 Coeff:     -0.170D+00 0.464D+00 0.706D+00
 Gap=     0.332 Goal=   None    Shift=    0.000
 RMSDP=2.41D-04 MaxDP=1.82D-02 DE=-6.10D-02 OVMax= 4.72D-02

 Cycle   4  Pass 0  IDiag  1:
 E= -191.613627310302     Delta-E=       -0.009102638716 Rises=F Damp=F
 DIIS: error= 5.00D-03 at cycle   4 NSaved=   4.
 NSaved= 4 IEnMin= 4 EnMin= -191.613627310302     IErMin= 4 ErrMin= 5.00D-03
 ErrMax= 5.00D-03  0.00D+00 EMaxC= 1.00D-01 BMatC= 3.20D-03 BMatP= 1.68D-02
 IDIUse=3 WtCom= 9.50D-01 WtEn= 5.00D-02
 Coeff-Com: -0.584D-01 0.955D-01 0.367D+00 0.596D+00
 Coeff-En:   0.000D+00 0.000D+00 0.175D+00 0.825D+00
 Coeff:     -0.555D-01 0.907D-01 0.358D+00 0.607D+00
 Gap=     0.319 Goal=   None    Shift=    0.000
 RMSDP=9.86D-05 MaxDP=8.02D-03 DE=-9.10D-03 OVMax= 1.48D-02

 Cycle   5  Pass 0  IDiag  1:
 E= -191.616187574712     Delta-E=       -0.002560264410 Rises=F Damp=F
 DIIS: error= 3.35D-04 at cycle   5 NSaved=   5.
 NSaved= 5 IEnMin= 5 EnMin= -191.616187574712     IErMin= 5 ErrMin= 3.35D-04
 ErrMax= 3.35D-04  0.00D+00 EMaxC= 1.00D-01 BMatC= 1.14D-05 BMatP= 3.20D-03
 IDIUse=3 WtCom= 9.97D-01 WtEn= 3.35D-03
 Coeff-Com: -0.638D-02 0.754D-02 0.467D-01 0.114D+00 0.838D+00
 Coeff-En:   0.000D+00 0.000D+00 0.000D+00 0.000D+00 0.100D+01
 Coeff:     -0.635D-02 0.751D-02 0.465D-01 0.114D+00 0.838D+00
 Gap=     0.317 Goal=   None    Shift=    0.000
 RMSDP=8.70D-06 MaxDP=6.29D-04 DE=-2.56D-03 OVMax= 2.22D-03

 Initial convergence to 1.0D-05 achieved.  Increase integral accuracy.
 Cycle   6  Pass 1  IDiag  1:
 E= -191.616188103793     Delta-E=       -0.000000529081 Rises=F Damp=F
 DIIS: error= 1.02D-04 at cycle   1 NSaved=   1.
 NSaved= 1 IEnMin= 1 EnMin= -191.616188103793     IErMin= 1 ErrMin= 1.02D-04
 ErrMax= 1.02D-04  0.00D+00 EMaxC= 1.00D-01 BMatC= 1.49D-06 BMatP= 1.49D-06
 IDIUse=3 WtCom= 9.99D-01 WtEn= 1.02D-03
 Coeff-Com:  0.100D+01
 Coeff-En:   0.100D+01
 Coeff:      0.100D+01
 Gap=     0.318 Goal=   None    Shift=    0.000
 RMSDP=8.70D-06 MaxDP=6.29D-04 DE=-5.29D-07 OVMax= 7.15D-04

 Cycle   7  Pass 1  IDiag  1:
 E= -191.616189238098     Delta-E=       -0.000001134305 Rises=F Damp=F
 DIIS: error= 7.01D-05 at cycle   2 NSaved=   2.
 NSaved= 2 IEnMin= 2 EnMin= -191.616189238098     IErMin= 2 ErrMin= 7.01D-05
 ErrMax= 7.01D-05  0.00D+00 EMaxC= 1.00D-01 BMatC= 8.23D-07 BMatP= 1.49D-06
 IDIUse=1 WtCom= 1.00D+00 WtEn= 0.00D+00
 Coeff-Com:  0.419D+00 0.581D+00
 Coeff:      0.419D+00 0.581D+00
 Gap=     0.318 Goal=   None    Shift=    0.000
 RMSDP=1.54D-06 MaxDP=8.89D-05 DE=-1.13D-06 OVMax= 4.17D-04

 Cycle   8  Pass 1  IDiag  1:
 E= -191.616189981292     Delta-E=       -0.000000743195 Rises=F Damp=F
 DIIS: error= 1.72D-05 at cycle   3 NSaved=   3.
 NSaved= 3 IEnMin= 3 EnMin= -191.616189981292     IErMin= 3 ErrMin= 1.72D-05
 ErrMax= 1.72D-05  0.00D+00 EMaxC= 1.00D-01 BMatC= 6.00D-08 BMatP= 8.23D-07
 IDIUse=1 WtCom= 1.00D+00 WtEn= 0.00D+00
 Coeff-Com:  0.570D-01 0.183D+00 0.760D+00
 Coeff:      0.570D-01 0.183D+00 0.760D+00
 Gap=     0.318 Goal=   None    Shift=    0.000
 RMSDP=1.29D-06 MaxDP=1.44D-04 DE=-7.43D-07 OVMax= 1.12D-04

 Cycle   9  Pass 1  IDiag  1:
 E= -191.616190036647     Delta-E=       -0.000000055355 Rises=F Damp=F
 DIIS: error= 1.75D-05 at cycle   4 NSaved=   4.
 NSaved= 4 IEnMin= 4 EnMin= -191.616190036647     IErMin= 3 ErrMin= 1.72D-05
 ErrMax= 1.75D-05  0.00D+00 EMaxC= 1.00D-01 BMatC= 1.79D-08 BMatP= 6.00D-08
 IDIUse=1 WtCom= 1.00D+00 WtEn= 0.00D+00
 Coeff-Com: -0.114D+00-0.912D-01 0.419D+00 0.787D+00
 Coeff:     -0.114D+00-0.912D-01 0.419D+00 0.787D+00
 Gap=     0.318 Goal=   None    Shift=    0.000
 RMSDP=6.22D-07 MaxDP=6.42D-05 DE=-5.54D-08 OVMax= 1.07D-04

 Cycle  10  Pass 1  IDiag  1:
 E= -191.616190061951     Delta-E=       -0.000000025304 Rises=F Damp=F
 DIIS: error= 1.76D-06 at cycle   5 NSaved=   5.
 NSaved= 5 IEnMin= 5 EnMin= -191.616190061951     IErMin= 5 ErrMin= 1.76D-06
 ErrMax= 1.76D-06  0.00D+00 EMaxC= 1.00D-01 BMatC= 9.27D-10 BMatP= 1.79D-08
 IDIUse=1 WtCom= 1.00D+00 WtEn= 0.00D+00
 Coeff-Com: -0.264D-01-0.283D-01 0.281D-01 0.224D+00 0.802D+00
 Coeff:     -0.264D-01-0.283D-01 0.281D-01 0.224D+00 0.802D+00
 Gap=     0.318 Goal=   None    Shift=    0.000
 RMSDP=1.26D-07 MaxDP=1.43D-05 DE=-2.53D-08 OVMax= 1.83D-05

 Cycle  11  Pass 1  IDiag  1:
 E= -191.616190062757     Delta-E=       -0.000000000806 Rises=F Damp=F
 DIIS: error= 6.89D-07 at cycle   6 NSaved=   6.
 NSaved= 6 IEnMin= 6 EnMin= -191.616190062757     IErMin= 6 ErrMin= 6.89D-07
 ErrMax= 6.89D-07  0.00D+00 EMaxC= 1.00D-01 BMatC= 1.57D-10 BMatP= 9.27D-10
 IDIUse=1 WtCom= 1.00D+00 WtEn= 0.00D+00
 Coeff-Com:  0.742D-02 0.251D-02-0.671D-01-0.136D-01 0.317D+00 0.754D+00
 Coeff:      0.742D-02 0.251D-02-0.671D-01-0.136D-01 0.317D+00 0.754D+00
 Gap=     0.318 Goal=   None    Shift=    0.000
 RMSDP=4.38D-08 MaxDP=4.67D-06 DE=-8.06D-10 OVMax= 4.21D-06

 Cycle  12  Pass 1  IDiag  1:
 E= -191.616190062917     Delta-E=       -0.000000000160 Rises=F Damp=F
 DIIS: error= 3.19D-07 at cycle   7 NSaved=   7.
 NSaved= 7 IEnMin= 7 EnMin= -191.616190062917     IErMin= 7 ErrMin= 3.19D-07
 ErrMax= 3.19D-07  0.00D+00 EMaxC= 1.00D-01 BMatC= 1.12D-11 BMatP= 1.57D-10
 IDIUse=1 WtCom= 1.00D+00 WtEn= 0.00D+00
 Coeff-Com:  0.497D-02 0.309D-02-0.306D-01-0.172D-01 0.704D-01 0.296D+00
 Coeff-Com:  0.674D+00
 Coeff:      0.497D-02 0.309D-02-0.306D-01-0.172D-01 0.704D-01 0.296D+00
 Coeff:      0.674D+00
 Gap=     0.318 Goal=   None    Shift=    0.000
 RMSDP=6.80D-09 MaxDP=3.36D-07 DE=-1.60D-10 OVMax= 2.13D-06

 SCF Done:  E(RB2PLYPD3) =  -191.616190063     A.U. after   12 cycles
            NFock= 12  Conv=0.68D-08     -V/T= 2.0031
 KE= 1.910154967526D+02 PE=-6.552831830722D+02 EE= 1.690354637857D+02
 Leave Link  502 at Wed Aug 26 21:20:10 2020, MaxMem=  2097152000 cpu:       334.2
 (Enter /opt/cluster/programs/g09/g09_d.01/g09/l801.exe)
 DoSCS=T DFT=T ScalE2(SS,OS)=  0.270000  0.270000
 ExpMin= 7.60D-02 ExpMax= 1.17D+05 ExpMxC= 1.13D+03 IAcc=3 IRadAn=         5 AccDes= 0.00D+00
 HarFok:  IExCor=  205 AccDes= 0.00D+00 IRadAn=         5 IDoV=-2 UseB2=F ITyADJ=14
 ICtDFT= 12500011 ScaDFX=  1.000000  1.000000  1.000000  1.000000
 Largest valence mixing into a core orbital is  1.15D-04
 Largest core mixing into a valence orbital is  1.88D-05
 Range of M.O.s used for correlation:     5   348
 NBasis=   348 NAE=    15 NBE=    15 NFC=     4 NFV=     0
 NROrb=    344 NOA=    11 NOB=    11 NVA=   333 NVB=   333

 **** Warning!!: The largest alpha MO coefficient is  0.31860911D+02

 Leave Link  801 at Wed Aug 26 21:20:11 2020, MaxMem=  2097152000 cpu:         0.9
 (Enter /opt/cluster/programs/g09/g09_d.01/g09/l906.exe)
 DoSCS=T DFT=T ScalE2(SS,OS)=  0.270000  0.270000
 FulOut=F Deriv=F AODrv=F NAtomX=     8
   MMem=        1190  MDisk=          11 MDiskD=          11
  W3Min=     1567764 MinDsk=     2827057 NBas6D=         428
 NBas2D=       93150    NTT=       91806    LW2=     4508827
    MDV=  2096570752 MDiskM=       10875 NBas2p=       89478
 Fully direct method using O(OVN) memory.
 IMap=   1   2   3   4   5   6   7   8   9  10  11
 JobTyp=1 Pass  1:  I=   1 to  11 NPSUse=  8 ParTrn=T ParDer=T DoDerP=F.
 Spin components of T(2) and E(2):
     alpha-alpha T2 =       0.4366859239D-01 E2=     -0.2948010597D-01
     alpha-beta  T2 =       0.2661863154D+00 E2=     -0.1880573844D+00
     beta-beta   T2 =       0.4366859239D-01 E2=     -0.2948010597D-01
 The integrals were generated   1 times.
 E2(B2PLYPD3) =    -0.2470175964D+00 E(B2PLYPD3) =    -0.19186320765928D+03
 Leave Link  906 at Wed Aug 26 21:21:15 2020, MaxMem=  2097152000 cpu:       509.2
 (Enter /opt/cluster/programs/g09/g09_d.01/g09/l601.exe)
 Copying SCF densities to generalized density rwf, IOpCl= 0 IROHF=0.

 **********************************************************************

            Population analysis using the SCF density.

 **********************************************************************

 Orbital symmetries:
       Occupied  (A) (A) (A) (A) (A) (A) (A) (A) (A) (A) (A) (A)
                 (A) (A) (A)
       Virtual   (A) (A) (A) (A) (A) (A) (A) (A) (A) (A) (A) (A)
                 (A) (A) (A) (A) (A) (A) (A) (A) (A) (A) (A) (A)
                 (A) (A) (A) (A) (A) (A) (A) (A) (A) (A) (A) (A)
                 (A) (A) (A) (A) (A) (A) (A) (A) (A) (A) (A) (A)
                 (A) (A) (A) (A) (A) (A) (A) (A) (A) (A) (A) (A)
                 (A) (A) (A) (A) (A) (A) (A) (A) (A) (A) (A) (A)
                 (A) (A) (A) (A) (A) (A) (A) (A) (A) (A) (A) (A)
                 (A) (A) (A) (A) (A) (A) (A) (A) (A) (A) (A) (A)
                 (A) (A) (A) (A) (A) (A) (A) (A) (A) (A) (A) (A)
                 (A) (A) (A) (A) (A) (A) (A) (A) (A) (A) (A) (A)
                 (A) (A) (A) (A) (A) (A) (A) (A) (A) (A) (A) (A)
                 (A) (A) (A) (A) (A) (A) (A) (A) (A) (A) (A) (A)
                 (A) (A) (A) (A) (A) (A) (A) (A) (A) (A) (A) (A)
                 (A) (A) (A) (A) (A) (A) (A) (A) (A) (A) (A) (A)
                 (A) (A) (A) (A) (A) (A) (A) (A) (A) (A) (A) (A)
                 (A) (A) (A) (A) (A) (A) (A) (A) (A) (A) (A) (A)
                 (A) (A) (A) (A) (A) (A) (A) (A) (A) (A) (A) (A)
                 (A) (A) (A) (A) (A) (A) (A) (A) (A) (A) (A) (A)
                 (A) (A) (A) (A) (A) (A) (A) (A) (A) (A) (A) (A)
                 (A) (A) (A) (A) (A) (A) (A) (A) (A) (A) (A) (A)
                 (A) (A) (A) (A) (A) (A) (A) (A) (A) (A) (A) (A)
                 (A) (A) (A) (A) (A) (A) (A) (A) (A) (A) (A) (A)
                 (A) (A) (A) (A) (A) (A) (A) (A) (A) (A) (A) (A)
                 (A) (A) (A) (A) (A) (A) (A) (A) (A) (A) (A) (A)
                 (A) (A) (A) (A) (A) (A) (A) (A) (A) (A) (A) (A)
                 (A) (A) (A) (A) (A) (A) (A) (A) (A) (A) (A) (A)
                 (A) (A) (A) (A) (A) (A) (A) (A) (A) (A) (A) (A)
                 (A) (A) (A) (A) (A) (A) (A) (A) (A)
 The electronic state is 1-A.
 Alpha  occ. eigenvalues --  -19.72796 -10.71473 -10.65505 -10.64492  -1.20005
 Alpha  occ. eigenvalues --   -0.93151  -0.75898  -0.66527  -0.56811  -0.56439
 Alpha  occ. eigenvalues --   -0.50740  -0.47151  -0.46901  -0.34671  -0.33774
 Alpha virt. eigenvalues --   -0.01955   0.05810   0.07110   0.08515   0.09809
 Alpha virt. eigenvalues --    0.12591   0.13973   0.15358   0.17310   0.19885
 Alpha virt. eigenvalues --    0.19987   0.21657   0.25549   0.26411   0.28870
 Alpha virt. eigenvalues --    0.31920   0.33954   0.35915   0.37127   0.38514
 Alpha virt. eigenvalues --    0.39420   0.41464   0.43079   0.45178   0.46036
 Alpha virt. eigenvalues --    0.46723   0.49091   0.53826   0.54793   0.57072
 Alpha virt. eigenvalues --    0.58322   0.64216   0.66187   0.67849   0.71135
 Alpha virt. eigenvalues --    0.74825   0.76213   0.78767   0.80135   0.81058
 Alpha virt. eigenvalues --    0.81482   0.82214   0.82757   0.84090   0.86690
 Alpha virt. eigenvalues --    0.88497   0.91767   0.92596   0.93824   0.95902
 Alpha virt. eigenvalues --    0.96538   0.97818   1.00609   1.02210   1.07564
 Alpha virt. eigenvalues --    1.09841   1.12576   1.15828   1.17519   1.18526
 Alpha virt. eigenvalues --    1.19874   1.25679   1.28249   1.34610   1.40394
 Alpha virt. eigenvalues --    1.42784   1.47227   1.48680   1.55176   1.56952
 Alpha virt. eigenvalues --    1.61432   1.64305   1.65287   1.67117   1.69192
 Alpha virt. eigenvalues --    1.74313   1.76109   1.77162   1.81736   1.82871
 Alpha virt. eigenvalues --    1.86287   1.90810   1.91098   1.93403   1.94098
 Alpha virt. eigenvalues --    1.96096   1.98658   2.00097   2.01602   2.03265
 Alpha virt. eigenvalues --    2.06095   2.09976   2.10983   2.14216   2.15129
 Alpha virt. eigenvalues --    2.16936   2.18801   2.20518   2.24499   2.25669
 Alpha virt. eigenvalues --    2.29377   2.36233   2.36456   2.39463   2.43206
 Alpha virt. eigenvalues --    2.45753   2.46515   2.48941   2.49057   2.54008
 Alpha virt. eigenvalues --    2.54856   2.57257   2.59662   2.61900   2.64075
 Alpha virt. eigenvalues --    2.65467   2.66002   2.67352   2.69659   2.74250
 Alpha virt. eigenvalues --    2.76669   2.78074   2.86090   2.86769   2.87956
 Alpha virt. eigenvalues --    2.89311   2.96528   2.99748   3.01619   3.06908
 Alpha virt. eigenvalues --    3.17950   3.18673   3.27822   3.30338   3.35533
 Alpha virt. eigenvalues --    3.36583   3.40954   3.42878   3.46593   3.50587
 Alpha virt. eigenvalues --    3.51434   3.53049   3.59147   3.60417   3.63980
 Alpha virt. eigenvalues --    3.65757   3.74636   3.77829   3.81621   3.91273
 Alpha virt. eigenvalues --    3.95704   4.00713   4.02558   4.04270   4.06381
 Alpha virt. eigenvalues --    4.10340   4.19500   4.21275   4.26832   4.33563
 Alpha virt. eigenvalues --    4.41602   4.42734   4.55332   4.60662   4.62969
 Alpha virt. eigenvalues --    4.67371   4.83684   4.87502   4.93245   4.99657
 Alpha virt. eigenvalues --    5.04468   5.06001   5.10358   5.10699   5.12694
 Alpha virt. eigenvalues --    5.21908   5.27147   5.29924   5.34746   5.43819
 Alpha virt. eigenvalues --    5.44422   5.53107   5.54161   5.58157   5.59914
 Alpha virt. eigenvalues --    5.67432   5.69646   5.72033   5.73396   5.78093
 Alpha virt. eigenvalues --    5.80916   5.84436   5.86752   5.91621   5.94117
 Alpha virt. eigenvalues --    5.96112   5.98374   5.98603   6.06199   6.07145
 Alpha virt. eigenvalues --    6.09881   6.14292   6.17321   6.19304   6.20042
 Alpha virt. eigenvalues --    6.21327   6.22266   6.27721   6.28465   6.31106
 Alpha virt. eigenvalues --    6.34178   6.36680   6.37056   6.38711   6.45543
 Alpha virt. eigenvalues --    6.49166   6.51475   6.51487   6.53043   6.59897
 Alpha virt. eigenvalues --    6.64597   6.68542   6.71900   6.74162   6.82853
 Alpha virt. eigenvalues --    6.84452   6.85816   6.97764   6.98415   7.04981
 Alpha virt. eigenvalues --    7.05222   7.08035   7.13072   7.15271   7.21499
 Alpha virt. eigenvalues --    7.32159   7.41027   7.46726   7.47448   7.51410
 Alpha virt. eigenvalues --    7.57278   7.58785   7.60569   7.62264   7.66173
 Alpha virt. eigenvalues --    7.67725   7.68395   7.73322   7.74256   7.76608
 Alpha virt. eigenvalues --    7.84765   7.86736   7.90588   8.03802   8.05923
 Alpha virt. eigenvalues --    8.08332   8.09407   8.13121   8.17415   8.23677
 Alpha virt. eigenvalues --    8.24084   8.26524   8.28135   8.32518   8.36796
 Alpha virt. eigenvalues --    8.37138   8.39794   8.49987   8.53818   8.55613
 Alpha virt. eigenvalues --    8.56440   8.61062   8.62089   8.65655   8.69999
 Alpha virt. eigenvalues --    8.79514   8.89323   8.94830   8.99729   9.07369
 Alpha virt. eigenvalues --    9.07945   9.09377   9.17658   9.29347   9.33238
 Alpha virt. eigenvalues --    9.33693   9.41754   9.59253   9.69520   9.77091
 Alpha virt. eigenvalues --    9.81892   9.87014   9.87586   9.90731   9.95251
 Alpha virt. eigenvalues --   10.04932  10.10722  10.22386  10.26698  10.30486
 Alpha virt. eigenvalues --   10.32280  10.37291  10.54074  10.68426  10.99998
 Alpha virt. eigenvalues --   11.07797  11.25322  11.26689  11.29304  11.54787
 Alpha virt. eigenvalues --   11.66726  11.74474  11.81438  12.04540  12.11585
 Alpha virt. eigenvalues --   12.33233  12.37297  12.44944  12.54464  12.94651
 Alpha virt. eigenvalues --   13.21936  13.41455  13.82035  14.36393  14.78325
 Alpha virt. eigenvalues --   28.58142  28.91416  29.54440  48.67770 148.17096
 Alpha virt. eigenvalues --  148.46802 149.14365 254.44137
          Condensed to atoms (all electrons):
               1          2          3          4          5          6
     1  C    4.494946   0.625621   0.362169  -0.055385  -0.031574  -0.003875
     2  O    0.625621   7.875823  -0.089141   0.006118   0.007283   0.000364
     3  C    0.362169  -0.089141   5.157788   0.492368   0.361838  -0.053332
     4  C   -0.055385   0.006118   0.492368   4.863050  -0.037586   0.426283
     5  H   -0.031574   0.007283   0.361838  -0.037586   0.588709   0.005603
     6  H   -0.003875   0.000364  -0.053332   0.426283   0.005603   0.571928
     7  H    0.002586  -0.000536  -0.032298   0.417056  -0.004786  -0.040214
     8  H    0.447213  -0.080689  -0.169530   0.020546   0.009935   0.007045
               7          8
     1  C    0.002586   0.447213
     2  O   -0.000536  -0.080689
     3  C   -0.032298  -0.169530
     4  C    0.417056   0.020546
     5  H   -0.004786   0.009935
     6  H   -0.040214   0.007045
     7  H    0.551691  -0.000696
     8  H   -0.000696   0.711297
 Mulliken charges:
               1
     1  C    0.158299
     2  O   -0.344842
     3  C   -0.029862
     4  C   -0.132450
     5  H    0.100579
     6  H    0.086197
     7  H    0.107199
     8  H    0.054881
 Sum of Mulliken charges =   0.00000
 Mulliken charges with hydrogens summed into heavy atoms:
               1
     1  C    0.213179
     2  O   -0.344842
     3  C    0.070717
     4  C    0.060946
 Electronic spatial extent (au):  <R**2>=            296.5580
 Charge=              0.0000 electrons
 Dipole moment (field-independent basis, Debye):
    X=              3.5110    Y=              0.6829    Z=              0.0376  Tot=              3.5770
 Quadrupole moment (field-independent basis, Debye-Ang):
   XX=            -27.1943   YY=            -21.9359   ZZ=            -25.1933
   XY=             -0.8613   XZ=             -0.1491   YZ=             -0.0066
 Traceless Quadrupole moment (field-independent basis, Debye-Ang):
   XX=             -2.4198   YY=              2.8386   ZZ=             -0.4189
   XY=             -0.8613   XZ=             -0.1491   YZ=             -0.0066
 Octapole moment (field-independent basis, Debye-Ang**2):
  XXX=             15.5042  YYY=             -0.2274  ZZZ=             -0.0694  XYY=             -0.3110
  XXY=              0.5554  XXZ=             -0.0828  XZZ=             -4.2652  YZZ=              0.1310
  YYZ=             -0.0453  XYZ=              0.0354
 Hexadecapole moment (field-independent basis, Debye-Ang**3):
 XXXX=           -297.7841 YYYY=            -55.9174 ZZZZ=            -27.3064 XXXY=             -3.4640
 XXXZ=             -0.6168 YYYX=              0.5158 YYYZ=             -0.0855 ZZZX=              0.0410
 ZZZY=              0.0235 XXYY=            -58.2504 XXZZ=            -56.7554 YYZZ=            -15.5876
 XXYZ=              0.1181 YYXZ=              0.0064 ZZXY=              0.3986
 N-N= 1.036160324711D+02 E-N=-6.552831563910D+02  KE= 1.910154967526D+02
 Leave Link  601 at Wed Aug 26 21:21:19 2020, MaxMem=  2097152000 cpu:         0.6
 (Enter /opt/cluster/programs/g09/g09_d.01/g09/l9999.exe)
 1\1\GINC-NODE27\SP\RB2PLYPD3-FC\def2QZVP\C3H4O1\BOITTIER\26-Aug-2020\0
 \\#p B2PLYPD3/Def2QZVP\\acrolein\\0,1\C,0,-5.001793,-1.395969,0.87315\
 O,0,-3.940636,-0.866167,0.672548\C,0,-5.194829,-2.808456,1.133434\C,0,
 -6.4022,-3.316901,1.411604\H,0,-4.283228,-3.417037,1.096369\H,0,-7.244
 429,-2.657974,1.426062\H,0,-6.568447,-4.353856,1.621239\H,0,-5.945559,
 -0.7769,0.937455\\Version=ES64L-G09RevD.01\State=1-A\HF=-191.6161901\M
 P2=-191.8632077\RMSD=6.803e-09\PG=C01 [X(C3H4O1)]\\@


 I think that all right-thinking people in this
 country are sick and tired of being told that
 ordinary, decent people are fed up in this country
 with being sick and tired.  I'm certainly not!
 But I'm sick and tired of being told that I am!
                               -- Monty Python
 Job cpu time:       0 days  0 hours 14 minutes 17.5 seconds.
 File lengths (MBytes):  RWF=     49 Int=      0 D2E=      0 Chk=      7 Scr=      1
 Normal termination of Gaussian 09 at Wed Aug 26 21:21:19 2020.
