 Entering Gaussian System, Link 0=/opt/cluster/programs/g09/g09_d.01/g09//g09
 Input=/home/boittier/MDCM/nms_sampling/acrolein_geom.xyz.dir/energies/acrolein_1372_energy.com
 Output=/scratch/boittier/acrolein_1372_energy/acrolein_1372_energy.out
 Initial command:
 /opt/cluster/programs/g09/g09_d.01/g09/l1.exe "/scratch/boittier/acrolein_1372_energy/Gau-83257.inp" -scrdir="/scratch/boittier/acrolein_1372_energy/"
 Entering Link 1 = /opt/cluster/programs/g09/g09_d.01/g09/l1.exe PID=     83258.
  
 Copyright (c) 1988,1990,1992,1993,1995,1998,2003,2009,2013,
            Gaussian, Inc.  All Rights Reserved.
  
 This is part of the Gaussian(R) 09 program.  It is based on
 the Gaussian(R) 03 system (copyright 2003, Gaussian, Inc.),
 the Gaussian(R) 98 system (copyright 1998, Gaussian, Inc.),
 the Gaussian(R) 94 system (copyright 1995, Gaussian, Inc.),
 the Gaussian 92(TM) system (copyright 1992, Gaussian, Inc.),
 the Gaussian 90(TM) system (copyright 1990, Gaussian, Inc.),
 the Gaussian 88(TM) system (copyright 1988, Gaussian, Inc.),
 the Gaussian 86(TM) system (copyright 1986, Carnegie Mellon
 University), and the Gaussian 82(TM) system (copyright 1983,
 Carnegie Mellon University). Gaussian is a federally registered
 trademark of Gaussian, Inc.
  
 This software contains proprietary and confidential information,
 including trade secrets, belonging to Gaussian, Inc.
  
 This software is provided under written license and may be
 used, copied, transmitted, or stored only in accord with that
 written license.
  
 The following legend is applicable only to US Government
 contracts under FAR:
  
                    RESTRICTED RIGHTS LEGEND
  
 Use, reproduction and disclosure by the US Government is
 subject to restrictions as set forth in subparagraphs (a)
 and (c) of the Commercial Computer Software - Restricted
 Rights clause in FAR 52.227-19.
  
 Gaussian, Inc.
 340 Quinnipiac St., Bldg. 40, Wallingford CT 06492
  
  
 ---------------------------------------------------------------
 Warning -- This program may not be used in any manner that
 competes with the business of Gaussian, Inc. or will provide
 assistance to any competitor of Gaussian, Inc.  The licensee
 of this program is prohibited from giving any competitor of
 Gaussian, Inc. access to this program.  By using this program,
 the user acknowledges that Gaussian, Inc. is engaged in the
 business of creating and licensing software in the field of
 computational chemistry and represents and warrants to the
 licensee that it is not a competitor of Gaussian, Inc. and that
 it will not use this program in any manner prohibited above.
 ---------------------------------------------------------------
  

 Cite this work as:
 Gaussian 09, Revision D.01,
 M. J. Frisch, G. W. Trucks, H. B. Schlegel, G. E. Scuseria, 
 M. A. Robb, J. R. Cheeseman, G. Scalmani, V. Barone, B. Mennucci, 
 G. A. Petersson, H. Nakatsuji, M. Caricato, X. Li, H. P. Hratchian, 
 A. F. Izmaylov, J. Bloino, G. Zheng, J. L. Sonnenberg, M. Hada, 
 M. Ehara, K. Toyota, R. Fukuda, J. Hasegawa, M. Ishida, T. Nakajima, 
 Y. Honda, O. Kitao, H. Nakai, T. Vreven, J. A. Montgomery, Jr., 
 J. E. Peralta, F. Ogliaro, M. Bearpark, J. J. Heyd, E. Brothers, 
 K. N. Kudin, V. N. Staroverov, T. Keith, R. Kobayashi, J. Normand, 
 K. Raghavachari, A. Rendell, J. C. Burant, S. S. Iyengar, J. Tomasi, 
 M. Cossi, N. Rega, J. M. Millam, M. Klene, J. E. Knox, J. B. Cross, 
 V. Bakken, C. Adamo, J. Jaramillo, R. Gomperts, R. E. Stratmann, 
 O. Yazyev, A. J. Austin, R. Cammi, C. Pomelli, J. W. Ochterski, 
 R. L. Martin, K. Morokuma, V. G. Zakrzewski, G. A. Voth, 
 P. Salvador, J. J. Dannenberg, S. Dapprich, A. D. Daniels, 
 O. Farkas, J. B. Foresman, J. V. Ortiz, J. Cioslowski, 
 and D. J. Fox, Gaussian, Inc., Wallingford CT, 2013.
 
 ******************************************
 Gaussian 09:  ES64L-G09RevD.01 24-Apr-2013
                26-Aug-2020 
 ******************************************
 %chk=/home/boittier/MDCM/nms_sampling/acrolein_geom.xyz.dir/acrolein_1372.chk
 %nproc=8
 Will use up to    8 processors via shared memory.
 %mem=16000MB
 --------------------
 #p B2PLYPD3/Def2QZVP
 --------------------
 1/38=1/1;
 2/12=2,17=6,18=5,40=1/2;
 3/5=45,7=101,11=9,16=1,25=1,30=1,74=-60/1,2,3;
 4//1;
 5/5=2,38=5/2;
 8/10=1/1;
 9/16=-3/6;
 6/7=2,8=2,9=2,10=2/1;
 99/5=1,9=1/99;
 Leave Link    1 at Wed Aug 26 09:06:29 2020, MaxMem=  2097152000 cpu:         0.3
 (Enter /opt/cluster/programs/g09/g09_d.01/g09/l101.exe)
 --------
 acrolein
 --------
 Symbolic Z-matrix:
 Charge =  0 Multiplicity = 1
 C                    -4.99647  -1.40648   0.92208 
 O                    -3.94755  -0.85703   0.62726 
 C                    -5.19576  -2.81589   1.17426 
 C                    -6.40763  -3.31305   1.38489 
 H                    -4.2503   -3.42036   1.20887 
 H                    -7.25753  -2.63987   1.40257 
 H                    -6.53799  -4.30356   1.41992 
 H                    -5.87817  -0.82924   1.00515 
 
 NAtoms=      8 NQM=        8 NQMF=       0 NMMI=      0 NMMIF=      0
                NMic=       0 NMicF=      0.
                    Isotopes and Nuclear Properties:
 (Nuclear quadrupole moments (NQMom) in fm**2, nuclear magnetic moments (NMagM)
  in nuclear magnetons)

  Atom         1           2           3           4           5           6           7           8
 IAtWgt=          12          16          12          12           1           1           1           1
 AtmWgt=  12.0000000  15.9949146  12.0000000  12.0000000   1.0078250   1.0078250   1.0078250   1.0078250
 NucSpn=           0           0           0           0           1           1           1           1
 AtZEff=   0.0000000   0.0000000   0.0000000   0.0000000   0.0000000   0.0000000   0.0000000   0.0000000
 NQMom=    0.0000000   0.0000000   0.0000000   0.0000000   0.0000000   0.0000000   0.0000000   0.0000000
 NMagM=    0.0000000   0.0000000   0.0000000   0.0000000   2.7928460   2.7928460   2.7928460   2.7928460
 AtZNuc=   6.0000000   8.0000000   6.0000000   6.0000000   1.0000000   1.0000000   1.0000000   1.0000000
 Leave Link  101 at Wed Aug 26 09:06:29 2020, MaxMem=  2097152000 cpu:         0.5
 (Enter /opt/cluster/programs/g09/g09_d.01/g09/l202.exe)
                          Input orientation:                          
 ---------------------------------------------------------------------
 Center     Atomic      Atomic             Coordinates (Angstroms)
 Number     Number       Type             X           Y           Z
 ---------------------------------------------------------------------
      1          6           0       -4.996473   -1.406477    0.922084
      2          8           0       -3.947553   -0.857028    0.627263
      3          6           0       -5.195760   -2.815888    1.174260
      4          6           0       -6.407627   -3.313049    1.384887
      5          1           0       -4.250300   -3.420355    1.208869
      6          1           0       -7.257526   -2.639868    1.402567
      7          1           0       -6.537990   -4.303557    1.419922
      8          1           0       -5.878172   -0.829244    1.005150
 ---------------------------------------------------------------------
                    Distance matrix (angstroms):
                    1          2          3          4          5
     1  C    0.000000
     2  O    1.220265   0.000000
     3  C    1.445596   2.386286   0.000000
     4  C    2.416725   3.557808   1.326708   0.000000
     5  H    2.166731   2.645858   1.122708   2.167154   0.000000
     6  H    2.620015   3.838689   2.081823   1.084349   3.112890
     7  H    3.319215   4.383747   2.018685   0.999664   2.461324
     8  H    1.057114   1.967450   2.107377   2.567842   3.066810
                    6          7          8
     6  H    0.000000
     7  H    1.812704   0.000000
     8  H    2.310610   3.560653   0.000000
 Stoichiometry    C3H4O
 Framework group  C1[X(C3H4O)]
 Deg. of freedom    18
 Full point group                 C1      NOp   1
 Largest Abelian subgroup         C1      NOp   1
 Largest concise Abelian subgroup C1      NOp   1
                         Standard orientation:                         
 ---------------------------------------------------------------------
 Center     Atomic      Atomic             Coordinates (Angstroms)
 Number     Number       Type             X           Y           Z
 ---------------------------------------------------------------------
      1          6           0       -0.652561    0.329823   -0.025202
      2          8           0       -1.792565   -0.101319    0.034425
      3          6           0        0.568096   -0.444606   -0.027193
      4          6           0        1.756720    0.143570    0.009879
      5          1           0        0.414538   -1.554525   -0.097712
      6          1           0        1.808990    1.226650    0.005512
      7          1           0        2.578987   -0.408338    0.146273
      8          1           0       -0.495528    1.374051   -0.074379
 ---------------------------------------------------------------------
 Rotational constants (GHZ):     49.6609413      4.6975819      4.2968834
 Leave Link  202 at Wed Aug 26 09:06:29 2020, MaxMem=  2097152000 cpu:         0.0
 (Enter /opt/cluster/programs/g09/g09_d.01/g09/l301.exe)
 Standard basis: def2QZVP (5D, 7F)
 Ernie: Thresh=  0.10000D-02 Tol=  0.10000D-05 Strict=F.
 There are   428 symmetry adapted cartesian basis functions of A   symmetry.
 There are   348 symmetry adapted basis functions of A   symmetry.
   348 basis functions,   520 primitive gaussians,   428 cartesian basis functions
    15 alpha electrons       15 beta electrons
       nuclear repulsion energy       103.9425050207 Hartrees.
 IExCor=  419 DFT=T Ex+Corr=B2PLYPD3 ExCW=0 ScaHFX=  0.530000
 ScaDFX=  0.470000  0.470000  0.730000  0.730000 ScalE2=  0.270000  0.270000
 IRadAn=      0 IRanWt=     -1 IRanGd=            0 ICorTp=0 IEmpDi=141
 NAtoms=    8 NActive=    8 NUniq=    8 SFac= 1.00D+00 NAtFMM=   60 NAOKFM=F Big=F
 Integral buffers will be    131072 words long.
 Regular integral format.
 Two-electron integral symmetry is turned on.
 R6Disp:  Grimme-D3(BJ) Dispersion energy=       -0.0036079394 Hartrees.
 Nuclear repulsion after empirical dispersion term =      103.9388970813 Hartrees.
 Leave Link  301 at Wed Aug 26 09:06:29 2020, MaxMem=  2097152000 cpu:         0.4
 (Enter /opt/cluster/programs/g09/g09_d.01/g09/l302.exe)
 NPDir=0 NMtPBC=     1 NCelOv=     1 NCel=       1 NClECP=     1 NCelD=      1
         NCelK=      1 NCelE2=     1 NClLst=     1 CellRange=     0.0.
 One-electron integrals computed using PRISM.
   1 Symmetry operations used in ECPInt.
 ECPInt:  NShTT=    5886 NPrTT=   14376 LenC2=    5782 LenP2D=   12200.
 LDataN:  DoStor=T MaxTD1= 8 Len=  415
 NBasis=   348 RedAO= T EigKep=  5.60D-05  NBF=   348
 NBsUse=   348 1.00D-06 EigRej= -1.00D+00 NBFU=   348
 Precomputing XC quadrature grid using
 IXCGrd= 4 IRadAn=           0 IRanWt=          -1 IRanGd=           0 AccXCQ= 0.00D+00.
 Generated NRdTot=       0 NPtTot=           0 NUsed=           0 NTot=          32
 NSgBfM=   428   428   428   428   428 MxSgAt=     8 MxSgA2=     8.
 Leave Link  302 at Wed Aug 26 09:06:30 2020, MaxMem=  2097152000 cpu:         3.1
 (Enter /opt/cluster/programs/g09/g09_d.01/g09/l303.exe)
 DipDrv:  MaxL=1.
 Leave Link  303 at Wed Aug 26 09:06:30 2020, MaxMem=  2097152000 cpu:         0.3
 (Enter /opt/cluster/programs/g09/g09_d.01/g09/l401.exe)
 ExpMin= 7.60D-02 ExpMax= 1.17D+05 ExpMxC= 1.13D+03 IAcc=2 IRadAn=         4 AccDes= 0.00D+00
 Harris functional with IExCor=  419 and IRadAn=       4 diagonalized for initial guess.
 HarFok:  IExCor=  419 AccDes= 0.00D+00 IRadAn=         4 IDoV= 1 UseB2=F ITyADJ=14
 ICtDFT=  3500011 ScaDFX=  1.000000  1.000000  1.000000  1.000000
 FoFCou: FMM=F IPFlag=           0 FMFlag=      100000 FMFlg1=           0
         NFxFlg=           0 DoJE=T BraDBF=F KetDBF=T FulRan=T
         wScrn=  0.000000 ICntrl=     500 IOpCl=  0 I1Cent=   200000004 NGrid=           0
         NMat0=    1 NMatS0=      1 NMatT0=    0 NMatD0=    1 NMtDS0=    0 NMtDT0=    0
 Petite list used in FoFCou.
 Harris En= -192.044525206260    
 JPrj=0 DoOrth=F DoCkMO=F.
 Leave Link  401 at Wed Aug 26 09:06:31 2020, MaxMem=  2097152000 cpu:         7.1
 (Enter /opt/cluster/programs/g09/g09_d.01/g09/l502.exe)
 Closed shell SCF:
 Using DIIS extrapolation, IDIIS=  1040.
 Integral symmetry usage will be decided dynamically.
 Keep R1 ints in memory in canonical form, NReq=1883905047.
 IVT=      574566 IEndB=      574566 NGot=  2097152000 MDV=   252723534
 LenX=   252723534 LenY=   252539909
 Requested convergence on RMS density matrix=1.00D-08 within 128 cycles.
 Requested convergence on MAX density matrix=1.00D-06.
 Requested convergence on             energy=1.00D-06.
 No special actions if energy rises.
 FoFCou: FMM=F IPFlag=           0 FMFlag=           0 FMFlg1=           0
         NFxFlg=           0 DoJE=F BraDBF=F KetDBF=F FulRan=T
         wScrn=  0.000000 ICntrl=     600 IOpCl=  0 I1Cent=           0 NGrid=           0
         NMat0=    1 NMatS0=  60726 NMatT0=    0 NMatD0=    1 NMtDS0=    0 NMtDT0=    0
 Symmetry not used in FoFCou.
 Integral accuracy reduced to 1.0D-05 until final iterations.

 Cycle   1  Pass 0  IDiag  1:
 E= -191.463738301531    
 DIIS: error= 2.40D-02 at cycle   1 NSaved=   1.
 NSaved= 1 IEnMin= 1 EnMin= -191.463738301531     IErMin= 1 ErrMin= 2.40D-02
 ErrMax= 2.40D-02  0.00D+00 EMaxC= 1.00D-01 BMatC= 2.57D-01 BMatP= 2.57D-01
 IDIUse=3 WtCom= 7.60D-01 WtEn= 2.40D-01
 Coeff-Com:  0.100D+01
 Coeff-En:   0.100D+01
 Coeff:      0.100D+01
 Gap=     0.290 Goal=   None    Shift=    0.000
 GapD=    0.290 DampG=1.000 DampE=0.500 DampFc=0.5000 IDamp=-1.
 Damping current iteration by 5.00D-01
 RMSDP=1.74D-03 MaxDP=2.07D-01              OVMax= 1.68D-01

 Cycle   2  Pass 0  IDiag  1:
 E= -191.535072733376     Delta-E=       -0.071334431845 Rises=F Damp=T
 DIIS: error= 9.92D-03 at cycle   2 NSaved=   2.
 NSaved= 2 IEnMin= 2 EnMin= -191.535072733376     IErMin= 2 ErrMin= 9.92D-03
 ErrMax= 9.92D-03  0.00D+00 EMaxC= 1.00D-01 BMatC= 3.39D-02 BMatP= 2.57D-01
 IDIUse=3 WtCom= 9.01D-01 WtEn= 9.92D-02
 Coeff-Com: -0.179D+00 0.118D+01
 Coeff-En:   0.000D+00 0.100D+01
 Coeff:     -0.161D+00 0.116D+01
 Gap=     0.348 Goal=   None    Shift=    0.000
 RMSDP=5.79D-04 MaxDP=6.80D-02 DE=-7.13D-02 OVMax= 1.22D-01

 Cycle   3  Pass 0  IDiag  1:
 E= -191.596103946084     Delta-E=       -0.061031212707 Rises=F Damp=F
 DIIS: error= 9.15D-03 at cycle   3 NSaved=   3.
 NSaved= 3 IEnMin= 3 EnMin= -191.596103946084     IErMin= 3 ErrMin= 9.15D-03
 ErrMax= 9.15D-03  0.00D+00 EMaxC= 1.00D-01 BMatC= 1.67D-02 BMatP= 3.39D-02
 IDIUse=3 WtCom= 9.09D-01 WtEn= 9.15D-02
 Coeff-Com: -0.196D+00 0.538D+00 0.658D+00
 Coeff-En:   0.000D+00 0.000D+00 0.100D+01
 Coeff:     -0.178D+00 0.489D+00 0.689D+00
 Gap=     0.328 Goal=   None    Shift=    0.000
 RMSDP=2.41D-04 MaxDP=1.79D-02 DE=-6.10D-02 OVMax= 4.60D-02

 Cycle   4  Pass 0  IDiag  1:
 E= -191.605220635336     Delta-E=       -0.009116689252 Rises=F Damp=F
 DIIS: error= 4.00D-03 at cycle   4 NSaved=   4.
 NSaved= 4 IEnMin= 4 EnMin= -191.605220635336     IErMin= 4 ErrMin= 4.00D-03
 ErrMax= 4.00D-03  0.00D+00 EMaxC= 1.00D-01 BMatC= 3.08D-03 BMatP= 1.67D-02
 IDIUse=3 WtCom= 9.60D-01 WtEn= 4.00D-02
 Coeff-Com: -0.607D-01 0.101D+00 0.361D+00 0.598D+00
 Coeff-En:   0.000D+00 0.000D+00 0.171D+00 0.829D+00
 Coeff:     -0.583D-01 0.974D-01 0.354D+00 0.607D+00
 Gap=     0.318 Goal=   None    Shift=    0.000
 RMSDP=9.99D-05 MaxDP=8.26D-03 DE=-9.12D-03 OVMax= 1.50D-02

 Cycle   5  Pass 0  IDiag  1:
 E= -191.607694078020     Delta-E=       -0.002473442684 Rises=F Damp=F
 DIIS: error= 2.80D-04 at cycle   5 NSaved=   5.
 NSaved= 5 IEnMin= 5 EnMin= -191.607694078020     IErMin= 5 ErrMin= 2.80D-04
 ErrMax= 2.80D-04  0.00D+00 EMaxC= 1.00D-01 BMatC= 1.35D-05 BMatP= 3.08D-03
 IDIUse=3 WtCom= 9.97D-01 WtEn= 2.80D-03
 Coeff-Com: -0.103D-01 0.142D-01 0.677D-01 0.147D+00 0.782D+00
 Coeff-En:   0.000D+00 0.000D+00 0.000D+00 0.000D+00 0.100D+01
 Coeff:     -0.103D-01 0.142D-01 0.675D-01 0.146D+00 0.782D+00
 Gap=     0.316 Goal=   None    Shift=    0.000
 RMSDP=7.49D-06 MaxDP=3.27D-04 DE=-2.47D-03 OVMax= 2.44D-03

 Initial convergence to 1.0D-05 achieved.  Increase integral accuracy.
 Cycle   6  Pass 1  IDiag  1:
 E= -191.607697132874     Delta-E=       -0.000003054854 Rises=F Damp=F
 DIIS: error= 9.26D-05 at cycle   1 NSaved=   1.
 NSaved= 1 IEnMin= 1 EnMin= -191.607697132874     IErMin= 1 ErrMin= 9.26D-05
 ErrMax= 9.26D-05  0.00D+00 EMaxC= 1.00D-01 BMatC= 2.00D-06 BMatP= 2.00D-06
 IDIUse=1 WtCom= 1.00D+00 WtEn= 0.00D+00
 Coeff-Com:  0.100D+01
 Coeff:      0.100D+01
 Gap=     0.317 Goal=   None    Shift=    0.000
 RMSDP=7.49D-06 MaxDP=3.27D-04 DE=-3.05D-06 OVMax= 8.00D-04

 Cycle   7  Pass 1  IDiag  1:
 E= -191.607697969760     Delta-E=       -0.000000836886 Rises=F Damp=F
 DIIS: error= 9.63D-05 at cycle   2 NSaved=   2.
 NSaved= 2 IEnMin= 2 EnMin= -191.607697969760     IErMin= 1 ErrMin= 9.26D-05
 ErrMax= 9.63D-05  0.00D+00 EMaxC= 1.00D-01 BMatC= 1.55D-06 BMatP= 2.00D-06
 IDIUse=1 WtCom= 1.00D+00 WtEn= 0.00D+00
 Coeff-Com:  0.466D+00 0.534D+00
 Coeff:      0.466D+00 0.534D+00
 Gap=     0.317 Goal=   None    Shift=    0.000
 RMSDP=2.24D-06 MaxDP=1.71D-04 DE=-8.37D-07 OVMax= 6.99D-04

 Cycle   8  Pass 1  IDiag  1:
 E= -191.607699488564     Delta-E=       -0.000001518805 Rises=F Damp=F
 DIIS: error= 1.80D-05 at cycle   3 NSaved=   3.
 NSaved= 3 IEnMin= 3 EnMin= -191.607699488564     IErMin= 3 ErrMin= 1.80D-05
 ErrMax= 1.80D-05  0.00D+00 EMaxC= 1.00D-01 BMatC= 6.98D-08 BMatP= 1.55D-06
 IDIUse=1 WtCom= 1.00D+00 WtEn= 0.00D+00
 Coeff-Com:  0.716D-01 0.173D+00 0.756D+00
 Coeff:      0.716D-01 0.173D+00 0.756D+00
 Gap=     0.317 Goal=   None    Shift=    0.000
 RMSDP=1.34D-06 MaxDP=1.50D-04 DE=-1.52D-06 OVMax= 1.02D-04

 Cycle   9  Pass 1  IDiag  1:
 E= -191.607699562945     Delta-E=       -0.000000074380 Rises=F Damp=F
 DIIS: error= 1.10D-05 at cycle   4 NSaved=   4.
 NSaved= 4 IEnMin= 4 EnMin= -191.607699562945     IErMin= 4 ErrMin= 1.10D-05
 ErrMax= 1.10D-05  0.00D+00 EMaxC= 1.00D-01 BMatC= 1.19D-08 BMatP= 6.98D-08
 IDIUse=1 WtCom= 1.00D+00 WtEn= 0.00D+00
 Coeff-Com: -0.949D-01-0.583D-01 0.289D+00 0.864D+00
 Coeff:     -0.949D-01-0.583D-01 0.289D+00 0.864D+00
 Gap=     0.317 Goal=   None    Shift=    0.000
 RMSDP=6.95D-07 MaxDP=7.39D-05 DE=-7.44D-08 OVMax= 9.54D-05

 Cycle  10  Pass 1  IDiag  1:
 E= -191.607699582711     Delta-E=       -0.000000019767 Rises=F Damp=F
 DIIS: error= 4.13D-06 at cycle   5 NSaved=   5.
 NSaved= 5 IEnMin= 5 EnMin= -191.607699582711     IErMin= 5 ErrMin= 4.13D-06
 ErrMax= 4.13D-06  0.00D+00 EMaxC= 1.00D-01 BMatC= 3.34D-09 BMatP= 1.19D-08
 IDIUse=1 WtCom= 1.00D+00 WtEn= 0.00D+00
 Coeff-Com: -0.558D-01-0.436D-01 0.739D-01 0.478D+00 0.548D+00
 Coeff:     -0.558D-01-0.436D-01 0.739D-01 0.478D+00 0.548D+00
 Gap=     0.317 Goal=   None    Shift=    0.000
 RMSDP=1.97D-07 MaxDP=2.14D-05 DE=-1.98D-08 OVMax= 1.86D-05

 Cycle  11  Pass 1  IDiag  1:
 E= -191.607699585185     Delta-E=       -0.000000002474 Rises=F Damp=F
 DIIS: error= 9.46D-07 at cycle   6 NSaved=   6.
 NSaved= 6 IEnMin= 6 EnMin= -191.607699585185     IErMin= 6 ErrMin= 9.46D-07
 ErrMax= 9.46D-07  0.00D+00 EMaxC= 1.00D-01 BMatC= 1.63D-10 BMatP= 3.34D-09
 IDIUse=1 WtCom= 1.00D+00 WtEn= 0.00D+00
 Coeff-Com:  0.645D-02 0.244D-02-0.566D-01-0.187D-01 0.113D+00 0.953D+00
 Coeff:      0.645D-02 0.244D-02-0.566D-01-0.187D-01 0.113D+00 0.953D+00
 Gap=     0.317 Goal=   None    Shift=    0.000
 RMSDP=5.72D-08 MaxDP=5.40D-06 DE=-2.47D-09 OVMax= 6.71D-06

 Cycle  12  Pass 1  IDiag  1:
 E= -191.607699585414     Delta-E=       -0.000000000229 Rises=F Damp=F
 DIIS: error= 2.55D-07 at cycle   7 NSaved=   7.
 NSaved= 7 IEnMin= 7 EnMin= -191.607699585414     IErMin= 7 ErrMin= 2.55D-07
 ErrMax= 2.55D-07  0.00D+00 EMaxC= 1.00D-01 BMatC= 1.77D-11 BMatP= 1.63D-10
 IDIUse=1 WtCom= 1.00D+00 WtEn= 0.00D+00
 Coeff-Com:  0.595D-02 0.394D-02-0.268D-01-0.337D-01-0.106D-01 0.318D+00
 Coeff-Com:  0.744D+00
 Coeff:      0.595D-02 0.394D-02-0.268D-01-0.337D-01-0.106D-01 0.318D+00
 Coeff:      0.744D+00
 Gap=     0.317 Goal=   None    Shift=    0.000
 RMSDP=1.08D-08 MaxDP=4.27D-07 DE=-2.29D-10 OVMax= 2.14D-06

 Cycle  13  Pass 1  IDiag  1:
 E= -191.607699585435     Delta-E=       -0.000000000021 Rises=F Damp=F
 DIIS: error= 4.46D-08 at cycle   8 NSaved=   8.
 NSaved= 8 IEnMin= 8 EnMin= -191.607699585435     IErMin= 8 ErrMin= 4.46D-08
 ErrMax= 4.46D-08  0.00D+00 EMaxC= 1.00D-01 BMatC= 9.18D-13 BMatP= 1.77D-11
 IDIUse=1 WtCom= 1.00D+00 WtEn= 0.00D+00
 Coeff-Com: -0.645D-03-0.118D-03 0.535D-02 0.386D-02-0.144D-01-0.110D+00
 Coeff-Com:  0.347D-01 0.108D+01
 Coeff:     -0.645D-03-0.118D-03 0.535D-02 0.386D-02-0.144D-01-0.110D+00
 Coeff:      0.347D-01 0.108D+01
 Gap=     0.317 Goal=   None    Shift=    0.000
 RMSDP=4.68D-09 MaxDP=1.92D-07 DE=-2.14D-11 OVMax= 1.57D-06

 SCF Done:  E(RB2PLYPD3) =  -191.607699585     A.U. after   13 cycles
            NFock= 13  Conv=0.47D-08     -V/T= 2.0023
 KE= 1.911645914219D+02 PE=-6.560425456964D+02 EE= 1.693313576077D+02
 Leave Link  502 at Wed Aug 26 09:07:43 2020, MaxMem=  2097152000 cpu:       324.3
 (Enter /opt/cluster/programs/g09/g09_d.01/g09/l801.exe)
 DoSCS=T DFT=T ScalE2(SS,OS)=  0.270000  0.270000
 ExpMin= 7.60D-02 ExpMax= 1.17D+05 ExpMxC= 1.13D+03 IAcc=3 IRadAn=         5 AccDes= 0.00D+00
 HarFok:  IExCor=  205 AccDes= 0.00D+00 IRadAn=         5 IDoV=-2 UseB2=F ITyADJ=14
 ICtDFT= 12500011 ScaDFX=  1.000000  1.000000  1.000000  1.000000
 Largest valence mixing into a core orbital is  1.13D-04
 Largest core mixing into a valence orbital is  1.83D-05
 Range of M.O.s used for correlation:     5   348
 NBasis=   348 NAE=    15 NBE=    15 NFC=     4 NFV=     0
 NROrb=    344 NOA=    11 NOB=    11 NVA=   333 NVB=   333

 **** Warning!!: The largest alpha MO coefficient is  0.26581390D+02

 Leave Link  801 at Wed Aug 26 09:07:43 2020, MaxMem=  2097152000 cpu:         0.9
 (Enter /opt/cluster/programs/g09/g09_d.01/g09/l906.exe)
 DoSCS=T DFT=T ScalE2(SS,OS)=  0.270000  0.270000
 FulOut=F Deriv=F AODrv=F NAtomX=     8
   MMem=        1190  MDisk=          11 MDiskD=          11
  W3Min=     1567764 MinDsk=     2827057 NBas6D=         428
 NBas2D=       93150    NTT=       91806    LW2=     4508827
    MDV=  2096569694 MDiskM=       10875 NBas2p=       89635
 Fully direct method using O(OVN) memory.
 IMap=   1   2   3   4   5   6   7   8   9  10  11
 JobTyp=1 Pass  1:  I=   1 to  11 NPSUse=  8 ParTrn=T ParDer=T DoDerP=F.
 Spin components of T(2) and E(2):
     alpha-alpha T2 =       0.4359285855D-01 E2=     -0.2951047730D-01
     alpha-beta  T2 =       0.2648958429D+00 E2=     -0.1880209174D+00
     beta-beta   T2 =       0.4359285855D-01 E2=     -0.2951047730D-01
 The integrals were generated   1 times.
 E2(B2PLYPD3) =    -0.2470418720D+00 E(B2PLYPD3) =    -0.19185474145739D+03
 Leave Link  906 at Wed Aug 26 09:08:41 2020, MaxMem=  2097152000 cpu:       462.0
 (Enter /opt/cluster/programs/g09/g09_d.01/g09/l601.exe)
 Copying SCF densities to generalized density rwf, IOpCl= 0 IROHF=0.

 **********************************************************************

            Population analysis using the SCF density.

 **********************************************************************

 Orbital symmetries:
       Occupied  (A) (A) (A) (A) (A) (A) (A) (A) (A) (A) (A) (A)
                 (A) (A) (A)
       Virtual   (A) (A) (A) (A) (A) (A) (A) (A) (A) (A) (A) (A)
                 (A) (A) (A) (A) (A) (A) (A) (A) (A) (A) (A) (A)
                 (A) (A) (A) (A) (A) (A) (A) (A) (A) (A) (A) (A)
                 (A) (A) (A) (A) (A) (A) (A) (A) (A) (A) (A) (A)
                 (A) (A) (A) (A) (A) (A) (A) (A) (A) (A) (A) (A)
                 (A) (A) (A) (A) (A) (A) (A) (A) (A) (A) (A) (A)
                 (A) (A) (A) (A) (A) (A) (A) (A) (A) (A) (A) (A)
                 (A) (A) (A) (A) (A) (A) (A) (A) (A) (A) (A) (A)
                 (A) (A) (A) (A) (A) (A) (A) (A) (A) (A) (A) (A)
                 (A) (A) (A) (A) (A) (A) (A) (A) (A) (A) (A) (A)
                 (A) (A) (A) (A) (A) (A) (A) (A) (A) (A) (A) (A)
                 (A) (A) (A) (A) (A) (A) (A) (A) (A) (A) (A) (A)
                 (A) (A) (A) (A) (A) (A) (A) (A) (A) (A) (A) (A)
                 (A) (A) (A) (A) (A) (A) (A) (A) (A) (A) (A) (A)
                 (A) (A) (A) (A) (A) (A) (A) (A) (A) (A) (A) (A)
                 (A) (A) (A) (A) (A) (A) (A) (A) (A) (A) (A) (A)
                 (A) (A) (A) (A) (A) (A) (A) (A) (A) (A) (A) (A)
                 (A) (A) (A) (A) (A) (A) (A) (A) (A) (A) (A) (A)
                 (A) (A) (A) (A) (A) (A) (A) (A) (A) (A) (A) (A)
                 (A) (A) (A) (A) (A) (A) (A) (A) (A) (A) (A) (A)
                 (A) (A) (A) (A) (A) (A) (A) (A) (A) (A) (A) (A)
                 (A) (A) (A) (A) (A) (A) (A) (A) (A) (A) (A) (A)
                 (A) (A) (A) (A) (A) (A) (A) (A) (A) (A) (A) (A)
                 (A) (A) (A) (A) (A) (A) (A) (A) (A) (A) (A) (A)
                 (A) (A) (A) (A) (A) (A) (A) (A) (A) (A) (A) (A)
                 (A) (A) (A) (A) (A) (A) (A) (A) (A) (A) (A) (A)
                 (A) (A) (A) (A) (A) (A) (A) (A) (A) (A) (A) (A)
                 (A) (A) (A) (A) (A) (A) (A) (A) (A)
 The electronic state is 1-A.
 Alpha  occ. eigenvalues --  -19.72609 -10.70803 -10.64846 -10.64571  -1.18769
 Alpha  occ. eigenvalues --   -0.93878  -0.76951  -0.67151  -0.57493  -0.56625
 Alpha  occ. eigenvalues --   -0.50766  -0.47321  -0.46162  -0.34873  -0.33802
 Alpha virt. eigenvalues --   -0.02115   0.05850   0.07113   0.08414   0.09764
 Alpha virt. eigenvalues --    0.12774   0.13986   0.15266   0.17322   0.19816
 Alpha virt. eigenvalues --    0.19856   0.22215   0.25402   0.26729   0.28764
 Alpha virt. eigenvalues --    0.31791   0.33778   0.34526   0.37778   0.39514
 Alpha virt. eigenvalues --    0.40324   0.41595   0.42460   0.44228   0.46111
 Alpha virt. eigenvalues --    0.48386   0.49773   0.53286   0.53881   0.56920
 Alpha virt. eigenvalues --    0.60193   0.64070   0.66322   0.69365   0.70763
 Alpha virt. eigenvalues --    0.74977   0.76035   0.79067   0.80007   0.81179
 Alpha virt. eigenvalues --    0.81785   0.82117   0.83084   0.84220   0.86655
 Alpha virt. eigenvalues --    0.89201   0.91281   0.92581   0.94334   0.95818
 Alpha virt. eigenvalues --    0.96906   0.98397   1.01690   1.02008   1.06042
 Alpha virt. eigenvalues --    1.11094   1.12828   1.13630   1.16638   1.19367
 Alpha virt. eigenvalues --    1.22467   1.25212   1.27999   1.37178   1.40593
 Alpha virt. eigenvalues --    1.44031   1.47783   1.48925   1.55199   1.56260
 Alpha virt. eigenvalues --    1.61259   1.63184   1.65281   1.69175   1.71106
 Alpha virt. eigenvalues --    1.72924   1.75358   1.79114   1.81362   1.83430
 Alpha virt. eigenvalues --    1.87096   1.87968   1.90412   1.92465   1.94222
 Alpha virt. eigenvalues --    1.96864   1.98603   2.00888   2.01817   2.03932
 Alpha virt. eigenvalues --    2.06028   2.09473   2.11957   2.13673   2.14874
 Alpha virt. eigenvalues --    2.16034   2.19357   2.20292   2.25193   2.27693
 Alpha virt. eigenvalues --    2.29241   2.36473   2.37964   2.41853   2.43721
 Alpha virt. eigenvalues --    2.46128   2.47911   2.49160   2.50499   2.54568
 Alpha virt. eigenvalues --    2.55089   2.58915   2.61179   2.61867   2.62781
 Alpha virt. eigenvalues --    2.65994   2.66669   2.67536   2.72467   2.74783
 Alpha virt. eigenvalues --    2.78549   2.79246   2.87358   2.88527   2.90303
 Alpha virt. eigenvalues --    2.91906   2.97833   3.00574   3.04183   3.08080
 Alpha virt. eigenvalues --    3.17908   3.22001   3.30822   3.32641   3.37514
 Alpha virt. eigenvalues --    3.39394   3.42154   3.42279   3.47573   3.55266
 Alpha virt. eigenvalues --    3.56064   3.59611   3.61016   3.62711   3.67101
 Alpha virt. eigenvalues --    3.69717   3.78950   3.79917   3.84736   3.93573
 Alpha virt. eigenvalues --    3.99123   4.00669   4.03950   4.05252   4.09062
 Alpha virt. eigenvalues --    4.14742   4.19947   4.21118   4.26777   4.33292
 Alpha virt. eigenvalues --    4.39065   4.40982   4.58106   4.59445   4.63926
 Alpha virt. eigenvalues --    4.67820   4.81563   4.89043   4.93197   4.99987
 Alpha virt. eigenvalues --    5.03609   5.09616   5.12133   5.13325   5.14595
 Alpha virt. eigenvalues --    5.21760   5.28619   5.30974   5.36191   5.43481
 Alpha virt. eigenvalues --    5.45034   5.51089   5.54090   5.59777   5.61267
 Alpha virt. eigenvalues --    5.67838   5.70262   5.73535   5.75644   5.77714
 Alpha virt. eigenvalues --    5.78633   5.80215   5.89092   5.90763   5.96116
 Alpha virt. eigenvalues --    5.98338   6.00183   6.01999   6.06890   6.07437
 Alpha virt. eigenvalues --    6.09494   6.15243   6.16477   6.18456   6.19662
 Alpha virt. eigenvalues --    6.21942   6.27150   6.27993   6.30807   6.32182
 Alpha virt. eigenvalues --    6.35641   6.38882   6.41343   6.46405   6.49199
 Alpha virt. eigenvalues --    6.52240   6.55387   6.58849   6.62849   6.66781
 Alpha virt. eigenvalues --    6.67976   6.76266   6.78092   6.79445   6.85381
 Alpha virt. eigenvalues --    6.88421   6.91915   6.99542   7.04389   7.05998
 Alpha virt. eigenvalues --    7.11307   7.13265   7.18010   7.24716   7.29067
 Alpha virt. eigenvalues --    7.35289   7.43057   7.44968   7.48690   7.52646
 Alpha virt. eigenvalues --    7.56578   7.58454   7.60787   7.65607   7.67163
 Alpha virt. eigenvalues --    7.68365   7.72911   7.74237   7.78103   7.81325
 Alpha virt. eigenvalues --    7.87133   7.88587   7.97405   8.02697   8.05576
 Alpha virt. eigenvalues --    8.07693   8.10184   8.19095   8.21743   8.24533
 Alpha virt. eigenvalues --    8.26057   8.30236   8.34339   8.35028   8.35951
 Alpha virt. eigenvalues --    8.38017   8.49254   8.53997   8.55733   8.60584
 Alpha virt. eigenvalues --    8.62255   8.64827   8.66613   8.73037   8.82595
 Alpha virt. eigenvalues --    8.87135   9.00610   9.01904   9.07803   9.09888
 Alpha virt. eigenvalues --    9.12592   9.16824   9.21756   9.37100   9.39736
 Alpha virt. eigenvalues --    9.40606   9.47114   9.65390   9.70916   9.79872
 Alpha virt. eigenvalues --    9.81365   9.98461  10.00583  10.05628  10.09650
 Alpha virt. eigenvalues --   10.17548  10.19659  10.25116  10.29640  10.31307
 Alpha virt. eigenvalues --   10.50145  10.55104  10.59916  10.82129  11.06102
 Alpha virt. eigenvalues --   11.23687  11.25834  11.31020  11.39633  11.49248
 Alpha virt. eigenvalues --   11.66006  11.70094  11.78859  12.05086  12.11362
 Alpha virt. eigenvalues --   12.31312  12.36658  12.49778  12.57181  12.87167
 Alpha virt. eigenvalues --   13.19340  13.34181  13.78433  14.38156  14.68985
 Alpha virt. eigenvalues --   28.62952  28.98944  29.61473  48.66284 148.22752
 Alpha virt. eigenvalues --  148.56476 149.24562 254.42334
          Condensed to atoms (all electrons):
               1          2          3          4          5          6
     1  C    4.489862   0.631870   0.366263  -0.055561  -0.031080  -0.004393
     2  O    0.631870   7.888931  -0.089749   0.005315   0.007808   0.000386
     3  C    0.366263  -0.089749   5.159637   0.495468   0.363777  -0.052487
     4  C   -0.055561   0.005315   0.495468   4.854769  -0.039267   0.428018
     5  H   -0.031080   0.007808   0.363777  -0.039267   0.591556   0.005705
     6  H   -0.004393   0.000386  -0.052487   0.428018   0.005705   0.568601
     7  H    0.003252  -0.000665  -0.040516   0.424609  -0.005487  -0.039346
     8  H    0.444585  -0.084717  -0.178387   0.018532   0.011337   0.007418
               7          8
     1  C    0.003252   0.444585
     2  O   -0.000665  -0.084717
     3  C   -0.040516  -0.178387
     4  C    0.424609   0.018532
     5  H   -0.005487   0.011337
     6  H   -0.039346   0.007418
     7  H    0.549020  -0.000769
     8  H   -0.000769   0.713789
 Mulliken charges:
               1
     1  C    0.155203
     2  O   -0.359179
     3  C   -0.024007
     4  C   -0.131883
     5  H    0.095652
     6  H    0.086098
     7  H    0.109903
     8  H    0.068212
 Sum of Mulliken charges =   0.00000
 Mulliken charges with hydrogens summed into heavy atoms:
               1
     1  C    0.223415
     2  O   -0.359179
     3  C    0.071645
     4  C    0.064119
 Electronic spatial extent (au):  <R**2>=            295.0339
 Charge=              0.0000 electrons
 Dipole moment (field-independent basis, Debye):
    X=              3.6372    Y=              0.7176    Z=             -0.0855  Tot=              3.7083
 Quadrupole moment (field-independent basis, Debye-Ang):
   XX=            -27.6265   YY=            -21.7293   ZZ=            -25.0336
   XY=             -0.7922   XZ=              0.5007   YZ=              0.0252
 Traceless Quadrupole moment (field-independent basis, Debye-Ang):
   XX=             -2.8300   YY=              3.0671   ZZ=             -0.2371
   XY=             -0.7922   XZ=              0.5007   YZ=              0.0252
 Octapole moment (field-independent basis, Debye-Ang**2):
  XXX=             15.2361  YYY=              0.1648  ZZZ=              0.1951  XYY=             -0.0159
  XXY=              0.6895  XXZ=              0.6576  XZZ=             -3.9081  YZZ=              0.2396
  YYZ=             -0.2666  XYZ=             -0.1831
 Hexadecapole moment (field-independent basis, Debye-Ang**3):
 XXXX=           -300.4222 YYYY=            -54.2206 ZZZZ=            -27.2365 XXXY=             -2.9594
 XXXZ=              3.1721 YYYX=              0.3090 YYYZ=              0.2729 ZZZX=              0.2417
 ZZZY=             -0.0483 XXYY=            -57.5196 XXZZ=            -55.9036 YYZZ=            -15.2622
 XXYZ=             -0.5705 YYXZ=              0.1170 ZZXY=              0.1638
 N-N= 1.039388970813D+02 E-N=-6.560425523319D+02  KE= 1.911645914219D+02
 Leave Link  601 at Wed Aug 26 09:08:41 2020, MaxMem=  2097152000 cpu:         0.5
 (Enter /opt/cluster/programs/g09/g09_d.01/g09/l9999.exe)
 1\1\GINC-NODE09\SP\RB2PLYPD3-FC\def2QZVP\C3H4O1\BOITTIER\26-Aug-2020\0
 \\#p B2PLYPD3/Def2QZVP\\acrolein\\0,1\C,0,-4.996473,-1.406477,0.922084
 \O,0,-3.947553,-0.857028,0.627263\C,0,-5.19576,-2.815888,1.17426\C,0,-
 6.407627,-3.313049,1.384887\H,0,-4.2503,-3.420355,1.208869\H,0,-7.2575
 26,-2.639868,1.402567\H,0,-6.53799,-4.303557,1.419922\H,0,-5.878172,-0
 .829244,1.00515\\Version=ES64L-G09RevD.01\State=1-A\HF=-191.6076996\MP
 2=-191.8547415\RMSD=4.679e-09\PG=C01 [X(C3H4O1)]\\@


 ORIGINALITY CONSISTS NOT IN SAYING WHAT NO ONE HAS EVER SAID BEFORE, 
 BUT IN SAYING WHAT YOU THINK YOUR SELF.

                                    -- JAMES F. STEPHEN
 Job cpu time:       0 days  0 hours 13 minutes 20.3 seconds.
 File lengths (MBytes):  RWF=     49 Int=      0 D2E=      0 Chk=      7 Scr=      1
 Normal termination of Gaussian 09 at Wed Aug 26 09:08:41 2020.
