 Entering Gaussian System, Link 0=/opt/cluster/programs/g09/g09_d.01/g09//g09
 Input=/home/boittier/MDCM/nms_sampling/acrolein_geom.xyz.dir/energies/acrolein_269_energy.com
 Output=/scratch/boittier/acrolein_269_energy/acrolein_269_energy.out
 Initial command:
 /opt/cluster/programs/g09/g09_d.01/g09/l1.exe "/scratch/boittier/acrolein_269_energy/Gau-145500.inp" -scrdir="/scratch/boittier/acrolein_269_energy/"
 Entering Link 1 = /opt/cluster/programs/g09/g09_d.01/g09/l1.exe PID=    145501.
  
 Copyright (c) 1988,1990,1992,1993,1995,1998,2003,2009,2013,
            Gaussian, Inc.  All Rights Reserved.
  
 This is part of the Gaussian(R) 09 program.  It is based on
 the Gaussian(R) 03 system (copyright 2003, Gaussian, Inc.),
 the Gaussian(R) 98 system (copyright 1998, Gaussian, Inc.),
 the Gaussian(R) 94 system (copyright 1995, Gaussian, Inc.),
 the Gaussian 92(TM) system (copyright 1992, Gaussian, Inc.),
 the Gaussian 90(TM) system (copyright 1990, Gaussian, Inc.),
 the Gaussian 88(TM) system (copyright 1988, Gaussian, Inc.),
 the Gaussian 86(TM) system (copyright 1986, Carnegie Mellon
 University), and the Gaussian 82(TM) system (copyright 1983,
 Carnegie Mellon University). Gaussian is a federally registered
 trademark of Gaussian, Inc.
  
 This software contains proprietary and confidential information,
 including trade secrets, belonging to Gaussian, Inc.
  
 This software is provided under written license and may be
 used, copied, transmitted, or stored only in accord with that
 written license.
  
 The following legend is applicable only to US Government
 contracts under FAR:
  
                    RESTRICTED RIGHTS LEGEND
  
 Use, reproduction and disclosure by the US Government is
 subject to restrictions as set forth in subparagraphs (a)
 and (c) of the Commercial Computer Software - Restricted
 Rights clause in FAR 52.227-19.
  
 Gaussian, Inc.
 340 Quinnipiac St., Bldg. 40, Wallingford CT 06492
  
  
 ---------------------------------------------------------------
 Warning -- This program may not be used in any manner that
 competes with the business of Gaussian, Inc. or will provide
 assistance to any competitor of Gaussian, Inc.  The licensee
 of this program is prohibited from giving any competitor of
 Gaussian, Inc. access to this program.  By using this program,
 the user acknowledges that Gaussian, Inc. is engaged in the
 business of creating and licensing software in the field of
 computational chemistry and represents and warrants to the
 licensee that it is not a competitor of Gaussian, Inc. and that
 it will not use this program in any manner prohibited above.
 ---------------------------------------------------------------
  

 Cite this work as:
 Gaussian 09, Revision D.01,
 M. J. Frisch, G. W. Trucks, H. B. Schlegel, G. E. Scuseria, 
 M. A. Robb, J. R. Cheeseman, G. Scalmani, V. Barone, B. Mennucci, 
 G. A. Petersson, H. Nakatsuji, M. Caricato, X. Li, H. P. Hratchian, 
 A. F. Izmaylov, J. Bloino, G. Zheng, J. L. Sonnenberg, M. Hada, 
 M. Ehara, K. Toyota, R. Fukuda, J. Hasegawa, M. Ishida, T. Nakajima, 
 Y. Honda, O. Kitao, H. Nakai, T. Vreven, J. A. Montgomery, Jr., 
 J. E. Peralta, F. Ogliaro, M. Bearpark, J. J. Heyd, E. Brothers, 
 K. N. Kudin, V. N. Staroverov, T. Keith, R. Kobayashi, J. Normand, 
 K. Raghavachari, A. Rendell, J. C. Burant, S. S. Iyengar, J. Tomasi, 
 M. Cossi, N. Rega, J. M. Millam, M. Klene, J. E. Knox, J. B. Cross, 
 V. Bakken, C. Adamo, J. Jaramillo, R. Gomperts, R. E. Stratmann, 
 O. Yazyev, A. J. Austin, R. Cammi, C. Pomelli, J. W. Ochterski, 
 R. L. Martin, K. Morokuma, V. G. Zakrzewski, G. A. Voth, 
 P. Salvador, J. J. Dannenberg, S. Dapprich, A. D. Daniels, 
 O. Farkas, J. B. Foresman, J. V. Ortiz, J. Cioslowski, 
 and D. J. Fox, Gaussian, Inc., Wallingford CT, 2013.
 
 ******************************************
 Gaussian 09:  ES64L-G09RevD.01 24-Apr-2013
                26-Aug-2020 
 ******************************************
 %chk=/home/boittier/MDCM/nms_sampling/acrolein_geom.xyz.dir/acrolein_269.chk
 %nproc=8
 Will use up to    8 processors via shared memory.
 %mem=16000MB
 --------------------
 #p B2PLYPD3/Def2QZVP
 --------------------
 1/38=1/1;
 2/12=2,17=6,18=5,40=1/2;
 3/5=45,7=101,11=9,16=1,25=1,30=1,74=-60/1,2,3;
 4//1;
 5/5=2,38=5/2;
 8/10=1/1;
 9/16=-3/6;
 6/7=2,8=2,9=2,10=2/1;
 99/5=1,9=1/99;
 Leave Link    1 at Wed Aug 26 15:01:34 2020, MaxMem=  2097152000 cpu:         0.2
 (Enter /opt/cluster/programs/g09/g09_d.01/g09/l101.exe)
 --------
 acrolein
 --------
 Symbolic Z-matrix:
 Charge =  0 Multiplicity = 1
 C                    -5.00328  -1.38735   0.87845 
 O                    -3.94023  -0.86452   0.66712 
 C                    -5.19328  -2.82384   1.14535 
 C                    -6.40111  -3.31157   1.40037 
 H                    -4.33295  -3.45394   1.10031 
 H                    -7.26029  -2.64516   1.49481 
 H                    -6.54562  -4.30018   1.58739 
 H                    -5.92051  -0.80399   0.90989 
 
 NAtoms=      8 NQM=        8 NQMF=       0 NMMI=      0 NMMIF=      0
                NMic=       0 NMicF=      0.
                    Isotopes and Nuclear Properties:
 (Nuclear quadrupole moments (NQMom) in fm**2, nuclear magnetic moments (NMagM)
  in nuclear magnetons)

  Atom         1           2           3           4           5           6           7           8
 IAtWgt=          12          16          12          12           1           1           1           1
 AtmWgt=  12.0000000  15.9949146  12.0000000  12.0000000   1.0078250   1.0078250   1.0078250   1.0078250
 NucSpn=           0           0           0           0           1           1           1           1
 AtZEff=   0.0000000   0.0000000   0.0000000   0.0000000   0.0000000   0.0000000   0.0000000   0.0000000
 NQMom=    0.0000000   0.0000000   0.0000000   0.0000000   0.0000000   0.0000000   0.0000000   0.0000000
 NMagM=    0.0000000   0.0000000   0.0000000   0.0000000   2.7928460   2.7928460   2.7928460   2.7928460
 AtZNuc=   6.0000000   8.0000000   6.0000000   6.0000000   1.0000000   1.0000000   1.0000000   1.0000000
 Leave Link  101 at Wed Aug 26 15:01:34 2020, MaxMem=  2097152000 cpu:         0.5
 (Enter /opt/cluster/programs/g09/g09_d.01/g09/l202.exe)
                          Input orientation:                          
 ---------------------------------------------------------------------
 Center     Atomic      Atomic             Coordinates (Angstroms)
 Number     Number       Type             X           Y           Z
 ---------------------------------------------------------------------
      1          6           0       -5.003285   -1.387345    0.878449
      2          8           0       -3.940230   -0.864523    0.667122
      3          6           0       -5.193279   -2.823837    1.145346
      4          6           0       -6.401109   -3.311575    1.400369
      5          1           0       -4.332947   -3.453937    1.100311
      6          1           0       -7.260291   -2.645164    1.494805
      7          1           0       -6.545621   -4.300176    1.587394
      8          1           0       -5.920513   -0.803988    0.909892
 ---------------------------------------------------------------------
                    Distance matrix (angstroms):
                    1          2          3          4          5
     1  C    0.000000
     2  O    1.203365   0.000000
     3  C    1.473377   2.374393   0.000000
     4  C    2.434948   3.547061   1.327320   0.000000
     5  H    2.183891   2.654608   1.067345   2.094659   0.000000
     6  H    2.656328   3.857272   2.103945   1.091428   3.062529
     7  H    3.371348   4.408931   2.050320   1.016462   2.418532
     8  H    1.087475   1.996027   2.159652   2.599910   3.094973
                    6          7          8
     6  H    0.000000
     7  H    1.805101   0.000000
     8  H    2.350969   3.615674   0.000000
 Stoichiometry    C3H4O
 Framework group  C1[X(C3H4O)]
 Deg. of freedom    18
 Full point group                 C1      NOp   1
 Largest Abelian subgroup         C1      NOp   1
 Largest concise Abelian subgroup C1      NOp   1
                         Standard orientation:                         
 ---------------------------------------------------------------------
 Center     Atomic      Atomic             Coordinates (Angstroms)
 Number     Number       Type             X           Y           Z
 ---------------------------------------------------------------------
      1          6           0        0.673525    0.344194   -0.016699
      2          8           0        1.784681   -0.116856    0.012484
      3          6           0       -0.565846   -0.452392   -0.000834
      4          6           0       -1.752929    0.141415   -0.003356
      5          1           0       -0.471450   -1.515484   -0.013164
      6          1           0       -1.830167    1.228087    0.062917
      7          1           0       -2.615378   -0.396384    0.008804
      8          1           0        0.511042    1.419336   -0.033105
 ---------------------------------------------------------------------
 Rotational constants (GHZ):     48.7791842      4.6997784      4.2875506
 Leave Link  202 at Wed Aug 26 15:01:34 2020, MaxMem=  2097152000 cpu:         0.0
 (Enter /opt/cluster/programs/g09/g09_d.01/g09/l301.exe)
 Standard basis: def2QZVP (5D, 7F)
 Ernie: Thresh=  0.10000D-02 Tol=  0.10000D-05 Strict=F.
 There are   428 symmetry adapted cartesian basis functions of A   symmetry.
 There are   348 symmetry adapted basis functions of A   symmetry.
   348 basis functions,   520 primitive gaussians,   428 cartesian basis functions
    15 alpha electrons       15 beta electrons
       nuclear repulsion energy       103.8560073360 Hartrees.
 IExCor=  419 DFT=T Ex+Corr=B2PLYPD3 ExCW=0 ScaHFX=  0.530000
 ScaDFX=  0.470000  0.470000  0.730000  0.730000 ScalE2=  0.270000  0.270000
 IRadAn=      0 IRanWt=     -1 IRanGd=            0 ICorTp=0 IEmpDi=141
 NAtoms=    8 NActive=    8 NUniq=    8 SFac= 1.00D+00 NAtFMM=   60 NAOKFM=F Big=F
 Integral buffers will be    131072 words long.
 Regular integral format.
 Two-electron integral symmetry is turned on.
 R6Disp:  Grimme-D3(BJ) Dispersion energy=       -0.0035993878 Hartrees.
 Nuclear repulsion after empirical dispersion term =      103.8524079482 Hartrees.
 Leave Link  301 at Wed Aug 26 15:01:34 2020, MaxMem=  2097152000 cpu:         0.4
 (Enter /opt/cluster/programs/g09/g09_d.01/g09/l302.exe)
 NPDir=0 NMtPBC=     1 NCelOv=     1 NCel=       1 NClECP=     1 NCelD=      1
         NCelK=      1 NCelE2=     1 NClLst=     1 CellRange=     0.0.
 One-electron integrals computed using PRISM.
   1 Symmetry operations used in ECPInt.
 ECPInt:  NShTT=    5886 NPrTT=   14376 LenC2=    5782 LenP2D=   12200.
 LDataN:  DoStor=T MaxTD1= 8 Len=  415
 NBasis=   348 RedAO= T EigKep=  5.55D-05  NBF=   348
 NBsUse=   348 1.00D-06 EigRej= -1.00D+00 NBFU=   348
 Precomputing XC quadrature grid using
 IXCGrd= 4 IRadAn=           0 IRanWt=          -1 IRanGd=           0 AccXCQ= 0.00D+00.
 Generated NRdTot=       0 NPtTot=           0 NUsed=           0 NTot=          32
 NSgBfM=   428   428   428   428   428 MxSgAt=     8 MxSgA2=     8.
 Leave Link  302 at Wed Aug 26 15:01:35 2020, MaxMem=  2097152000 cpu:         3.0
 (Enter /opt/cluster/programs/g09/g09_d.01/g09/l303.exe)
 DipDrv:  MaxL=1.
 Leave Link  303 at Wed Aug 26 15:01:35 2020, MaxMem=  2097152000 cpu:         0.3
 (Enter /opt/cluster/programs/g09/g09_d.01/g09/l401.exe)
 ExpMin= 7.60D-02 ExpMax= 1.17D+05 ExpMxC= 1.13D+03 IAcc=2 IRadAn=         4 AccDes= 0.00D+00
 Harris functional with IExCor=  419 and IRadAn=       4 diagonalized for initial guess.
 HarFok:  IExCor=  419 AccDes= 0.00D+00 IRadAn=         4 IDoV= 1 UseB2=F ITyADJ=14
 ICtDFT=  3500011 ScaDFX=  1.000000  1.000000  1.000000  1.000000
 FoFCou: FMM=F IPFlag=           0 FMFlag=      100000 FMFlg1=           0
         NFxFlg=           0 DoJE=T BraDBF=F KetDBF=T FulRan=T
         wScrn=  0.000000 ICntrl=     500 IOpCl=  0 I1Cent=   200000004 NGrid=           0
         NMat0=    1 NMatS0=      1 NMatT0=    0 NMatD0=    1 NMtDS0=    0 NMtDT0=    0
 Petite list used in FoFCou.
 Harris En= -192.051184069517    
 JPrj=0 DoOrth=F DoCkMO=F.
 Leave Link  401 at Wed Aug 26 15:01:36 2020, MaxMem=  2097152000 cpu:         6.9
 (Enter /opt/cluster/programs/g09/g09_d.01/g09/l502.exe)
 Closed shell SCF:
 Using DIIS extrapolation, IDIIS=  1040.
 Integral symmetry usage will be decided dynamically.
 Keep R1 ints in memory in canonical form, NReq=1883905047.
 IVT=      574566 IEndB=      574566 NGot=  2097152000 MDV=   252723534
 LenX=   252723534 LenY=   252539909
 Requested convergence on RMS density matrix=1.00D-08 within 128 cycles.
 Requested convergence on MAX density matrix=1.00D-06.
 Requested convergence on             energy=1.00D-06.
 No special actions if energy rises.
 FoFCou: FMM=F IPFlag=           0 FMFlag=           0 FMFlg1=           0
         NFxFlg=           0 DoJE=F BraDBF=F KetDBF=F FulRan=T
         wScrn=  0.000000 ICntrl=     600 IOpCl=  0 I1Cent=           0 NGrid=           0
         NMat0=    1 NMatS0=  60726 NMatT0=    0 NMatD0=    1 NMtDS0=    0 NMtDT0=    0
 Symmetry not used in FoFCou.
 Integral accuracy reduced to 1.0D-05 until final iterations.

 Cycle   1  Pass 0  IDiag  1:
 E= -191.467642003282    
 DIIS: error= 2.58D-02 at cycle   1 NSaved=   1.
 NSaved= 1 IEnMin= 1 EnMin= -191.467642003282     IErMin= 1 ErrMin= 2.58D-02
 ErrMax= 2.58D-02  0.00D+00 EMaxC= 1.00D-01 BMatC= 2.62D-01 BMatP= 2.62D-01
 IDIUse=3 WtCom= 7.42D-01 WtEn= 2.58D-01
 Coeff-Com:  0.100D+01
 Coeff-En:   0.100D+01
 Coeff:      0.100D+01
 Gap=     0.297 Goal=   None    Shift=    0.000
 GapD=    0.297 DampG=1.000 DampE=0.500 DampFc=0.5000 IDamp=-1.
 Damping current iteration by 5.00D-01
 RMSDP=1.75D-03 MaxDP=2.11D-01              OVMax= 1.68D-01

 Cycle   2  Pass 0  IDiag  1:
 E= -191.540290166254     Delta-E=       -0.072648162973 Rises=F Damp=T
 DIIS: error= 9.44D-03 at cycle   2 NSaved=   2.
 NSaved= 2 IEnMin= 2 EnMin= -191.540290166254     IErMin= 2 ErrMin= 9.44D-03
 ErrMax= 9.44D-03  0.00D+00 EMaxC= 1.00D-01 BMatC= 3.39D-02 BMatP= 2.62D-01
 IDIUse=3 WtCom= 9.06D-01 WtEn= 9.44D-02
 Coeff-Com: -0.169D+00 0.117D+01
 Coeff-En:   0.000D+00 0.100D+01
 Coeff:     -0.153D+00 0.115D+01
 Gap=     0.353 Goal=   None    Shift=    0.000
 RMSDP=5.75D-04 MaxDP=6.82D-02 DE=-7.26D-02 OVMax= 1.29D-01

 Cycle   3  Pass 0  IDiag  1:
 E= -191.603551643940     Delta-E=       -0.063261477686 Rises=F Damp=F
 DIIS: error= 9.52D-03 at cycle   3 NSaved=   3.
 NSaved= 3 IEnMin= 3 EnMin= -191.603551643940     IErMin= 2 ErrMin= 9.44D-03
 ErrMax= 9.52D-03  0.00D+00 EMaxC= 1.00D-01 BMatC= 1.62D-02 BMatP= 3.39D-02
 IDIUse=3 WtCom= 9.05D-01 WtEn= 9.52D-02
 Coeff-Com: -0.190D+00 0.523D+00 0.667D+00
 Coeff-En:   0.000D+00 0.000D+00 0.100D+01
 Coeff:     -0.172D+00 0.473D+00 0.699D+00
 Gap=     0.337 Goal=   None    Shift=    0.000
 RMSDP=2.33D-04 MaxDP=1.71D-02 DE=-6.33D-02 OVMax= 4.80D-02

 Cycle   4  Pass 0  IDiag  1:
 E= -191.612401178791     Delta-E=       -0.008849534851 Rises=F Damp=F
 DIIS: error= 4.07D-03 at cycle   4 NSaved=   4.
 NSaved= 4 IEnMin= 4 EnMin= -191.612401178791     IErMin= 4 ErrMin= 4.07D-03
 ErrMax= 4.07D-03  0.00D+00 EMaxC= 1.00D-01 BMatC= 2.93D-03 BMatP= 1.62D-02
 IDIUse=3 WtCom= 9.59D-01 WtEn= 4.07D-02
 Coeff-Com: -0.588D-01 0.977D-01 0.361D+00 0.600D+00
 Coeff-En:   0.000D+00 0.000D+00 0.163D+00 0.837D+00
 Coeff:     -0.564D-01 0.937D-01 0.353D+00 0.610D+00
 Gap=     0.323 Goal=   None    Shift=    0.000
 RMSDP=9.60D-05 MaxDP=7.79D-03 DE=-8.85D-03 OVMax= 1.41D-02

 Cycle   5  Pass 0  IDiag  1:
 E= -191.614736949929     Delta-E=       -0.002335771138 Rises=F Damp=F
 DIIS: error= 3.14D-04 at cycle   5 NSaved=   5.
 NSaved= 5 IEnMin= 5 EnMin= -191.614736949929     IErMin= 5 ErrMin= 3.14D-04
 ErrMax= 3.14D-04  0.00D+00 EMaxC= 1.00D-01 BMatC= 1.23D-05 BMatP= 2.93D-03
 IDIUse=3 WtCom= 9.97D-01 WtEn= 3.14D-03
 Coeff-Com: -0.932D-02 0.124D-01 0.644D-01 0.141D+00 0.791D+00
 Coeff-En:   0.000D+00 0.000D+00 0.000D+00 0.000D+00 0.100D+01
 Coeff:     -0.929D-02 0.124D-01 0.642D-01 0.141D+00 0.792D+00
 Gap=     0.322 Goal=   None    Shift=    0.000
 RMSDP=7.53D-06 MaxDP=3.66D-04 DE=-2.34D-03 OVMax= 2.23D-03

 Initial convergence to 1.0D-05 achieved.  Increase integral accuracy.
 Cycle   6  Pass 1  IDiag  1:
 E= -191.614737819433     Delta-E=       -0.000000869505 Rises=F Damp=F
 DIIS: error= 1.08D-04 at cycle   1 NSaved=   1.
 NSaved= 1 IEnMin= 1 EnMin= -191.614737819433     IErMin= 1 ErrMin= 1.08D-04
 ErrMax= 1.08D-04  0.00D+00 EMaxC= 1.00D-01 BMatC= 1.69D-06 BMatP= 1.69D-06
 IDIUse=3 WtCom= 9.99D-01 WtEn= 1.08D-03
 Coeff-Com:  0.100D+01
 Coeff-En:   0.100D+01
 Coeff:      0.100D+01
 Gap=     0.323 Goal=   None    Shift=    0.000
 RMSDP=7.53D-06 MaxDP=3.66D-04 DE=-8.70D-07 OVMax= 7.49D-04

 Cycle   7  Pass 1  IDiag  1:
 E= -191.614738793083     Delta-E=       -0.000000973650 Rises=F Damp=F
 DIIS: error= 8.54D-05 at cycle   2 NSaved=   2.
 NSaved= 2 IEnMin= 2 EnMin= -191.614738793083     IErMin= 2 ErrMin= 8.54D-05
 ErrMax= 8.54D-05  0.00D+00 EMaxC= 1.00D-01 BMatC= 1.13D-06 BMatP= 1.69D-06
 IDIUse=1 WtCom= 1.00D+00 WtEn= 0.00D+00
 Coeff-Com:  0.445D+00 0.555D+00
 Coeff:      0.445D+00 0.555D+00
 Gap=     0.323 Goal=   None    Shift=    0.000
 RMSDP=1.99D-06 MaxDP=1.58D-04 DE=-9.74D-07 OVMax= 5.89D-04

 Cycle   8  Pass 1  IDiag  1:
 E= -191.614739875591     Delta-E=       -0.000001082508 Rises=F Damp=F
 DIIS: error= 1.57D-05 at cycle   3 NSaved=   3.
 NSaved= 3 IEnMin= 3 EnMin= -191.614739875591     IErMin= 3 ErrMin= 1.57D-05
 ErrMax= 1.57D-05  0.00D+00 EMaxC= 1.00D-01 BMatC= 6.57D-08 BMatP= 1.13D-06
 IDIUse=1 WtCom= 1.00D+00 WtEn= 0.00D+00
 Coeff-Com:  0.612D-01 0.179D+00 0.760D+00
 Coeff:      0.612D-01 0.179D+00 0.760D+00
 Gap=     0.323 Goal=   None    Shift=    0.000
 RMSDP=1.33D-06 MaxDP=1.50D-04 DE=-1.08D-06 OVMax= 1.00D-04

 Cycle   9  Pass 1  IDiag  1:
 E= -191.614739943370     Delta-E=       -0.000000067780 Rises=F Damp=F
 DIIS: error= 1.22D-05 at cycle   4 NSaved=   4.
 NSaved= 4 IEnMin= 4 EnMin= -191.614739943370     IErMin= 4 ErrMin= 1.22D-05
 ErrMax= 1.22D-05  0.00D+00 EMaxC= 1.00D-01 BMatC= 1.27D-08 BMatP= 6.57D-08
 IDIUse=1 WtCom= 1.00D+00 WtEn= 0.00D+00
 Coeff-Com: -0.991D-01-0.656D-01 0.323D+00 0.841D+00
 Coeff:     -0.991D-01-0.656D-01 0.323D+00 0.841D+00
 Gap=     0.323 Goal=   None    Shift=    0.000
 RMSDP=6.61D-07 MaxDP=7.05D-05 DE=-6.78D-08 OVMax= 9.46D-05

 Cycle  10  Pass 1  IDiag  1:
 E= -191.614739963636     Delta-E=       -0.000000020266 Rises=F Damp=F
 DIIS: error= 3.35D-06 at cycle   5 NSaved=   5.
 NSaved= 5 IEnMin= 5 EnMin= -191.614739963636     IErMin= 5 ErrMin= 3.35D-06
 ErrMax= 3.35D-06  0.00D+00 EMaxC= 1.00D-01 BMatC= 2.37D-09 BMatP= 1.27D-08
 IDIUse=1 WtCom= 1.00D+00 WtEn= 0.00D+00
 Coeff-Com: -0.505D-01-0.421D-01 0.806D-01 0.424D+00 0.588D+00
 Coeff:     -0.505D-01-0.421D-01 0.806D-01 0.424D+00 0.588D+00
 Gap=     0.323 Goal=   None    Shift=    0.000
 RMSDP=1.67D-07 MaxDP=1.82D-05 DE=-2.03D-08 OVMax= 1.58D-05

 Cycle  11  Pass 1  IDiag  1:
 E= -191.614739965382     Delta-E=       -0.000000001746 Rises=F Damp=F
 DIIS: error= 1.12D-06 at cycle   6 NSaved=   6.
 NSaved= 6 IEnMin= 6 EnMin= -191.614739965382     IErMin= 6 ErrMin= 1.12D-06
 ErrMax= 1.12D-06  0.00D+00 EMaxC= 1.00D-01 BMatC= 1.77D-10 BMatP= 2.37D-09
 IDIUse=1 WtCom= 1.00D+00 WtEn= 0.00D+00
 Coeff-Com:  0.590D-02 0.152D-02-0.585D-01-0.984D-02 0.175D+00 0.886D+00
 Coeff:      0.590D-02 0.152D-02-0.585D-01-0.984D-02 0.175D+00 0.886D+00
 Gap=     0.323 Goal=   None    Shift=    0.000
 RMSDP=5.27D-08 MaxDP=5.57D-06 DE=-1.75D-09 OVMax= 6.59D-06

 Cycle  12  Pass 1  IDiag  1:
 E= -191.614739965595     Delta-E=       -0.000000000213 Rises=F Damp=F
 DIIS: error= 2.45D-07 at cycle   7 NSaved=   7.
 NSaved= 7 IEnMin= 7 EnMin= -191.614739965595     IErMin= 7 ErrMin= 2.45D-07
 ErrMax= 2.45D-07  0.00D+00 EMaxC= 1.00D-01 BMatC= 1.41D-11 BMatP= 1.77D-10
 IDIUse=1 WtCom= 1.00D+00 WtEn= 0.00D+00
 Coeff-Com:  0.528D-02 0.332D-02-0.282D-01-0.258D-01 0.156D-01 0.304D+00
 Coeff-Com:  0.726D+00
 Coeff:      0.528D-02 0.332D-02-0.282D-01-0.258D-01 0.156D-01 0.304D+00
 Coeff:      0.726D+00
 Gap=     0.323 Goal=   None    Shift=    0.000
 RMSDP=8.82D-09 MaxDP=4.59D-07 DE=-2.13D-10 OVMax= 1.43D-06

 SCF Done:  E(RB2PLYPD3) =  -191.614739966     A.U. after   12 cycles
            NFock= 12  Conv=0.88D-08     -V/T= 2.0024
 KE= 1.911633250675D+02 PE=-6.558800942324D+02 EE= 1.692496212511D+02
 Leave Link  502 at Wed Aug 26 15:02:37 2020, MaxMem=  2097152000 cpu:       292.3
 (Enter /opt/cluster/programs/g09/g09_d.01/g09/l801.exe)
 DoSCS=T DFT=T ScalE2(SS,OS)=  0.270000  0.270000
 ExpMin= 7.60D-02 ExpMax= 1.17D+05 ExpMxC= 1.13D+03 IAcc=3 IRadAn=         5 AccDes= 0.00D+00
 HarFok:  IExCor=  205 AccDes= 0.00D+00 IRadAn=         5 IDoV=-2 UseB2=F ITyADJ=14
 ICtDFT= 12500011 ScaDFX=  1.000000  1.000000  1.000000  1.000000
 Largest valence mixing into a core orbital is  1.14D-04
 Largest core mixing into a valence orbital is  1.84D-05
 Range of M.O.s used for correlation:     5   348
 NBasis=   348 NAE=    15 NBE=    15 NFC=     4 NFV=     0
 NROrb=    344 NOA=    11 NOB=    11 NVA=   333 NVB=   333

 **** Warning!!: The largest alpha MO coefficient is  0.30317828D+02

 Leave Link  801 at Wed Aug 26 15:02:39 2020, MaxMem=  2097152000 cpu:         1.0
 (Enter /opt/cluster/programs/g09/g09_d.01/g09/l906.exe)
 DoSCS=T DFT=T ScalE2(SS,OS)=  0.270000  0.270000
 FulOut=F Deriv=F AODrv=F NAtomX=     8
   MMem=        1190  MDisk=          11 MDiskD=          11
  W3Min=     1567764 MinDsk=     2827057 NBas6D=         428
 NBas2D=       93150    NTT=       91806    LW2=     4508827
    MDV=  2096570006 MDiskM=       10875 NBas2p=       89616
 Fully direct method using O(OVN) memory.
 IMap=   1   2   3   4   5   6   7   8   9  10  11
 JobTyp=1 Pass  1:  I=   1 to  11 NPSUse=  8 ParTrn=T ParDer=T DoDerP=F.
 Spin components of T(2) and E(2):
     alpha-alpha T2 =       0.4309837959D-01 E2=     -0.2935326484D-01
     alpha-beta  T2 =       0.2620410198D+00 E2=     -0.1874000349D+00
     beta-beta   T2 =       0.4309837959D-01 E2=     -0.2935326484D-01
 The integrals were generated   1 times.
 E2(B2PLYPD3) =    -0.2461065646D+00 E(B2PLYPD3) =    -0.19186084653018D+03
 Leave Link  906 at Wed Aug 26 15:03:35 2020, MaxMem=  2097152000 cpu:       450.0
 (Enter /opt/cluster/programs/g09/g09_d.01/g09/l601.exe)
 Copying SCF densities to generalized density rwf, IOpCl= 0 IROHF=0.

 **********************************************************************

            Population analysis using the SCF density.

 **********************************************************************

 Orbital symmetries:
       Occupied  (A) (A) (A) (A) (A) (A) (A) (A) (A) (A) (A) (A)
                 (A) (A) (A)
       Virtual   (A) (A) (A) (A) (A) (A) (A) (A) (A) (A) (A) (A)
                 (A) (A) (A) (A) (A) (A) (A) (A) (A) (A) (A) (A)
                 (A) (A) (A) (A) (A) (A) (A) (A) (A) (A) (A) (A)
                 (A) (A) (A) (A) (A) (A) (A) (A) (A) (A) (A) (A)
                 (A) (A) (A) (A) (A) (A) (A) (A) (A) (A) (A) (A)
                 (A) (A) (A) (A) (A) (A) (A) (A) (A) (A) (A) (A)
                 (A) (A) (A) (A) (A) (A) (A) (A) (A) (A) (A) (A)
                 (A) (A) (A) (A) (A) (A) (A) (A) (A) (A) (A) (A)
                 (A) (A) (A) (A) (A) (A) (A) (A) (A) (A) (A) (A)
                 (A) (A) (A) (A) (A) (A) (A) (A) (A) (A) (A) (A)
                 (A) (A) (A) (A) (A) (A) (A) (A) (A) (A) (A) (A)
                 (A) (A) (A) (A) (A) (A) (A) (A) (A) (A) (A) (A)
                 (A) (A) (A) (A) (A) (A) (A) (A) (A) (A) (A) (A)
                 (A) (A) (A) (A) (A) (A) (A) (A) (A) (A) (A) (A)
                 (A) (A) (A) (A) (A) (A) (A) (A) (A) (A) (A) (A)
                 (A) (A) (A) (A) (A) (A) (A) (A) (A) (A) (A) (A)
                 (A) (A) (A) (A) (A) (A) (A) (A) (A) (A) (A) (A)
                 (A) (A) (A) (A) (A) (A) (A) (A) (A) (A) (A) (A)
                 (A) (A) (A) (A) (A) (A) (A) (A) (A) (A) (A) (A)
                 (A) (A) (A) (A) (A) (A) (A) (A) (A) (A) (A) (A)
                 (A) (A) (A) (A) (A) (A) (A) (A) (A) (A) (A) (A)
                 (A) (A) (A) (A) (A) (A) (A) (A) (A) (A) (A) (A)
                 (A) (A) (A) (A) (A) (A) (A) (A) (A) (A) (A) (A)
                 (A) (A) (A) (A) (A) (A) (A) (A) (A) (A) (A) (A)
                 (A) (A) (A) (A) (A) (A) (A) (A) (A) (A) (A) (A)
                 (A) (A) (A) (A) (A) (A) (A) (A) (A) (A) (A) (A)
                 (A) (A) (A) (A) (A) (A) (A) (A) (A) (A) (A) (A)
                 (A) (A) (A) (A) (A) (A) (A) (A) (A)
 The electronic state is 1-A.
 Alpha  occ. eigenvalues --  -19.72766 -10.71266 -10.64644 -10.64035  -1.19920
 Alpha  occ. eigenvalues --   -0.93257  -0.75913  -0.67355  -0.57186  -0.56597
 Alpha  occ. eigenvalues --   -0.50994  -0.47254  -0.46962  -0.34767  -0.33820
 Alpha virt. eigenvalues --   -0.01542   0.05878   0.07349   0.08281   0.09753
 Alpha virt. eigenvalues --    0.12765   0.14210   0.15360   0.17555   0.19765
 Alpha virt. eigenvalues --    0.20019   0.21927   0.25493   0.26536   0.28683
 Alpha virt. eigenvalues --    0.32442   0.33673   0.35980   0.37361   0.39443
 Alpha virt. eigenvalues --    0.39835   0.42027   0.42590   0.44225   0.47063
 Alpha virt. eigenvalues --    0.47279   0.49377   0.54105   0.54520   0.57344
 Alpha virt. eigenvalues --    0.58683   0.64654   0.65960   0.68492   0.71289
 Alpha virt. eigenvalues --    0.75202   0.76324   0.78275   0.80397   0.81333
 Alpha virt. eigenvalues --    0.81593   0.82533   0.82913   0.84074   0.86630
 Alpha virt. eigenvalues --    0.88300   0.91850   0.92263   0.94535   0.96057
 Alpha virt. eigenvalues --    0.96434   0.98388   1.01497   1.02166   1.07837
 Alpha virt. eigenvalues --    1.09642   1.12939   1.15420   1.17663   1.18086
 Alpha virt. eigenvalues --    1.21737   1.25861   1.28540   1.36159   1.40826
 Alpha virt. eigenvalues --    1.43977   1.47248   1.49227   1.55423   1.57663
 Alpha virt. eigenvalues --    1.61757   1.64137   1.65220   1.68770   1.70706
 Alpha virt. eigenvalues --    1.74494   1.75550   1.77549   1.81667   1.82936
 Alpha virt. eigenvalues --    1.86184   1.89211   1.90768   1.92953   1.94204
 Alpha virt. eigenvalues --    1.96670   1.98933   2.00081   2.01213   2.02991
 Alpha virt. eigenvalues --    2.06393   2.10737   2.11431   2.13484   2.14087
 Alpha virt. eigenvalues --    2.17065   2.18270   2.20273   2.23882   2.27883
 Alpha virt. eigenvalues --    2.30021   2.35297   2.37496   2.39533   2.45238
 Alpha virt. eigenvalues --    2.46361   2.47507   2.48762   2.50091   2.54179
 Alpha virt. eigenvalues --    2.55705   2.57445   2.59808   2.61928   2.64254
 Alpha virt. eigenvalues --    2.65995   2.66562   2.68243   2.73213   2.75100
 Alpha virt. eigenvalues --    2.77079   2.79649   2.87219   2.88680   2.89020
 Alpha virt. eigenvalues --    2.91662   2.97455   3.01818   3.02306   3.06707
 Alpha virt. eigenvalues --    3.18107   3.21479   3.31284   3.32049   3.34542
 Alpha virt. eigenvalues --    3.39491   3.41087   3.44442   3.46316   3.54902
 Alpha virt. eigenvalues --    3.56633   3.59353   3.62672   3.63685   3.66830
 Alpha virt. eigenvalues --    3.68722   3.77013   3.80505   3.81962   3.92297
 Alpha virt. eigenvalues --    3.98039   4.01221   4.05155   4.07071   4.08988
 Alpha virt. eigenvalues --    4.13856   4.19762   4.22760   4.26574   4.32854
 Alpha virt. eigenvalues --    4.39970   4.43165   4.57078   4.61282   4.62881
 Alpha virt. eigenvalues --    4.69107   4.83530   4.88021   4.92470   4.98461
 Alpha virt. eigenvalues --    5.03945   5.07607   5.10768   5.12051   5.13856
 Alpha virt. eigenvalues --    5.21862   5.27834   5.30274   5.34487   5.43389
 Alpha virt. eigenvalues --    5.45351   5.51852   5.53020   5.58315   5.61386
 Alpha virt. eigenvalues --    5.69118   5.69993   5.71865   5.77629   5.80301
 Alpha virt. eigenvalues --    5.80790   5.81138   5.87851   5.92443   5.96900
 Alpha virt. eigenvalues --    5.97531   5.99987   6.02452   6.06834   6.08447
 Alpha virt. eigenvalues --    6.09786   6.16445   6.16967   6.18198   6.19756
 Alpha virt. eigenvalues --    6.23071   6.27148   6.27752   6.32707   6.34323
 Alpha virt. eigenvalues --    6.35068   6.37755   6.41738   6.44980   6.47556
 Alpha virt. eigenvalues --    6.53308   6.56710   6.58790   6.61287   6.64613
 Alpha virt. eigenvalues --    6.67823   6.68291   6.74290   6.75688   6.83502
 Alpha virt. eigenvalues --    6.87064   6.88008   7.01573   7.03940   7.07117
 Alpha virt. eigenvalues --    7.09745   7.13743   7.14036   7.20116   7.29398
 Alpha virt. eigenvalues --    7.35848   7.44798   7.47278   7.54258   7.55859
 Alpha virt. eigenvalues --    7.58598   7.59752   7.63004   7.66771   7.67725
 Alpha virt. eigenvalues --    7.69790   7.70354   7.72399   7.77430   7.80940
 Alpha virt. eigenvalues --    7.88452   7.89729   7.92221   8.02793   8.10009
 Alpha virt. eigenvalues --    8.10730   8.11594   8.13380   8.17269   8.19839
 Alpha virt. eigenvalues --    8.24429   8.28593   8.29459   8.34439   8.36785
 Alpha virt. eigenvalues --    8.39260   8.47239   8.55267   8.56380   8.58554
 Alpha virt. eigenvalues --    8.63193   8.64368   8.68088   8.72297   8.77025
 Alpha virt. eigenvalues --    8.86646   8.97746   9.01353   9.06523   9.09388
 Alpha virt. eigenvalues --    9.12358   9.14137   9.24170   9.35022   9.37127
 Alpha virt. eigenvalues --    9.39909   9.51104   9.64317   9.76833   9.84300
 Alpha virt. eigenvalues --    9.91857   9.93775   9.99355  10.04090  10.05898
 Alpha virt. eigenvalues --   10.12393  10.13279  10.26078  10.31343  10.39456
 Alpha virt. eigenvalues --   10.47506  10.50168  10.58828  10.78407  11.05567
 Alpha virt. eigenvalues --   11.21638  11.25596  11.30881  11.38617  11.56935
 Alpha virt. eigenvalues --   11.66850  11.68460  11.80188  12.04486  12.11869
 Alpha virt. eigenvalues --   12.35119  12.37628  12.50849  12.60307  13.03140
 Alpha virt. eigenvalues --   13.22129  13.41256  13.85088  14.36332  14.79119
 Alpha virt. eigenvalues --   28.66887  28.93964  29.62826  48.67679 148.26682
 Alpha virt. eigenvalues --  148.50352 149.25256 254.44047
          Condensed to atoms (all electrons):
               1          2          3          4          5          6
     1  C    4.487992   0.627471   0.368469  -0.054806  -0.030130  -0.004630
     2  O    0.627471   7.875010  -0.090669   0.006555   0.006139   0.000412
     3  C    0.368469  -0.090669   5.173156   0.483885   0.364943  -0.050344
     4  C   -0.054806   0.006555   0.483885   4.860960  -0.039080   0.427083
     5  H   -0.030130   0.006139   0.364943  -0.039080   0.586236   0.005626
     6  H   -0.004630   0.000412  -0.050344   0.427083   0.005626   0.575150
     7  H    0.002734  -0.000624  -0.036595   0.421423  -0.005174  -0.041317
     8  H    0.447987  -0.079365  -0.173671   0.024755   0.008704   0.006691
               7          8
     1  C    0.002734   0.447987
     2  O   -0.000624  -0.079365
     3  C   -0.036595  -0.173671
     4  C    0.421423   0.024755
     5  H   -0.005174   0.008704
     6  H   -0.041317   0.006691
     7  H    0.556675  -0.000724
     8  H   -0.000724   0.693328
 Mulliken charges:
               1
     1  C    0.154913
     2  O   -0.344929
     3  C   -0.039173
     4  C   -0.130774
     5  H    0.102736
     6  H    0.081328
     7  H    0.103603
     8  H    0.072296
 Sum of Mulliken charges =   0.00000
 Mulliken charges with hydrogens summed into heavy atoms:
               1
     1  C    0.227209
     2  O   -0.344929
     3  C    0.063563
     4  C    0.054157
 Electronic spatial extent (au):  <R**2>=            295.8052
 Charge=              0.0000 electrons
 Dipole moment (field-independent basis, Debye):
    X=             -3.4487    Y=              0.7355    Z=             -0.0095  Tot=              3.5263
 Quadrupole moment (field-independent basis, Debye-Ang):
   XX=            -27.4039   YY=            -21.7210   ZZ=            -25.0738
   XY=              0.9417   XZ=             -0.1737   YZ=              0.0823
 Traceless Quadrupole moment (field-independent basis, Debye-Ang):
   XX=             -2.6710   YY=              3.0119   ZZ=             -0.3409
   XY=              0.9417   XZ=             -0.1737   YZ=              0.0823
 Octapole moment (field-independent basis, Debye-Ang**2):
  XXX=            -14.8113  YYY=             -0.1083  ZZZ=              0.0889  XYY=              0.1280
  XXY=              0.7055  XXZ=              0.1367  XZZ=              4.1794  YZZ=              0.1291
  YYZ=              0.0977  XYZ=             -0.1406
 Hexadecapole moment (field-independent basis, Debye-Ang**3):
 XXXX=           -299.6946 YYYY=            -54.7856 ZZZZ=            -27.1245 XXXY=              2.8744
 XXXZ=             -0.5986 YYYX=              0.0225 YYYZ=              0.2412 ZZZX=             -0.0454
 ZZZY=              0.0536 XXYY=            -57.5696 XXZZ=            -56.2836 YYZZ=            -15.3200
 XXYZ=              0.2787 YYXZ=             -0.2376 ZZXY=             -0.2399
 N-N= 1.038524079482D+02 E-N=-6.558800658118D+02  KE= 1.911633250675D+02
 Leave Link  601 at Wed Aug 26 15:03:37 2020, MaxMem=  2097152000 cpu:         0.6
 (Enter /opt/cluster/programs/g09/g09_d.01/g09/l9999.exe)
 1\1\GINC-NODE08\SP\RB2PLYPD3-FC\def2QZVP\C3H4O1\BOITTIER\26-Aug-2020\0
 \\#p B2PLYPD3/Def2QZVP\\acrolein\\0,1\C,0,-5.003285,-1.387345,0.878449
 \O,0,-3.94023,-0.864523,0.667122\C,0,-5.193279,-2.823837,1.145346\C,0,
 -6.401109,-3.311575,1.400369\H,0,-4.332947,-3.453937,1.100311\H,0,-7.2
 60291,-2.645164,1.494805\H,0,-6.545621,-4.300176,1.587394\H,0,-5.92051
 3,-0.803988,0.909892\\Version=ES64L-G09RevD.01\State=1-A\HF=-191.61474
 \MP2=-191.8608465\RMSD=8.822e-09\PG=C01 [X(C3H4O1)]\\@


 THE ATTENTION SPAN OF A COMPUTER IS AS LONG
 AS ITS EXTENSION CORD.
 Job cpu time:       0 days  0 hours 12 minutes 37.0 seconds.
 File lengths (MBytes):  RWF=     49 Int=      0 D2E=      0 Chk=      7 Scr=      1
 Normal termination of Gaussian 09 at Wed Aug 26 15:04:12 2020.
