 Entering Gaussian System, Link 0=/opt/cluster/programs/g09/g09_d.01/g09//g09
 Input=/home/boittier/MDCM/nms_sampling/acrolein_geom.xyz.dir/energies/acrolein_1389_energy.com
 Output=/scratch/boittier/acrolein_1389_energy/acrolein_1389_energy.out
 Initial command:
 /opt/cluster/programs/g09/g09_d.01/g09/l1.exe "/scratch/boittier/acrolein_1389_energy/Gau-172587.inp" -scrdir="/scratch/boittier/acrolein_1389_energy/"
 Entering Link 1 = /opt/cluster/programs/g09/g09_d.01/g09/l1.exe PID=    172588.
  
 Copyright (c) 1988,1990,1992,1993,1995,1998,2003,2009,2013,
            Gaussian, Inc.  All Rights Reserved.
  
 This is part of the Gaussian(R) 09 program.  It is based on
 the Gaussian(R) 03 system (copyright 2003, Gaussian, Inc.),
 the Gaussian(R) 98 system (copyright 1998, Gaussian, Inc.),
 the Gaussian(R) 94 system (copyright 1995, Gaussian, Inc.),
 the Gaussian 92(TM) system (copyright 1992, Gaussian, Inc.),
 the Gaussian 90(TM) system (copyright 1990, Gaussian, Inc.),
 the Gaussian 88(TM) system (copyright 1988, Gaussian, Inc.),
 the Gaussian 86(TM) system (copyright 1986, Carnegie Mellon
 University), and the Gaussian 82(TM) system (copyright 1983,
 Carnegie Mellon University). Gaussian is a federally registered
 trademark of Gaussian, Inc.
  
 This software contains proprietary and confidential information,
 including trade secrets, belonging to Gaussian, Inc.
  
 This software is provided under written license and may be
 used, copied, transmitted, or stored only in accord with that
 written license.
  
 The following legend is applicable only to US Government
 contracts under FAR:
  
                    RESTRICTED RIGHTS LEGEND
  
 Use, reproduction and disclosure by the US Government is
 subject to restrictions as set forth in subparagraphs (a)
 and (c) of the Commercial Computer Software - Restricted
 Rights clause in FAR 52.227-19.
  
 Gaussian, Inc.
 340 Quinnipiac St., Bldg. 40, Wallingford CT 06492
  
  
 ---------------------------------------------------------------
 Warning -- This program may not be used in any manner that
 competes with the business of Gaussian, Inc. or will provide
 assistance to any competitor of Gaussian, Inc.  The licensee
 of this program is prohibited from giving any competitor of
 Gaussian, Inc. access to this program.  By using this program,
 the user acknowledges that Gaussian, Inc. is engaged in the
 business of creating and licensing software in the field of
 computational chemistry and represents and warrants to the
 licensee that it is not a competitor of Gaussian, Inc. and that
 it will not use this program in any manner prohibited above.
 ---------------------------------------------------------------
  

 Cite this work as:
 Gaussian 09, Revision D.01,
 M. J. Frisch, G. W. Trucks, H. B. Schlegel, G. E. Scuseria, 
 M. A. Robb, J. R. Cheeseman, G. Scalmani, V. Barone, B. Mennucci, 
 G. A. Petersson, H. Nakatsuji, M. Caricato, X. Li, H. P. Hratchian, 
 A. F. Izmaylov, J. Bloino, G. Zheng, J. L. Sonnenberg, M. Hada, 
 M. Ehara, K. Toyota, R. Fukuda, J. Hasegawa, M. Ishida, T. Nakajima, 
 Y. Honda, O. Kitao, H. Nakai, T. Vreven, J. A. Montgomery, Jr., 
 J. E. Peralta, F. Ogliaro, M. Bearpark, J. J. Heyd, E. Brothers, 
 K. N. Kudin, V. N. Staroverov, T. Keith, R. Kobayashi, J. Normand, 
 K. Raghavachari, A. Rendell, J. C. Burant, S. S. Iyengar, J. Tomasi, 
 M. Cossi, N. Rega, J. M. Millam, M. Klene, J. E. Knox, J. B. Cross, 
 V. Bakken, C. Adamo, J. Jaramillo, R. Gomperts, R. E. Stratmann, 
 O. Yazyev, A. J. Austin, R. Cammi, C. Pomelli, J. W. Ochterski, 
 R. L. Martin, K. Morokuma, V. G. Zakrzewski, G. A. Voth, 
 P. Salvador, J. J. Dannenberg, S. Dapprich, A. D. Daniels, 
 O. Farkas, J. B. Foresman, J. V. Ortiz, J. Cioslowski, 
 and D. J. Fox, Gaussian, Inc., Wallingford CT, 2013.
 
 ******************************************
 Gaussian 09:  ES64L-G09RevD.01 24-Apr-2013
                26-Aug-2020 
 ******************************************
 %chk=/home/boittier/MDCM/nms_sampling/acrolein_geom.xyz.dir/acrolein_1389.chk
 %nproc=8
 Will use up to    8 processors via shared memory.
 %mem=16000MB
 --------------------
 #p B2PLYPD3/Def2QZVP
 --------------------
 1/38=1/1;
 2/12=2,17=6,18=5,40=1/2;
 3/5=45,7=101,11=9,16=1,25=1,30=1,74=-60/1,2,3;
 4//1;
 5/5=2,38=5/2;
 8/10=1/1;
 9/16=-3/6;
 6/7=2,8=2,9=2,10=2/1;
 99/5=1,9=1/99;
 Leave Link    1 at Wed Aug 26 09:08:09 2020, MaxMem=  2097152000 cpu:         0.2
 (Enter /opt/cluster/programs/g09/g09_d.01/g09/l101.exe)
 --------
 acrolein
 --------
 Symbolic Z-matrix:
 Charge =  0 Multiplicity = 1
 C                    -5.01607  -1.37301   0.89921 
 O                    -3.94311  -0.87043   0.64544 
 C                    -5.1795   -2.81972   1.15555 
 C                    -6.39689  -3.32163   1.37639 
 H                    -4.27236  -3.41956   1.19478 
 H                    -7.25182  -2.66946   1.41299 
 H                    -6.51176  -4.36778   1.65489 
 H                    -6.03479  -0.75043   1.08062 
 
 NAtoms=      8 NQM=        8 NQMF=       0 NMMI=      0 NMMIF=      0
                NMic=       0 NMicF=      0.
                    Isotopes and Nuclear Properties:
 (Nuclear quadrupole moments (NQMom) in fm**2, nuclear magnetic moments (NMagM)
  in nuclear magnetons)

  Atom         1           2           3           4           5           6           7           8
 IAtWgt=          12          16          12          12           1           1           1           1
 AtmWgt=  12.0000000  15.9949146  12.0000000  12.0000000   1.0078250   1.0078250   1.0078250   1.0078250
 NucSpn=           0           0           0           0           1           1           1           1
 AtZEff=   0.0000000   0.0000000   0.0000000   0.0000000   0.0000000   0.0000000   0.0000000   0.0000000
 NQMom=    0.0000000   0.0000000   0.0000000   0.0000000   0.0000000   0.0000000   0.0000000   0.0000000
 NMagM=    0.0000000   0.0000000   0.0000000   0.0000000   2.7928460   2.7928460   2.7928460   2.7928460
 AtZNuc=   6.0000000   8.0000000   6.0000000   6.0000000   1.0000000   1.0000000   1.0000000   1.0000000
 Leave Link  101 at Wed Aug 26 09:08:09 2020, MaxMem=  2097152000 cpu:         0.5
 (Enter /opt/cluster/programs/g09/g09_d.01/g09/l202.exe)
                          Input orientation:                          
 ---------------------------------------------------------------------
 Center     Atomic      Atomic             Coordinates (Angstroms)
 Number     Number       Type             X           Y           Z
 ---------------------------------------------------------------------
      1          6           0       -5.016067   -1.373013    0.899212
      2          8           0       -3.943108   -0.870428    0.645441
      3          6           0       -5.179501   -2.819719    1.155546
      4          6           0       -6.396885   -3.321626    1.376388
      5          1           0       -4.272355   -3.419565    1.194781
      6          1           0       -7.251817   -2.669464    1.412990
      7          1           0       -6.511763   -4.367782    1.654890
      8          1           0       -6.034791   -0.750431    1.080615
 ---------------------------------------------------------------------
                    Distance matrix (angstroms):
                    1          2          3          4          5
     1  C    0.000000
     2  O    1.211706   0.000000
     3  C    1.478302   2.364024   0.000000
     4  C    2.435456   3.544528   1.335180   0.000000
     5  H    2.197463   2.628360   1.088241   2.134526   0.000000
     6  H    2.635020   3.843594   2.093645   1.075901   3.080172
     7  H    3.431734   4.455161   2.102562   1.088670   2.475028
     8  H    1.207607   2.139840   2.240332   2.613358   3.200545
                    6          7          8
     6  H    0.000000
     7  H    1.868283   0.000000
     8  H    2.296587   3.693579   0.000000
 Stoichiometry    C3H4O
 Framework group  C1[X(C3H4O)]
 Deg. of freedom    18
 Full point group                 C1      NOp   1
 Largest Abelian subgroup         C1      NOp   1
 Largest concise Abelian subgroup C1      NOp   1
                         Standard orientation:                         
 ---------------------------------------------------------------------
 Center     Atomic      Atomic             Coordinates (Angstroms)
 Number     Number       Type             X           Y           Z
 ---------------------------------------------------------------------
      1          6           0        0.674626    0.359395    0.001894
      2          8           0        1.783235   -0.129437   -0.014241
      3          6           0       -0.557930   -0.456797    0.005574
      4          6           0       -1.750862    0.141759   -0.031146
      5          1           0       -0.435379   -1.535427    0.081779
      6          1           0       -1.817362    1.215518   -0.017634
      7          1           0       -2.659695   -0.450149    0.063032
      8          1           0        0.451549    1.539412    0.128822
 ---------------------------------------------------------------------
 Rotational constants (GHZ):     45.7307789      4.7058058      4.2697544
 Leave Link  202 at Wed Aug 26 09:08:09 2020, MaxMem=  2097152000 cpu:         0.0
 (Enter /opt/cluster/programs/g09/g09_d.01/g09/l301.exe)
 Standard basis: def2QZVP (5D, 7F)
 Ernie: Thresh=  0.10000D-02 Tol=  0.10000D-05 Strict=F.
 There are   428 symmetry adapted cartesian basis functions of A   symmetry.
 There are   348 symmetry adapted basis functions of A   symmetry.
   348 basis functions,   520 primitive gaussians,   428 cartesian basis functions
    15 alpha electrons       15 beta electrons
       nuclear repulsion energy       102.8343360585 Hartrees.
 IExCor=  419 DFT=T Ex+Corr=B2PLYPD3 ExCW=0 ScaHFX=  0.530000
 ScaDFX=  0.470000  0.470000  0.730000  0.730000 ScalE2=  0.270000  0.270000
 IRadAn=      0 IRanWt=     -1 IRanGd=            0 ICorTp=0 IEmpDi=141
 NAtoms=    8 NActive=    8 NUniq=    8 SFac= 1.00D+00 NAtFMM=   60 NAOKFM=F Big=F
 Integral buffers will be    131072 words long.
 Regular integral format.
 Two-electron integral symmetry is turned on.
 R6Disp:  Grimme-D3(BJ) Dispersion energy=       -0.0035916384 Hartrees.
 Nuclear repulsion after empirical dispersion term =      102.8307444201 Hartrees.
 Leave Link  301 at Wed Aug 26 09:08:09 2020, MaxMem=  2097152000 cpu:         0.5
 (Enter /opt/cluster/programs/g09/g09_d.01/g09/l302.exe)
 NPDir=0 NMtPBC=     1 NCelOv=     1 NCel=       1 NClECP=     1 NCelD=      1
         NCelK=      1 NCelE2=     1 NClLst=     1 CellRange=     0.0.
 One-electron integrals computed using PRISM.
   1 Symmetry operations used in ECPInt.
 ECPInt:  NShTT=    5886 NPrTT=   14376 LenC2=    5780 LenP2D=   12180.
 LDataN:  DoStor=T MaxTD1= 8 Len=  415
 NBasis=   348 RedAO= T EigKep=  6.25D-05  NBF=   348
 NBsUse=   348 1.00D-06 EigRej= -1.00D+00 NBFU=   348
 Precomputing XC quadrature grid using
 IXCGrd= 4 IRadAn=           0 IRanWt=          -1 IRanGd=           0 AccXCQ= 0.00D+00.
 Generated NRdTot=       0 NPtTot=           0 NUsed=           0 NTot=          32
 NSgBfM=   428   428   428   428   428 MxSgAt=     8 MxSgA2=     8.
 Leave Link  302 at Wed Aug 26 09:08:09 2020, MaxMem=  2097152000 cpu:         2.6
 (Enter /opt/cluster/programs/g09/g09_d.01/g09/l303.exe)
 DipDrv:  MaxL=1.
 Leave Link  303 at Wed Aug 26 09:08:09 2020, MaxMem=  2097152000 cpu:         0.3
 (Enter /opt/cluster/programs/g09/g09_d.01/g09/l401.exe)
 ExpMin= 7.60D-02 ExpMax= 1.17D+05 ExpMxC= 1.13D+03 IAcc=2 IRadAn=         4 AccDes= 0.00D+00
 Harris functional with IExCor=  419 and IRadAn=       4 diagonalized for initial guess.
 HarFok:  IExCor=  419 AccDes= 0.00D+00 IRadAn=         4 IDoV= 1 UseB2=F ITyADJ=14
 ICtDFT=  3500011 ScaDFX=  1.000000  1.000000  1.000000  1.000000
 FoFCou: FMM=F IPFlag=           0 FMFlag=      100000 FMFlg1=           0
         NFxFlg=           0 DoJE=T BraDBF=F KetDBF=T FulRan=T
         wScrn=  0.000000 ICntrl=     500 IOpCl=  0 I1Cent=   200000004 NGrid=           0
         NMat0=    1 NMatS0=      1 NMatT0=    0 NMatD0=    1 NMtDS0=    0 NMtDT0=    0
 Petite list used in FoFCou.
 Harris En= -192.038233017504    
 JPrj=0 DoOrth=F DoCkMO=F.
 Leave Link  401 at Wed Aug 26 09:08:10 2020, MaxMem=  2097152000 cpu:         6.0
 (Enter /opt/cluster/programs/g09/g09_d.01/g09/l502.exe)
 Closed shell SCF:
 Using DIIS extrapolation, IDIIS=  1040.
 Integral symmetry usage will be decided dynamically.
 Keep R1 ints in memory in canonical form, NReq=1883905047.
 IVT=      574566 IEndB=      574566 NGot=  2097152000 MDV=   252723534
 LenX=   252723534 LenY=   252539909
 Requested convergence on RMS density matrix=1.00D-08 within 128 cycles.
 Requested convergence on MAX density matrix=1.00D-06.
 Requested convergence on             energy=1.00D-06.
 No special actions if energy rises.
 FoFCou: FMM=F IPFlag=           0 FMFlag=           0 FMFlg1=           0
         NFxFlg=           0 DoJE=F BraDBF=F KetDBF=F FulRan=T
         wScrn=  0.000000 ICntrl=     600 IOpCl=  0 I1Cent=           0 NGrid=           0
         NMat0=    1 NMatS0=  60726 NMatT0=    0 NMatD0=    1 NMtDS0=    0 NMtDT0=    0
 Symmetry not used in FoFCou.
 Integral accuracy reduced to 1.0D-05 until final iterations.

 Cycle   1  Pass 0  IDiag  1:
 E= -191.465564523140    
 DIIS: error= 2.82D-02 at cycle   1 NSaved=   1.
 NSaved= 1 IEnMin= 1 EnMin= -191.465564523140     IErMin= 1 ErrMin= 2.82D-02
 ErrMax= 2.82D-02  0.00D+00 EMaxC= 1.00D-01 BMatC= 2.59D-01 BMatP= 2.59D-01
 IDIUse=3 WtCom= 7.18D-01 WtEn= 2.82D-01
 Coeff-Com:  0.100D+01
 Coeff-En:   0.100D+01
 Coeff:      0.100D+01
 Gap=     0.299 Goal=   None    Shift=    0.000
 GapD=    0.299 DampG=1.000 DampE=0.500 DampFc=0.5000 IDamp=-1.
 Damping current iteration by 5.00D-01
 RMSDP=1.65D-03 MaxDP=1.92D-01              OVMax= 1.70D-01

 Cycle   2  Pass 0  IDiag  1:
 E= -191.534247574342     Delta-E=       -0.068683051202 Rises=F Damp=T
 DIIS: error= 9.37D-03 at cycle   2 NSaved=   2.
 NSaved= 2 IEnMin= 2 EnMin= -191.534247574342     IErMin= 2 ErrMin= 9.37D-03
 ErrMax= 9.37D-03  0.00D+00 EMaxC= 1.00D-01 BMatC= 3.38D-02 BMatP= 2.59D-01
 IDIUse=3 WtCom= 9.06D-01 WtEn= 9.37D-02
 Coeff-Com: -0.129D+00 0.113D+01
 Coeff-En:   0.000D+00 0.100D+01
 Coeff:     -0.116D+00 0.112D+01
 Gap=     0.354 Goal=   None    Shift=    0.000
 RMSDP=5.66D-04 MaxDP=6.61D-02 DE=-6.87D-02 OVMax= 1.36D-01

 Cycle   3  Pass 0  IDiag  1:
 E= -191.596537334279     Delta-E=       -0.062289759937 Rises=F Damp=F
 DIIS: error= 1.13D-02 at cycle   3 NSaved=   3.
 NSaved= 3 IEnMin= 3 EnMin= -191.596537334279     IErMin= 2 ErrMin= 9.37D-03
 ErrMax= 1.13D-02  0.00D+00 EMaxC= 1.00D-01 BMatC= 1.84D-02 BMatP= 3.38D-02
 IDIUse=3 WtCom= 8.87D-01 WtEn= 1.13D-01
 Coeff-Com: -0.186D+00 0.521D+00 0.665D+00
 Coeff-En:   0.000D+00 0.000D+00 0.100D+01
 Coeff:     -0.165D+00 0.462D+00 0.703D+00
 Gap=     0.334 Goal=   None    Shift=    0.000
 RMSDP=2.43D-04 MaxDP=1.66D-02 DE=-6.23D-02 OVMax= 4.92D-02

 Cycle   4  Pass 0  IDiag  1:
 E= -191.606755551617     Delta-E=       -0.010218217338 Rises=F Damp=F
 DIIS: error= 4.71D-03 at cycle   4 NSaved=   4.
 NSaved= 4 IEnMin= 4 EnMin= -191.606755551617     IErMin= 4 ErrMin= 4.71D-03
 ErrMax= 4.71D-03  0.00D+00 EMaxC= 1.00D-01 BMatC= 3.37D-03 BMatP= 1.84D-02
 IDIUse=3 WtCom= 9.53D-01 WtEn= 4.71D-02
 Coeff-Com: -0.580D-01 0.938D-01 0.364D+00 0.600D+00
 Coeff-En:   0.000D+00 0.000D+00 0.168D+00 0.832D+00
 Coeff:     -0.553D-01 0.894D-01 0.355D+00 0.611D+00
 Gap=     0.321 Goal=   None    Shift=    0.000
 RMSDP=9.67D-05 MaxDP=7.19D-03 DE=-1.02D-02 OVMax= 1.52D-02

 Cycle   5  Pass 0  IDiag  1:
 E= -191.609474038665     Delta-E=       -0.002718487048 Rises=F Damp=F
 DIIS: error= 3.16D-04 at cycle   5 NSaved=   5.
 NSaved= 5 IEnMin= 5 EnMin= -191.609474038665     IErMin= 5 ErrMin= 3.16D-04
 ErrMax= 3.16D-04  0.00D+00 EMaxC= 1.00D-01 BMatC= 1.19D-05 BMatP= 3.37D-03
 IDIUse=3 WtCom= 9.97D-01 WtEn= 3.16D-03
 Coeff-Com: -0.651D-02 0.750D-02 0.476D-01 0.116D+00 0.836D+00
 Coeff-En:   0.000D+00 0.000D+00 0.000D+00 0.000D+00 0.100D+01
 Coeff:     -0.649D-02 0.748D-02 0.475D-01 0.115D+00 0.836D+00
 Gap=     0.319 Goal=   None    Shift=    0.000
 RMSDP=8.18D-06 MaxDP=4.18D-04 DE=-2.72D-03 OVMax= 2.31D-03

 Initial convergence to 1.0D-05 achieved.  Increase integral accuracy.
 Cycle   6  Pass 1  IDiag  1:
 E= -191.609480932832     Delta-E=       -0.000006894167 Rises=F Damp=F
 DIIS: error= 1.10D-04 at cycle   1 NSaved=   1.
 NSaved= 1 IEnMin= 1 EnMin= -191.609480932832     IErMin= 1 ErrMin= 1.10D-04
 ErrMax= 1.10D-04  0.00D+00 EMaxC= 1.00D-01 BMatC= 1.83D-06 BMatP= 1.83D-06
 IDIUse=3 WtCom= 9.99D-01 WtEn= 1.10D-03
 Coeff-Com:  0.100D+01
 Coeff-En:   0.100D+01
 Coeff:      0.100D+01
 Gap=     0.320 Goal=   None    Shift=    0.000
 RMSDP=8.18D-06 MaxDP=4.18D-04 DE=-6.89D-06 OVMax= 8.67D-04

 Cycle   7  Pass 1  IDiag  1:
 E= -191.609482206343     Delta-E=       -0.000001273512 Rises=F Damp=F
 DIIS: error= 8.03D-05 at cycle   2 NSaved=   2.
 NSaved= 2 IEnMin= 2 EnMin= -191.609482206343     IErMin= 2 ErrMin= 8.03D-05
 ErrMax= 8.03D-05  0.00D+00 EMaxC= 1.00D-01 BMatC= 1.13D-06 BMatP= 1.83D-06
 IDIUse=1 WtCom= 1.00D+00 WtEn= 0.00D+00
 Coeff-Com:  0.434D+00 0.566D+00
 Coeff:      0.434D+00 0.566D+00
 Gap=     0.320 Goal=   None    Shift=    0.000
 RMSDP=1.95D-06 MaxDP=1.44D-04 DE=-1.27D-06 OVMax= 5.37D-04

 Cycle   8  Pass 1  IDiag  1:
 E= -191.609483280417     Delta-E=       -0.000001074073 Rises=F Damp=F
 DIIS: error= 1.37D-05 at cycle   3 NSaved=   3.
 NSaved= 3 IEnMin= 3 EnMin= -191.609483280417     IErMin= 3 ErrMin= 1.37D-05
 ErrMax= 1.37D-05  0.00D+00 EMaxC= 1.00D-01 BMatC= 7.22D-08 BMatP= 1.13D-06
 IDIUse=1 WtCom= 1.00D+00 WtEn= 0.00D+00
 Coeff-Com:  0.561D-01 0.173D+00 0.770D+00
 Coeff:      0.561D-01 0.173D+00 0.770D+00
 Gap=     0.320 Goal=   None    Shift=    0.000
 RMSDP=1.31D-06 MaxDP=1.41D-04 DE=-1.07D-06 OVMax= 1.26D-04

 Cycle   9  Pass 1  IDiag  1:
 E= -191.609483355680     Delta-E=       -0.000000075263 Rises=F Damp=F
 DIIS: error= 1.66D-05 at cycle   4 NSaved=   4.
 NSaved= 4 IEnMin= 4 EnMin= -191.609483355680     IErMin= 3 ErrMin= 1.37D-05
 ErrMax= 1.66D-05  0.00D+00 EMaxC= 1.00D-01 BMatC= 1.92D-08 BMatP= 7.22D-08
 IDIUse=1 WtCom= 1.00D+00 WtEn= 0.00D+00
 Coeff-Com: -0.116D+00-0.884D-01 0.392D+00 0.812D+00
 Coeff:     -0.116D+00-0.884D-01 0.392D+00 0.812D+00
 Gap=     0.320 Goal=   None    Shift=    0.000
 RMSDP=6.45D-07 MaxDP=6.27D-05 DE=-7.53D-08 OVMax= 1.16D-04

 Cycle  10  Pass 1  IDiag  1:
 E= -191.609483385487     Delta-E=       -0.000000029807 Rises=F Damp=F
 DIIS: error= 2.75D-06 at cycle   5 NSaved=   5.
 NSaved= 5 IEnMin= 5 EnMin= -191.609483385487     IErMin= 5 ErrMin= 2.75D-06
 ErrMax= 2.75D-06  0.00D+00 EMaxC= 1.00D-01 BMatC= 2.24D-09 BMatP= 1.92D-08
 IDIUse=1 WtCom= 1.00D+00 WtEn= 0.00D+00
 Coeff-Com: -0.510D-01-0.463D-01 0.986D-01 0.376D+00 0.622D+00
 Coeff:     -0.510D-01-0.463D-01 0.986D-01 0.376D+00 0.622D+00
 Gap=     0.320 Goal=   None    Shift=    0.000
 RMSDP=1.42D-07 MaxDP=1.47D-05 DE=-2.98D-08 OVMax= 1.97D-05

 Cycle  11  Pass 1  IDiag  1:
 E= -191.609483387180     Delta-E=       -0.000000001693 Rises=F Damp=F
 DIIS: error= 1.18D-06 at cycle   6 NSaved=   6.
 NSaved= 6 IEnMin= 6 EnMin= -191.609483387180     IErMin= 6 ErrMin= 1.18D-06
 ErrMax= 1.18D-06  0.00D+00 EMaxC= 1.00D-01 BMatC= 2.39D-10 BMatP= 2.24D-09
 IDIUse=1 WtCom= 1.00D+00 WtEn= 0.00D+00
 Coeff-Com:  0.669D-02 0.215D-02-0.631D-01-0.414D-02 0.220D+00 0.838D+00
 Coeff:      0.669D-02 0.215D-02-0.631D-01-0.414D-02 0.220D+00 0.838D+00
 Gap=     0.320 Goal=   None    Shift=    0.000
 RMSDP=5.63D-08 MaxDP=5.87D-06 DE=-1.69D-09 OVMax= 6.28D-06

 Cycle  12  Pass 1  IDiag  1:
 E= -191.609483387443     Delta-E=       -0.000000000263 Rises=F Damp=F
 DIIS: error= 3.12D-07 at cycle   7 NSaved=   7.
 NSaved= 7 IEnMin= 7 EnMin= -191.609483387443     IErMin= 7 ErrMin= 3.12D-07
 ErrMax= 3.12D-07  0.00D+00 EMaxC= 1.00D-01 BMatC= 1.77D-11 BMatP= 2.39D-10
 IDIUse=1 WtCom= 1.00D+00 WtEn= 0.00D+00
 Coeff-Com:  0.606D-02 0.403D-02-0.329D-01-0.230D-01 0.317D-01 0.301D+00
 Coeff-Com:  0.713D+00
 Coeff:      0.606D-02 0.403D-02-0.329D-01-0.230D-01 0.317D-01 0.301D+00
 Coeff:      0.713D+00
 Gap=     0.320 Goal=   None    Shift=    0.000
 RMSDP=9.34D-09 MaxDP=4.82D-07 DE=-2.63D-10 OVMax= 1.88D-06

 SCF Done:  E(RB2PLYPD3) =  -191.609483387     A.U. after   12 cycles
            NFock= 12  Conv=0.93D-08     -V/T= 2.0041
 KE= 1.908235636328D+02 PE=-6.535630910425D+02 EE= 1.682992996022D+02
 Leave Link  502 at Wed Aug 26 09:09:23 2020, MaxMem=  2097152000 cpu:       272.5
 (Enter /opt/cluster/programs/g09/g09_d.01/g09/l801.exe)
 DoSCS=T DFT=T ScalE2(SS,OS)=  0.270000  0.270000
 ExpMin= 7.60D-02 ExpMax= 1.17D+05 ExpMxC= 1.13D+03 IAcc=3 IRadAn=         5 AccDes= 0.00D+00
 HarFok:  IExCor=  205 AccDes= 0.00D+00 IRadAn=         5 IDoV=-2 UseB2=F ITyADJ=14
 ICtDFT= 12500011 ScaDFX=  1.000000  1.000000  1.000000  1.000000
 Largest valence mixing into a core orbital is  1.19D-04
 Largest core mixing into a valence orbital is  1.91D-05
 Range of M.O.s used for correlation:     5   348
 NBasis=   348 NAE=    15 NBE=    15 NFC=     4 NFV=     0
 NROrb=    344 NOA=    11 NOB=    11 NVA=   333 NVB=   333

 **** Warning!!: The largest alpha MO coefficient is  0.29346900D+02

 Leave Link  801 at Wed Aug 26 09:09:23 2020, MaxMem=  2097152000 cpu:         0.8
 (Enter /opt/cluster/programs/g09/g09_d.01/g09/l906.exe)
 DoSCS=T DFT=T ScalE2(SS,OS)=  0.270000  0.270000
 FulOut=F Deriv=F AODrv=F NAtomX=     8
   MMem=        1190  MDisk=          11 MDiskD=          11
  W3Min=     1567764 MinDsk=     2827057 NBas6D=         428
 NBas2D=       93150    NTT=       91806    LW2=     4508827
    MDV=  2096571112 MDiskM=       10875 NBas2p=       89493
 Fully direct method using O(OVN) memory.
 IMap=   1   2   3   4   5   6   7   8   9  10  11
 JobTyp=1 Pass  1:  I=   1 to  11 NPSUse=  8 ParTrn=T ParDer=T DoDerP=F.
 Spin components of T(2) and E(2):
     alpha-alpha T2 =       0.4452837083D-01 E2=     -0.2965649379D-01
     alpha-beta  T2 =       0.2715120028D+00 E2=     -0.1891398208D+00
     beta-beta   T2 =       0.4452837083D-01 E2=     -0.2965649379D-01
 The integrals were generated   1 times.
 E2(B2PLYPD3) =    -0.2484528084D+00 E(B2PLYPD3) =    -0.19185793619587D+03
 Leave Link  906 at Wed Aug 26 09:10:19 2020, MaxMem=  2097152000 cpu:       446.6
 (Enter /opt/cluster/programs/g09/g09_d.01/g09/l601.exe)
 Copying SCF densities to generalized density rwf, IOpCl= 0 IROHF=0.

 **********************************************************************

            Population analysis using the SCF density.

 **********************************************************************

 Orbital symmetries:
       Occupied  (A) (A) (A) (A) (A) (A) (A) (A) (A) (A) (A) (A)
                 (A) (A) (A)
       Virtual   (A) (A) (A) (A) (A) (A) (A) (A) (A) (A) (A) (A)
                 (A) (A) (A) (A) (A) (A) (A) (A) (A) (A) (A) (A)
                 (A) (A) (A) (A) (A) (A) (A) (A) (A) (A) (A) (A)
                 (A) (A) (A) (A) (A) (A) (A) (A) (A) (A) (A) (A)
                 (A) (A) (A) (A) (A) (A) (A) (A) (A) (A) (A) (A)
                 (A) (A) (A) (A) (A) (A) (A) (A) (A) (A) (A) (A)
                 (A) (A) (A) (A) (A) (A) (A) (A) (A) (A) (A) (A)
                 (A) (A) (A) (A) (A) (A) (A) (A) (A) (A) (A) (A)
                 (A) (A) (A) (A) (A) (A) (A) (A) (A) (A) (A) (A)
                 (A) (A) (A) (A) (A) (A) (A) (A) (A) (A) (A) (A)
                 (A) (A) (A) (A) (A) (A) (A) (A) (A) (A) (A) (A)
                 (A) (A) (A) (A) (A) (A) (A) (A) (A) (A) (A) (A)
                 (A) (A) (A) (A) (A) (A) (A) (A) (A) (A) (A) (A)
                 (A) (A) (A) (A) (A) (A) (A) (A) (A) (A) (A) (A)
                 (A) (A) (A) (A) (A) (A) (A) (A) (A) (A) (A) (A)
                 (A) (A) (A) (A) (A) (A) (A) (A) (A) (A) (A) (A)
                 (A) (A) (A) (A) (A) (A) (A) (A) (A) (A) (A) (A)
                 (A) (A) (A) (A) (A) (A) (A) (A) (A) (A) (A) (A)
                 (A) (A) (A) (A) (A) (A) (A) (A) (A) (A) (A) (A)
                 (A) (A) (A) (A) (A) (A) (A) (A) (A) (A) (A) (A)
                 (A) (A) (A) (A) (A) (A) (A) (A) (A) (A) (A) (A)
                 (A) (A) (A) (A) (A) (A) (A) (A) (A) (A) (A) (A)
                 (A) (A) (A) (A) (A) (A) (A) (A) (A) (A) (A) (A)
                 (A) (A) (A) (A) (A) (A) (A) (A) (A) (A) (A) (A)
                 (A) (A) (A) (A) (A) (A) (A) (A) (A) (A) (A) (A)
                 (A) (A) (A) (A) (A) (A) (A) (A) (A) (A) (A) (A)
                 (A) (A) (A) (A) (A) (A) (A) (A) (A) (A) (A) (A)
                 (A) (A) (A) (A) (A) (A) (A) (A) (A)
 The electronic state is 1-A.
 Alpha  occ. eigenvalues --  -19.73289 -10.72755 -10.65406 -10.64567  -1.19757
 Alpha  occ. eigenvalues --   -0.92868  -0.74876  -0.65925  -0.56417  -0.55698
 Alpha  occ. eigenvalues --   -0.50382  -0.47305  -0.46685  -0.34694  -0.33759
 Alpha virt. eigenvalues --   -0.01745   0.05720   0.06702   0.08012   0.09831
 Alpha virt. eigenvalues --    0.12514   0.13590   0.15313   0.17195   0.19588
 Alpha virt. eigenvalues --    0.20067   0.21620   0.25195   0.26513   0.28533
 Alpha virt. eigenvalues --    0.31433   0.32297   0.34633   0.36735   0.38601
 Alpha virt. eigenvalues --    0.38844   0.41041   0.42049   0.42951   0.45964
 Alpha virt. eigenvalues --    0.48678   0.49023   0.52320   0.53764   0.56809
 Alpha virt. eigenvalues --    0.59835   0.64300   0.66340   0.66736   0.70608
 Alpha virt. eigenvalues --    0.74246   0.76667   0.77828   0.78811   0.81151
 Alpha virt. eigenvalues --    0.81595   0.81960   0.82787   0.84334   0.87253
 Alpha virt. eigenvalues --    0.88497   0.91528   0.92090   0.93909   0.95966
 Alpha virt. eigenvalues --    0.96439   0.97451   1.00588   1.02098   1.07081
 Alpha virt. eigenvalues --    1.09128   1.11214   1.13081   1.15912   1.19189
 Alpha virt. eigenvalues --    1.20851   1.26094   1.28368   1.31764   1.38696
 Alpha virt. eigenvalues --    1.40657   1.47050   1.47959   1.54241   1.56817
 Alpha virt. eigenvalues --    1.58464   1.62056   1.63904   1.66574   1.68911
 Alpha virt. eigenvalues --    1.73178   1.76454   1.77439   1.82028   1.84175
 Alpha virt. eigenvalues --    1.87239   1.89239   1.90348   1.92969   1.95159
 Alpha virt. eigenvalues --    1.95979   1.97530   1.99857   2.00967   2.03379
 Alpha virt. eigenvalues --    2.06108   2.10031   2.12091   2.13797   2.14203
 Alpha virt. eigenvalues --    2.15558   2.18043   2.21402   2.24311   2.25795
 Alpha virt. eigenvalues --    2.30115   2.33804   2.33974   2.38272   2.40467
 Alpha virt. eigenvalues --    2.44899   2.45292   2.47943   2.49611   2.51635
 Alpha virt. eigenvalues --    2.54112   2.57635   2.58071   2.61308   2.62330
 Alpha virt. eigenvalues --    2.64704   2.64836   2.67095   2.69101   2.73998
 Alpha virt. eigenvalues --    2.75164   2.77217   2.83524   2.84116   2.85811
 Alpha virt. eigenvalues --    2.88045   2.94239   2.96776   3.01216   3.06001
 Alpha virt. eigenvalues --    3.13698   3.16964   3.21528   3.26472   3.29698
 Alpha virt. eigenvalues --    3.34455   3.37121   3.39570   3.42819   3.47969
 Alpha virt. eigenvalues --    3.50306   3.51911   3.57536   3.57934   3.63506
 Alpha virt. eigenvalues --    3.64746   3.69424   3.72359   3.79178   3.86930
 Alpha virt. eigenvalues --    3.92096   4.00073   4.00620   4.02716   4.04740
 Alpha virt. eigenvalues --    4.06302   4.16762   4.21426   4.24899   4.31716
 Alpha virt. eigenvalues --    4.37653   4.39346   4.52361   4.58634   4.62309
 Alpha virt. eigenvalues --    4.65399   4.84044   4.87389   4.91094   4.97852
 Alpha virt. eigenvalues --    5.01597   5.02235   5.08927   5.11030   5.12205
 Alpha virt. eigenvalues --    5.21361   5.24052   5.28024   5.31264   5.42011
 Alpha virt. eigenvalues --    5.44941   5.52584   5.55282   5.56698   5.61687
 Alpha virt. eigenvalues --    5.64351   5.68660   5.71886   5.73972   5.77751
 Alpha virt. eigenvalues --    5.81062   5.83699   5.85068   5.87030   5.92303
 Alpha virt. eigenvalues --    5.93065   5.94960   5.97331   6.01741   6.04843
 Alpha virt. eigenvalues --    6.06661   6.11334   6.15560   6.16361   6.18144
 Alpha virt. eigenvalues --    6.19378   6.21915   6.23313   6.27273   6.28553
 Alpha virt. eigenvalues --    6.30270   6.32024   6.33774   6.35579   6.39729
 Alpha virt. eigenvalues --    6.44776   6.47240   6.48890   6.52568   6.53916
 Alpha virt. eigenvalues --    6.57542   6.63823   6.64521   6.69175   6.78203
 Alpha virt. eigenvalues --    6.80374   6.82559   6.87262   6.94405   6.98821
 Alpha virt. eigenvalues --    7.02682   7.06462   7.09930   7.15207   7.24814
 Alpha virt. eigenvalues --    7.25705   7.30615   7.36997   7.41690   7.45600
 Alpha virt. eigenvalues --    7.50580   7.53560   7.56242   7.59402   7.64031
 Alpha virt. eigenvalues --    7.64142   7.67560   7.69391   7.74448   7.75391
 Alpha virt. eigenvalues --    7.81880   7.85010   7.85759   7.95104   8.02808
 Alpha virt. eigenvalues --    8.06239   8.07664   8.12261   8.12907   8.14268
 Alpha virt. eigenvalues --    8.19411   8.22105   8.27281   8.30424   8.32551
 Alpha virt. eigenvalues --    8.33369   8.36890   8.42973   8.48354   8.54217
 Alpha virt. eigenvalues --    8.56168   8.57903   8.60236   8.63919   8.70885
 Alpha virt. eigenvalues --    8.77285   8.81382   8.88094   8.96080   9.00283
 Alpha virt. eigenvalues --    9.00957   9.07777   9.13316   9.15206   9.22880
 Alpha virt. eigenvalues --    9.29295   9.33777   9.47460   9.51003   9.54387
 Alpha virt. eigenvalues --    9.62772   9.73240   9.83082   9.87124   9.89534
 Alpha virt. eigenvalues --    9.95772  10.05101  10.15204  10.20390  10.24288
 Alpha virt. eigenvalues --   10.29557  10.34066  10.51217  10.69424  10.88751
 Alpha virt. eigenvalues --   10.92946  11.12124  11.24038  11.28233  11.49308
 Alpha virt. eigenvalues --   11.64561  11.68987  11.82457  11.97540  12.03491
 Alpha virt. eigenvalues --   12.08535  12.32345  12.35639  12.48746  12.91356
 Alpha virt. eigenvalues --   13.13879  13.36496  13.72892  14.34866  14.67816
 Alpha virt. eigenvalues --   28.52828  28.79021  29.48884  48.64017 148.10616
 Alpha virt. eigenvalues --  148.34059 149.08628 254.39999
          Condensed to atoms (all electrons):
               1          2          3          4          5          6
     1  C    4.516747   0.608341   0.369652  -0.057880  -0.032032  -0.005402
     2  O    0.608341   7.873528  -0.088995   0.007685   0.004698   0.000451
     3  C    0.369652  -0.088995   5.143425   0.479875   0.372191  -0.049812
     4  C   -0.057880   0.007685   0.479875   4.871214  -0.035718   0.425531
     5  H   -0.032032   0.004698   0.372191  -0.035718   0.577269   0.005406
     6  H   -0.005402   0.000451  -0.049812   0.425531   0.005406   0.569922
     7  H    0.003150  -0.000598  -0.033119   0.414274  -0.005309  -0.039976
     8  H    0.433974  -0.064806  -0.154593   0.023661   0.007409   0.007677
               7          8
     1  C    0.003150   0.433974
     2  O   -0.000598  -0.064806
     3  C   -0.033119  -0.154593
     4  C    0.414274   0.023661
     5  H   -0.005309   0.007409
     6  H   -0.039976   0.007677
     7  H    0.561163  -0.000917
     8  H   -0.000917   0.697091
 Mulliken charges:
               1
     1  C    0.163450
     2  O   -0.340305
     3  C   -0.038625
     4  C   -0.128643
     5  H    0.106086
     6  H    0.086202
     7  H    0.101331
     8  H    0.050503
 Sum of Mulliken charges =   0.00000
 Mulliken charges with hydrogens summed into heavy atoms:
               1
     1  C    0.213953
     2  O   -0.340305
     3  C    0.067461
     4  C    0.058890
 Electronic spatial extent (au):  <R**2>=            298.0985
 Charge=              0.0000 electrons
 Dipole moment (field-independent basis, Debye):
    X=             -3.4052    Y=              0.6616    Z=              0.1835  Tot=              3.4737
 Quadrupole moment (field-independent basis, Debye-Ang):
   XX=            -27.5314   YY=            -21.8261   ZZ=            -25.3354
   XY=              0.8589   XZ=             -0.1147   YZ=             -0.1199
 Traceless Quadrupole moment (field-independent basis, Debye-Ang):
   XX=             -2.6338   YY=              3.0715   ZZ=             -0.4378
   XY=              0.8589   XZ=             -0.1147   YZ=             -0.1199
 Octapole moment (field-independent basis, Debye-Ang**2):
  XXX=            -14.1515  YYY=             -0.6347  ZZZ=              0.1529  XYY=              0.0156
  XXY=              0.2902  XXZ=              0.6462  XZZ=              4.2929  YZZ=             -0.0270
  YYZ=              0.4841  XYZ=              0.1472
 Hexadecapole moment (field-independent basis, Debye-Ang**3):
 XXXX=           -301.4191 YYYY=            -58.4740 ZZZZ=            -27.7348 XXXY=              3.1214
 XXXZ=             -1.6023 YYYX=             -0.8882 YYYZ=             -0.1877 ZZZX=             -0.3812
 ZZZY=             -0.1866 XXYY=            -58.4109 XXZZ=            -56.9517 YYZZ=            -16.2060
 XXYZ=             -0.4442 YYXZ=             -0.2063 ZZXY=             -0.4940
 N-N= 1.028307444201D+02 E-N=-6.535630570848D+02  KE= 1.908235636328D+02
 Leave Link  601 at Wed Aug 26 09:10:19 2020, MaxMem=  2097152000 cpu:         0.5
 (Enter /opt/cluster/programs/g09/g09_d.01/g09/l9999.exe)
 1\1\GINC-NODE34\SP\RB2PLYPD3-FC\def2QZVP\C3H4O1\BOITTIER\26-Aug-2020\0
 \\#p B2PLYPD3/Def2QZVP\\acrolein\\0,1\C,0,-5.016067,-1.373013,0.899212
 \O,0,-3.943108,-0.870428,0.645441\C,0,-5.179501,-2.819719,1.155546\C,0
 ,-6.396885,-3.321626,1.376388\H,0,-4.272355,-3.419565,1.194781\H,0,-7.
 251817,-2.669464,1.41299\H,0,-6.511763,-4.367782,1.65489\H,0,-6.034791
 ,-0.750431,1.080615\\Version=ES64L-G09RevD.01\State=1-A\HF=-191.609483
 4\MP2=-191.8579362\RMSD=9.343e-09\PG=C01 [X(C3H4O1)]\\@


 A MAN IS EXACTLY AS GREAT AS THE TIDE SURGING
 BENEATH HIM.      - BISMARCK
 Job cpu time:       0 days  0 hours 12 minutes 11.1 seconds.
 File lengths (MBytes):  RWF=     49 Int=      0 D2E=      0 Chk=      7 Scr=      1
 Normal termination of Gaussian 09 at Wed Aug 26 09:10:20 2020.
