 Entering Gaussian System, Link 0=/opt/cluster/programs/g09/g09_d.01/g09//g09
 Input=/home/boittier/MDCM/nms_sampling/acrolein_geom.xyz.dir/energies/acrolein_2625_energy.com
 Output=/scratch/boittier/acrolein_2625_energy/acrolein_2625_energy.out
 Initial command:
 /opt/cluster/programs/g09/g09_d.01/g09/l1.exe "/scratch/boittier/acrolein_2625_energy/Gau-108202.inp" -scrdir="/scratch/boittier/acrolein_2625_energy/"
 Entering Link 1 = /opt/cluster/programs/g09/g09_d.01/g09/l1.exe PID=    108203.
  
 Copyright (c) 1988,1990,1992,1993,1995,1998,2003,2009,2013,
            Gaussian, Inc.  All Rights Reserved.
  
 This is part of the Gaussian(R) 09 program.  It is based on
 the Gaussian(R) 03 system (copyright 2003, Gaussian, Inc.),
 the Gaussian(R) 98 system (copyright 1998, Gaussian, Inc.),
 the Gaussian(R) 94 system (copyright 1995, Gaussian, Inc.),
 the Gaussian 92(TM) system (copyright 1992, Gaussian, Inc.),
 the Gaussian 90(TM) system (copyright 1990, Gaussian, Inc.),
 the Gaussian 88(TM) system (copyright 1988, Gaussian, Inc.),
 the Gaussian 86(TM) system (copyright 1986, Carnegie Mellon
 University), and the Gaussian 82(TM) system (copyright 1983,
 Carnegie Mellon University). Gaussian is a federally registered
 trademark of Gaussian, Inc.
  
 This software contains proprietary and confidential information,
 including trade secrets, belonging to Gaussian, Inc.
  
 This software is provided under written license and may be
 used, copied, transmitted, or stored only in accord with that
 written license.
  
 The following legend is applicable only to US Government
 contracts under FAR:
  
                    RESTRICTED RIGHTS LEGEND
  
 Use, reproduction and disclosure by the US Government is
 subject to restrictions as set forth in subparagraphs (a)
 and (c) of the Commercial Computer Software - Restricted
 Rights clause in FAR 52.227-19.
  
 Gaussian, Inc.
 340 Quinnipiac St., Bldg. 40, Wallingford CT 06492
  
  
 ---------------------------------------------------------------
 Warning -- This program may not be used in any manner that
 competes with the business of Gaussian, Inc. or will provide
 assistance to any competitor of Gaussian, Inc.  The licensee
 of this program is prohibited from giving any competitor of
 Gaussian, Inc. access to this program.  By using this program,
 the user acknowledges that Gaussian, Inc. is engaged in the
 business of creating and licensing software in the field of
 computational chemistry and represents and warrants to the
 licensee that it is not a competitor of Gaussian, Inc. and that
 it will not use this program in any manner prohibited above.
 ---------------------------------------------------------------
  

 Cite this work as:
 Gaussian 09, Revision D.01,
 M. J. Frisch, G. W. Trucks, H. B. Schlegel, G. E. Scuseria, 
 M. A. Robb, J. R. Cheeseman, G. Scalmani, V. Barone, B. Mennucci, 
 G. A. Petersson, H. Nakatsuji, M. Caricato, X. Li, H. P. Hratchian, 
 A. F. Izmaylov, J. Bloino, G. Zheng, J. L. Sonnenberg, M. Hada, 
 M. Ehara, K. Toyota, R. Fukuda, J. Hasegawa, M. Ishida, T. Nakajima, 
 Y. Honda, O. Kitao, H. Nakai, T. Vreven, J. A. Montgomery, Jr., 
 J. E. Peralta, F. Ogliaro, M. Bearpark, J. J. Heyd, E. Brothers, 
 K. N. Kudin, V. N. Staroverov, T. Keith, R. Kobayashi, J. Normand, 
 K. Raghavachari, A. Rendell, J. C. Burant, S. S. Iyengar, J. Tomasi, 
 M. Cossi, N. Rega, J. M. Millam, M. Klene, J. E. Knox, J. B. Cross, 
 V. Bakken, C. Adamo, J. Jaramillo, R. Gomperts, R. E. Stratmann, 
 O. Yazyev, A. J. Austin, R. Cammi, C. Pomelli, J. W. Ochterski, 
 R. L. Martin, K. Morokuma, V. G. Zakrzewski, G. A. Voth, 
 P. Salvador, J. J. Dannenberg, S. Dapprich, A. D. Daniels, 
 O. Farkas, J. B. Foresman, J. V. Ortiz, J. Cioslowski, 
 and D. J. Fox, Gaussian, Inc., Wallingford CT, 2013.
 
 ******************************************
 Gaussian 09:  ES64L-G09RevD.01 24-Apr-2013
                26-Aug-2020 
 ******************************************
 %chk=/home/boittier/MDCM/nms_sampling/acrolein_geom.xyz.dir/acrolein_2625.chk
 %nproc=8
 Will use up to    8 processors via shared memory.
 %mem=16000MB
 --------------------
 #p B2PLYPD3/Def2QZVP
 --------------------
 1/38=1/1;
 2/12=2,17=6,18=5,40=1/2;
 3/5=45,7=101,11=9,16=1,25=1,30=1,74=-60/1,2,3;
 4//1;
 5/5=2,38=5/2;
 8/10=1/1;
 9/16=-3/6;
 6/7=2,8=2,9=2,10=2/1;
 99/5=1,9=1/99;
 Leave Link    1 at Wed Aug 26 14:41:16 2020, MaxMem=  2097152000 cpu:         0.3
 (Enter /opt/cluster/programs/g09/g09_d.01/g09/l101.exe)
 --------
 acrolein
 --------
 Symbolic Z-matrix:
 Charge =  0 Multiplicity = 1
 C                    -4.9915   -1.42446   0.95499 
 O                    -3.92761  -0.839     0.61216 
 C                    -5.19389  -2.83704   1.19597 
 C                    -6.4378   -3.29323   1.38736 
 H                    -4.14067  -3.44783   1.07271 
 H                    -7.30771  -2.63767   1.3073 
 H                    -6.56935  -4.39338   1.3521 
 H                    -5.96645  -0.78282   0.88679 
 
 NAtoms=      8 NQM=        8 NQMF=       0 NMMI=      0 NMMIF=      0
                NMic=       0 NMicF=      0.
                    Isotopes and Nuclear Properties:
 (Nuclear quadrupole moments (NQMom) in fm**2, nuclear magnetic moments (NMagM)
  in nuclear magnetons)

  Atom         1           2           3           4           5           6           7           8
 IAtWgt=          12          16          12          12           1           1           1           1
 AtmWgt=  12.0000000  15.9949146  12.0000000  12.0000000   1.0078250   1.0078250   1.0078250   1.0078250
 NucSpn=           0           0           0           0           1           1           1           1
 AtZEff=   0.0000000   0.0000000   0.0000000   0.0000000   0.0000000   0.0000000   0.0000000   0.0000000
 NQMom=    0.0000000   0.0000000   0.0000000   0.0000000   0.0000000   0.0000000   0.0000000   0.0000000
 NMagM=    0.0000000   0.0000000   0.0000000   0.0000000   2.7928460   2.7928460   2.7928460   2.7928460
 AtZNuc=   6.0000000   8.0000000   6.0000000   6.0000000   1.0000000   1.0000000   1.0000000   1.0000000
 Leave Link  101 at Wed Aug 26 14:41:16 2020, MaxMem=  2097152000 cpu:         0.5
 (Enter /opt/cluster/programs/g09/g09_d.01/g09/l202.exe)
                          Input orientation:                          
 ---------------------------------------------------------------------
 Center     Atomic      Atomic             Coordinates (Angstroms)
 Number     Number       Type             X           Y           Z
 ---------------------------------------------------------------------
      1          6           0       -4.991495   -1.424464    0.954987
      2          8           0       -3.927613   -0.838995    0.612159
      3          6           0       -5.193887   -2.837037    1.195970
      4          6           0       -6.437804   -3.293229    1.387356
      5          1           0       -4.140675   -3.447831    1.072711
      6          1           0       -7.307714   -2.637670    1.307299
      7          1           0       -6.569345   -4.393383    1.352103
      8          1           0       -5.966453   -0.782818    0.886785
 ---------------------------------------------------------------------
                    Distance matrix (angstroms):
                    1          2          3          4          5
     1  C    0.000000
     2  O    1.261804   0.000000
     3  C    1.447203   2.436485   0.000000
     4  C    2.402298   3.595171   1.338682   0.000000
     5  H    2.198128   2.657730   1.223731   2.323727   0.000000
     6  H    2.638345   3.891469   2.126125   1.092204   3.277427
     7  H    3.385527   4.489982   2.082901   1.108551   2.621177
     8  H    1.169147   2.058019   2.216364   2.602865   3.235789
                    6          7          8
     6  H    0.000000
     7  H    1.905184   0.000000
     8  H    2.327292   3.690011   0.000000
 Stoichiometry    C3H4O
 Framework group  C1[X(C3H4O)]
 Deg. of freedom    18
 Full point group                 C1      NOp   1
 Largest Abelian subgroup         C1      NOp   1
 Largest concise Abelian subgroup C1      NOp   1
                         Standard orientation:                         
 ---------------------------------------------------------------------
 Center     Atomic      Atomic             Coordinates (Angstroms)
 Number     Number       Type             X           Y           Z
 ---------------------------------------------------------------------
      1          6           0       -0.633785    0.319292   -0.060808
      2          8           0       -1.822939   -0.088867    0.046288
      3          6           0        0.582272   -0.465267   -0.052423
      4          6           0        1.762911    0.164149   -0.007754
      5          1           0        0.321753   -1.658390    0.025714
      6          1           0        1.830593    1.250511    0.082505
      7          1           0        2.648097   -0.465353    0.213736
      8          1           0       -0.485320    1.475122    0.033642
 ---------------------------------------------------------------------
 Rotational constants (GHZ):     45.1910698      4.5959723      4.1827511
 Leave Link  202 at Wed Aug 26 14:41:16 2020, MaxMem=  2097152000 cpu:         0.0
 (Enter /opt/cluster/programs/g09/g09_d.01/g09/l301.exe)
 Standard basis: def2QZVP (5D, 7F)
 Ernie: Thresh=  0.10000D-02 Tol=  0.10000D-05 Strict=F.
 There are   428 symmetry adapted cartesian basis functions of A   symmetry.
 There are   348 symmetry adapted basis functions of A   symmetry.
   348 basis functions,   520 primitive gaussians,   428 cartesian basis functions
    15 alpha electrons       15 beta electrons
       nuclear repulsion energy       101.5045822336 Hartrees.
 IExCor=  419 DFT=T Ex+Corr=B2PLYPD3 ExCW=0 ScaHFX=  0.530000
 ScaDFX=  0.470000  0.470000  0.730000  0.730000 ScalE2=  0.270000  0.270000
 IRadAn=      0 IRanWt=     -1 IRanGd=            0 ICorTp=0 IEmpDi=141
 NAtoms=    8 NActive=    8 NUniq=    8 SFac= 1.00D+00 NAtFMM=   60 NAOKFM=F Big=F
 Integral buffers will be    131072 words long.
 Regular integral format.
 Two-electron integral symmetry is turned on.
 R6Disp:  Grimme-D3(BJ) Dispersion energy=       -0.0035751049 Hartrees.
 Nuclear repulsion after empirical dispersion term =      101.5010071288 Hartrees.
 Leave Link  301 at Wed Aug 26 14:41:16 2020, MaxMem=  2097152000 cpu:         0.4
 (Enter /opt/cluster/programs/g09/g09_d.01/g09/l302.exe)
 NPDir=0 NMtPBC=     1 NCelOv=     1 NCel=       1 NClECP=     1 NCelD=      1
         NCelK=      1 NCelE2=     1 NClLst=     1 CellRange=     0.0.
 One-electron integrals computed using PRISM.
   1 Symmetry operations used in ECPInt.
 ECPInt:  NShTT=    5886 NPrTT=   14376 LenC2=    5777 LenP2D=   12160.
 LDataN:  DoStor=T MaxTD1= 8 Len=  415
 NBasis=   348 RedAO= T EigKep=  6.49D-05  NBF=   348
 NBsUse=   348 1.00D-06 EigRej= -1.00D+00 NBFU=   348
 Precomputing XC quadrature grid using
 IXCGrd= 4 IRadAn=           0 IRanWt=          -1 IRanGd=           0 AccXCQ= 0.00D+00.
 Generated NRdTot=       0 NPtTot=           0 NUsed=           0 NTot=          32
 NSgBfM=   428   428   428   428   428 MxSgAt=     8 MxSgA2=     8.
 Leave Link  302 at Wed Aug 26 14:41:17 2020, MaxMem=  2097152000 cpu:         3.1
 (Enter /opt/cluster/programs/g09/g09_d.01/g09/l303.exe)
 DipDrv:  MaxL=1.
 Leave Link  303 at Wed Aug 26 14:41:17 2020, MaxMem=  2097152000 cpu:         1.1
 (Enter /opt/cluster/programs/g09/g09_d.01/g09/l401.exe)
 ExpMin= 7.60D-02 ExpMax= 1.17D+05 ExpMxC= 1.13D+03 IAcc=2 IRadAn=         4 AccDes= 0.00D+00
 Harris functional with IExCor=  419 and IRadAn=       4 diagonalized for initial guess.
 HarFok:  IExCor=  419 AccDes= 0.00D+00 IRadAn=         4 IDoV= 1 UseB2=F ITyADJ=14
 ICtDFT=  3500011 ScaDFX=  1.000000  1.000000  1.000000  1.000000
 FoFCou: FMM=F IPFlag=           0 FMFlag=      100000 FMFlg1=           0
         NFxFlg=           0 DoJE=T BraDBF=F KetDBF=T FulRan=T
         wScrn=  0.000000 ICntrl=     500 IOpCl=  0 I1Cent=   200000004 NGrid=           0
         NMat0=    1 NMatS0=      1 NMatT0=    0 NMatD0=    1 NMtDS0=    0 NMtDT0=    0
 Petite list used in FoFCou.
 Harris En= -192.012414667843    
 JPrj=0 DoOrth=F DoCkMO=F.
 Leave Link  401 at Wed Aug 26 14:41:18 2020, MaxMem=  2097152000 cpu:         7.0
 (Enter /opt/cluster/programs/g09/g09_d.01/g09/l502.exe)
 Closed shell SCF:
 Using DIIS extrapolation, IDIIS=  1040.
 Integral symmetry usage will be decided dynamically.
 Keep R1 ints in memory in canonical form, NReq=1883905047.
 IVT=      574566 IEndB=      574566 NGot=  2097152000 MDV=   252723534
 LenX=   252723534 LenY=   252539909
 Requested convergence on RMS density matrix=1.00D-08 within 128 cycles.
 Requested convergence on MAX density matrix=1.00D-06.
 Requested convergence on             energy=1.00D-06.
 No special actions if energy rises.
 FoFCou: FMM=F IPFlag=           0 FMFlag=           0 FMFlg1=           0
         NFxFlg=           0 DoJE=F BraDBF=F KetDBF=F FulRan=T
         wScrn=  0.000000 ICntrl=     600 IOpCl=  0 I1Cent=           0 NGrid=           0
         NMat0=    1 NMatS0=  60726 NMatT0=    0 NMatD0=    1 NMtDS0=    0 NMtDT0=    0
 Symmetry not used in FoFCou.
 Integral accuracy reduced to 1.0D-05 until final iterations.

 Cycle   1  Pass 0  IDiag  1:
 E= -191.455000818801    
 DIIS: error= 2.68D-02 at cycle   1 NSaved=   1.
 NSaved= 1 IEnMin= 1 EnMin= -191.455000818801     IErMin= 1 ErrMin= 2.68D-02
 ErrMax= 2.68D-02  0.00D+00 EMaxC= 1.00D-01 BMatC= 2.45D-01 BMatP= 2.45D-01
 IDIUse=3 WtCom= 7.32D-01 WtEn= 2.68D-01
 Coeff-Com:  0.100D+01
 Coeff-En:   0.100D+01
 Coeff:      0.100D+01
 Gap=     0.267 Goal=   None    Shift=    0.000
 GapD=    0.267 DampG=1.000 DampE=0.500 DampFc=0.5000 IDamp=-1.
 Damping current iteration by 5.00D-01
 RMSDP=1.73D-03 MaxDP=2.11D-01              OVMax= 1.87D-01

 Cycle   2  Pass 0  IDiag  1:
 E= -191.516654740403     Delta-E=       -0.061653921603 Rises=F Damp=T
 DIIS: error= 1.14D-02 at cycle   2 NSaved=   2.
 NSaved= 2 IEnMin= 2 EnMin= -191.516654740403     IErMin= 2 ErrMin= 1.14D-02
 ErrMax= 1.14D-02  0.00D+00 EMaxC= 1.00D-01 BMatC= 3.45D-02 BMatP= 2.45D-01
 IDIUse=3 WtCom= 8.86D-01 WtEn= 1.14D-01
 Coeff-Com: -0.102D+00 0.110D+01
 Coeff-En:   0.000D+00 0.100D+01
 Coeff:     -0.901D-01 0.109D+01
 Gap=     0.340 Goal=   None    Shift=    0.000
 RMSDP=6.37D-04 MaxDP=7.90D-02 DE=-6.17D-02 OVMax= 1.50D-01

 Cycle   3  Pass 0  IDiag  1:
 E= -191.573108111212     Delta-E=       -0.056453370809 Rises=F Damp=F
 DIIS: error= 1.28D-02 at cycle   3 NSaved=   3.
 NSaved= 3 IEnMin= 3 EnMin= -191.573108111212     IErMin= 2 ErrMin= 1.14D-02
 ErrMax= 1.28D-02  0.00D+00 EMaxC= 1.00D-01 BMatC= 2.18D-02 BMatP= 3.45D-02
 IDIUse=3 WtCom= 8.72D-01 WtEn= 1.28D-01
 Coeff-Com: -0.191D+00 0.541D+00 0.650D+00
 Coeff-En:   0.000D+00 0.000D+00 0.100D+01
 Coeff:     -0.167D+00 0.472D+00 0.695D+00
 Gap=     0.323 Goal=   None    Shift=    0.000
 RMSDP=2.74D-04 MaxDP=1.96D-02 DE=-5.65D-02 OVMax= 6.34D-02

 Cycle   4  Pass 0  IDiag  1:
 E= -191.585283680124     Delta-E=       -0.012175568912 Rises=F Damp=F
 DIIS: error= 5.60D-03 at cycle   4 NSaved=   4.
 NSaved= 4 IEnMin= 4 EnMin= -191.585283680124     IErMin= 4 ErrMin= 5.60D-03
 ErrMax= 5.60D-03  0.00D+00 EMaxC= 1.00D-01 BMatC= 4.37D-03 BMatP= 2.18D-02
 IDIUse=3 WtCom= 9.44D-01 WtEn= 5.60D-02
 Coeff-Com: -0.595D-01 0.949D-01 0.371D+00 0.593D+00
 Coeff-En:   0.000D+00 0.000D+00 0.195D+00 0.805D+00
 Coeff:     -0.562D-01 0.896D-01 0.362D+00 0.605D+00
 Gap=     0.307 Goal=   None    Shift=    0.000
 RMSDP=1.14D-04 MaxDP=9.25D-03 DE=-1.22D-02 OVMax= 1.90D-02

 Cycle   5  Pass 0  IDiag  1:
 E= -191.588886588601     Delta-E=       -0.003602908477 Rises=F Damp=F
 DIIS: error= 3.93D-04 at cycle   5 NSaved=   5.
 NSaved= 5 IEnMin= 5 EnMin= -191.588886588601     IErMin= 5 ErrMin= 3.93D-04
 ErrMax= 3.93D-04  0.00D+00 EMaxC= 1.00D-01 BMatC= 1.62D-05 BMatP= 4.37D-03
 IDIUse=3 WtCom= 9.96D-01 WtEn= 3.93D-03
 Coeff-Com: -0.631D-02 0.687D-02 0.463D-01 0.116D+00 0.838D+00
 Coeff-En:   0.000D+00 0.000D+00 0.000D+00 0.000D+00 0.100D+01
 Coeff:     -0.629D-02 0.684D-02 0.461D-01 0.115D+00 0.838D+00
 Gap=     0.305 Goal=   None    Shift=    0.000
 RMSDP=9.08D-06 MaxDP=4.74D-04 DE=-3.60D-03 OVMax= 3.04D-03

 Initial convergence to 1.0D-05 achieved.  Increase integral accuracy.
 Cycle   6  Pass 1  IDiag  1:
 E= -191.588903147632     Delta-E=       -0.000016559031 Rises=F Damp=F
 DIIS: error= 1.08D-04 at cycle   1 NSaved=   1.
 NSaved= 1 IEnMin= 1 EnMin= -191.588903147632     IErMin= 1 ErrMin= 1.08D-04
 ErrMax= 1.08D-04  0.00D+00 EMaxC= 1.00D-01 BMatC= 2.50D-06 BMatP= 2.50D-06
 IDIUse=3 WtCom= 9.99D-01 WtEn= 1.08D-03
 Coeff-Com:  0.100D+01
 Coeff-En:   0.100D+01
 Coeff:      0.100D+01
 Gap=     0.306 Goal=   None    Shift=    0.000
 RMSDP=9.08D-06 MaxDP=4.74D-04 DE=-1.66D-05 OVMax= 9.48D-04

 Cycle   7  Pass 1  IDiag  1:
 E= -191.588904542263     Delta-E=       -0.000001394630 Rises=F Damp=F
 DIIS: error= 8.14D-05 at cycle   2 NSaved=   2.
 NSaved= 2 IEnMin= 2 EnMin= -191.588904542263     IErMin= 2 ErrMin= 8.14D-05
 ErrMax= 8.14D-05  0.00D+00 EMaxC= 1.00D-01 BMatC= 1.76D-06 BMatP= 2.50D-06
 IDIUse=1 WtCom= 1.00D+00 WtEn= 0.00D+00
 Coeff-Com:  0.453D+00 0.547D+00
 Coeff:      0.453D+00 0.547D+00
 Gap=     0.306 Goal=   None    Shift=    0.000
 RMSDP=2.42D-06 MaxDP=1.67D-04 DE=-1.39D-06 OVMax= 7.50D-04

 Cycle   8  Pass 1  IDiag  1:
 E= -191.588906243666     Delta-E=       -0.000001701404 Rises=F Damp=F
 DIIS: error= 1.51D-05 at cycle   3 NSaved=   3.
 NSaved= 3 IEnMin= 3 EnMin= -191.588906243666     IErMin= 3 ErrMin= 1.51D-05
 ErrMax= 1.51D-05  0.00D+00 EMaxC= 1.00D-01 BMatC= 1.19D-07 BMatP= 1.76D-06
 IDIUse=1 WtCom= 1.00D+00 WtEn= 0.00D+00
 Coeff-Com:  0.109D+00 0.222D+00 0.669D+00
 Coeff:      0.109D+00 0.222D+00 0.669D+00
 Gap=     0.306 Goal=   None    Shift=    0.000
 RMSDP=1.43D-06 MaxDP=1.55D-04 DE=-1.70D-06 OVMax= 1.27D-04

 Cycle   9  Pass 1  IDiag  1:
 E= -191.588906358034     Delta-E=       -0.000000114368 Rises=F Damp=F
 DIIS: error= 1.92D-05 at cycle   4 NSaved=   4.
 NSaved= 4 IEnMin= 4 EnMin= -191.588906358034     IErMin= 3 ErrMin= 1.51D-05
 ErrMax= 1.92D-05  0.00D+00 EMaxC= 1.00D-01 BMatC= 2.13D-08 BMatP= 1.19D-07
 IDIUse=1 WtCom= 1.00D+00 WtEn= 0.00D+00
 Coeff-Com: -0.117D+00-0.788D-01 0.296D+00 0.900D+00
 Coeff:     -0.117D+00-0.788D-01 0.296D+00 0.900D+00
 Gap=     0.306 Goal=   None    Shift=    0.000
 RMSDP=9.04D-07 MaxDP=9.03D-05 DE=-1.14D-07 OVMax= 1.56D-04

 Cycle  10  Pass 1  IDiag  1:
 E= -191.588906397478     Delta-E=       -0.000000039444 Rises=F Damp=F
 DIIS: error= 3.34D-06 at cycle   5 NSaved=   5.
 NSaved= 5 IEnMin= 5 EnMin= -191.588906397478     IErMin= 5 ErrMin= 3.34D-06
 ErrMax= 3.34D-06  0.00D+00 EMaxC= 1.00D-01 BMatC= 5.31D-09 BMatP= 2.13D-08
 IDIUse=1 WtCom= 1.00D+00 WtEn= 0.00D+00
 Coeff-Com: -0.662D-01-0.541D-01 0.795D-01 0.489D+00 0.551D+00
 Coeff:     -0.662D-01-0.541D-01 0.795D-01 0.489D+00 0.551D+00
 Gap=     0.306 Goal=   None    Shift=    0.000
 RMSDP=1.98D-07 MaxDP=2.04D-05 DE=-3.94D-08 OVMax= 2.73D-05

 Cycle  11  Pass 1  IDiag  1:
 E= -191.588906401718     Delta-E=       -0.000000004240 Rises=F Damp=F
 DIIS: error= 1.18D-06 at cycle   6 NSaved=   6.
 NSaved= 6 IEnMin= 6 EnMin= -191.588906401718     IErMin= 6 ErrMin= 1.18D-06
 ErrMax= 1.18D-06  0.00D+00 EMaxC= 1.00D-01 BMatC= 3.16D-10 BMatP= 5.31D-09
 IDIUse=1 WtCom= 1.00D+00 WtEn= 0.00D+00
 Coeff-Com:  0.746D-02 0.315D-02-0.597D-01-0.182D-01 0.109D+00 0.958D+00
 Coeff:      0.746D-02 0.315D-02-0.597D-01-0.182D-01 0.109D+00 0.958D+00
 Gap=     0.306 Goal=   None    Shift=    0.000
 RMSDP=7.31D-08 MaxDP=7.40D-06 DE=-4.24D-09 OVMax= 8.24D-06

 Cycle  12  Pass 1  IDiag  1:
 E= -191.588906402131     Delta-E=       -0.000000000413 Rises=F Damp=F
 DIIS: error= 3.83D-07 at cycle   7 NSaved=   7.
 NSaved= 7 IEnMin= 7 EnMin= -191.588906402131     IErMin= 7 ErrMin= 3.83D-07
 ErrMax= 3.83D-07  0.00D+00 EMaxC= 1.00D-01 BMatC= 3.77D-11 BMatP= 3.16D-10
 IDIUse=1 WtCom= 1.00D+00 WtEn= 0.00D+00
 Coeff-Com:  0.864D-02 0.600D-02-0.331D-01-0.435D-01-0.150D-01 0.355D+00
 Coeff-Com:  0.722D+00
 Coeff:      0.864D-02 0.600D-02-0.331D-01-0.435D-01-0.150D-01 0.355D+00
 Coeff:      0.722D+00
 Gap=     0.306 Goal=   None    Shift=    0.000
 RMSDP=1.40D-08 MaxDP=5.57D-07 DE=-4.13D-10 OVMax= 2.60D-06

 Cycle  13  Pass 1  IDiag  1:
 E= -191.588906402173     Delta-E=       -0.000000000042 Rises=F Damp=F
 DIIS: error= 5.93D-08 at cycle   8 NSaved=   8.
 NSaved= 8 IEnMin= 8 EnMin= -191.588906402173     IErMin= 8 ErrMin= 5.93D-08
 ErrMax= 5.93D-08  0.00D+00 EMaxC= 1.00D-01 BMatC= 1.53D-12 BMatP= 3.77D-11
 IDIUse=1 WtCom= 1.00D+00 WtEn= 0.00D+00
 Coeff-Com: -0.662D-03-0.275D-03 0.519D-02 0.342D-02-0.124D-01-0.104D+00
 Coeff-Com:  0.265D-01 0.108D+01
 Coeff:     -0.662D-03-0.275D-03 0.519D-02 0.342D-02-0.124D-01-0.104D+00
 Coeff:      0.265D-01 0.108D+01
 Gap=     0.306 Goal=   None    Shift=    0.000
 RMSDP=6.21D-09 MaxDP=2.23D-07 DE=-4.24D-11 OVMax= 2.02D-06

 SCF Done:  E(RB2PLYPD3) =  -191.588906402     A.U. after   13 cycles
            NFock= 13  Conv=0.62D-08     -V/T= 2.0056
 KE= 1.905251758994D+02 PE=-6.506704582518D+02 EE= 1.670553688215D+02
 Leave Link  502 at Wed Aug 26 14:42:25 2020, MaxMem=  2097152000 cpu:       284.4
 (Enter /opt/cluster/programs/g09/g09_d.01/g09/l801.exe)
 DoSCS=T DFT=T ScalE2(SS,OS)=  0.270000  0.270000
 ExpMin= 7.60D-02 ExpMax= 1.17D+05 ExpMxC= 1.13D+03 IAcc=3 IRadAn=         5 AccDes= 0.00D+00
 HarFok:  IExCor=  205 AccDes= 0.00D+00 IRadAn=         5 IDoV=-2 UseB2=F ITyADJ=14
 ICtDFT= 12500011 ScaDFX=  1.000000  1.000000  1.000000  1.000000
 Largest valence mixing into a core orbital is  1.20D-04
 Largest core mixing into a valence orbital is  1.99D-05
 Range of M.O.s used for correlation:     5   348
 NBasis=   348 NAE=    15 NBE=    15 NFC=     4 NFV=     0
 NROrb=    344 NOA=    11 NOB=    11 NVA=   333 NVB=   333

 **** Warning!!: The largest alpha MO coefficient is  0.24321466D+02

 Leave Link  801 at Wed Aug 26 14:42:25 2020, MaxMem=  2097152000 cpu:         0.9
 (Enter /opt/cluster/programs/g09/g09_d.01/g09/l906.exe)
 DoSCS=T DFT=T ScalE2(SS,OS)=  0.270000  0.270000
 FulOut=F Deriv=F AODrv=F NAtomX=     8
   MMem=        1190  MDisk=          11 MDiskD=          11
  W3Min=     1567764 MinDsk=     2827057 NBas6D=         428
 NBas2D=       93150    NTT=       91806    LW2=     4508827
    MDV=  2096572590 MDiskM=       10875 NBas2p=       89263
 Fully direct method using O(OVN) memory.
 IMap=   1   2   3   4   5   6   7   8   9  10  11
 JobTyp=1 Pass  1:  I=   1 to  11 NPSUse=  8 ParTrn=T ParDer=T DoDerP=F.
 Spin components of T(2) and E(2):
     alpha-alpha T2 =       0.4667118738D-01 E2=     -0.3015157585D-01
     alpha-beta  T2 =       0.2858133435D+00 E2=     -0.1918614974D+00
     beta-beta   T2 =       0.4667118738D-01 E2=     -0.3015157585D-01
 The integrals were generated   1 times.
 E2(B2PLYPD3) =    -0.2521646491D+00 E(B2PLYPD3) =    -0.19184107105126D+03
 Leave Link  906 at Wed Aug 26 14:43:24 2020, MaxMem=  2097152000 cpu:       466.3
 (Enter /opt/cluster/programs/g09/g09_d.01/g09/l601.exe)
 Copying SCF densities to generalized density rwf, IOpCl= 0 IROHF=0.

 **********************************************************************

            Population analysis using the SCF density.

 **********************************************************************

 Orbital symmetries:
       Occupied  (A) (A) (A) (A) (A) (A) (A) (A) (A) (A) (A) (A)
                 (A) (A) (A)
       Virtual   (A) (A) (A) (A) (A) (A) (A) (A) (A) (A) (A) (A)
                 (A) (A) (A) (A) (A) (A) (A) (A) (A) (A) (A) (A)
                 (A) (A) (A) (A) (A) (A) (A) (A) (A) (A) (A) (A)
                 (A) (A) (A) (A) (A) (A) (A) (A) (A) (A) (A) (A)
                 (A) (A) (A) (A) (A) (A) (A) (A) (A) (A) (A) (A)
                 (A) (A) (A) (A) (A) (A) (A) (A) (A) (A) (A) (A)
                 (A) (A) (A) (A) (A) (A) (A) (A) (A) (A) (A) (A)
                 (A) (A) (A) (A) (A) (A) (A) (A) (A) (A) (A) (A)
                 (A) (A) (A) (A) (A) (A) (A) (A) (A) (A) (A) (A)
                 (A) (A) (A) (A) (A) (A) (A) (A) (A) (A) (A) (A)
                 (A) (A) (A) (A) (A) (A) (A) (A) (A) (A) (A) (A)
                 (A) (A) (A) (A) (A) (A) (A) (A) (A) (A) (A) (A)
                 (A) (A) (A) (A) (A) (A) (A) (A) (A) (A) (A) (A)
                 (A) (A) (A) (A) (A) (A) (A) (A) (A) (A) (A) (A)
                 (A) (A) (A) (A) (A) (A) (A) (A) (A) (A) (A) (A)
                 (A) (A) (A) (A) (A) (A) (A) (A) (A) (A) (A) (A)
                 (A) (A) (A) (A) (A) (A) (A) (A) (A) (A) (A) (A)
                 (A) (A) (A) (A) (A) (A) (A) (A) (A) (A) (A) (A)
                 (A) (A) (A) (A) (A) (A) (A) (A) (A) (A) (A) (A)
                 (A) (A) (A) (A) (A) (A) (A) (A) (A) (A) (A) (A)
                 (A) (A) (A) (A) (A) (A) (A) (A) (A) (A) (A) (A)
                 (A) (A) (A) (A) (A) (A) (A) (A) (A) (A) (A) (A)
                 (A) (A) (A) (A) (A) (A) (A) (A) (A) (A) (A) (A)
                 (A) (A) (A) (A) (A) (A) (A) (A) (A) (A) (A) (A)
                 (A) (A) (A) (A) (A) (A) (A) (A) (A) (A) (A) (A)
                 (A) (A) (A) (A) (A) (A) (A) (A) (A) (A) (A) (A)
                 (A) (A) (A) (A) (A) (A) (A) (A) (A) (A) (A) (A)
                 (A) (A) (A) (A) (A) (A) (A) (A) (A)
 The electronic state is 1-A.
 Alpha  occ. eigenvalues --  -19.72927 -10.72541 -10.66859 -10.66568  -1.16502
 Alpha  occ. eigenvalues --   -0.93606  -0.75905  -0.64849  -0.55945  -0.55729
 Alpha  occ. eigenvalues --   -0.49066  -0.45925  -0.45356  -0.34901  -0.33655
 Alpha virt. eigenvalues --   -0.03048   0.05435   0.05977   0.07772   0.09627
 Alpha virt. eigenvalues --    0.12319   0.13546   0.15054   0.16354   0.19448
 Alpha virt. eigenvalues --    0.19871   0.21664   0.24352   0.26649   0.28194
 Alpha virt. eigenvalues --    0.29188   0.31714   0.33933   0.36280   0.36937
 Alpha virt. eigenvalues --    0.38912   0.40482   0.41085   0.43159   0.44439
 Alpha virt. eigenvalues --    0.48711   0.49617   0.51545   0.53228   0.55975
 Alpha virt. eigenvalues --    0.59077   0.63056   0.66327   0.68576   0.69705
 Alpha virt. eigenvalues --    0.74030   0.76071   0.77214   0.78123   0.80283
 Alpha virt. eigenvalues --    0.80647   0.81966   0.82585   0.85007   0.86496
 Alpha virt. eigenvalues --    0.88355   0.90386   0.92545   0.93105   0.94784
 Alpha virt. eigenvalues --    0.96030   0.97025   1.00642   1.01372   1.04829
 Alpha virt. eigenvalues --    1.08611   1.11258   1.12081   1.14924   1.17915
 Alpha virt. eigenvalues --    1.20412   1.23807   1.24987   1.30582   1.37247
 Alpha virt. eigenvalues --    1.41231   1.44234   1.47848   1.52375   1.53260
 Alpha virt. eigenvalues --    1.54650   1.61003   1.64116   1.64898   1.69130
 Alpha virt. eigenvalues --    1.70300   1.76351   1.77387   1.81614   1.85725
 Alpha virt. eigenvalues --    1.86787   1.88300   1.90854   1.93178   1.95169
 Alpha virt. eigenvalues --    1.97136   1.97901   2.00034   2.01684   2.05111
 Alpha virt. eigenvalues --    2.05698   2.08422   2.11359   2.12628   2.14075
 Alpha virt. eigenvalues --    2.16338   2.17906   2.19600   2.25091   2.25477
 Alpha virt. eigenvalues --    2.30383   2.34538   2.36754   2.39555   2.40315
 Alpha virt. eigenvalues --    2.42388   2.45400   2.46921   2.49035   2.51103
 Alpha virt. eigenvalues --    2.52700   2.53782   2.56324   2.59740   2.61432
 Alpha virt. eigenvalues --    2.62028   2.64916   2.66117   2.67718   2.68999
 Alpha virt. eigenvalues --    2.73510   2.77265   2.80230   2.83316   2.83555
 Alpha virt. eigenvalues --    2.85048   2.91966   2.92540   2.99860   3.03111
 Alpha virt. eigenvalues --    3.09605   3.12105   3.22802   3.24400   3.27834
 Alpha virt. eigenvalues --    3.31485   3.33120   3.35843   3.38804   3.41626
 Alpha virt. eigenvalues --    3.43391   3.47402   3.51014   3.52757   3.57844
 Alpha virt. eigenvalues --    3.60908   3.68581   3.71811   3.75482   3.82047
 Alpha virt. eigenvalues --    3.86767   3.93169   3.94495   3.98978   4.03136
 Alpha virt. eigenvalues --    4.04895   4.13074   4.16473   4.19319   4.26917
 Alpha virt. eigenvalues --    4.33409   4.34030   4.46724   4.53427   4.62484
 Alpha virt. eigenvalues --    4.64395   4.74495   4.90000   4.92694   4.97165
 Alpha virt. eigenvalues --    4.99894   5.04470   5.07764   5.12852   5.13360
 Alpha virt. eigenvalues --    5.21448   5.24091   5.28727   5.31159   5.38763
 Alpha virt. eigenvalues --    5.43596   5.47315   5.57774   5.58433   5.60873
 Alpha virt. eigenvalues --    5.61013   5.66239   5.70552   5.72533   5.74283
 Alpha virt. eigenvalues --    5.76337   5.80385   5.81124   5.84887   5.87899
 Alpha virt. eigenvalues --    5.91500   5.95699   5.96995   5.99427   6.01922
 Alpha virt. eigenvalues --    6.02491   6.05712   6.09531   6.11000   6.12761
 Alpha virt. eigenvalues --    6.17159   6.19106   6.20469   6.22395   6.24996
 Alpha virt. eigenvalues --    6.28918   6.30356   6.32286   6.33345   6.35936
 Alpha virt. eigenvalues --    6.42558   6.44286   6.45842   6.47383   6.51989
 Alpha virt. eigenvalues --    6.53592   6.56078   6.58847   6.68092   6.71545
 Alpha virt. eigenvalues --    6.76133   6.79384   6.86065   6.87826   6.94859
 Alpha virt. eigenvalues --    6.97905   7.00672   7.03932   7.06637   7.11119
 Alpha virt. eigenvalues --    7.20900   7.24969   7.28676   7.31349   7.37819
 Alpha virt. eigenvalues --    7.40365   7.47307   7.50342   7.54793   7.60160
 Alpha virt. eigenvalues --    7.63450   7.64585   7.65615   7.69330   7.73110
 Alpha virt. eigenvalues --    7.78178   7.79958   7.84084   7.87483   7.95767
 Alpha virt. eigenvalues --    7.95945   8.00809   8.02505   8.12432   8.19199
 Alpha virt. eigenvalues --    8.20823   8.22143   8.24160   8.25941   8.28128
 Alpha virt. eigenvalues --    8.31616   8.32532   8.35736   8.41583   8.43178
 Alpha virt. eigenvalues --    8.45662   8.52901   8.54500   8.60966   8.63941
 Alpha virt. eigenvalues --    8.71660   8.77849   8.81161   8.88143   8.93549
 Alpha virt. eigenvalues --    8.98395   9.07064   9.07628   9.10441   9.17020
 Alpha virt. eigenvalues --    9.20739   9.25576   9.27132   9.38018   9.46212
 Alpha virt. eigenvalues --    9.54148   9.57096   9.64782   9.66037   9.73945
 Alpha virt. eigenvalues --    9.75608   9.84999  10.00268  10.03274  10.09176
 Alpha virt. eigenvalues --   10.09799  10.21114  10.43523  10.62067  10.71955
 Alpha virt. eigenvalues --   10.88112  10.92341  11.14873  11.24243  11.27148
 Alpha virt. eigenvalues --   11.61028  11.70364  11.73432  12.02596  12.04248
 Alpha virt. eigenvalues --   12.17227  12.20537  12.29168  12.34546  12.44385
 Alpha virt. eigenvalues --   12.97775  13.14977  13.44926  14.28164  14.41752
 Alpha virt. eigenvalues --   28.36995  28.76415  29.36128  48.56732 147.94692
 Alpha virt. eigenvalues --  148.30708 148.94230 254.31254
          Condensed to atoms (all electrons):
               1          2          3          4          5          6
     1  C    4.531291   0.604368   0.349750  -0.060911  -0.028073  -0.004309
     2  O    0.604368   7.917759  -0.079726   0.004627   0.007718   0.000342
     3  C    0.349750  -0.079726   5.130739   0.494549   0.366182  -0.045412
     4  C   -0.060911   0.004627   0.494549   4.864353  -0.033633   0.419991
     5  H   -0.028073   0.007718   0.366182  -0.033633   0.578089   0.004653
     6  H   -0.004309   0.000342  -0.045412   0.419991   0.004653   0.557910
     7  H    0.003875  -0.000574  -0.039105   0.412719  -0.005586  -0.038450
     8  H    0.436299  -0.080170  -0.146262   0.011603   0.010245   0.007676
               7          8
     1  C    0.003875   0.436299
     2  O   -0.000574  -0.080170
     3  C   -0.039105  -0.146262
     4  C    0.412719   0.011603
     5  H   -0.005586   0.010245
     6  H   -0.038450   0.007676
     7  H    0.562902  -0.000730
     8  H   -0.000730   0.713647
 Mulliken charges:
               1
     1  C    0.167710
     2  O   -0.374344
     3  C   -0.030714
     4  C   -0.113298
     5  H    0.100405
     6  H    0.097600
     7  H    0.104949
     8  H    0.047692
 Sum of Mulliken charges =   0.00000
 Mulliken charges with hydrogens summed into heavy atoms:
               1
     1  C    0.215402
     2  O   -0.374344
     3  C    0.069691
     4  C    0.089251
 Electronic spatial extent (au):  <R**2>=            303.6283
 Charge=              0.0000 electrons
 Dipole moment (field-independent basis, Debye):
    X=              3.8404    Y=              0.6106    Z=              0.1140  Tot=              3.8903
 Quadrupole moment (field-independent basis, Debye-Ang):
   XX=            -28.1839   YY=            -21.6903   ZZ=            -25.5040
   XY=             -0.4571   XZ=              0.8601   YZ=             -0.0491
 Traceless Quadrupole moment (field-independent basis, Debye-Ang):
   XX=             -3.0579   YY=              3.4358   ZZ=             -0.3779
   XY=             -0.4571   XZ=              0.8601   YZ=             -0.0491
 Octapole moment (field-independent basis, Debye-Ang**2):
  XXX=             15.5683  YYY=             -0.0788  ZZZ=              0.5718  XYY=              0.0560
  XXY=              0.8847  XXZ=              1.4091  XZZ=             -3.9200  YZZ=              0.2762
  YYZ=              0.6943  XYZ=             -0.1442
 Hexadecapole moment (field-independent basis, Debye-Ang**3):
 XXXX=           -311.7642 YYYY=            -58.0562 ZZZZ=            -28.3113 XXXY=             -2.5082
 XXXZ=              5.1268 YYYX=              1.6694 YYYZ=              0.1188 ZZZX=              0.4869
 ZZZY=             -0.1137 XXYY=            -59.7388 XXZZ=            -58.0612 YYZZ=            -16.7041
 XXYZ=             -0.6255 YYXZ=              0.6648 ZZXY=              0.4475
 N-N= 1.015010071288D+02 E-N=-6.506704661763D+02  KE= 1.905251758994D+02
 Leave Link  601 at Wed Aug 26 14:43:24 2020, MaxMem=  2097152000 cpu:         0.6
 (Enter /opt/cluster/programs/g09/g09_d.01/g09/l9999.exe)
 1\1\GINC-NODE18\SP\RB2PLYPD3-FC\def2QZVP\C3H4O1\BOITTIER\26-Aug-2020\0
 \\#p B2PLYPD3/Def2QZVP\\acrolein\\0,1\C,0,-4.991495,-1.424464,0.954987
 \O,0,-3.927613,-0.838995,0.612159\C,0,-5.193887,-2.837037,1.19597\C,0,
 -6.437804,-3.293229,1.387356\H,0,-4.140675,-3.447831,1.072711\H,0,-7.3
 07714,-2.63767,1.307299\H,0,-6.569345,-4.393383,1.352103\H,0,-5.966453
 ,-0.782818,0.886785\\Version=ES64L-G09RevD.01\State=1-A\HF=-191.588906
 4\MP2=-191.8410711\RMSD=6.214e-09\PG=C01 [X(C3H4O1)]\\@


 Not by the face shall a man be known, but by the mask.
                               -- Karen Blixen
 Job cpu time:       0 days  0 hours 12 minutes 45.2 seconds.
 File lengths (MBytes):  RWF=     49 Int=      0 D2E=      0 Chk=      7 Scr=      1
 Normal termination of Gaussian 09 at Wed Aug 26 14:43:24 2020.
