 Entering Gaussian System, Link 0=/opt/cluster/programs/g09/g09_d.01/g09//g09
 Input=/home/boittier/MDCM/nms_sampling/acrolein_geom.xyz.dir/energies/acrolein_179_energy.com
 Output=/scratch/boittier/acrolein_179_energy/acrolein_179_energy.out
 Initial command:
 /opt/cluster/programs/g09/g09_d.01/g09/l1.exe "/scratch/boittier/acrolein_179_energy/Gau-43043.inp" -scrdir="/scratch/boittier/acrolein_179_energy/"
 Entering Link 1 = /opt/cluster/programs/g09/g09_d.01/g09/l1.exe PID=     43044.
  
 Copyright (c) 1988,1990,1992,1993,1995,1998,2003,2009,2013,
            Gaussian, Inc.  All Rights Reserved.
  
 This is part of the Gaussian(R) 09 program.  It is based on
 the Gaussian(R) 03 system (copyright 2003, Gaussian, Inc.),
 the Gaussian(R) 98 system (copyright 1998, Gaussian, Inc.),
 the Gaussian(R) 94 system (copyright 1995, Gaussian, Inc.),
 the Gaussian 92(TM) system (copyright 1992, Gaussian, Inc.),
 the Gaussian 90(TM) system (copyright 1990, Gaussian, Inc.),
 the Gaussian 88(TM) system (copyright 1988, Gaussian, Inc.),
 the Gaussian 86(TM) system (copyright 1986, Carnegie Mellon
 University), and the Gaussian 82(TM) system (copyright 1983,
 Carnegie Mellon University). Gaussian is a federally registered
 trademark of Gaussian, Inc.
  
 This software contains proprietary and confidential information,
 including trade secrets, belonging to Gaussian, Inc.
  
 This software is provided under written license and may be
 used, copied, transmitted, or stored only in accord with that
 written license.
  
 The following legend is applicable only to US Government
 contracts under FAR:
  
                    RESTRICTED RIGHTS LEGEND
  
 Use, reproduction and disclosure by the US Government is
 subject to restrictions as set forth in subparagraphs (a)
 and (c) of the Commercial Computer Software - Restricted
 Rights clause in FAR 52.227-19.
  
 Gaussian, Inc.
 340 Quinnipiac St., Bldg. 40, Wallingford CT 06492
  
  
 ---------------------------------------------------------------
 Warning -- This program may not be used in any manner that
 competes with the business of Gaussian, Inc. or will provide
 assistance to any competitor of Gaussian, Inc.  The licensee
 of this program is prohibited from giving any competitor of
 Gaussian, Inc. access to this program.  By using this program,
 the user acknowledges that Gaussian, Inc. is engaged in the
 business of creating and licensing software in the field of
 computational chemistry and represents and warrants to the
 licensee that it is not a competitor of Gaussian, Inc. and that
 it will not use this program in any manner prohibited above.
 ---------------------------------------------------------------
  

 Cite this work as:
 Gaussian 09, Revision D.01,
 M. J. Frisch, G. W. Trucks, H. B. Schlegel, G. E. Scuseria, 
 M. A. Robb, J. R. Cheeseman, G. Scalmani, V. Barone, B. Mennucci, 
 G. A. Petersson, H. Nakatsuji, M. Caricato, X. Li, H. P. Hratchian, 
 A. F. Izmaylov, J. Bloino, G. Zheng, J. L. Sonnenberg, M. Hada, 
 M. Ehara, K. Toyota, R. Fukuda, J. Hasegawa, M. Ishida, T. Nakajima, 
 Y. Honda, O. Kitao, H. Nakai, T. Vreven, J. A. Montgomery, Jr., 
 J. E. Peralta, F. Ogliaro, M. Bearpark, J. J. Heyd, E. Brothers, 
 K. N. Kudin, V. N. Staroverov, T. Keith, R. Kobayashi, J. Normand, 
 K. Raghavachari, A. Rendell, J. C. Burant, S. S. Iyengar, J. Tomasi, 
 M. Cossi, N. Rega, J. M. Millam, M. Klene, J. E. Knox, J. B. Cross, 
 V. Bakken, C. Adamo, J. Jaramillo, R. Gomperts, R. E. Stratmann, 
 O. Yazyev, A. J. Austin, R. Cammi, C. Pomelli, J. W. Ochterski, 
 R. L. Martin, K. Morokuma, V. G. Zakrzewski, G. A. Voth, 
 P. Salvador, J. J. Dannenberg, S. Dapprich, A. D. Daniels, 
 O. Farkas, J. B. Foresman, J. V. Ortiz, J. Cioslowski, 
 and D. J. Fox, Gaussian, Inc., Wallingford CT, 2013.
 
 ******************************************
 Gaussian 09:  ES64L-G09RevD.01 24-Apr-2013
                26-Aug-2020 
 ******************************************
 %chk=/home/boittier/MDCM/nms_sampling/acrolein_geom.xyz.dir/acrolein_179.chk
 %nproc=8
 Will use up to    8 processors via shared memory.
 %mem=16000MB
 --------------------
 #p B2PLYPD3/Def2QZVP
 --------------------
 1/38=1/1;
 2/12=2,17=6,18=5,40=1/2;
 3/5=45,7=101,11=9,16=1,25=1,30=1,74=-60/1,2,3;
 4//1;
 5/5=2,38=5/2;
 8/10=1/1;
 9/16=-3/6;
 6/7=2,8=2,9=2,10=2/1;
 99/5=1,9=1/99;
 Leave Link    1 at Wed Aug 26 10:30:22 2020, MaxMem=  2097152000 cpu:         0.2
 (Enter /opt/cluster/programs/g09/g09_d.01/g09/l101.exe)
 --------
 acrolein
 --------
 Symbolic Z-matrix:
 Charge =  0 Multiplicity = 1
 C                    -4.99843  -1.39206   0.91569 
 O                    -3.93564  -0.86147   0.63667 
 C                    -5.18863  -2.83103   1.17662 
 C                    -6.41445  -3.29957   1.37532 
 H                    -4.33489  -3.44066   1.1033 
 H                    -7.28962  -2.66822   1.4161 
 H                    -6.5804   -4.33948   1.56395 
 H                    -5.88736  -0.8093    0.9762 
 
 NAtoms=      8 NQM=        8 NQMF=       0 NMMI=      0 NMMIF=      0
                NMic=       0 NMicF=      0.
                    Isotopes and Nuclear Properties:
 (Nuclear quadrupole moments (NQMom) in fm**2, nuclear magnetic moments (NMagM)
  in nuclear magnetons)

  Atom         1           2           3           4           5           6           7           8
 IAtWgt=          12          16          12          12           1           1           1           1
 AtmWgt=  12.0000000  15.9949146  12.0000000  12.0000000   1.0078250   1.0078250   1.0078250   1.0078250
 NucSpn=           0           0           0           0           1           1           1           1
 AtZEff=   0.0000000   0.0000000   0.0000000   0.0000000   0.0000000   0.0000000   0.0000000   0.0000000
 NQMom=    0.0000000   0.0000000   0.0000000   0.0000000   0.0000000   0.0000000   0.0000000   0.0000000
 NMagM=    0.0000000   0.0000000   0.0000000   0.0000000   2.7928460   2.7928460   2.7928460   2.7928460
 AtZNuc=   6.0000000   8.0000000   6.0000000   6.0000000   1.0000000   1.0000000   1.0000000   1.0000000
 Leave Link  101 at Wed Aug 26 10:30:22 2020, MaxMem=  2097152000 cpu:         0.5
 (Enter /opt/cluster/programs/g09/g09_d.01/g09/l202.exe)
                          Input orientation:                          
 ---------------------------------------------------------------------
 Center     Atomic      Atomic             Coordinates (Angstroms)
 Number     Number       Type             X           Y           Z
 ---------------------------------------------------------------------
      1          6           0       -4.998428   -1.392064    0.915691
      2          8           0       -3.935635   -0.861465    0.636672
      3          6           0       -5.188632   -2.831028    1.176620
      4          6           0       -6.414446   -3.299565    1.375321
      5          1           0       -4.334890   -3.440662    1.103304
      6          1           0       -7.289616   -2.668222    1.416096
      7          1           0       -6.580395   -4.339477    1.563954
      8          1           0       -5.887357   -0.809303    0.976201
 ---------------------------------------------------------------------
                    Distance matrix (angstroms):
                    1          2          3          4          5
     1  C    0.000000
     2  O    1.220211   0.000000
     3  C    1.474747   2.395981   0.000000
     4  C    2.419696   3.554495   1.327264   0.000000
     5  H    2.161535   2.651303   1.051620   2.102012   0.000000
     6  H    2.669930   3.888581   2.120846   1.079898   3.070001
     7  H    3.407361   4.466674   2.088648   1.069831   2.462186
     8  H    1.064644   1.981721   2.148431   2.576533   3.057836
                    6          7          8
     6  H    0.000000
     7  H    1.821524   0.000000
     8  H    2.369687   3.645255   0.000000
 Stoichiometry    C3H4O
 Framework group  C1[X(C3H4O)]
 Deg. of freedom    18
 Full point group                 C1      NOp   1
 Largest Abelian subgroup         C1      NOp   1
 Largest concise Abelian subgroup C1      NOp   1
                         Standard orientation:                         
 ---------------------------------------------------------------------
 Center     Atomic      Atomic             Coordinates (Angstroms)
 Number     Number       Type             X           Y           Z
 ---------------------------------------------------------------------
      1          6           0        0.664721    0.341281    0.018832
      2          8           0        1.797824   -0.109764   -0.020548
      3          6           0       -0.571425   -0.462874    0.031360
      4          6           0       -1.747112    0.150740   -0.022194
      5          1           0       -0.455189   -1.507324   -0.007590
      6          1           0       -1.854396    1.225271   -0.014935
      7          1           0       -2.658813   -0.409005   -0.017211
      8          1           0        0.508704    1.394289    0.036135
 ---------------------------------------------------------------------
 Rotational constants (GHZ):     48.6578277      4.6668949      4.2606307
 Leave Link  202 at Wed Aug 26 10:30:22 2020, MaxMem=  2097152000 cpu:         0.0
 (Enter /opt/cluster/programs/g09/g09_d.01/g09/l301.exe)
 Standard basis: def2QZVP (5D, 7F)
 Ernie: Thresh=  0.10000D-02 Tol=  0.10000D-05 Strict=F.
 There are   428 symmetry adapted cartesian basis functions of A   symmetry.
 There are   348 symmetry adapted basis functions of A   symmetry.
   348 basis functions,   520 primitive gaussians,   428 cartesian basis functions
    15 alpha electrons       15 beta electrons
       nuclear repulsion energy       103.4336971516 Hartrees.
 IExCor=  419 DFT=T Ex+Corr=B2PLYPD3 ExCW=0 ScaHFX=  0.530000
 ScaDFX=  0.470000  0.470000  0.730000  0.730000 ScalE2=  0.270000  0.270000
 IRadAn=      0 IRanWt=     -1 IRanGd=            0 ICorTp=0 IEmpDi=141
 NAtoms=    8 NActive=    8 NUniq=    8 SFac= 1.00D+00 NAtFMM=   60 NAOKFM=F Big=F
 Integral buffers will be    131072 words long.
 Regular integral format.
 Two-electron integral symmetry is turned on.
 R6Disp:  Grimme-D3(BJ) Dispersion energy=       -0.0035928732 Hartrees.
 Nuclear repulsion after empirical dispersion term =      103.4301042784 Hartrees.
 Leave Link  301 at Wed Aug 26 10:30:22 2020, MaxMem=  2097152000 cpu:         0.5
 (Enter /opt/cluster/programs/g09/g09_d.01/g09/l302.exe)
 NPDir=0 NMtPBC=     1 NCelOv=     1 NCel=       1 NClECP=     1 NCelD=      1
         NCelK=      1 NCelE2=     1 NClLst=     1 CellRange=     0.0.
 One-electron integrals computed using PRISM.
   1 Symmetry operations used in ECPInt.
 ECPInt:  NShTT=    5886 NPrTT=   14376 LenC2=    5781 LenP2D=   12190.
 LDataN:  DoStor=T MaxTD1= 8 Len=  415
 NBasis=   348 RedAO= T EigKep=  5.66D-05  NBF=   348
 NBsUse=   348 1.00D-06 EigRej= -1.00D+00 NBFU=   348
 Precomputing XC quadrature grid using
 IXCGrd= 4 IRadAn=           0 IRanWt=          -1 IRanGd=           0 AccXCQ= 0.00D+00.
 Generated NRdTot=       0 NPtTot=           0 NUsed=           0 NTot=          32
 NSgBfM=   428   428   428   428   428 MxSgAt=     8 MxSgA2=     8.
 Leave Link  302 at Wed Aug 26 10:30:22 2020, MaxMem=  2097152000 cpu:         2.6
 (Enter /opt/cluster/programs/g09/g09_d.01/g09/l303.exe)
 DipDrv:  MaxL=1.
 Leave Link  303 at Wed Aug 26 10:30:22 2020, MaxMem=  2097152000 cpu:         0.3
 (Enter /opt/cluster/programs/g09/g09_d.01/g09/l401.exe)
 ExpMin= 7.60D-02 ExpMax= 1.17D+05 ExpMxC= 1.13D+03 IAcc=2 IRadAn=         4 AccDes= 0.00D+00
 Harris functional with IExCor=  419 and IRadAn=       4 diagonalized for initial guess.
 HarFok:  IExCor=  419 AccDes= 0.00D+00 IRadAn=         4 IDoV= 1 UseB2=F ITyADJ=14
 ICtDFT=  3500011 ScaDFX=  1.000000  1.000000  1.000000  1.000000
 FoFCou: FMM=F IPFlag=           0 FMFlag=      100000 FMFlg1=           0
         NFxFlg=           0 DoJE=T BraDBF=F KetDBF=T FulRan=T
         wScrn=  0.000000 ICntrl=     500 IOpCl=  0 I1Cent=   200000004 NGrid=           0
         NMat0=    1 NMatS0=      1 NMatT0=    0 NMatD0=    1 NMtDS0=    0 NMtDT0=    0
 Petite list used in FoFCou.
 Harris En= -192.049560809114    
 JPrj=0 DoOrth=F DoCkMO=F.
 Leave Link  401 at Wed Aug 26 10:30:23 2020, MaxMem=  2097152000 cpu:         5.9
 (Enter /opt/cluster/programs/g09/g09_d.01/g09/l502.exe)
 Closed shell SCF:
 Using DIIS extrapolation, IDIIS=  1040.
 Integral symmetry usage will be decided dynamically.
 Keep R1 ints in memory in canonical form, NReq=1883905047.
 IVT=      574566 IEndB=      574566 NGot=  2097152000 MDV=   252723534
 LenX=   252723534 LenY=   252539909
 Requested convergence on RMS density matrix=1.00D-08 within 128 cycles.
 Requested convergence on MAX density matrix=1.00D-06.
 Requested convergence on             energy=1.00D-06.
 No special actions if energy rises.
 FoFCou: FMM=F IPFlag=           0 FMFlag=           0 FMFlg1=           0
         NFxFlg=           0 DoJE=F BraDBF=F KetDBF=F FulRan=T
         wScrn=  0.000000 ICntrl=     600 IOpCl=  0 I1Cent=           0 NGrid=           0
         NMat0=    1 NMatS0=  60726 NMatT0=    0 NMatD0=    1 NMtDS0=    0 NMtDT0=    0
 Symmetry not used in FoFCou.
 Integral accuracy reduced to 1.0D-05 until final iterations.

 Cycle   1  Pass 0  IDiag  1:
 E= -191.472170504441    
 DIIS: error= 2.44D-02 at cycle   1 NSaved=   1.
 NSaved= 1 IEnMin= 1 EnMin= -191.472170504441     IErMin= 1 ErrMin= 2.44D-02
 ErrMax= 2.44D-02  0.00D+00 EMaxC= 1.00D-01 BMatC= 2.56D-01 BMatP= 2.56D-01
 IDIUse=3 WtCom= 7.56D-01 WtEn= 2.44D-01
 Coeff-Com:  0.100D+01
 Coeff-En:   0.100D+01
 Coeff:      0.100D+01
 Gap=     0.286 Goal=   None    Shift=    0.000
 GapD=    0.286 DampG=1.000 DampE=0.500 DampFc=0.5000 IDamp=-1.
 Damping current iteration by 5.00D-01
 RMSDP=1.82D-03 MaxDP=2.24D-01              OVMax= 1.72D-01

 Cycle   2  Pass 0  IDiag  1:
 E= -191.542190657933     Delta-E=       -0.070020153492 Rises=F Damp=T
 DIIS: error= 9.88D-03 at cycle   2 NSaved=   2.
 NSaved= 2 IEnMin= 2 EnMin= -191.542190657933     IErMin= 2 ErrMin= 9.88D-03
 ErrMax= 9.88D-03  0.00D+00 EMaxC= 1.00D-01 BMatC= 3.40D-02 BMatP= 2.56D-01
 IDIUse=3 WtCom= 9.01D-01 WtEn= 9.88D-02
 Coeff-Com: -0.163D+00 0.116D+01
 Coeff-En:   0.000D+00 0.100D+01
 Coeff:     -0.147D+00 0.115D+01
 Gap=     0.351 Goal=   None    Shift=    0.000
 RMSDP=6.16D-04 MaxDP=7.54D-02 DE=-7.00D-02 OVMax= 1.32D-01

 Cycle   3  Pass 0  IDiag  1:
 E= -191.603146739477     Delta-E=       -0.060956081544 Rises=F Damp=F
 DIIS: error= 1.02D-02 at cycle   3 NSaved=   3.
 NSaved= 3 IEnMin= 3 EnMin= -191.603146739477     IErMin= 2 ErrMin= 9.88D-03
 ErrMax= 1.02D-02  0.00D+00 EMaxC= 1.00D-01 BMatC= 1.74D-02 BMatP= 3.40D-02
 IDIUse=3 WtCom= 8.98D-01 WtEn= 1.02D-01
 Coeff-Com: -0.194D+00 0.534D+00 0.661D+00
 Coeff-En:   0.000D+00 0.000D+00 0.100D+01
 Coeff:     -0.174D+00 0.479D+00 0.695D+00
 Gap=     0.335 Goal=   None    Shift=    0.000
 RMSDP=2.48D-04 MaxDP=1.84D-02 DE=-6.10D-02 OVMax= 4.83D-02

 Cycle   4  Pass 0  IDiag  1:
 E= -191.612690203546     Delta-E=       -0.009543464068 Rises=F Damp=F
 DIIS: error= 4.34D-03 at cycle   4 NSaved=   4.
 NSaved= 4 IEnMin= 4 EnMin= -191.612690203546     IErMin= 4 ErrMin= 4.34D-03
 ErrMax= 4.34D-03  0.00D+00 EMaxC= 1.00D-01 BMatC= 3.18D-03 BMatP= 1.74D-02
 IDIUse=3 WtCom= 9.57D-01 WtEn= 4.34D-02
 Coeff-Com: -0.599D-01 0.998D-01 0.362D+00 0.598D+00
 Coeff-En:   0.000D+00 0.000D+00 0.169D+00 0.831D+00
 Coeff:     -0.573D-01 0.955D-01 0.354D+00 0.608D+00
 Gap=     0.321 Goal=   None    Shift=    0.000
 RMSDP=1.02D-04 MaxDP=8.38D-03 DE=-9.54D-03 OVMax= 1.47D-02

 Cycle   5  Pass 0  IDiag  1:
 E= -191.615237981578     Delta-E=       -0.002547778032 Rises=F Damp=F
 DIIS: error= 3.32D-04 at cycle   5 NSaved=   5.
 NSaved= 5 IEnMin= 5 EnMin= -191.615237981578     IErMin= 5 ErrMin= 3.32D-04
 ErrMax= 3.32D-04  0.00D+00 EMaxC= 1.00D-01 BMatC= 1.25D-05 BMatP= 3.18D-03
 IDIUse=3 WtCom= 9.97D-01 WtEn= 3.32D-03
 Coeff-Com: -0.849D-02 0.110D-01 0.585D-01 0.133D+00 0.806D+00
 Coeff-En:   0.000D+00 0.000D+00 0.000D+00 0.000D+00 0.100D+01
 Coeff:     -0.846D-02 0.110D-01 0.583D-01 0.132D+00 0.807D+00
 Gap=     0.320 Goal=   None    Shift=    0.000
 RMSDP=8.52D-06 MaxDP=5.80D-04 DE=-2.55D-03 OVMax= 2.23D-03

 Initial convergence to 1.0D-05 achieved.  Increase integral accuracy.
 Cycle   6  Pass 1  IDiag  1:
 E= -191.615243135576     Delta-E=       -0.000005153998 Rises=F Damp=F
 DIIS: error= 1.02D-04 at cycle   1 NSaved=   1.
 NSaved= 1 IEnMin= 1 EnMin= -191.615243135576     IErMin= 1 ErrMin= 1.02D-04
 ErrMax= 1.02D-04  0.00D+00 EMaxC= 1.00D-01 BMatC= 1.56D-06 BMatP= 1.56D-06
 IDIUse=3 WtCom= 9.99D-01 WtEn= 1.02D-03
 Coeff-Com:  0.100D+01
 Coeff-En:   0.100D+01
 Coeff:      0.100D+01
 Gap=     0.321 Goal=   None    Shift=    0.000
 RMSDP=8.52D-06 MaxDP=5.80D-04 DE=-5.15D-06 OVMax= 7.31D-04

 Cycle   7  Pass 1  IDiag  1:
 E= -191.615244315967     Delta-E=       -0.000001180391 Rises=F Damp=F
 DIIS: error= 6.73D-05 at cycle   2 NSaved=   2.
 NSaved= 2 IEnMin= 2 EnMin= -191.615244315967     IErMin= 2 ErrMin= 6.73D-05
 ErrMax= 6.73D-05  0.00D+00 EMaxC= 1.00D-01 BMatC= 8.56D-07 BMatP= 1.56D-06
 IDIUse=1 WtCom= 1.00D+00 WtEn= 0.00D+00
 Coeff-Com:  0.417D+00 0.583D+00
 Coeff:      0.417D+00 0.583D+00
 Gap=     0.320 Goal=   None    Shift=    0.000
 RMSDP=1.63D-06 MaxDP=1.01D-04 DE=-1.18D-06 OVMax= 4.54D-04

 Cycle   8  Pass 1  IDiag  1:
 E= -191.615245100386     Delta-E=       -0.000000784419 Rises=F Damp=F
 DIIS: error= 1.67D-05 at cycle   3 NSaved=   3.
 NSaved= 3 IEnMin= 3 EnMin= -191.615245100386     IErMin= 3 ErrMin= 1.67D-05
 ErrMax= 1.67D-05  0.00D+00 EMaxC= 1.00D-01 BMatC= 6.40D-08 BMatP= 8.56D-07
 IDIUse=1 WtCom= 1.00D+00 WtEn= 0.00D+00
 Coeff-Com:  0.520D-01 0.183D+00 0.765D+00
 Coeff:      0.520D-01 0.183D+00 0.765D+00
 Gap=     0.321 Goal=   None    Shift=    0.000
 RMSDP=1.47D-06 MaxDP=1.63D-04 DE=-7.84D-07 OVMax= 1.15D-04

 Cycle   9  Pass 1  IDiag  1:
 E= -191.615245159899     Delta-E=       -0.000000059512 Rises=F Damp=F
 DIIS: error= 1.54D-05 at cycle   4 NSaved=   4.
 NSaved= 4 IEnMin= 4 EnMin= -191.615245159899     IErMin= 4 ErrMin= 1.54D-05
 ErrMax= 1.54D-05  0.00D+00 EMaxC= 1.00D-01 BMatC= 1.86D-08 BMatP= 6.40D-08
 IDIUse=1 WtCom= 1.00D+00 WtEn= 0.00D+00
 Coeff-Com: -0.111D+00-0.843D-01 0.418D+00 0.778D+00
 Coeff:     -0.111D+00-0.843D-01 0.418D+00 0.778D+00
 Gap=     0.321 Goal=   None    Shift=    0.000
 RMSDP=6.85D-07 MaxDP=7.16D-05 DE=-5.95D-08 OVMax= 1.08D-04

 Cycle  10  Pass 1  IDiag  1:
 E= -191.615245186090     Delta-E=       -0.000000026191 Rises=F Damp=F
 DIIS: error= 2.12D-06 at cycle   5 NSaved=   5.
 NSaved= 5 IEnMin= 5 EnMin= -191.615245186090     IErMin= 5 ErrMin= 2.12D-06
 ErrMax= 2.12D-06  0.00D+00 EMaxC= 1.00D-01 BMatC= 1.39D-09 BMatP= 1.86D-08
 IDIUse=1 WtCom= 1.00D+00 WtEn= 0.00D+00
 Coeff-Com: -0.361D-01-0.353D-01 0.629D-01 0.288D+00 0.721D+00
 Coeff:     -0.361D-01-0.353D-01 0.629D-01 0.288D+00 0.721D+00
 Gap=     0.321 Goal=   None    Shift=    0.000
 RMSDP=1.40D-07 MaxDP=1.50D-05 DE=-2.62D-08 OVMax= 1.99D-05

 Cycle  11  Pass 1  IDiag  1:
 E= -191.615245187225     Delta-E=       -0.000000001135 Rises=F Damp=F
 DIIS: error= 1.05D-06 at cycle   6 NSaved=   6.
 NSaved= 6 IEnMin= 6 EnMin= -191.615245187225     IErMin= 6 ErrMin= 1.05D-06
 ErrMax= 1.05D-06  0.00D+00 EMaxC= 1.00D-01 BMatC= 2.00D-10 BMatP= 1.39D-09
 IDIUse=1 WtCom= 1.00D+00 WtEn= 0.00D+00
 Coeff-Com:  0.669D-02 0.139D-02-0.668D-01-0.604D-02 0.273D+00 0.792D+00
 Coeff:      0.669D-02 0.139D-02-0.668D-01-0.604D-02 0.273D+00 0.792D+00
 Gap=     0.321 Goal=   None    Shift=    0.000
 RMSDP=5.26D-08 MaxDP=5.46D-06 DE=-1.13D-09 OVMax= 5.44D-06

 Cycle  12  Pass 1  IDiag  1:
 E= -191.615245187428     Delta-E=       -0.000000000204 Rises=F Damp=F
 DIIS: error= 3.42D-07 at cycle   7 NSaved=   7.
 NSaved= 7 IEnMin= 7 EnMin= -191.615245187428     IErMin= 7 ErrMin= 3.42D-07
 ErrMax= 3.42D-07  0.00D+00 EMaxC= 1.00D-01 BMatC= 1.49D-11 BMatP= 2.00D-10
 IDIUse=1 WtCom= 1.00D+00 WtEn= 0.00D+00
 Coeff-Com:  0.543D-02 0.330D-02-0.333D-01-0.189D-01 0.524D-01 0.310D+00
 Coeff-Com:  0.681D+00
 Coeff:      0.543D-02 0.330D-02-0.333D-01-0.189D-01 0.524D-01 0.310D+00
 Coeff:      0.681D+00
 Gap=     0.321 Goal=   None    Shift=    0.000
 RMSDP=8.02D-09 MaxDP=4.40D-07 DE=-2.04D-10 OVMax= 2.02D-06

 SCF Done:  E(RB2PLYPD3) =  -191.615245187     A.U. after   12 cycles
            NFock= 12  Conv=0.80D-08     -V/T= 2.0028
 KE= 1.910831019357D+02 PE=-6.549878934424D+02 EE= 1.688594420408D+02
 Leave Link  502 at Wed Aug 26 10:31:31 2020, MaxMem=  2097152000 cpu:       258.6
 (Enter /opt/cluster/programs/g09/g09_d.01/g09/l801.exe)
 DoSCS=T DFT=T ScalE2(SS,OS)=  0.270000  0.270000
 ExpMin= 7.60D-02 ExpMax= 1.17D+05 ExpMxC= 1.13D+03 IAcc=3 IRadAn=         5 AccDes= 0.00D+00
 HarFok:  IExCor=  205 AccDes= 0.00D+00 IRadAn=         5 IDoV=-2 UseB2=F ITyADJ=14
 ICtDFT= 12500011 ScaDFX=  1.000000  1.000000  1.000000  1.000000
 Largest valence mixing into a core orbital is  1.15D-04
 Largest core mixing into a valence orbital is  1.85D-05
 Range of M.O.s used for correlation:     5   348
 NBasis=   348 NAE=    15 NBE=    15 NFC=     4 NFV=     0
 NROrb=    344 NOA=    11 NOB=    11 NVA=   333 NVB=   333

 **** Warning!!: The largest alpha MO coefficient is  0.29578886D+02

 Leave Link  801 at Wed Aug 26 10:31:31 2020, MaxMem=  2097152000 cpu:         0.9
 (Enter /opt/cluster/programs/g09/g09_d.01/g09/l906.exe)
 DoSCS=T DFT=T ScalE2(SS,OS)=  0.270000  0.270000
 FulOut=F Deriv=F AODrv=F NAtomX=     8
   MMem=        1190  MDisk=          11 MDiskD=          11
  W3Min=     1567764 MinDsk=     2827057 NBas6D=         428
 NBas2D=       93150    NTT=       91806    LW2=     4508827
    MDV=  2096570596 MDiskM=       10875 NBas2p=       89490
 Fully direct method using O(OVN) memory.
 IMap=   1   2   3   4   5   6   7   8   9  10  11
 JobTyp=1 Pass  1:  I=   1 to  11 NPSUse=  8 ParTrn=T ParDer=T DoDerP=F.
 Spin components of T(2) and E(2):
     alpha-alpha T2 =       0.4355115441D-01 E2=     -0.2944848188D-01
     alpha-beta  T2 =       0.2649073813D+00 E2=     -0.1879941916D+00
     beta-beta   T2 =       0.4355115441D-01 E2=     -0.2944848188D-01
 The integrals were generated   1 times.
 E2(B2PLYPD3) =    -0.2468911553D+00 E(B2PLYPD3) =    -0.19186213634277D+03
 Leave Link  906 at Wed Aug 26 10:32:46 2020, MaxMem=  2097152000 cpu:       592.4
 (Enter /opt/cluster/programs/g09/g09_d.01/g09/l601.exe)
 Copying SCF densities to generalized density rwf, IOpCl= 0 IROHF=0.

 **********************************************************************

            Population analysis using the SCF density.

 **********************************************************************

 Orbital symmetries:
       Occupied  (A) (A) (A) (A) (A) (A) (A) (A) (A) (A) (A) (A)
                 (A) (A) (A)
       Virtual   (A) (A) (A) (A) (A) (A) (A) (A) (A) (A) (A) (A)
                 (A) (A) (A) (A) (A) (A) (A) (A) (A) (A) (A) (A)
                 (A) (A) (A) (A) (A) (A) (A) (A) (A) (A) (A) (A)
                 (A) (A) (A) (A) (A) (A) (A) (A) (A) (A) (A) (A)
                 (A) (A) (A) (A) (A) (A) (A) (A) (A) (A) (A) (A)
                 (A) (A) (A) (A) (A) (A) (A) (A) (A) (A) (A) (A)
                 (A) (A) (A) (A) (A) (A) (A) (A) (A) (A) (A) (A)
                 (A) (A) (A) (A) (A) (A) (A) (A) (A) (A) (A) (A)
                 (A) (A) (A) (A) (A) (A) (A) (A) (A) (A) (A) (A)
                 (A) (A) (A) (A) (A) (A) (A) (A) (A) (A) (A) (A)
                 (A) (A) (A) (A) (A) (A) (A) (A) (A) (A) (A) (A)
                 (A) (A) (A) (A) (A) (A) (A) (A) (A) (A) (A) (A)
                 (A) (A) (A) (A) (A) (A) (A) (A) (A) (A) (A) (A)
                 (A) (A) (A) (A) (A) (A) (A) (A) (A) (A) (A) (A)
                 (A) (A) (A) (A) (A) (A) (A) (A) (A) (A) (A) (A)
                 (A) (A) (A) (A) (A) (A) (A) (A) (A) (A) (A) (A)
                 (A) (A) (A) (A) (A) (A) (A) (A) (A) (A) (A) (A)
                 (A) (A) (A) (A) (A) (A) (A) (A) (A) (A) (A) (A)
                 (A) (A) (A) (A) (A) (A) (A) (A) (A) (A) (A) (A)
                 (A) (A) (A) (A) (A) (A) (A) (A) (A) (A) (A) (A)
                 (A) (A) (A) (A) (A) (A) (A) (A) (A) (A) (A) (A)
                 (A) (A) (A) (A) (A) (A) (A) (A) (A) (A) (A) (A)
                 (A) (A) (A) (A) (A) (A) (A) (A) (A) (A) (A) (A)
                 (A) (A) (A) (A) (A) (A) (A) (A) (A) (A) (A) (A)
                 (A) (A) (A) (A) (A) (A) (A) (A) (A) (A) (A) (A)
                 (A) (A) (A) (A) (A) (A) (A) (A) (A) (A) (A) (A)
                 (A) (A) (A) (A) (A) (A) (A) (A) (A) (A) (A) (A)
                 (A) (A) (A) (A) (A) (A) (A) (A) (A)
 The electronic state is 1-A.
 Alpha  occ. eigenvalues --  -19.72679 -10.71185 -10.65293 -10.64140  -1.18808
 Alpha  occ. eigenvalues --   -0.93353  -0.75744  -0.67961  -0.56756  -0.56549
 Alpha  occ. eigenvalues --   -0.50635  -0.47362  -0.46352  -0.34820  -0.33802
 Alpha virt. eigenvalues --   -0.01747   0.05739   0.07377   0.08050   0.09698
 Alpha virt. eigenvalues --    0.12712   0.14031   0.15325   0.17710   0.19726
 Alpha virt. eigenvalues --    0.20025   0.21663   0.25354   0.26637   0.28627
 Alpha virt. eigenvalues --    0.31861   0.34074   0.35892   0.37669   0.38663
 Alpha virt. eigenvalues --    0.39425   0.42005   0.43102   0.44461   0.46870
 Alpha virt. eigenvalues --    0.47500   0.49237   0.53595   0.54297   0.57117
 Alpha virt. eigenvalues --    0.58637   0.64622   0.65772   0.68192   0.71193
 Alpha virt. eigenvalues --    0.75133   0.76437   0.78264   0.80175   0.81312
 Alpha virt. eigenvalues --    0.81525   0.82518   0.83027   0.84322   0.85851
 Alpha virt. eigenvalues --    0.88258   0.91443   0.92496   0.93733   0.95619
 Alpha virt. eigenvalues --    0.96435   0.98010   1.01087   1.02094   1.07793
 Alpha virt. eigenvalues --    1.09435   1.12736   1.14808   1.17417   1.19242
 Alpha virt. eigenvalues --    1.21808   1.25856   1.27928   1.35720   1.40527
 Alpha virt. eigenvalues --    1.43181   1.47430   1.48589   1.55115   1.57287
 Alpha virt. eigenvalues --    1.59083   1.62887   1.66882   1.69386   1.71704
 Alpha virt. eigenvalues --    1.73806   1.75488   1.79149   1.81681   1.82826
 Alpha virt. eigenvalues --    1.86308   1.89449   1.91019   1.93464   1.93679
 Alpha virt. eigenvalues --    1.96493   1.98467   2.00184   2.01895   2.03748
 Alpha virt. eigenvalues --    2.06249   2.09966   2.11470   2.13289   2.13727
 Alpha virt. eigenvalues --    2.17062   2.18613   2.19731   2.23190   2.27088
 Alpha virt. eigenvalues --    2.29377   2.35519   2.37601   2.40513   2.44916
 Alpha virt. eigenvalues --    2.45655   2.47003   2.48945   2.49782   2.54541
 Alpha virt. eigenvalues --    2.55962   2.57710   2.59556   2.61451   2.65438
 Alpha virt. eigenvalues --    2.65555   2.67368   2.68309   2.71400   2.74766
 Alpha virt. eigenvalues --    2.76209   2.79354   2.86775   2.87880   2.89107
 Alpha virt. eigenvalues --    2.90577   2.96644   2.99813   3.03540   3.05537
 Alpha virt. eigenvalues --    3.18326   3.20540   3.31129   3.32760   3.35754
 Alpha virt. eigenvalues --    3.36771   3.41571   3.43127   3.46164   3.51550
 Alpha virt. eigenvalues --    3.52616   3.58354   3.63043   3.65882   3.68311
 Alpha virt. eigenvalues --    3.68771   3.76193   3.80569   3.82055   3.92857
 Alpha virt. eigenvalues --    3.94435   3.99749   4.03238   4.05275   4.07421
 Alpha virt. eigenvalues --    4.13365   4.19687   4.21190   4.25866   4.32347
 Alpha virt. eigenvalues --    4.40252   4.43928   4.55718   4.61400   4.63463
 Alpha virt. eigenvalues --    4.68018   4.81623   4.88942   4.90972   4.98167
 Alpha virt. eigenvalues --    5.04006   5.06473   5.09365   5.11275   5.12893
 Alpha virt. eigenvalues --    5.21555   5.27728   5.30878   5.35237   5.43370
 Alpha virt. eigenvalues --    5.45755   5.53335   5.54077   5.58687   5.59301
 Alpha virt. eigenvalues --    5.68090   5.70117   5.72254   5.75219   5.77293
 Alpha virt. eigenvalues --    5.80217   5.81812   5.85571   5.90429   5.96555
 Alpha virt. eigenvalues --    5.97979   5.99821   6.03807   6.06751   6.08458
 Alpha virt. eigenvalues --    6.09795   6.14780   6.16423   6.18582   6.20428
 Alpha virt. eigenvalues --    6.23756   6.26124   6.28438   6.29636   6.32223
 Alpha virt. eigenvalues --    6.34672   6.37520   6.39567   6.47178   6.48754
 Alpha virt. eigenvalues --    6.54747   6.56553   6.58493   6.59712   6.64787
 Alpha virt. eigenvalues --    6.66661   6.70705   6.75493   6.76649   6.79053
 Alpha virt. eigenvalues --    6.85185   6.87694   7.00004   7.05810   7.06493
 Alpha virt. eigenvalues --    7.06994   7.11451   7.13149   7.17863   7.23478
 Alpha virt. eigenvalues --    7.35765   7.42713   7.45833   7.52469   7.54806
 Alpha virt. eigenvalues --    7.56969   7.59521   7.63043   7.66148   7.70025
 Alpha virt. eigenvalues --    7.70649   7.72438   7.75245   7.76928   7.79675
 Alpha virt. eigenvalues --    7.87699   7.88083   7.94178   8.03300   8.07737
 Alpha virt. eigenvalues --    8.10463   8.12423   8.13749   8.17468   8.22224
 Alpha virt. eigenvalues --    8.24823   8.27928   8.31451   8.33623   8.35456
 Alpha virt. eigenvalues --    8.38580   8.48360   8.48576   8.52672   8.58176
 Alpha virt. eigenvalues --    8.62277   8.63428   8.64782   8.70084   8.73670
 Alpha virt. eigenvalues --    8.87207   8.95786   8.97013   9.03478   9.09157
 Alpha virt. eigenvalues --    9.09553   9.12489   9.22212   9.33264   9.36172
 Alpha virt. eigenvalues --    9.37647   9.46943   9.61335   9.73160   9.87171
 Alpha virt. eigenvalues --    9.94685   9.98534  10.00589  10.01228  10.04977
 Alpha virt. eigenvalues --   10.08417  10.16369  10.23200  10.26616  10.37015
 Alpha virt. eigenvalues --   10.40084  10.52453  10.53372  10.73486  10.99830
 Alpha virt. eigenvalues --   11.13106  11.25585  11.28349  11.37454  11.64230
 Alpha virt. eigenvalues --   11.65911  11.74575  11.82584  12.04382  12.09975
 Alpha virt. eigenvalues --   12.32698  12.36132  12.49542  12.60788  13.06301
 Alpha virt. eigenvalues --   13.19286  13.33644  13.76765  14.37546  14.67518
 Alpha virt. eigenvalues --   28.70235  28.91787  29.59410  48.65128 148.29521
 Alpha virt. eigenvalues --  148.48545 149.20605 254.41073
          Condensed to atoms (all electrons):
               1          2          3          4          5          6
     1  C    4.494351   0.625400   0.372908  -0.056965  -0.031316  -0.004527
     2  O    0.625400   7.889277  -0.089801   0.005875   0.006935   0.000485
     3  C    0.372908  -0.089801   5.161144   0.484796   0.365187  -0.048103
     4  C   -0.056965   0.005875   0.484796   4.865413  -0.036933   0.426051
     5  H   -0.031316   0.006935   0.365187  -0.036933   0.577574   0.004991
     6  H   -0.004527   0.000485  -0.048103   0.426051   0.004991   0.571498
     7  H    0.002922  -0.000621  -0.034631   0.415293  -0.005103  -0.042695
     8  H    0.443832  -0.080234  -0.171258   0.024764   0.009213   0.005836
               7          8
     1  C    0.002922   0.443832
     2  O   -0.000621  -0.080234
     3  C   -0.034631  -0.171258
     4  C    0.415293   0.024764
     5  H   -0.005103   0.009213
     6  H   -0.042695   0.005836
     7  H    0.567345  -0.000796
     8  H   -0.000796   0.690385
 Mulliken charges:
               1
     1  C    0.153395
     2  O   -0.357316
     3  C   -0.040243
     4  C   -0.128295
     5  H    0.109452
     6  H    0.086464
     7  H    0.098285
     8  H    0.078258
 Sum of Mulliken charges =   0.00000
 Mulliken charges with hydrogens summed into heavy atoms:
               1
     1  C    0.231652
     2  O   -0.357316
     3  C    0.069209
     4  C    0.056454
 Electronic spatial extent (au):  <R**2>=            297.6585
 Charge=              0.0000 electrons
 Dipole moment (field-independent basis, Debye):
    X=             -3.5828    Y=              0.7646    Z=              0.0457  Tot=              3.6638
 Quadrupole moment (field-independent basis, Debye-Ang):
   XX=            -27.5907   YY=            -21.6350   ZZ=            -25.1222
   XY=              0.7891   XZ=              0.1756   YZ=              0.0337
 Traceless Quadrupole moment (field-independent basis, Debye-Ang):
   XX=             -2.8081   YY=              3.1476   ZZ=             -0.3396
   XY=              0.7891   XZ=              0.1756   YZ=              0.0337
 Octapole moment (field-independent basis, Debye-Ang**2):
  XXX=            -15.4437  YYY=              0.1164  ZZZ=             -0.1027  XYY=              0.0521
  XXY=              0.9886  XXZ=              0.0813  XZZ=              4.1978  YZZ=              0.1879
  YYZ=             -0.0669  XYZ=              0.0029
 Hexadecapole moment (field-independent basis, Debye-Ang**3):
 XXXX=           -303.5443 YYYY=            -53.8753 ZZZZ=            -27.2339 XXXY=              2.1535
 XXXZ=              0.3614 YYYX=             -0.3498 YYYZ=              0.1685 ZZZX=             -0.0243
 ZZZY=              0.0486 XXYY=            -57.8554 XXZZ=            -57.1714 YYZZ=            -15.1749
 XXYZ=              0.0013 YYXZ=              0.0659 ZZXY=             -0.3049
 N-N= 1.034301042784D+02 E-N=-6.549878637788D+02  KE= 1.910831019357D+02
 Leave Link  601 at Wed Aug 26 10:32:46 2020, MaxMem=  2097152000 cpu:         0.6
 (Enter /opt/cluster/programs/g09/g09_d.01/g09/l9999.exe)
 1\1\GINC-NODE26\SP\RB2PLYPD3-FC\def2QZVP\C3H4O1\BOITTIER\26-Aug-2020\0
 \\#p B2PLYPD3/Def2QZVP\\acrolein\\0,1\C,0,-4.998428,-1.392064,0.915691
 \O,0,-3.935635,-0.861465,0.636672\C,0,-5.188632,-2.831028,1.17662\C,0,
 -6.414446,-3.299565,1.375321\H,0,-4.33489,-3.440662,1.103304\H,0,-7.28
 9616,-2.668222,1.416096\H,0,-6.580395,-4.339477,1.563954\H,0,-5.887357
 ,-0.809303,0.976201\\Version=ES64L-G09RevD.01\State=1-A\HF=-191.615245
 2\MP2=-191.8621363\RMSD=8.024e-09\PG=C01 [X(C3H4O1)]\\@


 SIGN SEEN IN A RESTAURANT-
 WE RESERVE THE RIGHT TO SERVE REFUSE TO ANYONE.
 Job cpu time:       0 days  0 hours 14 minutes 23.0 seconds.
 File lengths (MBytes):  RWF=     49 Int=      0 D2E=      0 Chk=      7 Scr=      1
 Normal termination of Gaussian 09 at Wed Aug 26 10:32:46 2020.
