 Entering Gaussian System, Link 0=/opt/cluster/programs/g09/g09_d.01/g09//g09
 Input=/home/boittier/MDCM/nms_sampling/acrolein_geom.xyz.dir/energies/acrolein_463_energy.com
 Output=/scratch/boittier/acrolein_463_energy/acrolein_463_energy.out
 Initial command:
 /opt/cluster/programs/g09/g09_d.01/g09/l1.exe "/scratch/boittier/acrolein_463_energy/Gau-77351.inp" -scrdir="/scratch/boittier/acrolein_463_energy/"
 Entering Link 1 = /opt/cluster/programs/g09/g09_d.01/g09/l1.exe PID=     77352.
  
 Copyright (c) 1988,1990,1992,1993,1995,1998,2003,2009,2013,
            Gaussian, Inc.  All Rights Reserved.
  
 This is part of the Gaussian(R) 09 program.  It is based on
 the Gaussian(R) 03 system (copyright 2003, Gaussian, Inc.),
 the Gaussian(R) 98 system (copyright 1998, Gaussian, Inc.),
 the Gaussian(R) 94 system (copyright 1995, Gaussian, Inc.),
 the Gaussian 92(TM) system (copyright 1992, Gaussian, Inc.),
 the Gaussian 90(TM) system (copyright 1990, Gaussian, Inc.),
 the Gaussian 88(TM) system (copyright 1988, Gaussian, Inc.),
 the Gaussian 86(TM) system (copyright 1986, Carnegie Mellon
 University), and the Gaussian 82(TM) system (copyright 1983,
 Carnegie Mellon University). Gaussian is a federally registered
 trademark of Gaussian, Inc.
  
 This software contains proprietary and confidential information,
 including trade secrets, belonging to Gaussian, Inc.
  
 This software is provided under written license and may be
 used, copied, transmitted, or stored only in accord with that
 written license.
  
 The following legend is applicable only to US Government
 contracts under FAR:
  
                    RESTRICTED RIGHTS LEGEND
  
 Use, reproduction and disclosure by the US Government is
 subject to restrictions as set forth in subparagraphs (a)
 and (c) of the Commercial Computer Software - Restricted
 Rights clause in FAR 52.227-19.
  
 Gaussian, Inc.
 340 Quinnipiac St., Bldg. 40, Wallingford CT 06492
  
  
 ---------------------------------------------------------------
 Warning -- This program may not be used in any manner that
 competes with the business of Gaussian, Inc. or will provide
 assistance to any competitor of Gaussian, Inc.  The licensee
 of this program is prohibited from giving any competitor of
 Gaussian, Inc. access to this program.  By using this program,
 the user acknowledges that Gaussian, Inc. is engaged in the
 business of creating and licensing software in the field of
 computational chemistry and represents and warrants to the
 licensee that it is not a competitor of Gaussian, Inc. and that
 it will not use this program in any manner prohibited above.
 ---------------------------------------------------------------
  

 Cite this work as:
 Gaussian 09, Revision D.01,
 M. J. Frisch, G. W. Trucks, H. B. Schlegel, G. E. Scuseria, 
 M. A. Robb, J. R. Cheeseman, G. Scalmani, V. Barone, B. Mennucci, 
 G. A. Petersson, H. Nakatsuji, M. Caricato, X. Li, H. P. Hratchian, 
 A. F. Izmaylov, J. Bloino, G. Zheng, J. L. Sonnenberg, M. Hada, 
 M. Ehara, K. Toyota, R. Fukuda, J. Hasegawa, M. Ishida, T. Nakajima, 
 Y. Honda, O. Kitao, H. Nakai, T. Vreven, J. A. Montgomery, Jr., 
 J. E. Peralta, F. Ogliaro, M. Bearpark, J. J. Heyd, E. Brothers, 
 K. N. Kudin, V. N. Staroverov, T. Keith, R. Kobayashi, J. Normand, 
 K. Raghavachari, A. Rendell, J. C. Burant, S. S. Iyengar, J. Tomasi, 
 M. Cossi, N. Rega, J. M. Millam, M. Klene, J. E. Knox, J. B. Cross, 
 V. Bakken, C. Adamo, J. Jaramillo, R. Gomperts, R. E. Stratmann, 
 O. Yazyev, A. J. Austin, R. Cammi, C. Pomelli, J. W. Ochterski, 
 R. L. Martin, K. Morokuma, V. G. Zakrzewski, G. A. Voth, 
 P. Salvador, J. J. Dannenberg, S. Dapprich, A. D. Daniels, 
 O. Farkas, J. B. Foresman, J. V. Ortiz, J. Cioslowski, 
 and D. J. Fox, Gaussian, Inc., Wallingford CT, 2013.
 
 ******************************************
 Gaussian 09:  ES64L-G09RevD.01 24-Apr-2013
                26-Aug-2020 
 ******************************************
 %chk=/home/boittier/MDCM/nms_sampling/acrolein_geom.xyz.dir/acrolein_463.chk
 %nproc=8
 Will use up to    8 processors via shared memory.
 %mem=16000MB
 --------------------
 #p B2PLYPD3/Def2QZVP
 --------------------
 1/38=1/1;
 2/12=2,17=6,18=5,40=1/2;
 3/5=45,7=101,11=9,16=1,25=1,30=1,74=-60/1,2,3;
 4//1;
 5/5=2,38=5/2;
 8/10=1/1;
 9/16=-3/6;
 6/7=2,8=2,9=2,10=2/1;
 99/5=1,9=1/99;
 Leave Link    1 at Wed Aug 26 15:56:32 2020, MaxMem=  2097152000 cpu:         0.2
 (Enter /opt/cluster/programs/g09/g09_d.01/g09/l101.exe)
 --------
 acrolein
 --------
 Symbolic Z-matrix:
 Charge =  0 Multiplicity = 1
 C                    -5.00211  -1.37815   0.88734 
 O                    -3.92898  -0.8783    0.67142 
 C                    -5.20003  -2.80412   1.11808 
 C                    -6.40118  -3.31168   1.41847 
 H                    -4.36266  -3.43609   1.10995 
 H                    -7.24663  -2.67247   1.38273 
 H                    -6.60514  -4.42312   1.6528 
 H                    -5.95685  -0.79136   0.88983 
 
 NAtoms=      8 NQM=        8 NQMF=       0 NMMI=      0 NMMIF=      0
                NMic=       0 NMicF=      0.
                    Isotopes and Nuclear Properties:
 (Nuclear quadrupole moments (NQMom) in fm**2, nuclear magnetic moments (NMagM)
  in nuclear magnetons)

  Atom         1           2           3           4           5           6           7           8
 IAtWgt=          12          16          12          12           1           1           1           1
 AtmWgt=  12.0000000  15.9949146  12.0000000  12.0000000   1.0078250   1.0078250   1.0078250   1.0078250
 NucSpn=           0           0           0           0           1           1           1           1
 AtZEff=   0.0000000   0.0000000   0.0000000   0.0000000   0.0000000   0.0000000   0.0000000   0.0000000
 NQMom=    0.0000000   0.0000000   0.0000000   0.0000000   0.0000000   0.0000000   0.0000000   0.0000000
 NMagM=    0.0000000   0.0000000   0.0000000   0.0000000   2.7928460   2.7928460   2.7928460   2.7928460
 AtZNuc=   6.0000000   8.0000000   6.0000000   6.0000000   1.0000000   1.0000000   1.0000000   1.0000000
 Leave Link  101 at Wed Aug 26 15:56:32 2020, MaxMem=  2097152000 cpu:         0.5
 (Enter /opt/cluster/programs/g09/g09_d.01/g09/l202.exe)
                          Input orientation:                          
 ---------------------------------------------------------------------
 Center     Atomic      Atomic             Coordinates (Angstroms)
 Number     Number       Type             X           Y           Z
 ---------------------------------------------------------------------
      1          6           0       -5.002110   -1.378145    0.887341
      2          8           0       -3.928981   -0.878296    0.671421
      3          6           0       -5.200025   -2.804122    1.118078
      4          6           0       -6.401184   -3.311682    1.418465
      5          1           0       -4.362665   -3.436087    1.109948
      6          1           0       -7.246634   -2.672473    1.382731
      7          1           0       -6.605139   -4.423115    1.652799
      8          1           0       -5.956850   -0.791356    0.889825
 ---------------------------------------------------------------------
                    Distance matrix (angstroms):
                    1          2          3          4          5
     1  C    0.000000
     2  O    1.203360   0.000000
     3  C    1.458019   2.350290   0.000000
     4  C    2.445008   3.548412   1.338145   0.000000
     5  H    2.166465   2.631099   1.049103   2.065483   0.000000
     6  H    2.637913   3.838210   2.067845   1.060496   2.995796
     7  H    3.525262   4.548699   2.209391   1.154034   2.509502
     8  H    1.120650   2.041448   2.162432   2.613223   3.095881
                    6          7          8
     6  H    0.000000
     7  H    1.883932   0.000000
     8  H    2.333474   3.767238   0.000000
 Stoichiometry    C3H4O
 Framework group  C1[X(C3H4O)]
 Deg. of freedom    18
 Full point group                 C1      NOp   1
 Largest Abelian subgroup         C1      NOp   1
 Largest concise Abelian subgroup C1      NOp   1
                         Standard orientation:                         
 ---------------------------------------------------------------------
 Center     Atomic      Atomic             Coordinates (Angstroms)
 Number     Number       Type             X           Y           Z
 ---------------------------------------------------------------------
      1          6           0       -0.680957    0.350653    0.001439
      2          8           0       -1.783494   -0.131281   -0.013642
      3          6           0        0.546627   -0.435537    0.029066
      4          6           0        1.754687    0.137914   -0.019693
      5          1           0        0.474079   -1.482109    0.022583
      6          1           0        1.817890    1.195375    0.029640
      7          1           0        2.754788   -0.437385   -0.044639
      8          1           0       -0.500952    1.456190    0.036679
 ---------------------------------------------------------------------
 Rotational constants (GHZ):     49.3006301      4.6753293      4.2719407
 Leave Link  202 at Wed Aug 26 15:56:32 2020, MaxMem=  2097152000 cpu:         0.0
 (Enter /opt/cluster/programs/g09/g09_d.01/g09/l301.exe)
 Standard basis: def2QZVP (5D, 7F)
 Ernie: Thresh=  0.10000D-02 Tol=  0.10000D-05 Strict=F.
 There are   428 symmetry adapted cartesian basis functions of A   symmetry.
 There are   348 symmetry adapted basis functions of A   symmetry.
   348 basis functions,   520 primitive gaussians,   428 cartesian basis functions
    15 alpha electrons       15 beta electrons
       nuclear repulsion energy       103.4582260988 Hartrees.
 IExCor=  419 DFT=T Ex+Corr=B2PLYPD3 ExCW=0 ScaHFX=  0.530000
 ScaDFX=  0.470000  0.470000  0.730000  0.730000 ScalE2=  0.270000  0.270000
 IRadAn=      0 IRanWt=     -1 IRanGd=            0 ICorTp=0 IEmpDi=141
 NAtoms=    8 NActive=    8 NUniq=    8 SFac= 1.00D+00 NAtFMM=   60 NAOKFM=F Big=F
 Integral buffers will be    131072 words long.
 Regular integral format.
 Two-electron integral symmetry is turned on.
 R6Disp:  Grimme-D3(BJ) Dispersion energy=       -0.0035859700 Hartrees.
 Nuclear repulsion after empirical dispersion term =      103.4546401288 Hartrees.
 Leave Link  301 at Wed Aug 26 15:56:32 2020, MaxMem=  2097152000 cpu:         0.5
 (Enter /opt/cluster/programs/g09/g09_d.01/g09/l302.exe)
 NPDir=0 NMtPBC=     1 NCelOv=     1 NCel=       1 NClECP=     1 NCelD=      1
         NCelK=      1 NCelE2=     1 NClLst=     1 CellRange=     0.0.
 One-electron integrals computed using PRISM.
   1 Symmetry operations used in ECPInt.
 ECPInt:  NShTT=    5886 NPrTT=   14376 LenC2=    5778 LenP2D=   12178.
 LDataN:  DoStor=T MaxTD1= 8 Len=  415
 NBasis=   348 RedAO= T EigKep=  5.80D-05  NBF=   348
 NBsUse=   348 1.00D-06 EigRej= -1.00D+00 NBFU=   348
 Precomputing XC quadrature grid using
 IXCGrd= 4 IRadAn=           0 IRanWt=          -1 IRanGd=           0 AccXCQ= 0.00D+00.
 Generated NRdTot=       0 NPtTot=           0 NUsed=           0 NTot=          32
 NSgBfM=   428   428   428   428   428 MxSgAt=     8 MxSgA2=     8.
 Leave Link  302 at Wed Aug 26 15:56:32 2020, MaxMem=  2097152000 cpu:         2.5
 (Enter /opt/cluster/programs/g09/g09_d.01/g09/l303.exe)
 DipDrv:  MaxL=1.
 Leave Link  303 at Wed Aug 26 15:56:32 2020, MaxMem=  2097152000 cpu:         0.3
 (Enter /opt/cluster/programs/g09/g09_d.01/g09/l401.exe)
 ExpMin= 7.60D-02 ExpMax= 1.17D+05 ExpMxC= 1.13D+03 IAcc=2 IRadAn=         4 AccDes= 0.00D+00
 Harris functional with IExCor=  419 and IRadAn=       4 diagonalized for initial guess.
 HarFok:  IExCor=  419 AccDes= 0.00D+00 IRadAn=         4 IDoV= 1 UseB2=F ITyADJ=14
 ICtDFT=  3500011 ScaDFX=  1.000000  1.000000  1.000000  1.000000
 FoFCou: FMM=F IPFlag=           0 FMFlag=      100000 FMFlg1=           0
         NFxFlg=           0 DoJE=T BraDBF=F KetDBF=T FulRan=T
         wScrn=  0.000000 ICntrl=     500 IOpCl=  0 I1Cent=   200000004 NGrid=           0
         NMat0=    1 NMatS0=      1 NMatT0=    0 NMatD0=    1 NMtDS0=    0 NMtDT0=    0
 Petite list used in FoFCou.
 Harris En= -192.042125301908    
 JPrj=0 DoOrth=F DoCkMO=F.
 Leave Link  401 at Wed Aug 26 15:56:33 2020, MaxMem=  2097152000 cpu:         5.9
 (Enter /opt/cluster/programs/g09/g09_d.01/g09/l502.exe)
 Closed shell SCF:
 Using DIIS extrapolation, IDIIS=  1040.
 Integral symmetry usage will be decided dynamically.
 Keep R1 ints in memory in canonical form, NReq=1883905047.
 IVT=      574566 IEndB=      574566 NGot=  2097152000 MDV=   252723534
 LenX=   252723534 LenY=   252539909
 Requested convergence on RMS density matrix=1.00D-08 within 128 cycles.
 Requested convergence on MAX density matrix=1.00D-06.
 Requested convergence on             energy=1.00D-06.
 No special actions if energy rises.
 FoFCou: FMM=F IPFlag=           0 FMFlag=           0 FMFlg1=           0
         NFxFlg=           0 DoJE=F BraDBF=F KetDBF=F FulRan=T
         wScrn=  0.000000 ICntrl=     600 IOpCl=  0 I1Cent=           0 NGrid=           0
         NMat0=    1 NMatS0=  60726 NMatT0=    0 NMatD0=    1 NMtDS0=    0 NMtDT0=    0
 Symmetry not used in FoFCou.
 Integral accuracy reduced to 1.0D-05 until final iterations.

 Cycle   1  Pass 0  IDiag  1:
 E= -191.468523655241    
 DIIS: error= 2.77D-02 at cycle   1 NSaved=   1.
 NSaved= 1 IEnMin= 1 EnMin= -191.468523655241     IErMin= 1 ErrMin= 2.77D-02
 ErrMax= 2.77D-02  0.00D+00 EMaxC= 1.00D-01 BMatC= 2.57D-01 BMatP= 2.57D-01
 IDIUse=3 WtCom= 7.23D-01 WtEn= 2.77D-01
 Coeff-Com:  0.100D+01
 Coeff-En:   0.100D+01
 Coeff:      0.100D+01
 Gap=     0.286 Goal=   None    Shift=    0.000
 GapD=    0.286 DampG=1.000 DampE=0.500 DampFc=0.5000 IDamp=-1.
 Damping current iteration by 5.00D-01
 RMSDP=1.88D-03 MaxDP=2.38D-01              OVMax= 1.80D-01

 Cycle   2  Pass 0  IDiag  1:
 E= -191.537974609465     Delta-E=       -0.069450954224 Rises=F Damp=T
 DIIS: error= 9.86D-03 at cycle   2 NSaved=   2.
 NSaved= 2 IEnMin= 2 EnMin= -191.537974609465     IErMin= 2 ErrMin= 9.86D-03
 ErrMax= 9.86D-03  0.00D+00 EMaxC= 1.00D-01 BMatC= 3.37D-02 BMatP= 2.57D-01
 IDIUse=3 WtCom= 9.01D-01 WtEn= 9.86D-02
 Coeff-Com: -0.152D+00 0.115D+01
 Coeff-En:   0.000D+00 0.100D+01
 Coeff:     -0.137D+00 0.114D+01
 Gap=     0.353 Goal=   None    Shift=    0.000
 RMSDP=6.39D-04 MaxDP=8.24D-02 DE=-6.95D-02 OVMax= 1.30D-01

 Cycle   3  Pass 0  IDiag  1:
 E= -191.599943435963     Delta-E=       -0.061968826499 Rises=F Damp=F
 DIIS: error= 1.13D-02 at cycle   3 NSaved=   3.
 NSaved= 3 IEnMin= 3 EnMin= -191.599943435963     IErMin= 2 ErrMin= 9.86D-03
 ErrMax= 1.13D-02  0.00D+00 EMaxC= 1.00D-01 BMatC= 1.68D-02 BMatP= 3.37D-02
 IDIUse=3 WtCom= 8.87D-01 WtEn= 1.13D-01
 Coeff-Com: -0.190D+00 0.520D+00 0.670D+00
 Coeff-En:   0.000D+00 0.000D+00 0.100D+01
 Coeff:     -0.168D+00 0.461D+00 0.707D+00
 Gap=     0.333 Goal=   None    Shift=    0.000
 RMSDP=2.46D-04 MaxDP=1.88D-02 DE=-6.20D-02 OVMax= 4.83D-02

 Cycle   4  Pass 0  IDiag  1:
 E= -191.609077949403     Delta-E=       -0.009134513440 Rises=F Damp=F
 DIIS: error= 4.93D-03 at cycle   4 NSaved=   4.
 NSaved= 4 IEnMin= 4 EnMin= -191.609077949403     IErMin= 4 ErrMin= 4.93D-03
 ErrMax= 4.93D-03  0.00D+00 EMaxC= 1.00D-01 BMatC= 3.22D-03 BMatP= 1.68D-02
 IDIUse=3 WtCom= 9.51D-01 WtEn= 4.93D-02
 Coeff-Com: -0.593D-01 0.974D-01 0.370D+00 0.592D+00
 Coeff-En:   0.000D+00 0.000D+00 0.175D+00 0.825D+00
 Coeff:     -0.564D-01 0.926D-01 0.360D+00 0.604D+00
 Gap=     0.321 Goal=   None    Shift=    0.000
 RMSDP=1.00D-04 MaxDP=8.13D-03 DE=-9.13D-03 OVMax= 1.45D-02

 Cycle   5  Pass 0  IDiag  1:
 E= -191.611669028565     Delta-E=       -0.002591079162 Rises=F Damp=F
 DIIS: error= 3.53D-04 at cycle   5 NSaved=   5.
 NSaved= 5 IEnMin= 5 EnMin= -191.611669028565     IErMin= 5 ErrMin= 3.53D-04
 ErrMax= 3.53D-04  0.00D+00 EMaxC= 1.00D-01 BMatC= 1.20D-05 BMatP= 3.22D-03
 IDIUse=3 WtCom= 9.96D-01 WtEn= 3.53D-03
 Coeff-Com: -0.654D-02 0.770D-02 0.481D-01 0.115D+00 0.835D+00
 Coeff-En:   0.000D+00 0.000D+00 0.000D+00 0.000D+00 0.100D+01
 Coeff:     -0.652D-02 0.767D-02 0.479D-01 0.115D+00 0.836D+00
 Gap=     0.321 Goal=   None    Shift=    0.000
 RMSDP=1.06D-05 MaxDP=9.28D-04 DE=-2.59D-03 OVMax= 2.09D-03

 Cycle   6  Pass 0  IDiag  1:
 E= -191.611681902755     Delta-E=       -0.000012874190 Rises=F Damp=F
 DIIS: error= 9.32D-05 at cycle   6 NSaved=   6.
 NSaved= 6 IEnMin= 6 EnMin= -191.611681902755     IErMin= 6 ErrMin= 9.32D-05
 ErrMax= 9.32D-05  0.00D+00 EMaxC= 1.00D-01 BMatC= 1.62D-06 BMatP= 1.20D-05
 IDIUse=1 WtCom= 1.00D+00 WtEn= 0.00D+00
 Coeff-Com:  0.354D-02-0.679D-02-0.183D-01-0.210D-01 0.257D+00 0.786D+00
 Coeff:      0.354D-02-0.679D-02-0.183D-01-0.210D-01 0.257D+00 0.786D+00
 Gap=     0.321 Goal=   None    Shift=    0.000
 RMSDP=7.03D-06 MaxDP=7.48D-04 DE=-1.29D-05 OVMax= 7.22D-04

 Initial convergence to 1.0D-05 achieved.  Increase integral accuracy.
 Cycle   7  Pass 1  IDiag  1:
 E= -191.611665254377     Delta-E=        0.000016648377 Rises=F Damp=F
 DIIS: error= 3.15D-05 at cycle   1 NSaved=   1.
 NSaved= 1 IEnMin= 1 EnMin= -191.611665254377     IErMin= 1 ErrMin= 3.15D-05
 ErrMax= 3.15D-05  0.00D+00 EMaxC= 1.00D-01 BMatC= 2.54D-07 BMatP= 2.54D-07
 IDIUse=1 WtCom= 1.00D+00 WtEn= 0.00D+00
 Coeff-Com:  0.100D+01
 Coeff:      0.100D+01
 Gap=     0.321 Goal=   None    Shift=    0.000
 RMSDP=7.03D-06 MaxDP=7.48D-04 DE= 1.66D-05 OVMax= 2.71D-04

 Cycle   8  Pass 1  IDiag  1:
 E= -191.611665370040     Delta-E=       -0.000000115662 Rises=F Damp=F
 DIIS: error= 3.65D-05 at cycle   2 NSaved=   2.
 NSaved= 2 IEnMin= 2 EnMin= -191.611665370040     IErMin= 1 ErrMin= 3.15D-05
 ErrMax= 3.65D-05  0.00D+00 EMaxC= 1.00D-01 BMatC= 1.80D-07 BMatP= 2.54D-07
 IDIUse=1 WtCom= 1.00D+00 WtEn= 0.00D+00
 Coeff-Com:  0.449D+00 0.551D+00
 Coeff:      0.449D+00 0.551D+00
 Gap=     0.321 Goal=   None    Shift=    0.000
 RMSDP=7.72D-07 MaxDP=5.70D-05 DE=-1.16D-07 OVMax= 2.83D-04

 Cycle   9  Pass 1  IDiag  1:
 E= -191.611665542183     Delta-E=       -0.000000172143 Rises=F Damp=F
 DIIS: error= 9.05D-06 at cycle   3 NSaved=   3.
 NSaved= 3 IEnMin= 3 EnMin= -191.611665542183     IErMin= 3 ErrMin= 9.05D-06
 ErrMax= 9.05D-06  0.00D+00 EMaxC= 1.00D-01 BMatC= 2.22D-08 BMatP= 1.80D-07
 IDIUse=1 WtCom= 1.00D+00 WtEn= 0.00D+00
 Coeff-Com: -0.542D-01 0.215D+00 0.839D+00
 Coeff:     -0.542D-01 0.215D+00 0.839D+00
 Gap=     0.321 Goal=   None    Shift=    0.000
 RMSDP=6.97D-07 MaxDP=7.59D-05 DE=-1.72D-07 OVMax= 6.27D-05

 Cycle  10  Pass 1  IDiag  1:
 E= -191.611665563470     Delta-E=       -0.000000021287 Rises=F Damp=F
 DIIS: error= 4.22D-06 at cycle   4 NSaved=   4.
 NSaved= 4 IEnMin= 4 EnMin= -191.611665563470     IErMin= 4 ErrMin= 4.22D-06
 ErrMax= 4.22D-06  0.00D+00 EMaxC= 1.00D-01 BMatC= 2.66D-09 BMatP= 2.22D-08
 IDIUse=1 WtCom= 1.00D+00 WtEn= 0.00D+00
 Coeff-Com: -0.751D-01 0.615D-01 0.341D+00 0.673D+00
 Coeff:     -0.751D-01 0.615D-01 0.341D+00 0.673D+00
 Gap=     0.321 Goal=   None    Shift=    0.000
 RMSDP=1.46D-07 MaxDP=1.37D-05 DE=-2.13D-08 OVMax= 2.69D-05

 Cycle  11  Pass 1  IDiag  1:
 E= -191.611665566432     Delta-E=       -0.000000002963 Rises=F Damp=F
 DIIS: error= 1.76D-06 at cycle   5 NSaved=   5.
 NSaved= 5 IEnMin= 5 EnMin= -191.611665566432     IErMin= 5 ErrMin= 1.76D-06
 ErrMax= 1.76D-06  0.00D+00 EMaxC= 1.00D-01 BMatC= 6.02D-10 BMatP= 2.66D-09
 IDIUse=1 WtCom= 1.00D+00 WtEn= 0.00D+00
 Coeff-Com: -0.145D-01-0.145D-01-0.106D+00 0.271D+00 0.865D+00
 Coeff:     -0.145D-01-0.145D-01-0.106D+00 0.271D+00 0.865D+00
 Gap=     0.321 Goal=   None    Shift=    0.000
 RMSDP=1.30D-07 MaxDP=1.44D-05 DE=-2.96D-09 OVMax= 1.32D-05

 Cycle  12  Pass 1  IDiag  1:
 E= -191.611665567048     Delta-E=       -0.000000000616 Rises=F Damp=F
 DIIS: error= 4.85D-07 at cycle   6 NSaved=   6.
 NSaved= 6 IEnMin= 6 EnMin= -191.611665567048     IErMin= 6 ErrMin= 4.85D-07
 ErrMax= 4.85D-07  0.00D+00 EMaxC= 1.00D-01 BMatC= 3.85D-11 BMatP= 6.02D-10
 IDIUse=1 WtCom= 1.00D+00 WtEn= 0.00D+00
 Coeff-Com:  0.235D-02-0.893D-02-0.788D-01 0.389D-01 0.337D+00 0.710D+00
 Coeff:      0.235D-02-0.893D-02-0.788D-01 0.389D-01 0.337D+00 0.710D+00
 Gap=     0.321 Goal=   None    Shift=    0.000
 RMSDP=3.00D-08 MaxDP=3.34D-06 DE=-6.16D-10 OVMax= 2.90D-06

 Cycle  13  Pass 1  IDiag  1:
 E= -191.611665567089     Delta-E=       -0.000000000042 Rises=F Damp=F
 DIIS: error= 5.15D-08 at cycle   7 NSaved=   7.
 NSaved= 7 IEnMin= 7 EnMin= -191.611665567089     IErMin= 7 ErrMin= 5.15D-08
 ErrMax= 5.15D-08  0.00D+00 EMaxC= 1.00D-01 BMatC= 1.06D-12 BMatP= 3.85D-11
 IDIUse=1 WtCom= 1.00D+00 WtEn= 0.00D+00
 Coeff-Com:  0.104D-02-0.598D-03-0.105D-01-0.606D-02 0.218D-01 0.148D+00
 Coeff-Com:  0.846D+00
 Coeff:      0.104D-02-0.598D-03-0.105D-01-0.606D-02 0.218D-01 0.148D+00
 Coeff:      0.846D+00
 Gap=     0.321 Goal=   None    Shift=    0.000
 RMSDP=3.40D-09 MaxDP=1.01D-07 DE=-4.16D-11 OVMax= 8.76D-07

 SCF Done:  E(RB2PLYPD3) =  -191.611665567     A.U. after   13 cycles
            NFock= 13  Conv=0.34D-08     -V/T= 2.0033
 KE= 1.909865291941D+02 PE=-6.549344860818D+02 EE= 1.688816511918D+02
 Leave Link  502 at Wed Aug 26 15:57:35 2020, MaxMem=  2097152000 cpu:       247.3
 (Enter /opt/cluster/programs/g09/g09_d.01/g09/l801.exe)
 DoSCS=T DFT=T ScalE2(SS,OS)=  0.270000  0.270000
 ExpMin= 7.60D-02 ExpMax= 1.17D+05 ExpMxC= 1.13D+03 IAcc=3 IRadAn=         5 AccDes= 0.00D+00
 HarFok:  IExCor=  205 AccDes= 0.00D+00 IRadAn=         5 IDoV=-2 UseB2=F ITyADJ=14
 ICtDFT= 12500011 ScaDFX=  1.000000  1.000000  1.000000  1.000000
 DSYEVD-2 returned Info=        1739 IAlg= 4 N=    57 NDim=    57 NE2=    36785415 trying  DSYEV.
 Largest valence mixing into a core orbital is  1.15D-04
 Largest core mixing into a valence orbital is  1.88D-05
 Range of M.O.s used for correlation:     5   348
 NBasis=   348 NAE=    15 NBE=    15 NFC=     4 NFV=     0
 NROrb=    344 NOA=    11 NOB=    11 NVA=   333 NVB=   333

 **** Warning!!: The largest alpha MO coefficient is  0.29624152D+02

 Leave Link  801 at Wed Aug 26 15:57:35 2020, MaxMem=  2097152000 cpu:         1.1
 (Enter /opt/cluster/programs/g09/g09_d.01/g09/l906.exe)
 DoSCS=T DFT=T ScalE2(SS,OS)=  0.270000  0.270000
 FulOut=F Deriv=F AODrv=F NAtomX=     8
   MMem=        1190  MDisk=          11 MDiskD=          11
  W3Min=     1567764 MinDsk=     2827057 NBas6D=         428
 NBas2D=       93150    NTT=       91806    LW2=     4508827
    MDV=  2096570894 MDiskM=       10875 NBas2p=       89460
 Fully direct method using O(OVN) memory.
 IMap=   1   2   3   4   5   6   7   8   9  10  11
 JobTyp=1 Pass  1:  I=   1 to  11 NPSUse=  8 ParTrn=T ParDer=T DoDerP=F.
 Spin components of T(2) and E(2):
     alpha-alpha T2 =       0.4373399374D-01 E2=     -0.2947859485D-01
     alpha-beta  T2 =       0.2669775703D+00 E2=     -0.1882106364D+00
     beta-beta   T2 =       0.4373399374D-01 E2=     -0.2947859485D-01
 The integrals were generated   1 times.
 E2(B2PLYPD3) =    -0.2471678261D+00 E(B2PLYPD3) =    -0.19185883339318D+03
 Leave Link  906 at Wed Aug 26 15:58:58 2020, MaxMem=  2097152000 cpu:       660.3
 (Enter /opt/cluster/programs/g09/g09_d.01/g09/l601.exe)
 Copying SCF densities to generalized density rwf, IOpCl= 0 IROHF=0.

 **********************************************************************

            Population analysis using the SCF density.

 **********************************************************************

 Orbital symmetries:
       Occupied  (A) (A) (A) (A) (A) (A) (A) (A) (A) (A) (A) (A)
                 (A) (A) (A)
       Virtual   (A) (A) (A) (A) (A) (A) (A) (A) (A) (A) (A) (A)
                 (A) (A) (A) (A) (A) (A) (A) (A) (A) (A) (A) (A)
                 (A) (A) (A) (A) (A) (A) (A) (A) (A) (A) (A) (A)
                 (A) (A) (A) (A) (A) (A) (A) (A) (A) (A) (A) (A)
                 (A) (A) (A) (A) (A) (A) (A) (A) (A) (A) (A) (A)
                 (A) (A) (A) (A) (A) (A) (A) (A) (A) (A) (A) (A)
                 (A) (A) (A) (A) (A) (A) (A) (A) (A) (A) (A) (A)
                 (A) (A) (A) (A) (A) (A) (A) (A) (A) (A) (A) (A)
                 (A) (A) (A) (A) (A) (A) (A) (A) (A) (A) (A) (A)
                 (A) (A) (A) (A) (A) (A) (A) (A) (A) (A) (A) (A)
                 (A) (A) (A) (A) (A) (A) (A) (A) (A) (A) (A) (A)
                 (A) (A) (A) (A) (A) (A) (A) (A) (A) (A) (A) (A)
                 (A) (A) (A) (A) (A) (A) (A) (A) (A) (A) (A) (A)
                 (A) (A) (A) (A) (A) (A) (A) (A) (A) (A) (A) (A)
                 (A) (A) (A) (A) (A) (A) (A) (A) (A) (A) (A) (A)
                 (A) (A) (A) (A) (A) (A) (A) (A) (A) (A) (A) (A)
                 (A) (A) (A) (A) (A) (A) (A) (A) (A) (A) (A) (A)
                 (A) (A) (A) (A) (A) (A) (A) (A) (A) (A) (A) (A)
                 (A) (A) (A) (A) (A) (A) (A) (A) (A) (A) (A) (A)
                 (A) (A) (A) (A) (A) (A) (A) (A) (A) (A) (A) (A)
                 (A) (A) (A) (A) (A) (A) (A) (A) (A) (A) (A) (A)
                 (A) (A) (A) (A) (A) (A) (A) (A) (A) (A) (A) (A)
                 (A) (A) (A) (A) (A) (A) (A) (A) (A) (A) (A) (A)
                 (A) (A) (A) (A) (A) (A) (A) (A) (A) (A) (A) (A)
                 (A) (A) (A) (A) (A) (A) (A) (A) (A) (A) (A) (A)
                 (A) (A) (A) (A) (A) (A) (A) (A) (A) (A) (A) (A)
                 (A) (A) (A) (A) (A) (A) (A) (A) (A) (A) (A) (A)
                 (A) (A) (A) (A) (A) (A) (A) (A) (A)
 The electronic state is 1-A.
 Alpha  occ. eigenvalues --  -19.72923 -10.71683 -10.65998 -10.63928  -1.20079
 Alpha  occ. eigenvalues --   -0.93025  -0.75193  -0.67348  -0.56721  -0.56006
 Alpha  occ. eigenvalues --   -0.50495  -0.47214  -0.46703  -0.34601  -0.33949
 Alpha virt. eigenvalues --   -0.01836   0.05622   0.07190   0.08336   0.09727
 Alpha virt. eigenvalues --    0.12418   0.13935   0.15373   0.17805   0.19879
 Alpha virt. eigenvalues --    0.19956   0.21092   0.25486   0.26248   0.28806
 Alpha virt. eigenvalues --    0.31393   0.33602   0.35451   0.37379   0.38254
 Alpha virt. eigenvalues --    0.39088   0.41299   0.43166   0.44196   0.46632
 Alpha virt. eigenvalues --    0.47606   0.49151   0.54329   0.55579   0.57657
 Alpha virt. eigenvalues --    0.58154   0.64145   0.66117   0.66461   0.71199
 Alpha virt. eigenvalues --    0.74663   0.76234   0.78171   0.80097   0.80377
 Alpha virt. eigenvalues --    0.81701   0.82521   0.83474   0.84272   0.86398
 Alpha virt. eigenvalues --    0.88627   0.91717   0.92871   0.93236   0.95965
 Alpha virt. eigenvalues --    0.96437   0.97112   1.00768   1.02307   1.07218
 Alpha virt. eigenvalues --    1.09657   1.12212   1.16736   1.17451   1.18630
 Alpha virt. eigenvalues --    1.19621   1.26469   1.28902   1.32517   1.40492
 Alpha virt. eigenvalues --    1.42360   1.46873   1.47730   1.55274   1.57559
 Alpha virt. eigenvalues --    1.58369   1.62115   1.66127   1.66943   1.69968
 Alpha virt. eigenvalues --    1.73571   1.76666   1.78348   1.82016   1.83308
 Alpha virt. eigenvalues --    1.85866   1.91658   1.92449   1.93172   1.93955
 Alpha virt. eigenvalues --    1.95746   1.99034   2.00135   2.00538   2.03169
 Alpha virt. eigenvalues --    2.07084   2.10294   2.11407   2.13980   2.14769
 Alpha virt. eigenvalues --    2.16629   2.19024   2.19844   2.23306   2.25475
 Alpha virt. eigenvalues --    2.28586   2.34211   2.35476   2.39484   2.41915
 Alpha virt. eigenvalues --    2.45618   2.46858   2.48711   2.49654   2.53974
 Alpha virt. eigenvalues --    2.55946   2.56635   2.59430   2.61177   2.64324
 Alpha virt. eigenvalues --    2.65741   2.66907   2.68240   2.68965   2.72252
 Alpha virt. eigenvalues --    2.74350   2.78580   2.85563   2.85941   2.87921
 Alpha virt. eigenvalues --    2.88556   2.95922   3.00003   3.02628   3.07931
 Alpha virt. eigenvalues --    3.16938   3.17835   3.26435   3.28613   3.30859
 Alpha virt. eigenvalues --    3.34911   3.41313   3.42977   3.44422   3.46593
 Alpha virt. eigenvalues --    3.47313   3.51427   3.61547   3.63818   3.64163
 Alpha virt. eigenvalues --    3.67948   3.73047   3.75999   3.85645   3.88416
 Alpha virt. eigenvalues --    3.93964   3.98424   4.01986   4.04700   4.06640
 Alpha virt. eigenvalues --    4.09945   4.19691   4.22061   4.27714   4.32021
 Alpha virt. eigenvalues --    4.39942   4.43567   4.54811   4.60502   4.62975
 Alpha virt. eigenvalues --    4.67447   4.84569   4.87793   4.93191   5.00224
 Alpha virt. eigenvalues --    5.03461   5.04060   5.08553   5.11483   5.12703
 Alpha virt. eigenvalues --    5.22272   5.26476   5.29998   5.34858   5.44043
 Alpha virt. eigenvalues --    5.44836   5.53570   5.54081   5.56653   5.59659
 Alpha virt. eigenvalues --    5.63218   5.64578   5.68154   5.73497   5.78457
 Alpha virt. eigenvalues --    5.80269   5.84043   5.86552   5.92721   5.94963
 Alpha virt. eigenvalues --    5.95523   5.96527   5.99659   6.03261   6.08591
 Alpha virt. eigenvalues --    6.11686   6.14647   6.15274   6.15690   6.17317
 Alpha virt. eigenvalues --    6.20282   6.22826   6.24472   6.28210   6.30057
 Alpha virt. eigenvalues --    6.34047   6.35238   6.38354   6.41109   6.44064
 Alpha virt. eigenvalues --    6.47661   6.49661   6.52884   6.53539   6.62377
 Alpha virt. eigenvalues --    6.63795   6.67092   6.71344   6.75008   6.78990
 Alpha virt. eigenvalues --    6.80600   6.88085   6.90195   6.94247   7.00996
 Alpha virt. eigenvalues --    7.03564   7.09745   7.10845   7.15322   7.18804
 Alpha virt. eigenvalues --    7.33025   7.36317   7.46031   7.46864   7.54499
 Alpha virt. eigenvalues --    7.59402   7.60405   7.60744   7.63085   7.67148
 Alpha virt. eigenvalues --    7.69871   7.70357   7.72630   7.77090   7.79885
 Alpha virt. eigenvalues --    7.85944   7.87127   7.90567   7.99412   8.02304
 Alpha virt. eigenvalues --    8.06309   8.07166   8.14546   8.16037   8.20111
 Alpha virt. eigenvalues --    8.21820   8.25666   8.28145   8.30087   8.31129
 Alpha virt. eigenvalues --    8.33445   8.39242   8.42394   8.51800   8.54885
 Alpha virt. eigenvalues --    8.58635   8.60575   8.61899   8.70409   8.76629
 Alpha virt. eigenvalues --    8.79221   8.81730   8.86868   8.95071   9.07041
 Alpha virt. eigenvalues --    9.07853   9.09452   9.19661   9.25314   9.31019
 Alpha virt. eigenvalues --    9.32939   9.44855   9.59389   9.60720   9.71622
 Alpha virt. eigenvalues --    9.75363   9.78769   9.86316   9.87786   9.91106
 Alpha virt. eigenvalues --    9.99165  10.16363  10.19820  10.30005  10.33561
 Alpha virt. eigenvalues --   10.34599  10.53762  10.61422  10.65093  10.78474
 Alpha virt. eigenvalues --   11.00712  11.21200  11.25230  11.27696  11.48178
 Alpha virt. eigenvalues --   11.66835  11.76986  11.92073  12.04343  12.10311
 Alpha virt. eigenvalues --   12.34100  12.37441  12.49466  12.54481  12.79780
 Alpha virt. eigenvalues --   12.98833  13.41319  13.85466  14.35976  14.77873
 Alpha virt. eigenvalues --   28.64471  28.88107  29.46267  48.67173 148.23345
 Alpha virt. eigenvalues --  148.43685 149.06609 254.43513
          Condensed to atoms (all electrons):
               1          2          3          4          5          6
     1  C    4.500643   0.621569   0.358307  -0.049862  -0.032370  -0.004340
     2  O    0.621569   7.873884  -0.090166   0.006733   0.004706   0.000339
     3  C    0.358307  -0.090166   5.177719   0.473789   0.366042  -0.053253
     4  C   -0.049862   0.006733   0.473789   4.884529  -0.041218   0.420911
     5  H   -0.032370   0.004706   0.366042  -0.041218   0.586654   0.006125
     6  H   -0.004340   0.000339  -0.053253   0.420911   0.006125   0.581399
     7  H    0.002137  -0.000418  -0.026785   0.410804  -0.005109  -0.040193
     8  H    0.452037  -0.074148  -0.172627   0.025728   0.008067   0.006041
               7          8
     1  C    0.002137   0.452037
     2  O   -0.000418  -0.074148
     3  C   -0.026785  -0.172627
     4  C    0.410804   0.025728
     5  H   -0.005109   0.008067
     6  H   -0.040193   0.006041
     7  H    0.562029  -0.000584
     8  H   -0.000584   0.688612
 Mulliken charges:
               1
     1  C    0.151878
     2  O   -0.342500
     3  C   -0.033026
     4  C   -0.131415
     5  H    0.107102
     6  H    0.082969
     7  H    0.098118
     8  H    0.066873
 Sum of Mulliken charges =   0.00000
 Mulliken charges with hydrogens summed into heavy atoms:
               1
     1  C    0.218751
     2  O   -0.342500
     3  C    0.074077
     4  C    0.049672
 Electronic spatial extent (au):  <R**2>=            297.9156
 Charge=              0.0000 electrons
 Dipole moment (field-independent basis, Debye):
    X=              3.4524    Y=              0.7614    Z=              0.0480  Tot=              3.5357
 Quadrupole moment (field-independent basis, Debye-Ang):
   XX=            -27.1951   YY=            -21.9444   ZZ=            -25.2203
   XY=             -1.0435   XZ=             -0.1263   YZ=              0.0630
 Traceless Quadrupole moment (field-independent basis, Debye-Ang):
   XX=             -2.4085   YY=              2.8422   ZZ=             -0.4337
   XY=             -1.0435   XZ=             -0.1263   YZ=              0.0630
 Octapole moment (field-independent basis, Debye-Ang**2):
  XXX=             15.3761  YYY=             -0.0992  ZZZ=             -0.0378  XYY=             -0.3885
  XXY=              0.2943  XXZ=             -0.0565  XZZ=             -4.5109  YZZ=              0.1087
  YYZ=              0.1515  XYZ=              0.1386
 Hexadecapole moment (field-independent basis, Debye-Ang**3):
 XXXX=           -300.3537 YYYY=            -55.2134 ZZZZ=            -27.4031 XXXY=             -4.1931
 XXXZ=             -0.8238 YYYX=              0.3272 YYYZ=              0.1964 ZZZX=              0.0313
 ZZZY=              0.0477 XXYY=            -58.7301 XXZZ=            -57.7844 YYZZ=            -15.3446
 XXYZ=              0.3424 YYXZ=              0.0983 ZZXY=              0.4815
 N-N= 1.034546401288D+02 E-N=-6.549344870876D+02  KE= 1.909865291941D+02
 Leave Link  601 at Wed Aug 26 15:58:58 2020, MaxMem=  2097152000 cpu:         0.6
 (Enter /opt/cluster/programs/g09/g09_d.01/g09/l9999.exe)
 1\1\GINC-NODE26\SP\RB2PLYPD3-FC\def2QZVP\C3H4O1\BOITTIER\26-Aug-2020\0
 \\#p B2PLYPD3/Def2QZVP\\acrolein\\0,1\C,0,-5.00211,-1.378145,0.887341\
 O,0,-3.928981,-0.878296,0.671421\C,0,-5.200025,-2.804122,1.118078\C,0,
 -6.401184,-3.311682,1.418465\H,0,-4.362665,-3.436087,1.109948\H,0,-7.2
 46634,-2.672473,1.382731\H,0,-6.605139,-4.423115,1.652799\H,0,-5.95685
 ,-0.791356,0.889825\\Version=ES64L-G09RevD.01\State=1-A\HF=-191.611665
 6\MP2=-191.8588334\RMSD=3.403e-09\PG=C01 [X(C3H4O1)]\\@


 THE MOLECULE ALSO HAS A BODY.  WHEN THIS BODY IS HIT, THE MOLECULE
 FEELS HURT ALL OVER -- A. KITAIGORODSKI
 Job cpu time:       0 days  0 hours 15 minutes 19.9 seconds.
 File lengths (MBytes):  RWF=     49 Int=      0 D2E=      0 Chk=      7 Scr=      1
 Normal termination of Gaussian 09 at Wed Aug 26 15:58:58 2020.
