 Entering Gaussian System, Link 0=/opt/cluster/programs/g09/g09_d.01/g09//g09
 Input=/home/boittier/MDCM/nms_sampling/acrolein_geom.xyz.dir/energies/acrolein_155_energy.com
 Output=/scratch/boittier/acrolein_155_energy/acrolein_155_energy.out
 Initial command:
 /opt/cluster/programs/g09/g09_d.01/g09/l1.exe "/scratch/boittier/acrolein_155_energy/Gau-104738.inp" -scrdir="/scratch/boittier/acrolein_155_energy/"
 Entering Link 1 = /opt/cluster/programs/g09/g09_d.01/g09/l1.exe PID=    104739.
  
 Copyright (c) 1988,1990,1992,1993,1995,1998,2003,2009,2013,
            Gaussian, Inc.  All Rights Reserved.
  
 This is part of the Gaussian(R) 09 program.  It is based on
 the Gaussian(R) 03 system (copyright 2003, Gaussian, Inc.),
 the Gaussian(R) 98 system (copyright 1998, Gaussian, Inc.),
 the Gaussian(R) 94 system (copyright 1995, Gaussian, Inc.),
 the Gaussian 92(TM) system (copyright 1992, Gaussian, Inc.),
 the Gaussian 90(TM) system (copyright 1990, Gaussian, Inc.),
 the Gaussian 88(TM) system (copyright 1988, Gaussian, Inc.),
 the Gaussian 86(TM) system (copyright 1986, Carnegie Mellon
 University), and the Gaussian 82(TM) system (copyright 1983,
 Carnegie Mellon University). Gaussian is a federally registered
 trademark of Gaussian, Inc.
  
 This software contains proprietary and confidential information,
 including trade secrets, belonging to Gaussian, Inc.
  
 This software is provided under written license and may be
 used, copied, transmitted, or stored only in accord with that
 written license.
  
 The following legend is applicable only to US Government
 contracts under FAR:
  
                    RESTRICTED RIGHTS LEGEND
  
 Use, reproduction and disclosure by the US Government is
 subject to restrictions as set forth in subparagraphs (a)
 and (c) of the Commercial Computer Software - Restricted
 Rights clause in FAR 52.227-19.
  
 Gaussian, Inc.
 340 Quinnipiac St., Bldg. 40, Wallingford CT 06492
  
  
 ---------------------------------------------------------------
 Warning -- This program may not be used in any manner that
 competes with the business of Gaussian, Inc. or will provide
 assistance to any competitor of Gaussian, Inc.  The licensee
 of this program is prohibited from giving any competitor of
 Gaussian, Inc. access to this program.  By using this program,
 the user acknowledges that Gaussian, Inc. is engaged in the
 business of creating and licensing software in the field of
 computational chemistry and represents and warrants to the
 licensee that it is not a competitor of Gaussian, Inc. and that
 it will not use this program in any manner prohibited above.
 ---------------------------------------------------------------
  

 Cite this work as:
 Gaussian 09, Revision D.01,
 M. J. Frisch, G. W. Trucks, H. B. Schlegel, G. E. Scuseria, 
 M. A. Robb, J. R. Cheeseman, G. Scalmani, V. Barone, B. Mennucci, 
 G. A. Petersson, H. Nakatsuji, M. Caricato, X. Li, H. P. Hratchian, 
 A. F. Izmaylov, J. Bloino, G. Zheng, J. L. Sonnenberg, M. Hada, 
 M. Ehara, K. Toyota, R. Fukuda, J. Hasegawa, M. Ishida, T. Nakajima, 
 Y. Honda, O. Kitao, H. Nakai, T. Vreven, J. A. Montgomery, Jr., 
 J. E. Peralta, F. Ogliaro, M. Bearpark, J. J. Heyd, E. Brothers, 
 K. N. Kudin, V. N. Staroverov, T. Keith, R. Kobayashi, J. Normand, 
 K. Raghavachari, A. Rendell, J. C. Burant, S. S. Iyengar, J. Tomasi, 
 M. Cossi, N. Rega, J. M. Millam, M. Klene, J. E. Knox, J. B. Cross, 
 V. Bakken, C. Adamo, J. Jaramillo, R. Gomperts, R. E. Stratmann, 
 O. Yazyev, A. J. Austin, R. Cammi, C. Pomelli, J. W. Ochterski, 
 R. L. Martin, K. Morokuma, V. G. Zakrzewski, G. A. Voth, 
 P. Salvador, J. J. Dannenberg, S. Dapprich, A. D. Daniels, 
 O. Farkas, J. B. Foresman, J. V. Ortiz, J. Cioslowski, 
 and D. J. Fox, Gaussian, Inc., Wallingford CT, 2013.
 
 ******************************************
 Gaussian 09:  ES64L-G09RevD.01 24-Apr-2013
                26-Aug-2020 
 ******************************************
 %chk=/home/boittier/MDCM/nms_sampling/acrolein_geom.xyz.dir/acrolein_155.chk
 %nproc=8
 Will use up to    8 processors via shared memory.
 %mem=16000MB
 --------------------
 #p B2PLYPD3/Def2QZVP
 --------------------
 1/38=1/1;
 2/12=2,17=6,18=5,40=1/2;
 3/5=45,7=101,11=9,16=1,25=1,30=1,74=-60/1,2,3;
 4//1;
 5/5=2,38=5/2;
 8/10=1/1;
 9/16=-3/6;
 6/7=2,8=2,9=2,10=2/1;
 99/5=1,9=1/99;
 Leave Link    1 at Wed Aug 26 09:26:00 2020, MaxMem=  2097152000 cpu:         0.2
 (Enter /opt/cluster/programs/g09/g09_d.01/g09/l101.exe)
 --------
 acrolein
 --------
 Symbolic Z-matrix:
 Charge =  0 Multiplicity = 1
 C                    -4.99857  -1.40087   0.87209 
 O                    -3.93433  -0.85922   0.67721 
 C                    -5.19087  -2.82054   1.13719 
 C                    -6.41427  -3.30287   1.40804 
 H                    -4.29215  -3.46261   1.04105 
 H                    -7.31907  -2.66629   1.48991 
 H                    -6.58735  -4.36944   1.63469 
 H                    -5.89741  -0.78487   0.85635 
 
 NAtoms=      8 NQM=        8 NQMF=       0 NMMI=      0 NMMIF=      0
                NMic=       0 NMicF=      0.
                    Isotopes and Nuclear Properties:
 (Nuclear quadrupole moments (NQMom) in fm**2, nuclear magnetic moments (NMagM)
  in nuclear magnetons)

  Atom         1           2           3           4           5           6           7           8
 IAtWgt=          12          16          12          12           1           1           1           1
 AtmWgt=  12.0000000  15.9949146  12.0000000  12.0000000   1.0078250   1.0078250   1.0078250   1.0078250
 NucSpn=           0           0           0           0           1           1           1           1
 AtZEff=   0.0000000   0.0000000   0.0000000   0.0000000   0.0000000   0.0000000   0.0000000   0.0000000
 NQMom=    0.0000000   0.0000000   0.0000000   0.0000000   0.0000000   0.0000000   0.0000000   0.0000000
 NMagM=    0.0000000   0.0000000   0.0000000   0.0000000   2.7928460   2.7928460   2.7928460   2.7928460
 AtZNuc=   6.0000000   8.0000000   6.0000000   6.0000000   1.0000000   1.0000000   1.0000000   1.0000000
 Leave Link  101 at Wed Aug 26 09:26:00 2020, MaxMem=  2097152000 cpu:         0.5
 (Enter /opt/cluster/programs/g09/g09_d.01/g09/l202.exe)
                          Input orientation:                          
 ---------------------------------------------------------------------
 Center     Atomic      Atomic             Coordinates (Angstroms)
 Number     Number       Type             X           Y           Z
 ---------------------------------------------------------------------
      1          6           0       -4.998569   -1.400870    0.872091
      2          8           0       -3.934330   -0.859222    0.677210
      3          6           0       -5.190866   -2.820536    1.137188
      4          6           0       -6.414265   -3.302871    1.408035
      5          1           0       -4.292146   -3.462614    1.041046
      6          1           0       -7.319071   -2.666292    1.489913
      7          1           0       -6.587345   -4.369442    1.634691
      8          1           0       -5.897409   -0.784866    0.856354
 ---------------------------------------------------------------------
                    Distance matrix (angstroms):
                    1          2          3          4          5
     1  C    0.000000
     2  O    1.209945   0.000000
     3  C    1.456951   2.374282   0.000000
     4  C    2.430851   3.557471   1.342650   0.000000
     5  H    2.185948   2.652934   1.108695   2.159534   0.000000
     6  H    2.714356   3.922048   2.162744   1.109329   3.161943
     7  H    3.452273   4.502988   2.144009   1.104040   2.538245
     8  H    1.089781   1.972638   2.173022   2.629038   3.127509
                    6          7          8
     6  H    0.000000
     7  H    1.859329   0.000000
     8  H    2.441779   3.732426   0.000000
 Stoichiometry    C3H4O
 Framework group  C1[X(C3H4O)]
 Deg. of freedom    18
 Full point group                 C1      NOp   1
 Largest Abelian subgroup         C1      NOp   1
 Largest concise Abelian subgroup C1      NOp   1
                         Standard orientation:                         
 ---------------------------------------------------------------------
 Center     Atomic      Atomic             Coordinates (Angstroms)
 Number     Number       Type             X           Y           Z
 ---------------------------------------------------------------------
      1          6           0       -0.667464    0.335887    0.022749
      2          8           0       -1.792375   -0.107203   -0.024296
      3          6           0        0.556103   -0.454899    0.006970
      4          6           0        1.755913    0.147593   -0.006001
      5          1           0        0.429026   -1.554646    0.067085
      6          1           0        1.887955    1.248138   -0.050449
      7          1           0        2.699373   -0.424766   -0.040553
      8          1           0       -0.544666    1.417418    0.075977
 ---------------------------------------------------------------------
 Rotational constants (GHZ):     48.0535925      4.6560226      4.2469247
 Leave Link  202 at Wed Aug 26 09:26:00 2020, MaxMem=  2097152000 cpu:         0.0
 (Enter /opt/cluster/programs/g09/g09_d.01/g09/l301.exe)
 Standard basis: def2QZVP (5D, 7F)
 Ernie: Thresh=  0.10000D-02 Tol=  0.10000D-05 Strict=F.
 There are   428 symmetry adapted cartesian basis functions of A   symmetry.
 There are   348 symmetry adapted basis functions of A   symmetry.
   348 basis functions,   520 primitive gaussians,   428 cartesian basis functions
    15 alpha electrons       15 beta electrons
       nuclear repulsion energy       103.0271404540 Hartrees.
 IExCor=  419 DFT=T Ex+Corr=B2PLYPD3 ExCW=0 ScaHFX=  0.530000
 ScaDFX=  0.470000  0.470000  0.730000  0.730000 ScalE2=  0.270000  0.270000
 IRadAn=      0 IRanWt=     -1 IRanGd=            0 ICorTp=0 IEmpDi=141
 NAtoms=    8 NActive=    8 NUniq=    8 SFac= 1.00D+00 NAtFMM=   60 NAOKFM=F Big=F
 Integral buffers will be    131072 words long.
 Regular integral format.
 Two-electron integral symmetry is turned on.
 R6Disp:  Grimme-D3(BJ) Dispersion energy=       -0.0035730278 Hartrees.
 Nuclear repulsion after empirical dispersion term =      103.0235674261 Hartrees.
 Leave Link  301 at Wed Aug 26 09:26:00 2020, MaxMem=  2097152000 cpu:         0.4
 (Enter /opt/cluster/programs/g09/g09_d.01/g09/l302.exe)
 NPDir=0 NMtPBC=     1 NCelOv=     1 NCel=       1 NClECP=     1 NCelD=      1
         NCelK=      1 NCelE2=     1 NClLst=     1 CellRange=     0.0.
 One-electron integrals computed using PRISM.
   1 Symmetry operations used in ECPInt.
 ECPInt:  NShTT=    5886 NPrTT=   14376 LenC2=    5780 LenP2D=   12171.
 LDataN:  DoStor=T MaxTD1= 8 Len=  415
 NBasis=   348 RedAO= T EigKep=  6.06D-05  NBF=   348
 NBsUse=   348 1.00D-06 EigRej= -1.00D+00 NBFU=   348
 Precomputing XC quadrature grid using
 IXCGrd= 4 IRadAn=           0 IRanWt=          -1 IRanGd=           0 AccXCQ= 0.00D+00.
 Generated NRdTot=       0 NPtTot=           0 NUsed=           0 NTot=          32
 NSgBfM=   428   428   428   428   428 MxSgAt=     8 MxSgA2=     8.
 Leave Link  302 at Wed Aug 26 09:26:00 2020, MaxMem=  2097152000 cpu:         3.0
 (Enter /opt/cluster/programs/g09/g09_d.01/g09/l303.exe)
 DipDrv:  MaxL=1.
 Leave Link  303 at Wed Aug 26 09:26:00 2020, MaxMem=  2097152000 cpu:         0.4
 (Enter /opt/cluster/programs/g09/g09_d.01/g09/l401.exe)
 ExpMin= 7.60D-02 ExpMax= 1.17D+05 ExpMxC= 1.13D+03 IAcc=2 IRadAn=         4 AccDes= 0.00D+00
 Harris functional with IExCor=  419 and IRadAn=       4 diagonalized for initial guess.
 HarFok:  IExCor=  419 AccDes= 0.00D+00 IRadAn=         4 IDoV= 1 UseB2=F ITyADJ=14
 ICtDFT=  3500011 ScaDFX=  1.000000  1.000000  1.000000  1.000000
 FoFCou: FMM=F IPFlag=           0 FMFlag=      100000 FMFlg1=           0
         NFxFlg=           0 DoJE=T BraDBF=F KetDBF=T FulRan=T
         wScrn=  0.000000 ICntrl=     500 IOpCl=  0 I1Cent=   200000004 NGrid=           0
         NMat0=    1 NMatS0=      1 NMatT0=    0 NMatD0=    1 NMtDS0=    0 NMtDT0=    0
 Petite list used in FoFCou.
 Harris En= -192.040404971900    
 JPrj=0 DoOrth=F DoCkMO=F.
 Leave Link  401 at Wed Aug 26 09:26:01 2020, MaxMem=  2097152000 cpu:         5.9
 (Enter /opt/cluster/programs/g09/g09_d.01/g09/l502.exe)
 Closed shell SCF:
 Using DIIS extrapolation, IDIIS=  1040.
 Integral symmetry usage will be decided dynamically.
 Keep R1 ints in memory in canonical form, NReq=1883905047.
 IVT=      574566 IEndB=      574566 NGot=  2097152000 MDV=   252723534
 LenX=   252723534 LenY=   252539909
 Requested convergence on RMS density matrix=1.00D-08 within 128 cycles.
 Requested convergence on MAX density matrix=1.00D-06.
 Requested convergence on             energy=1.00D-06.
 No special actions if energy rises.
 FoFCou: FMM=F IPFlag=           0 FMFlag=           0 FMFlg1=           0
         NFxFlg=           0 DoJE=F BraDBF=F KetDBF=F FulRan=T
         wScrn=  0.000000 ICntrl=     600 IOpCl=  0 I1Cent=           0 NGrid=           0
         NMat0=    1 NMatS0=  60726 NMatT0=    0 NMatD0=    1 NMtDS0=    0 NMtDT0=    0
 Symmetry not used in FoFCou.
 Integral accuracy reduced to 1.0D-05 until final iterations.

 Cycle   1  Pass 0  IDiag  1:
 E= -191.476962700863    
 DIIS: error= 2.57D-02 at cycle   1 NSaved=   1.
 NSaved= 1 IEnMin= 1 EnMin= -191.476962700863     IErMin= 1 ErrMin= 2.57D-02
 ErrMax= 2.57D-02  0.00D+00 EMaxC= 1.00D-01 BMatC= 2.50D-01 BMatP= 2.50D-01
 IDIUse=3 WtCom= 7.43D-01 WtEn= 2.57D-01
 Coeff-Com:  0.100D+01
 Coeff-En:   0.100D+01
 Coeff:      0.100D+01
 Gap=     0.278 Goal=   None    Shift=    0.000
 GapD=    0.278 DampG=1.000 DampE=0.500 DampFc=0.5000 IDamp=-1.
 Damping current iteration by 5.00D-01
 RMSDP=1.91D-03 MaxDP=2.52D-01              OVMax= 1.79D-01

 Cycle   2  Pass 0  IDiag  1:
 E= -191.543323459166     Delta-E=       -0.066360758303 Rises=F Damp=T
 DIIS: error= 1.05D-02 at cycle   2 NSaved=   2.
 NSaved= 2 IEnMin= 2 EnMin= -191.543323459166     IErMin= 2 ErrMin= 1.05D-02
 ErrMax= 1.05D-02  0.00D+00 EMaxC= 1.00D-01 BMatC= 3.35D-02 BMatP= 2.50D-01
 IDIUse=3 WtCom= 8.95D-01 WtEn= 1.05D-01
 Coeff-Com: -0.150D+00 0.115D+01
 Coeff-En:   0.000D+00 0.100D+01
 Coeff:     -0.134D+00 0.113D+01
 Gap=     0.352 Goal=   None    Shift=    0.000
 RMSDP=6.56D-04 MaxDP=8.80D-02 DE=-6.64D-02 OVMax= 1.30D-01

 Cycle   3  Pass 0  IDiag  1:
 E= -191.602591796967     Delta-E=       -0.059268337801 Rises=F Damp=F
 DIIS: error= 1.10D-02 at cycle   3 NSaved=   3.
 NSaved= 3 IEnMin= 3 EnMin= -191.602591796967     IErMin= 2 ErrMin= 1.05D-02
 ErrMax= 1.10D-02  0.00D+00 EMaxC= 1.00D-01 BMatC= 1.69D-02 BMatP= 3.35D-02
 IDIUse=3 WtCom= 8.90D-01 WtEn= 1.10D-01
 Coeff-Com: -0.193D+00 0.522D+00 0.670D+00
 Coeff-En:   0.000D+00 0.000D+00 0.100D+01
 Coeff:     -0.171D+00 0.465D+00 0.707D+00
 Gap=     0.331 Goal=   None    Shift=    0.000
 RMSDP=2.46D-04 MaxDP=1.94D-02 DE=-5.93D-02 OVMax= 4.86D-02

 Cycle   4  Pass 0  IDiag  1:
 E= -191.611862972226     Delta-E=       -0.009271175259 Rises=F Damp=F
 DIIS: error= 4.76D-03 at cycle   4 NSaved=   4.
 NSaved= 4 IEnMin= 4 EnMin= -191.611862972226     IErMin= 4 ErrMin= 4.76D-03
 ErrMax= 4.76D-03  0.00D+00 EMaxC= 1.00D-01 BMatC= 3.14D-03 BMatP= 1.69D-02
 IDIUse=3 WtCom= 9.52D-01 WtEn= 4.76D-02
 Coeff-Com: -0.605D-01 0.996D-01 0.368D+00 0.593D+00
 Coeff-En:   0.000D+00 0.000D+00 0.171D+00 0.829D+00
 Coeff:     -0.576D-01 0.949D-01 0.358D+00 0.604D+00
 Gap=     0.318 Goal=   None    Shift=    0.000
 RMSDP=1.01D-04 MaxDP=8.55D-03 DE=-9.27D-03 OVMax= 1.44D-02

 Cycle   5  Pass 0  IDiag  1:
 E= -191.614411872033     Delta-E=       -0.002548899807 Rises=F Damp=F
 DIIS: error= 3.43D-04 at cycle   5 NSaved=   5.
 NSaved= 5 IEnMin= 5 EnMin= -191.614411872033     IErMin= 5 ErrMin= 3.43D-04
 ErrMax= 3.43D-04  0.00D+00 EMaxC= 1.00D-01 BMatC= 1.18D-05 BMatP= 3.14D-03
 IDIUse=3 WtCom= 9.97D-01 WtEn= 3.43D-03
 Coeff-Com: -0.665D-02 0.796D-02 0.470D-01 0.115D+00 0.837D+00
 Coeff-En:   0.000D+00 0.000D+00 0.000D+00 0.000D+00 0.100D+01
 Coeff:     -0.662D-02 0.793D-02 0.468D-01 0.114D+00 0.838D+00
 Gap=     0.317 Goal=   None    Shift=    0.000
 RMSDP=1.04D-05 MaxDP=9.54D-04 DE=-2.55D-03 OVMax= 2.22D-03

 Cycle   6  Pass 0  IDiag  1:
 E= -191.614424917797     Delta-E=       -0.000013045764 Rises=F Damp=F
 DIIS: error= 7.40D-05 at cycle   6 NSaved=   6.
 NSaved= 6 IEnMin= 6 EnMin= -191.614424917797     IErMin= 6 ErrMin= 7.40D-05
 ErrMax= 7.40D-05  0.00D+00 EMaxC= 1.00D-01 BMatC= 1.51D-06 BMatP= 1.18D-05
 IDIUse=1 WtCom= 1.00D+00 WtEn= 0.00D+00
 Coeff-Com:  0.370D-02-0.703D-02-0.190D-01-0.228D-01 0.246D+00 0.799D+00
 Coeff:      0.370D-02-0.703D-02-0.190D-01-0.228D-01 0.246D+00 0.799D+00
 Gap=     0.317 Goal=   None    Shift=    0.000
 RMSDP=7.54D-06 MaxDP=8.47D-04 DE=-1.30D-05 OVMax= 5.49D-04

 Initial convergence to 1.0D-05 achieved.  Increase integral accuracy.
 Cycle   7  Pass 1  IDiag  1:
 E= -191.614419922238     Delta-E=        0.000004995559 Rises=F Damp=F
 DIIS: error= 2.22D-05 at cycle   1 NSaved=   1.
 NSaved= 1 IEnMin= 1 EnMin= -191.614419922238     IErMin= 1 ErrMin= 2.22D-05
 ErrMax= 2.22D-05  0.00D+00 EMaxC= 1.00D-01 BMatC= 1.98D-07 BMatP= 1.98D-07
 IDIUse=1 WtCom= 1.00D+00 WtEn= 0.00D+00
 Coeff-Com:  0.100D+01
 Coeff:      0.100D+01
 Gap=     0.318 Goal=   None    Shift=    0.000
 RMSDP=7.54D-06 MaxDP=8.47D-04 DE= 5.00D-06 OVMax= 1.99D-04

 Cycle   8  Pass 1  IDiag  1:
 E= -191.614420048781     Delta-E=       -0.000000126543 Rises=F Damp=F
 DIIS: error= 3.13D-05 at cycle   2 NSaved=   2.
 NSaved= 2 IEnMin= 2 EnMin= -191.614420048781     IErMin= 1 ErrMin= 2.22D-05
 ErrMax= 3.13D-05  0.00D+00 EMaxC= 1.00D-01 BMatC= 1.17D-07 BMatP= 1.98D-07
 IDIUse=1 WtCom= 1.00D+00 WtEn= 0.00D+00
 Coeff-Com:  0.419D+00 0.581D+00
 Coeff:      0.419D+00 0.581D+00
 Gap=     0.318 Goal=   None    Shift=    0.000
 RMSDP=6.13D-07 MaxDP=3.62D-05 DE=-1.27D-07 OVMax= 2.07D-04

 Cycle   9  Pass 1  IDiag  1:
 E= -191.614420147514     Delta-E=       -0.000000098733 Rises=F Damp=F
 DIIS: error= 9.20D-06 at cycle   3 NSaved=   3.
 NSaved= 3 IEnMin= 3 EnMin= -191.614420147514     IErMin= 3 ErrMin= 9.20D-06
 ErrMax= 9.20D-06  0.00D+00 EMaxC= 1.00D-01 BMatC= 2.61D-08 BMatP= 1.17D-07
 IDIUse=1 WtCom= 1.00D+00 WtEn= 0.00D+00
 Coeff-Com: -0.375D-01 0.293D+00 0.745D+00
 Coeff:     -0.375D-01 0.293D+00 0.745D+00
 Gap=     0.318 Goal=   None    Shift=    0.000
 RMSDP=6.89D-07 MaxDP=7.78D-05 DE=-9.87D-08 OVMax= 5.73D-05

 Cycle  10  Pass 1  IDiag  1:
 E= -191.614420169289     Delta-E=       -0.000000021775 Rises=F Damp=F
 DIIS: error= 3.55D-06 at cycle   4 NSaved=   4.
 NSaved= 4 IEnMin= 4 EnMin= -191.614420169289     IErMin= 4 ErrMin= 3.55D-06
 ErrMax= 3.55D-06  0.00D+00 EMaxC= 1.00D-01 BMatC= 2.08D-09 BMatP= 2.61D-08
 IDIUse=1 WtCom= 1.00D+00 WtEn= 0.00D+00
 Coeff-Com: -0.738D-01 0.748D-01 0.252D+00 0.747D+00
 Coeff:     -0.738D-01 0.748D-01 0.252D+00 0.747D+00
 Gap=     0.318 Goal=   None    Shift=    0.000
 RMSDP=1.75D-07 MaxDP=1.88D-05 DE=-2.18D-08 OVMax= 2.87D-05

 Cycle  11  Pass 1  IDiag  1:
 E= -191.614420171899     Delta-E=       -0.000000002610 Rises=F Damp=F
 DIIS: error= 1.57D-06 at cycle   5 NSaved=   5.
 NSaved= 5 IEnMin= 5 EnMin= -191.614420171899     IErMin= 5 ErrMin= 1.57D-06
 ErrMax= 1.57D-06  0.00D+00 EMaxC= 1.00D-01 BMatC= 4.26D-10 BMatP= 2.08D-09
 IDIUse=1 WtCom= 1.00D+00 WtEn= 0.00D+00
 Coeff-Com: -0.154D-01-0.125D-01-0.858D-01 0.251D+00 0.863D+00
 Coeff:     -0.154D-01-0.125D-01-0.858D-01 0.251D+00 0.863D+00
 Gap=     0.318 Goal=   None    Shift=    0.000
 RMSDP=1.10D-07 MaxDP=1.22D-05 DE=-2.61D-09 OVMax= 1.42D-05

 Cycle  12  Pass 1  IDiag  1:
 E= -191.614420172333     Delta-E=       -0.000000000434 Rises=F Damp=F
 DIIS: error= 4.81D-07 at cycle   6 NSaved=   6.
 NSaved= 6 IEnMin= 6 EnMin= -191.614420172333     IErMin= 6 ErrMin= 4.81D-07
 ErrMax= 4.81D-07  0.00D+00 EMaxC= 1.00D-01 BMatC= 5.66D-11 BMatP= 4.26D-10
 IDIUse=1 WtCom= 1.00D+00 WtEn= 0.00D+00
 Coeff-Com:  0.193D-02-0.124D-01-0.755D-01 0.227D-01 0.405D+00 0.658D+00
 Coeff:      0.193D-02-0.124D-01-0.755D-01 0.227D-01 0.405D+00 0.658D+00
 Gap=     0.318 Goal=   None    Shift=    0.000
 RMSDP=3.27D-08 MaxDP=3.79D-06 DE=-4.34D-10 OVMax= 2.75D-06

 Cycle  13  Pass 1  IDiag  1:
 E= -191.614420172396     Delta-E=       -0.000000000063 Rises=F Damp=F
 DIIS: error= 5.32D-08 at cycle   7 NSaved=   7.
 NSaved= 7 IEnMin= 7 EnMin= -191.614420172396     IErMin= 7 ErrMin= 5.32D-08
 ErrMax= 5.32D-08  0.00D+00 EMaxC= 1.00D-01 BMatC= 9.59D-13 BMatP= 5.66D-11
 IDIUse=1 WtCom= 1.00D+00 WtEn= 0.00D+00
 Coeff-Com:  0.114D-02-0.158D-02-0.139D-01-0.810D-02 0.550D-01 0.156D+00
 Coeff-Com:  0.811D+00
 Coeff:      0.114D-02-0.158D-02-0.139D-01-0.810D-02 0.550D-01 0.156D+00
 Coeff:      0.811D+00
 Gap=     0.318 Goal=   None    Shift=    0.000
 RMSDP=2.77D-09 MaxDP=8.49D-08 DE=-6.25D-11 OVMax= 4.53D-07

 SCF Done:  E(RB2PLYPD3) =  -191.614420172     A.U. after   13 cycles
            NFock= 13  Conv=0.28D-08     -V/T= 2.0038
 KE= 1.908981244940D+02 PE=-6.540328955428D+02 EE= 1.684967834503D+02
 Leave Link  502 at Wed Aug 26 09:27:05 2020, MaxMem=  2097152000 cpu:       270.2
 (Enter /opt/cluster/programs/g09/g09_d.01/g09/l801.exe)
 DoSCS=T DFT=T ScalE2(SS,OS)=  0.270000  0.270000
 ExpMin= 7.60D-02 ExpMax= 1.17D+05 ExpMxC= 1.13D+03 IAcc=3 IRadAn=         5 AccDes= 0.00D+00
 HarFok:  IExCor=  205 AccDes= 0.00D+00 IRadAn=         5 IDoV=-2 UseB2=F ITyADJ=14
 ICtDFT= 12500011 ScaDFX=  1.000000  1.000000  1.000000  1.000000
 Largest valence mixing into a core orbital is  1.14D-04
 Largest core mixing into a valence orbital is  1.94D-05
 Range of M.O.s used for correlation:     5   348
 NBasis=   348 NAE=    15 NBE=    15 NFC=     4 NFV=     0
 NROrb=    344 NOA=    11 NOB=    11 NVA=   333 NVB=   333

 **** Warning!!: The largest alpha MO coefficient is  0.30403876D+02

 Leave Link  801 at Wed Aug 26 09:27:05 2020, MaxMem=  2097152000 cpu:         0.8
 (Enter /opt/cluster/programs/g09/g09_d.01/g09/l906.exe)
 DoSCS=T DFT=T ScalE2(SS,OS)=  0.270000  0.270000
 FulOut=F Deriv=F AODrv=F NAtomX=     8
   MMem=        1190  MDisk=          11 MDiskD=          11
  W3Min=     1567764 MinDsk=     2827057 NBas6D=         428
 NBas2D=       93150    NTT=       91806    LW2=     4508827
    MDV=  2096571738 MDiskM=       10875 NBas2p=       89335
 Fully direct method using O(OVN) memory.
 IMap=   1   2   3   4   5   6   7   8   9  10  11
 JobTyp=1 Pass  1:  I=   1 to  11 NPSUse=  8 ParTrn=T ParDer=T DoDerP=F.
 Spin components of T(2) and E(2):
     alpha-alpha T2 =       0.4393306834D-01 E2=     -0.2949264330D-01
     alpha-beta  T2 =       0.2688615891D+00 E2=     -0.1884835031D+00
     beta-beta   T2 =       0.4393306834D-01 E2=     -0.2949264330D-01
 The integrals were generated   1 times.
 E2(B2PLYPD3) =    -0.2474687897D+00 E(B2PLYPD3) =    -0.19186188896208D+03
 Leave Link  906 at Wed Aug 26 09:27:59 2020, MaxMem=  2097152000 cpu:       428.1
 (Enter /opt/cluster/programs/g09/g09_d.01/g09/l601.exe)
 Copying SCF densities to generalized density rwf, IOpCl= 0 IROHF=0.

 **********************************************************************

            Population analysis using the SCF density.

 **********************************************************************

 Orbital symmetries:
       Occupied  (A) (A) (A) (A) (A) (A) (A) (A) (A) (A) (A) (A)
                 (A) (A) (A)
       Virtual   (A) (A) (A) (A) (A) (A) (A) (A) (A) (A) (A) (A)
                 (A) (A) (A) (A) (A) (A) (A) (A) (A) (A) (A) (A)
                 (A) (A) (A) (A) (A) (A) (A) (A) (A) (A) (A) (A)
                 (A) (A) (A) (A) (A) (A) (A) (A) (A) (A) (A) (A)
                 (A) (A) (A) (A) (A) (A) (A) (A) (A) (A) (A) (A)
                 (A) (A) (A) (A) (A) (A) (A) (A) (A) (A) (A) (A)
                 (A) (A) (A) (A) (A) (A) (A) (A) (A) (A) (A) (A)
                 (A) (A) (A) (A) (A) (A) (A) (A) (A) (A) (A) (A)
                 (A) (A) (A) (A) (A) (A) (A) (A) (A) (A) (A) (A)
                 (A) (A) (A) (A) (A) (A) (A) (A) (A) (A) (A) (A)
                 (A) (A) (A) (A) (A) (A) (A) (A) (A) (A) (A) (A)
                 (A) (A) (A) (A) (A) (A) (A) (A) (A) (A) (A) (A)
                 (A) (A) (A) (A) (A) (A) (A) (A) (A) (A) (A) (A)
                 (A) (A) (A) (A) (A) (A) (A) (A) (A) (A) (A) (A)
                 (A) (A) (A) (A) (A) (A) (A) (A) (A) (A) (A) (A)
                 (A) (A) (A) (A) (A) (A) (A) (A) (A) (A) (A) (A)
                 (A) (A) (A) (A) (A) (A) (A) (A) (A) (A) (A) (A)
                 (A) (A) (A) (A) (A) (A) (A) (A) (A) (A) (A) (A)
                 (A) (A) (A) (A) (A) (A) (A) (A) (A) (A) (A) (A)
                 (A) (A) (A) (A) (A) (A) (A) (A) (A) (A) (A) (A)
                 (A) (A) (A) (A) (A) (A) (A) (A) (A) (A) (A) (A)
                 (A) (A) (A) (A) (A) (A) (A) (A) (A) (A) (A) (A)
                 (A) (A) (A) (A) (A) (A) (A) (A) (A) (A) (A) (A)
                 (A) (A) (A) (A) (A) (A) (A) (A) (A) (A) (A) (A)
                 (A) (A) (A) (A) (A) (A) (A) (A) (A) (A) (A) (A)
                 (A) (A) (A) (A) (A) (A) (A) (A) (A) (A) (A) (A)
                 (A) (A) (A) (A) (A) (A) (A) (A) (A) (A) (A) (A)
                 (A) (A) (A) (A) (A) (A) (A) (A) (A)
 The electronic state is 1-A.
 Alpha  occ. eigenvalues --  -19.72565 -10.71148 -10.66334 -10.64943  -1.19427
 Alpha  occ. eigenvalues --   -0.92800  -0.75459  -0.66777  -0.56727  -0.55946
 Alpha  occ. eigenvalues --   -0.50325  -0.46845  -0.46383  -0.34624  -0.33728
 Alpha virt. eigenvalues --   -0.01957   0.05625   0.07032   0.08307   0.09621
 Alpha virt. eigenvalues --    0.12429   0.14101   0.15285   0.17469   0.19579
 Alpha virt. eigenvalues --    0.19988   0.21425   0.25281   0.26482   0.28690
 Alpha virt. eigenvalues --    0.31091   0.33763   0.35307   0.37165   0.37712
 Alpha virt. eigenvalues --    0.40104   0.41453   0.43038   0.44497   0.46623
 Alpha virt. eigenvalues --    0.47120   0.49336   0.52884   0.53597   0.56510
 Alpha virt. eigenvalues --    0.58774   0.64641   0.66044   0.67907   0.71077
 Alpha virt. eigenvalues --    0.75087   0.76614   0.78438   0.79599   0.80518
 Alpha virt. eigenvalues --    0.81499   0.82174   0.82286   0.84207   0.85576
 Alpha virt. eigenvalues --    0.87630   0.91340   0.92468   0.93340   0.95708
 Alpha virt. eigenvalues --    0.96306   0.97654   1.00975   1.02246   1.07036
 Alpha virt. eigenvalues --    1.09681   1.11887   1.14219   1.15858   1.19443
 Alpha virt. eigenvalues --    1.20181   1.25329   1.27170   1.33929   1.38755
 Alpha virt. eigenvalues --    1.43442   1.47477   1.48004   1.55332   1.56560
 Alpha virt. eigenvalues --    1.61038   1.62448   1.63532   1.67283   1.69902
 Alpha virt. eigenvalues --    1.73249   1.76494   1.78663   1.81846   1.83421
 Alpha virt. eigenvalues --    1.86297   1.89331   1.91136   1.94356   1.94690
 Alpha virt. eigenvalues --    1.96257   1.98504   1.99944   2.02201   2.03512
 Alpha virt. eigenvalues --    2.06141   2.09728   2.11290   2.13569   2.14606
 Alpha virt. eigenvalues --    2.16073   2.18229   2.19656   2.22793   2.25847
 Alpha virt. eigenvalues --    2.29786   2.35763   2.38234   2.39410   2.43005
 Alpha virt. eigenvalues --    2.44876   2.46297   2.47126   2.48280   2.53205
 Alpha virt. eigenvalues --    2.54082   2.58240   2.59018   2.60299   2.63947
 Alpha virt. eigenvalues --    2.65560   2.65630   2.66966   2.68529   2.73668
 Alpha virt. eigenvalues --    2.75552   2.77178   2.85325   2.86894   2.87242
 Alpha virt. eigenvalues --    2.87751   2.95064   2.96720   2.99588   3.03374
 Alpha virt. eigenvalues --    3.15554   3.17569   3.29094   3.30262   3.31881
 Alpha virt. eigenvalues --    3.34093   3.39619   3.40290   3.43299   3.47251
 Alpha virt. eigenvalues --    3.50334   3.51872   3.56960   3.61131   3.62205
 Alpha virt. eigenvalues --    3.65440   3.72942   3.76238   3.78795   3.90238
 Alpha virt. eigenvalues --    3.91598   3.98506   4.00663   4.02649   4.04876
 Alpha virt. eigenvalues --    4.10626   4.17936   4.18728   4.25465   4.32411
 Alpha virt. eigenvalues --    4.37835   4.44837   4.53535   4.61708   4.63585
 Alpha virt. eigenvalues --    4.66600   4.81583   4.87021   4.91099   4.98113
 Alpha virt. eigenvalues --    5.02269   5.06141   5.09016   5.10127   5.12668
 Alpha virt. eigenvalues --    5.21097   5.28083   5.31827   5.34946   5.42293
 Alpha virt. eigenvalues --    5.44875   5.52714   5.55896   5.58716   5.59354
 Alpha virt. eigenvalues --    5.66742   5.68428   5.71826   5.74801   5.74857
 Alpha virt. eigenvalues --    5.78812   5.81359   5.86210   5.88978   5.94447
 Alpha virt. eigenvalues --    5.95333   5.98439   6.01425   6.03657   6.07192
 Alpha virt. eigenvalues --    6.08889   6.13947   6.14311   6.16557   6.19074
 Alpha virt. eigenvalues --    6.19603   6.23765   6.24430   6.26598   6.28065
 Alpha virt. eigenvalues --    6.31002   6.32991   6.35032   6.40839   6.42788
 Alpha virt. eigenvalues --    6.46236   6.49853   6.51521   6.54946   6.56138
 Alpha virt. eigenvalues --    6.60147   6.63813   6.67702   6.73423   6.75967
 Alpha virt. eigenvalues --    6.81298   6.83606   6.92541   6.95732   6.99475
 Alpha virt. eigenvalues --    7.01970   7.07909   7.11564   7.16056   7.23230
 Alpha virt. eigenvalues --    7.27971   7.38234   7.40685   7.45992   7.47413
 Alpha virt. eigenvalues --    7.53176   7.55756   7.59449   7.63532   7.63666
 Alpha virt. eigenvalues --    7.67405   7.69219   7.70787   7.73927   7.76786
 Alpha virt. eigenvalues --    7.83030   7.85811   7.92782   8.00261   8.05567
 Alpha virt. eigenvalues --    8.06583   8.10677   8.13453   8.18325   8.20673
 Alpha virt. eigenvalues --    8.21115   8.26494   8.27271   8.31278   8.31850
 Alpha virt. eigenvalues --    8.33987   8.34830   8.41434   8.44835   8.47755
 Alpha virt. eigenvalues --    8.53466   8.55520   8.58730   8.61994   8.66907
 Alpha virt. eigenvalues --    8.78600   8.82049   8.90895   8.91673   9.03564
 Alpha virt. eigenvalues --    9.08266   9.09160   9.14755   9.22367   9.27802
 Alpha virt. eigenvalues --    9.34871   9.39555   9.55922   9.69430   9.73361
 Alpha virt. eigenvalues --    9.75758   9.87516   9.88196   9.89642   9.96552
 Alpha virt. eigenvalues --    9.97693  10.00641  10.08829  10.11235  10.21400
 Alpha virt. eigenvalues --   10.25291  10.28491  10.52502  10.62517  10.85496
 Alpha virt. eigenvalues --   11.01711  11.25819  11.25972  11.28562  11.40058
 Alpha virt. eigenvalues --   11.66724  11.78622  11.92397  12.04562  12.12369
 Alpha virt. eigenvalues --   12.33441  12.36860  12.48093  12.59012  12.90075
 Alpha virt. eigenvalues --   12.97526  13.38252  13.77773  14.36631  14.74408
 Alpha virt. eigenvalues --   28.53290  28.90748  29.45920  48.66811 148.11473
 Alpha virt. eigenvalues --  148.46555 149.03952 254.43004
          Condensed to atoms (all electrons):
               1          2          3          4          5          6
     1  C    4.492103   0.626416   0.359178  -0.055173  -0.028148  -0.003658
     2  O    0.626416   7.886776  -0.088899   0.005916   0.006350   0.000351
     3  C    0.359178  -0.088899   5.168368   0.484076   0.365667  -0.045559
     4  C   -0.055173   0.005916   0.484076   4.875452  -0.036575   0.419498
     5  H   -0.028148   0.006350   0.365667  -0.036575   0.579346   0.005080
     6  H   -0.003658   0.000351  -0.045559   0.419498   0.005080   0.573960
     7  H    0.002733  -0.000540  -0.032283   0.410557  -0.005311  -0.042347
     8  H    0.450598  -0.085941  -0.171743   0.023532   0.008883   0.005751
               7          8
     1  C    0.002733   0.450598
     2  O   -0.000540  -0.085941
     3  C   -0.032283  -0.171743
     4  C    0.410557   0.023532
     5  H   -0.005311   0.008883
     6  H   -0.042347   0.005751
     7  H    0.567839  -0.000653
     8  H   -0.000653   0.700648
 Mulliken charges:
               1
     1  C    0.155952
     2  O   -0.350428
     3  C   -0.038805
     4  C   -0.127282
     5  H    0.104707
     6  H    0.086924
     7  H    0.100006
     8  H    0.068927
 Sum of Mulliken charges =   0.00000
 Mulliken charges with hydrogens summed into heavy atoms:
               1
     1  C    0.224878
     2  O   -0.350428
     3  C    0.065903
     4  C    0.059647
 Electronic spatial extent (au):  <R**2>=            299.5434
 Charge=              0.0000 electrons
 Dipole moment (field-independent basis, Debye):
    X=              3.5698    Y=              0.7288    Z=              0.0890  Tot=              3.6445
 Quadrupole moment (field-independent basis, Debye-Ang):
   XX=            -27.3963   YY=            -21.7300   ZZ=            -25.2847
   XY=             -0.7625   XZ=             -0.2739   YZ=             -0.1151
 Traceless Quadrupole moment (field-independent basis, Debye-Ang):
   XX=             -2.5926   YY=              3.0736   ZZ=             -0.4810
   XY=             -0.7625   XZ=             -0.2739   YZ=             -0.1151
 Octapole moment (field-independent basis, Debye-Ang**2):
  XXX=             15.5706  YYY=              0.0137  ZZZ=             -0.0560  XYY=             -0.2121
  XXY=              1.1630  XXZ=             -0.1878  XZZ=             -4.4469  YZZ=              0.2158
  YYZ=              0.1544  XYZ=             -0.0851
 Hexadecapole moment (field-independent basis, Debye-Ang**3):
 XXXX=           -303.5117 YYYY=            -55.3312 ZZZZ=            -27.5553 XXXY=             -2.3376
 XXXZ=             -1.2490 YYYX=              0.5347 YYYZ=             -0.3954 ZZZX=              0.0375
 ZZZY=             -0.0699 XXYY=            -58.3784 XXZZ=            -57.8226 YYZZ=            -15.6689
 XXYZ=             -0.1119 YYXZ=             -0.1645 ZZXY=              0.3235
 N-N= 1.030235674261D+02 E-N=-6.540328982400D+02  KE= 1.908981244940D+02
 Leave Link  601 at Wed Aug 26 09:27:59 2020, MaxMem=  2097152000 cpu:         0.5
 (Enter /opt/cluster/programs/g09/g09_d.01/g09/l9999.exe)
 1\1\GINC-NODE37\SP\RB2PLYPD3-FC\def2QZVP\C3H4O1\BOITTIER\26-Aug-2020\0
 \\#p B2PLYPD3/Def2QZVP\\acrolein\\0,1\C,0,-4.998569,-1.40087,0.872091\
 O,0,-3.93433,-0.859222,0.67721\C,0,-5.190866,-2.820536,1.137188\C,0,-6
 .414265,-3.302871,1.408035\H,0,-4.292146,-3.462614,1.041046\H,0,-7.319
 071,-2.666292,1.489913\H,0,-6.587345,-4.369442,1.634691\H,0,-5.897409,
 -0.784866,0.856354\\Version=ES64L-G09RevD.01\State=1-A\HF=-191.6144202
 \MP2=-191.861889\RMSD=2.775e-09\PG=C01 [X(C3H4O1)]\\@


 YOU KNOW YOU'VE SPOKEN TOO LONG WHEN THE AUDIENCE STOPS LOOKING AT
 THEIR WATCHES AND STARTS SHAKING THEM.
 Job cpu time:       0 days  0 hours 11 minutes 50.5 seconds.
 File lengths (MBytes):  RWF=     49 Int=      0 D2E=      0 Chk=      7 Scr=      1
 Normal termination of Gaussian 09 at Wed Aug 26 09:28:04 2020.
