 Entering Gaussian System, Link 0=/opt/cluster/programs/g09/g09_d.01/g09//g09
 Input=/home/boittier/MDCM/nms_sampling/acrolein_geom.xyz.dir/energies/acrolein_2481_energy.com
 Output=/scratch/boittier/acrolein_2481_energy/acrolein_2481_energy.out
 Initial command:
 /opt/cluster/programs/g09/g09_d.01/g09/l1.exe "/scratch/boittier/acrolein_2481_energy/Gau-203240.inp" -scrdir="/scratch/boittier/acrolein_2481_energy/"
 Entering Link 1 = /opt/cluster/programs/g09/g09_d.01/g09/l1.exe PID=    203241.
  
 Copyright (c) 1988,1990,1992,1993,1995,1998,2003,2009,2013,
            Gaussian, Inc.  All Rights Reserved.
  
 This is part of the Gaussian(R) 09 program.  It is based on
 the Gaussian(R) 03 system (copyright 2003, Gaussian, Inc.),
 the Gaussian(R) 98 system (copyright 1998, Gaussian, Inc.),
 the Gaussian(R) 94 system (copyright 1995, Gaussian, Inc.),
 the Gaussian 92(TM) system (copyright 1992, Gaussian, Inc.),
 the Gaussian 90(TM) system (copyright 1990, Gaussian, Inc.),
 the Gaussian 88(TM) system (copyright 1988, Gaussian, Inc.),
 the Gaussian 86(TM) system (copyright 1986, Carnegie Mellon
 University), and the Gaussian 82(TM) system (copyright 1983,
 Carnegie Mellon University). Gaussian is a federally registered
 trademark of Gaussian, Inc.
  
 This software contains proprietary and confidential information,
 including trade secrets, belonging to Gaussian, Inc.
  
 This software is provided under written license and may be
 used, copied, transmitted, or stored only in accord with that
 written license.
  
 The following legend is applicable only to US Government
 contracts under FAR:
  
                    RESTRICTED RIGHTS LEGEND
  
 Use, reproduction and disclosure by the US Government is
 subject to restrictions as set forth in subparagraphs (a)
 and (c) of the Commercial Computer Software - Restricted
 Rights clause in FAR 52.227-19.
  
 Gaussian, Inc.
 340 Quinnipiac St., Bldg. 40, Wallingford CT 06492
  
  
 ---------------------------------------------------------------
 Warning -- This program may not be used in any manner that
 competes with the business of Gaussian, Inc. or will provide
 assistance to any competitor of Gaussian, Inc.  The licensee
 of this program is prohibited from giving any competitor of
 Gaussian, Inc. access to this program.  By using this program,
 the user acknowledges that Gaussian, Inc. is engaged in the
 business of creating and licensing software in the field of
 computational chemistry and represents and warrants to the
 licensee that it is not a competitor of Gaussian, Inc. and that
 it will not use this program in any manner prohibited above.
 ---------------------------------------------------------------
  

 Cite this work as:
 Gaussian 09, Revision D.01,
 M. J. Frisch, G. W. Trucks, H. B. Schlegel, G. E. Scuseria, 
 M. A. Robb, J. R. Cheeseman, G. Scalmani, V. Barone, B. Mennucci, 
 G. A. Petersson, H. Nakatsuji, M. Caricato, X. Li, H. P. Hratchian, 
 A. F. Izmaylov, J. Bloino, G. Zheng, J. L. Sonnenberg, M. Hada, 
 M. Ehara, K. Toyota, R. Fukuda, J. Hasegawa, M. Ishida, T. Nakajima, 
 Y. Honda, O. Kitao, H. Nakai, T. Vreven, J. A. Montgomery, Jr., 
 J. E. Peralta, F. Ogliaro, M. Bearpark, J. J. Heyd, E. Brothers, 
 K. N. Kudin, V. N. Staroverov, T. Keith, R. Kobayashi, J. Normand, 
 K. Raghavachari, A. Rendell, J. C. Burant, S. S. Iyengar, J. Tomasi, 
 M. Cossi, N. Rega, J. M. Millam, M. Klene, J. E. Knox, J. B. Cross, 
 V. Bakken, C. Adamo, J. Jaramillo, R. Gomperts, R. E. Stratmann, 
 O. Yazyev, A. J. Austin, R. Cammi, C. Pomelli, J. W. Ochterski, 
 R. L. Martin, K. Morokuma, V. G. Zakrzewski, G. A. Voth, 
 P. Salvador, J. J. Dannenberg, S. Dapprich, A. D. Daniels, 
 O. Farkas, J. B. Foresman, J. V. Ortiz, J. Cioslowski, 
 and D. J. Fox, Gaussian, Inc., Wallingford CT, 2013.
 
 ******************************************
 Gaussian 09:  ES64L-G09RevD.01 24-Apr-2013
                26-Aug-2020 
 ******************************************
 %chk=/home/boittier/MDCM/nms_sampling/acrolein_geom.xyz.dir/acrolein_2481.chk
 %nproc=8
 Will use up to    8 processors via shared memory.
 %mem=16000MB
 --------------------
 #p B2PLYPD3/Def2QZVP
 --------------------
 1/38=1/1;
 2/12=2,17=6,18=5,40=1/2;
 3/5=45,7=101,11=9,16=1,25=1,30=1,74=-60/1,2,3;
 4//1;
 5/5=2,38=5/2;
 8/10=1/1;
 9/16=-3/6;
 6/7=2,8=2,9=2,10=2/1;
 99/5=1,9=1/99;
 Leave Link    1 at Wed Aug 26 13:57:09 2020, MaxMem=  2097152000 cpu:         0.2
 (Enter /opt/cluster/programs/g09/g09_d.01/g09/l101.exe)
 --------
 acrolein
 --------
 Symbolic Z-matrix:
 Charge =  0 Multiplicity = 1
 C                    -5.01495  -1.34825   0.83653 
 O                    -3.9278   -0.90169   0.7205 
 C                    -5.21716  -2.79978   1.09571 
 C                    -6.39009  -3.30605   1.47359 
 H                    -4.33692  -3.47051   0.89264 
 H                    -7.10472  -2.71459   1.52044 
 H                    -6.61507  -4.49701   1.52277 
 H                    -5.89726  -0.72809   0.55933 
 
 NAtoms=      8 NQM=        8 NQMF=       0 NMMI=      0 NMMIF=      0
                NMic=       0 NMicF=      0.
                    Isotopes and Nuclear Properties:
 (Nuclear quadrupole moments (NQMom) in fm**2, nuclear magnetic moments (NMagM)
  in nuclear magnetons)

  Atom         1           2           3           4           5           6           7           8
 IAtWgt=          12          16          12          12           1           1           1           1
 AtmWgt=  12.0000000  15.9949146  12.0000000  12.0000000   1.0078250   1.0078250   1.0078250   1.0078250
 NucSpn=           0           0           0           0           1           1           1           1
 AtZEff=   0.0000000   0.0000000   0.0000000   0.0000000   0.0000000   0.0000000   0.0000000   0.0000000
 NQMom=    0.0000000   0.0000000   0.0000000   0.0000000   0.0000000   0.0000000   0.0000000   0.0000000
 NMagM=    0.0000000   0.0000000   0.0000000   0.0000000   2.7928460   2.7928460   2.7928460   2.7928460
 AtZNuc=   6.0000000   8.0000000   6.0000000   6.0000000   1.0000000   1.0000000   1.0000000   1.0000000
 Leave Link  101 at Wed Aug 26 13:57:09 2020, MaxMem=  2097152000 cpu:         0.6
 (Enter /opt/cluster/programs/g09/g09_d.01/g09/l202.exe)
                          Input orientation:                          
 ---------------------------------------------------------------------
 Center     Atomic      Atomic             Coordinates (Angstroms)
 Number     Number       Type             X           Y           Z
 ---------------------------------------------------------------------
      1          6           0       -5.014951   -1.348254    0.836525
      2          8           0       -3.927801   -0.901688    0.720496
      3          6           0       -5.217162   -2.799775    1.095710
      4          6           0       -6.390094   -3.306045    1.473591
      5          1           0       -4.336915   -3.470510    0.892636
      6          1           0       -7.104716   -2.714590    1.520438
      7          1           0       -6.615068   -4.497010    1.522766
      8          1           0       -5.897260   -0.728088    0.559328
 ---------------------------------------------------------------------
                    Distance matrix (angstroms):
                    1          2          3          4          5
     1  C    0.000000
     2  O    1.181008   0.000000
     3  C    1.488281   2.325075   0.000000
     4  C    2.475847   3.522921   1.332244   0.000000
     5  H    2.228643   2.606886   1.125149   2.140117   0.000000
     6  H    2.588770   3.744237   1.936623   0.928816   2.937052
     7  H    3.598050   4.559757   2.239894   1.213025   2.576965
     8  H    1.113514   1.983653   2.245468   2.779321   3.172798
                    6          7          8
     6  H    0.000000
     7  H    1.848454   0.000000
     8  H    2.515526   3.955785   0.000000
 Stoichiometry    C3H4O
 Framework group  C1[X(C3H4O)]
 Deg. of freedom    18
 Full point group                 C1      NOp   1
 Largest Abelian subgroup         C1      NOp   1
 Largest concise Abelian subgroup C1      NOp   1
                         Standard orientation:                         
 ---------------------------------------------------------------------
 Center     Atomic      Atomic             Coordinates (Angstroms)
 Number     Number       Type             X           Y           Z
 ---------------------------------------------------------------------
      1          6           0       -0.706350    0.375501    0.041671
      2          8           0       -1.751559   -0.162992   -0.069431
      3          6           0        0.557616   -0.410226    0.042634
      4          6           0        1.756790    0.156909   -0.080708
      5          1           0        0.457377   -1.516826    0.219692
      6          1           0        1.778335    1.084789   -0.116378
      7          1           0        2.796787   -0.444144    0.088318
      8          1           0       -0.668367    1.447012    0.342227
 ---------------------------------------------------------------------
 Rotational constants (GHZ):     47.6223737      4.6962236      4.3024177
 Leave Link  202 at Wed Aug 26 13:57:09 2020, MaxMem=  2097152000 cpu:         0.0
 (Enter /opt/cluster/programs/g09/g09_d.01/g09/l301.exe)
 Standard basis: def2QZVP (5D, 7F)
 Ernie: Thresh=  0.10000D-02 Tol=  0.10000D-05 Strict=F.
 There are   428 symmetry adapted cartesian basis functions of A   symmetry.
 There are   348 symmetry adapted basis functions of A   symmetry.
   348 basis functions,   520 primitive gaussians,   428 cartesian basis functions
    15 alpha electrons       15 beta electrons
       nuclear repulsion energy       103.7759816918 Hartrees.
 IExCor=  419 DFT=T Ex+Corr=B2PLYPD3 ExCW=0 ScaHFX=  0.530000
 ScaDFX=  0.470000  0.470000  0.730000  0.730000 ScalE2=  0.270000  0.270000
 IRadAn=      0 IRanWt=     -1 IRanGd=            0 ICorTp=0 IEmpDi=141
 NAtoms=    8 NActive=    8 NUniq=    8 SFac= 1.00D+00 NAtFMM=   60 NAOKFM=F Big=F
 Integral buffers will be    131072 words long.
 Regular integral format.
 Two-electron integral symmetry is turned on.
 R6Disp:  Grimme-D3(BJ) Dispersion energy=       -0.0035747793 Hartrees.
 Nuclear repulsion after empirical dispersion term =      103.7724069125 Hartrees.
 Leave Link  301 at Wed Aug 26 13:57:10 2020, MaxMem=  2097152000 cpu:         0.5
 (Enter /opt/cluster/programs/g09/g09_d.01/g09/l302.exe)
 NPDir=0 NMtPBC=     1 NCelOv=     1 NCel=       1 NClECP=     1 NCelD=      1
         NCelK=      1 NCelE2=     1 NClLst=     1 CellRange=     0.0.
 One-electron integrals computed using PRISM.
   1 Symmetry operations used in ECPInt.
 ECPInt:  NShTT=    5886 NPrTT=   14376 LenC2=    5779 LenP2D=   12168.
 LDataN:  DoStor=T MaxTD1= 8 Len=  415
 NBasis=   348 RedAO= T EigKep=  5.77D-05  NBF=   348
 NBsUse=   348 1.00D-06 EigRej= -1.00D+00 NBFU=   348
 Precomputing XC quadrature grid using
 IXCGrd= 4 IRadAn=           0 IRanWt=          -1 IRanGd=           0 AccXCQ= 0.00D+00.
 Generated NRdTot=       0 NPtTot=           0 NUsed=           0 NTot=          32
 NSgBfM=   428   428   428   428   428 MxSgAt=     8 MxSgA2=     8.
 Leave Link  302 at Wed Aug 26 13:57:10 2020, MaxMem=  2097152000 cpu:         3.2
 (Enter /opt/cluster/programs/g09/g09_d.01/g09/l303.exe)
 DipDrv:  MaxL=1.
 Leave Link  303 at Wed Aug 26 13:57:10 2020, MaxMem=  2097152000 cpu:         0.4
 (Enter /opt/cluster/programs/g09/g09_d.01/g09/l401.exe)
 ExpMin= 7.60D-02 ExpMax= 1.17D+05 ExpMxC= 1.13D+03 IAcc=2 IRadAn=         4 AccDes= 0.00D+00
 Harris functional with IExCor=  419 and IRadAn=       4 diagonalized for initial guess.
 HarFok:  IExCor=  419 AccDes= 0.00D+00 IRadAn=         4 IDoV= 1 UseB2=F ITyADJ=14
 ICtDFT=  3500011 ScaDFX=  1.000000  1.000000  1.000000  1.000000
 FoFCou: FMM=F IPFlag=           0 FMFlag=      100000 FMFlg1=           0
         NFxFlg=           0 DoJE=T BraDBF=F KetDBF=T FulRan=T
         wScrn=  0.000000 ICntrl=     500 IOpCl=  0 I1Cent=   200000004 NGrid=           0
         NMat0=    1 NMatS0=      1 NMatT0=    0 NMatD0=    1 NMtDS0=    0 NMtDT0=    0
 Petite list used in FoFCou.
 Harris En= -192.019609978184    
 JPrj=0 DoOrth=F DoCkMO=F.
 Leave Link  401 at Wed Aug 26 13:57:11 2020, MaxMem=  2097152000 cpu:         7.0
 (Enter /opt/cluster/programs/g09/g09_d.01/g09/l502.exe)
 Closed shell SCF:
 Using DIIS extrapolation, IDIIS=  1040.
 Integral symmetry usage will be decided dynamically.
 Keep R1 ints in memory in canonical form, NReq=1883905047.
 IVT=      574566 IEndB=      574566 NGot=  2097152000 MDV=   252723534
 LenX=   252723534 LenY=   252539909
 Requested convergence on RMS density matrix=1.00D-08 within 128 cycles.
 Requested convergence on MAX density matrix=1.00D-06.
 Requested convergence on             energy=1.00D-06.
 No special actions if energy rises.
 FoFCou: FMM=F IPFlag=           0 FMFlag=           0 FMFlg1=           0
         NFxFlg=           0 DoJE=F BraDBF=F KetDBF=F FulRan=T
         wScrn=  0.000000 ICntrl=     600 IOpCl=  0 I1Cent=           0 NGrid=           0
         NMat0=    1 NMatS0=  60726 NMatT0=    0 NMatD0=    1 NMtDS0=    0 NMtDT0=    0
 Symmetry not used in FoFCou.
 Integral accuracy reduced to 1.0D-05 until final iterations.

 Cycle   1  Pass 0  IDiag  1:
 E= -191.423643560323    
 DIIS: error= 2.38D-02 at cycle   1 NSaved=   1.
 NSaved= 1 IEnMin= 1 EnMin= -191.423643560323     IErMin= 1 ErrMin= 2.38D-02
 ErrMax= 2.38D-02  0.00D+00 EMaxC= 1.00D-01 BMatC= 2.72D-01 BMatP= 2.72D-01
 IDIUse=3 WtCom= 7.62D-01 WtEn= 2.38D-01
 Coeff-Com:  0.100D+01
 Coeff-En:   0.100D+01
 Coeff:      0.100D+01
 Gap=     0.309 Goal=   None    Shift=    0.000
 GapD=    0.309 DampG=1.000 DampE=0.500 DampFc=0.5000 IDamp=-1.
 Damping current iteration by 5.00D-01
 RMSDP=1.75D-03 MaxDP=2.07D-01              OVMax= 1.69D-01

 Cycle   2  Pass 0  IDiag  1:
 E= -191.500969842115     Delta-E=       -0.077326281792 Rises=F Damp=T
 DIIS: error= 1.01D-02 at cycle   2 NSaved=   2.
 NSaved= 2 IEnMin= 2 EnMin= -191.500969842115     IErMin= 2 ErrMin= 1.01D-02
 ErrMax= 1.01D-02  0.00D+00 EMaxC= 1.00D-01 BMatC= 3.36D-02 BMatP= 2.72D-01
 IDIUse=3 WtCom= 8.99D-01 WtEn= 1.01D-01
 Coeff-Com: -0.159D+00 0.116D+01
 Coeff-En:   0.000D+00 0.100D+01
 Coeff:     -0.143D+00 0.114D+01
 Gap=     0.368 Goal=   None    Shift=    0.000
 RMSDP=5.50D-04 MaxDP=6.63D-02 DE=-7.73D-02 OVMax= 1.08D-01

 Cycle   3  Pass 0  IDiag  1:
 E= -191.569936692961     Delta-E=       -0.068966850846 Rises=F Damp=F
 DIIS: error= 7.86D-03 at cycle   3 NSaved=   3.
 NSaved= 3 IEnMin= 3 EnMin= -191.569936692961     IErMin= 3 ErrMin= 7.86D-03
 ErrMax= 7.86D-03  0.00D+00 EMaxC= 1.00D-01 BMatC= 1.42D-02 BMatP= 3.36D-02
 IDIUse=3 WtCom= 9.21D-01 WtEn= 7.86D-02
 Coeff-Com: -0.176D+00 0.487D+00 0.689D+00
 Coeff-En:   0.000D+00 0.000D+00 0.100D+01
 Coeff:     -0.162D+00 0.449D+00 0.713D+00
 Gap=     0.338 Goal=   None    Shift=    0.000
 RMSDP=2.08D-04 MaxDP=1.41D-02 DE=-6.90D-02 OVMax= 3.52D-02

 Cycle   4  Pass 0  IDiag  1:
 E= -191.577503907614     Delta-E=       -0.007567214654 Rises=F Damp=F
 DIIS: error= 2.83D-03 at cycle   4 NSaved=   4.
 NSaved= 4 IEnMin= 4 EnMin= -191.577503907614     IErMin= 4 ErrMin= 2.83D-03
 ErrMax= 2.83D-03  0.00D+00 EMaxC= 1.00D-01 BMatC= 2.65D-03 BMatP= 1.42D-02
 IDIUse=3 WtCom= 9.72D-01 WtEn= 2.83D-02
 Coeff-Com: -0.578D-01 0.954D-01 0.368D+00 0.594D+00
 Coeff-En:   0.000D+00 0.000D+00 0.165D+00 0.835D+00
 Coeff:     -0.561D-01 0.927D-01 0.362D+00 0.601D+00
 Gap=     0.327 Goal=   None    Shift=    0.000
 RMSDP=8.60D-05 MaxDP=6.40D-03 DE=-7.57D-03 OVMax= 1.27D-02

 Cycle   5  Pass 0  IDiag  1:
 E= -191.579653739271     Delta-E=       -0.002149831657 Rises=F Damp=F
 DIIS: error= 2.18D-04 at cycle   5 NSaved=   5.
 NSaved= 5 IEnMin= 5 EnMin= -191.579653739271     IErMin= 5 ErrMin= 2.18D-04
 ErrMax= 2.18D-04  0.00D+00 EMaxC= 1.00D-01 BMatC= 1.21D-05 BMatP= 2.65D-03
 IDIUse=3 WtCom= 9.98D-01 WtEn= 2.18D-03
 Coeff-Com: -0.103D-01 0.138D-01 0.745D-01 0.149D+00 0.773D+00
 Coeff-En:   0.000D+00 0.000D+00 0.000D+00 0.000D+00 0.100D+01
 Coeff:     -0.103D-01 0.137D-01 0.743D-01 0.148D+00 0.774D+00
 Gap=     0.325 Goal=   None    Shift=    0.000
 RMSDP=7.31D-06 MaxDP=3.05D-04 DE=-2.15D-03 OVMax= 2.30D-03

 Initial convergence to 1.0D-05 achieved.  Increase integral accuracy.
 Cycle   6  Pass 1  IDiag  1:
 E= -191.579659721739     Delta-E=       -0.000005982469 Rises=F Damp=F
 DIIS: error= 8.14D-05 at cycle   1 NSaved=   1.
 NSaved= 1 IEnMin= 1 EnMin= -191.579659721739     IErMin= 1 ErrMin= 8.14D-05
 ErrMax= 8.14D-05  0.00D+00 EMaxC= 1.00D-01 BMatC= 2.44D-06 BMatP= 2.44D-06
 IDIUse=1 WtCom= 1.00D+00 WtEn= 0.00D+00
 Coeff-Com:  0.100D+01
 Coeff:      0.100D+01
 Gap=     0.326 Goal=   None    Shift=    0.000
 RMSDP=7.31D-06 MaxDP=3.05D-04 DE=-5.98D-06 OVMax= 1.24D-03

 Cycle   7  Pass 1  IDiag  1:
 E= -191.579660143324     Delta-E=       -0.000000421585 Rises=F Damp=F
 DIIS: error= 9.91D-05 at cycle   2 NSaved=   2.
 NSaved= 2 IEnMin= 2 EnMin= -191.579660143324     IErMin= 1 ErrMin= 8.14D-05
 ErrMax= 9.91D-05  0.00D+00 EMaxC= 1.00D-01 BMatC= 2.49D-06 BMatP= 2.44D-06
 IDIUse=1 WtCom= 1.00D+00 WtEn= 0.00D+00
 Coeff-Com:  0.503D+00 0.497D+00
 Coeff:      0.503D+00 0.497D+00
 Gap=     0.326 Goal=   None    Shift=    0.000
 RMSDP=2.83D-06 MaxDP=2.55D-04 DE=-4.22D-07 OVMax= 8.42D-04

 Cycle   8  Pass 1  IDiag  1:
 E= -191.579662552903     Delta-E=       -0.000002409579 Rises=F Damp=F
 DIIS: error= 1.70D-05 at cycle   3 NSaved=   3.
 NSaved= 3 IEnMin= 3 EnMin= -191.579662552903     IErMin= 3 ErrMin= 1.70D-05
 ErrMax= 1.70D-05  0.00D+00 EMaxC= 1.00D-01 BMatC= 5.49D-08 BMatP= 2.44D-06
 IDIUse=1 WtCom= 1.00D+00 WtEn= 0.00D+00
 Coeff-Com:  0.414D-01 0.107D+00 0.851D+00
 Coeff:      0.414D-01 0.107D+00 0.851D+00
 Gap=     0.326 Goal=   None    Shift=    0.000
 RMSDP=1.21D-06 MaxDP=1.29D-04 DE=-2.41D-06 OVMax= 1.11D-04

 Cycle   9  Pass 1  IDiag  1:
 E= -191.579662620780     Delta-E=       -0.000000067877 Rises=F Damp=F
 DIIS: error= 7.59D-06 at cycle   4 NSaved=   4.
 NSaved= 4 IEnMin= 4 EnMin= -191.579662620780     IErMin= 4 ErrMin= 7.59D-06
 ErrMax= 7.59D-06  0.00D+00 EMaxC= 1.00D-01 BMatC= 1.07D-08 BMatP= 5.49D-08
 IDIUse=1 WtCom= 1.00D+00 WtEn= 0.00D+00
 Coeff-Com: -0.943D-01-0.633D-01 0.305D+00 0.853D+00
 Coeff:     -0.943D-01-0.633D-01 0.305D+00 0.853D+00
 Gap=     0.326 Goal=   None    Shift=    0.000
 RMSDP=6.17D-07 MaxDP=6.32D-05 DE=-6.79D-08 OVMax= 7.26D-05

 Cycle  10  Pass 1  IDiag  1:
 E= -191.579662637895     Delta-E=       -0.000000017116 Rises=F Damp=F
 DIIS: error= 3.34D-06 at cycle   5 NSaved=   5.
 NSaved= 5 IEnMin= 5 EnMin= -191.579662637895     IErMin= 5 ErrMin= 3.34D-06
 ErrMax= 3.34D-06  0.00D+00 EMaxC= 1.00D-01 BMatC= 2.43D-09 BMatP= 1.07D-08
 IDIUse=1 WtCom= 1.00D+00 WtEn= 0.00D+00
 Coeff-Com: -0.537D-01-0.410D-01 0.892D-01 0.459D+00 0.546D+00
 Coeff:     -0.537D-01-0.410D-01 0.892D-01 0.459D+00 0.546D+00
 Gap=     0.326 Goal=   None    Shift=    0.000
 RMSDP=1.60D-07 MaxDP=1.74D-05 DE=-1.71D-08 OVMax= 1.56D-05

 Cycle  11  Pass 1  IDiag  1:
 E= -191.579662639643     Delta-E=       -0.000000001748 Rises=F Damp=F
 DIIS: error= 7.41D-07 at cycle   6 NSaved=   6.
 NSaved= 6 IEnMin= 6 EnMin= -191.579662639643     IErMin= 6 ErrMin= 7.41D-07
 ErrMax= 7.41D-07  0.00D+00 EMaxC= 1.00D-01 BMatC= 1.14D-10 BMatP= 2.43D-09
 IDIUse=1 WtCom= 1.00D+00 WtEn= 0.00D+00
 Coeff-Com:  0.687D-02 0.418D-02-0.522D-01-0.287D-01 0.119D+00 0.951D+00
 Coeff:      0.687D-02 0.418D-02-0.522D-01-0.287D-01 0.119D+00 0.951D+00
 Gap=     0.326 Goal=   None    Shift=    0.000
 RMSDP=4.85D-08 MaxDP=3.87D-06 DE=-1.75D-09 OVMax= 6.09D-06

 Cycle  12  Pass 1  IDiag  1:
 E= -191.579662639818     Delta-E=       -0.000000000175 Rises=F Damp=F
 DIIS: error= 1.69D-07 at cycle   7 NSaved=   7.
 NSaved= 7 IEnMin= 7 EnMin= -191.579662639818     IErMin= 7 ErrMin= 1.69D-07
 ErrMax= 1.69D-07  0.00D+00 EMaxC= 1.00D-01 BMatC= 1.15D-11 BMatP= 1.14D-10
 IDIUse=1 WtCom= 1.00D+00 WtEn= 0.00D+00
 Coeff-Com:  0.503D-02 0.373D-02-0.230D-01-0.303D-01-0.315D-02 0.300D+00
 Coeff-Com:  0.748D+00
 Coeff:      0.503D-02 0.373D-02-0.230D-01-0.303D-01-0.315D-02 0.300D+00
 Coeff:      0.748D+00
 Gap=     0.326 Goal=   None    Shift=    0.000
 RMSDP=1.01D-08 MaxDP=4.30D-07 DE=-1.75D-10 OVMax= 1.88D-06

 Cycle  13  Pass 1  IDiag  1:
 E= -191.579662639832     Delta-E=       -0.000000000014 Rises=F Damp=F
 DIIS: error= 4.32D-08 at cycle   8 NSaved=   8.
 NSaved= 8 IEnMin= 8 EnMin= -191.579662639832     IErMin= 8 ErrMin= 4.32D-08
 ErrMax= 4.32D-08  0.00D+00 EMaxC= 1.00D-01 BMatC= 8.61D-13 BMatP= 1.15D-11
 IDIUse=1 WtCom= 1.00D+00 WtEn= 0.00D+00
 Coeff-Com: -0.484D-03-0.106D-03 0.447D-02 0.292D-02-0.159D-01-0.105D+00
 Coeff-Com:  0.722D-01 0.104D+01
 Coeff:     -0.484D-03-0.106D-03 0.447D-02 0.292D-02-0.159D-01-0.105D+00
 Coeff:      0.722D-01 0.104D+01
 Gap=     0.326 Goal=   None    Shift=    0.000
 RMSDP=4.38D-09 MaxDP=1.76D-07 DE=-1.37D-11 OVMax= 1.48D-06

 SCF Done:  E(RB2PLYPD3) =  -191.579662640     A.U. after   13 cycles
            NFock= 13  Conv=0.44D-08     -V/T= 2.0023
 KE= 1.911346937121D+02 PE=-6.556425823806D+02 EE= 1.691558191162D+02
 Leave Link  502 at Wed Aug 26 13:58:39 2020, MaxMem=  2097152000 cpu:       400.4
 (Enter /opt/cluster/programs/g09/g09_d.01/g09/l801.exe)
 DoSCS=T DFT=T ScalE2(SS,OS)=  0.270000  0.270000
 ExpMin= 7.60D-02 ExpMax= 1.17D+05 ExpMxC= 1.13D+03 IAcc=3 IRadAn=         5 AccDes= 0.00D+00
 HarFok:  IExCor=  205 AccDes= 0.00D+00 IRadAn=         5 IDoV=-2 UseB2=F ITyADJ=14
 ICtDFT= 12500011 ScaDFX=  1.000000  1.000000  1.000000  1.000000
 Largest valence mixing into a core orbital is  1.14D-04
 Largest core mixing into a valence orbital is  1.85D-05
 Range of M.O.s used for correlation:     5   348
 NBasis=   348 NAE=    15 NBE=    15 NFC=     4 NFV=     0
 NROrb=    344 NOA=    11 NOB=    11 NVA=   333 NVB=   333

 **** Warning!!: The largest alpha MO coefficient is  0.27540945D+02

 Leave Link  801 at Wed Aug 26 13:58:40 2020, MaxMem=  2097152000 cpu:         1.0
 (Enter /opt/cluster/programs/g09/g09_d.01/g09/l906.exe)
 DoSCS=T DFT=T ScalE2(SS,OS)=  0.270000  0.270000
 FulOut=F Deriv=F AODrv=F NAtomX=     8
   MMem=        1190  MDisk=          11 MDiskD=          11
  W3Min=     1567764 MinDsk=     2827057 NBas6D=         428
 NBas2D=       93150    NTT=       91806    LW2=     4508827
    MDV=  2096571684 MDiskM=       10875 NBas2p=       89256
 Fully direct method using O(OVN) memory.
 IMap=   1   2   3   4   5   6   7   8   9  10  11
 JobTyp=1 Pass  1:  I=   1 to  11 NPSUse=  8 ParTrn=T ParDer=T DoDerP=F.
 Spin components of T(2) and E(2):
     alpha-alpha T2 =       0.4289540412D-01 E2=     -0.2925830619D-01
     alpha-beta  T2 =       0.2641337073D+00 E2=     -0.1876224223D+00
     beta-beta   T2 =       0.4289540412D-01 E2=     -0.2925830619D-01
 The integrals were generated   1 times.
 E2(B2PLYPD3) =    -0.2461390347D+00 E(B2PLYPD3) =    -0.19182580167455D+03
 Leave Link  906 at Wed Aug 26 13:59:30 2020, MaxMem=  2097152000 cpu:       399.9
 (Enter /opt/cluster/programs/g09/g09_d.01/g09/l601.exe)
 Copying SCF densities to generalized density rwf, IOpCl= 0 IROHF=0.

 **********************************************************************

            Population analysis using the SCF density.

 **********************************************************************

 Orbital symmetries:
       Occupied  (A) (A) (A) (A) (A) (A) (A) (A) (A) (A) (A) (A)
                 (A) (A) (A)
       Virtual   (A) (A) (A) (A) (A) (A) (A) (A) (A) (A) (A) (A)
                 (A) (A) (A) (A) (A) (A) (A) (A) (A) (A) (A) (A)
                 (A) (A) (A) (A) (A) (A) (A) (A) (A) (A) (A) (A)
                 (A) (A) (A) (A) (A) (A) (A) (A) (A) (A) (A) (A)
                 (A) (A) (A) (A) (A) (A) (A) (A) (A) (A) (A) (A)
                 (A) (A) (A) (A) (A) (A) (A) (A) (A) (A) (A) (A)
                 (A) (A) (A) (A) (A) (A) (A) (A) (A) (A) (A) (A)
                 (A) (A) (A) (A) (A) (A) (A) (A) (A) (A) (A) (A)
                 (A) (A) (A) (A) (A) (A) (A) (A) (A) (A) (A) (A)
                 (A) (A) (A) (A) (A) (A) (A) (A) (A) (A) (A) (A)
                 (A) (A) (A) (A) (A) (A) (A) (A) (A) (A) (A) (A)
                 (A) (A) (A) (A) (A) (A) (A) (A) (A) (A) (A) (A)
                 (A) (A) (A) (A) (A) (A) (A) (A) (A) (A) (A) (A)
                 (A) (A) (A) (A) (A) (A) (A) (A) (A) (A) (A) (A)
                 (A) (A) (A) (A) (A) (A) (A) (A) (A) (A) (A) (A)
                 (A) (A) (A) (A) (A) (A) (A) (A) (A) (A) (A) (A)
                 (A) (A) (A) (A) (A) (A) (A) (A) (A) (A) (A) (A)
                 (A) (A) (A) (A) (A) (A) (A) (A) (A) (A) (A) (A)
                 (A) (A) (A) (A) (A) (A) (A) (A) (A) (A) (A) (A)
                 (A) (A) (A) (A) (A) (A) (A) (A) (A) (A) (A) (A)
                 (A) (A) (A) (A) (A) (A) (A) (A) (A) (A) (A) (A)
                 (A) (A) (A) (A) (A) (A) (A) (A) (A) (A) (A) (A)
                 (A) (A) (A) (A) (A) (A) (A) (A) (A) (A) (A) (A)
                 (A) (A) (A) (A) (A) (A) (A) (A) (A) (A) (A) (A)
                 (A) (A) (A) (A) (A) (A) (A) (A) (A) (A) (A) (A)
                 (A) (A) (A) (A) (A) (A) (A) (A) (A) (A) (A) (A)
                 (A) (A) (A) (A) (A) (A) (A) (A) (A) (A) (A) (A)
                 (A) (A) (A) (A) (A) (A) (A) (A) (A)
 The electronic state is 1-A.
 Alpha  occ. eigenvalues --  -19.72961 -10.71609 -10.64585 -10.64321  -1.21685
 Alpha  occ. eigenvalues --   -0.92656  -0.74963  -0.67199  -0.58178  -0.55304
 Alpha  occ. eigenvalues --   -0.50808  -0.47510  -0.45992  -0.34494  -0.33789
 Alpha virt. eigenvalues --   -0.01191   0.05714   0.06652   0.08197   0.09790
 Alpha virt. eigenvalues --    0.12271   0.14219   0.15382   0.17454   0.19078
 Alpha virt. eigenvalues --    0.20297   0.21541   0.25176   0.26894   0.28833
 Alpha virt. eigenvalues --    0.29873   0.32181   0.33953   0.36362   0.37323
 Alpha virt. eigenvalues --    0.39090   0.40243   0.42394   0.43491   0.46499
 Alpha virt. eigenvalues --    0.49204   0.51160   0.53399   0.54164   0.58454
 Alpha virt. eigenvalues --    0.62894   0.64201   0.65956   0.68324   0.70911
 Alpha virt. eigenvalues --    0.74119   0.76274   0.77820   0.78906   0.80606
 Alpha virt. eigenvalues --    0.81372   0.82021   0.84217   0.84763   0.87159
 Alpha virt. eigenvalues --    0.89301   0.90448   0.93452   0.93697   0.95588
 Alpha virt. eigenvalues --    0.96455   0.98513   1.01054   1.02918   1.04223
 Alpha virt. eigenvalues --    1.08005   1.09195   1.11147   1.15608   1.20113
 Alpha virt. eigenvalues --    1.23605   1.25066   1.29118   1.32191   1.39343
 Alpha virt. eigenvalues --    1.43145   1.47441   1.48275   1.52741   1.55279
 Alpha virt. eigenvalues --    1.56075   1.57734   1.63217   1.67913   1.68847
 Alpha virt. eigenvalues --    1.72134   1.78430   1.80605   1.82152   1.86283
 Alpha virt. eigenvalues --    1.87603   1.89284   1.92250   1.93209   1.93917
 Alpha virt. eigenvalues --    1.96236   1.98439   1.99126   2.01531   2.04262
 Alpha virt. eigenvalues --    2.07647   2.08381   2.11630   2.12382   2.15902
 Alpha virt. eigenvalues --    2.17271   2.19310   2.20953   2.24145   2.26413
 Alpha virt. eigenvalues --    2.30954   2.34473   2.35858   2.37761   2.39970
 Alpha virt. eigenvalues --    2.42621   2.43847   2.47062   2.52176   2.52357
 Alpha virt. eigenvalues --    2.53869   2.58931   2.59693   2.62069   2.62904
 Alpha virt. eigenvalues --    2.64725   2.66692   2.67488   2.69598   2.71451
 Alpha virt. eigenvalues --    2.75598   2.76987   2.80924   2.85882   2.88567
 Alpha virt. eigenvalues --    2.90459   2.92531   2.95920   3.02475   3.09080
 Alpha virt. eigenvalues --    3.13818   3.13943   3.23521   3.27781   3.28980
 Alpha virt. eigenvalues --    3.33484   3.35188   3.36784   3.41975   3.50370
 Alpha virt. eigenvalues --    3.51700   3.55496   3.57813   3.61153   3.63515
 Alpha virt. eigenvalues --    3.66997   3.73820   3.82704   3.85037   3.92569
 Alpha virt. eigenvalues --    3.95344   3.98508   4.00168   4.03439   4.07181
 Alpha virt. eigenvalues --    4.12192   4.14928   4.20930   4.29392   4.31572
 Alpha virt. eigenvalues --    4.36296   4.43026   4.52521   4.59928   4.62559
 Alpha virt. eigenvalues --    4.67778   4.77403   4.88836   4.94466   4.99016
 Alpha virt. eigenvalues --    5.02979   5.05937   5.09945   5.13534   5.16383
 Alpha virt. eigenvalues --    5.19630   5.26038   5.30711   5.34905   5.39759
 Alpha virt. eigenvalues --    5.47542   5.53262   5.54312   5.57120   5.59966
 Alpha virt. eigenvalues --    5.60699   5.64445   5.68433   5.70356   5.77629
 Alpha virt. eigenvalues --    5.79999   5.81795   5.86180   5.86477   5.93251
 Alpha virt. eigenvalues --    5.95722   5.96393   6.00060   6.02824   6.04678
 Alpha virt. eigenvalues --    6.07185   6.10032   6.15594   6.16744   6.19726
 Alpha virt. eigenvalues --    6.21261   6.22947   6.23379   6.26373   6.30460
 Alpha virt. eigenvalues --    6.31754   6.35377   6.35814   6.36789   6.44460
 Alpha virt. eigenvalues --    6.46193   6.52259   6.53844   6.54998   6.58766
 Alpha virt. eigenvalues --    6.62259   6.68056   6.72255   6.78732   6.81172
 Alpha virt. eigenvalues --    6.84049   6.85080   6.89312   6.93051   6.99751
 Alpha virt. eigenvalues --    7.02382   7.07932   7.14324   7.15771   7.23489
 Alpha virt. eigenvalues --    7.32363   7.36286   7.40090   7.47229   7.50906
 Alpha virt. eigenvalues --    7.52657   7.59429   7.62662   7.64007   7.66396
 Alpha virt. eigenvalues --    7.67891   7.70910   7.75367   7.78420   7.82517
 Alpha virt. eigenvalues --    7.84642   7.87899   7.90921   7.93457   7.96626
 Alpha virt. eigenvalues --    7.99737   8.01777   8.07485   8.12483   8.21401
 Alpha virt. eigenvalues --    8.22491   8.22688   8.27530   8.29516   8.31167
 Alpha virt. eigenvalues --    8.33845   8.37427   8.38044   8.46313   8.57605
 Alpha virt. eigenvalues --    8.61865   8.64299   8.70304   8.75701   8.82319
 Alpha virt. eigenvalues --    8.85504   8.95457   9.01481   9.04131   9.06608
 Alpha virt. eigenvalues --    9.09183   9.12727   9.15209   9.24233   9.25775
 Alpha virt. eigenvalues --    9.31666   9.36806   9.39290   9.55919   9.61592
 Alpha virt. eigenvalues --    9.71530   9.76712   9.82472   9.86443   9.91510
 Alpha virt. eigenvalues --    9.94574   9.98880  10.23346  10.35748  10.40782
 Alpha virt. eigenvalues --   10.53942  10.57364  10.80297  10.85744  10.98543
 Alpha virt. eigenvalues --   11.07764  11.21079  11.26202  11.29728  11.37976
 Alpha virt. eigenvalues --   11.69245  11.76064  11.80713  12.03060  12.05563
 Alpha virt. eigenvalues --   12.15239  12.33637  12.40136  12.41185  12.59583
 Alpha virt. eigenvalues --   12.69301  13.51102  13.85850  14.30630  14.89187
 Alpha virt. eigenvalues --   28.63286  28.89410  29.41849  48.67795 148.24531
 Alpha virt. eigenvalues --  148.45957 149.05302 254.44423
          Condensed to atoms (all electrons):
               1          2          3          4          5          6
     1  C    4.520878   0.611209   0.359534  -0.047740  -0.033751  -0.004027
     2  O    0.611209   7.870823  -0.090933   0.008220   0.002280   0.000177
     3  C    0.359534  -0.090933   5.185304   0.460518   0.380210  -0.069032
     4  C   -0.047740   0.008220   0.460518   4.890537  -0.036666   0.438794
     5  H   -0.033751   0.002280   0.380210  -0.036666   0.579575   0.006738
     6  H   -0.004027   0.000177  -0.069032   0.438794   0.006738   0.561650
     7  H    0.002347  -0.000498  -0.021662   0.406548  -0.006784  -0.037775
     8  H    0.445637  -0.080250  -0.157496   0.027300   0.005573   0.006206
               7          8
     1  C    0.002347   0.445637
     2  O   -0.000498  -0.080250
     3  C   -0.021662  -0.157496
     4  C    0.406548   0.027300
     5  H   -0.006784   0.005573
     6  H   -0.037775   0.006206
     7  H    0.567557  -0.001082
     8  H   -0.001082   0.676483
 Mulliken charges:
               1
     1  C    0.145911
     2  O   -0.321028
     3  C   -0.046444
     4  C   -0.147511
     5  H    0.102825
     6  H    0.097269
     7  H    0.091349
     8  H    0.077629
 Sum of Mulliken charges =   0.00000
 Mulliken charges with hydrogens summed into heavy atoms:
               1
     1  C    0.223540
     2  O   -0.321028
     3  C    0.056381
     4  C    0.041107
 Electronic spatial extent (au):  <R**2>=            297.3852
 Charge=              0.0000 electrons
 Dipole moment (field-independent basis, Debye):
    X=              2.9790    Y=              0.9378    Z=              0.4669  Tot=              3.1578
 Quadrupole moment (field-independent basis, Debye-Ang):
   XX=            -27.1666   YY=            -21.9064   ZZ=            -25.1121
   XY=             -1.3320   XZ=             -0.2050   YZ=             -0.3515
 Traceless Quadrupole moment (field-independent basis, Debye-Ang):
   XX=             -2.4382   YY=              2.8220   ZZ=             -0.3838
   XY=             -1.3320   XZ=             -0.2050   YZ=             -0.3515
 Octapole moment (field-independent basis, Debye-Ang**2):
  XXX=             13.1725  YYY=              0.1580  ZZZ=              0.1010  XYY=             -0.9975
  XXY=              0.7940  XXZ=              1.3287  XZZ=             -4.6907  YZZ=              0.4392
  YYZ=              0.8879  XYZ=             -0.5033
 Hexadecapole moment (field-independent basis, Debye-Ang**3):
 XXXX=           -300.4016 YYYY=            -55.0231 ZZZZ=            -28.7348 XXXY=             -4.4380
 XXXZ=              2.0620 YYYX=              0.3707 YYYZ=             -0.6476 ZZZX=              0.5653
 ZZZY=             -0.3036 XXYY=            -58.4036 XXZZ=            -57.8898 YYZZ=            -15.1228
 XXYZ=             -1.0391 YYXZ=              0.0168 ZZXY=              0.7393
 N-N= 1.037724069125D+02 E-N=-6.556425891575D+02  KE= 1.911346937121D+02
 Leave Link  601 at Wed Aug 26 13:59:30 2020, MaxMem=  2097152000 cpu:         0.5
 (Enter /opt/cluster/programs/g09/g09_d.01/g09/l9999.exe)
 1\1\GINC-NODE34\SP\RB2PLYPD3-FC\def2QZVP\C3H4O1\BOITTIER\26-Aug-2020\0
 \\#p B2PLYPD3/Def2QZVP\\acrolein\\0,1\C,0,-5.014951,-1.348254,0.836525
 \O,0,-3.927801,-0.901688,0.720496\C,0,-5.217162,-2.799775,1.09571\C,0,
 -6.390094,-3.306045,1.473591\H,0,-4.336915,-3.47051,0.892636\H,0,-7.10
 4716,-2.71459,1.520438\H,0,-6.615068,-4.49701,1.522766\H,0,-5.89726,-0
 .728088,0.559328\\Version=ES64L-G09RevD.01\State=1-A\HF=-191.5796626\M
 P2=-191.8258017\RMSD=4.380e-09\PG=C01 [X(C3H4O1)]\\@


 The cat could very well be man's best friend
 but would never stoop to admitting it.
                               -- Doug Larson
 Job cpu time:       0 days  0 hours 13 minutes 34.5 seconds.
 File lengths (MBytes):  RWF=     49 Int=      0 D2E=      0 Chk=      7 Scr=      1
 Normal termination of Gaussian 09 at Wed Aug 26 13:59:32 2020.
