 Entering Gaussian System, Link 0=/opt/cluster/programs/g09/g09_d.01/g09//g09
 Input=/home/boittier/MDCM/nms_sampling/acrolein_geom.xyz.dir/energies/acrolein_360_energy.com
 Output=/scratch/boittier/acrolein_360_energy/acrolein_360_energy.out
 Initial command:
 /opt/cluster/programs/g09/g09_d.01/g09/l1.exe "/scratch/boittier/acrolein_360_energy/Gau-111928.inp" -scrdir="/scratch/boittier/acrolein_360_energy/"
 Entering Link 1 = /opt/cluster/programs/g09/g09_d.01/g09/l1.exe PID=    111929.
  
 Copyright (c) 1988,1990,1992,1993,1995,1998,2003,2009,2013,
            Gaussian, Inc.  All Rights Reserved.
  
 This is part of the Gaussian(R) 09 program.  It is based on
 the Gaussian(R) 03 system (copyright 2003, Gaussian, Inc.),
 the Gaussian(R) 98 system (copyright 1998, Gaussian, Inc.),
 the Gaussian(R) 94 system (copyright 1995, Gaussian, Inc.),
 the Gaussian 92(TM) system (copyright 1992, Gaussian, Inc.),
 the Gaussian 90(TM) system (copyright 1990, Gaussian, Inc.),
 the Gaussian 88(TM) system (copyright 1988, Gaussian, Inc.),
 the Gaussian 86(TM) system (copyright 1986, Carnegie Mellon
 University), and the Gaussian 82(TM) system (copyright 1983,
 Carnegie Mellon University). Gaussian is a federally registered
 trademark of Gaussian, Inc.
  
 This software contains proprietary and confidential information,
 including trade secrets, belonging to Gaussian, Inc.
  
 This software is provided under written license and may be
 used, copied, transmitted, or stored only in accord with that
 written license.
  
 The following legend is applicable only to US Government
 contracts under FAR:
  
                    RESTRICTED RIGHTS LEGEND
  
 Use, reproduction and disclosure by the US Government is
 subject to restrictions as set forth in subparagraphs (a)
 and (c) of the Commercial Computer Software - Restricted
 Rights clause in FAR 52.227-19.
  
 Gaussian, Inc.
 340 Quinnipiac St., Bldg. 40, Wallingford CT 06492
  
  
 ---------------------------------------------------------------
 Warning -- This program may not be used in any manner that
 competes with the business of Gaussian, Inc. or will provide
 assistance to any competitor of Gaussian, Inc.  The licensee
 of this program is prohibited from giving any competitor of
 Gaussian, Inc. access to this program.  By using this program,
 the user acknowledges that Gaussian, Inc. is engaged in the
 business of creating and licensing software in the field of
 computational chemistry and represents and warrants to the
 licensee that it is not a competitor of Gaussian, Inc. and that
 it will not use this program in any manner prohibited above.
 ---------------------------------------------------------------
  

 Cite this work as:
 Gaussian 09, Revision D.01,
 M. J. Frisch, G. W. Trucks, H. B. Schlegel, G. E. Scuseria, 
 M. A. Robb, J. R. Cheeseman, G. Scalmani, V. Barone, B. Mennucci, 
 G. A. Petersson, H. Nakatsuji, M. Caricato, X. Li, H. P. Hratchian, 
 A. F. Izmaylov, J. Bloino, G. Zheng, J. L. Sonnenberg, M. Hada, 
 M. Ehara, K. Toyota, R. Fukuda, J. Hasegawa, M. Ishida, T. Nakajima, 
 Y. Honda, O. Kitao, H. Nakai, T. Vreven, J. A. Montgomery, Jr., 
 J. E. Peralta, F. Ogliaro, M. Bearpark, J. J. Heyd, E. Brothers, 
 K. N. Kudin, V. N. Staroverov, T. Keith, R. Kobayashi, J. Normand, 
 K. Raghavachari, A. Rendell, J. C. Burant, S. S. Iyengar, J. Tomasi, 
 M. Cossi, N. Rega, J. M. Millam, M. Klene, J. E. Knox, J. B. Cross, 
 V. Bakken, C. Adamo, J. Jaramillo, R. Gomperts, R. E. Stratmann, 
 O. Yazyev, A. J. Austin, R. Cammi, C. Pomelli, J. W. Ochterski, 
 R. L. Martin, K. Morokuma, V. G. Zakrzewski, G. A. Voth, 
 P. Salvador, J. J. Dannenberg, S. Dapprich, A. D. Daniels, 
 O. Farkas, J. B. Foresman, J. V. Ortiz, J. Cioslowski, 
 and D. J. Fox, Gaussian, Inc., Wallingford CT, 2013.
 
 ******************************************
 Gaussian 09:  ES64L-G09RevD.01 24-Apr-2013
                26-Aug-2020 
 ******************************************
 %chk=/home/boittier/MDCM/nms_sampling/acrolein_geom.xyz.dir/acrolein_360.chk
 %nproc=8
 Will use up to    8 processors via shared memory.
 %mem=16000MB
 --------------------
 #p B2PLYPD3/Def2QZVP
 --------------------
 1/38=1/1;
 2/12=2,17=6,18=5,40=1/2;
 3/5=45,7=101,11=9,16=1,25=1,30=1,74=-60/1,2,3;
 4//1;
 5/5=2,38=5/2;
 8/10=1/1;
 9/16=-3/6;
 6/7=2,8=2,9=2,10=2/1;
 99/5=1,9=1/99;
 Leave Link    1 at Wed Aug 26 15:27:44 2020, MaxMem=  2097152000 cpu:         0.2
 (Enter /opt/cluster/programs/g09/g09_d.01/g09/l101.exe)
 --------
 acrolein
 --------
 Symbolic Z-matrix:
 Charge =  0 Multiplicity = 1
 C                    -5.01452  -1.37864   0.88485 
 O                    -3.94156  -0.87617   0.66424 
 C                    -5.18874  -2.80208   1.14842 
 C                    -6.39217  -3.32266   1.40892 
 H                    -4.31613  -3.42775   1.06316 
 H                    -7.26539  -2.67137   1.43541 
 H                    -6.57087  -4.36842   1.54522 
 H                    -5.90909  -0.78713   0.88724 
 
 NAtoms=      8 NQM=        8 NQMF=       0 NMMI=      0 NMMIF=      0
                NMic=       0 NMicF=      0.
                    Isotopes and Nuclear Properties:
 (Nuclear quadrupole moments (NQMom) in fm**2, nuclear magnetic moments (NMagM)
  in nuclear magnetons)

  Atom         1           2           3           4           5           6           7           8
 IAtWgt=          12          16          12          12           1           1           1           1
 AtmWgt=  12.0000000  15.9949146  12.0000000  12.0000000   1.0078250   1.0078250   1.0078250   1.0078250
 NucSpn=           0           0           0           0           1           1           1           1
 AtZEff=   0.0000000   0.0000000   0.0000000   0.0000000   0.0000000   0.0000000   0.0000000   0.0000000
 NQMom=    0.0000000   0.0000000   0.0000000   0.0000000   0.0000000   0.0000000   0.0000000   0.0000000
 NMagM=    0.0000000   0.0000000   0.0000000   0.0000000   2.7928460   2.7928460   2.7928460   2.7928460
 AtZNuc=   6.0000000   8.0000000   6.0000000   6.0000000   1.0000000   1.0000000   1.0000000   1.0000000
 Leave Link  101 at Wed Aug 26 15:27:44 2020, MaxMem=  2097152000 cpu:         0.5
 (Enter /opt/cluster/programs/g09/g09_d.01/g09/l202.exe)
                          Input orientation:                          
 ---------------------------------------------------------------------
 Center     Atomic      Atomic             Coordinates (Angstroms)
 Number     Number       Type             X           Y           Z
 ---------------------------------------------------------------------
      1          6           0       -5.014515   -1.378644    0.884851
      2          8           0       -3.941560   -0.876170    0.664243
      3          6           0       -5.188742   -2.802078    1.148420
      4          6           0       -6.392173   -3.322663    1.408920
      5          1           0       -4.316132   -3.427745    1.063156
      6          1           0       -7.265391   -2.671372    1.435408
      7          1           0       -6.570873   -4.368417    1.545220
      8          1           0       -5.909088   -0.787130    0.887240
 ---------------------------------------------------------------------
                    Distance matrix (angstroms):
                    1          2          3          4          5
     1  C    0.000000
     2  O    1.205147   0.000000
     3  C    1.458077   2.344997   0.000000
     4  C    2.439631   3.541945   1.336830   0.000000
     5  H    2.172175   2.609592   1.077115   2.107259   0.000000
     6  H    2.653432   3.855554   2.100456   1.089675   3.067377
     7  H    3.434688   4.459282   2.126301   1.069632   2.490202
     8  H    1.072453   1.982126   2.155720   2.633334   3.088900
                    6          7          8
     6  H    0.000000
     7  H    1.836947   0.000000
     8  H    2.385459   3.700880   0.000000
 Stoichiometry    C3H4O
 Framework group  C1[X(C3H4O)]
 Deg. of freedom    18
 Full point group                 C1      NOp   1
 Largest Abelian subgroup         C1      NOp   1
 Largest concise Abelian subgroup C1      NOp   1
                         Standard orientation:                         
 ---------------------------------------------------------------------
 Center     Atomic      Atomic             Coordinates (Angstroms)
 Number     Number       Type             X           Y           Z
 ---------------------------------------------------------------------
      1          6           0       -0.672302    0.357748    0.008046
      2          8           0       -1.775732   -0.126617   -0.006485
      3          6           0        0.548269   -0.439706   -0.008085
      4          6           0        1.756769    0.131813   -0.011107
      5          1           0        0.436600   -1.509679    0.045445
      6          1           0        1.837572    1.218487   -0.010973
      7          1           0        2.673888   -0.416234    0.040379
      8          1           0       -0.538621    1.421233    0.043905
 ---------------------------------------------------------------------
 Rotational constants (GHZ):     48.9514541      4.7115334      4.2985298
 Leave Link  202 at Wed Aug 26 15:27:45 2020, MaxMem=  2097152000 cpu:         0.0
 (Enter /opt/cluster/programs/g09/g09_d.01/g09/l301.exe)
 Standard basis: def2QZVP (5D, 7F)
 Ernie: Thresh=  0.10000D-02 Tol=  0.10000D-05 Strict=F.
 There are   428 symmetry adapted cartesian basis functions of A   symmetry.
 There are   348 symmetry adapted basis functions of A   symmetry.
   348 basis functions,   520 primitive gaussians,   428 cartesian basis functions
    15 alpha electrons       15 beta electrons
       nuclear repulsion energy       103.7822696080 Hartrees.
 IExCor=  419 DFT=T Ex+Corr=B2PLYPD3 ExCW=0 ScaHFX=  0.530000
 ScaDFX=  0.470000  0.470000  0.730000  0.730000 ScalE2=  0.270000  0.270000
 IRadAn=      0 IRanWt=     -1 IRanGd=            0 ICorTp=0 IEmpDi=141
 NAtoms=    8 NActive=    8 NUniq=    8 SFac= 1.00D+00 NAtFMM=   60 NAOKFM=F Big=F
 Integral buffers will be    131072 words long.
 Regular integral format.
 Two-electron integral symmetry is turned on.
 R6Disp:  Grimme-D3(BJ) Dispersion energy=       -0.0035917041 Hartrees.
 Nuclear repulsion after empirical dispersion term =      103.7786779040 Hartrees.
 Leave Link  301 at Wed Aug 26 15:27:45 2020, MaxMem=  2097152000 cpu:         0.4
 (Enter /opt/cluster/programs/g09/g09_d.01/g09/l302.exe)
 NPDir=0 NMtPBC=     1 NCelOv=     1 NCel=       1 NClECP=     1 NCelD=      1
         NCelK=      1 NCelE2=     1 NClLst=     1 CellRange=     0.0.
 One-electron integrals computed using PRISM.
   1 Symmetry operations used in ECPInt.
 ECPInt:  NShTT=    5886 NPrTT=   14376 LenC2=    5781 LenP2D=   12189.
 LDataN:  DoStor=T MaxTD1= 8 Len=  415
 NBasis=   348 RedAO= T EigKep=  5.69D-05  NBF=   348
 NBsUse=   348 1.00D-06 EigRej= -1.00D+00 NBFU=   348
 Precomputing XC quadrature grid using
 IXCGrd= 4 IRadAn=           0 IRanWt=          -1 IRanGd=           0 AccXCQ= 0.00D+00.
 Generated NRdTot=       0 NPtTot=           0 NUsed=           0 NTot=          32
 NSgBfM=   428   428   428   428   428 MxSgAt=     8 MxSgA2=     8.
 Leave Link  302 at Wed Aug 26 15:27:45 2020, MaxMem=  2097152000 cpu:         3.0
 (Enter /opt/cluster/programs/g09/g09_d.01/g09/l303.exe)
 DipDrv:  MaxL=1.
 Leave Link  303 at Wed Aug 26 15:27:45 2020, MaxMem=  2097152000 cpu:         0.3
 (Enter /opt/cluster/programs/g09/g09_d.01/g09/l401.exe)
 ExpMin= 7.60D-02 ExpMax= 1.17D+05 ExpMxC= 1.13D+03 IAcc=2 IRadAn=         4 AccDes= 0.00D+00
 Harris functional with IExCor=  419 and IRadAn=       4 diagonalized for initial guess.
 HarFok:  IExCor=  419 AccDes= 0.00D+00 IRadAn=         4 IDoV= 1 UseB2=F ITyADJ=14
 ICtDFT=  3500011 ScaDFX=  1.000000  1.000000  1.000000  1.000000
 FoFCou: FMM=F IPFlag=           0 FMFlag=      100000 FMFlg1=           0
         NFxFlg=           0 DoJE=T BraDBF=F KetDBF=T FulRan=T
         wScrn=  0.000000 ICntrl=     500 IOpCl=  0 I1Cent=   200000004 NGrid=           0
         NMat0=    1 NMatS0=      1 NMatT0=    0 NMatD0=    1 NMtDS0=    0 NMtDT0=    0
 Petite list used in FoFCou.
 Harris En= -192.048645660840    
 JPrj=0 DoOrth=F DoCkMO=F.
 Leave Link  401 at Wed Aug 26 15:27:46 2020, MaxMem=  2097152000 cpu:         6.9
 (Enter /opt/cluster/programs/g09/g09_d.01/g09/l502.exe)
 Closed shell SCF:
 Using DIIS extrapolation, IDIIS=  1040.
 Integral symmetry usage will be decided dynamically.
 Keep R1 ints in memory in canonical form, NReq=1883905047.
 IVT=      574566 IEndB=      574566 NGot=  2097152000 MDV=   252723534
 LenX=   252723534 LenY=   252539909
 Requested convergence on RMS density matrix=1.00D-08 within 128 cycles.
 Requested convergence on MAX density matrix=1.00D-06.
 Requested convergence on             energy=1.00D-06.
 No special actions if energy rises.
 FoFCou: FMM=F IPFlag=           0 FMFlag=           0 FMFlg1=           0
         NFxFlg=           0 DoJE=F BraDBF=F KetDBF=F FulRan=T
         wScrn=  0.000000 ICntrl=     600 IOpCl=  0 I1Cent=           0 NGrid=           0
         NMat0=    1 NMatS0=  60726 NMatT0=    0 NMatD0=    1 NMtDS0=    0 NMtDT0=    0
 Symmetry not used in FoFCou.
 Integral accuracy reduced to 1.0D-05 until final iterations.

 Cycle   1  Pass 0  IDiag  1:
 E= -191.474393103702    
 DIIS: error= 2.59D-02 at cycle   1 NSaved=   1.
 NSaved= 1 IEnMin= 1 EnMin= -191.474393103702     IErMin= 1 ErrMin= 2.59D-02
 ErrMax= 2.59D-02  0.00D+00 EMaxC= 1.00D-01 BMatC= 2.56D-01 BMatP= 2.56D-01
 IDIUse=3 WtCom= 7.41D-01 WtEn= 2.59D-01
 Coeff-Com:  0.100D+01
 Coeff-En:   0.100D+01
 Coeff:      0.100D+01
 Gap=     0.286 Goal=   None    Shift=    0.000
 GapD=    0.286 DampG=1.000 DampE=0.500 DampFc=0.5000 IDamp=-1.
 Damping current iteration by 5.00D-01
 RMSDP=1.87D-03 MaxDP=2.40D-01              OVMax= 1.74D-01

 Cycle   2  Pass 0  IDiag  1:
 E= -191.544130068528     Delta-E=       -0.069736964827 Rises=F Damp=T
 DIIS: error= 9.14D-03 at cycle   2 NSaved=   2.
 NSaved= 2 IEnMin= 2 EnMin= -191.544130068528     IErMin= 2 ErrMin= 9.14D-03
 ErrMax= 9.14D-03  0.00D+00 EMaxC= 1.00D-01 BMatC= 3.37D-02 BMatP= 2.56D-01
 IDIUse=3 WtCom= 9.09D-01 WtEn= 9.14D-02
 Coeff-Com: -0.166D+00 0.117D+01
 Coeff-En:   0.000D+00 0.100D+01
 Coeff:     -0.151D+00 0.115D+01
 Gap=     0.355 Goal=   None    Shift=    0.000
 RMSDP=6.30D-04 MaxDP=8.16D-02 DE=-6.97D-02 OVMax= 1.28D-01

 Cycle   3  Pass 0  IDiag  1:
 E= -191.605195270388     Delta-E=       -0.061065201859 Rises=F Damp=F
 DIIS: error= 9.21D-03 at cycle   3 NSaved=   3.
 NSaved= 3 IEnMin= 3 EnMin= -191.605195270388     IErMin= 2 ErrMin= 9.14D-03
 ErrMax= 9.21D-03  0.00D+00 EMaxC= 1.00D-01 BMatC= 1.66D-02 BMatP= 3.37D-02
 IDIUse=3 WtCom= 9.08D-01 WtEn= 9.21D-02
 Coeff-Com: -0.194D+00 0.527D+00 0.667D+00
 Coeff-En:   0.000D+00 0.000D+00 0.100D+01
 Coeff:     -0.176D+00 0.478D+00 0.698D+00
 Gap=     0.333 Goal=   None    Shift=    0.000
 RMSDP=2.40D-04 MaxDP=1.86D-02 DE=-6.11D-02 OVMax= 4.58D-02

 Cycle   4  Pass 0  IDiag  1:
 E= -191.614361158605     Delta-E=       -0.009165888218 Rises=F Damp=F
 DIIS: error= 3.47D-03 at cycle   4 NSaved=   4.
 NSaved= 4 IEnMin= 4 EnMin= -191.614361158605     IErMin= 4 ErrMin= 3.47D-03
 ErrMax= 3.47D-03  0.00D+00 EMaxC= 1.00D-01 BMatC= 2.86D-03 BMatP= 1.66D-02
 IDIUse=3 WtCom= 9.65D-01 WtEn= 3.47D-02
 Coeff-Com: -0.613D-01 0.102D+00 0.359D+00 0.600D+00
 Coeff-En:   0.000D+00 0.000D+00 0.155D+00 0.845D+00
 Coeff:     -0.592D-01 0.988D-01 0.352D+00 0.608D+00
 Gap=     0.322 Goal=   None    Shift=    0.000
 RMSDP=9.60D-05 MaxDP=8.05D-03 DE=-9.17D-03 OVMax= 1.40D-02

 Cycle   5  Pass 0  IDiag  1:
 E= -191.616672941013     Delta-E=       -0.002311782407 Rises=F Damp=F
 DIIS: error= 3.22D-04 at cycle   5 NSaved=   5.
 NSaved= 5 IEnMin= 5 EnMin= -191.616672941013     IErMin= 5 ErrMin= 3.22D-04
 ErrMax= 3.22D-04  0.00D+00 EMaxC= 1.00D-01 BMatC= 1.04D-05 BMatP= 2.86D-03
 IDIUse=3 WtCom= 9.97D-01 WtEn= 3.22D-03
 Coeff-Com: -0.815D-02 0.107D-01 0.536D-01 0.122D+00 0.822D+00
 Coeff-En:   0.000D+00 0.000D+00 0.000D+00 0.000D+00 0.100D+01
 Coeff:     -0.812D-02 0.106D-01 0.534D-01 0.122D+00 0.822D+00
 Gap=     0.321 Goal=   None    Shift=    0.000
 RMSDP=9.35D-06 MaxDP=8.00D-04 DE=-2.31D-03 OVMax= 2.10D-03

 Initial convergence to 1.0D-05 achieved.  Increase integral accuracy.
 Cycle   6  Pass 1  IDiag  1:
 E= -191.616675923992     Delta-E=       -0.000002982980 Rises=F Damp=F
 DIIS: error= 9.72D-05 at cycle   1 NSaved=   1.
 NSaved= 1 IEnMin= 1 EnMin= -191.616675923992     IErMin= 1 ErrMin= 9.72D-05
 ErrMax= 9.72D-05  0.00D+00 EMaxC= 1.00D-01 BMatC= 1.46D-06 BMatP= 1.46D-06
 IDIUse=1 WtCom= 1.00D+00 WtEn= 0.00D+00
 Coeff-Com:  0.100D+01
 Coeff:      0.100D+01
 Gap=     0.322 Goal=   None    Shift=    0.000
 RMSDP=9.35D-06 MaxDP=8.00D-04 DE=-2.98D-06 OVMax= 6.94D-04

 Cycle   7  Pass 1  IDiag  1:
 E= -191.616677097559     Delta-E=       -0.000001173567 Rises=F Damp=F
 DIIS: error= 7.07D-05 at cycle   2 NSaved=   2.
 NSaved= 2 IEnMin= 2 EnMin= -191.616677097559     IErMin= 2 ErrMin= 7.07D-05
 ErrMax= 7.07D-05  0.00D+00 EMaxC= 1.00D-01 BMatC= 7.84D-07 BMatP= 1.46D-06
 IDIUse=1 WtCom= 1.00D+00 WtEn= 0.00D+00
 Coeff-Com:  0.414D+00 0.586D+00
 Coeff:      0.414D+00 0.586D+00
 Gap=     0.322 Goal=   None    Shift=    0.000
 RMSDP=1.48D-06 MaxDP=8.55D-05 DE=-1.17D-06 OVMax= 3.99D-04

 Cycle   8  Pass 1  IDiag  1:
 E= -191.616677797613     Delta-E=       -0.000000700054 Rises=F Damp=F
 DIIS: error= 1.78D-05 at cycle   3 NSaved=   3.
 NSaved= 3 IEnMin= 3 EnMin= -191.616677797613     IErMin= 3 ErrMin= 1.78D-05
 ErrMax= 1.78D-05  0.00D+00 EMaxC= 1.00D-01 BMatC= 6.04D-08 BMatP= 7.84D-07
 IDIUse=1 WtCom= 1.00D+00 WtEn= 0.00D+00
 Coeff-Com:  0.471D-01 0.179D+00 0.774D+00
 Coeff:      0.471D-01 0.179D+00 0.774D+00
 Gap=     0.322 Goal=   None    Shift=    0.000
 RMSDP=1.42D-06 MaxDP=1.62D-04 DE=-7.00D-07 OVMax= 1.14D-04

 Cycle   9  Pass 1  IDiag  1:
 E= -191.616677853106     Delta-E=       -0.000000055493 Rises=F Damp=F
 DIIS: error= 1.27D-05 at cycle   4 NSaved=   4.
 NSaved= 4 IEnMin= 4 EnMin= -191.616677853106     IErMin= 4 ErrMin= 1.27D-05
 ErrMax= 1.27D-05  0.00D+00 EMaxC= 1.00D-01 BMatC= 1.93D-08 BMatP= 6.04D-08
 IDIUse=1 WtCom= 1.00D+00 WtEn= 0.00D+00
 Coeff-Com: -0.113D+00-0.894D-01 0.435D+00 0.767D+00
 Coeff:     -0.113D+00-0.894D-01 0.435D+00 0.767D+00
 Gap=     0.322 Goal=   None    Shift=    0.000
 RMSDP=6.56D-07 MaxDP=7.11D-05 DE=-5.55D-08 OVMax= 1.07D-04

 Cycle  10  Pass 1  IDiag  1:
 E= -191.616677879114     Delta-E=       -0.000000026008 Rises=F Damp=F
 DIIS: error= 1.72D-06 at cycle   5 NSaved=   5.
 NSaved= 5 IEnMin= 5 EnMin= -191.616677879114     IErMin= 5 ErrMin= 1.72D-06
 ErrMax= 1.72D-06  0.00D+00 EMaxC= 1.00D-01 BMatC= 8.34D-10 BMatP= 1.93D-08
 IDIUse=1 WtCom= 1.00D+00 WtEn= 0.00D+00
 Coeff-Com: -0.213D-01-0.248D-01 0.124D-01 0.190D+00 0.844D+00
 Coeff:     -0.213D-01-0.248D-01 0.124D-01 0.190D+00 0.844D+00
 Gap=     0.322 Goal=   None    Shift=    0.000
 RMSDP=1.43D-07 MaxDP=1.66D-05 DE=-2.60D-08 OVMax= 1.63D-05

 Cycle  11  Pass 1  IDiag  1:
 E= -191.616677879904     Delta-E=       -0.000000000789 Rises=F Damp=F
 DIIS: error= 5.27D-07 at cycle   6 NSaved=   6.
 NSaved= 6 IEnMin= 6 EnMin= -191.616677879904     IErMin= 6 ErrMin= 5.27D-07
 ErrMax= 5.27D-07  0.00D+00 EMaxC= 1.00D-01 BMatC= 1.06D-10 BMatP= 8.34D-10
 IDIUse=1 WtCom= 1.00D+00 WtEn= 0.00D+00
 Coeff-Com:  0.875D-02 0.383D-02-0.675D-01-0.244D-01 0.266D+00 0.813D+00
 Coeff:      0.875D-02 0.383D-02-0.675D-01-0.244D-01 0.266D+00 0.813D+00
 Gap=     0.322 Goal=   None    Shift=    0.000
 RMSDP=3.88D-08 MaxDP=3.80D-06 DE=-7.89D-10 OVMax= 3.13D-06

 Cycle  12  Pass 1  IDiag  1:
 E= -191.616677880020     Delta-E=       -0.000000000116 Rises=F Damp=F
 DIIS: error= 2.62D-07 at cycle   7 NSaved=   7.
 NSaved= 7 IEnMin= 7 EnMin= -191.616677880020     IErMin= 7 ErrMin= 2.62D-07
 ErrMax= 2.62D-07  0.00D+00 EMaxC= 1.00D-01 BMatC= 5.77D-12 BMatP= 1.06D-10
 IDIUse=1 WtCom= 1.00D+00 WtEn= 0.00D+00
 Coeff-Com:  0.397D-02 0.247D-02-0.239D-01-0.131D-01 0.522D-01 0.275D+00
 Coeff-Com:  0.704D+00
 Coeff:      0.397D-02 0.247D-02-0.239D-01-0.131D-01 0.522D-01 0.275D+00
 Coeff:      0.704D+00
 Gap=     0.322 Goal=   None    Shift=    0.000
 RMSDP=6.39D-09 MaxDP=5.41D-07 DE=-1.16D-10 OVMax= 1.85D-06

 SCF Done:  E(RB2PLYPD3) =  -191.616677880     A.U. after   12 cycles
            NFock= 12  Conv=0.64D-08     -V/T= 2.0028
 KE= 1.910840495472D+02 PE=-6.556886090712D+02 EE= 1.692092037400D+02
 Leave Link  502 at Wed Aug 26 15:28:50 2020, MaxMem=  2097152000 cpu:       278.4
 (Enter /opt/cluster/programs/g09/g09_d.01/g09/l801.exe)
 DoSCS=T DFT=T ScalE2(SS,OS)=  0.270000  0.270000
 ExpMin= 7.60D-02 ExpMax= 1.17D+05 ExpMxC= 1.13D+03 IAcc=3 IRadAn=         5 AccDes= 0.00D+00
 HarFok:  IExCor=  205 AccDes= 0.00D+00 IRadAn=         5 IDoV=-2 UseB2=F ITyADJ=14
 ICtDFT= 12500011 ScaDFX=  1.000000  1.000000  1.000000  1.000000
 DSYEVD-2 returned Info=        1739 IAlg= 4 N=    57 NDim=    57 NE2=    36785415 trying  DSYEV.
 Largest valence mixing into a core orbital is  1.13D-04
 Largest core mixing into a valence orbital is  1.88D-05
 Range of M.O.s used for correlation:     5   348
 NBasis=   348 NAE=    15 NBE=    15 NFC=     4 NFV=     0
 NROrb=    344 NOA=    11 NOB=    11 NVA=   333 NVB=   333

 **** Warning!!: The largest alpha MO coefficient is  0.31298465D+02

 Leave Link  801 at Wed Aug 26 15:28:50 2020, MaxMem=  2097152000 cpu:         0.9
 (Enter /opt/cluster/programs/g09/g09_d.01/g09/l906.exe)
 DoSCS=T DFT=T ScalE2(SS,OS)=  0.270000  0.270000
 FulOut=F Deriv=F AODrv=F NAtomX=     8
   MMem=        1190  MDisk=          11 MDiskD=          11
  W3Min=     1567764 MinDsk=     2827057 NBas6D=         428
 NBas2D=       93150    NTT=       91806    LW2=     4508827
    MDV=  2096570524 MDiskM=       10875 NBas2p=       89516
 Fully direct method using O(OVN) memory.
 IMap=   1   2   3   4   5   6   7   8   9  10  11
 JobTyp=1 Pass  1:  I=   1 to  11 NPSUse=  8 ParTrn=T ParDer=T DoDerP=F.
 Spin components of T(2) and E(2):
     alpha-alpha T2 =       0.4332844797D-01 E2=     -0.2939188326D-01
     alpha-beta  T2 =       0.2643090465D+00 E2=     -0.1877161027D+00
     beta-beta   T2 =       0.4332844797D-01 E2=     -0.2939188326D-01
 The integrals were generated   1 times.
 E2(B2PLYPD3) =    -0.2464998692D+00 E(B2PLYPD3) =    -0.19186317774922D+03
 Leave Link  906 at Wed Aug 26 15:30:04 2020, MaxMem=  2097152000 cpu:       593.8
 (Enter /opt/cluster/programs/g09/g09_d.01/g09/l601.exe)
 Copying SCF densities to generalized density rwf, IOpCl= 0 IROHF=0.

 **********************************************************************

            Population analysis using the SCF density.

 **********************************************************************

 Orbital symmetries:
       Occupied  (A) (A) (A) (A) (A) (A) (A) (A) (A) (A) (A) (A)
                 (A) (A) (A)
       Virtual   (A) (A) (A) (A) (A) (A) (A) (A) (A) (A) (A) (A)
                 (A) (A) (A) (A) (A) (A) (A) (A) (A) (A) (A) (A)
                 (A) (A) (A) (A) (A) (A) (A) (A) (A) (A) (A) (A)
                 (A) (A) (A) (A) (A) (A) (A) (A) (A) (A) (A) (A)
                 (A) (A) (A) (A) (A) (A) (A) (A) (A) (A) (A) (A)
                 (A) (A) (A) (A) (A) (A) (A) (A) (A) (A) (A) (A)
                 (A) (A) (A) (A) (A) (A) (A) (A) (A) (A) (A) (A)
                 (A) (A) (A) (A) (A) (A) (A) (A) (A) (A) (A) (A)
                 (A) (A) (A) (A) (A) (A) (A) (A) (A) (A) (A) (A)
                 (A) (A) (A) (A) (A) (A) (A) (A) (A) (A) (A) (A)
                 (A) (A) (A) (A) (A) (A) (A) (A) (A) (A) (A) (A)
                 (A) (A) (A) (A) (A) (A) (A) (A) (A) (A) (A) (A)
                 (A) (A) (A) (A) (A) (A) (A) (A) (A) (A) (A) (A)
                 (A) (A) (A) (A) (A) (A) (A) (A) (A) (A) (A) (A)
                 (A) (A) (A) (A) (A) (A) (A) (A) (A) (A) (A) (A)
                 (A) (A) (A) (A) (A) (A) (A) (A) (A) (A) (A) (A)
                 (A) (A) (A) (A) (A) (A) (A) (A) (A) (A) (A) (A)
                 (A) (A) (A) (A) (A) (A) (A) (A) (A) (A) (A) (A)
                 (A) (A) (A) (A) (A) (A) (A) (A) (A) (A) (A) (A)
                 (A) (A) (A) (A) (A) (A) (A) (A) (A) (A) (A) (A)
                 (A) (A) (A) (A) (A) (A) (A) (A) (A) (A) (A) (A)
                 (A) (A) (A) (A) (A) (A) (A) (A) (A) (A) (A) (A)
                 (A) (A) (A) (A) (A) (A) (A) (A) (A) (A) (A) (A)
                 (A) (A) (A) (A) (A) (A) (A) (A) (A) (A) (A) (A)
                 (A) (A) (A) (A) (A) (A) (A) (A) (A) (A) (A) (A)
                 (A) (A) (A) (A) (A) (A) (A) (A) (A) (A) (A) (A)
                 (A) (A) (A) (A) (A) (A) (A) (A) (A) (A) (A) (A)
                 (A) (A) (A) (A) (A) (A) (A) (A) (A)
 The electronic state is 1-A.
 Alpha  occ. eigenvalues --  -19.72613 -10.71016 -10.65395 -10.64164  -1.19810
 Alpha  occ. eigenvalues --   -0.92943  -0.75738  -0.67490  -0.56844  -0.56568
 Alpha  occ. eigenvalues --   -0.50772  -0.47032  -0.46649  -0.34528  -0.33927
 Alpha virt. eigenvalues --   -0.01743   0.05772   0.07303   0.08332   0.09746
 Alpha virt. eigenvalues --    0.12549   0.14204   0.15387   0.17627   0.19696
 Alpha virt. eigenvalues --    0.19961   0.21654   0.25553   0.26512   0.28951
 Alpha virt. eigenvalues --    0.32307   0.33843   0.35855   0.37510   0.38741
 Alpha virt. eigenvalues --    0.39520   0.42147   0.42941   0.44404   0.46301
 Alpha virt. eigenvalues --    0.47252   0.49326   0.53805   0.54321   0.57499
 Alpha virt. eigenvalues --    0.59262   0.64595   0.66046   0.67756   0.71385
 Alpha virt. eigenvalues --    0.74981   0.76490   0.78327   0.80004   0.80657
 Alpha virt. eigenvalues --    0.81597   0.82259   0.83016   0.84163   0.86572
 Alpha virt. eigenvalues --    0.88383   0.91846   0.92515   0.94049   0.96143
 Alpha virt. eigenvalues --    0.96416   0.97849   1.01200   1.02464   1.07876
 Alpha virt. eigenvalues --    1.09570   1.12532   1.14851   1.16948   1.20289
 Alpha virt. eigenvalues --    1.20506   1.25623   1.28407   1.34863   1.40458
 Alpha virt. eigenvalues --    1.43193   1.47254   1.49261   1.55617   1.57252
 Alpha virt. eigenvalues --    1.62364   1.63649   1.65116   1.66302   1.70060
 Alpha virt. eigenvalues --    1.74286   1.76100   1.77513   1.81715   1.83544
 Alpha virt. eigenvalues --    1.85856   1.90717   1.91099   1.93253   1.94241
 Alpha virt. eigenvalues --    1.96011   1.98292   1.99852   2.01051   2.03216
 Alpha virt. eigenvalues --    2.06693   2.10581   2.11413   2.13728   2.14848
 Alpha virt. eigenvalues --    2.16772   2.18655   2.20916   2.23414   2.26553
 Alpha virt. eigenvalues --    2.29237   2.35445   2.36801   2.39373   2.44005
 Alpha virt. eigenvalues --    2.46401   2.46874   2.49003   2.49529   2.53847
 Alpha virt. eigenvalues --    2.56197   2.57919   2.59787   2.61931   2.64947
 Alpha virt. eigenvalues --    2.65951   2.66859   2.67661   2.70436   2.74576
 Alpha virt. eigenvalues --    2.75904   2.78289   2.87511   2.87876   2.88443
 Alpha virt. eigenvalues --    2.90116   2.97819   2.98623   3.02979   3.06960
 Alpha virt. eigenvalues --    3.18691   3.20168   3.30742   3.32687   3.34396
 Alpha virt. eigenvalues --    3.37062   3.42456   3.43088   3.45659   3.51612
 Alpha virt. eigenvalues --    3.52041   3.55074   3.62530   3.63700   3.65131
 Alpha virt. eigenvalues --    3.67076   3.75377   3.79274   3.82615   3.91371
 Alpha virt. eigenvalues --    3.95466   4.00289   4.04018   4.04709   4.07469
 Alpha virt. eigenvalues --    4.12704   4.19651   4.22500   4.27313   4.33518
 Alpha virt. eigenvalues --    4.40300   4.42995   4.55710   4.61851   4.63935
 Alpha virt. eigenvalues --    4.68002   4.82711   4.87935   4.92209   4.99444
 Alpha virt. eigenvalues --    5.03694   5.05132   5.10810   5.12351   5.12674
 Alpha virt. eigenvalues --    5.21047   5.28218   5.30843   5.35747   5.44269
 Alpha virt. eigenvalues --    5.44581   5.53526   5.53989   5.57916   5.60485
 Alpha virt. eigenvalues --    5.65631   5.69281   5.72503   5.74945   5.79525
 Alpha virt. eigenvalues --    5.80144   5.81159   5.85693   5.92137   5.95586
 Alpha virt. eigenvalues --    5.98218   6.00351   6.02732   6.06008   6.07235
 Alpha virt. eigenvalues --    6.09390   6.15847   6.17593   6.18351   6.19720
 Alpha virt. eigenvalues --    6.23135   6.26538   6.27755   6.28522   6.32390
 Alpha virt. eigenvalues --    6.35090   6.36426   6.38712   6.45859   6.48060
 Alpha virt. eigenvalues --    6.51798   6.53846   6.54613   6.60533   6.63298
 Alpha virt. eigenvalues --    6.65160   6.69623   6.72490   6.75800   6.81569
 Alpha virt. eigenvalues --    6.85149   6.86576   6.99080   7.02507   7.05002
 Alpha virt. eigenvalues --    7.07163   7.09168   7.15251   7.16517   7.21677
 Alpha virt. eigenvalues --    7.35234   7.41136   7.46518   7.53763   7.55260
 Alpha virt. eigenvalues --    7.59120   7.60286   7.62149   7.65067   7.68592
 Alpha virt. eigenvalues --    7.70448   7.71487   7.74838   7.77278   7.79413
 Alpha virt. eigenvalues --    7.86673   7.88588   7.93071   8.03232   8.06782
 Alpha virt. eigenvalues --    8.08910   8.12053   8.12533   8.16946   8.22656
 Alpha virt. eigenvalues --    8.22937   8.27498   8.30648   8.34723   8.36169
 Alpha virt. eigenvalues --    8.36915   8.44951   8.47617   8.51766   8.56284
 Alpha virt. eigenvalues --    8.60087   8.61346   8.63925   8.68301   8.70324
 Alpha virt. eigenvalues --    8.81467   8.93418   8.95623   8.99704   9.08949
 Alpha virt. eigenvalues --    9.09097   9.13498   9.21036   9.32429   9.35256
 Alpha virt. eigenvalues --    9.38801   9.46082   9.63781   9.72218   9.80995
 Alpha virt. eigenvalues --    9.94030   9.95868   9.97361   9.99405  10.00288
 Alpha virt. eigenvalues --   10.03146  10.13434  10.24241  10.30070  10.31725
 Alpha virt. eigenvalues --   10.38518  10.40224  10.54065  10.68464  11.00912
 Alpha virt. eigenvalues --   11.08999  11.25939  11.29279  11.35586  11.55064
 Alpha virt. eigenvalues --   11.67595  11.77463  11.84262  12.04338  12.12288
 Alpha virt. eigenvalues --   12.34742  12.37533  12.51506  12.62399  13.02102
 Alpha virt. eigenvalues --   13.18891  13.40359  13.85026  14.36394  14.77928
 Alpha virt. eigenvalues --   28.63624  28.95580  29.54903  48.67363 148.22738
 Alpha virt. eigenvalues --  148.52186 149.14846 254.43696
          Condensed to atoms (all electrons):
               1          2          3          4          5          6
     1  C    4.489397   0.624504   0.369235  -0.053234  -0.030859  -0.004330
     2  O    0.624504   7.885975  -0.095251   0.007171   0.005351   0.000364
     3  C    0.369235  -0.095251   5.175168   0.477283   0.368309  -0.051819
     4  C   -0.053234   0.007171   0.477283   4.874009  -0.039395   0.424537
     5  H   -0.030859   0.005351   0.368309  -0.039395   0.581628   0.005697
     6  H   -0.004330   0.000364  -0.051819   0.424537   0.005697   0.581601
     7  H    0.002414  -0.000556  -0.031189   0.415922  -0.004923  -0.041641
     8  H    0.449379  -0.079244  -0.171573   0.025477   0.008090   0.006018
               7          8
     1  C    0.002414   0.449379
     2  O   -0.000556  -0.079244
     3  C   -0.031189  -0.171573
     4  C    0.415922   0.025477
     5  H   -0.004923   0.008090
     6  H   -0.041641   0.006018
     7  H    0.557251  -0.000641
     8  H   -0.000641   0.684772
 Mulliken charges:
               1
     1  C    0.153494
     2  O   -0.348315
     3  C   -0.040164
     4  C   -0.131772
     5  H    0.106101
     6  H    0.079572
     7  H    0.103362
     8  H    0.077722
 Sum of Mulliken charges =   0.00000
 Mulliken charges with hydrogens summed into heavy atoms:
               1
     1  C    0.231216
     2  O   -0.348315
     3  C    0.065938
     4  C    0.051162
 Electronic spatial extent (au):  <R**2>=            295.8108
 Charge=              0.0000 electrons
 Dipole moment (field-independent basis, Debye):
    X=              3.4526    Y=              0.8117    Z=              0.1077  Tot=              3.5484
 Quadrupole moment (field-independent basis, Debye-Ang):
   XX=            -27.3052   YY=            -21.7318   ZZ=            -25.1464
   XY=             -1.0317   XZ=              0.0816   YZ=             -0.0859
 Traceless Quadrupole moment (field-independent basis, Debye-Ang):
   XX=             -2.5774   YY=              2.9960   ZZ=             -0.4186
   XY=             -1.0317   XZ=              0.0816   YZ=             -0.0859
 Octapole moment (field-independent basis, Debye-Ang**2):
  XXX=             15.1888  YYY=              0.1325  ZZZ=              0.1379  XYY=             -0.4098
  XXY=              0.7005  XXZ=              0.3805  XZZ=             -4.3490  YZZ=              0.1848
  YYZ=              0.2206  XYZ=             -0.0921
 Hexadecapole moment (field-independent basis, Debye-Ang**3):
 XXXX=           -298.8390 YYYY=            -54.5185 ZZZZ=            -27.2761 XXXY=             -3.4487
 XXXZ=              1.0487 YYYX=              0.0192 YYYZ=             -0.2214 ZZZX=              0.2410
 ZZZY=             -0.0730 XXYY=            -57.8585 XXZZ=            -56.8115 YYZZ=            -15.2982
 XXYZ=             -0.2350 YYXZ=              0.1170 ZZXY=              0.2820
 N-N= 1.037786779040D+02 E-N=-6.556885952561D+02  KE= 1.910840495472D+02
 Leave Link  601 at Wed Aug 26 15:30:05 2020, MaxMem=  2097152000 cpu:         0.7
 (Enter /opt/cluster/programs/g09/g09_d.01/g09/l9999.exe)
 1\1\GINC-NODE18\SP\RB2PLYPD3-FC\def2QZVP\C3H4O1\BOITTIER\26-Aug-2020\0
 \\#p B2PLYPD3/Def2QZVP\\acrolein\\0,1\C,0,-5.014515,-1.378644,0.884851
 \O,0,-3.94156,-0.87617,0.664243\C,0,-5.188742,-2.802078,1.14842\C,0,-6
 .392173,-3.322663,1.40892\H,0,-4.316132,-3.427745,1.063156\H,0,-7.2653
 91,-2.671372,1.435408\H,0,-6.570873,-4.368417,1.54522\H,0,-5.909088,-0
 .78713,0.88724\\Version=ES64L-G09RevD.01\State=1-A\HF=-191.6166779\MP2
 =-191.8631777\RMSD=6.391e-09\PG=C01 [X(C3H4O1)]\\@


 EXPERIENCE IS A WONDERFUL THING.  IT ENABLES
 YOU TO RECOGNIZE A MISTAKE WHEN YOU MAKE IT AGAIN.
           - BACK OF A SUGAR PACKET
 Job cpu time:       0 days  0 hours 14 minutes 46.1 seconds.
 File lengths (MBytes):  RWF=     49 Int=      0 D2E=      0 Chk=      7 Scr=      1
 Normal termination of Gaussian 09 at Wed Aug 26 15:30:05 2020.
