 Entering Gaussian System, Link 0=/opt/cluster/programs/g09/g09_d.01/g09//g09
 Input=/home/boittier/MDCM/nms_sampling/acrolein_geom.xyz.dir/energies/acrolein_30_energy.com
 Output=/scratch/boittier/acrolein_30_energy/acrolein_30_energy.out
 Initial command:
 /opt/cluster/programs/g09/g09_d.01/g09/l1.exe "/scratch/boittier/acrolein_30_energy/Gau-72971.inp" -scrdir="/scratch/boittier/acrolein_30_energy/"
 Entering Link 1 = /opt/cluster/programs/g09/g09_d.01/g09/l1.exe PID=     72972.
  
 Copyright (c) 1988,1990,1992,1993,1995,1998,2003,2009,2013,
            Gaussian, Inc.  All Rights Reserved.
  
 This is part of the Gaussian(R) 09 program.  It is based on
 the Gaussian(R) 03 system (copyright 2003, Gaussian, Inc.),
 the Gaussian(R) 98 system (copyright 1998, Gaussian, Inc.),
 the Gaussian(R) 94 system (copyright 1995, Gaussian, Inc.),
 the Gaussian 92(TM) system (copyright 1992, Gaussian, Inc.),
 the Gaussian 90(TM) system (copyright 1990, Gaussian, Inc.),
 the Gaussian 88(TM) system (copyright 1988, Gaussian, Inc.),
 the Gaussian 86(TM) system (copyright 1986, Carnegie Mellon
 University), and the Gaussian 82(TM) system (copyright 1983,
 Carnegie Mellon University). Gaussian is a federally registered
 trademark of Gaussian, Inc.
  
 This software contains proprietary and confidential information,
 including trade secrets, belonging to Gaussian, Inc.
  
 This software is provided under written license and may be
 used, copied, transmitted, or stored only in accord with that
 written license.
  
 The following legend is applicable only to US Government
 contracts under FAR:
  
                    RESTRICTED RIGHTS LEGEND
  
 Use, reproduction and disclosure by the US Government is
 subject to restrictions as set forth in subparagraphs (a)
 and (c) of the Commercial Computer Software - Restricted
 Rights clause in FAR 52.227-19.
  
 Gaussian, Inc.
 340 Quinnipiac St., Bldg. 40, Wallingford CT 06492
  
  
 ---------------------------------------------------------------
 Warning -- This program may not be used in any manner that
 competes with the business of Gaussian, Inc. or will provide
 assistance to any competitor of Gaussian, Inc.  The licensee
 of this program is prohibited from giving any competitor of
 Gaussian, Inc. access to this program.  By using this program,
 the user acknowledges that Gaussian, Inc. is engaged in the
 business of creating and licensing software in the field of
 computational chemistry and represents and warrants to the
 licensee that it is not a competitor of Gaussian, Inc. and that
 it will not use this program in any manner prohibited above.
 ---------------------------------------------------------------
  

 Cite this work as:
 Gaussian 09, Revision D.01,
 M. J. Frisch, G. W. Trucks, H. B. Schlegel, G. E. Scuseria, 
 M. A. Robb, J. R. Cheeseman, G. Scalmani, V. Barone, B. Mennucci, 
 G. A. Petersson, H. Nakatsuji, M. Caricato, X. Li, H. P. Hratchian, 
 A. F. Izmaylov, J. Bloino, G. Zheng, J. L. Sonnenberg, M. Hada, 
 M. Ehara, K. Toyota, R. Fukuda, J. Hasegawa, M. Ishida, T. Nakajima, 
 Y. Honda, O. Kitao, H. Nakai, T. Vreven, J. A. Montgomery, Jr., 
 J. E. Peralta, F. Ogliaro, M. Bearpark, J. J. Heyd, E. Brothers, 
 K. N. Kudin, V. N. Staroverov, T. Keith, R. Kobayashi, J. Normand, 
 K. Raghavachari, A. Rendell, J. C. Burant, S. S. Iyengar, J. Tomasi, 
 M. Cossi, N. Rega, J. M. Millam, M. Klene, J. E. Knox, J. B. Cross, 
 V. Bakken, C. Adamo, J. Jaramillo, R. Gomperts, R. E. Stratmann, 
 O. Yazyev, A. J. Austin, R. Cammi, C. Pomelli, J. W. Ochterski, 
 R. L. Martin, K. Morokuma, V. G. Zakrzewski, G. A. Voth, 
 P. Salvador, J. J. Dannenberg, S. Dapprich, A. D. Daniels, 
 O. Farkas, J. B. Foresman, J. V. Ortiz, J. Cioslowski, 
 and D. J. Fox, Gaussian, Inc., Wallingford CT, 2013.
 
 ******************************************
 Gaussian 09:  ES64L-G09RevD.01 24-Apr-2013
                26-Aug-2020 
 ******************************************
 %chk=/home/boittier/MDCM/nms_sampling/acrolein_geom.xyz.dir/acrolein_30.chk
 %nproc=8
 Will use up to    8 processors via shared memory.
 %mem=16000MB
 --------------------
 #p B2PLYPD3/Def2QZVP
 --------------------
 1/38=1/1;
 2/12=2,17=6,18=5,40=1/2;
 3/5=45,7=101,11=9,16=1,25=1,30=1,74=-60/1,2,3;
 4//1;
 5/5=2,38=5/2;
 8/10=1/1;
 9/16=-3/6;
 6/7=2,8=2,9=2,10=2/1;
 99/5=1,9=1/99;
 Leave Link    1 at Wed Aug 26 15:13:49 2020, MaxMem=  2097152000 cpu:         0.2
 (Enter /opt/cluster/programs/g09/g09_d.01/g09/l101.exe)
 --------
 acrolein
 --------
 Symbolic Z-matrix:
 Charge =  0 Multiplicity = 1
 C                    -5.00053  -1.38984   0.87499 
 O                    -3.93118  -0.86221   0.67824 
 C                    -5.19986  -2.83234   1.11725 
 C                    -6.40743  -3.30693   1.42325 
 H                    -4.32844  -3.43836   1.09435 
 H                    -7.30384  -2.65274   1.40172 
 H                    -6.54861  -4.2985    1.64202 
 H                    -5.90882  -0.7799    0.88889 
 
 NAtoms=      8 NQM=        8 NQMF=       0 NMMI=      0 NMMIF=      0
                NMic=       0 NMicF=      0.
                    Isotopes and Nuclear Properties:
 (Nuclear quadrupole moments (NQMom) in fm**2, nuclear magnetic moments (NMagM)
  in nuclear magnetons)

  Atom         1           2           3           4           5           6           7           8
 IAtWgt=          12          16          12          12           1           1           1           1
 AtmWgt=  12.0000000  15.9949146  12.0000000  12.0000000   1.0078250   1.0078250   1.0078250   1.0078250
 NucSpn=           0           0           0           0           1           1           1           1
 AtZEff=   0.0000000   0.0000000   0.0000000   0.0000000   0.0000000   0.0000000   0.0000000   0.0000000
 NQMom=    0.0000000   0.0000000   0.0000000   0.0000000   0.0000000   0.0000000   0.0000000   0.0000000
 NMagM=    0.0000000   0.0000000   0.0000000   0.0000000   2.7928460   2.7928460   2.7928460   2.7928460
 AtZNuc=   6.0000000   8.0000000   6.0000000   6.0000000   1.0000000   1.0000000   1.0000000   1.0000000
 Leave Link  101 at Wed Aug 26 15:13:49 2020, MaxMem=  2097152000 cpu:         0.5
 (Enter /opt/cluster/programs/g09/g09_d.01/g09/l202.exe)
                          Input orientation:                          
 ---------------------------------------------------------------------
 Center     Atomic      Atomic             Coordinates (Angstroms)
 Number     Number       Type             X           Y           Z
 ---------------------------------------------------------------------
      1          6           0       -5.000532   -1.389838    0.874990
      2          8           0       -3.931182   -0.862209    0.678244
      3          6           0       -5.199860   -2.832335    1.117248
      4          6           0       -6.407427   -3.306931    1.423254
      5          1           0       -4.328444   -3.438355    1.094348
      6          1           0       -7.303840   -2.652743    1.401724
      7          1           0       -6.548612   -4.298500    1.642024
      8          1           0       -5.908815   -0.779900    0.888890
 ---------------------------------------------------------------------
                    Distance matrix (angstroms):
                    1          2          3          4          5
     1  C    0.000000
     2  O    1.208557   0.000000
     3  C    1.476218   2.384044   0.000000
     4  C    2.440326   3.558580   1.333079   0.000000
     5  H    2.167081   2.639600   1.061673   2.108939   0.000000
     6  H    2.679105   3.886420   2.130707   1.109947   3.092676
     7  H    3.383077   4.425823   2.060136   1.025184   2.443142
     8  H    1.094164   1.990522   2.183404   2.630598   3.099543
                    6          7          8
     6  H    0.000000
     7  H    1.826644   0.000000
     8  H    2.390948   3.654736   0.000000
 Stoichiometry    C3H4O
 Framework group  C1[X(C3H4O)]
 Deg. of freedom    18
 Full point group                 C1      NOp   1
 Largest Abelian subgroup         C1      NOp   1
 Largest concise Abelian subgroup C1      NOp   1
                         Standard orientation:                         
 ---------------------------------------------------------------------
 Center     Atomic      Atomic             Coordinates (Angstroms)
 Number     Number       Type             X           Y           Z
 ---------------------------------------------------------------------
      1          6           0        0.672543    0.342722   -0.016571
      2          8           0        1.790227   -0.115363    0.022835
      3          6           0       -0.568649   -0.456264   -0.033348
      4          6           0       -1.759107    0.140997    0.023099
      5          1           0       -0.449499   -1.511222   -0.029061
      6          1           0       -1.849554    1.246390   -0.020576
      7          1           0       -2.625935   -0.404983    0.062067
      8          1           0        0.534449    1.427994   -0.034188
 ---------------------------------------------------------------------
 Rotational constants (GHZ):     48.2505451      4.6667806      4.2578890
 Leave Link  202 at Wed Aug 26 15:13:49 2020, MaxMem=  2097152000 cpu:         0.0
 (Enter /opt/cluster/programs/g09/g09_d.01/g09/l301.exe)
 Standard basis: def2QZVP (5D, 7F)
 Ernie: Thresh=  0.10000D-02 Tol=  0.10000D-05 Strict=F.
 There are   428 symmetry adapted cartesian basis functions of A   symmetry.
 There are   348 symmetry adapted basis functions of A   symmetry.
   348 basis functions,   520 primitive gaussians,   428 cartesian basis functions
    15 alpha electrons       15 beta electrons
       nuclear repulsion energy       103.4387714581 Hartrees.
 IExCor=  419 DFT=T Ex+Corr=B2PLYPD3 ExCW=0 ScaHFX=  0.530000
 ScaDFX=  0.470000  0.470000  0.730000  0.730000 ScalE2=  0.270000  0.270000
 IRadAn=      0 IRanWt=     -1 IRanGd=            0 ICorTp=0 IEmpDi=141
 NAtoms=    8 NActive=    8 NUniq=    8 SFac= 1.00D+00 NAtFMM=   60 NAOKFM=F Big=F
 Integral buffers will be    131072 words long.
 Regular integral format.
 Two-electron integral symmetry is turned on.
 R6Disp:  Grimme-D3(BJ) Dispersion energy=       -0.0035900815 Hartrees.
 Nuclear repulsion after empirical dispersion term =      103.4351813766 Hartrees.
 Leave Link  301 at Wed Aug 26 15:13:49 2020, MaxMem=  2097152000 cpu:         0.4
 (Enter /opt/cluster/programs/g09/g09_d.01/g09/l302.exe)
 NPDir=0 NMtPBC=     1 NCelOv=     1 NCel=       1 NClECP=     1 NCelD=      1
         NCelK=      1 NCelE2=     1 NClLst=     1 CellRange=     0.0.
 One-electron integrals computed using PRISM.
   1 Symmetry operations used in ECPInt.
 ECPInt:  NShTT=    5886 NPrTT=   14376 LenC2=    5781 LenP2D=   12183.
 LDataN:  DoStor=T MaxTD1= 8 Len=  415
 NBasis=   348 RedAO= T EigKep=  5.66D-05  NBF=   348
 NBsUse=   348 1.00D-06 EigRej= -1.00D+00 NBFU=   348
 Precomputing XC quadrature grid using
 IXCGrd= 4 IRadAn=           0 IRanWt=          -1 IRanGd=           0 AccXCQ= 0.00D+00.
 Generated NRdTot=       0 NPtTot=           0 NUsed=           0 NTot=          32
 NSgBfM=   428   428   428   428   428 MxSgAt=     8 MxSgA2=     8.
 Leave Link  302 at Wed Aug 26 15:13:50 2020, MaxMem=  2097152000 cpu:         3.1
 (Enter /opt/cluster/programs/g09/g09_d.01/g09/l303.exe)
 DipDrv:  MaxL=1.
 Leave Link  303 at Wed Aug 26 15:13:50 2020, MaxMem=  2097152000 cpu:         0.3
 (Enter /opt/cluster/programs/g09/g09_d.01/g09/l401.exe)
 ExpMin= 7.60D-02 ExpMax= 1.17D+05 ExpMxC= 1.13D+03 IAcc=2 IRadAn=         4 AccDes= 0.00D+00
 Harris functional with IExCor=  419 and IRadAn=       4 diagonalized for initial guess.
 HarFok:  IExCor=  419 AccDes= 0.00D+00 IRadAn=         4 IDoV= 1 UseB2=F ITyADJ=14
 ICtDFT=  3500011 ScaDFX=  1.000000  1.000000  1.000000  1.000000
 FoFCou: FMM=F IPFlag=           0 FMFlag=      100000 FMFlg1=           0
         NFxFlg=           0 DoJE=T BraDBF=F KetDBF=T FulRan=T
         wScrn=  0.000000 ICntrl=     500 IOpCl=  0 I1Cent=   200000004 NGrid=           0
         NMat0=    1 NMatS0=      1 NMatT0=    0 NMatD0=    1 NMtDS0=    0 NMtDT0=    0
 Petite list used in FoFCou.
 Harris En= -192.048327027653    
 JPrj=0 DoOrth=F DoCkMO=F.
 Leave Link  401 at Wed Aug 26 15:13:51 2020, MaxMem=  2097152000 cpu:         7.1
 (Enter /opt/cluster/programs/g09/g09_d.01/g09/l502.exe)
 Closed shell SCF:
 Using DIIS extrapolation, IDIIS=  1040.
 Integral symmetry usage will be decided dynamically.
 Keep R1 ints in memory in canonical form, NReq=1883905047.
 IVT=      574566 IEndB=      574566 NGot=  2097152000 MDV=   252723534
 LenX=   252723534 LenY=   252539909
 Requested convergence on RMS density matrix=1.00D-08 within 128 cycles.
 Requested convergence on MAX density matrix=1.00D-06.
 Requested convergence on             energy=1.00D-06.
 No special actions if energy rises.
 FoFCou: FMM=F IPFlag=           0 FMFlag=           0 FMFlg1=           0
         NFxFlg=           0 DoJE=F BraDBF=F KetDBF=F FulRan=T
         wScrn=  0.000000 ICntrl=     600 IOpCl=  0 I1Cent=           0 NGrid=           0
         NMat0=    1 NMatS0=  60726 NMatT0=    0 NMatD0=    1 NMtDS0=    0 NMtDT0=    0
 Symmetry not used in FoFCou.
 Integral accuracy reduced to 1.0D-05 until final iterations.

 Cycle   1  Pass 0  IDiag  1:
 E= -191.470132951031    
 DIIS: error= 2.64D-02 at cycle   1 NSaved=   1.
 NSaved= 1 IEnMin= 1 EnMin= -191.470132951031     IErMin= 1 ErrMin= 2.64D-02
 ErrMax= 2.64D-02  0.00D+00 EMaxC= 1.00D-01 BMatC= 2.59D-01 BMatP= 2.59D-01
 IDIUse=3 WtCom= 7.36D-01 WtEn= 2.64D-01
 Coeff-Com:  0.100D+01
 Coeff-En:   0.100D+01
 Coeff:      0.100D+01
 Gap=     0.291 Goal=   None    Shift=    0.000
 GapD=    0.291 DampG=1.000 DampE=0.500 DampFc=0.5000 IDamp=-1.
 Damping current iteration by 5.00D-01
 RMSDP=1.78D-03 MaxDP=2.19D-01              OVMax= 1.69D-01

 Cycle   2  Pass 0  IDiag  1:
 E= -191.540807140337     Delta-E=       -0.070674189306 Rises=F Damp=T
 DIIS: error= 9.38D-03 at cycle   2 NSaved=   2.
 NSaved= 2 IEnMin= 2 EnMin= -191.540807140337     IErMin= 2 ErrMin= 9.38D-03
 ErrMax= 9.38D-03  0.00D+00 EMaxC= 1.00D-01 BMatC= 3.39D-02 BMatP= 2.59D-01
 IDIUse=3 WtCom= 9.06D-01 WtEn= 9.38D-02
 Coeff-Com: -0.160D+00 0.116D+01
 Coeff-En:   0.000D+00 0.100D+01
 Coeff:     -0.145D+00 0.114D+01
 Gap=     0.351 Goal=   None    Shift=    0.000
 RMSDP=5.95D-04 MaxDP=7.25D-02 DE=-7.07D-02 OVMax= 1.32D-01

 Cycle   3  Pass 0  IDiag  1:
 E= -191.602801418744     Delta-E=       -0.061994278407 Rises=F Damp=F
 DIIS: error= 1.06D-02 at cycle   3 NSaved=   3.
 NSaved= 3 IEnMin= 3 EnMin= -191.602801418744     IErMin= 2 ErrMin= 9.38D-03
 ErrMax= 1.06D-02  0.00D+00 EMaxC= 1.00D-01 BMatC= 1.69D-02 BMatP= 3.39D-02
 IDIUse=3 WtCom= 8.94D-01 WtEn= 1.06D-01
 Coeff-Com: -0.191D+00 0.526D+00 0.666D+00
 Coeff-En:   0.000D+00 0.000D+00 0.100D+01
 Coeff:     -0.171D+00 0.470D+00 0.701D+00
 Gap=     0.335 Goal=   None    Shift=    0.000
 RMSDP=2.42D-04 MaxDP=1.80D-02 DE=-6.20D-02 OVMax= 4.85D-02

 Cycle   4  Pass 0  IDiag  1:
 E= -191.612079853109     Delta-E=       -0.009278434364 Rises=F Damp=F
 DIIS: error= 4.45D-03 at cycle   4 NSaved=   4.
 NSaved= 4 IEnMin= 4 EnMin= -191.612079853109     IErMin= 4 ErrMin= 4.45D-03
 ErrMax= 4.45D-03  0.00D+00 EMaxC= 1.00D-01 BMatC= 3.09D-03 BMatP= 1.69D-02
 IDIUse=3 WtCom= 9.55D-01 WtEn= 4.45D-02
 Coeff-Com: -0.585D-01 0.968D-01 0.363D+00 0.599D+00
 Coeff-En:   0.000D+00 0.000D+00 0.166D+00 0.834D+00
 Coeff:     -0.559D-01 0.925D-01 0.354D+00 0.610D+00
 Gap=     0.321 Goal=   None    Shift=    0.000
 RMSDP=9.93D-05 MaxDP=8.16D-03 DE=-9.28D-03 OVMax= 1.44D-02

 Cycle   5  Pass 0  IDiag  1:
 E= -191.614545617043     Delta-E=       -0.002465763934 Rises=F Damp=F
 DIIS: error= 3.26D-04 at cycle   5 NSaved=   5.
 NSaved= 5 IEnMin= 5 EnMin= -191.614545617043     IErMin= 5 ErrMin= 3.26D-04
 ErrMax= 3.26D-04  0.00D+00 EMaxC= 1.00D-01 BMatC= 1.24D-05 BMatP= 3.09D-03
 IDIUse=3 WtCom= 9.97D-01 WtEn= 3.26D-03
 Coeff-Com: -0.842D-02 0.108D-01 0.596D-01 0.135D+00 0.803D+00
 Coeff-En:   0.000D+00 0.000D+00 0.000D+00 0.000D+00 0.100D+01
 Coeff:     -0.839D-02 0.108D-01 0.594D-01 0.134D+00 0.804D+00
 Gap=     0.320 Goal=   None    Shift=    0.000
 RMSDP=8.07D-06 MaxDP=4.74D-04 DE=-2.47D-03 OVMax= 2.26D-03

 Initial convergence to 1.0D-05 achieved.  Increase integral accuracy.
 Cycle   6  Pass 1  IDiag  1:
 E= -191.614549084181     Delta-E=       -0.000003467137 Rises=F Damp=F
 DIIS: error= 1.06D-04 at cycle   1 NSaved=   1.
 NSaved= 1 IEnMin= 1 EnMin= -191.614549084181     IErMin= 1 ErrMin= 1.06D-04
 ErrMax= 1.06D-04  0.00D+00 EMaxC= 1.00D-01 BMatC= 1.63D-06 BMatP= 1.63D-06
 IDIUse=3 WtCom= 9.99D-01 WtEn= 1.06D-03
 Coeff-Com:  0.100D+01
 Coeff-En:   0.100D+01
 Coeff:      0.100D+01
 Gap=     0.321 Goal=   None    Shift=    0.000
 RMSDP=8.07D-06 MaxDP=4.74D-04 DE=-3.47D-06 OVMax= 7.57D-04

 Cycle   7  Pass 1  IDiag  1:
 E= -191.614550193475     Delta-E=       -0.000001109294 Rises=F Damp=F
 DIIS: error= 7.70D-05 at cycle   2 NSaved=   2.
 NSaved= 2 IEnMin= 2 EnMin= -191.614550193475     IErMin= 2 ErrMin= 7.70D-05
 ErrMax= 7.70D-05  0.00D+00 EMaxC= 1.00D-01 BMatC= 9.85D-07 BMatP= 1.63D-06
 IDIUse=1 WtCom= 1.00D+00 WtEn= 0.00D+00
 Coeff-Com:  0.430D+00 0.570D+00
 Coeff:      0.430D+00 0.570D+00
 Gap=     0.321 Goal=   None    Shift=    0.000
 RMSDP=1.83D-06 MaxDP=1.34D-04 DE=-1.11D-06 OVMax= 5.29D-04

 Cycle   8  Pass 1  IDiag  1:
 E= -191.614551119558     Delta-E=       -0.000000926083 Rises=F Damp=F
 DIIS: error= 1.35D-05 at cycle   3 NSaved=   3.
 NSaved= 3 IEnMin= 3 EnMin= -191.614551119558     IErMin= 3 ErrMin= 1.35D-05
 ErrMax= 1.35D-05  0.00D+00 EMaxC= 1.00D-01 BMatC= 6.76D-08 BMatP= 9.85D-07
 IDIUse=1 WtCom= 1.00D+00 WtEn= 0.00D+00
 Coeff-Com:  0.580D-01 0.186D+00 0.756D+00
 Coeff:      0.580D-01 0.186D+00 0.756D+00
 Gap=     0.321 Goal=   None    Shift=    0.000
 RMSDP=1.39D-06 MaxDP=1.57D-04 DE=-9.26D-07 OVMax= 1.10D-04

 Cycle   9  Pass 1  IDiag  1:
 E= -191.614551186692     Delta-E=       -0.000000067134 Rises=F Damp=F
 DIIS: error= 1.43D-05 at cycle   4 NSaved=   4.
 NSaved= 4 IEnMin= 4 EnMin= -191.614551186692     IErMin= 3 ErrMin= 1.35D-05
 ErrMax= 1.43D-05  0.00D+00 EMaxC= 1.00D-01 BMatC= 1.52D-08 BMatP= 6.76D-08
 IDIUse=1 WtCom= 1.00D+00 WtEn= 0.00D+00
 Coeff-Com: -0.106D+00-0.740D-01 0.361D+00 0.819D+00
 Coeff:     -0.106D+00-0.740D-01 0.361D+00 0.819D+00
 Gap=     0.321 Goal=   None    Shift=    0.000
 RMSDP=6.78D-07 MaxDP=7.14D-05 DE=-6.71D-08 OVMax= 1.03D-04

 Cycle  10  Pass 1  IDiag  1:
 E= -191.614551210259     Delta-E=       -0.000000023567 Rises=F Damp=F
 DIIS: error= 2.57D-06 at cycle   5 NSaved=   5.
 NSaved= 5 IEnMin= 5 EnMin= -191.614551210259     IErMin= 5 ErrMin= 2.57D-06
 ErrMax= 2.57D-06  0.00D+00 EMaxC= 1.00D-01 BMatC= 2.01D-09 BMatP= 1.52D-08
 IDIUse=1 WtCom= 1.00D+00 WtEn= 0.00D+00
 Coeff-Com: -0.468D-01-0.410D-01 0.818D-01 0.376D+00 0.630D+00
 Coeff:     -0.468D-01-0.410D-01 0.818D-01 0.376D+00 0.630D+00
 Gap=     0.321 Goal=   None    Shift=    0.000
 RMSDP=1.53D-07 MaxDP=1.65D-05 DE=-2.36D-08 OVMax= 1.87D-05

 Cycle  11  Pass 1  IDiag  1:
 E= -191.614551211792     Delta-E=       -0.000000001534 Rises=F Damp=F
 DIIS: error= 1.23D-06 at cycle   6 NSaved=   6.
 NSaved= 6 IEnMin= 6 EnMin= -191.614551211792     IErMin= 6 ErrMin= 1.23D-06
 ErrMax= 1.23D-06  0.00D+00 EMaxC= 1.00D-01 BMatC= 2.11D-10 BMatP= 2.01D-09
 IDIUse=1 WtCom= 1.00D+00 WtEn= 0.00D+00
 Coeff-Com:  0.605D-02 0.116D-02-0.620D-01-0.552D-02 0.221D+00 0.839D+00
 Coeff:      0.605D-02 0.116D-02-0.620D-01-0.552D-02 0.221D+00 0.839D+00
 Gap=     0.321 Goal=   None    Shift=    0.000
 RMSDP=5.39D-08 MaxDP=5.69D-06 DE=-1.53D-09 OVMax= 6.37D-06

 Cycle  12  Pass 1  IDiag  1:
 E= -191.614551212027     Delta-E=       -0.000000000234 Rises=F Damp=F
 DIIS: error= 2.65D-07 at cycle   7 NSaved=   7.
 NSaved= 7 IEnMin= 7 EnMin= -191.614551212027     IErMin= 7 ErrMin= 2.65D-07
 ErrMax= 2.65D-07  0.00D+00 EMaxC= 1.00D-01 BMatC= 1.55D-11 BMatP= 2.11D-10
 IDIUse=1 WtCom= 1.00D+00 WtEn= 0.00D+00
 Coeff-Com:  0.554D-02 0.342D-02-0.308D-01-0.238D-01 0.297D-01 0.298D+00
 Coeff-Com:  0.719D+00
 Coeff:      0.554D-02 0.342D-02-0.308D-01-0.238D-01 0.297D-01 0.298D+00
 Coeff:      0.719D+00
 Gap=     0.321 Goal=   None    Shift=    0.000
 RMSDP=9.07D-09 MaxDP=4.82D-07 DE=-2.34D-10 OVMax= 1.69D-06

 SCF Done:  E(RB2PLYPD3) =  -191.614551212     A.U. after   12 cycles
            NFock= 12  Conv=0.91D-08     -V/T= 2.0028
 KE= 1.910760244666D+02 PE=-6.549823932200D+02 EE= 1.688566361648D+02
 Leave Link  502 at Wed Aug 26 15:14:54 2020, MaxMem=  2097152000 cpu:       271.5
 (Enter /opt/cluster/programs/g09/g09_d.01/g09/l801.exe)
 DoSCS=T DFT=T ScalE2(SS,OS)=  0.270000  0.270000
 ExpMin= 7.60D-02 ExpMax= 1.17D+05 ExpMxC= 1.13D+03 IAcc=3 IRadAn=         5 AccDes= 0.00D+00
 HarFok:  IExCor=  205 AccDes= 0.00D+00 IRadAn=         5 IDoV=-2 UseB2=F ITyADJ=14
 ICtDFT= 12500011 ScaDFX=  1.000000  1.000000  1.000000  1.000000
 Largest valence mixing into a core orbital is  1.15D-04
 Largest core mixing into a valence orbital is  1.87D-05
 Range of M.O.s used for correlation:     5   348
 NBasis=   348 NAE=    15 NBE=    15 NFC=     4 NFV=     0
 NROrb=    344 NOA=    11 NOB=    11 NVA=   333 NVB=   333

 **** Warning!!: The largest alpha MO coefficient is  0.29993191D+02

 Leave Link  801 at Wed Aug 26 15:14:54 2020, MaxMem=  2097152000 cpu:         0.9
 (Enter /opt/cluster/programs/g09/g09_d.01/g09/l906.exe)
 DoSCS=T DFT=T ScalE2(SS,OS)=  0.270000  0.270000
 FulOut=F Deriv=F AODrv=F NAtomX=     8
   MMem=        1190  MDisk=          11 MDiskD=          11
  W3Min=     1567764 MinDsk=     2827057 NBas6D=         428
 NBas2D=       93150    NTT=       91806    LW2=     4508827
    MDV=  2096570378 MDiskM=       10875 NBas2p=       89573
 Fully direct method using O(OVN) memory.
 IMap=   1   2   3   4   5   6   7   8   9  10  11
 JobTyp=1 Pass  1:  I=   1 to  11 NPSUse=  8 ParTrn=T ParDer=T DoDerP=F.
 Spin components of T(2) and E(2):
     alpha-alpha T2 =       0.4342668966D-01 E2=     -0.2940623812D-01
     alpha-beta  T2 =       0.2644876196D+00 E2=     -0.1878150917D+00
     beta-beta   T2 =       0.4342668966D-01 E2=     -0.2940623812D-01
 The integrals were generated   1 times.
 E2(B2PLYPD3) =    -0.2466275680D+00 E(B2PLYPD3) =    -0.19186117878000D+03
 Leave Link  906 at Wed Aug 26 15:16:21 2020, MaxMem=  2097152000 cpu:       697.0
 (Enter /opt/cluster/programs/g09/g09_d.01/g09/l601.exe)
 Copying SCF densities to generalized density rwf, IOpCl= 0 IROHF=0.

 **********************************************************************

            Population analysis using the SCF density.

 **********************************************************************

 Orbital symmetries:
       Occupied  (A) (A) (A) (A) (A) (A) (A) (A) (A) (A) (A) (A)
                 (A) (A) (A)
       Virtual   (A) (A) (A) (A) (A) (A) (A) (A) (A) (A) (A) (A)
                 (A) (A) (A) (A) (A) (A) (A) (A) (A) (A) (A) (A)
                 (A) (A) (A) (A) (A) (A) (A) (A) (A) (A) (A) (A)
                 (A) (A) (A) (A) (A) (A) (A) (A) (A) (A) (A) (A)
                 (A) (A) (A) (A) (A) (A) (A) (A) (A) (A) (A) (A)
                 (A) (A) (A) (A) (A) (A) (A) (A) (A) (A) (A) (A)
                 (A) (A) (A) (A) (A) (A) (A) (A) (A) (A) (A) (A)
                 (A) (A) (A) (A) (A) (A) (A) (A) (A) (A) (A) (A)
                 (A) (A) (A) (A) (A) (A) (A) (A) (A) (A) (A) (A)
                 (A) (A) (A) (A) (A) (A) (A) (A) (A) (A) (A) (A)
                 (A) (A) (A) (A) (A) (A) (A) (A) (A) (A) (A) (A)
                 (A) (A) (A) (A) (A) (A) (A) (A) (A) (A) (A) (A)
                 (A) (A) (A) (A) (A) (A) (A) (A) (A) (A) (A) (A)
                 (A) (A) (A) (A) (A) (A) (A) (A) (A) (A) (A) (A)
                 (A) (A) (A) (A) (A) (A) (A) (A) (A) (A) (A) (A)
                 (A) (A) (A) (A) (A) (A) (A) (A) (A) (A) (A) (A)
                 (A) (A) (A) (A) (A) (A) (A) (A) (A) (A) (A) (A)
                 (A) (A) (A) (A) (A) (A) (A) (A) (A) (A) (A) (A)
                 (A) (A) (A) (A) (A) (A) (A) (A) (A) (A) (A) (A)
                 (A) (A) (A) (A) (A) (A) (A) (A) (A) (A) (A) (A)
                 (A) (A) (A) (A) (A) (A) (A) (A) (A) (A) (A) (A)
                 (A) (A) (A) (A) (A) (A) (A) (A) (A) (A) (A) (A)
                 (A) (A) (A) (A) (A) (A) (A) (A) (A) (A) (A) (A)
                 (A) (A) (A) (A) (A) (A) (A) (A) (A) (A) (A) (A)
                 (A) (A) (A) (A) (A) (A) (A) (A) (A) (A) (A) (A)
                 (A) (A) (A) (A) (A) (A) (A) (A) (A) (A) (A) (A)
                 (A) (A) (A) (A) (A) (A) (A) (A) (A) (A) (A) (A)
                 (A) (A) (A) (A) (A) (A) (A) (A) (A)
 The electronic state is 1-A.
 Alpha  occ. eigenvalues --  -19.72731 -10.71372 -10.65137 -10.64253  -1.19583
 Alpha  occ. eigenvalues --   -0.93062  -0.75757  -0.67239  -0.57057  -0.56372
 Alpha  occ. eigenvalues --   -0.50825  -0.47310  -0.46704  -0.34701  -0.33760
 Alpha virt. eigenvalues --   -0.01666   0.05807   0.07329   0.08213   0.09721
 Alpha virt. eigenvalues --    0.12604   0.14094   0.15367   0.17568   0.19682
 Alpha virt. eigenvalues --    0.19978   0.21855   0.25328   0.26489   0.28727
 Alpha virt. eigenvalues --    0.32089   0.33655   0.36420   0.37112   0.39032
 Alpha virt. eigenvalues --    0.39355   0.41979   0.42920   0.44455   0.46777
 Alpha virt. eigenvalues --    0.46963   0.49202   0.53959   0.54145   0.57041
 Alpha virt. eigenvalues --    0.58164   0.64639   0.66049   0.68648   0.71025
 Alpha virt. eigenvalues --    0.74907   0.76450   0.78127   0.79963   0.81076
 Alpha virt. eigenvalues --    0.81497   0.82490   0.82747   0.84091   0.86251
 Alpha virt. eigenvalues --    0.88131   0.91456   0.92636   0.94202   0.95651
 Alpha virt. eigenvalues --    0.96522   0.98101   1.01319   1.02008   1.07417
 Alpha virt. eigenvalues --    1.09688   1.12347   1.15320   1.17452   1.18082
 Alpha virt. eigenvalues --    1.21264   1.25737   1.28388   1.35945   1.40756
 Alpha virt. eigenvalues --    1.43255   1.47284   1.48729   1.55104   1.57639
 Alpha virt. eigenvalues --    1.59278   1.63249   1.66833   1.69173   1.70714
 Alpha virt. eigenvalues --    1.74325   1.75591   1.78137   1.81986   1.82756
 Alpha virt. eigenvalues --    1.86108   1.89256   1.90620   1.93245   1.94130
 Alpha virt. eigenvalues --    1.96430   1.98445   1.99648   2.01433   2.02915
 Alpha virt. eigenvalues --    2.06149   2.10169   2.11328   2.13409   2.14490
 Alpha virt. eigenvalues --    2.16527   2.18281   2.19914   2.23581   2.27672
 Alpha virt. eigenvalues --    2.29724   2.35672   2.37152   2.40420   2.44665
 Alpha virt. eigenvalues --    2.46040   2.47047   2.48224   2.49144   2.54185
 Alpha virt. eigenvalues --    2.55475   2.56849   2.59130   2.61279   2.63914
 Alpha virt. eigenvalues --    2.65413   2.67254   2.67562   2.72313   2.74864
 Alpha virt. eigenvalues --    2.76541   2.78719   2.86333   2.87559   2.88210
 Alpha virt. eigenvalues --    2.90691   2.96694   2.99780   3.01407   3.06210
 Alpha virt. eigenvalues --    3.17310   3.20447   3.30208   3.30580   3.33538
 Alpha virt. eigenvalues --    3.37893   3.39932   3.43708   3.46214   3.54419
 Alpha virt. eigenvalues --    3.54557   3.57448   3.62215   3.63951   3.65177
 Alpha virt. eigenvalues --    3.66037   3.76666   3.79077   3.80772   3.92523
 Alpha virt. eigenvalues --    3.96214   3.99918   4.03765   4.06089   4.07305
 Alpha virt. eigenvalues --    4.12784   4.19331   4.21559   4.26019   4.32736
 Alpha virt. eigenvalues --    4.40816   4.43220   4.55741   4.61143   4.62990
 Alpha virt. eigenvalues --    4.67965   4.82185   4.87999   4.91460   4.98028
 Alpha virt. eigenvalues --    5.03963   5.06665   5.09550   5.11667   5.13094
 Alpha virt. eigenvalues --    5.21644   5.27481   5.30240   5.33809   5.43123
 Alpha virt. eigenvalues --    5.44963   5.52094   5.52853   5.58555   5.60883
 Alpha virt. eigenvalues --    5.68466   5.71065   5.72731   5.77111   5.78750
 Alpha virt. eigenvalues --    5.79813   5.81480   5.86358   5.90423   5.95541
 Alpha virt. eigenvalues --    5.97562   5.98660   6.01610   6.06583   6.07572
 Alpha virt. eigenvalues --    6.08841   6.15985   6.16446   6.17246   6.19540
 Alpha virt. eigenvalues --    6.22709   6.25349   6.27371   6.30380   6.32275
 Alpha virt. eigenvalues --    6.35212   6.35378   6.40049   6.44610   6.46079
 Alpha virt. eigenvalues --    6.52609   6.55314   6.57280   6.61342   6.62170
 Alpha virt. eigenvalues --    6.63912   6.65617   6.72260   6.73803   6.81701
 Alpha virt. eigenvalues --    6.85118   6.86816   7.00156   7.03243   7.04436
 Alpha virt. eigenvalues --    7.07096   7.12606   7.15197   7.18036   7.27429
 Alpha virt. eigenvalues --    7.33657   7.42082   7.45396   7.50358   7.53985
 Alpha virt. eigenvalues --    7.57650   7.58431   7.60214   7.66160   7.67663
 Alpha virt. eigenvalues --    7.68668   7.69254   7.71450   7.74490   7.79658
 Alpha virt. eigenvalues --    7.88236   7.88412   7.92148   8.02261   8.05694
 Alpha virt. eigenvalues --    8.09997   8.12006   8.12738   8.15589   8.18346
 Alpha virt. eigenvalues --    8.23947   8.26503   8.28831   8.34415   8.35401
 Alpha virt. eigenvalues --    8.38430   8.45249   8.50169   8.53358   8.58221
 Alpha virt. eigenvalues --    8.61880   8.62590   8.67623   8.70440   8.73609
 Alpha virt. eigenvalues --    8.84083   8.95919   8.98532   9.05255   9.09164
 Alpha virt. eigenvalues --    9.09736   9.11156   9.21290   9.29937   9.37052
 Alpha virt. eigenvalues --    9.37518   9.44365   9.61333   9.74985   9.83106
 Alpha virt. eigenvalues --    9.87320   9.90229   9.94569   9.99570  10.02880
 Alpha virt. eigenvalues --   10.09447  10.12389  10.23840  10.27587  10.30082
 Alpha virt. eigenvalues --   10.46441  10.47708  10.56452  10.75024  11.03313
 Alpha virt. eigenvalues --   11.14078  11.25577  11.29097  11.33862  11.62519
 Alpha virt. eigenvalues --   11.66168  11.66561  11.79770  12.04241  12.11259
 Alpha virt. eigenvalues --   12.34039  12.36640  12.48139  12.58849  12.98646
 Alpha virt. eigenvalues --   13.17065  13.38605  13.79246  14.36457  14.74768
 Alpha virt. eigenvalues --   28.64726  28.91102  29.59249  48.66423 148.24403
 Alpha virt. eigenvalues --  148.47157 149.20614 254.42603
          Condensed to atoms (all electrons):
               1          2          3          4          5          6
     1  C    4.491341   0.625371   0.367818  -0.055430  -0.030315  -0.004351
     2  O    0.625371   7.881244  -0.089102   0.006111   0.007089   0.000387
     3  C    0.367818  -0.089102   5.169749   0.487000   0.362093  -0.048813
     4  C   -0.055430   0.006111   0.487000   4.861970  -0.037026   0.425179
     5  H   -0.030315   0.007089   0.362093  -0.037026   0.582840   0.005323
     6  H   -0.004351   0.000387  -0.048813   0.425179   0.005323   0.572671
     7  H    0.002816  -0.000624  -0.036271   0.418338  -0.004889  -0.040671
     8  H    0.445641  -0.082145  -0.168666   0.023428   0.009025   0.006553
               7          8
     1  C    0.002816   0.445641
     2  O   -0.000624  -0.082145
     3  C   -0.036271  -0.168666
     4  C    0.418338   0.023428
     5  H   -0.004889   0.009025
     6  H   -0.040671   0.006553
     7  H    0.557661  -0.000729
     8  H   -0.000729   0.696245
 Mulliken charges:
               1
     1  C    0.157109
     2  O   -0.348331
     3  C   -0.043808
     4  C   -0.129570
     5  H    0.105861
     6  H    0.083723
     7  H    0.104369
     8  H    0.070648
 Sum of Mulliken charges =   0.00000
 Mulliken charges with hydrogens summed into heavy atoms:
               1
     1  C    0.227757
     2  O   -0.348331
     3  C    0.062053
     4  C    0.058521
 Electronic spatial extent (au):  <R**2>=            297.7289
 Charge=              0.0000 electrons
 Dipole moment (field-independent basis, Debye):
    X=             -3.4878    Y=              0.7278    Z=             -0.0681  Tot=              3.5635
 Quadrupole moment (field-independent basis, Debye-Ang):
   XX=            -27.4390   YY=            -21.7005   ZZ=            -25.1487
   XY=              0.9107   XZ=             -0.2251   YZ=             -0.0507
 Traceless Quadrupole moment (field-independent basis, Debye-Ang):
   XX=             -2.6763   YY=              3.0622   ZZ=             -0.3859
   XY=              0.9107   XZ=             -0.2251   YZ=             -0.0507
 Octapole moment (field-independent basis, Debye-Ang**2):
  XXX=            -15.0343  YYY=             -0.0643  ZZZ=              0.0994  XYY=              0.1384
  XXY=              0.8199  XXZ=              0.1060  XZZ=              4.2242  YZZ=              0.0883
  YYZ=             -0.1102  XYZ=              0.1407
 Hexadecapole moment (field-independent basis, Debye-Ang**3):
 XXXX=           -302.1947 YYYY=            -55.0153 ZZZZ=            -27.3411 XXXY=              2.8810
 XXXZ=             -1.1551 YYYX=             -0.1263 YYYZ=             -0.1212 ZZZX=             -0.0097
 ZZZY=             -0.0642 XXYY=            -57.8606 XXZZ=            -56.8643 YYZZ=            -15.4574
 XXYZ=             -0.3705 YYXZ=              0.0720 ZZXY=             -0.2026
 N-N= 1.034351813766D+02 E-N=-6.549823623747D+02  KE= 1.910760244666D+02
 Leave Link  601 at Wed Aug 26 15:16:21 2020, MaxMem=  2097152000 cpu:         0.7
 (Enter /opt/cluster/programs/g09/g09_d.01/g09/l9999.exe)
 1\1\GINC-NODE10\SP\RB2PLYPD3-FC\def2QZVP\C3H4O1\BOITTIER\26-Aug-2020\0
 \\#p B2PLYPD3/Def2QZVP\\acrolein\\0,1\C,0,-5.000532,-1.389838,0.87499\
 O,0,-3.931182,-0.862209,0.678244\C,0,-5.19986,-2.832335,1.117248\C,0,-
 6.407427,-3.306931,1.423254\H,0,-4.328444,-3.438355,1.094348\H,0,-7.30
 384,-2.652743,1.401724\H,0,-6.548612,-4.2985,1.642024\H,0,-5.908815,-0
 .7799,0.88889\\Version=ES64L-G09RevD.01\State=1-A\HF=-191.6145512\MP2=
 -191.8611788\RMSD=9.065e-09\PG=C01 [X(C3H4O1)]\\@


      SCIENCE SANS CONSCIENCE N'EST QUE RUINE DE L'AME.

                                                  -- RABELAIS
 Job cpu time:       0 days  0 hours 16 minutes 22.3 seconds.
 File lengths (MBytes):  RWF=     49 Int=      0 D2E=      0 Chk=      7 Scr=      1
 Normal termination of Gaussian 09 at Wed Aug 26 15:16:21 2020.
