 Entering Gaussian System, Link 0=/opt/cluster/programs/g09/g09_d.01/g09//g09
 Input=/home/boittier/MDCM/nms_sampling/acrolein_geom.xyz.dir/energies/acrolein_491_energy.com
 Output=/scratch/boittier/acrolein_491_energy/acrolein_491_energy.out
 Initial command:
 /opt/cluster/programs/g09/g09_d.01/g09/l1.exe "/scratch/boittier/acrolein_491_energy/Gau-54976.inp" -scrdir="/scratch/boittier/acrolein_491_energy/"
 Entering Link 1 = /opt/cluster/programs/g09/g09_d.01/g09/l1.exe PID=     54977.
  
 Copyright (c) 1988,1990,1992,1993,1995,1998,2003,2009,2013,
            Gaussian, Inc.  All Rights Reserved.
  
 This is part of the Gaussian(R) 09 program.  It is based on
 the Gaussian(R) 03 system (copyright 2003, Gaussian, Inc.),
 the Gaussian(R) 98 system (copyright 1998, Gaussian, Inc.),
 the Gaussian(R) 94 system (copyright 1995, Gaussian, Inc.),
 the Gaussian 92(TM) system (copyright 1992, Gaussian, Inc.),
 the Gaussian 90(TM) system (copyright 1990, Gaussian, Inc.),
 the Gaussian 88(TM) system (copyright 1988, Gaussian, Inc.),
 the Gaussian 86(TM) system (copyright 1986, Carnegie Mellon
 University), and the Gaussian 82(TM) system (copyright 1983,
 Carnegie Mellon University). Gaussian is a federally registered
 trademark of Gaussian, Inc.
  
 This software contains proprietary and confidential information,
 including trade secrets, belonging to Gaussian, Inc.
  
 This software is provided under written license and may be
 used, copied, transmitted, or stored only in accord with that
 written license.
  
 The following legend is applicable only to US Government
 contracts under FAR:
  
                    RESTRICTED RIGHTS LEGEND
  
 Use, reproduction and disclosure by the US Government is
 subject to restrictions as set forth in subparagraphs (a)
 and (c) of the Commercial Computer Software - Restricted
 Rights clause in FAR 52.227-19.
  
 Gaussian, Inc.
 340 Quinnipiac St., Bldg. 40, Wallingford CT 06492
  
  
 ---------------------------------------------------------------
 Warning -- This program may not be used in any manner that
 competes with the business of Gaussian, Inc. or will provide
 assistance to any competitor of Gaussian, Inc.  The licensee
 of this program is prohibited from giving any competitor of
 Gaussian, Inc. access to this program.  By using this program,
 the user acknowledges that Gaussian, Inc. is engaged in the
 business of creating and licensing software in the field of
 computational chemistry and represents and warrants to the
 licensee that it is not a competitor of Gaussian, Inc. and that
 it will not use this program in any manner prohibited above.
 ---------------------------------------------------------------
  

 Cite this work as:
 Gaussian 09, Revision D.01,
 M. J. Frisch, G. W. Trucks, H. B. Schlegel, G. E. Scuseria, 
 M. A. Robb, J. R. Cheeseman, G. Scalmani, V. Barone, B. Mennucci, 
 G. A. Petersson, H. Nakatsuji, M. Caricato, X. Li, H. P. Hratchian, 
 A. F. Izmaylov, J. Bloino, G. Zheng, J. L. Sonnenberg, M. Hada, 
 M. Ehara, K. Toyota, R. Fukuda, J. Hasegawa, M. Ishida, T. Nakajima, 
 Y. Honda, O. Kitao, H. Nakai, T. Vreven, J. A. Montgomery, Jr., 
 J. E. Peralta, F. Ogliaro, M. Bearpark, J. J. Heyd, E. Brothers, 
 K. N. Kudin, V. N. Staroverov, T. Keith, R. Kobayashi, J. Normand, 
 K. Raghavachari, A. Rendell, J. C. Burant, S. S. Iyengar, J. Tomasi, 
 M. Cossi, N. Rega, J. M. Millam, M. Klene, J. E. Knox, J. B. Cross, 
 V. Bakken, C. Adamo, J. Jaramillo, R. Gomperts, R. E. Stratmann, 
 O. Yazyev, A. J. Austin, R. Cammi, C. Pomelli, J. W. Ochterski, 
 R. L. Martin, K. Morokuma, V. G. Zakrzewski, G. A. Voth, 
 P. Salvador, J. J. Dannenberg, S. Dapprich, A. D. Daniels, 
 O. Farkas, J. B. Foresman, J. V. Ortiz, J. Cioslowski, 
 and D. J. Fox, Gaussian, Inc., Wallingford CT, 2013.
 
 ******************************************
 Gaussian 09:  ES64L-G09RevD.01 24-Apr-2013
                26-Aug-2020 
 ******************************************
 %chk=/home/boittier/MDCM/nms_sampling/acrolein_geom.xyz.dir/acrolein_491.chk
 %nproc=8
 Will use up to    8 processors via shared memory.
 %mem=16000MB
 --------------------
 #p B2PLYPD3/Def2QZVP
 --------------------
 1/38=1/1;
 2/12=2,17=6,18=5,40=1/2;
 3/5=45,7=101,11=9,16=1,25=1,30=1,74=-60/1,2,3;
 4//1;
 5/5=2,38=5/2;
 8/10=1/1;
 9/16=-3/6;
 6/7=2,8=2,9=2,10=2/1;
 99/5=1,9=1/99;
 Leave Link    1 at Wed Aug 26 16:04:47 2020, MaxMem=  2097152000 cpu:         0.2
 (Enter /opt/cluster/programs/g09/g09_d.01/g09/l101.exe)
 --------
 acrolein
 --------
 Symbolic Z-matrix:
 Charge =  0 Multiplicity = 1
 C                    -5.00173  -1.38418   0.91747 
 O                    -3.93118  -0.866     0.64181 
 C                    -5.18939  -2.83036   1.15093 
 C                    -6.41704  -3.30139   1.39082 
 H                    -4.32209  -3.47039   1.14754 
 H                    -7.28287  -2.65633   1.34638 
 H                    -6.57842  -4.36507   1.60496 
 H                    -5.90042  -0.76718   0.98009 
 
 NAtoms=      8 NQM=        8 NQMF=       0 NMMI=      0 NMMIF=      0
                NMic=       0 NMicF=      0.
                    Isotopes and Nuclear Properties:
 (Nuclear quadrupole moments (NQMom) in fm**2, nuclear magnetic moments (NMagM)
  in nuclear magnetons)

  Atom         1           2           3           4           5           6           7           8
 IAtWgt=          12          16          12          12           1           1           1           1
 AtmWgt=  12.0000000  15.9949146  12.0000000  12.0000000   1.0078250   1.0078250   1.0078250   1.0078250
 NucSpn=           0           0           0           0           1           1           1           1
 AtZEff=   0.0000000   0.0000000   0.0000000   0.0000000   0.0000000   0.0000000   0.0000000   0.0000000
 NQMom=    0.0000000   0.0000000   0.0000000   0.0000000   0.0000000   0.0000000   0.0000000   0.0000000
 NMagM=    0.0000000   0.0000000   0.0000000   0.0000000   2.7928460   2.7928460   2.7928460   2.7928460
 AtZNuc=   6.0000000   8.0000000   6.0000000   6.0000000   1.0000000   1.0000000   1.0000000   1.0000000
 Leave Link  101 at Wed Aug 26 16:04:47 2020, MaxMem=  2097152000 cpu:         0.5
 (Enter /opt/cluster/programs/g09/g09_d.01/g09/l202.exe)
                          Input orientation:                          
 ---------------------------------------------------------------------
 Center     Atomic      Atomic             Coordinates (Angstroms)
 Number     Number       Type             X           Y           Z
 ---------------------------------------------------------------------
      1          6           0       -5.001725   -1.384183    0.917466
      2          8           0       -3.931180   -0.866002    0.641814
      3          6           0       -5.189392   -2.830363    1.150933
      4          6           0       -6.417041   -3.301389    1.390824
      5          1           0       -4.322087   -3.470394    1.147543
      6          1           0       -7.282869   -2.656325    1.346384
      7          1           0       -6.578418   -4.365073    1.604964
      8          1           0       -5.900416   -0.767184    0.980089
 ---------------------------------------------------------------------
                    Distance matrix (angstroms):
                    1          2          3          4          5
     1  C    0.000000
     2  O    1.220886   0.000000
     3  C    1.476876   2.387680   0.000000
     4  C    2.429581   3.559723   1.336613   0.000000
     5  H    2.206155   2.681684   1.077900   2.115793   0.000000
     6  H    2.646872   3.864647   2.109772   1.080620   3.077089
     7  H    3.441558   4.492107   2.119168   1.096960   2.469962
     8  H    1.091904   2.000521   2.188938   2.618740   3.134726
                    6          7          8
     6  H    0.000000
     7  H    1.866262   0.000000
     8  H    2.369431   3.714157   0.000000
 Stoichiometry    C3H4O
 Framework group  C1[X(C3H4O)]
 Deg. of freedom    18
 Full point group                 C1      NOp   1
 Largest Abelian subgroup         C1      NOp   1
 Largest concise Abelian subgroup C1      NOp   1
                         Standard orientation:                         
 ---------------------------------------------------------------------
 Center     Atomic      Atomic             Coordinates (Angstroms)
 Number     Number       Type             X           Y           Z
 ---------------------------------------------------------------------
      1          6           0       -0.668651    0.347521   -0.023120
      2          8           0       -1.795953   -0.119495    0.017482
      3          6           0        0.567093   -0.460987   -0.002796
      4          6           0        1.753133    0.155261    0.006238
      5          1           0        0.481194   -1.535289   -0.021957
      6          1           0        1.824439    1.231567    0.071206
      7          1           0        2.685847   -0.421648   -0.017055
      8          1           0       -0.533299    1.430564   -0.053979
 ---------------------------------------------------------------------
 Rotational constants (GHZ):     47.3481412      4.6572126      4.2415957
 Leave Link  202 at Wed Aug 26 16:04:47 2020, MaxMem=  2097152000 cpu:         0.0
 (Enter /opt/cluster/programs/g09/g09_d.01/g09/l301.exe)
 Standard basis: def2QZVP (5D, 7F)
 Ernie: Thresh=  0.10000D-02 Tol=  0.10000D-05 Strict=F.
 There are   428 symmetry adapted cartesian basis functions of A   symmetry.
 There are   348 symmetry adapted basis functions of A   symmetry.
   348 basis functions,   520 primitive gaussians,   428 cartesian basis functions
    15 alpha electrons       15 beta electrons
       nuclear repulsion energy       102.9226426568 Hartrees.
 IExCor=  419 DFT=T Ex+Corr=B2PLYPD3 ExCW=0 ScaHFX=  0.530000
 ScaDFX=  0.470000  0.470000  0.730000  0.730000 ScalE2=  0.270000  0.270000
 IRadAn=      0 IRanWt=     -1 IRanGd=            0 ICorTp=0 IEmpDi=141
 NAtoms=    8 NActive=    8 NUniq=    8 SFac= 1.00D+00 NAtFMM=   60 NAOKFM=F Big=F
 Integral buffers will be    131072 words long.
 Regular integral format.
 Two-electron integral symmetry is turned on.
 R6Disp:  Grimme-D3(BJ) Dispersion energy=       -0.0035828609 Hartrees.
 Nuclear repulsion after empirical dispersion term =      102.9190597960 Hartrees.
 Leave Link  301 at Wed Aug 26 16:04:47 2020, MaxMem=  2097152000 cpu:         0.4
 (Enter /opt/cluster/programs/g09/g09_d.01/g09/l302.exe)
 NPDir=0 NMtPBC=     1 NCelOv=     1 NCel=       1 NClECP=     1 NCelD=      1
         NCelK=      1 NCelE2=     1 NClLst=     1 CellRange=     0.0.
 One-electron integrals computed using PRISM.
   1 Symmetry operations used in ECPInt.
 ECPInt:  NShTT=    5886 NPrTT=   14376 LenC2=    5780 LenP2D=   12173.
 LDataN:  DoStor=T MaxTD1= 8 Len=  415
 NBasis=   348 RedAO= T EigKep=  5.95D-05  NBF=   348
 NBsUse=   348 1.00D-06 EigRej= -1.00D+00 NBFU=   348
 Precomputing XC quadrature grid using
 IXCGrd= 4 IRadAn=           0 IRanWt=          -1 IRanGd=           0 AccXCQ= 0.00D+00.
 Generated NRdTot=       0 NPtTot=           0 NUsed=           0 NTot=          32
 NSgBfM=   428   428   428   428   428 MxSgAt=     8 MxSgA2=     8.
 Leave Link  302 at Wed Aug 26 16:04:47 2020, MaxMem=  2097152000 cpu:         2.5
 (Enter /opt/cluster/programs/g09/g09_d.01/g09/l303.exe)
 DipDrv:  MaxL=1.
 Leave Link  303 at Wed Aug 26 16:04:47 2020, MaxMem=  2097152000 cpu:         0.3
 (Enter /opt/cluster/programs/g09/g09_d.01/g09/l401.exe)
 ExpMin= 7.60D-02 ExpMax= 1.17D+05 ExpMxC= 1.13D+03 IAcc=2 IRadAn=         4 AccDes= 0.00D+00
 Harris functional with IExCor=  419 and IRadAn=       4 diagonalized for initial guess.
 HarFok:  IExCor=  419 AccDes= 0.00D+00 IRadAn=         4 IDoV= 1 UseB2=F ITyADJ=14
 ICtDFT=  3500011 ScaDFX=  1.000000  1.000000  1.000000  1.000000
 FoFCou: FMM=F IPFlag=           0 FMFlag=      100000 FMFlg1=           0
         NFxFlg=           0 DoJE=T BraDBF=F KetDBF=T FulRan=T
         wScrn=  0.000000 ICntrl=     500 IOpCl=  0 I1Cent=   200000004 NGrid=           0
         NMat0=    1 NMatS0=      1 NMatT0=    0 NMatD0=    1 NMtDS0=    0 NMtDT0=    0
 Petite list used in FoFCou.
 Harris En= -192.045726912455    
 JPrj=0 DoOrth=F DoCkMO=F.
 Leave Link  401 at Wed Aug 26 16:04:48 2020, MaxMem=  2097152000 cpu:         5.9
 (Enter /opt/cluster/programs/g09/g09_d.01/g09/l502.exe)
 Closed shell SCF:
 Using DIIS extrapolation, IDIIS=  1040.
 Integral symmetry usage will be decided dynamically.
 Keep R1 ints in memory in canonical form, NReq=1883905047.
 IVT=      574566 IEndB=      574566 NGot=  2097152000 MDV=   252723534
 LenX=   252723534 LenY=   252539909
 Requested convergence on RMS density matrix=1.00D-08 within 128 cycles.
 Requested convergence on MAX density matrix=1.00D-06.
 Requested convergence on             energy=1.00D-06.
 No special actions if energy rises.
 FoFCou: FMM=F IPFlag=           0 FMFlag=           0 FMFlg1=           0
         NFxFlg=           0 DoJE=F BraDBF=F KetDBF=F FulRan=T
         wScrn=  0.000000 ICntrl=     600 IOpCl=  0 I1Cent=           0 NGrid=           0
         NMat0=    1 NMatS0=  60726 NMatT0=    0 NMatD0=    1 NMtDS0=    0 NMtDT0=    0
 Symmetry not used in FoFCou.
 Integral accuracy reduced to 1.0D-05 until final iterations.

 Cycle   1  Pass 0  IDiag  1:
 E= -191.475178980726    
 DIIS: error= 2.44D-02 at cycle   1 NSaved=   1.
 NSaved= 1 IEnMin= 1 EnMin= -191.475178980726     IErMin= 1 ErrMin= 2.44D-02
 ErrMax= 2.44D-02  0.00D+00 EMaxC= 1.00D-01 BMatC= 2.54D-01 BMatP= 2.54D-01
 IDIUse=3 WtCom= 7.56D-01 WtEn= 2.44D-01
 Coeff-Com:  0.100D+01
 Coeff-En:   0.100D+01
 Coeff:      0.100D+01
 Gap=     0.282 Goal=   None    Shift=    0.000
 GapD=    0.282 DampG=1.000 DampE=0.500 DampFc=0.5000 IDamp=-1.
 Damping current iteration by 5.00D-01
 RMSDP=1.87D-03 MaxDP=2.38D-01              OVMax= 1.74D-01

 Cycle   2  Pass 0  IDiag  1:
 E= -191.543119887672     Delta-E=       -0.067940906947 Rises=F Damp=T
 DIIS: error= 1.14D-02 at cycle   2 NSaved=   2.
 NSaved= 2 IEnMin= 2 EnMin= -191.543119887672     IErMin= 2 ErrMin= 1.14D-02
 ErrMax= 1.14D-02  0.00D+00 EMaxC= 1.00D-01 BMatC= 3.39D-02 BMatP= 2.54D-01
 IDIUse=3 WtCom= 8.86D-01 WtEn= 1.14D-01
 Coeff-Com: -0.145D+00 0.115D+01
 Coeff-En:   0.000D+00 0.100D+01
 Coeff:     -0.129D+00 0.113D+01
 Gap=     0.352 Goal=   None    Shift=    0.000
 RMSDP=6.38D-04 MaxDP=8.20D-02 DE=-6.79D-02 OVMax= 1.36D-01

 Cycle   3  Pass 0  IDiag  1:
 E= -191.603522771420     Delta-E=       -0.060402883748 Rises=F Damp=F
 DIIS: error= 9.37D-03 at cycle   3 NSaved=   3.
 NSaved= 3 IEnMin= 3 EnMin= -191.603522771420     IErMin= 3 ErrMin= 9.37D-03
 ErrMax= 9.37D-03  0.00D+00 EMaxC= 1.00D-01 BMatC= 1.77D-02 BMatP= 3.39D-02
 IDIUse=3 WtCom= 9.06D-01 WtEn= 9.37D-02
 Coeff-Com: -0.191D+00 0.527D+00 0.664D+00
 Coeff-En:   0.000D+00 0.000D+00 0.100D+01
 Coeff:     -0.173D+00 0.477D+00 0.696D+00
 Gap=     0.333 Goal=   None    Shift=    0.000
 RMSDP=2.46D-04 MaxDP=1.85D-02 DE=-6.04D-02 OVMax= 4.83D-02

 Cycle   4  Pass 0  IDiag  1:
 E= -191.613490317935     Delta-E=       -0.009967546515 Rises=F Damp=F
 DIIS: error= 3.84D-03 at cycle   4 NSaved=   4.
 NSaved= 4 IEnMin= 4 EnMin= -191.613490317935     IErMin= 4 ErrMin= 3.84D-03
 ErrMax= 3.84D-03  0.00D+00 EMaxC= 1.00D-01 BMatC= 3.02D-03 BMatP= 1.77D-02
 IDIUse=3 WtCom= 9.62D-01 WtEn= 3.84D-02
 Coeff-Com: -0.602D-01 0.996D-01 0.357D+00 0.603D+00
 Coeff-En:   0.000D+00 0.000D+00 0.155D+00 0.845D+00
 Coeff:     -0.579D-01 0.957D-01 0.350D+00 0.613D+00
 Gap=     0.321 Goal=   None    Shift=    0.000
 RMSDP=9.90D-05 MaxDP=8.20D-03 DE=-9.97D-03 OVMax= 1.45D-02

 Cycle   5  Pass 0  IDiag  1:
 E= -191.615951095150     Delta-E=       -0.002460777215 Rises=F Damp=F
 DIIS: error= 3.13D-04 at cycle   5 NSaved=   5.
 NSaved= 5 IEnMin= 5 EnMin= -191.615951095150     IErMin= 5 ErrMin= 3.13D-04
 ErrMax= 3.13D-04  0.00D+00 EMaxC= 1.00D-01 BMatC= 1.12D-05 BMatP= 3.02D-03
 IDIUse=3 WtCom= 9.97D-01 WtEn= 3.13D-03
 Coeff-Com: -0.799D-02 0.102D-01 0.536D-01 0.125D+00 0.819D+00
 Coeff-En:   0.000D+00 0.000D+00 0.000D+00 0.000D+00 0.100D+01
 Coeff:     -0.796D-02 0.101D-01 0.534D-01 0.124D+00 0.820D+00
 Gap=     0.320 Goal=   None    Shift=    0.000
 RMSDP=8.95D-06 MaxDP=6.92D-04 DE=-2.46D-03 OVMax= 2.24D-03

 Initial convergence to 1.0D-05 achieved.  Increase integral accuracy.
 Cycle   6  Pass 1  IDiag  1:
 E= -191.615952742474     Delta-E=       -0.000001647324 Rises=F Damp=F
 DIIS: error= 1.07D-04 at cycle   1 NSaved=   1.
 NSaved= 1 IEnMin= 1 EnMin= -191.615952742474     IErMin= 1 ErrMin= 1.07D-04
 ErrMax= 1.07D-04  0.00D+00 EMaxC= 1.00D-01 BMatC= 1.63D-06 BMatP= 1.63D-06
 IDIUse=3 WtCom= 9.99D-01 WtEn= 1.07D-03
 Coeff-Com:  0.100D+01
 Coeff-En:   0.100D+01
 Coeff:      0.100D+01
 Gap=     0.320 Goal=   None    Shift=    0.000
 RMSDP=8.95D-06 MaxDP=6.92D-04 DE=-1.65D-06 OVMax= 7.60D-04

 Cycle   7  Pass 1  IDiag  1:
 E= -191.615953975865     Delta-E=       -0.000001233391 Rises=F Damp=F
 DIIS: error= 6.99D-05 at cycle   2 NSaved=   2.
 NSaved= 2 IEnMin= 2 EnMin= -191.615953975865     IErMin= 2 ErrMin= 6.99D-05
 ErrMax= 6.99D-05  0.00D+00 EMaxC= 1.00D-01 BMatC= 9.25D-07 BMatP= 1.63D-06
 IDIUse=1 WtCom= 1.00D+00 WtEn= 0.00D+00
 Coeff-Com:  0.421D+00 0.579D+00
 Coeff:      0.421D+00 0.579D+00
 Gap=     0.320 Goal=   None    Shift=    0.000
 RMSDP=1.72D-06 MaxDP=1.15D-04 DE=-1.23D-06 OVMax= 4.82D-04

 Cycle   8  Pass 1  IDiag  1:
 E= -191.615954829774     Delta-E=       -0.000000853910 Rises=F Damp=F
 DIIS: error= 1.68D-05 at cycle   3 NSaved=   3.
 NSaved= 3 IEnMin= 3 EnMin= -191.615954829774     IErMin= 3 ErrMin= 1.68D-05
 ErrMax= 1.68D-05  0.00D+00 EMaxC= 1.00D-01 BMatC= 7.12D-08 BMatP= 9.25D-07
 IDIUse=1 WtCom= 1.00D+00 WtEn= 0.00D+00
 Coeff-Com:  0.574D-01 0.190D+00 0.752D+00
 Coeff:      0.574D-01 0.190D+00 0.752D+00
 Gap=     0.320 Goal=   None    Shift=    0.000
 RMSDP=1.50D-06 MaxDP=1.72D-04 DE=-8.54D-07 OVMax= 1.18D-04

 Cycle   9  Pass 1  IDiag  1:
 E= -191.615954896779     Delta-E=       -0.000000067005 Rises=F Damp=F
 DIIS: error= 1.44D-05 at cycle   4 NSaved=   4.
 NSaved= 4 IEnMin= 4 EnMin= -191.615954896779     IErMin= 4 ErrMin= 1.44D-05
 ErrMax= 1.44D-05  0.00D+00 EMaxC= 1.00D-01 BMatC= 1.91D-08 BMatP= 7.12D-08
 IDIUse=1 WtCom= 1.00D+00 WtEn= 0.00D+00
 Coeff-Com: -0.115D+00-0.857D-01 0.403D+00 0.798D+00
 Coeff:     -0.115D+00-0.857D-01 0.403D+00 0.798D+00
 Gap=     0.320 Goal=   None    Shift=    0.000
 RMSDP=7.42D-07 MaxDP=8.00D-05 DE=-6.70D-08 OVMax= 1.13D-04

 Cycle  10  Pass 1  IDiag  1:
 E= -191.615954925243     Delta-E=       -0.000000028464 Rises=F Damp=F
 DIIS: error= 2.28D-06 at cycle   5 NSaved=   5.
 NSaved= 5 IEnMin= 5 EnMin= -191.615954925243     IErMin= 5 ErrMin= 2.28D-06
 ErrMax= 2.28D-06  0.00D+00 EMaxC= 1.00D-01 BMatC= 1.55D-09 BMatP= 1.91D-08
 IDIUse=1 WtCom= 1.00D+00 WtEn= 0.00D+00
 Coeff-Com: -0.397D-01-0.371D-01 0.682D-01 0.307D+00 0.701D+00
 Coeff:     -0.397D-01-0.371D-01 0.682D-01 0.307D+00 0.701D+00
 Gap=     0.320 Goal=   None    Shift=    0.000
 RMSDP=1.41D-07 MaxDP=1.54D-05 DE=-2.85D-08 OVMax= 2.05D-05

 Cycle  11  Pass 1  IDiag  1:
 E= -191.615954926502     Delta-E=       -0.000000001258 Rises=F Damp=F
 DIIS: error= 1.14D-06 at cycle   6 NSaved=   6.
 NSaved= 6 IEnMin= 6 EnMin= -191.615954926502     IErMin= 6 ErrMin= 1.14D-06
 ErrMax= 1.14D-06  0.00D+00 EMaxC= 1.00D-01 BMatC= 2.28D-10 BMatP= 1.55D-09
 IDIUse=1 WtCom= 1.00D+00 WtEn= 0.00D+00
 Coeff-Com:  0.693D-02 0.179D-02-0.660D-01-0.757D-02 0.271D+00 0.794D+00
 Coeff:      0.693D-02 0.179D-02-0.660D-01-0.757D-02 0.271D+00 0.794D+00
 Gap=     0.320 Goal=   None    Shift=    0.000
 RMSDP=5.37D-08 MaxDP=5.75D-06 DE=-1.26D-09 OVMax= 5.84D-06

 Cycle  12  Pass 1  IDiag  1:
 E= -191.615954926745     Delta-E=       -0.000000000243 Rises=F Damp=F
 DIIS: error= 3.33D-07 at cycle   7 NSaved=   7.
 NSaved= 7 IEnMin= 7 EnMin= -191.615954926745     IErMin= 7 ErrMin= 3.33D-07
 ErrMax= 3.33D-07  0.00D+00 EMaxC= 1.00D-01 BMatC= 1.67D-11 BMatP= 2.28D-10
 IDIUse=1 WtCom= 1.00D+00 WtEn= 0.00D+00
 Coeff-Com:  0.582D-02 0.366D-02-0.332D-01-0.218D-01 0.488D-01 0.302D+00
 Coeff-Com:  0.695D+00
 Coeff:      0.582D-02 0.366D-02-0.332D-01-0.218D-01 0.488D-01 0.302D+00
 Coeff:      0.695D+00
 Gap=     0.320 Goal=   None    Shift=    0.000
 RMSDP=8.83D-09 MaxDP=4.68D-07 DE=-2.43D-10 OVMax= 2.07D-06

 SCF Done:  E(RB2PLYPD3) =  -191.615954927     A.U. after   12 cycles
            NFock= 12  Conv=0.88D-08     -V/T= 2.0036
 KE= 1.909279905935D+02 PE=-6.538577036378D+02 EE= 1.683946983216D+02
 Leave Link  502 at Wed Aug 26 16:05:46 2020, MaxMem=  2097152000 cpu:       239.6
 (Enter /opt/cluster/programs/g09/g09_d.01/g09/l801.exe)
 DoSCS=T DFT=T ScalE2(SS,OS)=  0.270000  0.270000
 ExpMin= 7.60D-02 ExpMax= 1.17D+05 ExpMxC= 1.13D+03 IAcc=3 IRadAn=         5 AccDes= 0.00D+00
 HarFok:  IExCor=  205 AccDes= 0.00D+00 IRadAn=         5 IDoV=-2 UseB2=F ITyADJ=14
 ICtDFT= 12500011 ScaDFX=  1.000000  1.000000  1.000000  1.000000
 DSYEVD-2 returned Info=        1739 IAlg= 4 N=    57 NDim=    57 NE2=    36785415 trying  DSYEV.
 Largest valence mixing into a core orbital is  1.16D-04
 Largest core mixing into a valence orbital is  1.90D-05
 Range of M.O.s used for correlation:     5   348
 NBasis=   348 NAE=    15 NBE=    15 NFC=     4 NFV=     0
 NROrb=    344 NOA=    11 NOB=    11 NVA=   333 NVB=   333

 **** Warning!!: The largest alpha MO coefficient is  0.31175072D+02

 Leave Link  801 at Wed Aug 26 16:05:46 2020, MaxMem=  2097152000 cpu:         0.8
 (Enter /opt/cluster/programs/g09/g09_d.01/g09/l906.exe)
 DoSCS=T DFT=T ScalE2(SS,OS)=  0.270000  0.270000
 FulOut=F Deriv=F AODrv=F NAtomX=     8
   MMem=        1190  MDisk=          11 MDiskD=          11
  W3Min=     1567764 MinDsk=     2827057 NBas6D=         428
 NBas2D=       93150    NTT=       91806    LW2=     4508827
    MDV=  2096571154 MDiskM=       10875 NBas2p=       89432
 Fully direct method using O(OVN) memory.
 IMap=   1   2   3   4   5   6   7   8   9  10  11
 JobTyp=1 Pass  1:  I=   1 to  11 NPSUse=  8 ParTrn=T ParDer=T DoDerP=F.
 Spin components of T(2) and E(2):
     alpha-alpha T2 =       0.4400962176D-01 E2=     -0.2952215272D-01
     alpha-beta  T2 =       0.2685129693D+00 E2=     -0.1885634180D+00
     beta-beta   T2 =       0.4400962176D-01 E2=     -0.2952215272D-01
 The integrals were generated   1 times.
 E2(B2PLYPD3) =    -0.2476077235D+00 E(B2PLYPD3) =    -0.19186356265024D+03
 Leave Link  906 at Wed Aug 26 16:06:33 2020, MaxMem=  2097152000 cpu:       375.9
 (Enter /opt/cluster/programs/g09/g09_d.01/g09/l601.exe)
 Copying SCF densities to generalized density rwf, IOpCl= 0 IROHF=0.

 **********************************************************************

            Population analysis using the SCF density.

 **********************************************************************

 Orbital symmetries:
       Occupied  (A) (A) (A) (A) (A) (A) (A) (A) (A) (A) (A) (A)
                 (A) (A) (A)
       Virtual   (A) (A) (A) (A) (A) (A) (A) (A) (A) (A) (A) (A)
                 (A) (A) (A) (A) (A) (A) (A) (A) (A) (A) (A) (A)
                 (A) (A) (A) (A) (A) (A) (A) (A) (A) (A) (A) (A)
                 (A) (A) (A) (A) (A) (A) (A) (A) (A) (A) (A) (A)
                 (A) (A) (A) (A) (A) (A) (A) (A) (A) (A) (A) (A)
                 (A) (A) (A) (A) (A) (A) (A) (A) (A) (A) (A) (A)
                 (A) (A) (A) (A) (A) (A) (A) (A) (A) (A) (A) (A)
                 (A) (A) (A) (A) (A) (A) (A) (A) (A) (A) (A) (A)
                 (A) (A) (A) (A) (A) (A) (A) (A) (A) (A) (A) (A)
                 (A) (A) (A) (A) (A) (A) (A) (A) (A) (A) (A) (A)
                 (A) (A) (A) (A) (A) (A) (A) (A) (A) (A) (A) (A)
                 (A) (A) (A) (A) (A) (A) (A) (A) (A) (A) (A) (A)
                 (A) (A) (A) (A) (A) (A) (A) (A) (A) (A) (A) (A)
                 (A) (A) (A) (A) (A) (A) (A) (A) (A) (A) (A) (A)
                 (A) (A) (A) (A) (A) (A) (A) (A) (A) (A) (A) (A)
                 (A) (A) (A) (A) (A) (A) (A) (A) (A) (A) (A) (A)
                 (A) (A) (A) (A) (A) (A) (A) (A) (A) (A) (A) (A)
                 (A) (A) (A) (A) (A) (A) (A) (A) (A) (A) (A) (A)
                 (A) (A) (A) (A) (A) (A) (A) (A) (A) (A) (A) (A)
                 (A) (A) (A) (A) (A) (A) (A) (A) (A) (A) (A) (A)
                 (A) (A) (A) (A) (A) (A) (A) (A) (A) (A) (A) (A)
                 (A) (A) (A) (A) (A) (A) (A) (A) (A) (A) (A) (A)
                 (A) (A) (A) (A) (A) (A) (A) (A) (A) (A) (A) (A)
                 (A) (A) (A) (A) (A) (A) (A) (A) (A) (A) (A) (A)
                 (A) (A) (A) (A) (A) (A) (A) (A) (A) (A) (A) (A)
                 (A) (A) (A) (A) (A) (A) (A) (A) (A) (A) (A) (A)
                 (A) (A) (A) (A) (A) (A) (A) (A) (A) (A) (A) (A)
                 (A) (A) (A) (A) (A) (A) (A) (A) (A)
 The electronic state is 1-A.
 Alpha  occ. eigenvalues --  -19.72720 -10.71614 -10.65655 -10.64566  -1.18833
 Alpha  occ. eigenvalues --   -0.92949  -0.75207  -0.67301  -0.56674  -0.56075
 Alpha  occ. eigenvalues --   -0.50234  -0.47186  -0.46346  -0.34609  -0.33843
 Alpha virt. eigenvalues --   -0.01814   0.05712   0.07110   0.07942   0.09692
 Alpha virt. eigenvalues --    0.12551   0.14039   0.15324   0.17518   0.19697
 Alpha virt. eigenvalues --    0.20083   0.21435   0.25272   0.26382   0.28853
 Alpha virt. eigenvalues --    0.31868   0.33169   0.35810   0.37410   0.38697
 Alpha virt. eigenvalues --    0.39703   0.41710   0.43022   0.44416   0.46065
 Alpha virt. eigenvalues --    0.46587   0.49168   0.53869   0.54199   0.56741
 Alpha virt. eigenvalues --    0.57728   0.64398   0.65884   0.67629   0.70938
 Alpha virt. eigenvalues --    0.75208   0.76574   0.77873   0.79889   0.80710
 Alpha virt. eigenvalues --    0.81435   0.82305   0.82472   0.84138   0.86098
 Alpha virt. eigenvalues --    0.87641   0.91561   0.92224   0.93418   0.95648
 Alpha virt. eigenvalues --    0.96310   0.97396   1.01152   1.02042   1.07712
 Alpha virt. eigenvalues --    1.09744   1.11842   1.16258   1.16830   1.18069
 Alpha virt. eigenvalues --    1.20010   1.25811   1.28353   1.34431   1.39102
 Alpha virt. eigenvalues --    1.43456   1.47318   1.47963   1.55225   1.57033
 Alpha virt. eigenvalues --    1.62049   1.63149   1.64961   1.66837   1.69580
 Alpha virt. eigenvalues --    1.74364   1.76551   1.77141   1.82144   1.82901
 Alpha virt. eigenvalues --    1.86261   1.89465   1.90819   1.93797   1.94051
 Alpha virt. eigenvalues --    1.96187   1.98381   1.99370   2.02016   2.02598
 Alpha virt. eigenvalues --    2.06531   2.09837   2.11817   2.13355   2.14195
 Alpha virt. eigenvalues --    2.16557   2.17817   2.19230   2.22084   2.27037
 Alpha virt. eigenvalues --    2.28977   2.35165   2.37484   2.39075   2.43321
 Alpha virt. eigenvalues --    2.45635   2.46508   2.48628   2.50172   2.53183
 Alpha virt. eigenvalues --    2.54722   2.57304   2.58742   2.60896   2.63846
 Alpha virt. eigenvalues --    2.65491   2.65712   2.67660   2.69374   2.74380
 Alpha virt. eigenvalues --    2.75105   2.78495   2.85495   2.87390   2.87893
 Alpha virt. eigenvalues --    2.88587   2.94897   2.99532   3.00298   3.05404
 Alpha virt. eigenvalues --    3.16878   3.18990   3.29393   3.30041   3.33593
 Alpha virt. eigenvalues --    3.34065   3.40222   3.41764   3.45412   3.48263
 Alpha virt. eigenvalues --    3.49422   3.54468   3.60388   3.61766   3.63905
 Alpha virt. eigenvalues --    3.67074   3.74445   3.78141   3.80992   3.91010
 Alpha virt. eigenvalues --    3.93075   3.98637   4.02254   4.03108   4.04832
 Alpha virt. eigenvalues --    4.10148   4.18066   4.20315   4.24870   4.31420
 Alpha virt. eigenvalues --    4.39297   4.41535   4.54165   4.60237   4.62594
 Alpha virt. eigenvalues --    4.66982   4.81231   4.88482   4.90742   4.97870
 Alpha virt. eigenvalues --    5.03236   5.04708   5.08275   5.10216   5.10903
 Alpha virt. eigenvalues --    5.19818   5.26902   5.31105   5.34316   5.42867
 Alpha virt. eigenvalues --    5.45548   5.52923   5.54169   5.58719   5.58900
 Alpha virt. eigenvalues --    5.67148   5.68448   5.71934   5.72955   5.78068
 Alpha virt. eigenvalues --    5.78586   5.81485   5.84960   5.91024   5.94608
 Alpha virt. eigenvalues --    5.96049   5.98408   6.00543   6.05386   6.07535
 Alpha virt. eigenvalues --    6.08982   6.15644   6.16033   6.17154   6.19098
 Alpha virt. eigenvalues --    6.22695   6.23594   6.26786   6.28076   6.29355
 Alpha virt. eigenvalues --    6.32535   6.35904   6.36961   6.43008   6.44934
 Alpha virt. eigenvalues --    6.48482   6.50273   6.52546   6.54563   6.59794
 Alpha virt. eigenvalues --    6.61863   6.67416   6.69478   6.73086   6.77268
 Alpha virt. eigenvalues --    6.82954   6.83198   6.95182   6.98394   7.00692
 Alpha virt. eigenvalues --    7.05166   7.08082   7.10734   7.16029   7.24146
 Alpha virt. eigenvalues --    7.31247   7.37461   7.45597   7.50763   7.51563
 Alpha virt. eigenvalues --    7.56497   7.57214   7.58164   7.64454   7.65593
 Alpha virt. eigenvalues --    7.67046   7.69488   7.71210   7.73476   7.78842
 Alpha virt. eigenvalues --    7.84909   7.86314   7.90127   8.01580   8.05569
 Alpha virt. eigenvalues --    8.07710   8.10368   8.13344   8.15140   8.16249
 Alpha virt. eigenvalues --    8.19901   8.25483   8.28188   8.32485   8.33798
 Alpha virt. eigenvalues --    8.36485   8.40179   8.44455   8.51883   8.54452
 Alpha virt. eigenvalues --    8.56215   8.58046   8.61858   8.66083   8.70594
 Alpha virt. eigenvalues --    8.81264   8.88416   8.91305   8.96411   9.07791
 Alpha virt. eigenvalues --    9.08313   9.10149   9.17762   9.26763   9.29806
 Alpha virt. eigenvalues --    9.35484   9.42277   9.56602   9.69600   9.76510
 Alpha virt. eigenvalues --    9.85164   9.88971   9.89571   9.91083   9.94468
 Alpha virt. eigenvalues --   10.00008  10.03644  10.19799  10.22691  10.24824
 Alpha virt. eigenvalues --   10.29512  10.35526  10.50652  10.67320  10.90469
 Alpha virt. eigenvalues --   11.01460  11.25293  11.26137  11.30164  11.52845
 Alpha virt. eigenvalues --   11.65526  11.75586  11.85091  12.03829  12.08604
 Alpha virt. eigenvalues --   12.32989  12.35881  12.47191  12.60268  12.99836
 Alpha virt. eigenvalues --   13.09970  13.32771  13.72957  14.36206  14.65231
 Alpha virt. eigenvalues --   28.62071  28.87448  29.49145  48.63949 148.20573
 Alpha virt. eigenvalues --  148.42999 149.08686 254.39774
          Condensed to atoms (all electrons):
               1          2          3          4          5          6
     1  C    4.500290   0.618969   0.364035  -0.053968  -0.027802  -0.004231
     2  O    0.618969   7.891122  -0.089014   0.006312   0.004910   0.000451
     3  C    0.364035  -0.089014   5.166031   0.477086   0.369486  -0.049692
     4  C   -0.053968   0.006312   0.477086   4.875550  -0.037646   0.424604
     5  H   -0.027802   0.004910   0.369486  -0.037646   0.576189   0.005097
     6  H   -0.004231   0.000451  -0.049692   0.424604   0.005097   0.570535
     7  H    0.002658  -0.000566  -0.033063   0.413706  -0.004897  -0.039929
     8  H    0.448093  -0.078565  -0.164740   0.025319   0.007442   0.005597
               7          8
     1  C    0.002658   0.448093
     2  O   -0.000566  -0.078565
     3  C   -0.033063  -0.164740
     4  C    0.413706   0.025319
     5  H   -0.004897   0.007442
     6  H   -0.039929   0.005597
     7  H    0.562628  -0.000608
     8  H   -0.000608   0.679565
 Mulliken charges:
               1
     1  C    0.151956
     2  O   -0.353619
     3  C   -0.040128
     4  C   -0.130964
     5  H    0.107221
     6  H    0.087567
     7  H    0.100070
     8  H    0.077897
 Sum of Mulliken charges =   0.00000
 Mulliken charges with hydrogens summed into heavy atoms:
               1
     1  C    0.229852
     2  O   -0.353619
     3  C    0.067093
     4  C    0.056674
 Electronic spatial extent (au):  <R**2>=            299.2440
 Charge=              0.0000 electrons
 Dipole moment (field-independent basis, Debye):
    X=              3.5418    Y=              0.7778    Z=             -0.0594  Tot=              3.6267
 Quadrupole moment (field-independent basis, Debye-Ang):
   XX=            -27.6483   YY=            -21.5927   ZZ=            -25.2594
   XY=             -0.9970   XZ=              0.1424   YZ=              0.1090
 Traceless Quadrupole moment (field-independent basis, Debye-Ang):
   XX=             -2.8148   YY=              3.2408   ZZ=             -0.4259
   XY=             -0.9970   XZ=              0.1424   YZ=              0.1090
 Octapole moment (field-independent basis, Debye-Ang**2):
  XXX=             15.1177  YYY=              0.0685  ZZZ=              0.0465  XYY=             -0.1132
  XXY=              0.6908  XXZ=             -0.1002  XZZ=             -4.3298  YZZ=              0.1920
  YYZ=              0.0431  XYZ=              0.2060
 Hexadecapole moment (field-independent basis, Debye-Ang**3):
 XXXX=           -305.1180 YYYY=            -54.8681 ZZZZ=            -27.5040 XXXY=             -3.2823
 XXXZ=             -0.0413 YYYX=              0.0052 YYYZ=              0.2751 ZZZX=             -0.0750
 ZZZY=              0.0790 XXYY=            -58.3808 XXZZ=            -57.6543 YYZZ=            -15.5405
 XXYZ=              0.4409 YYXZ=              0.2037 ZZXY=              0.3703
 N-N= 1.029190597960D+02 E-N=-6.538576707212D+02  KE= 1.909279905935D+02
 Leave Link  601 at Wed Aug 26 16:06:33 2020, MaxMem=  2097152000 cpu:         0.5
 (Enter /opt/cluster/programs/g09/g09_d.01/g09/l9999.exe)
 1\1\GINC-NODE32\SP\RB2PLYPD3-FC\def2QZVP\C3H4O1\BOITTIER\26-Aug-2020\0
 \\#p B2PLYPD3/Def2QZVP\\acrolein\\0,1\C,0,-5.001725,-1.384183,0.917466
 \O,0,-3.93118,-0.866002,0.641814\C,0,-5.189392,-2.830363,1.150933\C,0,
 -6.417041,-3.301389,1.390824\H,0,-4.322087,-3.470394,1.147543\H,0,-7.2
 82869,-2.656325,1.346384\H,0,-6.578418,-4.365073,1.604964\H,0,-5.90041
 6,-0.767184,0.980089\\Version=ES64L-G09RevD.01\State=1-A\HF=-191.61595
 49\MP2=-191.8635627\RMSD=8.835e-09\PG=C01 [X(C3H4O1)]\\@


 YE HAVE SOWN MUCH, AND BRING IN LITTLE.
 YE EAT, BUT YE HAVE NOT ENOUGH.
 YE DRINK, BUT YE ARE NOT FILLED WITH DRINK.
 YE CLOTHE YOU, BUT THERE IS NONE WARM.
 AND HE THAT EARNETH WAGES EARNETH WAGES TO PUT
 IT INTO A BAG WITH HOLES.
                                     HAGGAI I,6
 Job cpu time:       0 days  0 hours 10 minutes 27.4 seconds.
 File lengths (MBytes):  RWF=     49 Int=      0 D2E=      0 Chk=      7 Scr=      1
 Normal termination of Gaussian 09 at Wed Aug 26 16:06:33 2020.
