 Entering Gaussian System, Link 0=/opt/cluster/programs/g09/g09_d.01/g09//g09
 Input=/home/boittier/MDCM/nms_sampling/acrolein_geom.xyz.dir/energies/acrolein_2576_energy.com
 Output=/scratch/boittier/acrolein_2576_energy/acrolein_2576_energy.out
 Initial command:
 /opt/cluster/programs/g09/g09_d.01/g09/l1.exe "/scratch/boittier/acrolein_2576_energy/Gau-31638.inp" -scrdir="/scratch/boittier/acrolein_2576_energy/"
 Entering Link 1 = /opt/cluster/programs/g09/g09_d.01/g09/l1.exe PID=     31639.
  
 Copyright (c) 1988,1990,1992,1993,1995,1998,2003,2009,2013,
            Gaussian, Inc.  All Rights Reserved.
  
 This is part of the Gaussian(R) 09 program.  It is based on
 the Gaussian(R) 03 system (copyright 2003, Gaussian, Inc.),
 the Gaussian(R) 98 system (copyright 1998, Gaussian, Inc.),
 the Gaussian(R) 94 system (copyright 1995, Gaussian, Inc.),
 the Gaussian 92(TM) system (copyright 1992, Gaussian, Inc.),
 the Gaussian 90(TM) system (copyright 1990, Gaussian, Inc.),
 the Gaussian 88(TM) system (copyright 1988, Gaussian, Inc.),
 the Gaussian 86(TM) system (copyright 1986, Carnegie Mellon
 University), and the Gaussian 82(TM) system (copyright 1983,
 Carnegie Mellon University). Gaussian is a federally registered
 trademark of Gaussian, Inc.
  
 This software contains proprietary and confidential information,
 including trade secrets, belonging to Gaussian, Inc.
  
 This software is provided under written license and may be
 used, copied, transmitted, or stored only in accord with that
 written license.
  
 The following legend is applicable only to US Government
 contracts under FAR:
  
                    RESTRICTED RIGHTS LEGEND
  
 Use, reproduction and disclosure by the US Government is
 subject to restrictions as set forth in subparagraphs (a)
 and (c) of the Commercial Computer Software - Restricted
 Rights clause in FAR 52.227-19.
  
 Gaussian, Inc.
 340 Quinnipiac St., Bldg. 40, Wallingford CT 06492
  
  
 ---------------------------------------------------------------
 Warning -- This program may not be used in any manner that
 competes with the business of Gaussian, Inc. or will provide
 assistance to any competitor of Gaussian, Inc.  The licensee
 of this program is prohibited from giving any competitor of
 Gaussian, Inc. access to this program.  By using this program,
 the user acknowledges that Gaussian, Inc. is engaged in the
 business of creating and licensing software in the field of
 computational chemistry and represents and warrants to the
 licensee that it is not a competitor of Gaussian, Inc. and that
 it will not use this program in any manner prohibited above.
 ---------------------------------------------------------------
  

 Cite this work as:
 Gaussian 09, Revision D.01,
 M. J. Frisch, G. W. Trucks, H. B. Schlegel, G. E. Scuseria, 
 M. A. Robb, J. R. Cheeseman, G. Scalmani, V. Barone, B. Mennucci, 
 G. A. Petersson, H. Nakatsuji, M. Caricato, X. Li, H. P. Hratchian, 
 A. F. Izmaylov, J. Bloino, G. Zheng, J. L. Sonnenberg, M. Hada, 
 M. Ehara, K. Toyota, R. Fukuda, J. Hasegawa, M. Ishida, T. Nakajima, 
 Y. Honda, O. Kitao, H. Nakai, T. Vreven, J. A. Montgomery, Jr., 
 J. E. Peralta, F. Ogliaro, M. Bearpark, J. J. Heyd, E. Brothers, 
 K. N. Kudin, V. N. Staroverov, T. Keith, R. Kobayashi, J. Normand, 
 K. Raghavachari, A. Rendell, J. C. Burant, S. S. Iyengar, J. Tomasi, 
 M. Cossi, N. Rega, J. M. Millam, M. Klene, J. E. Knox, J. B. Cross, 
 V. Bakken, C. Adamo, J. Jaramillo, R. Gomperts, R. E. Stratmann, 
 O. Yazyev, A. J. Austin, R. Cammi, C. Pomelli, J. W. Ochterski, 
 R. L. Martin, K. Morokuma, V. G. Zakrzewski, G. A. Voth, 
 P. Salvador, J. J. Dannenberg, S. Dapprich, A. D. Daniels, 
 O. Farkas, J. B. Foresman, J. V. Ortiz, J. Cioslowski, 
 and D. J. Fox, Gaussian, Inc., Wallingford CT, 2013.
 
 ******************************************
 Gaussian 09:  ES64L-G09RevD.01 24-Apr-2013
                26-Aug-2020 
 ******************************************
 %chk=/home/boittier/MDCM/nms_sampling/acrolein_geom.xyz.dir/acrolein_2576.chk
 %nproc=8
 Will use up to    8 processors via shared memory.
 %mem=16000MB
 --------------------
 #p B2PLYPD3/Def2QZVP
 --------------------
 1/38=1/1;
 2/12=2,17=6,18=5,40=1/2;
 3/5=45,7=101,11=9,16=1,25=1,30=1,74=-60/1,2,3;
 4//1;
 5/5=2,38=5/2;
 8/10=1/1;
 9/16=-3/6;
 6/7=2,8=2,9=2,10=2/1;
 99/5=1,9=1/99;
 Leave Link    1 at Wed Aug 26 14:26:20 2020, MaxMem=  2097152000 cpu:         0.2
 (Enter /opt/cluster/programs/g09/g09_d.01/g09/l101.exe)
 --------
 acrolein
 --------
 Symbolic Z-matrix:
 Charge =  0 Multiplicity = 1
 C                    -5.01673  -1.36582   0.90783 
 O                    -3.90946  -0.90015   0.62539 
 C                    -5.21278  -2.75398   1.21412 
 C                    -6.39957  -3.33454   1.37777 
 H                    -4.31871  -3.4399    1.09014 
 H                    -7.25309  -2.73347   1.44469 
 H                    -6.6557   -4.54259   1.30973 
 H                    -5.95799  -0.74714   1.00771 
 
 NAtoms=      8 NQM=        8 NQMF=       0 NMMI=      0 NMMIF=      0
                NMic=       0 NMicF=      0.
                    Isotopes and Nuclear Properties:
 (Nuclear quadrupole moments (NQMom) in fm**2, nuclear magnetic moments (NMagM)
  in nuclear magnetons)

  Atom         1           2           3           4           5           6           7           8
 IAtWgt=          12          16          12          12           1           1           1           1
 AtmWgt=  12.0000000  15.9949146  12.0000000  12.0000000   1.0078250   1.0078250   1.0078250   1.0078250
 NucSpn=           0           0           0           0           1           1           1           1
 AtZEff=   0.0000000   0.0000000   0.0000000   0.0000000   0.0000000   0.0000000   0.0000000   0.0000000
 NQMom=    0.0000000   0.0000000   0.0000000   0.0000000   0.0000000   0.0000000   0.0000000   0.0000000
 NMagM=    0.0000000   0.0000000   0.0000000   0.0000000   2.7928460   2.7928460   2.7928460   2.7928460
 AtZNuc=   6.0000000   8.0000000   6.0000000   6.0000000   1.0000000   1.0000000   1.0000000   1.0000000
 Leave Link  101 at Wed Aug 26 14:26:20 2020, MaxMem=  2097152000 cpu:         0.5
 (Enter /opt/cluster/programs/g09/g09_d.01/g09/l202.exe)
                          Input orientation:                          
 ---------------------------------------------------------------------
 Center     Atomic      Atomic             Coordinates (Angstroms)
 Number     Number       Type             X           Y           Z
 ---------------------------------------------------------------------
      1          6           0       -5.016733   -1.365821    0.907829
      2          8           0       -3.909463   -0.900148    0.625387
      3          6           0       -5.212777   -2.753976    1.214122
      4          6           0       -6.399566   -3.334544    1.377770
      5          1           0       -4.318709   -3.439896    1.090139
      6          1           0       -7.253093   -2.733468    1.444690
      7          1           0       -6.655698   -4.542593    1.309732
      8          1           0       -5.957986   -0.747136    1.007713
 ---------------------------------------------------------------------
                    Distance matrix (angstroms):
                    1          2          3          4          5
     1  C    0.000000
     2  O    1.233966   0.000000
     3  C    1.434999   2.341349   0.000000
     4  C    2.451314   3.562720   1.331281   0.000000
     5  H    2.195965   2.614153   1.133674   2.103282   0.000000
     6  H    2.675815   3.900280   2.053405   1.046078   3.038973
     7  H    3.597167   4.612758   2.300068   1.236776   2.593391
     8  H    1.130798   2.089505   2.150662   2.650776   3.153566
                    6          7          8
     6  H    0.000000
     7  H    1.909981   0.000000
     8  H    2.411175   3.870854   0.000000
 Stoichiometry    C3H4O
 Framework group  C1[X(C3H4O)]
 Deg. of freedom    18
 Full point group                 C1      NOp   1
 Largest Abelian subgroup         C1      NOp   1
 Largest concise Abelian subgroup C1      NOp   1
                         Standard orientation:                         
 ---------------------------------------------------------------------
 Center     Atomic      Atomic             Coordinates (Angstroms)
 Number     Number       Type             X           Y           Z
 ---------------------------------------------------------------------
      1          6           0       -0.676457    0.374339   -0.004045
      2          8           0       -1.791365   -0.152668    0.039732
      3          6           0        0.534065   -0.391238   -0.092083
      4          6           0        1.761113    0.115397    0.007825
      5          1           0        0.436854   -1.518423   -0.019843
      6          1           0        1.883171    1.154266   -0.003744
      7          1           0        2.802655   -0.496940    0.272116
      8          1           0       -0.504086    1.491449   -0.036573
 ---------------------------------------------------------------------
 Rotational constants (GHZ):     48.6140086      4.6267726      4.2385319
 Leave Link  202 at Wed Aug 26 14:26:20 2020, MaxMem=  2097152000 cpu:         0.0
 (Enter /opt/cluster/programs/g09/g09_d.01/g09/l301.exe)
 Standard basis: def2QZVP (5D, 7F)
 Ernie: Thresh=  0.10000D-02 Tol=  0.10000D-05 Strict=F.
 There are   428 symmetry adapted cartesian basis functions of A   symmetry.
 There are   348 symmetry adapted basis functions of A   symmetry.
   348 basis functions,   520 primitive gaussians,   428 cartesian basis functions
    15 alpha electrons       15 beta electrons
       nuclear repulsion energy       102.5836864314 Hartrees.
 IExCor=  419 DFT=T Ex+Corr=B2PLYPD3 ExCW=0 ScaHFX=  0.530000
 ScaDFX=  0.470000  0.470000  0.730000  0.730000 ScalE2=  0.270000  0.270000
 IRadAn=      0 IRanWt=     -1 IRanGd=            0 ICorTp=0 IEmpDi=141
 NAtoms=    8 NActive=    8 NUniq=    8 SFac= 1.00D+00 NAtFMM=   60 NAOKFM=F Big=F
 Integral buffers will be    131072 words long.
 Regular integral format.
 Two-electron integral symmetry is turned on.
 R6Disp:  Grimme-D3(BJ) Dispersion energy=       -0.0035693271 Hartrees.
 Nuclear repulsion after empirical dispersion term =      102.5801171043 Hartrees.
 Leave Link  301 at Wed Aug 26 14:26:20 2020, MaxMem=  2097152000 cpu:         0.4
 (Enter /opt/cluster/programs/g09/g09_d.01/g09/l302.exe)
 NPDir=0 NMtPBC=     1 NCelOv=     1 NCel=       1 NClECP=     1 NCelD=      1
         NCelK=      1 NCelE2=     1 NClLst=     1 CellRange=     0.0.
 One-electron integrals computed using PRISM.
   1 Symmetry operations used in ECPInt.
 ECPInt:  NShTT=    5886 NPrTT=   14376 LenC2=    5775 LenP2D=   12155.
 LDataN:  DoStor=T MaxTD1= 8 Len=  415
 NBasis=   348 RedAO= T EigKep=  6.21D-05  NBF=   348
 NBsUse=   348 1.00D-06 EigRej= -1.00D+00 NBFU=   348
 Precomputing XC quadrature grid using
 IXCGrd= 4 IRadAn=           0 IRanWt=          -1 IRanGd=           0 AccXCQ= 0.00D+00.
 Generated NRdTot=       0 NPtTot=           0 NUsed=           0 NTot=          32
 NSgBfM=   428   428   428   428   428 MxSgAt=     8 MxSgA2=     8.
 Leave Link  302 at Wed Aug 26 14:26:20 2020, MaxMem=  2097152000 cpu:         3.1
 (Enter /opt/cluster/programs/g09/g09_d.01/g09/l303.exe)
 DipDrv:  MaxL=1.
 Leave Link  303 at Wed Aug 26 14:26:21 2020, MaxMem=  2097152000 cpu:         0.3
 (Enter /opt/cluster/programs/g09/g09_d.01/g09/l401.exe)
 ExpMin= 7.60D-02 ExpMax= 1.17D+05 ExpMxC= 1.13D+03 IAcc=2 IRadAn=         4 AccDes= 0.00D+00
 Harris functional with IExCor=  419 and IRadAn=       4 diagonalized for initial guess.
 HarFok:  IExCor=  419 AccDes= 0.00D+00 IRadAn=         4 IDoV= 1 UseB2=F ITyADJ=14
 ICtDFT=  3500011 ScaDFX=  1.000000  1.000000  1.000000  1.000000
 FoFCou: FMM=F IPFlag=           0 FMFlag=      100000 FMFlg1=           0
         NFxFlg=           0 DoJE=T BraDBF=F KetDBF=T FulRan=T
         wScrn=  0.000000 ICntrl=     500 IOpCl=  0 I1Cent=   200000004 NGrid=           0
         NMat0=    1 NMatS0=      1 NMatT0=    0 NMatD0=    1 NMtDS0=    0 NMtDT0=    0
 Petite list used in FoFCou.
 Harris En= -192.020166244970    
 JPrj=0 DoOrth=F DoCkMO=F.
 Leave Link  401 at Wed Aug 26 14:26:22 2020, MaxMem=  2097152000 cpu:         6.9
 (Enter /opt/cluster/programs/g09/g09_d.01/g09/l502.exe)
 Closed shell SCF:
 Using DIIS extrapolation, IDIIS=  1040.
 Integral symmetry usage will be decided dynamically.
 Keep R1 ints in memory in canonical form, NReq=1883905047.
 IVT=      574566 IEndB=      574566 NGot=  2097152000 MDV=   252723534
 LenX=   252723534 LenY=   252539909
 Requested convergence on RMS density matrix=1.00D-08 within 128 cycles.
 Requested convergence on MAX density matrix=1.00D-06.
 Requested convergence on             energy=1.00D-06.
 No special actions if energy rises.
 FoFCou: FMM=F IPFlag=           0 FMFlag=           0 FMFlg1=           0
         NFxFlg=           0 DoJE=F BraDBF=F KetDBF=F FulRan=T
         wScrn=  0.000000 ICntrl=     600 IOpCl=  0 I1Cent=           0 NGrid=           0
         NMat0=    1 NMatS0=  60726 NMatT0=    0 NMatD0=    1 NMtDS0=    0 NMtDT0=    0
 Symmetry not used in FoFCou.
 Integral accuracy reduced to 1.0D-05 until final iterations.

 Cycle   1  Pass 0  IDiag  1:
 E= -191.453092242206    
 DIIS: error= 2.54D-02 at cycle   1 NSaved=   1.
 NSaved= 1 IEnMin= 1 EnMin= -191.453092242206     IErMin= 1 ErrMin= 2.54D-02
 ErrMax= 2.54D-02  0.00D+00 EMaxC= 1.00D-01 BMatC= 2.51D-01 BMatP= 2.51D-01
 IDIUse=3 WtCom= 7.46D-01 WtEn= 2.54D-01
 Coeff-Com:  0.100D+01
 Coeff-En:   0.100D+01
 Coeff:      0.100D+01
 Gap=     0.275 Goal=   None    Shift=    0.000
 GapD=    0.275 DampG=1.000 DampE=0.500 DampFc=0.5000 IDamp=-1.
 Damping current iteration by 5.00D-01
 RMSDP=1.87D-03 MaxDP=2.46D-01              OVMax= 1.88D-01

 Cycle   2  Pass 0  IDiag  1:
 E= -191.519350648206     Delta-E=       -0.066258406000 Rises=F Damp=T
 DIIS: error= 9.47D-03 at cycle   2 NSaved=   2.
 NSaved= 2 IEnMin= 2 EnMin= -191.519350648206     IErMin= 2 ErrMin= 9.47D-03
 ErrMax= 9.47D-03  0.00D+00 EMaxC= 1.00D-01 BMatC= 3.38D-02 BMatP= 2.51D-01
 IDIUse=3 WtCom= 9.05D-01 WtEn= 9.47D-02
 Coeff-Com: -0.129D+00 0.113D+01
 Coeff-En:   0.000D+00 0.100D+01
 Coeff:     -0.117D+00 0.112D+01
 Gap=     0.360 Goal=   None    Shift=    0.000
 RMSDP=6.67D-04 MaxDP=8.99D-02 DE=-6.63D-02 OVMax= 1.37D-01

 Cycle   3  Pass 0  IDiag  1:
 E= -191.579235998753     Delta-E=       -0.059885350547 Rises=F Damp=F
 DIIS: error= 1.11D-02 at cycle   3 NSaved=   3.
 NSaved= 3 IEnMin= 3 EnMin= -191.579235998753     IErMin= 2 ErrMin= 9.47D-03
 ErrMax= 1.11D-02  0.00D+00 EMaxC= 1.00D-01 BMatC= 1.89D-02 BMatP= 3.38D-02
 IDIUse=3 WtCom= 8.89D-01 WtEn= 1.11D-01
 Coeff-Com: -0.191D+00 0.531D+00 0.660D+00
 Coeff-En:   0.000D+00 0.000D+00 0.100D+01
 Coeff:     -0.169D+00 0.471D+00 0.698D+00
 Gap=     0.324 Goal=   None    Shift=    0.000
 RMSDP=2.63D-04 MaxDP=2.04D-02 DE=-5.99D-02 OVMax= 5.68D-02

 Cycle   4  Pass 0  IDiag  1:
 E= -191.589582181708     Delta-E=       -0.010346182955 Rises=F Damp=F
 DIIS: error= 5.07D-03 at cycle   4 NSaved=   4.
 NSaved= 4 IEnMin= 4 EnMin= -191.589582181708     IErMin= 4 ErrMin= 5.07D-03
 ErrMax= 5.07D-03  0.00D+00 EMaxC= 1.00D-01 BMatC= 3.79D-03 BMatP= 1.89D-02
 IDIUse=3 WtCom= 9.49D-01 WtEn= 5.07D-02
 Coeff-Com: -0.632D-01 0.104D+00 0.375D+00 0.585D+00
 Coeff-En:   0.000D+00 0.000D+00 0.189D+00 0.811D+00
 Coeff:     -0.600D-01 0.983D-01 0.365D+00 0.596D+00
 Gap=     0.316 Goal=   None    Shift=    0.000
 RMSDP=1.07D-04 MaxDP=8.81D-03 DE=-1.03D-02 OVMax= 1.60D-02

 Cycle   5  Pass 0  IDiag  1:
 E= -191.592699280090     Delta-E=       -0.003117098382 Rises=F Damp=F
 DIIS: error= 3.54D-04 at cycle   5 NSaved=   5.
 NSaved= 5 IEnMin= 5 EnMin= -191.592699280090     IErMin= 5 ErrMin= 3.54D-04
 ErrMax= 3.54D-04  0.00D+00 EMaxC= 1.00D-01 BMatC= 1.39D-05 BMatP= 3.79D-03
 IDIUse=3 WtCom= 9.96D-01 WtEn= 3.54D-03
 Coeff-Com: -0.645D-02 0.735D-02 0.452D-01 0.110D+00 0.844D+00
 Coeff-En:   0.000D+00 0.000D+00 0.000D+00 0.000D+00 0.100D+01
 Coeff:     -0.642D-02 0.732D-02 0.450D-01 0.110D+00 0.844D+00
 Gap=     0.315 Goal=   None    Shift=    0.000
 RMSDP=1.11D-05 MaxDP=9.63D-04 DE=-3.12D-03 OVMax= 2.35D-03

 Cycle   6  Pass 0  IDiag  1:
 E= -191.592715117745     Delta-E=       -0.000015837655 Rises=F Damp=F
 DIIS: error= 9.81D-05 at cycle   6 NSaved=   6.
 NSaved= 6 IEnMin= 6 EnMin= -191.592715117745     IErMin= 6 ErrMin= 9.81D-05
 ErrMax= 9.81D-05  0.00D+00 EMaxC= 1.00D-01 BMatC= 1.87D-06 BMatP= 1.39D-05
 IDIUse=1 WtCom= 1.00D+00 WtEn= 0.00D+00
 Coeff-Com:  0.438D-02-0.818D-02-0.222D-01-0.266D-01 0.255D+00 0.797D+00
 Coeff:      0.438D-02-0.818D-02-0.222D-01-0.266D-01 0.255D+00 0.797D+00
 Gap=     0.315 Goal=   None    Shift=    0.000
 RMSDP=7.75D-06 MaxDP=8.57D-04 DE=-1.58D-05 OVMax= 6.42D-04

 Initial convergence to 1.0D-05 achieved.  Increase integral accuracy.
 Cycle   7  Pass 1  IDiag  1:
 E= -191.592714550129     Delta-E=        0.000000567616 Rises=F Damp=F
 DIIS: error= 2.11D-05 at cycle   1 NSaved=   1.
 NSaved= 1 IEnMin= 1 EnMin= -191.592714550129     IErMin= 1 ErrMin= 2.11D-05
 ErrMax= 2.11D-05  0.00D+00 EMaxC= 1.00D-01 BMatC= 2.42D-07 BMatP= 2.42D-07
 IDIUse=1 WtCom= 1.00D+00 WtEn= 0.00D+00
 Coeff-Com:  0.100D+01
 Coeff:      0.100D+01
 Gap=     0.316 Goal=   None    Shift=    0.000
 RMSDP=7.75D-06 MaxDP=8.57D-04 DE= 5.68D-07 OVMax= 2.37D-04

 Cycle   8  Pass 1  IDiag  1:
 E= -191.592714694318     Delta-E=       -0.000000144188 Rises=F Damp=F
 DIIS: error= 3.85D-05 at cycle   2 NSaved=   2.
 NSaved= 2 IEnMin= 2 EnMin= -191.592714694318     IErMin= 1 ErrMin= 2.11D-05
 ErrMax= 3.85D-05  0.00D+00 EMaxC= 1.00D-01 BMatC= 1.76D-07 BMatP= 2.42D-07
 IDIUse=1 WtCom= 1.00D+00 WtEn= 0.00D+00
 Coeff-Com:  0.451D+00 0.549D+00
 Coeff:      0.451D+00 0.549D+00
 Gap=     0.315 Goal=   None    Shift=    0.000
 RMSDP=8.17D-07 MaxDP=6.04D-05 DE=-1.44D-07 OVMax= 2.34D-04

 Cycle   9  Pass 1  IDiag  1:
 E= -191.592714845726     Delta-E=       -0.000000151408 Rises=F Damp=F
 DIIS: error= 9.90D-06 at cycle   3 NSaved=   3.
 NSaved= 3 IEnMin= 3 EnMin= -191.592714845726     IErMin= 3 ErrMin= 9.90D-06
 ErrMax= 9.90D-06  0.00D+00 EMaxC= 1.00D-01 BMatC= 3.46D-08 BMatP= 1.76D-07
 IDIUse=1 WtCom= 1.00D+00 WtEn= 0.00D+00
 Coeff-Com: -0.485D-01 0.276D+00 0.772D+00
 Coeff:     -0.485D-01 0.276D+00 0.772D+00
 Gap=     0.316 Goal=   None    Shift=    0.000
 RMSDP=7.31D-07 MaxDP=7.77D-05 DE=-1.51D-07 OVMax= 7.25D-05

 Cycle  10  Pass 1  IDiag  1:
 E= -191.592714876249     Delta-E=       -0.000000030523 Rises=F Damp=F
 DIIS: error= 3.71D-06 at cycle   4 NSaved=   4.
 NSaved= 4 IEnMin= 4 EnMin= -191.592714876249     IErMin= 4 ErrMin= 3.71D-06
 ErrMax= 3.71D-06  0.00D+00 EMaxC= 1.00D-01 BMatC= 3.25D-09 BMatP= 3.46D-08
 IDIUse=1 WtCom= 1.00D+00 WtEn= 0.00D+00
 Coeff-Com: -0.878D-01 0.769D-01 0.279D+00 0.732D+00
 Coeff:     -0.878D-01 0.769D-01 0.279D+00 0.732D+00
 Gap=     0.316 Goal=   None    Shift=    0.000
 RMSDP=2.14D-07 MaxDP=2.15D-05 DE=-3.05D-08 OVMax= 2.71D-05

 Cycle  11  Pass 1  IDiag  1:
 E= -191.592714880460     Delta-E=       -0.000000004211 Rises=F Damp=F
 DIIS: error= 1.95D-06 at cycle   5 NSaved=   5.
 NSaved= 5 IEnMin= 5 EnMin= -191.592714880460     IErMin= 5 ErrMin= 1.95D-06
 ErrMax= 1.95D-06  0.00D+00 EMaxC= 1.00D-01 BMatC= 6.21D-10 BMatP= 3.25D-09
 IDIUse=1 WtCom= 1.00D+00 WtEn= 0.00D+00
 Coeff-Com: -0.186D-01-0.104D-01-0.884D-01 0.251D+00 0.866D+00
 Coeff:     -0.186D-01-0.104D-01-0.884D-01 0.251D+00 0.866D+00
 Gap=     0.316 Goal=   None    Shift=    0.000
 RMSDP=1.24D-07 MaxDP=1.29D-05 DE=-4.21D-09 OVMax= 1.89D-05

 Cycle  12  Pass 1  IDiag  1:
 E= -191.592714881215     Delta-E=       -0.000000000755 Rises=F Damp=F
 DIIS: error= 4.99D-07 at cycle   6 NSaved=   6.
 NSaved= 6 IEnMin= 6 EnMin= -191.592714881215     IErMin= 6 ErrMin= 4.99D-07
 ErrMax= 4.99D-07  0.00D+00 EMaxC= 1.00D-01 BMatC= 7.01D-11 BMatP= 6.21D-10
 IDIUse=1 WtCom= 1.00D+00 WtEn= 0.00D+00
 Coeff-Com:  0.316D-02-0.111D-01-0.759D-01 0.108D-01 0.370D+00 0.703D+00
 Coeff:      0.316D-02-0.111D-01-0.759D-01 0.108D-01 0.370D+00 0.703D+00
 Gap=     0.316 Goal=   None    Shift=    0.000
 RMSDP=3.97D-08 MaxDP=4.39D-06 DE=-7.55D-10 OVMax= 4.81D-06

 Cycle  13  Pass 1  IDiag  1:
 E= -191.592714881317     Delta-E=       -0.000000000102 Rises=F Damp=F
 DIIS: error= 7.78D-08 at cycle   7 NSaved=   7.
 NSaved= 7 IEnMin= 7 EnMin= -191.592714881317     IErMin= 7 ErrMin= 7.78D-08
 ErrMax= 7.78D-08  0.00D+00 EMaxC= 1.00D-01 BMatC= 2.42D-12 BMatP= 7.01D-11
 IDIUse=1 WtCom= 1.00D+00 WtEn= 0.00D+00
 Coeff-Com:  0.134D-02 0.369D-03 0.527D-03-0.172D-01-0.294D-01 0.697D-01
 Coeff-Com:  0.975D+00
 Coeff:      0.134D-02 0.369D-03 0.527D-03-0.172D-01-0.294D-01 0.697D-01
 Coeff:      0.975D+00
 Gap=     0.316 Goal=   None    Shift=    0.000
 RMSDP=7.54D-09 MaxDP=2.90D-07 DE=-1.02D-10 OVMax= 2.64D-06

 SCF Done:  E(RB2PLYPD3) =  -191.592714881     A.U. after   13 cycles
            NFock= 13  Conv=0.75D-08     -V/T= 2.0045
 KE= 1.907347176054D+02 PE=-6.529795398661D+02 EE= 1.680719902751D+02
 Leave Link  502 at Wed Aug 26 14:27:31 2020, MaxMem=  2097152000 cpu:       280.7
 (Enter /opt/cluster/programs/g09/g09_d.01/g09/l801.exe)
 DoSCS=T DFT=T ScalE2(SS,OS)=  0.270000  0.270000
 ExpMin= 7.60D-02 ExpMax= 1.17D+05 ExpMxC= 1.13D+03 IAcc=3 IRadAn=         5 AccDes= 0.00D+00
 HarFok:  IExCor=  205 AccDes= 0.00D+00 IRadAn=         5 IDoV=-2 UseB2=F ITyADJ=14
 ICtDFT= 12500011 ScaDFX=  1.000000  1.000000  1.000000  1.000000
 Largest valence mixing into a core orbital is  1.17D-04
 Largest core mixing into a valence orbital is  1.93D-05
 Range of M.O.s used for correlation:     5   348
 NBasis=   348 NAE=    15 NBE=    15 NFC=     4 NFV=     0
 NROrb=    344 NOA=    11 NOB=    11 NVA=   333 NVB=   333

 **** Warning!!: The largest alpha MO coefficient is  0.28214995D+02

 Leave Link  801 at Wed Aug 26 14:27:32 2020, MaxMem=  2097152000 cpu:         0.9
 (Enter /opt/cluster/programs/g09/g09_d.01/g09/l906.exe)
 DoSCS=T DFT=T ScalE2(SS,OS)=  0.270000  0.270000
 FulOut=F Deriv=F AODrv=F NAtomX=     8
   MMem=        1190  MDisk=          11 MDiskD=          11
  W3Min=     1567764 MinDsk=     2827057 NBas6D=         428
 NBas2D=       93150    NTT=       91806    LW2=     4508827
    MDV=  2096572580 MDiskM=       10875 NBas2p=       89105
 Fully direct method using O(OVN) memory.
 IMap=   1   2   3   4   5   6   7   8   9  10  11
 JobTyp=1 Pass  1:  I=   1 to  11 NPSUse=  8 ParTrn=T ParDer=T DoDerP=F.
 Spin components of T(2) and E(2):
     alpha-alpha T2 =       0.4527880573D-01 E2=     -0.2983443230D-01
     alpha-beta  T2 =       0.2778980416D+00 E2=     -0.1902851096D+00
     beta-beta   T2 =       0.4527880573D-01 E2=     -0.2983443230D-01
 The integrals were generated   1 times.
 E2(B2PLYPD3) =    -0.2499539742D+00 E(B2PLYPD3) =    -0.19184266885552D+03
 Leave Link  906 at Wed Aug 26 14:28:22 2020, MaxMem=  2097152000 cpu:       398.5
 (Enter /opt/cluster/programs/g09/g09_d.01/g09/l601.exe)
 Copying SCF densities to generalized density rwf, IOpCl= 0 IROHF=0.

 **********************************************************************

            Population analysis using the SCF density.

 **********************************************************************

 Orbital symmetries:
       Occupied  (A) (A) (A) (A) (A) (A) (A) (A) (A) (A) (A) (A)
                 (A) (A) (A)
       Virtual   (A) (A) (A) (A) (A) (A) (A) (A) (A) (A) (A) (A)
                 (A) (A) (A) (A) (A) (A) (A) (A) (A) (A) (A) (A)
                 (A) (A) (A) (A) (A) (A) (A) (A) (A) (A) (A) (A)
                 (A) (A) (A) (A) (A) (A) (A) (A) (A) (A) (A) (A)
                 (A) (A) (A) (A) (A) (A) (A) (A) (A) (A) (A) (A)
                 (A) (A) (A) (A) (A) (A) (A) (A) (A) (A) (A) (A)
                 (A) (A) (A) (A) (A) (A) (A) (A) (A) (A) (A) (A)
                 (A) (A) (A) (A) (A) (A) (A) (A) (A) (A) (A) (A)
                 (A) (A) (A) (A) (A) (A) (A) (A) (A) (A) (A) (A)
                 (A) (A) (A) (A) (A) (A) (A) (A) (A) (A) (A) (A)
                 (A) (A) (A) (A) (A) (A) (A) (A) (A) (A) (A) (A)
                 (A) (A) (A) (A) (A) (A) (A) (A) (A) (A) (A) (A)
                 (A) (A) (A) (A) (A) (A) (A) (A) (A) (A) (A) (A)
                 (A) (A) (A) (A) (A) (A) (A) (A) (A) (A) (A) (A)
                 (A) (A) (A) (A) (A) (A) (A) (A) (A) (A) (A) (A)
                 (A) (A) (A) (A) (A) (A) (A) (A) (A) (A) (A) (A)
                 (A) (A) (A) (A) (A) (A) (A) (A) (A) (A) (A) (A)
                 (A) (A) (A) (A) (A) (A) (A) (A) (A) (A) (A) (A)
                 (A) (A) (A) (A) (A) (A) (A) (A) (A) (A) (A) (A)
                 (A) (A) (A) (A) (A) (A) (A) (A) (A) (A) (A) (A)
                 (A) (A) (A) (A) (A) (A) (A) (A) (A) (A) (A) (A)
                 (A) (A) (A) (A) (A) (A) (A) (A) (A) (A) (A) (A)
                 (A) (A) (A) (A) (A) (A) (A) (A) (A) (A) (A) (A)
                 (A) (A) (A) (A) (A) (A) (A) (A) (A) (A) (A) (A)
                 (A) (A) (A) (A) (A) (A) (A) (A) (A) (A) (A) (A)
                 (A) (A) (A) (A) (A) (A) (A) (A) (A) (A) (A) (A)
                 (A) (A) (A) (A) (A) (A) (A) (A) (A) (A) (A) (A)
                 (A) (A) (A) (A) (A) (A) (A) (A) (A)
 The electronic state is 1-A.
 Alpha  occ. eigenvalues --  -19.73093 -10.72294 -10.66873 -10.64755  -1.18399
 Alpha  occ. eigenvalues --   -0.93273  -0.75730  -0.66410  -0.56896  -0.55028
 Alpha  occ. eigenvalues --   -0.49750  -0.46527  -0.44874  -0.34689  -0.34211
 Alpha virt. eigenvalues --   -0.02656   0.05047   0.06698   0.08115   0.09679
 Alpha virt. eigenvalues --    0.11934   0.13866   0.15247   0.17434   0.19362
 Alpha virt. eigenvalues --    0.20004   0.21120   0.24720   0.26434   0.28600
 Alpha virt. eigenvalues --    0.29635   0.33379   0.33577   0.36815   0.37630
 Alpha virt. eigenvalues --    0.39104   0.40376   0.42671   0.44229   0.45638
 Alpha virt. eigenvalues --    0.46738   0.49559   0.53731   0.54484   0.57546
 Alpha virt. eigenvalues --    0.59423   0.63256   0.65595   0.66506   0.70500
 Alpha virt. eigenvalues --    0.74478   0.75955   0.77730   0.79147   0.80528
 Alpha virt. eigenvalues --    0.81334   0.82774   0.83278   0.84509   0.86206
 Alpha virt. eigenvalues --    0.88620   0.90255   0.92347   0.93276   0.94922
 Alpha virt. eigenvalues --    0.96315   0.96429   1.00947   1.02852   1.04745
 Alpha virt. eigenvalues --    1.10326   1.11023   1.14409   1.15412   1.18571
 Alpha virt. eigenvalues --    1.20782   1.25982   1.27356   1.29066   1.37903
 Alpha virt. eigenvalues --    1.40220   1.45877   1.47548   1.52484   1.54670
 Alpha virt. eigenvalues --    1.55460   1.60023   1.61638   1.67247   1.69896
 Alpha virt. eigenvalues --    1.72348   1.77696   1.80035   1.82031   1.85727
 Alpha virt. eigenvalues --    1.87077   1.91607   1.92062   1.93680   1.94248
 Alpha virt. eigenvalues --    1.95384   1.98734   2.00838   2.01644   2.04757
 Alpha virt. eigenvalues --    2.07480   2.10669   2.11642   2.13025   2.13559
 Alpha virt. eigenvalues --    2.15857   2.19398   2.20406   2.22437   2.24453
 Alpha virt. eigenvalues --    2.27305   2.32929   2.34782   2.38087   2.40548
 Alpha virt. eigenvalues --    2.43024   2.46464   2.47410   2.48326   2.52721
 Alpha virt. eigenvalues --    2.55500   2.56482   2.57031   2.60842   2.61433
 Alpha virt. eigenvalues --    2.63622   2.64089   2.66427   2.67412   2.69631
 Alpha virt. eigenvalues --    2.73987   2.76732   2.80870   2.84150   2.86738
 Alpha virt. eigenvalues --    2.88549   2.94106   2.95397   3.01741   3.04194
 Alpha virt. eigenvalues --    3.10545   3.14608   3.20111   3.25159   3.26516
 Alpha virt. eigenvalues --    3.30253   3.34953   3.38084   3.41401   3.43025
 Alpha virt. eigenvalues --    3.46435   3.47930   3.55188   3.61294   3.62301
 Alpha virt. eigenvalues --    3.64727   3.67969   3.73960   3.79720   3.86861
 Alpha virt. eigenvalues --    3.88265   3.93015   3.94584   3.99096   4.05198
 Alpha virt. eigenvalues --    4.09430   4.15587   4.18476   4.24191   4.29705
 Alpha virt. eigenvalues --    4.36622   4.43636   4.50808   4.58476   4.63153
 Alpha virt. eigenvalues --    4.65410   4.81303   4.89251   4.92245   5.01025
 Alpha virt. eigenvalues --    5.01879   5.04006   5.08262   5.11247   5.14911
 Alpha virt. eigenvalues --    5.22054   5.26162   5.28801   5.33698   5.35891
 Alpha virt. eigenvalues --    5.44919   5.51700   5.55684   5.56659   5.58723
 Alpha virt. eigenvalues --    5.62220   5.62872   5.66211   5.73353   5.74773
 Alpha virt. eigenvalues --    5.77768   5.81171   5.85245   5.88643   5.90704
 Alpha virt. eigenvalues --    5.92890   5.94984   5.98501   6.01862   6.04007
 Alpha virt. eigenvalues --    6.07361   6.08614   6.10332   6.11680   6.15062
 Alpha virt. eigenvalues --    6.15800   6.19785   6.23416   6.25243   6.26187
 Alpha virt. eigenvalues --    6.29390   6.32730   6.34285   6.35489   6.39325
 Alpha virt. eigenvalues --    6.40068   6.44713   6.46579   6.50249   6.54284
 Alpha virt. eigenvalues --    6.57470   6.60239   6.67672   6.69647   6.73113
 Alpha virt. eigenvalues --    6.76467   6.81947   6.83115   6.92732   6.95111
 Alpha virt. eigenvalues --    6.97575   7.02335   7.09464   7.11638   7.17614
 Alpha virt. eigenvalues --    7.26271   7.30751   7.37274   7.43130   7.46525
 Alpha virt. eigenvalues --    7.50884   7.53869   7.55416   7.58408   7.60287
 Alpha virt. eigenvalues --    7.64219   7.67288   7.68135   7.70781   7.73253
 Alpha virt. eigenvalues --    7.80130   7.84654   7.88070   7.89065   7.94494
 Alpha virt. eigenvalues --    8.00896   8.03836   8.12031   8.14197   8.17303
 Alpha virt. eigenvalues --    8.19259   8.22723   8.24954   8.27017   8.29531
 Alpha virt. eigenvalues --    8.31040   8.35211   8.41643   8.44899   8.46569
 Alpha virt. eigenvalues --    8.49713   8.58187   8.60555   8.62984   8.63729
 Alpha virt. eigenvalues --    8.70686   8.77026   8.82657   8.89956   9.02161
 Alpha virt. eigenvalues --    9.07394   9.08115   9.10620   9.13624   9.16775
 Alpha virt. eigenvalues --    9.23062   9.26892   9.31925   9.41061   9.51566
 Alpha virt. eigenvalues --    9.59518   9.66451   9.69392   9.76770   9.80737
 Alpha virt. eigenvalues --    9.88809   9.99998  10.03890  10.15719  10.21093
 Alpha virt. eigenvalues --   10.27422  10.39124  10.47414  10.55403  10.71343
 Alpha virt. eigenvalues --   10.92383  11.05570  11.18093  11.24596  11.30869
 Alpha virt. eigenvalues --   11.64609  11.69151  11.74493  12.03501  12.03996
 Alpha virt. eigenvalues --   12.27759  12.34121  12.35334  12.47913  12.53575
 Alpha virt. eigenvalues --   12.73031  13.27127  13.69238  14.34855  14.54367
 Alpha virt. eigenvalues --   28.46859  28.81241  29.39100  48.61177 148.04838
 Alpha virt. eigenvalues --  148.37087 148.98629 254.36652
          Condensed to atoms (all electrons):
               1          2          3          4          5          6
     1  C    4.516800   0.609907   0.357041  -0.046126  -0.032797  -0.003421
     2  O    0.609907   7.894588  -0.092639   0.007224   0.003366   0.000135
     3  C    0.357041  -0.092639   5.169879   0.460067   0.373417  -0.057237
     4  C   -0.046126   0.007224   0.460067   4.905393  -0.045096   0.414124
     5  H   -0.032797   0.003366   0.373417  -0.045096   0.590741   0.007269
     6  H   -0.003421   0.000135  -0.057237   0.414124   0.007269   0.593049
     7  H    0.001971  -0.000317  -0.022155   0.404351  -0.007007  -0.041557
     8  H    0.442461  -0.065915  -0.159541   0.021190   0.008459   0.006084
               7          8
     1  C    0.001971   0.442461
     2  O   -0.000317  -0.065915
     3  C   -0.022155  -0.159541
     4  C    0.404351   0.021190
     5  H   -0.007007   0.008459
     6  H   -0.041557   0.006084
     7  H    0.568061  -0.000585
     8  H   -0.000585   0.676143
 Mulliken charges:
               1
     1  C    0.154163
     2  O   -0.356348
     3  C   -0.028832
     4  C   -0.121127
     5  H    0.101648
     6  H    0.081554
     7  H    0.097238
     8  H    0.071705
 Sum of Mulliken charges =   0.00000
 Mulliken charges with hydrogens summed into heavy atoms:
               1
     1  C    0.225867
     2  O   -0.356348
     3  C    0.072816
     4  C    0.057665
 Electronic spatial extent (au):  <R**2>=            301.4176
 Charge=              0.0000 electrons
 Dipole moment (field-independent basis, Debye):
    X=              3.6122    Y=              0.9292    Z=              0.1046  Tot=              3.7312
 Quadrupole moment (field-independent basis, Debye-Ang):
   XX=            -27.3004   YY=            -22.0450   ZZ=            -25.3292
   XY=             -1.0825   XZ=              0.8782   YZ=             -0.2125
 Traceless Quadrupole moment (field-independent basis, Debye-Ang):
   XX=             -2.4089   YY=              2.8466   ZZ=             -0.4377
   XY=             -1.0825   XZ=              0.8782   YZ=             -0.2125
 Octapole moment (field-independent basis, Debye-Ang**2):
  XXX=             16.1986  YYY=              0.3766  ZZZ=              0.4819  XYY=             -0.5145
  XXY=              0.4718  XXZ=              1.6466  XZZ=             -4.2594  YZZ=              0.2222
  YYZ=              0.1278  XYZ=             -0.4520
 Hexadecapole moment (field-independent basis, Debye-Ang**3):
 XXXX=           -304.9203 YYYY=            -55.8539 ZZZZ=            -28.2184 XXXY=             -3.7908
 XXXZ=              7.0217 YYYX=              0.7764 YYYZ=             -0.4455 ZZZX=              0.4723
 ZZZY=             -0.1895 XXYY=            -59.8642 XXZZ=            -58.5204 YYZZ=            -15.7071
 XXYZ=             -1.4285 YYXZ=              0.3851 ZZXY=              0.5941
 N-N= 1.025801171043D+02 E-N=-6.529795422920D+02  KE= 1.907347176054D+02
 Leave Link  601 at Wed Aug 26 14:28:23 2020, MaxMem=  2097152000 cpu:         0.7
 (Enter /opt/cluster/programs/g09/g09_d.01/g09/l9999.exe)
 1\1\GINC-NODE20\SP\RB2PLYPD3-FC\def2QZVP\C3H4O1\BOITTIER\26-Aug-2020\0
 \\#p B2PLYPD3/Def2QZVP\\acrolein\\0,1\C,0,-5.016733,-1.365821,0.907829
 \O,0,-3.909463,-0.900148,0.625387\C,0,-5.212777,-2.753976,1.214122\C,0
 ,-6.399566,-3.334544,1.37777\H,0,-4.318709,-3.439896,1.090139\H,0,-7.2
 53093,-2.733468,1.44469\H,0,-6.655698,-4.542593,1.309732\H,0,-5.957986
 ,-0.747136,1.007713\\Version=ES64L-G09RevD.01\State=1-A\HF=-191.592714
 9\MP2=-191.8426689\RMSD=7.545e-09\PG=C01 [X(C3H4O1)]\\@


 THE POLHOLDE ROLLS WITHOUT SLIPPING ON THE HERPOLHOLDE LYING IN
 THE INVARIABLE PLANE.
 H.GOLDSTEIN, "CLASSICAL MECHANICS", PG 161
 Job cpu time:       0 days  0 hours 11 minutes 33.1 seconds.
 File lengths (MBytes):  RWF=     49 Int=      0 D2E=      0 Chk=      7 Scr=      1
 Normal termination of Gaussian 09 at Wed Aug 26 14:28:24 2020.
