 Entering Gaussian System, Link 0=/opt/cluster/programs/g09/g09_d.01/g09//g09
 Input=/home/boittier/MDCM/nms_sampling/acrolein_geom.xyz.dir/energies/acrolein_252_energy.com
 Output=/scratch/boittier/acrolein_252_energy/acrolein_252_energy.out
 Initial command:
 /opt/cluster/programs/g09/g09_d.01/g09/l1.exe "/scratch/boittier/acrolein_252_energy/Gau-241246.inp" -scrdir="/scratch/boittier/acrolein_252_energy/"
 Entering Link 1 = /opt/cluster/programs/g09/g09_d.01/g09/l1.exe PID=    241247.
  
 Copyright (c) 1988,1990,1992,1993,1995,1998,2003,2009,2013,
            Gaussian, Inc.  All Rights Reserved.
  
 This is part of the Gaussian(R) 09 program.  It is based on
 the Gaussian(R) 03 system (copyright 2003, Gaussian, Inc.),
 the Gaussian(R) 98 system (copyright 1998, Gaussian, Inc.),
 the Gaussian(R) 94 system (copyright 1995, Gaussian, Inc.),
 the Gaussian 92(TM) system (copyright 1992, Gaussian, Inc.),
 the Gaussian 90(TM) system (copyright 1990, Gaussian, Inc.),
 the Gaussian 88(TM) system (copyright 1988, Gaussian, Inc.),
 the Gaussian 86(TM) system (copyright 1986, Carnegie Mellon
 University), and the Gaussian 82(TM) system (copyright 1983,
 Carnegie Mellon University). Gaussian is a federally registered
 trademark of Gaussian, Inc.
  
 This software contains proprietary and confidential information,
 including trade secrets, belonging to Gaussian, Inc.
  
 This software is provided under written license and may be
 used, copied, transmitted, or stored only in accord with that
 written license.
  
 The following legend is applicable only to US Government
 contracts under FAR:
  
                    RESTRICTED RIGHTS LEGEND
  
 Use, reproduction and disclosure by the US Government is
 subject to restrictions as set forth in subparagraphs (a)
 and (c) of the Commercial Computer Software - Restricted
 Rights clause in FAR 52.227-19.
  
 Gaussian, Inc.
 340 Quinnipiac St., Bldg. 40, Wallingford CT 06492
  
  
 ---------------------------------------------------------------
 Warning -- This program may not be used in any manner that
 competes with the business of Gaussian, Inc. or will provide
 assistance to any competitor of Gaussian, Inc.  The licensee
 of this program is prohibited from giving any competitor of
 Gaussian, Inc. access to this program.  By using this program,
 the user acknowledges that Gaussian, Inc. is engaged in the
 business of creating and licensing software in the field of
 computational chemistry and represents and warrants to the
 licensee that it is not a competitor of Gaussian, Inc. and that
 it will not use this program in any manner prohibited above.
 ---------------------------------------------------------------
  

 Cite this work as:
 Gaussian 09, Revision D.01,
 M. J. Frisch, G. W. Trucks, H. B. Schlegel, G. E. Scuseria, 
 M. A. Robb, J. R. Cheeseman, G. Scalmani, V. Barone, B. Mennucci, 
 G. A. Petersson, H. Nakatsuji, M. Caricato, X. Li, H. P. Hratchian, 
 A. F. Izmaylov, J. Bloino, G. Zheng, J. L. Sonnenberg, M. Hada, 
 M. Ehara, K. Toyota, R. Fukuda, J. Hasegawa, M. Ishida, T. Nakajima, 
 Y. Honda, O. Kitao, H. Nakai, T. Vreven, J. A. Montgomery, Jr., 
 J. E. Peralta, F. Ogliaro, M. Bearpark, J. J. Heyd, E. Brothers, 
 K. N. Kudin, V. N. Staroverov, T. Keith, R. Kobayashi, J. Normand, 
 K. Raghavachari, A. Rendell, J. C. Burant, S. S. Iyengar, J. Tomasi, 
 M. Cossi, N. Rega, J. M. Millam, M. Klene, J. E. Knox, J. B. Cross, 
 V. Bakken, C. Adamo, J. Jaramillo, R. Gomperts, R. E. Stratmann, 
 O. Yazyev, A. J. Austin, R. Cammi, C. Pomelli, J. W. Ochterski, 
 R. L. Martin, K. Morokuma, V. G. Zakrzewski, G. A. Voth, 
 P. Salvador, J. J. Dannenberg, S. Dapprich, A. D. Daniels, 
 O. Farkas, J. B. Foresman, J. V. Ortiz, J. Cioslowski, 
 and D. J. Fox, Gaussian, Inc., Wallingford CT, 2013.
 
 ******************************************
 Gaussian 09:  ES64L-G09RevD.01 24-Apr-2013
                26-Aug-2020 
 ******************************************
 %chk=/home/boittier/MDCM/nms_sampling/acrolein_geom.xyz.dir/acrolein_252.chk
 %nproc=8
 Will use up to    8 processors via shared memory.
 %mem=16000MB
 --------------------
 #p B2PLYPD3/Def2QZVP
 --------------------
 1/38=1/1;
 2/12=2,17=6,18=5,40=1/2;
 3/5=45,7=101,11=9,16=1,25=1,30=1,74=-60/1,2,3;
 4//1;
 5/5=2,38=5/2;
 8/10=1/1;
 9/16=-3/6;
 6/7=2,8=2,9=2,10=2/1;
 99/5=1,9=1/99;
 Leave Link    1 at Wed Aug 26 14:12:31 2020, MaxMem=  2097152000 cpu:         0.2
 (Enter /opt/cluster/programs/g09/g09_d.01/g09/l101.exe)
 --------
 acrolein
 --------
 Symbolic Z-matrix:
 Charge =  0 Multiplicity = 1
 C                    -5.00833  -1.3735    0.87946 
 O                    -3.92819  -0.88092   0.67268 
 C                    -5.20287  -2.80153   1.11611 
 C                    -6.40211  -3.31963   1.41892 
 H                    -4.3063   -3.43417   1.15622 
 H                    -7.24507  -2.65486   1.40591 
 H                    -6.60519  -4.40507   1.62941 
 H                    -5.90791  -0.7884    0.92829 
 
 NAtoms=      8 NQM=        8 NQMF=       0 NMMI=      0 NMMIF=      0
                NMic=       0 NMicF=      0.
                    Isotopes and Nuclear Properties:
 (Nuclear quadrupole moments (NQMom) in fm**2, nuclear magnetic moments (NMagM)
  in nuclear magnetons)

  Atom         1           2           3           4           5           6           7           8
 IAtWgt=          12          16          12          12           1           1           1           1
 AtmWgt=  12.0000000  15.9949146  12.0000000  12.0000000   1.0078250   1.0078250   1.0078250   1.0078250
 NucSpn=           0           0           0           0           1           1           1           1
 AtZEff=   0.0000000   0.0000000   0.0000000   0.0000000   0.0000000   0.0000000   0.0000000   0.0000000
 NQMom=    0.0000000   0.0000000   0.0000000   0.0000000   0.0000000   0.0000000   0.0000000   0.0000000
 NMagM=    0.0000000   0.0000000   0.0000000   0.0000000   2.7928460   2.7928460   2.7928460   2.7928460
 AtZNuc=   6.0000000   8.0000000   6.0000000   6.0000000   1.0000000   1.0000000   1.0000000   1.0000000
 Leave Link  101 at Wed Aug 26 14:12:31 2020, MaxMem=  2097152000 cpu:         0.6
 (Enter /opt/cluster/programs/g09/g09_d.01/g09/l202.exe)
                          Input orientation:                          
 ---------------------------------------------------------------------
 Center     Atomic      Atomic             Coordinates (Angstroms)
 Number     Number       Type             X           Y           Z
 ---------------------------------------------------------------------
      1          6           0       -5.008333   -1.373503    0.879460
      2          8           0       -3.928191   -0.880919    0.672681
      3          6           0       -5.202867   -2.801529    1.116114
      4          6           0       -6.402108   -3.319635    1.418918
      5          1           0       -4.306297   -3.434168    1.156223
      6          1           0       -7.245069   -2.654860    1.405912
      7          1           0       -6.605193   -4.405067    1.629409
      8          1           0       -5.907905   -0.788404    0.928291
 ---------------------------------------------------------------------
                    Distance matrix (angstroms):
                    1          2          3          4          5
     1  C    0.000000
     2  O    1.205032   0.000000
     3  C    1.460516   2.347376   0.000000
     4  C    2.453783   3.553093   1.341008   0.000000
     5  H    2.194491   2.625996   1.098034   2.115313   0.000000
     6  H    2.630972   3.832254   2.067869   1.073629   3.050581
     7  H    3.507530   4.527835   2.191192   1.124150   2.539975
     8  H    1.074223   1.998290   2.141268   2.625277   3.101156
                    6          7          8
     6  H    0.000000
     7  H    1.876864   0.000000
     8  H    2.345163   3.749404   0.000000
 Stoichiometry    C3H4O
 Framework group  C1[X(C3H4O)]
 Deg. of freedom    18
 Full point group                 C1      NOp   1
 Largest Abelian subgroup         C1      NOp   1
 Largest concise Abelian subgroup C1      NOp   1
                         Standard orientation:                         
 ---------------------------------------------------------------------
 Center     Atomic      Atomic             Coordinates (Angstroms)
 Number     Number       Type             X           Y           Z
 ---------------------------------------------------------------------
      1          6           0       -0.680647    0.359674    0.011282
      2          8           0       -1.780611   -0.131845   -0.013046
      3          6           0        0.547196   -0.430946    0.032010
      4          6           0        1.762543    0.133695   -0.017124
      5          1           0        0.446814   -1.522571   -0.030886
      6          1           0        1.810488    1.205985    0.006815
      7          1           0        2.737673   -0.425583   -0.023694
      8          1           0       -0.524640    1.422386   -0.004874
 ---------------------------------------------------------------------
 Rotational constants (GHZ):     49.0212706      4.6728280      4.2676975
 Leave Link  202 at Wed Aug 26 14:12:31 2020, MaxMem=  2097152000 cpu:         0.1
 (Enter /opt/cluster/programs/g09/g09_d.01/g09/l301.exe)
 Standard basis: def2QZVP (5D, 7F)
 Ernie: Thresh=  0.10000D-02 Tol=  0.10000D-05 Strict=F.
 There are   428 symmetry adapted cartesian basis functions of A   symmetry.
 There are   348 symmetry adapted basis functions of A   symmetry.
   348 basis functions,   520 primitive gaussians,   428 cartesian basis functions
    15 alpha electrons       15 beta electrons
       nuclear repulsion energy       103.3985964235 Hartrees.
 IExCor=  419 DFT=T Ex+Corr=B2PLYPD3 ExCW=0 ScaHFX=  0.530000
 ScaDFX=  0.470000  0.470000  0.730000  0.730000 ScalE2=  0.270000  0.270000
 IRadAn=      0 IRanWt=     -1 IRanGd=            0 ICorTp=0 IEmpDi=141
 NAtoms=    8 NActive=    8 NUniq=    8 SFac= 1.00D+00 NAtFMM=   60 NAOKFM=F Big=F
 Integral buffers will be    131072 words long.
 Regular integral format.
 Two-electron integral symmetry is turned on.
 R6Disp:  Grimme-D3(BJ) Dispersion energy=       -0.0035838004 Hartrees.
 Nuclear repulsion after empirical dispersion term =      103.3950126231 Hartrees.
 Leave Link  301 at Wed Aug 26 14:12:31 2020, MaxMem=  2097152000 cpu:         0.5
 (Enter /opt/cluster/programs/g09/g09_d.01/g09/l302.exe)
 NPDir=0 NMtPBC=     1 NCelOv=     1 NCel=       1 NClECP=     1 NCelD=      1
         NCelK=      1 NCelE2=     1 NClLst=     1 CellRange=     0.0.
 One-electron integrals computed using PRISM.
   1 Symmetry operations used in ECPInt.
 ECPInt:  NShTT=    5886 NPrTT=   14376 LenC2=    5779 LenP2D=   12172.
 LDataN:  DoStor=T MaxTD1= 8 Len=  415
 NBasis=   348 RedAO= T EigKep=  5.92D-05  NBF=   348
 NBsUse=   348 1.00D-06 EigRej= -1.00D+00 NBFU=   348
 Precomputing XC quadrature grid using
 IXCGrd= 4 IRadAn=           0 IRanWt=          -1 IRanGd=           0 AccXCQ= 0.00D+00.
 Generated NRdTot=       0 NPtTot=           0 NUsed=           0 NTot=          32
 NSgBfM=   428   428   428   428   428 MxSgAt=     8 MxSgA2=     8.
 Leave Link  302 at Wed Aug 26 14:12:31 2020, MaxMem=  2097152000 cpu:         3.0
 (Enter /opt/cluster/programs/g09/g09_d.01/g09/l303.exe)
 DipDrv:  MaxL=1.
 Leave Link  303 at Wed Aug 26 14:12:31 2020, MaxMem=  2097152000 cpu:         0.4
 (Enter /opt/cluster/programs/g09/g09_d.01/g09/l401.exe)
 ExpMin= 7.60D-02 ExpMax= 1.17D+05 ExpMxC= 1.13D+03 IAcc=2 IRadAn=         4 AccDes= 0.00D+00
 Harris functional with IExCor=  419 and IRadAn=       4 diagonalized for initial guess.
 HarFok:  IExCor=  419 AccDes= 0.00D+00 IRadAn=         4 IDoV= 1 UseB2=F ITyADJ=14
 ICtDFT=  3500011 ScaDFX=  1.000000  1.000000  1.000000  1.000000
 FoFCou: FMM=F IPFlag=           0 FMFlag=      100000 FMFlg1=           0
         NFxFlg=           0 DoJE=T BraDBF=F KetDBF=T FulRan=T
         wScrn=  0.000000 ICntrl=     500 IOpCl=  0 I1Cent=   200000004 NGrid=           0
         NMat0=    1 NMatS0=      1 NMatT0=    0 NMatD0=    1 NMtDS0=    0 NMtDT0=    0
 Petite list used in FoFCou.
 Harris En= -192.042680045722    
 JPrj=0 DoOrth=F DoCkMO=F.
 Leave Link  401 at Wed Aug 26 14:12:32 2020, MaxMem=  2097152000 cpu:         7.0
 (Enter /opt/cluster/programs/g09/g09_d.01/g09/l502.exe)
 Closed shell SCF:
 Using DIIS extrapolation, IDIIS=  1040.
 Integral symmetry usage will be decided dynamically.
 Keep R1 ints in memory in canonical form, NReq=1883905047.
 IVT=      574566 IEndB=      574566 NGot=  2097152000 MDV=   252723534
 LenX=   252723534 LenY=   252539909
 Requested convergence on RMS density matrix=1.00D-08 within 128 cycles.
 Requested convergence on MAX density matrix=1.00D-06.
 Requested convergence on             energy=1.00D-06.
 No special actions if energy rises.
 FoFCou: FMM=F IPFlag=           0 FMFlag=           0 FMFlg1=           0
         NFxFlg=           0 DoJE=F BraDBF=F KetDBF=F FulRan=T
         wScrn=  0.000000 ICntrl=     600 IOpCl=  0 I1Cent=           0 NGrid=           0
         NMat0=    1 NMatS0=  60726 NMatT0=    0 NMatD0=    1 NMtDS0=    0 NMtDT0=    0
 Symmetry not used in FoFCou.
 Integral accuracy reduced to 1.0D-05 until final iterations.

 Cycle   1  Pass 0  IDiag  1:
 E= -191.474458688444    
 DIIS: error= 2.53D-02 at cycle   1 NSaved=   1.
 NSaved= 1 IEnMin= 1 EnMin= -191.474458688444     IErMin= 1 ErrMin= 2.53D-02
 ErrMax= 2.53D-02  0.00D+00 EMaxC= 1.00D-01 BMatC= 2.52D-01 BMatP= 2.52D-01
 IDIUse=3 WtCom= 7.47D-01 WtEn= 2.53D-01
 Coeff-Com:  0.100D+01
 Coeff-En:   0.100D+01
 Coeff:      0.100D+01
 Gap=     0.285 Goal=   None    Shift=    0.000
 GapD=    0.285 DampG=1.000 DampE=0.500 DampFc=0.5000 IDamp=-1.
 Damping current iteration by 5.00D-01
 RMSDP=1.84D-03 MaxDP=2.35D-01              OVMax= 1.75D-01

 Cycle   2  Pass 0  IDiag  1:
 E= -191.542531666123     Delta-E=       -0.068072977679 Rises=F Damp=T
 DIIS: error= 1.02D-02 at cycle   2 NSaved=   2.
 NSaved= 2 IEnMin= 2 EnMin= -191.542531666123     IErMin= 2 ErrMin= 1.02D-02
 ErrMax= 1.02D-02  0.00D+00 EMaxC= 1.00D-01 BMatC= 3.35D-02 BMatP= 2.52D-01
 IDIUse=3 WtCom= 8.98D-01 WtEn= 1.02D-01
 Coeff-Com: -0.161D+00 0.116D+01
 Coeff-En:   0.000D+00 0.100D+01
 Coeff:     -0.145D+00 0.114D+01
 Gap=     0.354 Goal=   None    Shift=    0.000
 RMSDP=6.23D-04 MaxDP=8.04D-02 DE=-6.81D-02 OVMax= 1.28D-01

 Cycle   3  Pass 0  IDiag  1:
 E= -191.602683864633     Delta-E=       -0.060152198510 Rises=F Damp=F
 DIIS: error= 9.19D-03 at cycle   3 NSaved=   3.
 NSaved= 3 IEnMin= 3 EnMin= -191.602683864633     IErMin= 3 ErrMin= 9.19D-03
 ErrMax= 9.19D-03  0.00D+00 EMaxC= 1.00D-01 BMatC= 1.63D-02 BMatP= 3.35D-02
 IDIUse=3 WtCom= 9.08D-01 WtEn= 9.19D-02
 Coeff-Com: -0.193D+00 0.522D+00 0.671D+00
 Coeff-En:   0.000D+00 0.000D+00 0.100D+01
 Coeff:     -0.175D+00 0.474D+00 0.701D+00
 Gap=     0.331 Goal=   None    Shift=    0.000
 RMSDP=2.36D-04 MaxDP=1.78D-02 DE=-6.02D-02 OVMax= 4.57D-02

 Cycle   4  Pass 0  IDiag  1:
 E= -191.611679054587     Delta-E=       -0.008995189953 Rises=F Damp=F
 DIIS: error= 3.93D-03 at cycle   4 NSaved=   4.
 NSaved= 4 IEnMin= 4 EnMin= -191.611679054587     IErMin= 4 ErrMin= 3.93D-03
 ErrMax= 3.93D-03  0.00D+00 EMaxC= 1.00D-01 BMatC= 2.86D-03 BMatP= 1.63D-02
 IDIUse=3 WtCom= 9.61D-01 WtEn= 3.93D-02
 Coeff-Com: -0.622D-01 0.104D+00 0.362D+00 0.596D+00
 Coeff-En:   0.000D+00 0.000D+00 0.158D+00 0.842D+00
 Coeff:     -0.597D-01 0.995D-01 0.354D+00 0.606D+00
 Gap=     0.322 Goal=   None    Shift=    0.000
 RMSDP=9.39D-05 MaxDP=7.54D-03 DE=-9.00D-03 OVMax= 1.36D-02

 Cycle   5  Pass 0  IDiag  1:
 E= -191.614009437906     Delta-E=       -0.002330383320 Rises=F Damp=F
 DIIS: error= 3.40D-04 at cycle   5 NSaved=   5.
 NSaved= 5 IEnMin= 5 EnMin= -191.614009437906     IErMin= 5 ErrMin= 3.40D-04
 ErrMax= 3.40D-04  0.00D+00 EMaxC= 1.00D-01 BMatC= 1.11D-05 BMatP= 2.86D-03
 IDIUse=3 WtCom= 9.97D-01 WtEn= 3.40D-03
 Coeff-Com: -0.823D-02 0.108D-01 0.538D-01 0.123D+00 0.820D+00
 Coeff-En:   0.000D+00 0.000D+00 0.000D+00 0.000D+00 0.100D+01
 Coeff:     -0.820D-02 0.107D-01 0.536D-01 0.123D+00 0.821D+00
 Gap=     0.321 Goal=   None    Shift=    0.000
 RMSDP=9.70D-06 MaxDP=8.33D-04 DE=-2.33D-03 OVMax= 2.09D-03

 Initial convergence to 1.0D-05 achieved.  Increase integral accuracy.
 Cycle   6  Pass 1  IDiag  1:
 E= -191.614007795009     Delta-E=        0.000001642897 Rises=F Damp=F
 DIIS: error= 8.51D-05 at cycle   1 NSaved=   1.
 NSaved= 1 IEnMin= 1 EnMin= -191.614007795009     IErMin= 1 ErrMin= 8.51D-05
 ErrMax= 8.51D-05  0.00D+00 EMaxC= 1.00D-01 BMatC= 1.52D-06 BMatP= 1.52D-06
 IDIUse=1 WtCom= 1.00D+00 WtEn= 0.00D+00
 Coeff-Com:  0.100D+01
 Coeff:      0.100D+01
 Gap=     0.322 Goal=   None    Shift=    0.000
 RMSDP=9.70D-06 MaxDP=8.33D-04 DE= 1.64D-06 OVMax= 6.81D-04

 Cycle   7  Pass 1  IDiag  1:
 E= -191.614009024011     Delta-E=       -0.000001229002 Rises=F Damp=F
 DIIS: error= 7.42D-05 at cycle   2 NSaved=   2.
 NSaved= 2 IEnMin= 2 EnMin= -191.614009024011     IErMin= 2 ErrMin= 7.42D-05
 ErrMax= 7.42D-05  0.00D+00 EMaxC= 1.00D-01 BMatC= 8.67D-07 BMatP= 1.52D-06
 IDIUse=1 WtCom= 1.00D+00 WtEn= 0.00D+00
 Coeff-Com:  0.422D+00 0.578D+00
 Coeff:      0.422D+00 0.578D+00
 Gap=     0.322 Goal=   None    Shift=    0.000
 RMSDP=1.44D-06 MaxDP=9.97D-05 DE=-1.23D-06 OVMax= 3.65D-04

 Cycle   8  Pass 1  IDiag  1:
 E= -191.614009779484     Delta-E=       -0.000000755473 Rises=F Damp=F
 DIIS: error= 1.83D-05 at cycle   3 NSaved=   3.
 NSaved= 3 IEnMin= 3 EnMin= -191.614009779484     IErMin= 3 ErrMin= 1.83D-05
 ErrMax= 1.83D-05  0.00D+00 EMaxC= 1.00D-01 BMatC= 6.11D-08 BMatP= 8.67D-07
 IDIUse=1 WtCom= 1.00D+00 WtEn= 0.00D+00
 Coeff-Com:  0.459D-01 0.167D+00 0.787D+00
 Coeff:      0.459D-01 0.167D+00 0.787D+00
 Gap=     0.322 Goal=   None    Shift=    0.000
 RMSDP=1.35D-06 MaxDP=1.49D-04 DE=-7.55D-07 OVMax= 1.11D-04

 Cycle   9  Pass 1  IDiag  1:
 E= -191.614009838714     Delta-E=       -0.000000059230 Rises=F Damp=F
 DIIS: error= 1.54D-05 at cycle   4 NSaved=   4.
 NSaved= 4 IEnMin= 4 EnMin= -191.614009838714     IErMin= 4 ErrMin= 1.54D-05
 ErrMax= 1.54D-05  0.00D+00 EMaxC= 1.00D-01 BMatC= 2.16D-08 BMatP= 6.11D-08
 IDIUse=1 WtCom= 1.00D+00 WtEn= 0.00D+00
 Coeff-Com: -0.115D+00-0.961D-01 0.447D+00 0.764D+00
 Coeff:     -0.115D+00-0.961D-01 0.447D+00 0.764D+00
 Gap=     0.322 Goal=   None    Shift=    0.000
 RMSDP=6.73D-07 MaxDP=7.13D-05 DE=-5.92D-08 OVMax= 1.07D-04

 Cycle  10  Pass 1  IDiag  1:
 E= -191.614009867151     Delta-E=       -0.000000028437 Rises=F Damp=F
 DIIS: error= 1.77D-06 at cycle   5 NSaved=   5.
 NSaved= 5 IEnMin= 5 EnMin= -191.614009867151     IErMin= 5 ErrMin= 1.77D-06
 ErrMax= 1.77D-06  0.00D+00 EMaxC= 1.00D-01 BMatC= 9.57D-10 BMatP= 2.16D-08
 IDIUse=1 WtCom= 1.00D+00 WtEn= 0.00D+00
 Coeff-Com: -0.291D-01-0.336D-01 0.414D-01 0.218D+00 0.803D+00
 Coeff:     -0.291D-01-0.336D-01 0.414D-01 0.218D+00 0.803D+00
 Gap=     0.322 Goal=   None    Shift=    0.000
 RMSDP=1.71D-07 MaxDP=2.04D-05 DE=-2.84D-08 OVMax= 1.23D-05

 Cycle  11  Pass 1  IDiag  1:
 E= -191.614009868018     Delta-E=       -0.000000000867 Rises=F Damp=F
 DIIS: error= 9.41D-07 at cycle   6 NSaved=   6.
 NSaved= 6 IEnMin= 6 EnMin= -191.614009868018     IErMin= 6 ErrMin= 9.41D-07
 ErrMax= 9.41D-07  0.00D+00 EMaxC= 1.00D-01 BMatC= 1.21D-10 BMatP= 9.57D-10
 IDIUse=1 WtCom= 1.00D+00 WtEn= 0.00D+00
 Coeff-Com:  0.761D-02 0.294D-02-0.583D-01-0.154D-01 0.283D+00 0.780D+00
 Coeff:      0.761D-02 0.294D-02-0.583D-01-0.154D-01 0.283D+00 0.780D+00
 Gap=     0.322 Goal=   None    Shift=    0.000
 RMSDP=3.18D-08 MaxDP=1.43D-06 DE=-8.67D-10 OVMax= 8.83D-06

 Cycle  12  Pass 1  IDiag  1:
 E= -191.614009868161     Delta-E=       -0.000000000142 Rises=F Damp=F
 DIIS: error= 2.40D-07 at cycle   7 NSaved=   7.
 NSaved= 7 IEnMin= 7 EnMin= -191.614009868161     IErMin= 7 ErrMin= 2.40D-07
 ErrMax= 2.40D-07  0.00D+00 EMaxC= 1.00D-01 BMatC= 1.56D-11 BMatP= 1.21D-10
 IDIUse=1 WtCom= 1.00D+00 WtEn= 0.00D+00
 Coeff-Com:  0.551D-02 0.342D-02-0.320D-01-0.213D-01 0.633D-01 0.353D+00
 Coeff-Com:  0.628D+00
 Coeff:      0.551D-02 0.342D-02-0.320D-01-0.213D-01 0.633D-01 0.353D+00
 Coeff:      0.628D+00
 Gap=     0.322 Goal=   None    Shift=    0.000
 RMSDP=9.75D-09 MaxDP=8.96D-07 DE=-1.42D-10 OVMax= 1.08D-06

 SCF Done:  E(RB2PLYPD3) =  -191.614009868     A.U. after   12 cycles
            NFock= 12  Conv=0.98D-08     -V/T= 2.0033
 KE= 1.909796312349D+02 PE=-6.548297001728D+02 EE= 1.688410464466D+02
 Leave Link  502 at Wed Aug 26 14:13:44 2020, MaxMem=  2097152000 cpu:       324.4
 (Enter /opt/cluster/programs/g09/g09_d.01/g09/l801.exe)
 DoSCS=T DFT=T ScalE2(SS,OS)=  0.270000  0.270000
 ExpMin= 7.60D-02 ExpMax= 1.17D+05 ExpMxC= 1.13D+03 IAcc=3 IRadAn=         5 AccDes= 0.00D+00
 HarFok:  IExCor=  205 AccDes= 0.00D+00 IRadAn=         5 IDoV=-2 UseB2=F ITyADJ=14
 ICtDFT= 12500011 ScaDFX=  1.000000  1.000000  1.000000  1.000000
 Largest valence mixing into a core orbital is  1.13D-04
 Largest core mixing into a valence orbital is  1.91D-05
 Range of M.O.s used for correlation:     5   348
 NBasis=   348 NAE=    15 NBE=    15 NFC=     4 NFV=     0
 NROrb=    344 NOA=    11 NOB=    11 NVA=   333 NVB=   333

 **** Warning!!: The largest alpha MO coefficient is  0.30792734D+02

 Leave Link  801 at Wed Aug 26 14:13:44 2020, MaxMem=  2097152000 cpu:         0.7
 (Enter /opt/cluster/programs/g09/g09_d.01/g09/l906.exe)
 DoSCS=T DFT=T ScalE2(SS,OS)=  0.270000  0.270000
 FulOut=F Deriv=F AODrv=F NAtomX=     8
   MMem=        1190  MDisk=          11 MDiskD=          11
  W3Min=     1567764 MinDsk=     2827057 NBas6D=         428
 NBas2D=       93150    NTT=       91806    LW2=     4508827
    MDV=  2096570832 MDiskM=       10875 NBas2p=       89466
 Fully direct method using O(OVN) memory.
 IMap=   1   2   3   4   5   6   7   8   9  10  11
 JobTyp=1 Pass  1:  I=   1 to  11 NPSUse=  8 ParTrn=T ParDer=T DoDerP=F.
 Spin components of T(2) and E(2):
     alpha-alpha T2 =       0.4369056976D-01 E2=     -0.2945606293D-01
     alpha-beta  T2 =       0.2669769554D+00 E2=     -0.1881712736D+00
     beta-beta   T2 =       0.4369056976D-01 E2=     -0.2945606293D-01
 The integrals were generated   1 times.
 E2(B2PLYPD3) =    -0.2470833995D+00 E(B2PLYPD3) =    -0.19186109326765D+03
 Leave Link  906 at Wed Aug 26 14:14:35 2020, MaxMem=  2097152000 cpu:       407.5
 (Enter /opt/cluster/programs/g09/g09_d.01/g09/l601.exe)
 Copying SCF densities to generalized density rwf, IOpCl= 0 IROHF=0.

 **********************************************************************

            Population analysis using the SCF density.

 **********************************************************************

 Orbital symmetries:
       Occupied  (A) (A) (A) (A) (A) (A) (A) (A) (A) (A) (A) (A)
                 (A) (A) (A)
       Virtual   (A) (A) (A) (A) (A) (A) (A) (A) (A) (A) (A) (A)
                 (A) (A) (A) (A) (A) (A) (A) (A) (A) (A) (A) (A)
                 (A) (A) (A) (A) (A) (A) (A) (A) (A) (A) (A) (A)
                 (A) (A) (A) (A) (A) (A) (A) (A) (A) (A) (A) (A)
                 (A) (A) (A) (A) (A) (A) (A) (A) (A) (A) (A) (A)
                 (A) (A) (A) (A) (A) (A) (A) (A) (A) (A) (A) (A)
                 (A) (A) (A) (A) (A) (A) (A) (A) (A) (A) (A) (A)
                 (A) (A) (A) (A) (A) (A) (A) (A) (A) (A) (A) (A)
                 (A) (A) (A) (A) (A) (A) (A) (A) (A) (A) (A) (A)
                 (A) (A) (A) (A) (A) (A) (A) (A) (A) (A) (A) (A)
                 (A) (A) (A) (A) (A) (A) (A) (A) (A) (A) (A) (A)
                 (A) (A) (A) (A) (A) (A) (A) (A) (A) (A) (A) (A)
                 (A) (A) (A) (A) (A) (A) (A) (A) (A) (A) (A) (A)
                 (A) (A) (A) (A) (A) (A) (A) (A) (A) (A) (A) (A)
                 (A) (A) (A) (A) (A) (A) (A) (A) (A) (A) (A) (A)
                 (A) (A) (A) (A) (A) (A) (A) (A) (A) (A) (A) (A)
                 (A) (A) (A) (A) (A) (A) (A) (A) (A) (A) (A) (A)
                 (A) (A) (A) (A) (A) (A) (A) (A) (A) (A) (A) (A)
                 (A) (A) (A) (A) (A) (A) (A) (A) (A) (A) (A) (A)
                 (A) (A) (A) (A) (A) (A) (A) (A) (A) (A) (A) (A)
                 (A) (A) (A) (A) (A) (A) (A) (A) (A) (A) (A) (A)
                 (A) (A) (A) (A) (A) (A) (A) (A) (A) (A) (A) (A)
                 (A) (A) (A) (A) (A) (A) (A) (A) (A) (A) (A) (A)
                 (A) (A) (A) (A) (A) (A) (A) (A) (A) (A) (A) (A)
                 (A) (A) (A) (A) (A) (A) (A) (A) (A) (A) (A) (A)
                 (A) (A) (A) (A) (A) (A) (A) (A) (A) (A) (A) (A)
                 (A) (A) (A) (A) (A) (A) (A) (A) (A) (A) (A) (A)
                 (A) (A) (A) (A) (A) (A) (A) (A) (A)
 The electronic state is 1-A.
 Alpha  occ. eigenvalues --  -19.72789 -10.71239 -10.65865 -10.64399  -1.19915
 Alpha  occ. eigenvalues --   -0.92753  -0.75486  -0.67265  -0.56784  -0.56074
 Alpha  occ. eigenvalues --   -0.50675  -0.47053  -0.46201  -0.34512  -0.34023
 Alpha virt. eigenvalues --   -0.01846   0.05684   0.07180   0.08277   0.09738
 Alpha virt. eigenvalues --    0.12438   0.14059   0.15368   0.17628   0.19791
 Alpha virt. eigenvalues --    0.19897   0.21307   0.25401   0.26538   0.28985
 Alpha virt. eigenvalues --    0.31663   0.33867   0.35005   0.37417   0.37922
 Alpha virt. eigenvalues --    0.39403   0.41505   0.42723   0.44515   0.46610
 Alpha virt. eigenvalues --    0.47124   0.49112   0.54330   0.54672   0.57066
 Alpha virt. eigenvalues --    0.59399   0.64010   0.65971   0.66946   0.71312
 Alpha virt. eigenvalues --    0.74572   0.76055   0.78026   0.79767   0.80665
 Alpha virt. eigenvalues --    0.81815   0.82462   0.83009   0.84179   0.86505
 Alpha virt. eigenvalues --    0.88703   0.91682   0.92650   0.93750   0.95786
 Alpha virt. eigenvalues --    0.96468   0.97324   1.00606   1.02427   1.07413
 Alpha virt. eigenvalues --    1.10006   1.12178   1.14037   1.17165   1.19741
 Alpha virt. eigenvalues --    1.20496   1.25530   1.28566   1.32865   1.40061
 Alpha virt. eigenvalues --    1.42819   1.47050   1.48000   1.55399   1.56449
 Alpha virt. eigenvalues --    1.58760   1.61806   1.66283   1.66987   1.70569
 Alpha virt. eigenvalues --    1.73040   1.76555   1.79035   1.81171   1.83743
 Alpha virt. eigenvalues --    1.85755   1.91519   1.92377   1.93452   1.93859
 Alpha virt. eigenvalues --    1.95724   1.98797   2.00023   2.00714   2.03831
 Alpha virt. eigenvalues --    2.06681   2.10337   2.11166   2.14116   2.14708
 Alpha virt. eigenvalues --    2.16629   2.18429   2.20349   2.22972   2.25008
 Alpha virt. eigenvalues --    2.28078   2.34958   2.35747   2.39208   2.43156
 Alpha virt. eigenvalues --    2.45177   2.47292   2.49059   2.49765   2.53662
 Alpha virt. eigenvalues --    2.55690   2.57892   2.59656   2.61263   2.63761
 Alpha virt. eigenvalues --    2.65965   2.66561   2.67278   2.68912   2.72854
 Alpha virt. eigenvalues --    2.74776   2.77369   2.86076   2.87163   2.88114
 Alpha virt. eigenvalues --    2.88820   2.96656   2.97467   3.02573   3.07514
 Alpha virt. eigenvalues --    3.16944   3.18515   3.29167   3.30773   3.32525
 Alpha virt. eigenvalues --    3.34294   3.40164   3.43384   3.44594   3.47098
 Alpha virt. eigenvalues --    3.48103   3.51613   3.60609   3.62520   3.62926
 Alpha virt. eigenvalues --    3.66800   3.72369   3.76030   3.83813   3.88830
 Alpha virt. eigenvalues --    3.94298   3.98901   4.00721   4.04138   4.07025
 Alpha virt. eigenvalues --    4.10955   4.19688   4.20437   4.27395   4.32723
 Alpha virt. eigenvalues --    4.39518   4.42154   4.54798   4.61607   4.62643
 Alpha virt. eigenvalues --    4.66697   4.82478   4.87930   4.92403   5.01052
 Alpha virt. eigenvalues --    5.03034   5.04592   5.09079   5.10729   5.13474
 Alpha virt. eigenvalues --    5.21772   5.27701   5.30810   5.35141   5.43258
 Alpha virt. eigenvalues --    5.44906   5.53558   5.55692   5.57840   5.60271
 Alpha virt. eigenvalues --    5.62989   5.66068   5.69767   5.72727   5.78026
 Alpha virt. eigenvalues --    5.79402   5.81627   5.86231   5.91447   5.94927
 Alpha virt. eigenvalues --    5.96152   5.98484   6.02321   6.04766   6.07725
 Alpha virt. eigenvalues --    6.09335   6.15089   6.15641   6.17117   6.19594
 Alpha virt. eigenvalues --    6.21546   6.22789   6.23486   6.28138   6.28759
 Alpha virt. eigenvalues --    6.32988   6.35110   6.38300   6.42685   6.46652
 Alpha virt. eigenvalues --    6.48186   6.49967   6.52789   6.57308   6.62227
 Alpha virt. eigenvalues --    6.63902   6.68639   6.70892   6.76426   6.77907
 Alpha virt. eigenvalues --    6.81905   6.86124   6.93278   6.95506   6.98797
 Alpha virt. eigenvalues --    7.02849   7.05518   7.12085   7.15869   7.19906
 Alpha virt. eigenvalues --    7.34858   7.35110   7.46932   7.51253   7.53014
 Alpha virt. eigenvalues --    7.57497   7.59930   7.61263   7.65297   7.66607
 Alpha virt. eigenvalues --    7.69482   7.70033   7.74930   7.76194   7.78031
 Alpha virt. eigenvalues --    7.84524   7.86283   7.91787   8.01043   8.02955
 Alpha virt. eigenvalues --    8.04118   8.09099   8.11693   8.14710   8.19012
 Alpha virt. eigenvalues --    8.21541   8.26570   8.28708   8.32350   8.35344
 Alpha virt. eigenvalues --    8.36122   8.38261   8.45967   8.50594   8.53034
 Alpha virt. eigenvalues --    8.55772   8.57122   8.62516   8.65205   8.70187
 Alpha virt. eigenvalues --    8.77564   8.86126   8.88767   8.92823   9.08018
 Alpha virt. eigenvalues --    9.08540   9.11561   9.18205   9.26010   9.32054
 Alpha virt. eigenvalues --    9.36961   9.42569   9.56216   9.68444   9.72731
 Alpha virt. eigenvalues --    9.79606   9.81403   9.91658   9.94775   9.95965
 Alpha virt. eigenvalues --   10.03058  10.11065  10.14691  10.19218  10.29268
 Alpha virt. eigenvalues --   10.34002  10.44700  10.53706  10.65673  10.83415
 Alpha virt. eigenvalues --   11.01955  11.25266  11.25671  11.28265  11.44403
 Alpha virt. eigenvalues --   11.67362  11.78275  11.91316  12.04321  12.10986
 Alpha virt. eigenvalues --   12.34084  12.37579  12.52326  12.61198  12.94581
 Alpha virt. eigenvalues --   12.97427  13.40501  13.86208  14.36069  14.77652
 Alpha virt. eigenvalues --   28.59371  28.93177  29.45097  48.67254 148.17763
 Alpha virt. eigenvalues --  148.49759 149.04008 254.43591
          Condensed to atoms (all electrons):
               1          2          3          4          5          6
     1  C    4.490201   0.625711   0.368184  -0.049943  -0.031385  -0.004946
     2  O    0.625711   7.879384  -0.095373   0.006916   0.005125   0.000355
     3  C    0.368184  -0.095373   5.175314   0.474872   0.367899  -0.054245
     4  C   -0.049943   0.006916   0.474872   4.882978  -0.041133   0.420806
     5  H   -0.031385   0.005125   0.367899  -0.041133   0.587087   0.006315
     6  H   -0.004946   0.000355  -0.054245   0.420806   0.006315   0.587146
     7  H    0.002263  -0.000474  -0.027401   0.413231  -0.005280  -0.040477
     8  H    0.447028  -0.075960  -0.171927   0.024540   0.008346   0.006280
               7          8
     1  C    0.002263   0.447028
     2  O   -0.000474  -0.075960
     3  C   -0.027401  -0.171927
     4  C    0.413231   0.024540
     5  H   -0.005280   0.008346
     6  H   -0.040477   0.006280
     7  H    0.555020  -0.000643
     8  H   -0.000643   0.685505
 Mulliken charges:
               1
     1  C    0.152888
     2  O   -0.345684
     3  C   -0.037324
     4  C   -0.132267
     5  H    0.103026
     6  H    0.078767
     7  H    0.103761
     8  H    0.076832
 Sum of Mulliken charges =   0.00000
 Mulliken charges with hydrogens summed into heavy atoms:
               1
     1  C    0.229720
     2  O   -0.345684
     3  C    0.065702
     4  C    0.050262
 Electronic spatial extent (au):  <R**2>=            297.9150
 Charge=              0.0000 electrons
 Dipole moment (field-independent basis, Debye):
    X=              3.4378    Y=              0.8386    Z=             -0.0049  Tot=              3.5386
 Quadrupole moment (field-independent basis, Debye-Ang):
   XX=            -27.2316   YY=            -21.8454   ZZ=            -25.2361
   XY=             -1.1122   XZ=             -0.1347   YZ=              0.0861
 Traceless Quadrupole moment (field-independent basis, Debye-Ang):
   XX=             -2.4606   YY=              2.9256   ZZ=             -0.4651
   XY=             -1.1122   XZ=             -0.1347   YZ=              0.0861
 Octapole moment (field-independent basis, Debye-Ang**2):
  XXX=             15.4794  YYY=              0.2063  ZZZ=             -0.1243  XYY=             -0.5539
  XXY=              0.3813  XXZ=             -0.0106  XZZ=             -4.5395  YZZ=              0.2493
  YYZ=             -0.1558  XYZ=              0.0681
 Hexadecapole moment (field-independent basis, Debye-Ang**3):
 XXXX=           -299.9583 YYYY=            -54.8903 ZZZZ=            -27.4594 XXXY=             -4.4573
 XXXZ=             -0.4670 YYYX=              0.1036 YYYZ=              0.2915 ZZZX=             -0.0241
 ZZZY=              0.0882 XXYY=            -58.8160 XXZZ=            -57.6925 YYZZ=            -15.3880
 XXYZ=              0.1598 YYXZ=             -0.0223 ZZXY=              0.3911
 N-N= 1.033950126231D+02 E-N=-6.548296966518D+02  KE= 1.909796312349D+02
 Leave Link  601 at Wed Aug 26 14:14:35 2020, MaxMem=  2097152000 cpu:         0.6
 (Enter /opt/cluster/programs/g09/g09_d.01/g09/l9999.exe)
 1\1\GINC-NODE39\SP\RB2PLYPD3-FC\def2QZVP\C3H4O1\BOITTIER\26-Aug-2020\0
 \\#p B2PLYPD3/Def2QZVP\\acrolein\\0,1\C,0,-5.008333,-1.373503,0.87946\
 O,0,-3.928191,-0.880919,0.672681\C,0,-5.202867,-2.801529,1.116114\C,0,
 -6.402108,-3.319635,1.418918\H,0,-4.306297,-3.434168,1.156223\H,0,-7.2
 45069,-2.65486,1.405912\H,0,-6.605193,-4.405067,1.629409\H,0,-5.907905
 ,-0.788404,0.928291\\Version=ES64L-G09RevD.01\State=1-A\HF=-191.614009
 9\MP2=-191.8610933\RMSD=9.751e-09\PG=C01 [X(C3H4O1)]\\@


 Discoveries are often made by not following instructions,
 by going off the main road, by trying the untried.
 -- Frank Tyger
 Job cpu time:       0 days  0 hours 12 minutes 25.3 seconds.
 File lengths (MBytes):  RWF=     49 Int=      0 D2E=      0 Chk=      7 Scr=      1
 Normal termination of Gaussian 09 at Wed Aug 26 14:14:35 2020.
