 Entering Gaussian System, Link 0=/opt/cluster/programs/g09/g09_d.01/g09//g09
 Input=/home/boittier/MDCM/nms_sampling/acrolein_geom.xyz.dir/energies/acrolein_985_energy.com
 Output=/scratch/boittier/acrolein_985_energy/acrolein_985_energy.out
 Initial command:
 /opt/cluster/programs/g09/g09_d.01/g09/l1.exe "/scratch/boittier/acrolein_985_energy/Gau-71420.inp" -scrdir="/scratch/boittier/acrolein_985_energy/"
 Entering Link 1 = /opt/cluster/programs/g09/g09_d.01/g09/l1.exe PID=     71422.
  
 Copyright (c) 1988,1990,1992,1993,1995,1998,2003,2009,2013,
            Gaussian, Inc.  All Rights Reserved.
  
 This is part of the Gaussian(R) 09 program.  It is based on
 the Gaussian(R) 03 system (copyright 2003, Gaussian, Inc.),
 the Gaussian(R) 98 system (copyright 1998, Gaussian, Inc.),
 the Gaussian(R) 94 system (copyright 1995, Gaussian, Inc.),
 the Gaussian 92(TM) system (copyright 1992, Gaussian, Inc.),
 the Gaussian 90(TM) system (copyright 1990, Gaussian, Inc.),
 the Gaussian 88(TM) system (copyright 1988, Gaussian, Inc.),
 the Gaussian 86(TM) system (copyright 1986, Carnegie Mellon
 University), and the Gaussian 82(TM) system (copyright 1983,
 Carnegie Mellon University). Gaussian is a federally registered
 trademark of Gaussian, Inc.
  
 This software contains proprietary and confidential information,
 including trade secrets, belonging to Gaussian, Inc.
  
 This software is provided under written license and may be
 used, copied, transmitted, or stored only in accord with that
 written license.
  
 The following legend is applicable only to US Government
 contracts under FAR:
  
                    RESTRICTED RIGHTS LEGEND
  
 Use, reproduction and disclosure by the US Government is
 subject to restrictions as set forth in subparagraphs (a)
 and (c) of the Commercial Computer Software - Restricted
 Rights clause in FAR 52.227-19.
  
 Gaussian, Inc.
 340 Quinnipiac St., Bldg. 40, Wallingford CT 06492
  
  
 ---------------------------------------------------------------
 Warning -- This program may not be used in any manner that
 competes with the business of Gaussian, Inc. or will provide
 assistance to any competitor of Gaussian, Inc.  The licensee
 of this program is prohibited from giving any competitor of
 Gaussian, Inc. access to this program.  By using this program,
 the user acknowledges that Gaussian, Inc. is engaged in the
 business of creating and licensing software in the field of
 computational chemistry and represents and warrants to the
 licensee that it is not a competitor of Gaussian, Inc. and that
 it will not use this program in any manner prohibited above.
 ---------------------------------------------------------------
  

 Cite this work as:
 Gaussian 09, Revision D.01,
 M. J. Frisch, G. W. Trucks, H. B. Schlegel, G. E. Scuseria, 
 M. A. Robb, J. R. Cheeseman, G. Scalmani, V. Barone, B. Mennucci, 
 G. A. Petersson, H. Nakatsuji, M. Caricato, X. Li, H. P. Hratchian, 
 A. F. Izmaylov, J. Bloino, G. Zheng, J. L. Sonnenberg, M. Hada, 
 M. Ehara, K. Toyota, R. Fukuda, J. Hasegawa, M. Ishida, T. Nakajima, 
 Y. Honda, O. Kitao, H. Nakai, T. Vreven, J. A. Montgomery, Jr., 
 J. E. Peralta, F. Ogliaro, M. Bearpark, J. J. Heyd, E. Brothers, 
 K. N. Kudin, V. N. Staroverov, T. Keith, R. Kobayashi, J. Normand, 
 K. Raghavachari, A. Rendell, J. C. Burant, S. S. Iyengar, J. Tomasi, 
 M. Cossi, N. Rega, J. M. Millam, M. Klene, J. E. Knox, J. B. Cross, 
 V. Bakken, C. Adamo, J. Jaramillo, R. Gomperts, R. E. Stratmann, 
 O. Yazyev, A. J. Austin, R. Cammi, C. Pomelli, J. W. Ochterski, 
 R. L. Martin, K. Morokuma, V. G. Zakrzewski, G. A. Voth, 
 P. Salvador, J. J. Dannenberg, S. Dapprich, A. D. Daniels, 
 O. Farkas, J. B. Foresman, J. V. Ortiz, J. Cioslowski, 
 and D. J. Fox, Gaussian, Inc., Wallingford CT, 2013.
 
 ******************************************
 Gaussian 09:  ES64L-G09RevD.01 24-Apr-2013
                26-Aug-2020 
 ******************************************
 %chk=/home/boittier/MDCM/nms_sampling/acrolein_geom.xyz.dir/acrolein_985.chk
 %nproc=8
 Will use up to    8 processors via shared memory.
 %mem=16000MB
 --------------------
 #p B2PLYPD3/Def2QZVP
 --------------------
 1/38=1/1;
 2/12=2,17=6,18=5,40=1/2;
 3/5=45,7=101,11=9,16=1,25=1,30=1,74=-60/1,2,3;
 4//1;
 5/5=2,38=5/2;
 8/10=1/1;
 9/16=-3/6;
 6/7=2,8=2,9=2,10=2/1;
 99/5=1,9=1/99;
 Leave Link    1 at Wed Aug 26 21:17:32 2020, MaxMem=  2097152000 cpu:        21.4
 (Enter /opt/cluster/programs/g09/g09_d.01/g09/l101.exe)
 --------
 acrolein
 --------
 Symbolic Z-matrix:
 Charge =  0 Multiplicity = 1
 C                    -5.00777  -1.36564   0.91831 
 O                    -3.92317  -0.88137   0.63516 
 C                    -5.20099  -2.81444   1.18473 
 C                    -6.41841  -3.31443   1.37127 
 H                    -4.30545  -3.41861   1.05993 
 H                    -7.18367  -2.66169   1.4121 
 H                    -6.56711  -4.39515   1.57386 
 H                    -5.91767  -0.79151   0.96276 
 
 NAtoms=      8 NQM=        8 NQMF=       0 NMMI=      0 NMMIF=      0
                NMic=       0 NMicF=      0.
                    Isotopes and Nuclear Properties:
 (Nuclear quadrupole moments (NQMom) in fm**2, nuclear magnetic moments (NMagM)
  in nuclear magnetons)

  Atom         1           2           3           4           5           6           7           8
 IAtWgt=          12          16          12          12           1           1           1           1
 AtmWgt=  12.0000000  15.9949146  12.0000000  12.0000000   1.0078250   1.0078250   1.0078250   1.0078250
 NucSpn=           0           0           0           0           1           1           1           1
 AtZEff=   0.0000000   0.0000000   0.0000000   0.0000000   0.0000000   0.0000000   0.0000000   0.0000000
 NQMom=    0.0000000   0.0000000   0.0000000   0.0000000   0.0000000   0.0000000   0.0000000   0.0000000
 NMagM=    0.0000000   0.0000000   0.0000000   0.0000000   2.7928460   2.7928460   2.7928460   2.7928460
 AtZNuc=   6.0000000   8.0000000   6.0000000   6.0000000   1.0000000   1.0000000   1.0000000   1.0000000
 Leave Link  101 at Wed Aug 26 21:17:42 2020, MaxMem=  2097152000 cpu:         0.5
 (Enter /opt/cluster/programs/g09/g09_d.01/g09/l202.exe)
                          Input orientation:                          
 ---------------------------------------------------------------------
 Center     Atomic      Atomic             Coordinates (Angstroms)
 Number     Number       Type             X           Y           Z
 ---------------------------------------------------------------------
      1          6           0       -5.007770   -1.365635    0.918305
      2          8           0       -3.923174   -0.881372    0.635161
      3          6           0       -5.200988   -2.814442    1.184726
      4          6           0       -6.418409   -3.314431    1.371274
      5          1           0       -4.305450   -3.418614    1.059934
      6          1           0       -7.183666   -2.661689    1.412104
      7          1           0       -6.567106   -4.395152    1.573860
      8          1           0       -5.917674   -0.791511    0.962761
 ---------------------------------------------------------------------
                    Distance matrix (angstroms):
                    1          2          3          4          5
     1  C    0.000000
     2  O    1.221077   0.000000
     3  C    1.485717   2.381510   0.000000
     4  C    2.448038   3.561999   1.329249   0.000000
     5  H    2.174405   2.600801   1.087467   2.138313   0.000000
     6  H    2.580333   3.795257   2.001511   1.006657   2.996846
     7  H    3.469763   4.496463   2.125170   1.109554   2.516512
     8  H    1.076810   2.023222   2.157581   2.604370   3.083890
                    6          7          8
     6  H    0.000000
     7  H    1.846945   0.000000
     8  H    2.302653   3.712335   0.000000
 Stoichiometry    C3H4O
 Framework group  C1[X(C3H4O)]
 Deg. of freedom    18
 Full point group                 C1      NOp   1
 Largest Abelian subgroup         C1      NOp   1
 Largest concise Abelian subgroup C1      NOp   1
                         Standard orientation:                         
 ---------------------------------------------------------------------
 Center     Atomic      Atomic             Coordinates (Angstroms)
 Number     Number       Type             X           Y           Z
 ---------------------------------------------------------------------
      1          6           0        0.676835    0.366105    0.022369
      2          8           0        1.789689   -0.134498   -0.022158
      3          6           0       -0.571308   -0.439546    0.042856
      4          6           0       -1.761007    0.148951   -0.029194
      5          1           0       -0.415650   -1.513089   -0.033709
      6          1           0       -1.779684    1.155216   -0.008229
      7          1           0       -2.695782   -0.448519   -0.010825
      8          1           0        0.506490    1.429321    0.013840
 ---------------------------------------------------------------------
 Rotational constants (GHZ):     48.4308017      4.6569706      4.2518231
 Leave Link  202 at Wed Aug 26 21:17:57 2020, MaxMem=  2097152000 cpu:         0.0
 (Enter /opt/cluster/programs/g09/g09_d.01/g09/l301.exe)
 Standard basis: def2QZVP (5D, 7F)
 Ernie: Thresh=  0.10000D-02 Tol=  0.10000D-05 Strict=F.
 There are   428 symmetry adapted cartesian basis functions of A   symmetry.
 There are   348 symmetry adapted basis functions of A   symmetry.
   348 basis functions,   520 primitive gaussians,   428 cartesian basis functions
    15 alpha electrons       15 beta electrons
       nuclear repulsion energy       103.2743341079 Hartrees.
 IExCor=  419 DFT=T Ex+Corr=B2PLYPD3 ExCW=0 ScaHFX=  0.530000
 ScaDFX=  0.470000  0.470000  0.730000  0.730000 ScalE2=  0.270000  0.270000
 IRadAn=      0 IRanWt=     -1 IRanGd=            0 ICorTp=0 IEmpDi=141
 NAtoms=    8 NActive=    8 NUniq=    8 SFac= 1.00D+00 NAtFMM=   60 NAOKFM=F Big=F
 Integral buffers will be    131072 words long.
 Regular integral format.
 Two-electron integral symmetry is turned on.
 R6Disp:  Grimme-D3(BJ) Dispersion energy=       -0.0035947014 Hartrees.
 Nuclear repulsion after empirical dispersion term =      103.2707394066 Hartrees.
 Leave Link  301 at Wed Aug 26 21:18:01 2020, MaxMem=  2097152000 cpu:         0.4
 (Enter /opt/cluster/programs/g09/g09_d.01/g09/l302.exe)
 NPDir=0 NMtPBC=     1 NCelOv=     1 NCel=       1 NClECP=     1 NCelD=      1
         NCelK=      1 NCelE2=     1 NClLst=     1 CellRange=     0.0.
 One-electron integrals computed using PRISM.
   1 Symmetry operations used in ECPInt.
 ECPInt:  NShTT=    5886 NPrTT=   14376 LenC2=    5781 LenP2D=   12185.
 LDataN:  DoStor=T MaxTD1= 8 Len=  415
 NBasis=   348 RedAO= T EigKep=  5.89D-05  NBF=   348
 NBsUse=   348 1.00D-06 EigRej= -1.00D+00 NBFU=   348
 Precomputing XC quadrature grid using
 IXCGrd= 4 IRadAn=           0 IRanWt=          -1 IRanGd=           0 AccXCQ= 0.00D+00.
 Generated NRdTot=       0 NPtTot=           0 NUsed=           0 NTot=          32
 NSgBfM=   428   428   428   428   428 MxSgAt=     8 MxSgA2=     8.
 Leave Link  302 at Wed Aug 26 21:18:02 2020, MaxMem=  2097152000 cpu:         2.5
 (Enter /opt/cluster/programs/g09/g09_d.01/g09/l303.exe)
 DipDrv:  MaxL=1.
 Leave Link  303 at Wed Aug 26 21:18:04 2020, MaxMem=  2097152000 cpu:         0.3
 (Enter /opt/cluster/programs/g09/g09_d.01/g09/l401.exe)
 ExpMin= 7.60D-02 ExpMax= 1.17D+05 ExpMxC= 1.13D+03 IAcc=2 IRadAn=         4 AccDes= 0.00D+00
 Harris functional with IExCor=  419 and IRadAn=       4 diagonalized for initial guess.
 HarFok:  IExCor=  419 AccDes= 0.00D+00 IRadAn=         4 IDoV= 1 UseB2=F ITyADJ=14
 ICtDFT=  3500011 ScaDFX=  1.000000  1.000000  1.000000  1.000000
 FoFCou: FMM=F IPFlag=           0 FMFlag=      100000 FMFlg1=           0
         NFxFlg=           0 DoJE=T BraDBF=F KetDBF=T FulRan=T
         wScrn=  0.000000 ICntrl=     500 IOpCl=  0 I1Cent=   200000004 NGrid=           0
         NMat0=    1 NMatS0=      1 NMatT0=    0 NMatD0=    1 NMtDS0=    0 NMtDT0=    0
 Petite list used in FoFCou.
 Harris En= -192.044949216294    
 JPrj=0 DoOrth=F DoCkMO=F.
 Leave Link  401 at Wed Aug 26 21:18:10 2020, MaxMem=  2097152000 cpu:         5.7
 (Enter /opt/cluster/programs/g09/g09_d.01/g09/l502.exe)
 Closed shell SCF:
 Using DIIS extrapolation, IDIIS=  1040.
 Integral symmetry usage will be decided dynamically.
 Keep R1 ints in memory in canonical form, NReq=1883905047.
 IVT=      574566 IEndB=      574566 NGot=  2097152000 MDV=   252723534
 LenX=   252723534 LenY=   252539909
 Requested convergence on RMS density matrix=1.00D-08 within 128 cycles.
 Requested convergence on MAX density matrix=1.00D-06.
 Requested convergence on             energy=1.00D-06.
 No special actions if energy rises.
 FoFCou: FMM=F IPFlag=           0 FMFlag=           0 FMFlg1=           0
         NFxFlg=           0 DoJE=F BraDBF=F KetDBF=F FulRan=T
         wScrn=  0.000000 ICntrl=     600 IOpCl=  0 I1Cent=           0 NGrid=           0
         NMat0=    1 NMatS0=  60726 NMatT0=    0 NMatD0=    1 NMtDS0=    0 NMtDT0=    0
 Symmetry not used in FoFCou.
 Integral accuracy reduced to 1.0D-05 until final iterations.

 Cycle   1  Pass 0  IDiag  1:
 E= -191.465252188151    
 DIIS: error= 2.55D-02 at cycle   1 NSaved=   1.
 NSaved= 1 IEnMin= 1 EnMin= -191.465252188151     IErMin= 1 ErrMin= 2.55D-02
 ErrMax= 2.55D-02  0.00D+00 EMaxC= 1.00D-01 BMatC= 2.58D-01 BMatP= 2.58D-01
 IDIUse=3 WtCom= 7.45D-01 WtEn= 2.55D-01
 Coeff-Com:  0.100D+01
 Coeff-En:   0.100D+01
 Coeff:      0.100D+01
 Gap=     0.294 Goal=   None    Shift=    0.000
 GapD=    0.294 DampG=1.000 DampE=0.500 DampFc=0.5000 IDamp=-1.
 Damping current iteration by 5.00D-01
 RMSDP=1.68D-03 MaxDP=1.92D-01              OVMax= 1.67D-01

 Cycle   2  Pass 0  IDiag  1:
 E= -191.536155465671     Delta-E=       -0.070903277520 Rises=F Damp=T
 DIIS: error= 9.76D-03 at cycle   2 NSaved=   2.
 NSaved= 2 IEnMin= 2 EnMin= -191.536155465671     IErMin= 2 ErrMin= 9.76D-03
 ErrMax= 9.76D-03  0.00D+00 EMaxC= 1.00D-01 BMatC= 3.40D-02 BMatP= 2.58D-01
 IDIUse=3 WtCom= 9.02D-01 WtEn= 9.76D-02
 Coeff-Com: -0.161D+00 0.116D+01
 Coeff-En:   0.000D+00 0.100D+01
 Coeff:     -0.145D+00 0.115D+01
 Gap=     0.351 Goal=   None    Shift=    0.000
 RMSDP=5.61D-04 MaxDP=6.33D-02 DE=-7.09D-02 OVMax= 1.33D-01

 Cycle   3  Pass 0  IDiag  1:
 E= -191.597847614293     Delta-E=       -0.061692148622 Rises=F Damp=F
 DIIS: error= 9.92D-03 at cycle   3 NSaved=   3.
 NSaved= 3 IEnMin= 3 EnMin= -191.597847614293     IErMin= 2 ErrMin= 9.76D-03
 ErrMax= 9.92D-03  0.00D+00 EMaxC= 1.00D-01 BMatC= 1.73D-02 BMatP= 3.40D-02
 IDIUse=3 WtCom= 9.01D-01 WtEn= 9.92D-02
 Coeff-Com: -0.192D+00 0.531D+00 0.661D+00
 Coeff-En:   0.000D+00 0.000D+00 0.100D+01
 Coeff:     -0.173D+00 0.478D+00 0.695D+00
 Gap=     0.333 Goal=   None    Shift=    0.000
 RMSDP=2.40D-04 MaxDP=1.61D-02 DE=-6.17D-02 OVMax= 4.99D-02

 Cycle   4  Pass 0  IDiag  1:
 E= -191.607321913981     Delta-E=       -0.009474299688 Rises=F Damp=F
 DIIS: error= 4.30D-03 at cycle   4 NSaved=   4.
 NSaved= 4 IEnMin= 4 EnMin= -191.607321913981     IErMin= 4 ErrMin= 4.30D-03
 ErrMax= 4.30D-03  0.00D+00 EMaxC= 1.00D-01 BMatC= 3.19D-03 BMatP= 1.73D-02
 IDIUse=3 WtCom= 9.57D-01 WtEn= 4.30D-02
 Coeff-Com: -0.594D-01 0.986D-01 0.363D+00 0.598D+00
 Coeff-En:   0.000D+00 0.000D+00 0.170D+00 0.830D+00
 Coeff:     -0.568D-01 0.944D-01 0.354D+00 0.608D+00
 Gap=     0.323 Goal=   None    Shift=    0.000
 RMSDP=9.85D-05 MaxDP=7.60D-03 DE=-9.47D-03 OVMax= 1.47D-02

 Cycle   5  Pass 0  IDiag  1:
 E= -191.609877447104     Delta-E=       -0.002555533123 Rises=F Damp=F
 DIIS: error= 3.17D-04 at cycle   5 NSaved=   5.
 NSaved= 5 IEnMin= 5 EnMin= -191.609877447104     IErMin= 5 ErrMin= 3.17D-04
 ErrMax= 3.17D-04  0.00D+00 EMaxC= 1.00D-01 BMatC= 1.44D-05 BMatP= 3.19D-03
 IDIUse=3 WtCom= 9.97D-01 WtEn= 3.17D-03
 Coeff-Com: -0.104D-01 0.141D-01 0.709D-01 0.152D+00 0.773D+00
 Coeff-En:   0.000D+00 0.000D+00 0.000D+00 0.000D+00 0.100D+01
 Coeff:     -0.103D-01 0.140D-01 0.707D-01 0.151D+00 0.774D+00
 Gap=     0.321 Goal=   None    Shift=    0.000
 RMSDP=7.46D-06 MaxDP=3.38D-04 DE=-2.56D-03 OVMax= 2.45D-03

 Initial convergence to 1.0D-05 achieved.  Increase integral accuracy.
 Cycle   6  Pass 1  IDiag  1:
 E= -191.609878482784     Delta-E=       -0.000001035680 Rises=F Damp=F
 DIIS: error= 1.08D-04 at cycle   1 NSaved=   1.
 NSaved= 1 IEnMin= 1 EnMin= -191.609878482784     IErMin= 1 ErrMin= 1.08D-04
 ErrMax= 1.08D-04  0.00D+00 EMaxC= 1.00D-01 BMatC= 2.09D-06 BMatP= 2.09D-06
 IDIUse=3 WtCom= 9.99D-01 WtEn= 1.08D-03
 Coeff-Com:  0.100D+01
 Coeff-En:   0.100D+01
 Coeff:      0.100D+01
 Gap=     0.322 Goal=   None    Shift=    0.000
 RMSDP=7.46D-06 MaxDP=3.38D-04 DE=-1.04D-06 OVMax= 8.07D-04

 Cycle   7  Pass 1  IDiag  1:
 E= -191.609879380879     Delta-E=       -0.000000898095 Rises=F Damp=F
 DIIS: error= 1.05D-04 at cycle   2 NSaved=   2.
 NSaved= 2 IEnMin= 2 EnMin= -191.609879380879     IErMin= 2 ErrMin= 1.05D-04
 ErrMax= 1.05D-04  0.00D+00 EMaxC= 1.00D-01 BMatC= 1.62D-06 BMatP= 2.09D-06
 IDIUse=3 WtCom= 9.99D-01 WtEn= 1.05D-03
 Coeff-Com:  0.466D+00 0.534D+00
 Coeff-En:   0.341D+00 0.659D+00
 Coeff:      0.466D+00 0.534D+00
 Gap=     0.322 Goal=   None    Shift=    0.000
 RMSDP=2.32D-06 MaxDP=1.80D-04 DE=-8.98D-07 OVMax= 7.03D-04

 Cycle   8  Pass 1  IDiag  1:
 E= -191.609880962075     Delta-E=       -0.000001581196 Rises=F Damp=F
 DIIS: error= 1.89D-05 at cycle   3 NSaved=   3.
 NSaved= 3 IEnMin= 3 EnMin= -191.609880962075     IErMin= 3 ErrMin= 1.89D-05
 ErrMax= 1.89D-05  0.00D+00 EMaxC= 1.00D-01 BMatC= 7.26D-08 BMatP= 1.62D-06
 IDIUse=1 WtCom= 1.00D+00 WtEn= 0.00D+00
 Coeff-Com:  0.659D-01 0.167D+00 0.767D+00
 Coeff:      0.659D-01 0.167D+00 0.767D+00
 Gap=     0.322 Goal=   None    Shift=    0.000
 RMSDP=1.29D-06 MaxDP=1.38D-04 DE=-1.58D-06 OVMax= 1.01D-04

 Cycle   9  Pass 1  IDiag  1:
 E= -191.609881040410     Delta-E=       -0.000000078335 Rises=F Damp=F
 DIIS: error= 1.26D-05 at cycle   4 NSaved=   4.
 NSaved= 4 IEnMin= 4 EnMin= -191.609881040410     IErMin= 4 ErrMin= 1.26D-05
 ErrMax= 1.26D-05  0.00D+00 EMaxC= 1.00D-01 BMatC= 1.31D-08 BMatP= 7.26D-08
 IDIUse=1 WtCom= 1.00D+00 WtEn= 0.00D+00
 Coeff-Com: -0.970D-01-0.613D-01 0.302D+00 0.856D+00
 Coeff:     -0.970D-01-0.613D-01 0.302D+00 0.856D+00
 Gap=     0.322 Goal=   None    Shift=    0.000
 RMSDP=6.80D-07 MaxDP=6.88D-05 DE=-7.83D-08 OVMax= 9.80D-05

 Cycle  10  Pass 1  IDiag  1:
 E= -191.609881061972     Delta-E=       -0.000000021563 Rises=F Damp=F
 DIIS: error= 3.34D-06 at cycle   5 NSaved=   5.
 NSaved= 5 IEnMin= 5 EnMin= -191.609881061972     IErMin= 5 ErrMin= 3.34D-06
 ErrMax= 3.34D-06  0.00D+00 EMaxC= 1.00D-01 BMatC= 3.53D-09 BMatP= 1.31D-08
 IDIUse=1 WtCom= 1.00D+00 WtEn= 0.00D+00
 Coeff-Com: -0.569D-01-0.451D-01 0.815D-01 0.474D+00 0.546D+00
 Coeff:     -0.569D-01-0.451D-01 0.815D-01 0.474D+00 0.546D+00
 Gap=     0.322 Goal=   None    Shift=    0.000
 RMSDP=1.95D-07 MaxDP=2.04D-05 DE=-2.16D-08 OVMax= 1.75D-05

 Cycle  11  Pass 1  IDiag  1:
 E= -191.609881064569     Delta-E=       -0.000000002597 Rises=F Damp=F
 DIIS: error= 9.84D-07 at cycle   6 NSaved=   6.
 NSaved= 6 IEnMin= 6 EnMin= -191.609881064569     IErMin= 6 ErrMin= 9.84D-07
 ErrMax= 9.84D-07  0.00D+00 EMaxC= 1.00D-01 BMatC= 1.67D-10 BMatP= 3.53D-09
 IDIUse=1 WtCom= 1.00D+00 WtEn= 0.00D+00
 Coeff-Com:  0.609D-02 0.217D-02-0.557D-01-0.136D-01 0.113D+00 0.948D+00
 Coeff:      0.609D-02 0.217D-02-0.557D-01-0.136D-01 0.113D+00 0.948D+00
 Gap=     0.322 Goal=   None    Shift=    0.000
 RMSDP=5.84D-08 MaxDP=5.59D-06 DE=-2.60D-09 OVMax= 7.13D-06

 Cycle  12  Pass 1  IDiag  1:
 E= -191.609881064782     Delta-E=       -0.000000000212 Rises=F Damp=F
 DIIS: error= 2.54D-07 at cycle   7 NSaved=   7.
 NSaved= 7 IEnMin= 7 EnMin= -191.609881064782     IErMin= 7 ErrMin= 2.54D-07
 ErrMax= 2.54D-07  0.00D+00 EMaxC= 1.00D-01 BMatC= 1.86D-11 BMatP= 1.67D-10
 IDIUse=1 WtCom= 1.00D+00 WtEn= 0.00D+00
 Coeff-Com:  0.582D-02 0.380D-02-0.279D-01-0.306D-01-0.552D-02 0.339D+00
 Coeff-Com:  0.715D+00
 Coeff:      0.582D-02 0.380D-02-0.279D-01-0.306D-01-0.552D-02 0.339D+00
 Coeff:      0.715D+00
 Gap=     0.322 Goal=   None    Shift=    0.000
 RMSDP=1.04D-08 MaxDP=4.87D-07 DE=-2.12D-10 OVMax= 1.46D-06

 Cycle  13  Pass 1  IDiag  1:
 E= -191.609881064794     Delta-E=       -0.000000000012 Rises=F Damp=F
 DIIS: error= 4.49D-08 at cycle   8 NSaved=   8.
 NSaved= 8 IEnMin= 8 EnMin= -191.609881064794     IErMin= 8 ErrMin= 4.49D-08
 ErrMax= 4.49D-08  0.00D+00 EMaxC= 1.00D-01 BMatC= 6.73D-13 BMatP= 1.86D-11
 IDIUse=1 WtCom= 1.00D+00 WtEn= 0.00D+00
 Coeff-Com: -0.362D-03 0.348D-04 0.366D-02 0.241D-02-0.131D-01-0.853D-01
 Coeff-Com:  0.422D-01 0.105D+01
 Coeff:     -0.362D-03 0.348D-04 0.366D-02 0.241D-02-0.131D-01-0.853D-01
 Coeff:      0.422D-01 0.105D+01
 Gap=     0.322 Goal=   None    Shift=    0.000
 RMSDP=2.95D-09 MaxDP=9.82D-08 DE=-1.22D-11 OVMax= 5.74D-07

 SCF Done:  E(RB2PLYPD3) =  -191.609881065     A.U. after   13 cycles
            NFock= 13  Conv=0.30D-08     -V/T= 2.0030
 KE= 1.910452741776D+02 PE=-6.546286373754D+02 EE= 1.687027427265D+02
 Leave Link  502 at Wed Aug 26 21:19:19 2020, MaxMem=  2097152000 cpu:       276.6
 (Enter /opt/cluster/programs/g09/g09_d.01/g09/l801.exe)
 DoSCS=T DFT=T ScalE2(SS,OS)=  0.270000  0.270000
 ExpMin= 7.60D-02 ExpMax= 1.17D+05 ExpMxC= 1.13D+03 IAcc=3 IRadAn=         5 AccDes= 0.00D+00
 HarFok:  IExCor=  205 AccDes= 0.00D+00 IRadAn=         5 IDoV=-2 UseB2=F ITyADJ=14
 ICtDFT= 12500011 ScaDFX=  1.000000  1.000000  1.000000  1.000000
 DSYEVD-2 returned Info=        1739 IAlg= 4 N=    57 NDim=    57 NE2=    36785415 trying  DSYEV.
 Largest valence mixing into a core orbital is  1.16D-04
 Largest core mixing into a valence orbital is  1.85D-05
 Range of M.O.s used for correlation:     5   348
 NBasis=   348 NAE=    15 NBE=    15 NFC=     4 NFV=     0
 NROrb=    344 NOA=    11 NOB=    11 NVA=   333 NVB=   333

 **** Warning!!: The largest alpha MO coefficient is  0.29867829D+02

 Leave Link  801 at Wed Aug 26 21:19:19 2020, MaxMem=  2097152000 cpu:         0.8
 (Enter /opt/cluster/programs/g09/g09_d.01/g09/l906.exe)
 DoSCS=T DFT=T ScalE2(SS,OS)=  0.270000  0.270000
 FulOut=F Deriv=F AODrv=F NAtomX=     8
   MMem=        1190  MDisk=          11 MDiskD=          11
  W3Min=     1567764 MinDsk=     2827057 NBas6D=         428
 NBas2D=       93150    NTT=       91806    LW2=     4508827
    MDV=  2096570540 MDiskM=       10875 NBas2p=       89472
 Fully direct method using O(OVN) memory.
 IMap=   1   2   3   4   5   6   7   8   9  10  11
 JobTyp=1 Pass  1:  I=   1 to  11 NPSUse=  8 ParTrn=T ParDer=T DoDerP=F.
 Spin components of T(2) and E(2):
     alpha-alpha T2 =       0.4378557877D-01 E2=     -0.2950369735D-01
     alpha-beta  T2 =       0.2665502644D+00 E2=     -0.1883236788D+00
     beta-beta   T2 =       0.4378557877D-01 E2=     -0.2950369735D-01
 The integrals were generated   1 times.
 E2(B2PLYPD3) =    -0.2473310735D+00 E(B2PLYPD3) =    -0.19185721213828D+03
 Leave Link  906 at Wed Aug 26 21:20:14 2020, MaxMem=  2097152000 cpu:       431.5
 (Enter /opt/cluster/programs/g09/g09_d.01/g09/l601.exe)
 Copying SCF densities to generalized density rwf, IOpCl= 0 IROHF=0.

 **********************************************************************

            Population analysis using the SCF density.

 **********************************************************************

 Orbital symmetries:
       Occupied  (A) (A) (A) (A) (A) (A) (A) (A) (A) (A) (A) (A)
                 (A) (A) (A)
       Virtual   (A) (A) (A) (A) (A) (A) (A) (A) (A) (A) (A) (A)
                 (A) (A) (A) (A) (A) (A) (A) (A) (A) (A) (A) (A)
                 (A) (A) (A) (A) (A) (A) (A) (A) (A) (A) (A) (A)
                 (A) (A) (A) (A) (A) (A) (A) (A) (A) (A) (A) (A)
                 (A) (A) (A) (A) (A) (A) (A) (A) (A) (A) (A) (A)
                 (A) (A) (A) (A) (A) (A) (A) (A) (A) (A) (A) (A)
                 (A) (A) (A) (A) (A) (A) (A) (A) (A) (A) (A) (A)
                 (A) (A) (A) (A) (A) (A) (A) (A) (A) (A) (A) (A)
                 (A) (A) (A) (A) (A) (A) (A) (A) (A) (A) (A) (A)
                 (A) (A) (A) (A) (A) (A) (A) (A) (A) (A) (A) (A)
                 (A) (A) (A) (A) (A) (A) (A) (A) (A) (A) (A) (A)
                 (A) (A) (A) (A) (A) (A) (A) (A) (A) (A) (A) (A)
                 (A) (A) (A) (A) (A) (A) (A) (A) (A) (A) (A) (A)
                 (A) (A) (A) (A) (A) (A) (A) (A) (A) (A) (A) (A)
                 (A) (A) (A) (A) (A) (A) (A) (A) (A) (A) (A) (A)
                 (A) (A) (A) (A) (A) (A) (A) (A) (A) (A) (A) (A)
                 (A) (A) (A) (A) (A) (A) (A) (A) (A) (A) (A) (A)
                 (A) (A) (A) (A) (A) (A) (A) (A) (A) (A) (A) (A)
                 (A) (A) (A) (A) (A) (A) (A) (A) (A) (A) (A) (A)
                 (A) (A) (A) (A) (A) (A) (A) (A) (A) (A) (A) (A)
                 (A) (A) (A) (A) (A) (A) (A) (A) (A) (A) (A) (A)
                 (A) (A) (A) (A) (A) (A) (A) (A) (A) (A) (A) (A)
                 (A) (A) (A) (A) (A) (A) (A) (A) (A) (A) (A) (A)
                 (A) (A) (A) (A) (A) (A) (A) (A) (A) (A) (A) (A)
                 (A) (A) (A) (A) (A) (A) (A) (A) (A) (A) (A) (A)
                 (A) (A) (A) (A) (A) (A) (A) (A) (A) (A) (A) (A)
                 (A) (A) (A) (A) (A) (A) (A) (A) (A) (A) (A) (A)
                 (A) (A) (A) (A) (A) (A) (A) (A) (A)
 The electronic state is 1-A.
 Alpha  occ. eigenvalues --  -19.72986 -10.71641 -10.64793 -10.64293  -1.18983
 Alpha  occ. eigenvalues --   -0.93194  -0.75613  -0.67735  -0.57098  -0.56038
 Alpha  occ. eigenvalues --   -0.50563  -0.47224  -0.46396  -0.34725  -0.33935
 Alpha virt. eigenvalues --   -0.01764   0.05808   0.07235   0.07883   0.09891
 Alpha virt. eigenvalues --    0.12631   0.13694   0.15290   0.17532   0.19852
 Alpha virt. eigenvalues --    0.20193   0.21664   0.25246   0.26663   0.28895
 Alpha virt. eigenvalues --    0.31461   0.33800   0.34833   0.37340   0.38474
 Alpha virt. eigenvalues --    0.39665   0.40977   0.42868   0.44115   0.45840
 Alpha virt. eigenvalues --    0.48022   0.49180   0.54319   0.54778   0.56667
 Alpha virt. eigenvalues --    0.59996   0.63841   0.66113   0.67167   0.70691
 Alpha virt. eigenvalues --    0.74121   0.75893   0.77551   0.80352   0.81522
 Alpha virt. eigenvalues --    0.81799   0.82644   0.83299   0.84193   0.87036
 Alpha virt. eigenvalues --    0.88717   0.91326   0.92249   0.94095   0.95739
 Alpha virt. eigenvalues --    0.96850   0.97400   1.00439   1.01963   1.07949
 Alpha virt. eigenvalues --    1.10044   1.11725   1.13040   1.18125   1.19645
 Alpha virt. eigenvalues --    1.21095   1.25974   1.28717   1.33365   1.39710
 Alpha virt. eigenvalues --    1.42723   1.47152   1.48774   1.54478   1.56223
 Alpha virt. eigenvalues --    1.58688   1.62493   1.66558   1.67964   1.70271
 Alpha virt. eigenvalues --    1.73632   1.75935   1.79819   1.81534   1.83840
 Alpha virt. eigenvalues --    1.86287   1.90533   1.91623   1.92761   1.93430
 Alpha virt. eigenvalues --    1.95898   1.97982   1.99663   2.01878   2.04368
 Alpha virt. eigenvalues --    2.06086   2.09930   2.11686   2.13413   2.13543
 Alpha virt. eigenvalues --    2.17212   2.18115   2.20157   2.23335   2.25686
 Alpha virt. eigenvalues --    2.27750   2.34825   2.36757   2.38587   2.43155
 Alpha virt. eigenvalues --    2.45558   2.47312   2.50209   2.51627   2.53833
 Alpha virt. eigenvalues --    2.55115   2.58158   2.60704   2.62456   2.63012
 Alpha virt. eigenvalues --    2.65062   2.67479   2.67621   2.70056   2.73094
 Alpha virt. eigenvalues --    2.76759   2.79001   2.86536   2.87425   2.89193
 Alpha virt. eigenvalues --    2.90125   2.96678   2.97555   3.03599   3.09409
 Alpha virt. eigenvalues --    3.17608   3.19797   3.29109   3.30537   3.34155
 Alpha virt. eigenvalues --    3.35695   3.41066   3.43090   3.45172   3.50341
 Alpha virt. eigenvalues --    3.51878   3.55046   3.61558   3.63361   3.67604
 Alpha virt. eigenvalues --    3.69469   3.72320   3.78120   3.85405   3.91810
 Alpha virt. eigenvalues --    3.98287   3.99181   4.00177   4.05542   4.07547
 Alpha virt. eigenvalues --    4.12778   4.19088   4.20464   4.26062   4.32673
 Alpha virt. eigenvalues --    4.36998   4.43448   4.55007   4.60249   4.63060
 Alpha virt. eigenvalues --    4.65453   4.81273   4.89415   4.91053   4.99872
 Alpha virt. eigenvalues --    5.03791   5.05092   5.08411   5.11708   5.13944
 Alpha virt. eigenvalues --    5.21705   5.26699   5.30249   5.34195   5.42740
 Alpha virt. eigenvalues --    5.46591   5.53343   5.53768   5.58263   5.60648
 Alpha virt. eigenvalues --    5.65806   5.67070   5.69306   5.72233   5.77843
 Alpha virt. eigenvalues --    5.79280   5.83519   5.84917   5.91809   5.95800
 Alpha virt. eigenvalues --    5.97716   5.98465   6.03399   6.05041   6.07088
 Alpha virt. eigenvalues --    6.09643   6.15384   6.16026   6.17045   6.19600
 Alpha virt. eigenvalues --    6.21339   6.22906   6.26678   6.28487   6.30834
 Alpha virt. eigenvalues --    6.37002   6.38112   6.41329   6.44942   6.48319
 Alpha virt. eigenvalues --    6.50070   6.52224   6.57173   6.59689   6.63425
 Alpha virt. eigenvalues --    6.65407   6.73573   6.76077   6.79217   6.81201
 Alpha virt. eigenvalues --    6.84986   6.88746   6.96982   7.01138   7.03441
 Alpha virt. eigenvalues --    7.09449   7.11050   7.11704   7.13694   7.25210
 Alpha virt. eigenvalues --    7.33223   7.37735   7.48843   7.50307   7.51008
 Alpha virt. eigenvalues --    7.58644   7.59236   7.61892   7.63608   7.68836
 Alpha virt. eigenvalues --    7.70205   7.71529   7.75655   7.76837   7.79838
 Alpha virt. eigenvalues --    7.85869   7.87798   7.92207   8.00866   8.01193
 Alpha virt. eigenvalues --    8.03555   8.09738   8.10090   8.14921   8.17869
 Alpha virt. eigenvalues --    8.24254   8.28945   8.31306   8.34042   8.35984
 Alpha virt. eigenvalues --    8.38875   8.42676   8.46398   8.56323   8.59347
 Alpha virt. eigenvalues --    8.62972   8.63768   8.69323   8.75140   8.77209
 Alpha virt. eigenvalues --    8.84439   8.90768   8.99784   9.05060   9.08662
 Alpha virt. eigenvalues --    9.09307   9.11578   9.20704   9.33067   9.33609
 Alpha virt. eigenvalues --    9.34344   9.43021   9.56105   9.67932   9.80964
 Alpha virt. eigenvalues --    9.82635   9.86575   9.89681   9.96473  10.08225
 Alpha virt. eigenvalues --   10.14376  10.15467  10.18166  10.26596  10.39988
 Alpha virt. eigenvalues --   10.50388  10.52195  10.54843  10.79144  10.98297
 Alpha virt. eigenvalues --   11.08995  11.24948  11.27471  11.33035  11.55408
 Alpha virt. eigenvalues --   11.65589  11.72430  11.79209  12.03891  12.06690
 Alpha virt. eigenvalues --   12.31578  12.35802  12.49979  12.60634  12.96364
 Alpha virt. eigenvalues --   13.06678  13.32819  13.77027  14.36399  14.64444
 Alpha virt. eigenvalues --   28.69897  28.89053  29.52597  48.63785 148.29375
 Alpha virt. eigenvalues --  148.45575 149.14660 254.39628
          Condensed to atoms (all electrons):
               1          2          3          4          5          6
     1  C    4.501358   0.619431   0.386359  -0.053778  -0.035726  -0.005862
     2  O    0.619431   7.886685  -0.094787   0.006575   0.007413   0.000543
     3  C    0.386359  -0.094787   5.148236   0.480417   0.367547  -0.059335
     4  C   -0.053778   0.006575   0.480417   4.870298  -0.036685   0.430950
     5  H   -0.035726   0.007413   0.367547  -0.036685   0.582245   0.005794
     6  H   -0.005862   0.000543  -0.059335   0.430950   0.005794   0.573031
     7  H    0.002935  -0.000617  -0.031094   0.417547  -0.005390  -0.039014
     8  H    0.432802  -0.070772  -0.161311   0.022665   0.009325   0.006639
               7          8
     1  C    0.002935   0.432802
     2  O   -0.000617  -0.070772
     3  C   -0.031094  -0.161311
     4  C    0.417547   0.022665
     5  H   -0.005390   0.009325
     6  H   -0.039014   0.006639
     7  H    0.552405  -0.001001
     8  H   -0.001001   0.682603
 Mulliken charges:
               1
     1  C    0.152481
     2  O   -0.354472
     3  C   -0.036032
     4  C   -0.137989
     5  H    0.105477
     6  H    0.087254
     7  H    0.104230
     8  H    0.079050
 Sum of Mulliken charges =   0.00000
 Mulliken charges with hydrogens summed into heavy atoms:
               1
     1  C    0.231531
     2  O   -0.354472
     3  C    0.069445
     4  C    0.053496
 Electronic spatial extent (au):  <R**2>=            297.9669
 Charge=              0.0000 electrons
 Dipole moment (field-independent basis, Debye):
    X=             -3.4333    Y=              0.8654    Z=              0.0332  Tot=              3.5408
 Quadrupole moment (field-independent basis, Debye-Ang):
   XX=            -27.5993   YY=            -21.6967   ZZ=            -25.1716
   XY=              1.0642   XZ=              0.1624   YZ=              0.0778
 Traceless Quadrupole moment (field-independent basis, Debye-Ang):
   XX=             -2.7767   YY=              3.1258   ZZ=             -0.3491
   XY=              1.0642   XZ=              0.1624   YZ=              0.0778
 Octapole moment (field-independent basis, Debye-Ang**2):
  XXX=            -14.9946  YYY=              0.3179  ZZZ=             -0.1436  XYY=              0.3647
  XXY=              0.3230  XXZ=              0.1705  XZZ=              4.2755  YZZ=              0.2948
  YYZ=             -0.1856  XYZ=             -0.0070
 Hexadecapole moment (field-independent basis, Debye-Ang**3):
 XXXX=           -303.5018 YYYY=            -54.3899 ZZZZ=            -27.4187 XXXY=              4.2100
 XXXZ=              0.1067 YYYX=             -0.3892 YYYZ=              0.3205 ZZZX=             -0.0441
 ZZZY=              0.0908 XXYY=            -58.4361 XXZZ=            -57.4521 YYZZ=            -15.2078
 XXYZ=              0.0227 YYXZ=              0.0334 ZZXY=             -0.5344
 N-N= 1.032707394066D+02 E-N=-6.546286430168D+02  KE= 1.910452741776D+02
 Leave Link  601 at Wed Aug 26 21:20:14 2020, MaxMem=  2097152000 cpu:         0.5
 (Enter /opt/cluster/programs/g09/g09_d.01/g09/l9999.exe)
 1\1\GINC-NODE33\SP\RB2PLYPD3-FC\def2QZVP\C3H4O1\BOITTIER\26-Aug-2020\0
 \\#p B2PLYPD3/Def2QZVP\\acrolein\\0,1\C,0,-5.00777,-1.365635,0.918305\
 O,0,-3.923174,-0.881372,0.635161\C,0,-5.200988,-2.814442,1.184726\C,0,
 -6.418409,-3.314431,1.371274\H,0,-4.30545,-3.418614,1.059934\H,0,-7.18
 3666,-2.661689,1.412104\H,0,-6.567106,-4.395152,1.57386\H,0,-5.917674,
 -0.791511,0.962761\\Version=ES64L-G09RevD.01\State=1-A\HF=-191.6098811
 \MP2=-191.8572121\RMSD=2.952e-09\PG=C01 [X(C3H4O1)]\\@


 IT IS BY EATING THE LIGHT OF A STAR THAT WE EXIST, 
 IN THE FINAL ANALYSIS, 
 JUST AS IT IS BY PERCEIVING THE LIGHT OF STARS
 THAT WE DEFINE THE WORLD AROUND US.

                                    -- GILBERT GROSVENOR
 Job cpu time:       0 days  0 hours 12 minutes 25.8 seconds.
 File lengths (MBytes):  RWF=     49 Int=      0 D2E=      0 Chk=      7 Scr=      1
 Normal termination of Gaussian 09 at Wed Aug 26 21:20:15 2020.
