 Entering Gaussian System, Link 0=/opt/cluster/programs/g09/g09_d.01/g09//g09
 Input=/home/boittier/MDCM/nms_sampling/acrolein_geom.xyz.dir/energies/acrolein_1365_energy.com
 Output=/scratch/boittier/acrolein_1365_energy/acrolein_1365_energy.out
 Initial command:
 /opt/cluster/programs/g09/g09_d.01/g09/l1.exe "/scratch/boittier/acrolein_1365_energy/Gau-156090.inp" -scrdir="/scratch/boittier/acrolein_1365_energy/"
 Entering Link 1 = /opt/cluster/programs/g09/g09_d.01/g09/l1.exe PID=    156091.
  
 Copyright (c) 1988,1990,1992,1993,1995,1998,2003,2009,2013,
            Gaussian, Inc.  All Rights Reserved.
  
 This is part of the Gaussian(R) 09 program.  It is based on
 the Gaussian(R) 03 system (copyright 2003, Gaussian, Inc.),
 the Gaussian(R) 98 system (copyright 1998, Gaussian, Inc.),
 the Gaussian(R) 94 system (copyright 1995, Gaussian, Inc.),
 the Gaussian 92(TM) system (copyright 1992, Gaussian, Inc.),
 the Gaussian 90(TM) system (copyright 1990, Gaussian, Inc.),
 the Gaussian 88(TM) system (copyright 1988, Gaussian, Inc.),
 the Gaussian 86(TM) system (copyright 1986, Carnegie Mellon
 University), and the Gaussian 82(TM) system (copyright 1983,
 Carnegie Mellon University). Gaussian is a federally registered
 trademark of Gaussian, Inc.
  
 This software contains proprietary and confidential information,
 including trade secrets, belonging to Gaussian, Inc.
  
 This software is provided under written license and may be
 used, copied, transmitted, or stored only in accord with that
 written license.
  
 The following legend is applicable only to US Government
 contracts under FAR:
  
                    RESTRICTED RIGHTS LEGEND
  
 Use, reproduction and disclosure by the US Government is
 subject to restrictions as set forth in subparagraphs (a)
 and (c) of the Commercial Computer Software - Restricted
 Rights clause in FAR 52.227-19.
  
 Gaussian, Inc.
 340 Quinnipiac St., Bldg. 40, Wallingford CT 06492
  
  
 ---------------------------------------------------------------
 Warning -- This program may not be used in any manner that
 competes with the business of Gaussian, Inc. or will provide
 assistance to any competitor of Gaussian, Inc.  The licensee
 of this program is prohibited from giving any competitor of
 Gaussian, Inc. access to this program.  By using this program,
 the user acknowledges that Gaussian, Inc. is engaged in the
 business of creating and licensing software in the field of
 computational chemistry and represents and warrants to the
 licensee that it is not a competitor of Gaussian, Inc. and that
 it will not use this program in any manner prohibited above.
 ---------------------------------------------------------------
  

 Cite this work as:
 Gaussian 09, Revision D.01,
 M. J. Frisch, G. W. Trucks, H. B. Schlegel, G. E. Scuseria, 
 M. A. Robb, J. R. Cheeseman, G. Scalmani, V. Barone, B. Mennucci, 
 G. A. Petersson, H. Nakatsuji, M. Caricato, X. Li, H. P. Hratchian, 
 A. F. Izmaylov, J. Bloino, G. Zheng, J. L. Sonnenberg, M. Hada, 
 M. Ehara, K. Toyota, R. Fukuda, J. Hasegawa, M. Ishida, T. Nakajima, 
 Y. Honda, O. Kitao, H. Nakai, T. Vreven, J. A. Montgomery, Jr., 
 J. E. Peralta, F. Ogliaro, M. Bearpark, J. J. Heyd, E. Brothers, 
 K. N. Kudin, V. N. Staroverov, T. Keith, R. Kobayashi, J. Normand, 
 K. Raghavachari, A. Rendell, J. C. Burant, S. S. Iyengar, J. Tomasi, 
 M. Cossi, N. Rega, J. M. Millam, M. Klene, J. E. Knox, J. B. Cross, 
 V. Bakken, C. Adamo, J. Jaramillo, R. Gomperts, R. E. Stratmann, 
 O. Yazyev, A. J. Austin, R. Cammi, C. Pomelli, J. W. Ochterski, 
 R. L. Martin, K. Morokuma, V. G. Zakrzewski, G. A. Voth, 
 P. Salvador, J. J. Dannenberg, S. Dapprich, A. D. Daniels, 
 O. Farkas, J. B. Foresman, J. V. Ortiz, J. Cioslowski, 
 and D. J. Fox, Gaussian, Inc., Wallingford CT, 2013.
 
 ******************************************
 Gaussian 09:  ES64L-G09RevD.01 24-Apr-2013
                26-Aug-2020 
 ******************************************
 %chk=/home/boittier/MDCM/nms_sampling/acrolein_geom.xyz.dir/acrolein_1365.chk
 %nproc=8
 Will use up to    8 processors via shared memory.
 %mem=16000MB
 --------------------
 #p B2PLYPD3/Def2QZVP
 --------------------
 1/38=1/1;
 2/12=2,17=6,18=5,40=1/2;
 3/5=45,7=101,11=9,16=1,25=1,30=1,74=-60/1,2,3;
 4//1;
 5/5=2,38=5/2;
 8/10=1/1;
 9/16=-3/6;
 6/7=2,8=2,9=2,10=2/1;
 99/5=1,9=1/99;
 Leave Link    1 at Wed Aug 26 09:05:43 2020, MaxMem=  2097152000 cpu:         0.2
 (Enter /opt/cluster/programs/g09/g09_d.01/g09/l101.exe)
 --------
 acrolein
 --------
 Symbolic Z-matrix:
 Charge =  0 Multiplicity = 1
 C                    -5.01773  -1.37816   0.8381 
 O                    -3.93615  -0.87623   0.69558 
 C                    -5.20326  -2.80989   1.12515 
 C                    -6.38096  -3.32154   1.43464 
 H                    -4.3574   -3.43926   1.04331 
 H                    -7.23484  -2.67275   1.49545 
 H                    -6.55312  -4.30476   1.55019 
 H                    -5.92154  -0.75469   0.87091 
 
 NAtoms=      8 NQM=        8 NQMF=       0 NMMI=      0 NMMIF=      0
                NMic=       0 NMicF=      0.
                    Isotopes and Nuclear Properties:
 (Nuclear quadrupole moments (NQMom) in fm**2, nuclear magnetic moments (NMagM)
  in nuclear magnetons)

  Atom         1           2           3           4           5           6           7           8
 IAtWgt=          12          16          12          12           1           1           1           1
 AtmWgt=  12.0000000  15.9949146  12.0000000  12.0000000   1.0078250   1.0078250   1.0078250   1.0078250
 NucSpn=           0           0           0           0           1           1           1           1
 AtZEff=   0.0000000   0.0000000   0.0000000   0.0000000   0.0000000   0.0000000   0.0000000   0.0000000
 NQMom=    0.0000000   0.0000000   0.0000000   0.0000000   0.0000000   0.0000000   0.0000000   0.0000000
 NMagM=    0.0000000   0.0000000   0.0000000   0.0000000   2.7928460   2.7928460   2.7928460   2.7928460
 AtZNuc=   6.0000000   8.0000000   6.0000000   6.0000000   1.0000000   1.0000000   1.0000000   1.0000000
 Leave Link  101 at Wed Aug 26 09:05:43 2020, MaxMem=  2097152000 cpu:         0.5
 (Enter /opt/cluster/programs/g09/g09_d.01/g09/l202.exe)
                          Input orientation:                          
 ---------------------------------------------------------------------
 Center     Atomic      Atomic             Coordinates (Angstroms)
 Number     Number       Type             X           Y           Z
 ---------------------------------------------------------------------
      1          6           0       -5.017726   -1.378156    0.838098
      2          8           0       -3.936152   -0.876231    0.695576
      3          6           0       -5.203261   -2.809887    1.125152
      4          6           0       -6.380965   -3.321538    1.434640
      5          1           0       -4.357402   -3.439264    1.043313
      6          1           0       -7.234845   -2.672754    1.495448
      7          1           0       -6.553119   -4.304759    1.550189
      8          1           0       -5.921543   -0.754690    0.870911
 ---------------------------------------------------------------------
                    Distance matrix (angstroms):
                    1          2          3          4          5
     1  C    0.000000
     2  O    1.200851   0.000000
     3  C    1.471964   2.351409   0.000000
     4  C    2.447655   3.535937   1.320817   0.000000
     5  H    2.174007   2.620594   1.057493   2.064414   0.000000
     6  H    2.650228   3.840399   2.069603   1.074118   3.011917
     7  H    3.380756   4.397009   2.058498   1.004844   2.413955
     8  H    1.098486   1.996820   2.191895   2.667877   3.111784
                    6          7          8
     6  H    0.000000
     7  H    1.769516   0.000000
     8  H    2.407027   3.669237   0.000000
 Stoichiometry    C3H4O
 Framework group  C1[X(C3H4O)]
 Deg. of freedom    18
 Full point group                 C1      NOp   1
 Largest Abelian subgroup         C1      NOp   1
 Largest concise Abelian subgroup C1      NOp   1
                         Standard orientation:                         
 ---------------------------------------------------------------------
 Center     Atomic      Atomic             Coordinates (Angstroms)
 Number     Number       Type             X           Y           Z
 ---------------------------------------------------------------------
      1          6           0       -0.680146    0.357471    0.055572
      2          8           0       -1.771279   -0.134651   -0.040806
      3          6           0        0.560261   -0.434109    0.017268
      4          6           0        1.754973    0.126789   -0.033848
      5          1           0        0.471049   -1.486694    0.066238
      6          1           0        1.830475    1.197826   -0.063981
      7          1           0        2.618133   -0.384149    0.026228
      8          1           0       -0.559952    1.449329    0.064007
 ---------------------------------------------------------------------
 Rotational constants (GHZ):     49.0660710      4.7211262      4.3136009
 Leave Link  202 at Wed Aug 26 09:05:43 2020, MaxMem=  2097152000 cpu:         0.0
 (Enter /opt/cluster/programs/g09/g09_d.01/g09/l301.exe)
 Standard basis: def2QZVP (5D, 7F)
 Ernie: Thresh=  0.10000D-02 Tol=  0.10000D-05 Strict=F.
 There are   428 symmetry adapted cartesian basis functions of A   symmetry.
 There are   348 symmetry adapted basis functions of A   symmetry.
   348 basis functions,   520 primitive gaussians,   428 cartesian basis functions
    15 alpha electrons       15 beta electrons
       nuclear repulsion energy       104.1744938460 Hartrees.
 IExCor=  419 DFT=T Ex+Corr=B2PLYPD3 ExCW=0 ScaHFX=  0.530000
 ScaDFX=  0.470000  0.470000  0.730000  0.730000 ScalE2=  0.270000  0.270000
 IRadAn=      0 IRanWt=     -1 IRanGd=            0 ICorTp=0 IEmpDi=141
 NAtoms=    8 NActive=    8 NUniq=    8 SFac= 1.00D+00 NAtFMM=   60 NAOKFM=F Big=F
 Integral buffers will be    131072 words long.
 Regular integral format.
 Two-electron integral symmetry is turned on.
 R6Disp:  Grimme-D3(BJ) Dispersion energy=       -0.0035990002 Hartrees.
 Nuclear repulsion after empirical dispersion term =      104.1708948458 Hartrees.
 Leave Link  301 at Wed Aug 26 09:05:44 2020, MaxMem=  2097152000 cpu:         0.4
 (Enter /opt/cluster/programs/g09/g09_d.01/g09/l302.exe)
 NPDir=0 NMtPBC=     1 NCelOv=     1 NCel=       1 NClECP=     1 NCelD=      1
         NCelK=      1 NCelE2=     1 NClLst=     1 CellRange=     0.0.
 One-electron integrals computed using PRISM.
   1 Symmetry operations used in ECPInt.
 ECPInt:  NShTT=    5886 NPrTT=   14376 LenC2=    5782 LenP2D=   12198.
 LDataN:  DoStor=T MaxTD1= 8 Len=  415
 NBasis=   348 RedAO= T EigKep=  5.38D-05  NBF=   348
 NBsUse=   348 1.00D-06 EigRej= -1.00D+00 NBFU=   348
 Precomputing XC quadrature grid using
 IXCGrd= 4 IRadAn=           0 IRanWt=          -1 IRanGd=           0 AccXCQ= 0.00D+00.
 Generated NRdTot=       0 NPtTot=           0 NUsed=           0 NTot=          32
 NSgBfM=   428   428   428   428   428 MxSgAt=     8 MxSgA2=     8.
 Leave Link  302 at Wed Aug 26 09:05:44 2020, MaxMem=  2097152000 cpu:         3.0
 (Enter /opt/cluster/programs/g09/g09_d.01/g09/l303.exe)
 DipDrv:  MaxL=1.
 Leave Link  303 at Wed Aug 26 09:05:45 2020, MaxMem=  2097152000 cpu:         0.3
 (Enter /opt/cluster/programs/g09/g09_d.01/g09/l401.exe)
 ExpMin= 7.60D-02 ExpMax= 1.17D+05 ExpMxC= 1.13D+03 IAcc=2 IRadAn=         4 AccDes= 0.00D+00
 Harris functional with IExCor=  419 and IRadAn=       4 diagonalized for initial guess.
 HarFok:  IExCor=  419 AccDes= 0.00D+00 IRadAn=         4 IDoV= 1 UseB2=F ITyADJ=14
 ICtDFT=  3500011 ScaDFX=  1.000000  1.000000  1.000000  1.000000
 FoFCou: FMM=F IPFlag=           0 FMFlag=      100000 FMFlg1=           0
         NFxFlg=           0 DoJE=T BraDBF=F KetDBF=T FulRan=T
         wScrn=  0.000000 ICntrl=     500 IOpCl=  0 I1Cent=   200000004 NGrid=           0
         NMat0=    1 NMatS0=      1 NMatT0=    0 NMatD0=    1 NMtDS0=    0 NMtDT0=    0
 Petite list used in FoFCou.
 Harris En= -192.052706400620    
 JPrj=0 DoOrth=F DoCkMO=F.
 Leave Link  401 at Wed Aug 26 09:05:46 2020, MaxMem=  2097152000 cpu:         6.9
 (Enter /opt/cluster/programs/g09/g09_d.01/g09/l502.exe)
 Closed shell SCF:
 Using DIIS extrapolation, IDIIS=  1040.
 Integral symmetry usage will be decided dynamically.
 Keep R1 ints in memory in canonical form, NReq=1883905047.
 IVT=      574566 IEndB=      574566 NGot=  2097152000 MDV=   252723534
 LenX=   252723534 LenY=   252539909
 Requested convergence on RMS density matrix=1.00D-08 within 128 cycles.
 Requested convergence on MAX density matrix=1.00D-06.
 Requested convergence on             energy=1.00D-06.
 No special actions if energy rises.
 FoFCou: FMM=F IPFlag=           0 FMFlag=           0 FMFlg1=           0
         NFxFlg=           0 DoJE=F BraDBF=F KetDBF=F FulRan=T
         wScrn=  0.000000 ICntrl=     600 IOpCl=  0 I1Cent=           0 NGrid=           0
         NMat0=    1 NMatS0=  60726 NMatT0=    0 NMatD0=    1 NMtDS0=    0 NMtDT0=    0
 Symmetry not used in FoFCou.
 Integral accuracy reduced to 1.0D-05 until final iterations.

 Cycle   1  Pass 0  IDiag  1:
 E= -191.460548581897    
 DIIS: error= 2.37D-02 at cycle   1 NSaved=   1.
 NSaved= 1 IEnMin= 1 EnMin= -191.460548581897     IErMin= 1 ErrMin= 2.37D-02
 ErrMax= 2.37D-02  0.00D+00 EMaxC= 1.00D-01 BMatC= 2.67D-01 BMatP= 2.67D-01
 IDIUse=3 WtCom= 7.63D-01 WtEn= 2.37D-01
 Coeff-Com:  0.100D+01
 Coeff-En:   0.100D+01
 Coeff:      0.100D+01
 Gap=     0.302 Goal=   None    Shift=    0.000
 GapD=    0.302 DampG=1.000 DampE=0.500 DampFc=0.5000 IDamp=-1.
 Damping current iteration by 5.00D-01
 RMSDP=1.74D-03 MaxDP=2.09D-01              OVMax= 1.68D-01

 Cycle   2  Pass 0  IDiag  1:
 E= -191.535724854814     Delta-E=       -0.075176272917 Rises=F Damp=T
 DIIS: error= 9.54D-03 at cycle   2 NSaved=   2.
 NSaved= 2 IEnMin= 2 EnMin= -191.535724854814     IErMin= 2 ErrMin= 9.54D-03
 ErrMax= 9.54D-03  0.00D+00 EMaxC= 1.00D-01 BMatC= 3.41D-02 BMatP= 2.67D-01
 IDIUse=3 WtCom= 9.05D-01 WtEn= 9.54D-02
 Coeff-Com: -0.168D+00 0.117D+01
 Coeff-En:   0.000D+00 0.100D+01
 Coeff:     -0.152D+00 0.115D+01
 Gap=     0.354 Goal=   None    Shift=    0.000
 RMSDP=5.66D-04 MaxDP=6.69D-02 DE=-7.52D-02 OVMax= 1.30D-01

 Cycle   3  Pass 0  IDiag  1:
 E= -191.601227998024     Delta-E=       -0.065503143209 Rises=F Damp=F
 DIIS: error= 9.26D-03 at cycle   3 NSaved=   3.
 NSaved= 3 IEnMin= 3 EnMin= -191.601227998024     IErMin= 3 ErrMin= 9.26D-03
 ErrMax= 9.26D-03  0.00D+00 EMaxC= 1.00D-01 BMatC= 1.61D-02 BMatP= 3.41D-02
 IDIUse=3 WtCom= 9.07D-01 WtEn= 9.26D-02
 Coeff-Com: -0.187D+00 0.520D+00 0.667D+00
 Coeff-En:   0.000D+00 0.000D+00 0.100D+01
 Coeff:     -0.170D+00 0.471D+00 0.698D+00
 Gap=     0.337 Goal=   None    Shift=    0.000
 RMSDP=2.33D-04 MaxDP=1.71D-02 DE=-6.55D-02 OVMax= 4.82D-02

 Cycle   4  Pass 0  IDiag  1:
 E= -191.610051291220     Delta-E=       -0.008823293196 Rises=F Damp=F
 DIIS: error= 3.41D-03 at cycle   4 NSaved=   4.
 NSaved= 4 IEnMin= 4 EnMin= -191.610051291220     IErMin= 4 ErrMin= 3.41D-03
 ErrMax= 3.41D-03  0.00D+00 EMaxC= 1.00D-01 BMatC= 2.91D-03 BMatP= 1.61D-02
 IDIUse=3 WtCom= 9.66D-01 WtEn= 3.41D-02
 Coeff-Com: -0.574D-01 0.953D-01 0.360D+00 0.602D+00
 Coeff-En:   0.000D+00 0.000D+00 0.161D+00 0.839D+00
 Coeff:     -0.555D-01 0.921D-01 0.353D+00 0.610D+00
 Gap=     0.324 Goal=   None    Shift=    0.000
 RMSDP=9.60D-05 MaxDP=7.93D-03 DE=-8.82D-03 OVMax= 1.39D-02

 Cycle   5  Pass 0  IDiag  1:
 E= -191.612365945269     Delta-E=       -0.002314654050 Rises=F Damp=F
 DIIS: error= 2.93D-04 at cycle   5 NSaved=   5.
 NSaved= 5 IEnMin= 5 EnMin= -191.612365945269     IErMin= 5 ErrMin= 2.93D-04
 ErrMax= 2.93D-04  0.00D+00 EMaxC= 1.00D-01 BMatC= 1.22D-05 BMatP= 2.91D-03
 IDIUse=3 WtCom= 9.97D-01 WtEn= 2.93D-03
 Coeff-Com: -0.980D-02 0.131D-01 0.693D-01 0.147D+00 0.781D+00
 Coeff-En:   0.000D+00 0.000D+00 0.000D+00 0.000D+00 0.100D+01
 Coeff:     -0.977D-02 0.131D-01 0.691D-01 0.146D+00 0.781D+00
 Gap=     0.323 Goal=   None    Shift=    0.000
 RMSDP=7.35D-06 MaxDP=3.06D-04 DE=-2.31D-03 OVMax= 2.17D-03

 Initial convergence to 1.0D-05 achieved.  Increase integral accuracy.
 Cycle   6  Pass 1  IDiag  1:
 E= -191.612368290012     Delta-E=       -0.000002344742 Rises=F Damp=F
 DIIS: error= 1.01D-04 at cycle   1 NSaved=   1.
 NSaved= 1 IEnMin= 1 EnMin= -191.612368290012     IErMin= 1 ErrMin= 1.01D-04
 ErrMax= 1.01D-04  0.00D+00 EMaxC= 1.00D-01 BMatC= 1.85D-06 BMatP= 1.85D-06
 IDIUse=3 WtCom= 9.99D-01 WtEn= 1.01D-03
 Coeff-Com:  0.100D+01
 Coeff-En:   0.100D+01
 Coeff:      0.100D+01
 Gap=     0.324 Goal=   None    Shift=    0.000
 RMSDP=7.35D-06 MaxDP=3.06D-04 DE=-2.34D-06 OVMax= 7.59D-04

 Cycle   7  Pass 1  IDiag  1:
 E= -191.612369169656     Delta-E=       -0.000000879645 Rises=F Damp=F
 DIIS: error= 9.03D-05 at cycle   2 NSaved=   2.
 NSaved= 2 IEnMin= 2 EnMin= -191.612369169656     IErMin= 2 ErrMin= 9.03D-05
 ErrMax= 9.03D-05  0.00D+00 EMaxC= 1.00D-01 BMatC= 1.38D-06 BMatP= 1.85D-06
 IDIUse=1 WtCom= 1.00D+00 WtEn= 0.00D+00
 Coeff-Com:  0.460D+00 0.540D+00
 Coeff:      0.460D+00 0.540D+00
 Gap=     0.324 Goal=   None    Shift=    0.000
 RMSDP=2.20D-06 MaxDP=1.85D-04 DE=-8.80D-07 OVMax= 6.39D-04

 Cycle   8  Pass 1  IDiag  1:
 E= -191.612370496315     Delta-E=       -0.000001326659 Rises=F Damp=F
 DIIS: error= 1.78D-05 at cycle   3 NSaved=   3.
 NSaved= 3 IEnMin= 3 EnMin= -191.612370496315     IErMin= 3 ErrMin= 1.78D-05
 ErrMax= 1.78D-05  0.00D+00 EMaxC= 1.00D-01 BMatC= 6.56D-08 BMatP= 1.38D-06
 IDIUse=1 WtCom= 1.00D+00 WtEn= 0.00D+00
 Coeff-Com:  0.572D-01 0.164D+00 0.779D+00
 Coeff:      0.572D-01 0.164D+00 0.779D+00
 Gap=     0.324 Goal=   None    Shift=    0.000
 RMSDP=1.30D-06 MaxDP=1.48D-04 DE=-1.33D-06 OVMax= 9.79D-05

 Cycle   9  Pass 1  IDiag  1:
 E= -191.612370566357     Delta-E=       -0.000000070042 Rises=F Damp=F
 DIIS: error= 1.09D-05 at cycle   4 NSaved=   4.
 NSaved= 4 IEnMin= 4 EnMin= -191.612370566357     IErMin= 4 ErrMin= 1.09D-05
 ErrMax= 1.09D-05  0.00D+00 EMaxC= 1.00D-01 BMatC= 1.19D-08 BMatP= 6.56D-08
 IDIUse=1 WtCom= 1.00D+00 WtEn= 0.00D+00
 Coeff-Com: -0.945D-01-0.597D-01 0.309D+00 0.846D+00
 Coeff:     -0.945D-01-0.597D-01 0.309D+00 0.846D+00
 Gap=     0.324 Goal=   None    Shift=    0.000
 RMSDP=6.40D-07 MaxDP=6.91D-05 DE=-7.00D-08 OVMax= 8.44D-05

 Cycle  10  Pass 1  IDiag  1:
 E= -191.612370585373     Delta-E=       -0.000000019016 Rises=F Damp=F
 DIIS: error= 3.86D-06 at cycle   5 NSaved=   5.
 NSaved= 5 IEnMin= 5 EnMin= -191.612370585373     IErMin= 5 ErrMin= 3.86D-06
 ErrMax= 3.86D-06  0.00D+00 EMaxC= 1.00D-01 BMatC= 2.75D-09 BMatP= 1.19D-08
 IDIUse=1 WtCom= 1.00D+00 WtEn= 0.00D+00
 Coeff-Com: -0.522D-01-0.416D-01 0.799D-01 0.449D+00 0.565D+00
 Coeff:     -0.522D-01-0.416D-01 0.799D-01 0.449D+00 0.565D+00
 Gap=     0.324 Goal=   None    Shift=    0.000
 RMSDP=1.79D-07 MaxDP=1.98D-05 DE=-1.90D-08 OVMax= 1.65D-05

 Cycle  11  Pass 1  IDiag  1:
 E= -191.612370587390     Delta-E=       -0.000000002017 Rises=F Damp=F
 DIIS: error= 1.04D-06 at cycle   6 NSaved=   6.
 NSaved= 6 IEnMin= 6 EnMin= -191.612370587390     IErMin= 6 ErrMin= 1.04D-06
 ErrMax= 1.04D-06  0.00D+00 EMaxC= 1.00D-01 BMatC= 1.55D-10 BMatP= 2.75D-09
 IDIUse=1 WtCom= 1.00D+00 WtEn= 0.00D+00
 Coeff-Com:  0.603D-02 0.208D-02-0.566D-01-0.145D-01 0.139D+00 0.924D+00
 Coeff:      0.603D-02 0.208D-02-0.566D-01-0.145D-01 0.139D+00 0.924D+00
 Gap=     0.324 Goal=   None    Shift=    0.000
 RMSDP=5.47D-08 MaxDP=5.67D-06 DE=-2.02D-09 OVMax= 5.81D-06

 Cycle  12  Pass 1  IDiag  1:
 E= -191.612370587583     Delta-E=       -0.000000000193 Rises=F Damp=F
 DIIS: error= 2.00D-07 at cycle   7 NSaved=   7.
 NSaved= 7 IEnMin= 7 EnMin= -191.612370587583     IErMin= 7 ErrMin= 2.00D-07
 ErrMax= 2.00D-07  0.00D+00 EMaxC= 1.00D-01 BMatC= 1.34D-11 BMatP= 1.55D-10
 IDIUse=1 WtCom= 1.00D+00 WtEn= 0.00D+00
 Coeff-Com:  0.507D-02 0.329D-02-0.261D-01-0.268D-01 0.450D-02 0.305D+00
 Coeff-Com:  0.735D+00
 Coeff:      0.507D-02 0.329D-02-0.261D-01-0.268D-01 0.450D-02 0.305D+00
 Coeff:      0.735D+00
 Gap=     0.324 Goal=   None    Shift=    0.000
 RMSDP=9.52D-09 MaxDP=4.72D-07 DE=-1.93D-10 OVMax= 1.45D-06

 SCF Done:  E(RB2PLYPD3) =  -191.612370588     A.U. after   12 cycles
            NFock= 12  Conv=0.95D-08     -V/T= 2.0019
 KE= 1.912425048752D+02 PE=-6.565758519942D+02 EE= 1.695500816856D+02
 Leave Link  502 at Wed Aug 26 09:07:19 2020, MaxMem=  2097152000 cpu:       418.3
 (Enter /opt/cluster/programs/g09/g09_d.01/g09/l801.exe)
 DoSCS=T DFT=T ScalE2(SS,OS)=  0.270000  0.270000
 ExpMin= 7.60D-02 ExpMax= 1.17D+05 ExpMxC= 1.13D+03 IAcc=3 IRadAn=         5 AccDes= 0.00D+00
 HarFok:  IExCor=  205 AccDes= 0.00D+00 IRadAn=         5 IDoV=-2 UseB2=F ITyADJ=14
 ICtDFT= 12500011 ScaDFX=  1.000000  1.000000  1.000000  1.000000
 Largest valence mixing into a core orbital is  1.14D-04
 Largest core mixing into a valence orbital is  1.81D-05
 Range of M.O.s used for correlation:     5   348
 NBasis=   348 NAE=    15 NBE=    15 NFC=     4 NFV=     0
 NROrb=    344 NOA=    11 NOB=    11 NVA=   333 NVB=   333

 **** Warning!!: The largest alpha MO coefficient is  0.30298510D+02

 Leave Link  801 at Wed Aug 26 09:07:19 2020, MaxMem=  2097152000 cpu:         0.9
 (Enter /opt/cluster/programs/g09/g09_d.01/g09/l906.exe)
 DoSCS=T DFT=T ScalE2(SS,OS)=  0.270000  0.270000
 FulOut=F Deriv=F AODrv=F NAtomX=     8
   MMem=        1190  MDisk=          11 MDiskD=          11
  W3Min=     1567764 MinDsk=     2827057 NBas6D=         428
 NBas2D=       93150    NTT=       91806    LW2=     4508827
    MDV=  2096569960 MDiskM=       10875 NBas2p=       89635
 Fully direct method using O(OVN) memory.
 IMap=   1   2   3   4   5   6   7   8   9  10  11
 JobTyp=1 Pass  1:  I=   1 to  11 NPSUse=  8 ParTrn=T ParDer=T DoDerP=F.
 Spin components of T(2) and E(2):
     alpha-alpha T2 =       0.4279451218D-01 E2=     -0.2929864802D-01
     alpha-beta  T2 =       0.2602717023D+00 E2=     -0.1871008767D+00
     beta-beta   T2 =       0.4279451218D-01 E2=     -0.2929864802D-01
 The integrals were generated   1 times.
 E2(B2PLYPD3) =    -0.2456981728D+00 E(B2PLYPD3) =    -0.19185806876034D+03
 Leave Link  906 at Wed Aug 26 09:08:14 2020, MaxMem=  2097152000 cpu:       434.1
 (Enter /opt/cluster/programs/g09/g09_d.01/g09/l601.exe)
 Copying SCF densities to generalized density rwf, IOpCl= 0 IROHF=0.

 **********************************************************************

            Population analysis using the SCF density.

 **********************************************************************

 Orbital symmetries:
       Occupied  (A) (A) (A) (A) (A) (A) (A) (A) (A) (A) (A) (A)
                 (A) (A) (A)
       Virtual   (A) (A) (A) (A) (A) (A) (A) (A) (A) (A) (A) (A)
                 (A) (A) (A) (A) (A) (A) (A) (A) (A) (A) (A) (A)
                 (A) (A) (A) (A) (A) (A) (A) (A) (A) (A) (A) (A)
                 (A) (A) (A) (A) (A) (A) (A) (A) (A) (A) (A) (A)
                 (A) (A) (A) (A) (A) (A) (A) (A) (A) (A) (A) (A)
                 (A) (A) (A) (A) (A) (A) (A) (A) (A) (A) (A) (A)
                 (A) (A) (A) (A) (A) (A) (A) (A) (A) (A) (A) (A)
                 (A) (A) (A) (A) (A) (A) (A) (A) (A) (A) (A) (A)
                 (A) (A) (A) (A) (A) (A) (A) (A) (A) (A) (A) (A)
                 (A) (A) (A) (A) (A) (A) (A) (A) (A) (A) (A) (A)
                 (A) (A) (A) (A) (A) (A) (A) (A) (A) (A) (A) (A)
                 (A) (A) (A) (A) (A) (A) (A) (A) (A) (A) (A) (A)
                 (A) (A) (A) (A) (A) (A) (A) (A) (A) (A) (A) (A)
                 (A) (A) (A) (A) (A) (A) (A) (A) (A) (A) (A) (A)
                 (A) (A) (A) (A) (A) (A) (A) (A) (A) (A) (A) (A)
                 (A) (A) (A) (A) (A) (A) (A) (A) (A) (A) (A) (A)
                 (A) (A) (A) (A) (A) (A) (A) (A) (A) (A) (A) (A)
                 (A) (A) (A) (A) (A) (A) (A) (A) (A) (A) (A) (A)
                 (A) (A) (A) (A) (A) (A) (A) (A) (A) (A) (A) (A)
                 (A) (A) (A) (A) (A) (A) (A) (A) (A) (A) (A) (A)
                 (A) (A) (A) (A) (A) (A) (A) (A) (A) (A) (A) (A)
                 (A) (A) (A) (A) (A) (A) (A) (A) (A) (A) (A) (A)
                 (A) (A) (A) (A) (A) (A) (A) (A) (A) (A) (A) (A)
                 (A) (A) (A) (A) (A) (A) (A) (A) (A) (A) (A) (A)
                 (A) (A) (A) (A) (A) (A) (A) (A) (A) (A) (A) (A)
                 (A) (A) (A) (A) (A) (A) (A) (A) (A) (A) (A) (A)
                 (A) (A) (A) (A) (A) (A) (A) (A) (A) (A) (A) (A)
                 (A) (A) (A) (A) (A) (A) (A) (A) (A)
 The electronic state is 1-A.
 Alpha  occ. eigenvalues --  -19.72806 -10.71403 -10.64073 -10.63733  -1.20194
 Alpha  occ. eigenvalues --   -0.93287  -0.75977  -0.67421  -0.57468  -0.56915
 Alpha  occ. eigenvalues --   -0.51232  -0.47178  -0.46885  -0.34787  -0.33854
 Alpha virt. eigenvalues --   -0.01476   0.05941   0.07432   0.08312   0.09805
 Alpha virt. eigenvalues --    0.12677   0.14393   0.15439   0.17583   0.19782
 Alpha virt. eigenvalues --    0.19925   0.22109   0.25658   0.26356   0.29021
 Alpha virt. eigenvalues --    0.33072   0.33348   0.35636   0.37324   0.38773
 Alpha virt. eigenvalues --    0.40534   0.41757   0.43155   0.45073   0.46768
 Alpha virt. eigenvalues --    0.47955   0.48991   0.54436   0.55058   0.57866
 Alpha virt. eigenvalues --    0.58648   0.64720   0.65859   0.67722   0.72145
 Alpha virt. eigenvalues --    0.75347   0.76496   0.78114   0.80305   0.81150
 Alpha virt. eigenvalues --    0.81755   0.82158   0.83498   0.84245   0.86960
 Alpha virt. eigenvalues --    0.88535   0.91325   0.93132   0.94669   0.95872
 Alpha virt. eigenvalues --    0.97352   0.98647   1.01161   1.02597   1.08154
 Alpha virt. eigenvalues --    1.09370   1.12538   1.15668   1.18023   1.19216
 Alpha virt. eigenvalues --    1.20984   1.25912   1.28793   1.35855   1.41216
 Alpha virt. eigenvalues --    1.43410   1.47348   1.49452   1.55103   1.56699
 Alpha virt. eigenvalues --    1.60156   1.64431   1.67455   1.68481   1.70698
 Alpha virt. eigenvalues --    1.74688   1.76015   1.76797   1.81799   1.83957
 Alpha virt. eigenvalues --    1.86332   1.89814   1.90956   1.92252   1.94224
 Alpha virt. eigenvalues --    1.95976   1.97855   1.99977   2.01455   2.03030
 Alpha virt. eigenvalues --    2.06352   2.10459   2.11463   2.14152   2.15091
 Alpha virt. eigenvalues --    2.18081   2.18753   2.21485   2.22393   2.28843
 Alpha virt. eigenvalues --    2.30535   2.35039   2.37591   2.38938   2.43756
 Alpha virt. eigenvalues --    2.46256   2.48801   2.49583   2.50698   2.53844
 Alpha virt. eigenvalues --    2.56479   2.56789   2.59852   2.62376   2.64554
 Alpha virt. eigenvalues --    2.66333   2.67565   2.69215   2.73370   2.74640
 Alpha virt. eigenvalues --    2.77863   2.80729   2.86067   2.88438   2.90030
 Alpha virt. eigenvalues --    2.94053   2.98937   3.00582   3.03802   3.08905
 Alpha virt. eigenvalues --    3.17530   3.22091   3.30357   3.31870   3.35598
 Alpha virt. eigenvalues --    3.39962   3.43041   3.45702   3.47459   3.54579
 Alpha virt. eigenvalues --    3.57975   3.59191   3.63493   3.65600   3.67450
 Alpha virt. eigenvalues --    3.68454   3.76752   3.82046   3.85471   3.91767
 Alpha virt. eigenvalues --    3.99454   4.00544   4.06606   4.08218   4.11120
 Alpha virt. eigenvalues --    4.14588   4.19614   4.24219   4.27165   4.33134
 Alpha virt. eigenvalues --    4.40704   4.42943   4.57205   4.61364   4.64633
 Alpha virt. eigenvalues --    4.69590   4.83303   4.87728   4.93448   4.99416
 Alpha virt. eigenvalues --    5.03759   5.06158   5.11046   5.13470   5.15434
 Alpha virt. eigenvalues --    5.20701   5.26183   5.31677   5.35405   5.44725
 Alpha virt. eigenvalues --    5.45537   5.51531   5.54004   5.58247   5.62782
 Alpha virt. eigenvalues --    5.66011   5.71055   5.72129   5.76894   5.77607
 Alpha virt. eigenvalues --    5.81397   5.86163   5.88789   5.92342   5.96794
 Alpha virt. eigenvalues --    5.99932   6.01046   6.02239   6.07134   6.08460
 Alpha virt. eigenvalues --    6.10363   6.16672   6.17207   6.18645   6.20531
 Alpha virt. eigenvalues --    6.24536   6.28184   6.28842   6.31620   6.37391
 Alpha virt. eigenvalues --    6.39859   6.40565   6.42201   6.45499   6.48929
 Alpha virt. eigenvalues --    6.53156   6.54532   6.58230   6.63462   6.66914
 Alpha virt. eigenvalues --    6.68804   6.72478   6.73731   6.78384   6.87259
 Alpha virt. eigenvalues --    6.89359   6.90259   7.01183   7.05400   7.09199
 Alpha virt. eigenvalues --    7.12387   7.12556   7.13682   7.22093   7.31963
 Alpha virt. eigenvalues --    7.36133   7.45908   7.48115   7.56406   7.56998
 Alpha virt. eigenvalues --    7.60126   7.60549   7.64415   7.69739   7.70646
 Alpha virt. eigenvalues --    7.71022   7.71837   7.74855   7.79044   7.83673
 Alpha virt. eigenvalues --    7.88846   7.91421   7.91920   8.01766   8.07455
 Alpha virt. eigenvalues --    8.11532   8.11815   8.13497   8.19138   8.21814
 Alpha virt. eigenvalues --    8.24345   8.29710   8.36226   8.36843   8.37548
 Alpha virt. eigenvalues --    8.40926   8.46045   8.53235   8.58708   8.62096
 Alpha virt. eigenvalues --    8.63584   8.67217   8.71507   8.73363   8.82758
 Alpha virt. eigenvalues --    8.89692   9.01316   9.06355   9.07246   9.09331
 Alpha virt. eigenvalues --    9.11403   9.20693   9.25095   9.34407   9.39122
 Alpha virt. eigenvalues --    9.44727   9.57880   9.67039   9.78393   9.83785
 Alpha virt. eigenvalues --    9.93630   9.94208   9.98237  10.04580  10.10065
 Alpha virt. eigenvalues --   10.18144  10.20418  10.24267  10.31530  10.43989
 Alpha virt. eigenvalues --   10.53795  10.58948  10.64187  10.80951  11.03959
 Alpha virt. eigenvalues --   11.24896  11.26115  11.31836  11.47727  11.53845
 Alpha virt. eigenvalues --   11.67516  11.71091  11.79977  12.04691  12.11782
 Alpha virt. eigenvalues --   12.33972  12.39158  12.48479  12.60070  13.05210
 Alpha virt. eigenvalues --   13.28497  13.42538  13.83467  14.34462  14.79147
 Alpha virt. eigenvalues --   28.69157  28.94183  29.69710  48.66128 148.29138
 Alpha virt. eigenvalues --  148.50791 149.33847 254.42367
          Condensed to atoms (all electrons):
               1          2          3          4          5          6
     1  C    4.498605   0.619148   0.367158  -0.053888  -0.031008  -0.004462
     2  O    0.619148   7.879719  -0.091832   0.007259   0.005535   0.000366
     3  C    0.367158  -0.091832   5.173226   0.480258   0.367171  -0.055320
     4  C   -0.053888   0.007259   0.480258   4.856950  -0.041063   0.429104
     5  H   -0.031008   0.005535   0.367171  -0.041063   0.587420   0.006328
     6  H   -0.004462   0.000366  -0.055320   0.429104   0.006328   0.585594
     7  H    0.002536  -0.000587  -0.034870   0.424674  -0.005448  -0.043514
     8  H    0.448906  -0.078947  -0.166319   0.025004   0.007824   0.006737
               7          8
     1  C    0.002536   0.448906
     2  O   -0.000587  -0.078947
     3  C   -0.034870  -0.166319
     4  C    0.424674   0.025004
     5  H   -0.005448   0.007824
     6  H   -0.043514   0.006737
     7  H    0.555184  -0.000686
     8  H   -0.000686   0.683173
 Mulliken charges:
               1
     1  C    0.153005
     2  O   -0.340661
     3  C   -0.039472
     4  C   -0.128299
     5  H    0.103240
     6  H    0.075167
     7  H    0.102710
     8  H    0.074309
 Sum of Mulliken charges =   0.00000
 Mulliken charges with hydrogens summed into heavy atoms:
               1
     1  C    0.227314
     2  O   -0.340661
     3  C    0.063768
     4  C    0.049578
 Electronic spatial extent (au):  <R**2>=            294.5009
 Charge=              0.0000 electrons
 Dipole moment (field-independent basis, Debye):
    X=              3.3526    Y=              0.8031    Z=              0.2054  Tot=              3.4536
 Quadrupole moment (field-independent basis, Debye-Ang):
   XX=            -27.1907   YY=            -21.7895   ZZ=            -25.0089
   XY=             -1.1159   XZ=             -0.1807   YZ=             -0.1482
 Traceless Quadrupole moment (field-independent basis, Debye-Ang):
   XX=             -2.5276   YY=              2.8735   ZZ=             -0.3459
   XY=             -1.1159   XZ=             -0.1807   YZ=             -0.1482
 Octapole moment (field-independent basis, Debye-Ang**2):
  XXX=             14.8876  YYY=             -0.0437  ZZZ=              0.0161  XYY=             -0.3885
  XXY=              0.7736  XXZ=              0.4772  XZZ=             -4.1048  YZZ=              0.0858
  YYZ=              0.0737  XYZ=             -0.1806
 Hexadecapole moment (field-independent basis, Debye-Ang**3):
 XXXX=           -296.4121 YYYY=            -54.5714 ZZZZ=            -27.2166 XXXY=             -2.9695
 XXXZ=              0.6063 YYYX=             -0.3628 YYYZ=             -0.4352 ZZZX=              0.4164
 ZZZY=             -0.0834 XXYY=            -57.3964 XXZZ=            -55.9232 YYZZ=            -15.2203
 XXYZ=             -0.3830 YYXZ=              0.0521 ZZXY=              0.2721
 N-N= 1.041708948458D+02 E-N=-6.565758255204D+02  KE= 1.912425048752D+02
 Leave Link  601 at Wed Aug 26 09:08:14 2020, MaxMem=  2097152000 cpu:         0.6
 (Enter /opt/cluster/programs/g09/g09_d.01/g09/l9999.exe)
 1\1\GINC-NODE17\SP\RB2PLYPD3-FC\def2QZVP\C3H4O1\BOITTIER\26-Aug-2020\0
 \\#p B2PLYPD3/Def2QZVP\\acrolein\\0,1\C,0,-5.017726,-1.378156,0.838098
 \O,0,-3.936152,-0.876231,0.695576\C,0,-5.203261,-2.809887,1.125152\C,0
 ,-6.380965,-3.321538,1.43464\H,0,-4.357402,-3.439264,1.043313\H,0,-7.2
 34845,-2.672754,1.495448\H,0,-6.553119,-4.304759,1.550189\H,0,-5.92154
 3,-0.75469,0.870911\\Version=ES64L-G09RevD.01\State=1-A\HF=-191.612370
 6\MP2=-191.8580688\RMSD=9.522e-09\PG=C01 [X(C3H4O1)]\\@


 THOSE WHO TRY TO PASS CHEMISTRY OFF AS A NEW SCIENCE
 SHOW HOW LITTLE KNOWLEDGE THEY HAVE OF THE CHARACTER
 AND LITERATURE OF THE ANCIENTS.
   -- NICOLAS LEFEVRE
 "COURS DE CHYMIE" J.-N.LELOUP, PARIS, 1751
 Job cpu time:       0 days  0 hours 14 minutes 26.0 seconds.
 File lengths (MBytes):  RWF=     49 Int=      0 D2E=      0 Chk=      7 Scr=      1
 Normal termination of Gaussian 09 at Wed Aug 26 09:08:14 2020.
