 Entering Gaussian System, Link 0=/opt/cluster/programs/g09/g09_d.01/g09//g09
 Input=/home/boittier/MDCM/nms_sampling/acrolein_geom.xyz.dir/energies/acrolein_2597_energy.com
 Output=/scratch/boittier/acrolein_2597_energy/acrolein_2597_energy.out
 Initial command:
 /opt/cluster/programs/g09/g09_d.01/g09/l1.exe "/scratch/boittier/acrolein_2597_energy/Gau-182071.inp" -scrdir="/scratch/boittier/acrolein_2597_energy/"
 Entering Link 1 = /opt/cluster/programs/g09/g09_d.01/g09/l1.exe PID=    182072.
  
 Copyright (c) 1988,1990,1992,1993,1995,1998,2003,2009,2013,
            Gaussian, Inc.  All Rights Reserved.
  
 This is part of the Gaussian(R) 09 program.  It is based on
 the Gaussian(R) 03 system (copyright 2003, Gaussian, Inc.),
 the Gaussian(R) 98 system (copyright 1998, Gaussian, Inc.),
 the Gaussian(R) 94 system (copyright 1995, Gaussian, Inc.),
 the Gaussian 92(TM) system (copyright 1992, Gaussian, Inc.),
 the Gaussian 90(TM) system (copyright 1990, Gaussian, Inc.),
 the Gaussian 88(TM) system (copyright 1988, Gaussian, Inc.),
 the Gaussian 86(TM) system (copyright 1986, Carnegie Mellon
 University), and the Gaussian 82(TM) system (copyright 1983,
 Carnegie Mellon University). Gaussian is a federally registered
 trademark of Gaussian, Inc.
  
 This software contains proprietary and confidential information,
 including trade secrets, belonging to Gaussian, Inc.
  
 This software is provided under written license and may be
 used, copied, transmitted, or stored only in accord with that
 written license.
  
 The following legend is applicable only to US Government
 contracts under FAR:
  
                    RESTRICTED RIGHTS LEGEND
  
 Use, reproduction and disclosure by the US Government is
 subject to restrictions as set forth in subparagraphs (a)
 and (c) of the Commercial Computer Software - Restricted
 Rights clause in FAR 52.227-19.
  
 Gaussian, Inc.
 340 Quinnipiac St., Bldg. 40, Wallingford CT 06492
  
  
 ---------------------------------------------------------------
 Warning -- This program may not be used in any manner that
 competes with the business of Gaussian, Inc. or will provide
 assistance to any competitor of Gaussian, Inc.  The licensee
 of this program is prohibited from giving any competitor of
 Gaussian, Inc. access to this program.  By using this program,
 the user acknowledges that Gaussian, Inc. is engaged in the
 business of creating and licensing software in the field of
 computational chemistry and represents and warrants to the
 licensee that it is not a competitor of Gaussian, Inc. and that
 it will not use this program in any manner prohibited above.
 ---------------------------------------------------------------
  

 Cite this work as:
 Gaussian 09, Revision D.01,
 M. J. Frisch, G. W. Trucks, H. B. Schlegel, G. E. Scuseria, 
 M. A. Robb, J. R. Cheeseman, G. Scalmani, V. Barone, B. Mennucci, 
 G. A. Petersson, H. Nakatsuji, M. Caricato, X. Li, H. P. Hratchian, 
 A. F. Izmaylov, J. Bloino, G. Zheng, J. L. Sonnenberg, M. Hada, 
 M. Ehara, K. Toyota, R. Fukuda, J. Hasegawa, M. Ishida, T. Nakajima, 
 Y. Honda, O. Kitao, H. Nakai, T. Vreven, J. A. Montgomery, Jr., 
 J. E. Peralta, F. Ogliaro, M. Bearpark, J. J. Heyd, E. Brothers, 
 K. N. Kudin, V. N. Staroverov, T. Keith, R. Kobayashi, J. Normand, 
 K. Raghavachari, A. Rendell, J. C. Burant, S. S. Iyengar, J. Tomasi, 
 M. Cossi, N. Rega, J. M. Millam, M. Klene, J. E. Knox, J. B. Cross, 
 V. Bakken, C. Adamo, J. Jaramillo, R. Gomperts, R. E. Stratmann, 
 O. Yazyev, A. J. Austin, R. Cammi, C. Pomelli, J. W. Ochterski, 
 R. L. Martin, K. Morokuma, V. G. Zakrzewski, G. A. Voth, 
 P. Salvador, J. J. Dannenberg, S. Dapprich, A. D. Daniels, 
 O. Farkas, J. B. Foresman, J. V. Ortiz, J. Cioslowski, 
 and D. J. Fox, Gaussian, Inc., Wallingford CT, 2013.
 
 ******************************************
 Gaussian 09:  ES64L-G09RevD.01 24-Apr-2013
                26-Aug-2020 
 ******************************************
 %chk=/home/boittier/MDCM/nms_sampling/acrolein_geom.xyz.dir/acrolein_2597.chk
 %nproc=8
 Will use up to    8 processors via shared memory.
 %mem=16000MB
 --------------------
 #p B2PLYPD3/Def2QZVP
 --------------------
 1/38=1/1;
 2/12=2,17=6,18=5,40=1/2;
 3/5=45,7=101,11=9,16=1,25=1,30=1,74=-60/1,2,3;
 4//1;
 5/5=2,38=5/2;
 8/10=1/1;
 9/16=-3/6;
 6/7=2,8=2,9=2,10=2/1;
 99/5=1,9=1/99;
 Leave Link    1 at Wed Aug 26 14:32:40 2020, MaxMem=  2097152000 cpu:         0.2
 (Enter /opt/cluster/programs/g09/g09_d.01/g09/l101.exe)
 --------
 acrolein
 --------
 Symbolic Z-matrix:
 Charge =  0 Multiplicity = 1
 C                    -4.9876   -1.44624   0.92649 
 O                    -3.95684  -0.82492   0.62083 
 C                    -5.18504  -2.85372   1.16727 
 C                    -6.4234   -3.28252   1.34617 
 H                    -4.27339  -3.42974   1.30108 
 H                    -7.20741  -2.59486   1.36821 
 H                    -6.51802  -4.21045   1.72379 
 H                    -5.81834  -0.90371   1.22404 
 
 NAtoms=      8 NQM=        8 NQMF=       0 NMMI=      0 NMMIF=      0
                NMic=       0 NMicF=      0.
                    Isotopes and Nuclear Properties:
 (Nuclear quadrupole moments (NQMom) in fm**2, nuclear magnetic moments (NMagM)
  in nuclear magnetons)

  Atom         1           2           3           4           5           6           7           8
 IAtWgt=          12          16          12          12           1           1           1           1
 AtmWgt=  12.0000000  15.9949146  12.0000000  12.0000000   1.0078250   1.0078250   1.0078250   1.0078250
 NucSpn=           0           0           0           0           1           1           1           1
 AtZEff=   0.0000000   0.0000000   0.0000000   0.0000000   0.0000000   0.0000000   0.0000000   0.0000000
 NQMom=    0.0000000   0.0000000   0.0000000   0.0000000   0.0000000   0.0000000   0.0000000   0.0000000
 NMagM=    0.0000000   0.0000000   0.0000000   0.0000000   2.7928460   2.7928460   2.7928460   2.7928460
 AtZNuc=   6.0000000   8.0000000   6.0000000   6.0000000   1.0000000   1.0000000   1.0000000   1.0000000
 Leave Link  101 at Wed Aug 26 14:32:40 2020, MaxMem=  2097152000 cpu:         0.5
 (Enter /opt/cluster/programs/g09/g09_d.01/g09/l202.exe)
                          Input orientation:                          
 ---------------------------------------------------------------------
 Center     Atomic      Atomic             Coordinates (Angstroms)
 Number     Number       Type             X           Y           Z
 ---------------------------------------------------------------------
      1          6           0       -4.987604   -1.446238    0.926487
      2          8           0       -3.956837   -0.824916    0.620831
      3          6           0       -5.185045   -2.853720    1.167272
      4          6           0       -6.423402   -3.282524    1.346173
      5          1           0       -4.273390   -3.429737    1.301082
      6          1           0       -7.207406   -2.594860    1.368207
      7          1           0       -6.518023   -4.210450    1.723785
      8          1           0       -5.818344   -0.903714    1.224044
 ---------------------------------------------------------------------
                    Distance matrix (angstroms):
                    1          2          3          4          5
     1  C    0.000000
     2  O    1.241752   0.000000
     3  C    1.441515   2.433750   0.000000
     4  C    2.368459   3.556670   1.322651   0.000000
     5  H    2.141189   2.710727   1.086653   2.155518   0.000000
     6  H    2.538104   3.775907   2.048738   1.043087   3.051225
     7  H    3.258640   4.386117   1.981730   1.006276   2.413828
     8  H    1.035858   1.958388   2.051052   2.457590   2.962028
                    6          7          8
     6  H    0.000000
     7  H    1.792154   0.000000
     8  H    2.193228   3.416694   0.000000
 Stoichiometry    C3H4O
 Framework group  C1[X(C3H4O)]
 Deg. of freedom    18
 Full point group                 C1      NOp   1
 Largest Abelian subgroup         C1      NOp   1
 Largest concise Abelian subgroup C1      NOp   1
                         Standard orientation:                         
 ---------------------------------------------------------------------
 Center     Atomic      Atomic             Coordinates (Angstroms)
 Number     Number       Type             X           Y           Z
 ---------------------------------------------------------------------
      1          6           0       -0.627820   -0.297901    0.020495
      2          8           0       -1.811972    0.071710   -0.035348
      3          6           0        0.587527    0.477013    0.000326
      4          6           0        1.735945   -0.175876   -0.065075
      5          1           0        0.455861    1.543275    0.163313
      6          1           0        1.736603   -1.218663   -0.040092
      7          1           0        2.560974    0.362368    0.140380
      8          1           0       -0.431571   -1.280080    0.284714
 ---------------------------------------------------------------------
 Rotational constants (GHZ):     49.9216551      4.7025267      4.3123498
 Leave Link  202 at Wed Aug 26 14:32:40 2020, MaxMem=  2097152000 cpu:         0.0
 (Enter /opt/cluster/programs/g09/g09_d.01/g09/l301.exe)
 Standard basis: def2QZVP (5D, 7F)
 Ernie: Thresh=  0.10000D-02 Tol=  0.10000D-05 Strict=F.
 There are   428 symmetry adapted cartesian basis functions of A   symmetry.
 There are   348 symmetry adapted basis functions of A   symmetry.
   348 basis functions,   520 primitive gaussians,   428 cartesian basis functions
    15 alpha electrons       15 beta electrons
       nuclear repulsion energy       104.1276353260 Hartrees.
 IExCor=  419 DFT=T Ex+Corr=B2PLYPD3 ExCW=0 ScaHFX=  0.530000
 ScaDFX=  0.470000  0.470000  0.730000  0.730000 ScalE2=  0.270000  0.270000
 IRadAn=      0 IRanWt=     -1 IRanGd=            0 ICorTp=0 IEmpDi=141
 NAtoms=    8 NActive=    8 NUniq=    8 SFac= 1.00D+00 NAtFMM=   60 NAOKFM=F Big=F
 Integral buffers will be    131072 words long.
 Regular integral format.
 Two-electron integral symmetry is turned on.
 R6Disp:  Grimme-D3(BJ) Dispersion energy=       -0.0036299590 Hartrees.
 Nuclear repulsion after empirical dispersion term =      104.1240053669 Hartrees.
 Leave Link  301 at Wed Aug 26 14:32:41 2020, MaxMem=  2097152000 cpu:         0.4
 (Enter /opt/cluster/programs/g09/g09_d.01/g09/l302.exe)
 NPDir=0 NMtPBC=     1 NCelOv=     1 NCel=       1 NClECP=     1 NCelD=      1
         NCelK=      1 NCelE2=     1 NClLst=     1 CellRange=     0.0.
 One-electron integrals computed using PRISM.
   1 Symmetry operations used in ECPInt.
 ECPInt:  NShTT=    5886 NPrTT=   14376 LenC2=    5783 LenP2D=   12215.
 LDataN:  DoStor=T MaxTD1= 8 Len=  415
 NBasis=   348 RedAO= T EigKep=  5.77D-05  NBF=   348
 NBsUse=   348 1.00D-06 EigRej= -1.00D+00 NBFU=   348
 Precomputing XC quadrature grid using
 IXCGrd= 4 IRadAn=           0 IRanWt=          -1 IRanGd=           0 AccXCQ= 0.00D+00.
 Generated NRdTot=       0 NPtTot=           0 NUsed=           0 NTot=          32
 NSgBfM=   428   428   428   428   428 MxSgAt=     8 MxSgA2=     8.
 Leave Link  302 at Wed Aug 26 14:32:41 2020, MaxMem=  2097152000 cpu:         3.0
 (Enter /opt/cluster/programs/g09/g09_d.01/g09/l303.exe)
 DipDrv:  MaxL=1.
 Leave Link  303 at Wed Aug 26 14:32:41 2020, MaxMem=  2097152000 cpu:         0.3
 (Enter /opt/cluster/programs/g09/g09_d.01/g09/l401.exe)
 ExpMin= 7.60D-02 ExpMax= 1.17D+05 ExpMxC= 1.13D+03 IAcc=2 IRadAn=         4 AccDes= 0.00D+00
 Harris functional with IExCor=  419 and IRadAn=       4 diagonalized for initial guess.
 HarFok:  IExCor=  419 AccDes= 0.00D+00 IRadAn=         4 IDoV= 1 UseB2=F ITyADJ=14
 ICtDFT=  3500011 ScaDFX=  1.000000  1.000000  1.000000  1.000000
 FoFCou: FMM=F IPFlag=           0 FMFlag=      100000 FMFlg1=           0
         NFxFlg=           0 DoJE=T BraDBF=F KetDBF=T FulRan=T
         wScrn=  0.000000 ICntrl=     500 IOpCl=  0 I1Cent=   200000004 NGrid=           0
         NMat0=    1 NMatS0=      1 NMatT0=    0 NMatD0=    1 NMtDS0=    0 NMtDT0=    0
 Petite list used in FoFCou.
 Harris En= -192.039986185562    
 JPrj=0 DoOrth=F DoCkMO=F.
 Leave Link  401 at Wed Aug 26 14:32:42 2020, MaxMem=  2097152000 cpu:         7.0
 (Enter /opt/cluster/programs/g09/g09_d.01/g09/l502.exe)
 Closed shell SCF:
 Using DIIS extrapolation, IDIIS=  1040.
 Integral symmetry usage will be decided dynamically.
 Keep R1 ints in memory in canonical form, NReq=1883905047.
 IVT=      574566 IEndB=      574566 NGot=  2097152000 MDV=   252723534
 LenX=   252723534 LenY=   252539909
 Requested convergence on RMS density matrix=1.00D-08 within 128 cycles.
 Requested convergence on MAX density matrix=1.00D-06.
 Requested convergence on             energy=1.00D-06.
 No special actions if energy rises.
 FoFCou: FMM=F IPFlag=           0 FMFlag=           0 FMFlg1=           0
         NFxFlg=           0 DoJE=F BraDBF=F KetDBF=F FulRan=T
         wScrn=  0.000000 ICntrl=     600 IOpCl=  0 I1Cent=           0 NGrid=           0
         NMat0=    1 NMatS0=  60726 NMatT0=    0 NMatD0=    1 NMtDS0=    0 NMtDT0=    0
 Symmetry not used in FoFCou.
 Integral accuracy reduced to 1.0D-05 until final iterations.

 Cycle   1  Pass 0  IDiag  1:
 E= -191.451857262821    
 DIIS: error= 2.35D-02 at cycle   1 NSaved=   1.
 NSaved= 1 IEnMin= 1 EnMin= -191.451857262821     IErMin= 1 ErrMin= 2.35D-02
 ErrMax= 2.35D-02  0.00D+00 EMaxC= 1.00D-01 BMatC= 2.57D-01 BMatP= 2.57D-01
 IDIUse=3 WtCom= 7.65D-01 WtEn= 2.35D-01
 Coeff-Com:  0.100D+01
 Coeff-En:   0.100D+01
 Coeff:      0.100D+01
 Gap=     0.285 Goal=   None    Shift=    0.000
 GapD=    0.285 DampG=1.000 DampE=0.500 DampFc=0.5000 IDamp=-1.
 Damping current iteration by 5.00D-01
 RMSDP=1.72D-03 MaxDP=2.09D-01              OVMax= 1.67D-01

 Cycle   2  Pass 0  IDiag  1:
 E= -191.523934765263     Delta-E=       -0.072077502442 Rises=F Damp=T
 DIIS: error= 8.89D-03 at cycle   2 NSaved=   2.
 NSaved= 2 IEnMin= 2 EnMin= -191.523934765263     IErMin= 2 ErrMin= 8.89D-03
 ErrMax= 8.89D-03  0.00D+00 EMaxC= 1.00D-01 BMatC= 3.45D-02 BMatP= 2.57D-01
 IDIUse=3 WtCom= 9.11D-01 WtEn= 8.89D-02
 Coeff-Com: -0.185D+00 0.118D+01
 Coeff-En:   0.000D+00 0.100D+01
 Coeff:     -0.168D+00 0.117D+01
 Gap=     0.344 Goal=   None    Shift=    0.000
 RMSDP=5.77D-04 MaxDP=6.88D-02 DE=-7.21D-02 OVMax= 1.18D-01

 Cycle   3  Pass 0  IDiag  1:
 E= -191.584170209895     Delta-E=       -0.060235444632 Rises=F Damp=F
 DIIS: error= 5.74D-03 at cycle   3 NSaved=   3.
 NSaved= 3 IEnMin= 3 EnMin= -191.584170209895     IErMin= 3 ErrMin= 5.74D-03
 ErrMax= 5.74D-03  0.00D+00 EMaxC= 1.00D-01 BMatC= 1.83D-02 BMatP= 3.45D-02
 IDIUse=3 WtCom= 9.43D-01 WtEn= 5.74D-02
 Coeff-Com: -0.202D+00 0.560D+00 0.643D+00
 Coeff-En:   0.000D+00 0.000D+00 0.100D+01
 Coeff:     -0.191D+00 0.528D+00 0.663D+00
 Gap=     0.323 Goal=   None    Shift=    0.000
 RMSDP=2.46D-04 MaxDP=1.87D-02 DE=-6.02D-02 OVMax= 4.76D-02

 Cycle   4  Pass 0  IDiag  1:
 E= -191.594652952487     Delta-E=       -0.010482742592 Rises=F Damp=F
 DIIS: error= 2.81D-03 at cycle   4 NSaved=   4.
 NSaved= 4 IEnMin= 4 EnMin= -191.594652952487     IErMin= 4 ErrMin= 2.81D-03
 ErrMax= 2.81D-03  0.00D+00 EMaxC= 1.00D-01 BMatC= 2.82D-03 BMatP= 1.83D-02
 IDIUse=3 WtCom= 9.72D-01 WtEn= 2.81D-02
 Coeff-Com: -0.649D-01 0.111D+00 0.343D+00 0.611D+00
 Coeff-En:   0.000D+00 0.000D+00 0.139D+00 0.861D+00
 Coeff:     -0.631D-01 0.108D+00 0.337D+00 0.618D+00
 Gap=     0.313 Goal=   None    Shift=    0.000
 RMSDP=9.69D-05 MaxDP=8.07D-03 DE=-1.05D-02 OVMax= 1.48D-02

 Cycle   5  Pass 0  IDiag  1:
 E= -191.596953872089     Delta-E=       -0.002300919603 Rises=F Damp=F
 DIIS: error= 2.21D-04 at cycle   5 NSaved=   5.
 NSaved= 5 IEnMin= 5 EnMin= -191.596953872089     IErMin= 5 ErrMin= 2.21D-04
 ErrMax= 2.21D-04  0.00D+00 EMaxC= 1.00D-01 BMatC= 1.36D-05 BMatP= 2.82D-03
 IDIUse=3 WtCom= 9.98D-01 WtEn= 2.21D-03
 Coeff-Com: -0.121D-01 0.176D-01 0.684D-01 0.154D+00 0.772D+00
 Coeff-En:   0.000D+00 0.000D+00 0.000D+00 0.000D+00 0.100D+01
 Coeff:     -0.121D-01 0.175D-01 0.683D-01 0.153D+00 0.773D+00
 Gap=     0.311 Goal=   None    Shift=    0.000
 RMSDP=7.48D-06 MaxDP=3.21D-04 DE=-2.30D-03 OVMax= 2.56D-03

 Initial convergence to 1.0D-05 achieved.  Increase integral accuracy.
 Cycle   6  Pass 1  IDiag  1:
 E= -191.596958178166     Delta-E=       -0.000004306077 Rises=F Damp=F
 DIIS: error= 8.24D-05 at cycle   1 NSaved=   1.
 NSaved= 1 IEnMin= 1 EnMin= -191.596958178166     IErMin= 1 ErrMin= 8.24D-05
 ErrMax= 8.24D-05  0.00D+00 EMaxC= 1.00D-01 BMatC= 2.34D-06 BMatP= 2.34D-06
 IDIUse=1 WtCom= 1.00D+00 WtEn= 0.00D+00
 Coeff-Com:  0.100D+01
 Coeff:      0.100D+01
 Gap=     0.312 Goal=   None    Shift=    0.000
 RMSDP=7.48D-06 MaxDP=3.21D-04 DE=-4.31D-06 OVMax= 1.02D-03

 Cycle   7  Pass 1  IDiag  1:
 E= -191.596958865250     Delta-E=       -0.000000687084 Rises=F Damp=F
 DIIS: error= 9.28D-05 at cycle   2 NSaved=   2.
 NSaved= 2 IEnMin= 2 EnMin= -191.596958865250     IErMin= 1 ErrMin= 8.24D-05
 ErrMax= 9.28D-05  0.00D+00 EMaxC= 1.00D-01 BMatC= 2.07D-06 BMatP= 2.34D-06
 IDIUse=1 WtCom= 1.00D+00 WtEn= 0.00D+00
 Coeff-Com:  0.483D+00 0.517D+00
 Coeff:      0.483D+00 0.517D+00
 Gap=     0.312 Goal=   None    Shift=    0.000
 RMSDP=2.54D-06 MaxDP=2.00D-04 DE=-6.87D-07 OVMax= 8.09D-04

 Cycle   8  Pass 1  IDiag  1:
 E= -191.596960900486     Delta-E=       -0.000002035236 Rises=F Damp=F
 DIIS: error= 1.91D-05 at cycle   3 NSaved=   3.
 NSaved= 3 IEnMin= 3 EnMin= -191.596960900486     IErMin= 3 ErrMin= 1.91D-05
 ErrMax= 1.91D-05  0.00D+00 EMaxC= 1.00D-01 BMatC= 6.78D-08 BMatP= 2.07D-06
 IDIUse=1 WtCom= 1.00D+00 WtEn= 0.00D+00
 Coeff-Com:  0.604D-01 0.146D+00 0.793D+00
 Coeff:      0.604D-01 0.146D+00 0.793D+00
 Gap=     0.312 Goal=   None    Shift=    0.000
 RMSDP=1.42D-06 MaxDP=1.57D-04 DE=-2.04D-06 OVMax= 1.07D-04

 Cycle   9  Pass 1  IDiag  1:
 E= -191.596960978121     Delta-E=       -0.000000077634 Rises=F Damp=F
 DIIS: error= 8.51D-06 at cycle   4 NSaved=   4.
 NSaved= 4 IEnMin= 4 EnMin= -191.596960978121     IErMin= 4 ErrMin= 8.51D-06
 ErrMax= 8.51D-06  0.00D+00 EMaxC= 1.00D-01 BMatC= 1.33D-08 BMatP= 6.78D-08
 IDIUse=1 WtCom= 1.00D+00 WtEn= 0.00D+00
 Coeff-Com: -0.926D-01-0.542D-01 0.311D+00 0.836D+00
 Coeff:     -0.926D-01-0.542D-01 0.311D+00 0.836D+00
 Gap=     0.312 Goal=   None    Shift=    0.000
 RMSDP=7.00D-07 MaxDP=7.27D-05 DE=-7.76D-08 OVMax= 1.05D-04

 Cycle  10  Pass 1  IDiag  1:
 E= -191.596960999464     Delta-E=       -0.000000021344 Rises=F Damp=F
 DIIS: error= 3.37D-06 at cycle   5 NSaved=   5.
 NSaved= 5 IEnMin= 5 EnMin= -191.596960999464     IErMin= 5 ErrMin= 3.37D-06
 ErrMax= 3.37D-06  0.00D+00 EMaxC= 1.00D-01 BMatC= 4.60D-09 BMatP= 1.33D-08
 IDIUse=1 WtCom= 1.00D+00 WtEn= 0.00D+00
 Coeff-Com: -0.588D-01-0.447D-01 0.787D-01 0.488D+00 0.537D+00
 Coeff:     -0.588D-01-0.447D-01 0.787D-01 0.488D+00 0.537D+00
 Gap=     0.312 Goal=   None    Shift=    0.000
 RMSDP=2.39D-07 MaxDP=2.64D-05 DE=-2.13D-08 OVMax= 2.36D-05

 Cycle  11  Pass 1  IDiag  1:
 E= -191.596961003122     Delta-E=       -0.000000003658 Rises=F Damp=F
 DIIS: error= 8.93D-07 at cycle   6 NSaved=   6.
 NSaved= 6 IEnMin= 6 EnMin= -191.596961003122     IErMin= 6 ErrMin= 8.93D-07
 ErrMax= 8.93D-07  0.00D+00 EMaxC= 1.00D-01 BMatC= 1.79D-10 BMatP= 4.60D-09
 IDIUse=1 WtCom= 1.00D+00 WtEn= 0.00D+00
 Coeff-Com:  0.840D-02 0.378D-02-0.628D-01-0.326D-01 0.710D-01 0.101D+01
 Coeff:      0.840D-02 0.378D-02-0.628D-01-0.326D-01 0.710D-01 0.101D+01
 Gap=     0.312 Goal=   None    Shift=    0.000
 RMSDP=7.39D-08 MaxDP=5.49D-06 DE=-3.66D-09 OVMax= 1.32D-05

 Cycle  12  Pass 1  IDiag  1:
 E= -191.596961003531     Delta-E=       -0.000000000409 Rises=F Damp=F
 DIIS: error= 2.20D-07 at cycle   7 NSaved=   7.
 NSaved= 7 IEnMin= 7 EnMin= -191.596961003531     IErMin= 7 ErrMin= 2.20D-07
 ErrMax= 2.20D-07  0.00D+00 EMaxC= 1.00D-01 BMatC= 2.37D-11 BMatP= 1.79D-10
 IDIUse=1 WtCom= 1.00D+00 WtEn= 0.00D+00
 Coeff-Com:  0.687D-02 0.470D-02-0.255D-01-0.426D-01-0.362D-01 0.272D+00
 Coeff-Com:  0.820D+00
 Coeff:      0.687D-02 0.470D-02-0.255D-01-0.426D-01-0.362D-01 0.272D+00
 Coeff:      0.820D+00
 Gap=     0.312 Goal=   None    Shift=    0.000
 RMSDP=1.90D-08 MaxDP=7.00D-07 DE=-4.09D-10 OVMax= 5.82D-06

 Cycle  13  Pass 1  IDiag  1:
 E= -191.596961003582     Delta-E=       -0.000000000051 Rises=F Damp=F
 DIIS: error= 9.22D-08 at cycle   8 NSaved=   8.
 NSaved= 8 IEnMin= 8 EnMin= -191.596961003582     IErMin= 8 ErrMin= 9.22D-08
 ErrMax= 9.22D-08  0.00D+00 EMaxC= 1.00D-01 BMatC= 2.80D-12 BMatP= 2.37D-11
 IDIUse=1 WtCom= 1.00D+00 WtEn= 0.00D+00
 Coeff-Com: -0.174D-02-0.762D-03 0.125D-01 0.792D-02-0.117D-01-0.202D+00
 Coeff-Com:  0.781D-02 0.119D+01
 Coeff:     -0.174D-02-0.762D-03 0.125D-01 0.792D-02-0.117D-01-0.202D+00
 Coeff:      0.781D-02 0.119D+01
 Gap=     0.312 Goal=   None    Shift=    0.000
 RMSDP=1.27D-08 MaxDP=5.49D-07 DE=-5.10D-11 OVMax= 4.80D-06

 Cycle  14  Pass 1  IDiag  1:
 E= -191.596961003601     Delta-E=       -0.000000000018 Rises=F Damp=F
 DIIS: error= 2.43D-08 at cycle   9 NSaved=   9.
 NSaved= 9 IEnMin= 9 EnMin= -191.596961003601     IErMin= 9 ErrMin= 2.43D-08
 ErrMax= 2.43D-08  0.00D+00 EMaxC= 1.00D-01 BMatC= 3.66D-13 BMatP= 2.80D-12
 IDIUse=1 WtCom= 1.00D+00 WtEn= 0.00D+00
 Coeff-Com: -0.700D-03-0.567D-03 0.249D-02 0.342D-02 0.700D-02-0.189D-01
 Coeff-Com: -0.939D-01-0.111D+00 0.121D+01
 Coeff:     -0.700D-03-0.567D-03 0.249D-02 0.342D-02 0.700D-02-0.189D-01
 Coeff:     -0.939D-01-0.111D+00 0.121D+01
 Gap=     0.312 Goal=   None    Shift=    0.000
 RMSDP=4.98D-09 MaxDP=2.12D-07 DE=-1.84D-11 OVMax= 1.94D-06

 SCF Done:  E(RB2PLYPD3) =  -191.596961004     A.U. after   14 cycles
            NFock= 14  Conv=0.50D-08     -V/T= 2.0018
 KE= 1.912537817387D+02 PE=-6.564578405503D+02 EE= 1.694830924410D+02
 Leave Link  502 at Wed Aug 26 14:33:53 2020, MaxMem=  2097152000 cpu:       291.1
 (Enter /opt/cluster/programs/g09/g09_d.01/g09/l801.exe)
 DoSCS=T DFT=T ScalE2(SS,OS)=  0.270000  0.270000
 ExpMin= 7.60D-02 ExpMax= 1.17D+05 ExpMxC= 1.13D+03 IAcc=3 IRadAn=         5 AccDes= 0.00D+00
 HarFok:  IExCor=  205 AccDes= 0.00D+00 IRadAn=         5 IDoV=-2 UseB2=F ITyADJ=14
 ICtDFT= 12500011 ScaDFX=  1.000000  1.000000  1.000000  1.000000
 Largest valence mixing into a core orbital is  1.13D-04
 Largest core mixing into a valence orbital is  1.76D-05
 Range of M.O.s used for correlation:     5   348
 NBasis=   348 NAE=    15 NBE=    15 NFC=     4 NFV=     0
 NROrb=    344 NOA=    11 NOB=    11 NVA=   333 NVB=   333

 **** Warning!!: The largest alpha MO coefficient is  0.22707283D+02

 Leave Link  801 at Wed Aug 26 14:33:53 2020, MaxMem=  2097152000 cpu:         0.9
 (Enter /opt/cluster/programs/g09/g09_d.01/g09/l906.exe)
 DoSCS=T DFT=T ScalE2(SS,OS)=  0.270000  0.270000
 FulOut=F Deriv=F AODrv=F NAtomX=     8
   MMem=        1190  MDisk=          11 MDiskD=          11
  W3Min=     1567764 MinDsk=     2827057 NBas6D=         428
 NBas2D=       93150    NTT=       91806    LW2=     4508827
    MDV=  2096568544 MDiskM=       10875 NBas2p=       89874
 Fully direct method using O(OVN) memory.
 IMap=   1   2   3   4   5   6   7   8   9  10  11
 JobTyp=1 Pass  1:  I=   1 to  11 NPSUse=  8 ParTrn=T ParDer=T DoDerP=F.
 Spin components of T(2) and E(2):
     alpha-alpha T2 =       0.4400088751D-01 E2=     -0.2968369106D-01
     alpha-beta  T2 =       0.2666314109D+00 E2=     -0.1886740240D+00
     beta-beta   T2 =       0.4400088751D-01 E2=     -0.2968369106D-01
 The integrals were generated   1 times.
 E2(B2PLYPD3) =    -0.2480414061D+00 E(B2PLYPD3) =    -0.19184500240975D+03
 Leave Link  906 at Wed Aug 26 14:35:05 2020, MaxMem=  2097152000 cpu:       571.5
 (Enter /opt/cluster/programs/g09/g09_d.01/g09/l601.exe)
 Copying SCF densities to generalized density rwf, IOpCl= 0 IROHF=0.

 **********************************************************************

            Population analysis using the SCF density.

 **********************************************************************

 Orbital symmetries:
       Occupied  (A) (A) (A) (A) (A) (A) (A) (A) (A) (A) (A) (A)
                 (A) (A) (A)
       Virtual   (A) (A) (A) (A) (A) (A) (A) (A) (A) (A) (A) (A)
                 (A) (A) (A) (A) (A) (A) (A) (A) (A) (A) (A) (A)
                 (A) (A) (A) (A) (A) (A) (A) (A) (A) (A) (A) (A)
                 (A) (A) (A) (A) (A) (A) (A) (A) (A) (A) (A) (A)
                 (A) (A) (A) (A) (A) (A) (A) (A) (A) (A) (A) (A)
                 (A) (A) (A) (A) (A) (A) (A) (A) (A) (A) (A) (A)
                 (A) (A) (A) (A) (A) (A) (A) (A) (A) (A) (A) (A)
                 (A) (A) (A) (A) (A) (A) (A) (A) (A) (A) (A) (A)
                 (A) (A) (A) (A) (A) (A) (A) (A) (A) (A) (A) (A)
                 (A) (A) (A) (A) (A) (A) (A) (A) (A) (A) (A) (A)
                 (A) (A) (A) (A) (A) (A) (A) (A) (A) (A) (A) (A)
                 (A) (A) (A) (A) (A) (A) (A) (A) (A) (A) (A) (A)
                 (A) (A) (A) (A) (A) (A) (A) (A) (A) (A) (A) (A)
                 (A) (A) (A) (A) (A) (A) (A) (A) (A) (A) (A) (A)
                 (A) (A) (A) (A) (A) (A) (A) (A) (A) (A) (A) (A)
                 (A) (A) (A) (A) (A) (A) (A) (A) (A) (A) (A) (A)
                 (A) (A) (A) (A) (A) (A) (A) (A) (A) (A) (A) (A)
                 (A) (A) (A) (A) (A) (A) (A) (A) (A) (A) (A) (A)
                 (A) (A) (A) (A) (A) (A) (A) (A) (A) (A) (A) (A)
                 (A) (A) (A) (A) (A) (A) (A) (A) (A) (A) (A) (A)
                 (A) (A) (A) (A) (A) (A) (A) (A) (A) (A) (A) (A)
                 (A) (A) (A) (A) (A) (A) (A) (A) (A) (A) (A) (A)
                 (A) (A) (A) (A) (A) (A) (A) (A) (A) (A) (A) (A)
                 (A) (A) (A) (A) (A) (A) (A) (A) (A) (A) (A) (A)
                 (A) (A) (A) (A) (A) (A) (A) (A) (A) (A) (A) (A)
                 (A) (A) (A) (A) (A) (A) (A) (A) (A) (A) (A) (A)
                 (A) (A) (A) (A) (A) (A) (A) (A) (A) (A) (A) (A)
                 (A) (A) (A) (A) (A) (A) (A) (A) (A)
 The electronic state is 1-A.
 Alpha  occ. eigenvalues --  -19.72667 -10.70712 -10.64542 -10.64406  -1.17442
 Alpha  occ. eigenvalues --   -0.94858  -0.77346  -0.68066  -0.57797  -0.56454
 Alpha  occ. eigenvalues --   -0.50624  -0.48353  -0.45249  -0.35114  -0.33724
 Alpha virt. eigenvalues --   -0.02526   0.05939   0.06738   0.08159   0.09744
 Alpha virt. eigenvalues --    0.13214   0.14177   0.14999   0.17579   0.18918
 Alpha virt. eigenvalues --    0.20454   0.22341   0.24295   0.27356   0.28217
 Alpha virt. eigenvalues --    0.30998   0.32829   0.34480   0.38327   0.38973
 Alpha virt. eigenvalues --    0.40104   0.40917   0.41396   0.43269   0.45733
 Alpha virt. eigenvalues --    0.48800   0.51074   0.53294   0.53588   0.57600
 Alpha virt. eigenvalues --    0.63496   0.65375   0.67122   0.67559   0.71491
 Alpha virt. eigenvalues --    0.75682   0.76933   0.78435   0.79739   0.80821
 Alpha virt. eigenvalues --    0.81674   0.81957   0.84574   0.85483   0.86733
 Alpha virt. eigenvalues --    0.89654   0.90621   0.92651   0.94605   0.95708
 Alpha virt. eigenvalues --    0.96185   0.99011   1.01718   1.01769   1.04909
 Alpha virt. eigenvalues --    1.08527   1.10445   1.15395   1.16783   1.22787
 Alpha virt. eigenvalues --    1.23525   1.24127   1.26652   1.35973   1.40130
 Alpha virt. eigenvalues --    1.45776   1.48157   1.49059   1.53311   1.55063
 Alpha virt. eigenvalues --    1.56688   1.60774   1.65208   1.67101   1.70529
 Alpha virt. eigenvalues --    1.72055   1.74653   1.80531   1.81816   1.84868
 Alpha virt. eigenvalues --    1.86274   1.87969   1.89252   1.93090   1.94896
 Alpha virt. eigenvalues --    1.95820   1.99298   2.00851   2.03141   2.05167
 Alpha virt. eigenvalues --    2.07357   2.10258   2.11588   2.14109   2.14936
 Alpha virt. eigenvalues --    2.17010   2.20881   2.24560   2.26437   2.27846
 Alpha virt. eigenvalues --    2.33619   2.35271   2.36011   2.38163   2.42080
 Alpha virt. eigenvalues --    2.45818   2.47166   2.51518   2.52729   2.53654
 Alpha virt. eigenvalues --    2.57688   2.59363   2.62217   2.63291   2.66228
 Alpha virt. eigenvalues --    2.67497   2.70411   2.72365   2.73021   2.75638
 Alpha virt. eigenvalues --    2.78535   2.80979   2.87220   2.89601   2.89900
 Alpha virt. eigenvalues --    2.93414   2.97267   3.00407   3.05261   3.11892
 Alpha virt. eigenvalues --    3.19239   3.24515   3.29136   3.33788   3.35336
 Alpha virt. eigenvalues --    3.43016   3.43306   3.46652   3.50604   3.56713
 Alpha virt. eigenvalues --    3.57303   3.59443   3.62549   3.66920   3.69159
 Alpha virt. eigenvalues --    3.72448   3.82093   3.84404   3.87263   3.92740
 Alpha virt. eigenvalues --    3.99275   4.00894   4.02674   4.07295   4.08012
 Alpha virt. eigenvalues --    4.15243   4.20355   4.23621   4.26009   4.28794
 Alpha virt. eigenvalues --    4.33570   4.38951   4.55284   4.59382   4.63442
 Alpha virt. eigenvalues --    4.66146   4.81900   4.89299   4.95550   5.00041
 Alpha virt. eigenvalues --    5.04663   5.07832   5.13108   5.14271   5.16646
 Alpha virt. eigenvalues --    5.23445   5.27654   5.32406   5.38358   5.41540
 Alpha virt. eigenvalues --    5.50392   5.52135   5.56491   5.57539   5.63533
 Alpha virt. eigenvalues --    5.67236   5.70603   5.72639   5.73464   5.78219
 Alpha virt. eigenvalues --    5.81528   5.85174   5.91437   5.92990   5.93610
 Alpha virt. eigenvalues --    5.98925   6.03424   6.04233   6.05025   6.09369
 Alpha virt. eigenvalues --    6.11954   6.15224   6.15517   6.20277   6.20913
 Alpha virt. eigenvalues --    6.25561   6.27841   6.29150   6.32419   6.34718
 Alpha virt. eigenvalues --    6.37090   6.42804   6.47702   6.48579   6.55357
 Alpha virt. eigenvalues --    6.57522   6.59626   6.63739   6.66931   6.68536
 Alpha virt. eigenvalues --    6.72874   6.77580   6.81889   6.89186   6.90735
 Alpha virt. eigenvalues --    6.91938   6.95823   6.97160   7.07335   7.12876
 Alpha virt. eigenvalues --    7.14135   7.15025   7.21968   7.27952   7.35714
 Alpha virt. eigenvalues --    7.37290   7.44296   7.47141   7.52604   7.54125
 Alpha virt. eigenvalues --    7.57955   7.61265   7.64630   7.68613   7.69500
 Alpha virt. eigenvalues --    7.72586   7.75126   7.76587   7.81202   7.85344
 Alpha virt. eigenvalues --    7.89338   7.92642   8.01092   8.02196   8.03607
 Alpha virt. eigenvalues --    8.09922   8.12854   8.19466   8.20584   8.25308
 Alpha virt. eigenvalues --    8.28682   8.31693   8.35857   8.38679   8.43228
 Alpha virt. eigenvalues --    8.48520   8.52524   8.56909   8.61547   8.64366
 Alpha virt. eigenvalues --    8.67681   8.69739   8.76930   8.78988   8.84076
 Alpha virt. eigenvalues --    8.92108   8.98557   9.07417   9.08421   9.10066
 Alpha virt. eigenvalues --    9.14887   9.26049   9.27247   9.36738   9.41133
 Alpha virt. eigenvalues --    9.41818   9.55845   9.61011   9.77993   9.92968
 Alpha virt. eigenvalues --    9.99075  10.03811  10.04111  10.11885  10.19339
 Alpha virt. eigenvalues --   10.21181  10.27462  10.32236  10.38010  10.44181
 Alpha virt. eigenvalues --   10.50297  10.61676  10.73828  10.84599  11.04452
 Alpha virt. eigenvalues --   11.24021  11.25739  11.32034  11.34458  11.46187
 Alpha virt. eigenvalues --   11.64402  11.72636  11.76754  12.06176  12.09137
 Alpha virt. eigenvalues --   12.25171  12.37050  12.45093  12.58063  12.95790
 Alpha virt. eigenvalues --   13.26725  13.28416  13.69355  14.37979  14.55222
 Alpha virt. eigenvalues --   28.74070  29.00913  29.63054  48.62994 148.34962
 Alpha virt. eigenvalues --  148.59708 149.27151 254.38458
          Condensed to atoms (all electrons):
               1          2          3          4          5          6
     1  C    4.523730   0.620531   0.343730  -0.056858  -0.035159  -0.005387
     2  O    0.620531   7.901879  -0.077810   0.004108   0.004708   0.000353
     3  C    0.343730  -0.077810   5.167274   0.490741   0.375049  -0.051703
     4  C   -0.056858   0.004108   0.490741   4.831761  -0.034495   0.432426
     5  H   -0.035159   0.004708   0.375049  -0.034495   0.580751   0.005428
     6  H   -0.005387   0.000353  -0.051703   0.432426   0.005428   0.566680
     7  H    0.004029  -0.000633  -0.043628   0.428185  -0.006306  -0.042161
     8  H    0.456293  -0.083892  -0.183999   0.022944   0.010356   0.008025
               7          8
     1  C    0.004029   0.456293
     2  O   -0.000633  -0.083892
     3  C   -0.043628  -0.183999
     4  C    0.428185   0.022944
     5  H   -0.006306   0.010356
     6  H   -0.042161   0.008025
     7  H    0.560564  -0.001196
     8  H   -0.001196   0.700007
 Mulliken charges:
               1
     1  C    0.149090
     2  O   -0.369243
     3  C   -0.019653
     4  C   -0.118813
     5  H    0.099669
     6  H    0.086339
     7  H    0.101148
     8  H    0.071463
 Sum of Mulliken charges =   0.00000
 Mulliken charges with hydrogens summed into heavy atoms:
               1
     1  C    0.220553
     2  O   -0.369243
     3  C    0.080016
     4  C    0.068674
 Electronic spatial extent (au):  <R**2>=            293.6903
 Charge=              0.0000 electrons
 Dipole moment (field-independent basis, Debye):
    X=              3.7773    Y=             -0.5985    Z=              0.4510  Tot=              3.8509
 Quadrupole moment (field-independent basis, Debye-Ang):
   XX=            -28.1673   YY=            -21.7000   ZZ=            -24.8802
   XY=              0.5158   XZ=              0.1766   YZ=              0.2713
 Traceless Quadrupole moment (field-independent basis, Debye-Ang):
   XX=             -3.2515   YY=              3.2158   ZZ=              0.0356
   XY=              0.5158   XZ=              0.1766   YZ=              0.2713
 Octapole moment (field-independent basis, Debye-Ang**2):
  XXX=             15.0206  YYY=             -0.0595  ZZZ=              0.5678  XYY=              0.2779
  XXY=             -0.6214  XXZ=              1.4633  XZZ=             -3.6440  YZZ=             -0.3324
  YYZ=              0.9246  XYZ=              0.2641
 Hexadecapole moment (field-independent basis, Debye-Ang**3):
 XXXX=           -302.7336 YYYY=            -52.6576 ZZZZ=            -27.6054 XXXY=              2.1192
 XXXZ=              3.0992 YYYX=             -0.6249 YYYZ=              0.5381 ZZZX=              0.8498
 ZZZY=              0.1993 XXYY=            -57.4400 XXZZ=            -55.6855 YYZZ=            -14.7344
 XXYZ=              0.9121 YYXZ=              0.3842 ZZXY=             -0.1705
 N-N= 1.041240053669D+02 E-N=-6.564578381318D+02  KE= 1.912537817387D+02
 Leave Link  601 at Wed Aug 26 14:35:05 2020, MaxMem=  2097152000 cpu:         0.7
 (Enter /opt/cluster/programs/g09/g09_d.01/g09/l9999.exe)
 1\1\GINC-NODE13\SP\RB2PLYPD3-FC\def2QZVP\C3H4O1\BOITTIER\26-Aug-2020\0
 \\#p B2PLYPD3/Def2QZVP\\acrolein\\0,1\C,0,-4.987604,-1.446238,0.926487
 \O,0,-3.956837,-0.824916,0.620831\C,0,-5.185045,-2.85372,1.167272\C,0,
 -6.423402,-3.282524,1.346173\H,0,-4.27339,-3.429737,1.301082\H,0,-7.20
 7406,-2.59486,1.368207\H,0,-6.518023,-4.21045,1.723785\H,0,-5.818344,-
 0.903714,1.224044\\Version=ES64L-G09RevD.01\State=1-A\HF=-191.596961\M
 P2=-191.8450024\RMSD=4.977e-09\PG=C01 [X(C3H4O1)]\\@


 THESE ARE THE TIMES THAT TRY MENS SOULS.
 THE SUMMER SOLDIER AND THE SUNSHINE PATRIOT WILL IN THIS CRISIS,
 SHRINK FROM THE SERVICE OF HIS COUNTRY.  BUT HE THAT STANDS NOW,
 DESERVES THE LOVE AND THANKS OF MAN AND WOMAN.
 TYRANNY, LIKE HELL, IS NOT EASILY CONQUERED,
 YET WE HAVE THIS CONSOLATION WITH US,
 THAT THE HARDER THE CONFLICT, THE MORE GLORIOUS THE TRIUMPH.
 WHAT WE OBTAIN TOO CHEAP, WE ESTEEM TOO LIGHTLY, 
 'TIS DEARNESS ONLY THAT GIVES EVERYTHING ITS VALUE.

                                              -- TOM PAINE
 Job cpu time:       0 days  0 hours 14 minutes 36.4 seconds.
 File lengths (MBytes):  RWF=     49 Int=      0 D2E=      0 Chk=      7 Scr=      1
 Normal termination of Gaussian 09 at Wed Aug 26 14:35:05 2020.
