 Entering Gaussian System, Link 0=/opt/cluster/programs/g09/g09_d.01/g09//g09
 Input=/home/boittier/MDCM/nms_sampling/acrolein_geom.xyz.dir/energies/acrolein_2058_energy.com
 Output=/scratch/boittier/acrolein_2058_energy/acrolein_2058_energy.out
 Initial command:
 /opt/cluster/programs/g09/g09_d.01/g09/l1.exe "/scratch/boittier/acrolein_2058_energy/Gau-227290.inp" -scrdir="/scratch/boittier/acrolein_2058_energy/"
 Entering Link 1 = /opt/cluster/programs/g09/g09_d.01/g09/l1.exe PID=    227291.
  
 Copyright (c) 1988,1990,1992,1993,1995,1998,2003,2009,2013,
            Gaussian, Inc.  All Rights Reserved.
  
 This is part of the Gaussian(R) 09 program.  It is based on
 the Gaussian(R) 03 system (copyright 2003, Gaussian, Inc.),
 the Gaussian(R) 98 system (copyright 1998, Gaussian, Inc.),
 the Gaussian(R) 94 system (copyright 1995, Gaussian, Inc.),
 the Gaussian 92(TM) system (copyright 1992, Gaussian, Inc.),
 the Gaussian 90(TM) system (copyright 1990, Gaussian, Inc.),
 the Gaussian 88(TM) system (copyright 1988, Gaussian, Inc.),
 the Gaussian 86(TM) system (copyright 1986, Carnegie Mellon
 University), and the Gaussian 82(TM) system (copyright 1983,
 Carnegie Mellon University). Gaussian is a federally registered
 trademark of Gaussian, Inc.
  
 This software contains proprietary and confidential information,
 including trade secrets, belonging to Gaussian, Inc.
  
 This software is provided under written license and may be
 used, copied, transmitted, or stored only in accord with that
 written license.
  
 The following legend is applicable only to US Government
 contracts under FAR:
  
                    RESTRICTED RIGHTS LEGEND
  
 Use, reproduction and disclosure by the US Government is
 subject to restrictions as set forth in subparagraphs (a)
 and (c) of the Commercial Computer Software - Restricted
 Rights clause in FAR 52.227-19.
  
 Gaussian, Inc.
 340 Quinnipiac St., Bldg. 40, Wallingford CT 06492
  
  
 ---------------------------------------------------------------
 Warning -- This program may not be used in any manner that
 competes with the business of Gaussian, Inc. or will provide
 assistance to any competitor of Gaussian, Inc.  The licensee
 of this program is prohibited from giving any competitor of
 Gaussian, Inc. access to this program.  By using this program,
 the user acknowledges that Gaussian, Inc. is engaged in the
 business of creating and licensing software in the field of
 computational chemistry and represents and warrants to the
 licensee that it is not a competitor of Gaussian, Inc. and that
 it will not use this program in any manner prohibited above.
 ---------------------------------------------------------------
  

 Cite this work as:
 Gaussian 09, Revision D.01,
 M. J. Frisch, G. W. Trucks, H. B. Schlegel, G. E. Scuseria, 
 M. A. Robb, J. R. Cheeseman, G. Scalmani, V. Barone, B. Mennucci, 
 G. A. Petersson, H. Nakatsuji, M. Caricato, X. Li, H. P. Hratchian, 
 A. F. Izmaylov, J. Bloino, G. Zheng, J. L. Sonnenberg, M. Hada, 
 M. Ehara, K. Toyota, R. Fukuda, J. Hasegawa, M. Ishida, T. Nakajima, 
 Y. Honda, O. Kitao, H. Nakai, T. Vreven, J. A. Montgomery, Jr., 
 J. E. Peralta, F. Ogliaro, M. Bearpark, J. J. Heyd, E. Brothers, 
 K. N. Kudin, V. N. Staroverov, T. Keith, R. Kobayashi, J. Normand, 
 K. Raghavachari, A. Rendell, J. C. Burant, S. S. Iyengar, J. Tomasi, 
 M. Cossi, N. Rega, J. M. Millam, M. Klene, J. E. Knox, J. B. Cross, 
 V. Bakken, C. Adamo, J. Jaramillo, R. Gomperts, R. E. Stratmann, 
 O. Yazyev, A. J. Austin, R. Cammi, C. Pomelli, J. W. Ochterski, 
 R. L. Martin, K. Morokuma, V. G. Zakrzewski, G. A. Voth, 
 P. Salvador, J. J. Dannenberg, S. Dapprich, A. D. Daniels, 
 O. Farkas, J. B. Foresman, J. V. Ortiz, J. Cioslowski, 
 and D. J. Fox, Gaussian, Inc., Wallingford CT, 2013.
 
 ******************************************
 Gaussian 09:  ES64L-G09RevD.01 24-Apr-2013
                26-Aug-2020 
 ******************************************
 %chk=/home/boittier/MDCM/nms_sampling/acrolein_geom.xyz.dir/acrolein_2058.chk
 %nproc=8
 Will use up to    8 processors via shared memory.
 %mem=16000MB
 --------------------
 #p B2PLYPD3/Def2QZVP
 --------------------
 1/38=1/1;
 2/12=2,17=6,18=5,40=1/2;
 3/5=45,7=101,11=9,16=1,25=1,30=1,74=-60/1,2,3;
 4//1;
 5/5=2,38=5/2;
 8/10=1/1;
 9/16=-3/6;
 6/7=2,8=2,9=2,10=2/1;
 99/5=1,9=1/99;
 Leave Link    1 at Wed Aug 26 11:44:37 2020, MaxMem=  2097152000 cpu:         0.2
 (Enter /opt/cluster/programs/g09/g09_d.01/g09/l101.exe)
 --------
 acrolein
 --------
 Symbolic Z-matrix:
 Charge =  0 Multiplicity = 1
 C                    -4.9781   -1.43904   0.83967 
 O                    -3.95416  -0.83128   0.70083 
 C                    -5.20547  -2.87086   1.09643 
 C                    -6.41718  -3.26297   1.41188 
 H                    -4.25523  -3.45511   1.15477 
 H                    -7.21464  -2.59771   1.54806 
 H                    -6.54195  -4.2835    1.80941 
 H                    -5.79876  -0.80795   0.94458 
 
 NAtoms=      8 NQM=        8 NQMF=       0 NMMI=      0 NMMIF=      0
                NMic=       0 NMicF=      0.
                    Isotopes and Nuclear Properties:
 (Nuclear quadrupole moments (NQMom) in fm**2, nuclear magnetic moments (NMagM)
  in nuclear magnetons)

  Atom         1           2           3           4           5           6           7           8
 IAtWgt=          12          16          12          12           1           1           1           1
 AtmWgt=  12.0000000  15.9949146  12.0000000  12.0000000   1.0078250   1.0078250   1.0078250   1.0078250
 NucSpn=           0           0           0           0           1           1           1           1
 AtZEff=   0.0000000   0.0000000   0.0000000   0.0000000   0.0000000   0.0000000   0.0000000   0.0000000
 NQMom=    0.0000000   0.0000000   0.0000000   0.0000000   0.0000000   0.0000000   0.0000000   0.0000000
 NMagM=    0.0000000   0.0000000   0.0000000   0.0000000   2.7928460   2.7928460   2.7928460   2.7928460
 AtZNuc=   6.0000000   8.0000000   6.0000000   6.0000000   1.0000000   1.0000000   1.0000000   1.0000000
 Leave Link  101 at Wed Aug 26 11:44:37 2020, MaxMem=  2097152000 cpu:         0.5
 (Enter /opt/cluster/programs/g09/g09_d.01/g09/l202.exe)
                          Input orientation:                          
 ---------------------------------------------------------------------
 Center     Atomic      Atomic             Coordinates (Angstroms)
 Number     Number       Type             X           Y           Z
 ---------------------------------------------------------------------
      1          6           0       -4.978097   -1.439041    0.839672
      2          8           0       -3.954156   -0.831279    0.700834
      3          6           0       -5.205473   -2.870859    1.096429
      4          6           0       -6.417177   -3.262973    1.411875
      5          1           0       -4.255228   -3.455109    1.154770
      6          1           0       -7.214641   -2.597709    1.548057
      7          1           0       -6.541945   -4.283503    1.809406
      8          1           0       -5.798761   -0.807945    0.944577
 ---------------------------------------------------------------------
                    Distance matrix (angstroms):
                    1          2          3          4          5
     1  C    0.000000
     2  O    1.198793   0.000000
     3  C    1.472320   2.425320   0.000000
     4  C    2.392717   3.533438   1.312054   0.000000
     5  H    2.164799   2.679774   1.117013   2.185645   0.000000
     6  H    2.616572   3.803791   2.077338   1.047411   3.106112
     7  H    3.387768   4.454597   2.071245   1.102306   2.518702
     8  H    1.040566   1.860786   2.151898   2.574484   3.071507
                    6          7          8
     6  H    0.000000
     7  H    1.833773   0.000000
     8  H    2.360542   3.657835   0.000000
 Stoichiometry    C3H4O
 Framework group  C1[X(C3H4O)]
 Deg. of freedom    18
 Full point group                 C1      NOp   1
 Largest Abelian subgroup         C1      NOp   1
 Largest concise Abelian subgroup C1      NOp   1
                         Standard orientation:                         
 ---------------------------------------------------------------------
 Center     Atomic      Atomic             Coordinates (Angstroms)
 Number     Number       Type             X           Y           Z
 ---------------------------------------------------------------------
      1          6           0       -0.658139   -0.292529   -0.063798
      2          8           0       -1.791071    0.081855    0.051994
      3          6           0        0.599765    0.472588   -0.063794
      4          6           0        1.731568   -0.188433   -0.004123
      5          1           0        0.436623    1.571339    0.053886
      6          1           0        1.779279   -1.229140    0.104142
      7          1           0        2.650632    0.380835    0.211134
      8          1           0       -0.577130   -1.327641    0.005175
 ---------------------------------------------------------------------
 Rotational constants (GHZ):     48.7884773      4.7020654      4.3027245
 Leave Link  202 at Wed Aug 26 11:44:37 2020, MaxMem=  2097152000 cpu:         0.0
 (Enter /opt/cluster/programs/g09/g09_d.01/g09/l301.exe)
 Standard basis: def2QZVP (5D, 7F)
 Ernie: Thresh=  0.10000D-02 Tol=  0.10000D-05 Strict=F.
 There are   428 symmetry adapted cartesian basis functions of A   symmetry.
 There are   348 symmetry adapted basis functions of A   symmetry.
   348 basis functions,   520 primitive gaussians,   428 cartesian basis functions
    15 alpha electrons       15 beta electrons
       nuclear repulsion energy       104.0443031052 Hartrees.
 IExCor=  419 DFT=T Ex+Corr=B2PLYPD3 ExCW=0 ScaHFX=  0.530000
 ScaDFX=  0.470000  0.470000  0.730000  0.730000 ScalE2=  0.270000  0.270000
 IRadAn=      0 IRanWt=     -1 IRanGd=            0 ICorTp=0 IEmpDi=141
 NAtoms=    8 NActive=    8 NUniq=    8 SFac= 1.00D+00 NAtFMM=   60 NAOKFM=F Big=F
 Integral buffers will be    131072 words long.
 Regular integral format.
 Two-electron integral symmetry is turned on.
 R6Disp:  Grimme-D3(BJ) Dispersion energy=       -0.0035991415 Hartrees.
 Nuclear repulsion after empirical dispersion term =      104.0407039637 Hartrees.
 Leave Link  301 at Wed Aug 26 11:44:37 2020, MaxMem=  2097152000 cpu:         0.4
 (Enter /opt/cluster/programs/g09/g09_d.01/g09/l302.exe)
 NPDir=0 NMtPBC=     1 NCelOv=     1 NCel=       1 NClECP=     1 NCelD=      1
         NCelK=      1 NCelE2=     1 NClLst=     1 CellRange=     0.0.
 One-electron integrals computed using PRISM.
   1 Symmetry operations used in ECPInt.
 ECPInt:  NShTT=    5886 NPrTT=   14376 LenC2=    5781 LenP2D=   12199.
 LDataN:  DoStor=T MaxTD1= 8 Len=  415
 NBasis=   348 RedAO= T EigKep=  5.57D-05  NBF=   348
 NBsUse=   348 1.00D-06 EigRej= -1.00D+00 NBFU=   348
 Precomputing XC quadrature grid using
 IXCGrd= 4 IRadAn=           0 IRanWt=          -1 IRanGd=           0 AccXCQ= 0.00D+00.
 Generated NRdTot=       0 NPtTot=           0 NUsed=           0 NTot=          32
 NSgBfM=   428   428   428   428   428 MxSgAt=     8 MxSgA2=     8.
 Leave Link  302 at Wed Aug 26 11:44:38 2020, MaxMem=  2097152000 cpu:         2.5
 (Enter /opt/cluster/programs/g09/g09_d.01/g09/l303.exe)
 DipDrv:  MaxL=1.
 Leave Link  303 at Wed Aug 26 11:44:38 2020, MaxMem=  2097152000 cpu:         0.3
 (Enter /opt/cluster/programs/g09/g09_d.01/g09/l401.exe)
 ExpMin= 7.60D-02 ExpMax= 1.17D+05 ExpMxC= 1.13D+03 IAcc=2 IRadAn=         4 AccDes= 0.00D+00
 Harris functional with IExCor=  419 and IRadAn=       4 diagonalized for initial guess.
 HarFok:  IExCor=  419 AccDes= 0.00D+00 IRadAn=         4 IDoV= 1 UseB2=F ITyADJ=14
 ICtDFT=  3500011 ScaDFX=  1.000000  1.000000  1.000000  1.000000
 FoFCou: FMM=F IPFlag=           0 FMFlag=      100000 FMFlg1=           0
         NFxFlg=           0 DoJE=T BraDBF=F KetDBF=T FulRan=T
         wScrn=  0.000000 ICntrl=     500 IOpCl=  0 I1Cent=   200000004 NGrid=           0
         NMat0=    1 NMatS0=      1 NMatT0=    0 NMatD0=    1 NMtDS0=    0 NMtDT0=    0
 Petite list used in FoFCou.
 Harris En= -192.039349944083    
 JPrj=0 DoOrth=F DoCkMO=F.
 Leave Link  401 at Wed Aug 26 11:44:38 2020, MaxMem=  2097152000 cpu:         6.0
 (Enter /opt/cluster/programs/g09/g09_d.01/g09/l502.exe)
 Closed shell SCF:
 Using DIIS extrapolation, IDIIS=  1040.
 Integral symmetry usage will be decided dynamically.
 Keep R1 ints in memory in canonical form, NReq=1883905047.
 IVT=      574566 IEndB=      574566 NGot=  2097152000 MDV=   252723534
 LenX=   252723534 LenY=   252539909
 Requested convergence on RMS density matrix=1.00D-08 within 128 cycles.
 Requested convergence on MAX density matrix=1.00D-06.
 Requested convergence on             energy=1.00D-06.
 No special actions if energy rises.
 FoFCou: FMM=F IPFlag=           0 FMFlag=           0 FMFlg1=           0
         NFxFlg=           0 DoJE=F BraDBF=F KetDBF=F FulRan=T
         wScrn=  0.000000 ICntrl=     600 IOpCl=  0 I1Cent=           0 NGrid=           0
         NMat0=    1 NMatS0=  60726 NMatT0=    0 NMatD0=    1 NMtDS0=    0 NMtDT0=    0
 Symmetry not used in FoFCou.
 Integral accuracy reduced to 1.0D-05 until final iterations.

 Cycle   1  Pass 0  IDiag  1:
 E= -191.458623715200    
 DIIS: error= 2.51D-02 at cycle   1 NSaved=   1.
 NSaved= 1 IEnMin= 1 EnMin= -191.458623715200     IErMin= 1 ErrMin= 2.51D-02
 ErrMax= 2.51D-02  0.00D+00 EMaxC= 1.00D-01 BMatC= 2.60D-01 BMatP= 2.60D-01
 IDIUse=3 WtCom= 7.49D-01 WtEn= 2.51D-01
 Coeff-Com:  0.100D+01
 Coeff-En:   0.100D+01
 Coeff:      0.100D+01
 Gap=     0.289 Goal=   None    Shift=    0.000
 GapD=    0.289 DampG=1.000 DampE=0.500 DampFc=0.5000 IDamp=-1.
 Damping current iteration by 5.00D-01
 RMSDP=1.85D-03 MaxDP=2.28D-01              OVMax= 1.67D-01

 Cycle   2  Pass 0  IDiag  1:
 E= -191.530852072537     Delta-E=       -0.072228357337 Rises=F Damp=T
 DIIS: error= 8.07D-03 at cycle   2 NSaved=   2.
 NSaved= 2 IEnMin= 2 EnMin= -191.530852072537     IErMin= 2 ErrMin= 8.07D-03
 ErrMax= 8.07D-03  0.00D+00 EMaxC= 1.00D-01 BMatC= 3.36D-02 BMatP= 2.60D-01
 IDIUse=3 WtCom= 9.19D-01 WtEn= 8.07D-02
 Coeff-Com: -0.179D+00 0.118D+01
 Coeff-En:   0.000D+00 0.100D+01
 Coeff:     -0.164D+00 0.116D+01
 Gap=     0.350 Goal=   None    Shift=    0.000
 RMSDP=6.00D-04 MaxDP=7.42D-02 DE=-7.22D-02 OVMax= 1.22D-01

 Cycle   3  Pass 0  IDiag  1:
 E= -191.593544517371     Delta-E=       -0.062692444834 Rises=F Damp=F
 DIIS: error= 9.86D-03 at cycle   3 NSaved=   3.
 NSaved= 3 IEnMin= 3 EnMin= -191.593544517371     IErMin= 2 ErrMin= 8.07D-03
 ErrMax= 9.86D-03  0.00D+00 EMaxC= 1.00D-01 BMatC= 1.52D-02 BMatP= 3.36D-02
 IDIUse=3 WtCom= 9.01D-01 WtEn= 9.86D-02
 Coeff-Com: -0.191D+00 0.518D+00 0.673D+00
 Coeff-En:   0.000D+00 0.000D+00 0.100D+01
 Coeff:     -0.172D+00 0.467D+00 0.705D+00
 Gap=     0.312 Goal=   None    Shift=    0.000
 RMSDP=2.33D-04 MaxDP=1.82D-02 DE=-6.27D-02 OVMax= 4.51D-02

 Cycle   4  Pass 0  IDiag  1:
 E= -191.601559346662     Delta-E=       -0.008014829291 Rises=F Damp=F
 DIIS: error= 4.46D-03 at cycle   4 NSaved=   4.
 NSaved= 4 IEnMin= 4 EnMin= -191.601559346662     IErMin= 4 ErrMin= 4.46D-03
 ErrMax= 4.46D-03  0.00D+00 EMaxC= 1.00D-01 BMatC= 2.97D-03 BMatP= 1.52D-02
 IDIUse=3 WtCom= 9.55D-01 WtEn= 4.46D-02
 Coeff-Com: -0.605D-01 0.101D+00 0.371D+00 0.589D+00
 Coeff-En:   0.000D+00 0.000D+00 0.179D+00 0.821D+00
 Coeff:     -0.578D-01 0.964D-01 0.362D+00 0.599D+00
 Gap=     0.318 Goal=   None    Shift=    0.000
 RMSDP=9.82D-05 MaxDP=8.26D-03 DE=-8.01D-03 OVMax= 1.35D-02

 Cycle   5  Pass 0  IDiag  1:
 E= -191.603930008394     Delta-E=       -0.002370661732 Rises=F Damp=F
 DIIS: error= 2.86D-04 at cycle   5 NSaved=   5.
 NSaved= 5 IEnMin= 5 EnMin= -191.603930008394     IErMin= 5 ErrMin= 2.86D-04
 ErrMax= 2.86D-04  0.00D+00 EMaxC= 1.00D-01 BMatC= 1.20D-05 BMatP= 2.97D-03
 IDIUse=3 WtCom= 9.97D-01 WtEn= 2.86D-03
 Coeff-Com: -0.878D-02 0.117D-01 0.605D-01 0.133D+00 0.804D+00
 Coeff-En:   0.000D+00 0.000D+00 0.000D+00 0.000D+00 0.100D+01
 Coeff:     -0.875D-02 0.116D-01 0.604D-01 0.133D+00 0.804D+00
 Gap=     0.317 Goal=   None    Shift=    0.000
 RMSDP=7.93D-06 MaxDP=4.92D-04 DE=-2.37D-03 OVMax= 2.17D-03

 Initial convergence to 1.0D-05 achieved.  Increase integral accuracy.
 Cycle   6  Pass 1  IDiag  1:
 E= -191.603942259153     Delta-E=       -0.000012250759 Rises=F Damp=F
 DIIS: error= 7.65D-05 at cycle   1 NSaved=   1.
 NSaved= 1 IEnMin= 1 EnMin= -191.603942259153     IErMin= 1 ErrMin= 7.65D-05
 ErrMax= 7.65D-05  0.00D+00 EMaxC= 1.00D-01 BMatC= 1.53D-06 BMatP= 1.53D-06
 IDIUse=1 WtCom= 1.00D+00 WtEn= 0.00D+00
 Coeff-Com:  0.100D+01
 Coeff:      0.100D+01
 Gap=     0.318 Goal=   None    Shift=    0.000
 RMSDP=7.93D-06 MaxDP=4.92D-04 DE=-1.23D-05 OVMax= 6.93D-04

 Cycle   7  Pass 1  IDiag  1:
 E= -191.603943219536     Delta-E=       -0.000000960383 Rises=F Damp=F
 DIIS: error= 7.23D-05 at cycle   2 NSaved=   2.
 NSaved= 2 IEnMin= 2 EnMin= -191.603943219536     IErMin= 2 ErrMin= 7.23D-05
 ErrMax= 7.23D-05  0.00D+00 EMaxC= 1.00D-01 BMatC= 9.44D-07 BMatP= 1.53D-06
 IDIUse=1 WtCom= 1.00D+00 WtEn= 0.00D+00
 Coeff-Com:  0.434D+00 0.566D+00
 Coeff:      0.434D+00 0.566D+00
 Gap=     0.317 Goal=   None    Shift=    0.000
 RMSDP=1.77D-06 MaxDP=1.23D-04 DE=-9.60D-07 OVMax= 5.03D-04

 Cycle   8  Pass 1  IDiag  1:
 E= -191.603944104286     Delta-E=       -0.000000884750 Rises=F Damp=F
 DIIS: error= 1.09D-05 at cycle   3 NSaved=   3.
 NSaved= 3 IEnMin= 3 EnMin= -191.603944104286     IErMin= 3 ErrMin= 1.09D-05
 ErrMax= 1.09D-05  0.00D+00 EMaxC= 1.00D-01 BMatC= 5.55D-08 BMatP= 9.44D-07
 IDIUse=1 WtCom= 1.00D+00 WtEn= 0.00D+00
 Coeff-Com:  0.560D-01 0.174D+00 0.770D+00
 Coeff:      0.560D-01 0.174D+00 0.770D+00
 Gap=     0.317 Goal=   None    Shift=    0.000
 RMSDP=1.37D-06 MaxDP=1.56D-04 DE=-8.85D-07 OVMax= 9.73D-05

 Cycle   9  Pass 1  IDiag  1:
 E= -191.603944158894     Delta-E=       -0.000000054607 Rises=F Damp=F
 DIIS: error= 1.36D-05 at cycle   4 NSaved=   4.
 NSaved= 4 IEnMin= 4 EnMin= -191.603944158894     IErMin= 3 ErrMin= 1.09D-05
 ErrMax= 1.36D-05  0.00D+00 EMaxC= 1.00D-01 BMatC= 1.32D-08 BMatP= 5.55D-08
 IDIUse=1 WtCom= 1.00D+00 WtEn= 0.00D+00
 Coeff-Com: -0.101D+00-0.711D-01 0.368D+00 0.804D+00
 Coeff:     -0.101D+00-0.711D-01 0.368D+00 0.804D+00
 Gap=     0.317 Goal=   None    Shift=    0.000
 RMSDP=6.21D-07 MaxDP=6.63D-05 DE=-5.46D-08 OVMax= 9.10D-05

 Cycle  10  Pass 1  IDiag  1:
 E= -191.603944177916     Delta-E=       -0.000000019023 Rises=F Damp=F
 DIIS: error= 2.27D-06 at cycle   5 NSaved=   5.
 NSaved= 5 IEnMin= 5 EnMin= -191.603944177916     IErMin= 5 ErrMin= 2.27D-06
 ErrMax= 2.27D-06  0.00D+00 EMaxC= 1.00D-01 BMatC= 1.70D-09 BMatP= 1.32D-08
 IDIUse=1 WtCom= 1.00D+00 WtEn= 0.00D+00
 Coeff-Com: -0.452D-01-0.400D-01 0.858D-01 0.371D+00 0.629D+00
 Coeff:     -0.452D-01-0.400D-01 0.858D-01 0.371D+00 0.629D+00
 Gap=     0.317 Goal=   None    Shift=    0.000
 RMSDP=1.47D-07 MaxDP=1.62D-05 DE=-1.90D-08 OVMax= 1.65D-05

 Cycle  11  Pass 1  IDiag  1:
 E= -191.603944179196     Delta-E=       -0.000000001280 Rises=F Damp=F
 DIIS: error= 1.02D-06 at cycle   6 NSaved=   6.
 NSaved= 6 IEnMin= 6 EnMin= -191.603944179196     IErMin= 6 ErrMin= 1.02D-06
 ErrMax= 1.02D-06  0.00D+00 EMaxC= 1.00D-01 BMatC= 1.63D-10 BMatP= 1.70D-09
 IDIUse=1 WtCom= 1.00D+00 WtEn= 0.00D+00
 Coeff-Com:  0.555D-02 0.107D-02-0.602D-01-0.626D-02 0.212D+00 0.848D+00
 Coeff:      0.555D-02 0.107D-02-0.602D-01-0.626D-02 0.212D+00 0.848D+00
 Gap=     0.317 Goal=   None    Shift=    0.000
 RMSDP=4.87D-08 MaxDP=5.05D-06 DE=-1.28D-09 OVMax= 5.11D-06

 Cycle  12  Pass 1  IDiag  1:
 E= -191.603944179388     Delta-E=       -0.000000000192 Rises=F Damp=F
 DIIS: error= 2.24D-07 at cycle   7 NSaved=   7.
 NSaved= 7 IEnMin= 7 EnMin= -191.603944179388     IErMin= 7 ErrMin= 2.24D-07
 ErrMax= 2.24D-07  0.00D+00 EMaxC= 1.00D-01 BMatC= 1.23D-11 BMatP= 1.63D-10
 IDIUse=1 WtCom= 1.00D+00 WtEn= 0.00D+00
 Coeff-Com:  0.497D-02 0.310D-02-0.297D-01-0.216D-01 0.285D-01 0.299D+00
 Coeff-Com:  0.715D+00
 Coeff:      0.497D-02 0.310D-02-0.297D-01-0.216D-01 0.285D-01 0.299D+00
 Coeff:      0.715D+00
 Gap=     0.317 Goal=   None    Shift=    0.000
 RMSDP=7.82D-09 MaxDP=3.44D-07 DE=-1.92D-10 OVMax= 1.48D-06

 SCF Done:  E(RB2PLYPD3) =  -191.603944179     A.U. after   12 cycles
            NFock= 12  Conv=0.78D-08     -V/T= 2.0022
 KE= 1.911796431824D+02 PE=-6.562592803569D+02 EE= 1.694349890315D+02
 Leave Link  502 at Wed Aug 26 11:45:39 2020, MaxMem=  2097152000 cpu:       261.1
 (Enter /opt/cluster/programs/g09/g09_d.01/g09/l801.exe)
 DoSCS=T DFT=T ScalE2(SS,OS)=  0.270000  0.270000
 ExpMin= 7.60D-02 ExpMax= 1.17D+05 ExpMxC= 1.13D+03 IAcc=3 IRadAn=         5 AccDes= 0.00D+00
 HarFok:  IExCor=  205 AccDes= 0.00D+00 IRadAn=         5 IDoV=-2 UseB2=F ITyADJ=14
 ICtDFT= 12500011 ScaDFX=  1.000000  1.000000  1.000000  1.000000
 DSYEVD-2 returned Info=        1739 IAlg= 4 N=    57 NDim=    57 NE2=    36785415 trying  DSYEV.
 Largest valence mixing into a core orbital is  1.12D-04
 Largest core mixing into a valence orbital is  1.85D-05
 Range of M.O.s used for correlation:     5   348
 NBasis=   348 NAE=    15 NBE=    15 NFC=     4 NFV=     0
 NROrb=    344 NOA=    11 NOB=    11 NVA=   333 NVB=   333

 **** Warning!!: The largest alpha MO coefficient is  0.22092924D+02

 Leave Link  801 at Wed Aug 26 11:45:40 2020, MaxMem=  2097152000 cpu:         0.7
 (Enter /opt/cluster/programs/g09/g09_d.01/g09/l906.exe)
 DoSCS=T DFT=T ScalE2(SS,OS)=  0.270000  0.270000
 FulOut=F Deriv=F AODrv=F NAtomX=     8
   MMem=        1190  MDisk=          11 MDiskD=          11
  W3Min=     1567764 MinDsk=     2827057 NBas6D=         428
 NBas2D=       93150    NTT=       91806    LW2=     4508827
    MDV=  2096570266 MDiskM=       10875 NBas2p=       89542
 Fully direct method using O(OVN) memory.
 IMap=   1   2   3   4   5   6   7   8   9  10  11
 JobTyp=1 Pass  1:  I=   1 to  11 NPSUse=  8 ParTrn=T ParDer=T DoDerP=F.
 Spin components of T(2) and E(2):
     alpha-alpha T2 =       0.4293726691D-01 E2=     -0.2934025267D-01
     alpha-beta  T2 =       0.2615291335D+00 E2=     -0.1873916402D+00
     beta-beta   T2 =       0.4293726691D-01 E2=     -0.2934025267D-01
 The integrals were generated   1 times.
 E2(B2PLYPD3) =    -0.2460721455D+00 E(B2PLYPD3) =    -0.19185001632492D+03
 Leave Link  906 at Wed Aug 26 11:46:30 2020, MaxMem=  2097152000 cpu:       398.6
 (Enter /opt/cluster/programs/g09/g09_d.01/g09/l601.exe)
 Copying SCF densities to generalized density rwf, IOpCl= 0 IROHF=0.

 **********************************************************************

            Population analysis using the SCF density.

 **********************************************************************

 Orbital symmetries:
       Occupied  (A) (A) (A) (A) (A) (A) (A) (A) (A) (A) (A) (A)
                 (A) (A) (A)
       Virtual   (A) (A) (A) (A) (A) (A) (A) (A) (A) (A) (A) (A)
                 (A) (A) (A) (A) (A) (A) (A) (A) (A) (A) (A) (A)
                 (A) (A) (A) (A) (A) (A) (A) (A) (A) (A) (A) (A)
                 (A) (A) (A) (A) (A) (A) (A) (A) (A) (A) (A) (A)
                 (A) (A) (A) (A) (A) (A) (A) (A) (A) (A) (A) (A)
                 (A) (A) (A) (A) (A) (A) (A) (A) (A) (A) (A) (A)
                 (A) (A) (A) (A) (A) (A) (A) (A) (A) (A) (A) (A)
                 (A) (A) (A) (A) (A) (A) (A) (A) (A) (A) (A) (A)
                 (A) (A) (A) (A) (A) (A) (A) (A) (A) (A) (A) (A)
                 (A) (A) (A) (A) (A) (A) (A) (A) (A) (A) (A) (A)
                 (A) (A) (A) (A) (A) (A) (A) (A) (A) (A) (A) (A)
                 (A) (A) (A) (A) (A) (A) (A) (A) (A) (A) (A) (A)
                 (A) (A) (A) (A) (A) (A) (A) (A) (A) (A) (A) (A)
                 (A) (A) (A) (A) (A) (A) (A) (A) (A) (A) (A) (A)
                 (A) (A) (A) (A) (A) (A) (A) (A) (A) (A) (A) (A)
                 (A) (A) (A) (A) (A) (A) (A) (A) (A) (A) (A) (A)
                 (A) (A) (A) (A) (A) (A) (A) (A) (A) (A) (A) (A)
                 (A) (A) (A) (A) (A) (A) (A) (A) (A) (A) (A) (A)
                 (A) (A) (A) (A) (A) (A) (A) (A) (A) (A) (A) (A)
                 (A) (A) (A) (A) (A) (A) (A) (A) (A) (A) (A) (A)
                 (A) (A) (A) (A) (A) (A) (A) (A) (A) (A) (A) (A)
                 (A) (A) (A) (A) (A) (A) (A) (A) (A) (A) (A) (A)
                 (A) (A) (A) (A) (A) (A) (A) (A) (A) (A) (A) (A)
                 (A) (A) (A) (A) (A) (A) (A) (A) (A) (A) (A) (A)
                 (A) (A) (A) (A) (A) (A) (A) (A) (A) (A) (A) (A)
                 (A) (A) (A) (A) (A) (A) (A) (A) (A) (A) (A) (A)
                 (A) (A) (A) (A) (A) (A) (A) (A) (A) (A) (A) (A)
                 (A) (A) (A) (A) (A) (A) (A) (A) (A)
 The electronic state is 1-A.
 Alpha  occ. eigenvalues --  -19.72379 -10.70283 -10.65202 -10.64807  -1.20011
 Alpha  occ. eigenvalues --   -0.93824  -0.75501  -0.67553  -0.57536  -0.56239
 Alpha  occ. eigenvalues --   -0.50636  -0.47107  -0.46724  -0.35345  -0.33224
 Alpha virt. eigenvalues --   -0.01485   0.05857   0.07038   0.08371   0.09745
 Alpha virt. eigenvalues --    0.12942   0.14049   0.15230   0.17445   0.19576
 Alpha virt. eigenvalues --    0.20064   0.21846   0.24735   0.26889   0.28221
 Alpha virt. eigenvalues --    0.30383   0.33392   0.34480   0.37744   0.38150
 Alpha virt. eigenvalues --    0.39602   0.40578   0.42315   0.43206   0.47657
 Alpha virt. eigenvalues --    0.48966   0.50383   0.53309   0.53893   0.57507
 Alpha virt. eigenvalues --    0.61344   0.64516   0.66074   0.70392   0.71623
 Alpha virt. eigenvalues --    0.74869   0.76855   0.78607   0.80241   0.80673
 Alpha virt. eigenvalues --    0.81955   0.82410   0.83522   0.84984   0.86134
 Alpha virt. eigenvalues --    0.88460   0.90703   0.92551   0.92735   0.94934
 Alpha virt. eigenvalues --    0.97138   0.98319   1.00440   1.02711   1.05596
 Alpha virt. eigenvalues --    1.08389   1.13309   1.15570   1.17019   1.21040
 Alpha virt. eigenvalues --    1.22153   1.24915   1.26489   1.34630   1.39561
 Alpha virt. eigenvalues --    1.43797   1.48026   1.48754   1.54153   1.55795
 Alpha virt. eigenvalues --    1.57249   1.63305   1.65537   1.66675   1.71358
 Alpha virt. eigenvalues --    1.71715   1.75624   1.78372   1.80122   1.84871
 Alpha virt. eigenvalues --    1.87372   1.89114   1.91289   1.93597   1.95165
 Alpha virt. eigenvalues --    1.97288   1.98977   2.01612   2.02493   2.05059
 Alpha virt. eigenvalues --    2.06754   2.09099   2.11660   2.13382   2.14414
 Alpha virt. eigenvalues --    2.16656   2.20675   2.22194   2.23925   2.26024
 Alpha virt. eigenvalues --    2.30251   2.35070   2.37235   2.41321   2.42131
 Alpha virt. eigenvalues --    2.46298   2.47477   2.49657   2.52057   2.53921
 Alpha virt. eigenvalues --    2.56474   2.58047   2.60258   2.62550   2.64565
 Alpha virt. eigenvalues --    2.65193   2.68522   2.69751   2.71145   2.72221
 Alpha virt. eigenvalues --    2.76470   2.78605   2.83801   2.87686   2.88858
 Alpha virt. eigenvalues --    2.91804   2.95263   2.99991   3.04118   3.07485
 Alpha virt. eigenvalues --    3.16038   3.19045   3.27331   3.30856   3.33270
 Alpha virt. eigenvalues --    3.38745   3.41924   3.45771   3.47688   3.49307
 Alpha virt. eigenvalues --    3.54401   3.55911   3.57429   3.62733   3.66691
 Alpha virt. eigenvalues --    3.69855   3.78041   3.83206   3.84449   3.94341
 Alpha virt. eigenvalues --    3.95969   4.01729   4.03717   4.05580   4.06198
 Alpha virt. eigenvalues --    4.15003   4.18432   4.20997   4.23443   4.32137
 Alpha virt. eigenvalues --    4.38042   4.43664   4.53072   4.60588   4.64278
 Alpha virt. eigenvalues --    4.66116   4.81049   4.85199   4.92553   5.00288
 Alpha virt. eigenvalues --    5.05510   5.07961   5.08655   5.14836   5.17585
 Alpha virt. eigenvalues --    5.23861   5.27457   5.33811   5.35097   5.43949
 Alpha virt. eigenvalues --    5.45438   5.52992   5.58036   5.58571   5.62813
 Alpha virt. eigenvalues --    5.65541   5.69519   5.72275   5.74149   5.76683
 Alpha virt. eigenvalues --    5.80117   5.81779   5.85874   5.92599   5.94036
 Alpha virt. eigenvalues --    5.98209   5.99803   6.02657   6.04575   6.10448
 Alpha virt. eigenvalues --    6.12372   6.14931   6.15948   6.17572   6.20156
 Alpha virt. eigenvalues --    6.22194   6.23404   6.26530   6.32067   6.33208
 Alpha virt. eigenvalues --    6.33988   6.35384   6.37842   6.45701   6.51303
 Alpha virt. eigenvalues --    6.53899   6.55269   6.58944   6.61016   6.64177
 Alpha virt. eigenvalues --    6.67259   6.76259   6.77674   6.82210   6.84672
 Alpha virt. eigenvalues --    6.88088   6.91048   6.95423   7.03132   7.07120
 Alpha virt. eigenvalues --    7.11584   7.13936   7.18956   7.21197   7.25594
 Alpha virt. eigenvalues --    7.32786   7.41552   7.43361   7.46267   7.49133
 Alpha virt. eigenvalues --    7.59166   7.60838   7.64843   7.65681   7.67517
 Alpha virt. eigenvalues --    7.71027   7.75196   7.78123   7.79171   7.82559
 Alpha virt. eigenvalues --    7.87343   7.89476   7.96364   8.00822   8.06592
 Alpha virt. eigenvalues --    8.07251   8.09687   8.12514   8.17547   8.21615
 Alpha virt. eigenvalues --    8.24781   8.28780   8.31536   8.34592   8.37887
 Alpha virt. eigenvalues --    8.40451   8.44088   8.48876   8.53233   8.53335
 Alpha virt. eigenvalues --    8.58354   8.61200   8.64216   8.66806   8.72679
 Alpha virt. eigenvalues --    8.88106   8.93537   8.96595   9.03457   9.08615
 Alpha virt. eigenvalues --    9.10877   9.13902   9.22811   9.28287   9.32961
 Alpha virt. eigenvalues --    9.40305   9.49033   9.57481   9.74472   9.79334
 Alpha virt. eigenvalues --    9.84046   9.87660  10.00195  10.02144  10.04920
 Alpha virt. eigenvalues --   10.15312  10.18092  10.23415  10.32348  10.39695
 Alpha virt. eigenvalues --   10.42472  10.47352  10.58394  10.78560  10.97157
 Alpha virt. eigenvalues --   11.12856  11.26283  11.27626  11.38823  11.45084
 Alpha virt. eigenvalues --   11.67776  11.78358  11.79586  12.06283  12.14826
 Alpha virt. eigenvalues --   12.30467  12.39517  12.51761  12.57885  12.87931
 Alpha virt. eigenvalues --   13.12084  13.44825  13.82955  14.37611  14.86314
 Alpha virt. eigenvalues --   28.64647  28.99526  29.57378  48.70754 148.22949
 Alpha virt. eigenvalues --  148.57876 149.18918 254.47376
          Condensed to atoms (all electrons):
               1          2          3          4          5          6
     1  C    4.485419   0.636536   0.356014  -0.059510  -0.030277  -0.004827
     2  O    0.636536   7.887732  -0.078560   0.003653   0.009245   0.000401
     3  C    0.356014  -0.078560   5.179041   0.493242   0.357417  -0.051976
     4  C   -0.059510   0.003653   0.493242   4.846855  -0.032040   0.428751
     5  H   -0.030277   0.009245   0.357417  -0.032040   0.585596   0.005204
     6  H   -0.004827   0.000401  -0.051976   0.428751   0.005204   0.566028
     7  H    0.003761  -0.000567  -0.037450   0.416586  -0.006680  -0.042729
     8  H    0.455634  -0.111719  -0.185936   0.022130   0.011950   0.007185
               7          8
     1  C    0.003761   0.455634
     2  O   -0.000567  -0.111719
     3  C   -0.037450  -0.185936
     4  C    0.416586   0.022130
     5  H   -0.006680   0.011950
     6  H   -0.042729   0.007185
     7  H    0.573727  -0.001032
     8  H   -0.001032   0.746791
 Mulliken charges:
               1
     1  C    0.157250
     2  O   -0.346720
     3  C   -0.031793
     4  C   -0.119668
     5  H    0.099584
     6  H    0.091963
     7  H    0.094386
     8  H    0.054997
 Sum of Mulliken charges =   0.00000
 Mulliken charges with hydrogens summed into heavy atoms:
               1
     1  C    0.212247
     2  O   -0.346720
     3  C    0.067792
     4  C    0.066681
 Electronic spatial extent (au):  <R**2>=            295.5813
 Charge=              0.0000 electrons
 Dipole moment (field-independent basis, Debye):
    X=              3.4675    Y=             -0.6321    Z=              0.1244  Tot=              3.5269
 Quadrupole moment (field-independent basis, Debye-Ang):
   XX=            -27.7638   YY=            -21.7572   ZZ=            -24.9698
   XY=              0.6454   XZ=              0.9402   YZ=              0.0555
 Traceless Quadrupole moment (field-independent basis, Debye-Ang):
   XX=             -2.9335   YY=              3.0730   ZZ=             -0.1395
   XY=              0.6454   XZ=              0.9402   YZ=              0.0555
 Octapole moment (field-independent basis, Debye-Ang**2):
  XXX=             13.7961  YYY=             -0.1195  ZZZ=              0.6614  XYY=             -0.2746
  XXY=             -1.3383  XXZ=              1.3136  XZZ=             -4.1307  YZZ=             -0.3593
  YYZ=              0.7482  XYZ=              0.0684
 Hexadecapole moment (field-independent basis, Debye-Ang**3):
 XXXX=           -303.6681 YYYY=            -54.0543 ZZZZ=            -27.4222 XXXY=              2.5046
 XXXZ=              5.2383 YYYX=             -0.5517 YYYZ=              0.0405 ZZZX=              0.5652
 ZZZY=              0.0975 XXYY=            -57.7496 XXZZ=            -56.2621 YYZZ=            -15.2130
 XXYZ=              0.3459 YYXZ=              0.7520 ZZXY=             -0.3306
 N-N= 1.040407039637D+02 E-N=-6.562592526536D+02  KE= 1.911796431824D+02
 Leave Link  601 at Wed Aug 26 11:46:30 2020, MaxMem=  2097152000 cpu:         0.5
 (Enter /opt/cluster/programs/g09/g09_d.01/g09/l9999.exe)
 1\1\GINC-NODE39\SP\RB2PLYPD3-FC\def2QZVP\C3H4O1\BOITTIER\26-Aug-2020\0
 \\#p B2PLYPD3/Def2QZVP\\acrolein\\0,1\C,0,-4.978097,-1.439041,0.839672
 \O,0,-3.954156,-0.831279,0.700834\C,0,-5.205473,-2.870859,1.096429\C,0
 ,-6.417177,-3.262973,1.411875\H,0,-4.255228,-3.455109,1.15477\H,0,-7.2
 14641,-2.597709,1.548057\H,0,-6.541945,-4.283503,1.809406\H,0,-5.79876
 1,-0.807945,0.944577\\Version=ES64L-G09RevD.01\State=1-A\HF=-191.60394
 42\MP2=-191.8500163\RMSD=7.819e-09\PG=C01 [X(C3H4O1)]\\@


 Democracy is the recurrent suspicion that more than half of the people
 are right more than half of the time.
 -- E. B. White
 Job cpu time:       0 days  0 hours 11 minutes 11.5 seconds.
 File lengths (MBytes):  RWF=     49 Int=      0 D2E=      0 Chk=      7 Scr=      1
 Normal termination of Gaussian 09 at Wed Aug 26 11:46:30 2020.
