 Entering Gaussian System, Link 0=/opt/cluster/programs/g09/g09_d.01/g09//g09
 Input=/home/boittier/MDCM/nms_sampling/acrolein_geom.xyz.dir/energies/acrolein_270_energy.com
 Output=/scratch/boittier/acrolein_270_energy/acrolein_270_energy.out
 Initial command:
 /opt/cluster/programs/g09/g09_d.01/g09/l1.exe "/scratch/boittier/acrolein_270_energy/Gau-70142.inp" -scrdir="/scratch/boittier/acrolein_270_energy/"
 Entering Link 1 = /opt/cluster/programs/g09/g09_d.01/g09/l1.exe PID=     70143.
  
 Copyright (c) 1988,1990,1992,1993,1995,1998,2003,2009,2013,
            Gaussian, Inc.  All Rights Reserved.
  
 This is part of the Gaussian(R) 09 program.  It is based on
 the Gaussian(R) 03 system (copyright 2003, Gaussian, Inc.),
 the Gaussian(R) 98 system (copyright 1998, Gaussian, Inc.),
 the Gaussian(R) 94 system (copyright 1995, Gaussian, Inc.),
 the Gaussian 92(TM) system (copyright 1992, Gaussian, Inc.),
 the Gaussian 90(TM) system (copyright 1990, Gaussian, Inc.),
 the Gaussian 88(TM) system (copyright 1988, Gaussian, Inc.),
 the Gaussian 86(TM) system (copyright 1986, Carnegie Mellon
 University), and the Gaussian 82(TM) system (copyright 1983,
 Carnegie Mellon University). Gaussian is a federally registered
 trademark of Gaussian, Inc.
  
 This software contains proprietary and confidential information,
 including trade secrets, belonging to Gaussian, Inc.
  
 This software is provided under written license and may be
 used, copied, transmitted, or stored only in accord with that
 written license.
  
 The following legend is applicable only to US Government
 contracts under FAR:
  
                    RESTRICTED RIGHTS LEGEND
  
 Use, reproduction and disclosure by the US Government is
 subject to restrictions as set forth in subparagraphs (a)
 and (c) of the Commercial Computer Software - Restricted
 Rights clause in FAR 52.227-19.
  
 Gaussian, Inc.
 340 Quinnipiac St., Bldg. 40, Wallingford CT 06492
  
  
 ---------------------------------------------------------------
 Warning -- This program may not be used in any manner that
 competes with the business of Gaussian, Inc. or will provide
 assistance to any competitor of Gaussian, Inc.  The licensee
 of this program is prohibited from giving any competitor of
 Gaussian, Inc. access to this program.  By using this program,
 the user acknowledges that Gaussian, Inc. is engaged in the
 business of creating and licensing software in the field of
 computational chemistry and represents and warrants to the
 licensee that it is not a competitor of Gaussian, Inc. and that
 it will not use this program in any manner prohibited above.
 ---------------------------------------------------------------
  

 Cite this work as:
 Gaussian 09, Revision D.01,
 M. J. Frisch, G. W. Trucks, H. B. Schlegel, G. E. Scuseria, 
 M. A. Robb, J. R. Cheeseman, G. Scalmani, V. Barone, B. Mennucci, 
 G. A. Petersson, H. Nakatsuji, M. Caricato, X. Li, H. P. Hratchian, 
 A. F. Izmaylov, J. Bloino, G. Zheng, J. L. Sonnenberg, M. Hada, 
 M. Ehara, K. Toyota, R. Fukuda, J. Hasegawa, M. Ishida, T. Nakajima, 
 Y. Honda, O. Kitao, H. Nakai, T. Vreven, J. A. Montgomery, Jr., 
 J. E. Peralta, F. Ogliaro, M. Bearpark, J. J. Heyd, E. Brothers, 
 K. N. Kudin, V. N. Staroverov, T. Keith, R. Kobayashi, J. Normand, 
 K. Raghavachari, A. Rendell, J. C. Burant, S. S. Iyengar, J. Tomasi, 
 M. Cossi, N. Rega, J. M. Millam, M. Klene, J. E. Knox, J. B. Cross, 
 V. Bakken, C. Adamo, J. Jaramillo, R. Gomperts, R. E. Stratmann, 
 O. Yazyev, A. J. Austin, R. Cammi, C. Pomelli, J. W. Ochterski, 
 R. L. Martin, K. Morokuma, V. G. Zakrzewski, G. A. Voth, 
 P. Salvador, J. J. Dannenberg, S. Dapprich, A. D. Daniels, 
 O. Farkas, J. B. Foresman, J. V. Ortiz, J. Cioslowski, 
 and D. J. Fox, Gaussian, Inc., Wallingford CT, 2013.
 
 ******************************************
 Gaussian 09:  ES64L-G09RevD.01 24-Apr-2013
                26-Aug-2020 
 ******************************************
 %chk=/home/boittier/MDCM/nms_sampling/acrolein_geom.xyz.dir/acrolein_270.chk
 %nproc=8
 Will use up to    8 processors via shared memory.
 %mem=16000MB
 --------------------
 #p B2PLYPD3/Def2QZVP
 --------------------
 1/38=1/1;
 2/12=2,17=6,18=5,40=1/2;
 3/5=45,7=101,11=9,16=1,25=1,30=1,74=-60/1,2,3;
 4//1;
 5/5=2,38=5/2;
 8/10=1/1;
 9/16=-3/6;
 6/7=2,8=2,9=2,10=2/1;
 99/5=1,9=1/99;
 Leave Link    1 at Wed Aug 26 15:02:00 2020, MaxMem=  2097152000 cpu:         0.2
 (Enter /opt/cluster/programs/g09/g09_d.01/g09/l101.exe)
 --------
 acrolein
 --------
 Symbolic Z-matrix:
 Charge =  0 Multiplicity = 1
 C                    -5.00539  -1.3771    0.86611 
 O                    -3.93111  -0.8766    0.67935 
 C                    -5.20002  -2.81322   1.11906 
 C                    -6.39967  -3.31071   1.42102 
 H                    -4.36016  -3.43984   1.11691 
 H                    -7.25196  -2.66349   1.40459 
 H                    -6.5987   -4.37465   1.64592 
 H                    -5.90345  -0.78921   0.94785 
 
 NAtoms=      8 NQM=        8 NQMF=       0 NMMI=      0 NMMIF=      0
                NMic=       0 NMicF=      0.
                    Isotopes and Nuclear Properties:
 (Nuclear quadrupole moments (NQMom) in fm**2, nuclear magnetic moments (NMagM)
  in nuclear magnetons)

  Atom         1           2           3           4           5           6           7           8
 IAtWgt=          12          16          12          12           1           1           1           1
 AtmWgt=  12.0000000  15.9949146  12.0000000  12.0000000   1.0078250   1.0078250   1.0078250   1.0078250
 NucSpn=           0           0           0           0           1           1           1           1
 AtZEff=   0.0000000   0.0000000   0.0000000   0.0000000   0.0000000   0.0000000   0.0000000   0.0000000
 NQMom=    0.0000000   0.0000000   0.0000000   0.0000000   0.0000000   0.0000000   0.0000000   0.0000000
 NMagM=    0.0000000   0.0000000   0.0000000   0.0000000   2.7928460   2.7928460   2.7928460   2.7928460
 AtZNuc=   6.0000000   8.0000000   6.0000000   6.0000000   1.0000000   1.0000000   1.0000000   1.0000000
 Leave Link  101 at Wed Aug 26 15:02:00 2020, MaxMem=  2097152000 cpu:         0.5
 (Enter /opt/cluster/programs/g09/g09_d.01/g09/l202.exe)
                          Input orientation:                          
 ---------------------------------------------------------------------
 Center     Atomic      Atomic             Coordinates (Angstroms)
 Number     Number       Type             X           Y           Z
 ---------------------------------------------------------------------
      1          6           0       -5.005394   -1.377097    0.866112
      2          8           0       -3.931105   -0.876604    0.679353
      3          6           0       -5.200017   -2.813215    1.119062
      4          6           0       -6.399670   -3.310708    1.421024
      5          1           0       -4.360164   -3.439844    1.116909
      6          1           0       -7.251956   -2.663490    1.404587
      7          1           0       -6.598699   -4.374645    1.645919
      8          1           0       -5.903445   -0.789210    0.947849
 ---------------------------------------------------------------------
                    Distance matrix (angstroms):
                    1          2          3          4          5
     1  C    0.000000
     2  O    1.199779   0.000000
     3  C    1.471155   2.356681   0.000000
     4  C    2.447608   3.545243   1.333360   0.000000
     5  H    2.175809   2.635478   1.047865   2.066095   0.000000
     6  H    2.644202   3.840179   2.077112   1.070305   3.007980
     7  H    3.483104   4.504065   2.161470   1.105510   2.482890
     8  H    1.076470   1.992449   2.149586   2.613061   3.071833
                    6          7          8
     6  H    0.000000
     7  H    1.847441   0.000000
     8  H    2.353724   3.718336   0.000000
 Stoichiometry    C3H4O
 Framework group  C1[X(C3H4O)]
 Deg. of freedom    18
 Full point group                 C1      NOp   1
 Largest Abelian subgroup         C1      NOp   1
 Largest concise Abelian subgroup C1      NOp   1
                         Standard orientation:                         
 ---------------------------------------------------------------------
 Center     Atomic      Atomic             Coordinates (Angstroms)
 Number     Number       Type             X           Y           Z
 ---------------------------------------------------------------------
      1          6           0       -0.683138    0.353613    0.026526
      2          8           0       -1.780646   -0.128722   -0.021390
      3          6           0        0.554677   -0.441440    0.027767
      4          6           0        1.754536    0.138174   -0.019492
      5          1           0        0.478120   -1.486281    0.006112
      6          1           0        1.819970    1.205784    0.018952
      7          1           0        2.714600   -0.409231   -0.047395
      8          1           0       -0.523968    1.417427   -0.015355
 ---------------------------------------------------------------------
 Rotational constants (GHZ):     49.3514738      4.6837369      4.2800990
 Leave Link  202 at Wed Aug 26 15:02:00 2020, MaxMem=  2097152000 cpu:         0.0
 (Enter /opt/cluster/programs/g09/g09_d.01/g09/l301.exe)
 Standard basis: def2QZVP (5D, 7F)
 Ernie: Thresh=  0.10000D-02 Tol=  0.10000D-05 Strict=F.
 There are   428 symmetry adapted cartesian basis functions of A   symmetry.
 There are   348 symmetry adapted basis functions of A   symmetry.
   348 basis functions,   520 primitive gaussians,   428 cartesian basis functions
    15 alpha electrons       15 beta electrons
       nuclear repulsion energy       103.7381220623 Hartrees.
 IExCor=  419 DFT=T Ex+Corr=B2PLYPD3 ExCW=0 ScaHFX=  0.530000
 ScaDFX=  0.470000  0.470000  0.730000  0.730000 ScalE2=  0.270000  0.270000
 IRadAn=      0 IRanWt=     -1 IRanGd=            0 ICorTp=0 IEmpDi=141
 NAtoms=    8 NActive=    8 NUniq=    8 SFac= 1.00D+00 NAtFMM=   60 NAOKFM=F Big=F
 Integral buffers will be    131072 words long.
 Regular integral format.
 Two-electron integral symmetry is turned on.
 R6Disp:  Grimme-D3(BJ) Dispersion energy=       -0.0035902851 Hartrees.
 Nuclear repulsion after empirical dispersion term =      103.7345317773 Hartrees.
 Leave Link  301 at Wed Aug 26 15:02:00 2020, MaxMem=  2097152000 cpu:         0.4
 (Enter /opt/cluster/programs/g09/g09_d.01/g09/l302.exe)
 NPDir=0 NMtPBC=     1 NCelOv=     1 NCel=       1 NClECP=     1 NCelD=      1
         NCelK=      1 NCelE2=     1 NClLst=     1 CellRange=     0.0.
 One-electron integrals computed using PRISM.
   1 Symmetry operations used in ECPInt.
 ECPInt:  NShTT=    5886 NPrTT=   14376 LenC2=    5780 LenP2D=   12181.
 LDataN:  DoStor=T MaxTD1= 8 Len=  415
 NBasis=   348 RedAO= T EigKep=  5.64D-05  NBF=   348
 NBsUse=   348 1.00D-06 EigRej= -1.00D+00 NBFU=   348
 Precomputing XC quadrature grid using
 IXCGrd= 4 IRadAn=           0 IRanWt=          -1 IRanGd=           0 AccXCQ= 0.00D+00.
 Generated NRdTot=       0 NPtTot=           0 NUsed=           0 NTot=          32
 NSgBfM=   428   428   428   428   428 MxSgAt=     8 MxSgA2=     8.
 Leave Link  302 at Wed Aug 26 15:02:00 2020, MaxMem=  2097152000 cpu:         2.4
 (Enter /opt/cluster/programs/g09/g09_d.01/g09/l303.exe)
 DipDrv:  MaxL=1.
 Leave Link  303 at Wed Aug 26 15:02:01 2020, MaxMem=  2097152000 cpu:         0.3
 (Enter /opt/cluster/programs/g09/g09_d.01/g09/l401.exe)
 ExpMin= 7.60D-02 ExpMax= 1.17D+05 ExpMxC= 1.13D+03 IAcc=2 IRadAn=         4 AccDes= 0.00D+00
 Harris functional with IExCor=  419 and IRadAn=       4 diagonalized for initial guess.
 HarFok:  IExCor=  419 AccDes= 0.00D+00 IRadAn=         4 IDoV= 1 UseB2=F ITyADJ=14
 ICtDFT=  3500011 ScaDFX=  1.000000  1.000000  1.000000  1.000000
 FoFCou: FMM=F IPFlag=           0 FMFlag=      100000 FMFlg1=           0
         NFxFlg=           0 DoJE=T BraDBF=F KetDBF=T FulRan=T
         wScrn=  0.000000 ICntrl=     500 IOpCl=  0 I1Cent=   200000004 NGrid=           0
         NMat0=    1 NMatS0=      1 NMatT0=    0 NMatD0=    1 NMtDS0=    0 NMtDT0=    0
 Petite list used in FoFCou.
 Harris En= -192.048544561952    
 JPrj=0 DoOrth=F DoCkMO=F.
 Leave Link  401 at Wed Aug 26 15:02:01 2020, MaxMem=  2097152000 cpu:         5.8
 (Enter /opt/cluster/programs/g09/g09_d.01/g09/l502.exe)
 Closed shell SCF:
 Using DIIS extrapolation, IDIIS=  1040.
 Integral symmetry usage will be decided dynamically.
 Keep R1 ints in memory in canonical form, NReq=1883905047.
 IVT=      574566 IEndB=      574566 NGot=  2097152000 MDV=   252723534
 LenX=   252723534 LenY=   252539909
 Requested convergence on RMS density matrix=1.00D-08 within 128 cycles.
 Requested convergence on MAX density matrix=1.00D-06.
 Requested convergence on             energy=1.00D-06.
 No special actions if energy rises.
 FoFCou: FMM=F IPFlag=           0 FMFlag=           0 FMFlg1=           0
         NFxFlg=           0 DoJE=F BraDBF=F KetDBF=F FulRan=T
         wScrn=  0.000000 ICntrl=     600 IOpCl=  0 I1Cent=           0 NGrid=           0
         NMat0=    1 NMatS0=  60726 NMatT0=    0 NMatD0=    1 NMtDS0=    0 NMtDT0=    0
 Symmetry not used in FoFCou.
 Integral accuracy reduced to 1.0D-05 until final iterations.

 Cycle   1  Pass 0  IDiag  1:
 E= -191.471319490155    
 DIIS: error= 2.47D-02 at cycle   1 NSaved=   1.
 NSaved= 1 IEnMin= 1 EnMin= -191.471319490155     IErMin= 1 ErrMin= 2.47D-02
 ErrMax= 2.47D-02  0.00D+00 EMaxC= 1.00D-01 BMatC= 2.58D-01 BMatP= 2.58D-01
 IDIUse=3 WtCom= 7.53D-01 WtEn= 2.47D-01
 Coeff-Com:  0.100D+01
 Coeff-En:   0.100D+01
 Coeff:      0.100D+01
 Gap=     0.290 Goal=   None    Shift=    0.000
 GapD=    0.290 DampG=1.000 DampE=0.500 DampFc=0.5000 IDamp=-1.
 Damping current iteration by 5.00D-01
 RMSDP=1.86D-03 MaxDP=2.32D-01              OVMax= 1.73D-01

 Cycle   2  Pass 0  IDiag  1:
 E= -191.542105825142     Delta-E=       -0.070786334987 Rises=F Damp=T
 DIIS: error= 1.15D-02 at cycle   2 NSaved=   2.
 NSaved= 2 IEnMin= 2 EnMin= -191.542105825142     IErMin= 2 ErrMin= 1.15D-02
 ErrMax= 1.15D-02  0.00D+00 EMaxC= 1.00D-01 BMatC= 3.37D-02 BMatP= 2.58D-01
 IDIUse=3 WtCom= 8.85D-01 WtEn= 1.15D-01
 Coeff-Com: -0.167D+00 0.117D+01
 Coeff-En:   0.000D+00 0.100D+01
 Coeff:     -0.147D+00 0.115D+01
 Gap=     0.355 Goal=   None    Shift=    0.000
 RMSDP=6.17D-04 MaxDP=7.75D-02 DE=-7.08D-02 OVMax= 1.27D-01

 Cycle   3  Pass 0  IDiag  1:
 E= -191.604509389450     Delta-E=       -0.062403564308 Rises=F Damp=F
 DIIS: error= 9.57D-03 at cycle   3 NSaved=   3.
 NSaved= 3 IEnMin= 3 EnMin= -191.604509389450     IErMin= 3 ErrMin= 9.57D-03
 ErrMax= 9.57D-03  0.00D+00 EMaxC= 1.00D-01 BMatC= 1.57D-02 BMatP= 3.37D-02
 IDIUse=3 WtCom= 9.04D-01 WtEn= 9.57D-02
 Coeff-Com: -0.189D+00 0.517D+00 0.673D+00
 Coeff-En:   0.000D+00 0.000D+00 0.100D+01
 Coeff:     -0.171D+00 0.467D+00 0.704D+00
 Gap=     0.335 Goal=   None    Shift=    0.000
 RMSDP=2.35D-04 MaxDP=1.75D-02 DE=-6.24D-02 OVMax= 4.65D-02

 Cycle   4  Pass 0  IDiag  1:
 E= -191.613089277675     Delta-E=       -0.008579888225 Rises=F Damp=F
 DIIS: error= 3.76D-03 at cycle   4 NSaved=   4.
 NSaved= 4 IEnMin= 4 EnMin= -191.613089277675     IErMin= 4 ErrMin= 3.76D-03
 ErrMax= 3.76D-03  0.00D+00 EMaxC= 1.00D-01 BMatC= 2.87D-03 BMatP= 1.57D-02
 IDIUse=3 WtCom= 9.62D-01 WtEn= 3.76D-02
 Coeff-Com: -0.595D-01 0.990D-01 0.364D+00 0.597D+00
 Coeff-En:   0.000D+00 0.000D+00 0.164D+00 0.836D+00
 Coeff:     -0.573D-01 0.953D-01 0.356D+00 0.606D+00
 Gap=     0.324 Goal=   None    Shift=    0.000
 RMSDP=9.53D-05 MaxDP=7.65D-03 DE=-8.58D-03 OVMax= 1.35D-02

 Cycle   5  Pass 0  IDiag  1:
 E= -191.615398291111     Delta-E=       -0.002309013436 Rises=F Damp=F
 DIIS: error= 3.27D-04 at cycle   5 NSaved=   5.
 NSaved= 5 IEnMin= 5 EnMin= -191.615398291111     IErMin= 5 ErrMin= 3.27D-04
 ErrMax= 3.27D-04  0.00D+00 EMaxC= 1.00D-01 BMatC= 1.08D-05 BMatP= 2.87D-03
 IDIUse=3 WtCom= 9.97D-01 WtEn= 3.27D-03
 Coeff-Com: -0.816D-02 0.106D-01 0.570D-01 0.126D+00 0.814D+00
 Coeff-En:   0.000D+00 0.000D+00 0.000D+00 0.000D+00 0.100D+01
 Coeff:     -0.814D-02 0.105D-01 0.568D-01 0.126D+00 0.815D+00
 Gap=     0.323 Goal=   None    Shift=    0.000
 RMSDP=9.38D-06 MaxDP=7.82D-04 DE=-2.31D-03 OVMax= 1.98D-03

 Initial convergence to 1.0D-05 achieved.  Increase integral accuracy.
 Cycle   6  Pass 1  IDiag  1:
 E= -191.615396398462     Delta-E=        0.000001892649 Rises=F Damp=F
 DIIS: error= 8.68D-05 at cycle   1 NSaved=   1.
 NSaved= 1 IEnMin= 1 EnMin= -191.615396398462     IErMin= 1 ErrMin= 8.68D-05
 ErrMax= 8.68D-05  0.00D+00 EMaxC= 1.00D-01 BMatC= 1.44D-06 BMatP= 1.44D-06
 IDIUse=1 WtCom= 1.00D+00 WtEn= 0.00D+00
 Coeff-Com:  0.100D+01
 Coeff:      0.100D+01
 Gap=     0.324 Goal=   None    Shift=    0.000
 RMSDP=9.38D-06 MaxDP=7.82D-04 DE= 1.89D-06 OVMax= 6.82D-04

 Cycle   7  Pass 1  IDiag  1:
 E= -191.615397570928     Delta-E=       -0.000001172466 Rises=F Damp=F
 DIIS: error= 6.93D-05 at cycle   2 NSaved=   2.
 NSaved= 2 IEnMin= 2 EnMin= -191.615397570928     IErMin= 2 ErrMin= 6.93D-05
 ErrMax= 6.93D-05  0.00D+00 EMaxC= 1.00D-01 BMatC= 8.06D-07 BMatP= 1.44D-06
 IDIUse=1 WtCom= 1.00D+00 WtEn= 0.00D+00
 Coeff-Com:  0.419D+00 0.581D+00
 Coeff:      0.419D+00 0.581D+00
 Gap=     0.324 Goal=   None    Shift=    0.000
 RMSDP=1.40D-06 MaxDP=9.92D-05 DE=-1.17D-06 OVMax= 3.48D-04

 Cycle   8  Pass 1  IDiag  1:
 E= -191.615398270174     Delta-E=       -0.000000699246 Rises=F Damp=F
 DIIS: error= 1.73D-05 at cycle   3 NSaved=   3.
 NSaved= 3 IEnMin= 3 EnMin= -191.615398270174     IErMin= 3 ErrMin= 1.73D-05
 ErrMax= 1.73D-05  0.00D+00 EMaxC= 1.00D-01 BMatC= 5.53D-08 BMatP= 8.06D-07
 IDIUse=1 WtCom= 1.00D+00 WtEn= 0.00D+00
 Coeff-Com:  0.361D-01 0.157D+00 0.807D+00
 Coeff:      0.361D-01 0.157D+00 0.807D+00
 Gap=     0.324 Goal=   None    Shift=    0.000
 RMSDP=1.36D-06 MaxDP=1.49D-04 DE=-6.99D-07 OVMax= 1.12D-04

 Cycle   9  Pass 1  IDiag  1:
 E= -191.615398324395     Delta-E=       -0.000000054221 Rises=F Damp=F
 DIIS: error= 1.43D-05 at cycle   4 NSaved=   4.
 NSaved= 4 IEnMin= 4 EnMin= -191.615398324395     IErMin= 4 ErrMin= 1.43D-05
 ErrMax= 1.43D-05  0.00D+00 EMaxC= 1.00D-01 BMatC= 2.08D-08 BMatP= 5.53D-08
 IDIUse=1 WtCom= 1.00D+00 WtEn= 0.00D+00
 Coeff-Com: -0.112D+00-0.942D-01 0.460D+00 0.746D+00
 Coeff:     -0.112D+00-0.942D-01 0.460D+00 0.746D+00
 Gap=     0.324 Goal=   None    Shift=    0.000
 RMSDP=6.39D-07 MaxDP=6.76D-05 DE=-5.42D-08 OVMax= 9.86D-05

 Cycle  10  Pass 1  IDiag  1:
 E= -191.615398350705     Delta-E=       -0.000000026310 Rises=F Damp=F
 DIIS: error= 1.93D-06 at cycle   5 NSaved=   5.
 NSaved= 5 IEnMin= 5 EnMin= -191.615398350705     IErMin= 5 ErrMin= 1.93D-06
 ErrMax= 1.93D-06  0.00D+00 EMaxC= 1.00D-01 BMatC= 9.08D-10 BMatP= 2.08D-08
 IDIUse=1 WtCom= 1.00D+00 WtEn= 0.00D+00
 Coeff-Com: -0.274D-01-0.326D-01 0.392D-01 0.210D+00 0.810D+00
 Coeff:     -0.274D-01-0.326D-01 0.392D-01 0.210D+00 0.810D+00
 Gap=     0.324 Goal=   None    Shift=    0.000
 RMSDP=1.70D-07 MaxDP=2.00D-05 DE=-2.63D-08 OVMax= 1.25D-05

 Cycle  11  Pass 1  IDiag  1:
 E= -191.615398351534     Delta-E=       -0.000000000829 Rises=F Damp=F
 DIIS: error= 8.56D-07 at cycle   6 NSaved=   6.
 NSaved= 6 IEnMin= 6 EnMin= -191.615398351534     IErMin= 6 ErrMin= 8.56D-07
 ErrMax= 8.56D-07  0.00D+00 EMaxC= 1.00D-01 BMatC= 1.12D-10 BMatP= 9.08D-10
 IDIUse=1 WtCom= 1.00D+00 WtEn= 0.00D+00
 Coeff-Com:  0.728D-02 0.250D-02-0.588D-01-0.128D-01 0.287D+00 0.775D+00
 Coeff:      0.728D-02 0.250D-02-0.588D-01-0.128D-01 0.287D+00 0.775D+00
 Gap=     0.324 Goal=   None    Shift=    0.000
 RMSDP=2.83D-08 MaxDP=1.58D-06 DE=-8.29D-10 OVMax= 8.39D-06

 Cycle  12  Pass 1  IDiag  1:
 E= -191.615398351660     Delta-E=       -0.000000000126 Rises=F Damp=F
 DIIS: error= 2.21D-07 at cycle   7 NSaved=   7.
 NSaved= 7 IEnMin= 7 EnMin= -191.615398351660     IErMin= 7 ErrMin= 2.21D-07
 ErrMax= 2.21D-07  0.00D+00 EMaxC= 1.00D-01 BMatC= 1.34D-11 BMatP= 1.12D-10
 IDIUse=1 WtCom= 1.00D+00 WtEn= 0.00D+00
 Coeff-Com:  0.511D-02 0.309D-02-0.310D-01-0.191D-01 0.618D-01 0.339D+00
 Coeff-Com:  0.641D+00
 Coeff:      0.511D-02 0.309D-02-0.310D-01-0.191D-01 0.618D-01 0.339D+00
 Coeff:      0.641D+00
 Gap=     0.324 Goal=   None    Shift=    0.000
 RMSDP=9.31D-09 MaxDP=8.39D-07 DE=-1.26D-10 OVMax= 1.28D-06

 SCF Done:  E(RB2PLYPD3) =  -191.615398352     A.U. after   12 cycles
            NFock= 12  Conv=0.93D-08     -V/T= 2.0027
 KE= 1.911037744434D+02 PE=-6.555996561249D+02 EE= 1.691459515526D+02
 Leave Link  502 at Wed Aug 26 15:03:45 2020, MaxMem=  2097152000 cpu:       558.0
 (Enter /opt/cluster/programs/g09/g09_d.01/g09/l801.exe)
 DoSCS=T DFT=T ScalE2(SS,OS)=  0.270000  0.270000
 ExpMin= 7.60D-02 ExpMax= 1.17D+05 ExpMxC= 1.13D+03 IAcc=3 IRadAn=         5 AccDes= 0.00D+00
 HarFok:  IExCor=  205 AccDes= 0.00D+00 IRadAn=         5 IDoV=-2 UseB2=F ITyADJ=14
 ICtDFT= 12500011 ScaDFX=  1.000000  1.000000  1.000000  1.000000
 Largest valence mixing into a core orbital is  1.13D-04
 Largest core mixing into a valence orbital is  1.87D-05
 Range of M.O.s used for correlation:     5   348
 NBasis=   348 NAE=    15 NBE=    15 NFC=     4 NFV=     0
 NROrb=    344 NOA=    11 NOB=    11 NVA=   333 NVB=   333

 **** Warning!!: The largest alpha MO coefficient is  0.29429829D+02

 Leave Link  801 at Wed Aug 26 15:04:09 2020, MaxMem=  2097152000 cpu:         0.7
 (Enter /opt/cluster/programs/g09/g09_d.01/g09/l906.exe)
 DoSCS=T DFT=T ScalE2(SS,OS)=  0.270000  0.270000
 FulOut=F Deriv=F AODrv=F NAtomX=     8
   MMem=        1190  MDisk=          11 MDiskD=          11
  W3Min=     1567764 MinDsk=     2827057 NBas6D=         428
 NBas2D=       93150    NTT=       91806    LW2=     4508827
    MDV=  2096570662 MDiskM=       10875 NBas2p=       89466
 Fully direct method using O(OVN) memory.
 IMap=   1   2   3   4   5   6   7   8   9  10  11
 JobTyp=1 Pass  1:  I=   1 to  11 NPSUse=  8 ParTrn=T ParDer=T DoDerP=F.
 Spin components of T(2) and E(2):
     alpha-alpha T2 =       0.4317636006D-01 E2=     -0.2935061431D-01
     alpha-beta  T2 =       0.2631709607D+00 E2=     -0.1875306528D+00
     beta-beta   T2 =       0.4317636006D-01 E2=     -0.2935061431D-01
 The integrals were generated   1 times.
 E2(B2PLYPD3) =    -0.2462318814D+00 E(B2PLYPD3) =    -0.19186163023311D+03
 Leave Link  906 at Wed Aug 26 15:04:52 2020, MaxMem=  2097152000 cpu:       341.7
 (Enter /opt/cluster/programs/g09/g09_d.01/g09/l601.exe)
 Copying SCF densities to generalized density rwf, IOpCl= 0 IROHF=0.

 **********************************************************************

            Population analysis using the SCF density.

 **********************************************************************

 Orbital symmetries:
       Occupied  (A) (A) (A) (A) (A) (A) (A) (A) (A) (A) (A) (A)
                 (A) (A) (A)
       Virtual   (A) (A) (A) (A) (A) (A) (A) (A) (A) (A) (A) (A)
                 (A) (A) (A) (A) (A) (A) (A) (A) (A) (A) (A) (A)
                 (A) (A) (A) (A) (A) (A) (A) (A) (A) (A) (A) (A)
                 (A) (A) (A) (A) (A) (A) (A) (A) (A) (A) (A) (A)
                 (A) (A) (A) (A) (A) (A) (A) (A) (A) (A) (A) (A)
                 (A) (A) (A) (A) (A) (A) (A) (A) (A) (A) (A) (A)
                 (A) (A) (A) (A) (A) (A) (A) (A) (A) (A) (A) (A)
                 (A) (A) (A) (A) (A) (A) (A) (A) (A) (A) (A) (A)
                 (A) (A) (A) (A) (A) (A) (A) (A) (A) (A) (A) (A)
                 (A) (A) (A) (A) (A) (A) (A) (A) (A) (A) (A) (A)
                 (A) (A) (A) (A) (A) (A) (A) (A) (A) (A) (A) (A)
                 (A) (A) (A) (A) (A) (A) (A) (A) (A) (A) (A) (A)
                 (A) (A) (A) (A) (A) (A) (A) (A) (A) (A) (A) (A)
                 (A) (A) (A) (A) (A) (A) (A) (A) (A) (A) (A) (A)
                 (A) (A) (A) (A) (A) (A) (A) (A) (A) (A) (A) (A)
                 (A) (A) (A) (A) (A) (A) (A) (A) (A) (A) (A) (A)
                 (A) (A) (A) (A) (A) (A) (A) (A) (A) (A) (A) (A)
                 (A) (A) (A) (A) (A) (A) (A) (A) (A) (A) (A) (A)
                 (A) (A) (A) (A) (A) (A) (A) (A) (A) (A) (A) (A)
                 (A) (A) (A) (A) (A) (A) (A) (A) (A) (A) (A) (A)
                 (A) (A) (A) (A) (A) (A) (A) (A) (A) (A) (A) (A)
                 (A) (A) (A) (A) (A) (A) (A) (A) (A) (A) (A) (A)
                 (A) (A) (A) (A) (A) (A) (A) (A) (A) (A) (A) (A)
                 (A) (A) (A) (A) (A) (A) (A) (A) (A) (A) (A) (A)
                 (A) (A) (A) (A) (A) (A) (A) (A) (A) (A) (A) (A)
                 (A) (A) (A) (A) (A) (A) (A) (A) (A) (A) (A) (A)
                 (A) (A) (A) (A) (A) (A) (A) (A) (A) (A) (A) (A)
                 (A) (A) (A) (A) (A) (A) (A) (A) (A)
 The electronic state is 1-A.
 Alpha  occ. eigenvalues --  -19.72797 -10.71226 -10.65383 -10.63827  -1.20221
 Alpha  occ. eigenvalues --   -0.92943  -0.75356  -0.67830  -0.56951  -0.56354
 Alpha  occ. eigenvalues --   -0.50869  -0.47149  -0.46859  -0.34614  -0.33929
 Alpha virt. eigenvalues --   -0.01562   0.05767   0.07415   0.08243   0.09728
 Alpha virt. eigenvalues --    0.12574   0.14175   0.15414   0.17855   0.19776
 Alpha virt. eigenvalues --    0.20013   0.21345   0.25448   0.26533   0.28855
 Alpha virt. eigenvalues --    0.32207   0.33794   0.35827   0.37597   0.38609
 Alpha virt. eigenvalues --    0.39264   0.41560   0.43198   0.44978   0.46750
 Alpha virt. eigenvalues --    0.47173   0.49068   0.54230   0.55563   0.57225
 Alpha virt. eigenvalues --    0.59018   0.64244   0.65815   0.67514   0.71524
 Alpha virt. eigenvalues --    0.74945   0.76167   0.78326   0.80169   0.80763
 Alpha virt. eigenvalues --    0.81685   0.82494   0.83466   0.84295   0.86491
 Alpha virt. eigenvalues --    0.88429   0.91737   0.92796   0.93627   0.95791
 Alpha virt. eigenvalues --    0.96669   0.97672   1.01135   1.02315   1.07167
 Alpha virt. eigenvalues --    1.10009   1.12772   1.15657   1.17691   1.19822
 Alpha virt. eigenvalues --    1.20812   1.26100   1.28940   1.33926   1.41406
 Alpha virt. eigenvalues --    1.42676   1.47176   1.48353   1.55445   1.57269
 Alpha virt. eigenvalues --    1.59590   1.61968   1.67140   1.67551   1.70313
 Alpha virt. eigenvalues --    1.74931   1.76045   1.78229   1.81508   1.83128
 Alpha virt. eigenvalues --    1.85839   1.91514   1.92039   1.92833   1.94104
 Alpha virt. eigenvalues --    1.96045   1.98739   2.00226   2.00606   2.03030
 Alpha virt. eigenvalues --    2.07063   2.10387   2.11204   2.13696   2.14672
 Alpha virt. eigenvalues --    2.17251   2.18901   2.20442   2.22660   2.26411
 Alpha virt. eigenvalues --    2.28873   2.35170   2.35834   2.39543   2.43665
 Alpha virt. eigenvalues --    2.45219   2.48092   2.49324   2.50024   2.54319
 Alpha virt. eigenvalues --    2.55916   2.58118   2.59370   2.61702   2.65066
 Alpha virt. eigenvalues --    2.66714   2.67333   2.68653   2.70414   2.73979
 Alpha virt. eigenvalues --    2.74545   2.79169   2.86775   2.87508   2.89163
 Alpha virt. eigenvalues --    2.89939   2.96681   2.99766   3.03676   3.07721
 Alpha virt. eigenvalues --    3.18522   3.19353   3.30573   3.32712   3.33885
 Alpha virt. eigenvalues --    3.35983   3.42239   3.44061   3.46236   3.48776
 Alpha virt. eigenvalues --    3.50285   3.54741   3.63276   3.65441   3.66041
 Alpha virt. eigenvalues --    3.69401   3.74497   3.78298   3.85367   3.90381
 Alpha virt. eigenvalues --    3.94796   4.00064   4.03866   4.06364   4.07842
 Alpha virt. eigenvalues --    4.12776   4.20284   4.22440   4.28522   4.32190
 Alpha virt. eigenvalues --    4.40332   4.43537   4.56260   4.62144   4.63315
 Alpha virt. eigenvalues --    4.67845   4.83519   4.87793   4.92796   4.99849
 Alpha virt. eigenvalues --    5.04060   5.04714   5.08998   5.12170   5.13044
 Alpha virt. eigenvalues --    5.22016   5.27477   5.31292   5.36104   5.43562
 Alpha virt. eigenvalues --    5.45337   5.52943   5.54553   5.57745   5.60137
 Alpha virt. eigenvalues --    5.66054   5.66284   5.70967   5.72691   5.78023
 Alpha virt. eigenvalues --    5.80354   5.83777   5.86108   5.91596   5.96258
 Alpha virt. eigenvalues --    5.97282   5.99674   6.03636   6.05939   6.08084
 Alpha virt. eigenvalues --    6.10768   6.15572   6.16506   6.18839   6.20078
 Alpha virt. eigenvalues --    6.22951   6.25241   6.26675   6.28130   6.34162
 Alpha virt. eigenvalues --    6.36378   6.37444   6.41116   6.45300   6.49459
 Alpha virt. eigenvalues --    6.50732   6.52868   6.54252   6.61211   6.66293
 Alpha virt. eigenvalues --    6.67891   6.69697   6.71243   6.76638   6.80432
 Alpha virt. eigenvalues --    6.83387   6.88421   6.96526   7.02093   7.04730
 Alpha virt. eigenvalues --    7.05854   7.09776   7.14690   7.16247   7.18974
 Alpha virt. eigenvalues --    7.37260   7.40197   7.46737   7.53534   7.57466
 Alpha virt. eigenvalues --    7.60132   7.61136   7.64178   7.68674   7.70105
 Alpha virt. eigenvalues --    7.71103   7.71733   7.76425   7.78666   7.80824
 Alpha virt. eigenvalues --    7.86615   7.88850   7.91938   8.03169   8.04284
 Alpha virt. eigenvalues --    8.08029   8.09944   8.13267   8.16997   8.19335
 Alpha virt. eigenvalues --    8.22649   8.28225   8.30383   8.33676   8.35453
 Alpha virt. eigenvalues --    8.39365   8.40775   8.45729   8.52488   8.56071
 Alpha virt. eigenvalues --    8.61380   8.62939   8.64468   8.71234   8.76704
 Alpha virt. eigenvalues --    8.83376   8.90273   8.93852   8.98660   9.08215
 Alpha virt. eigenvalues --    9.08905   9.13161   9.23164   9.31767   9.35551
 Alpha virt. eigenvalues --    9.37724   9.50176   9.62654   9.74737   9.83906
 Alpha virt. eigenvalues --    9.87685   9.91229   9.93801   9.94520  10.00747
 Alpha virt. eigenvalues --   10.11466  10.11650  10.22287  10.33234  10.36775
 Alpha virt. eigenvalues --   10.45094  10.55696  10.60162  10.66364  10.94067
 Alpha virt. eigenvalues --   11.06606  11.25690  11.28529  11.32435  11.55044
 Alpha virt. eigenvalues --   11.67684  11.77988  11.89352  12.04790  12.12188
 Alpha virt. eigenvalues --   12.34764  12.38568  12.52707  12.61453  13.03044
 Alpha virt. eigenvalues --   13.08765  13.43103  13.88785  14.35862  14.81851
 Alpha virt. eigenvalues --   28.69230  28.93582  29.53009  48.67835 148.28478
 Alpha virt. eigenvalues --  148.50047 149.13607 254.44260
          Condensed to atoms (all electrons):
               1          2          3          4          5          6
     1  C    4.491035   0.625506   0.364532  -0.050782  -0.031552  -0.004648
     2  O    0.625506   7.875105  -0.092010   0.006818   0.004757   0.000376
     3  C    0.364532  -0.092010   5.184798   0.473197   0.367627  -0.053223
     4  C   -0.050782   0.006818   0.473197   4.877586  -0.040872   0.423871
     5  H   -0.031552   0.004757   0.367627  -0.040872   0.583976   0.005925
     6  H   -0.004648   0.000376  -0.053223   0.423871   0.005925   0.584030
     7  H    0.002233  -0.000465  -0.029030   0.414944  -0.004912  -0.041562
     8  H    0.452614  -0.077616  -0.176051   0.028015   0.007666   0.005670
               7          8
     1  C    0.002233   0.452614
     2  O   -0.000465  -0.077616
     3  C   -0.029030  -0.176051
     4  C    0.414944   0.028015
     5  H   -0.004912   0.007666
     6  H   -0.041562   0.005670
     7  H    0.559757  -0.000576
     8  H   -0.000576   0.682810
 Mulliken charges:
               1
     1  C    0.151061
     2  O   -0.342471
     3  C   -0.039841
     4  C   -0.132776
     5  H    0.107386
     6  H    0.079562
     7  H    0.099612
     8  H    0.077467
 Sum of Mulliken charges =   0.00000
 Mulliken charges with hydrogens summed into heavy atoms:
               1
     1  C    0.228529
     2  O   -0.342471
     3  C    0.067545
     4  C    0.046397
 Electronic spatial extent (au):  <R**2>=            296.8843
 Charge=              0.0000 electrons
 Dipole moment (field-independent basis, Debye):
    X=              3.3955    Y=              0.8058    Z=              0.0519  Tot=              3.4902
 Quadrupole moment (field-independent basis, Debye-Ang):
   XX=            -27.2350   YY=            -21.8248   ZZ=            -25.1294
   XY=             -1.0626   XZ=             -0.1873   YZ=              0.0501
 Traceless Quadrupole moment (field-independent basis, Debye-Ang):
   XX=             -2.5052   YY=              2.9049   ZZ=             -0.3997
   XY=             -1.0626   XZ=             -0.1873   YZ=              0.0501
 Octapole moment (field-independent basis, Debye-Ang**2):
  XXX=             15.1115  YYY=              0.0629  ZZZ=             -0.0924  XYY=             -0.4470
  XXY=              0.5547  XXZ=             -0.0577  XZZ=             -4.4612  YZZ=              0.1666
  YYZ=             -0.0540  XYZ=              0.1161
 Hexadecapole moment (field-independent basis, Debye-Ang**3):
 XXXX=           -299.8881 YYYY=            -54.2977 ZZZZ=            -27.2866 XXXY=             -3.7018
 XXXZ=             -0.8163 YYYX=              0.0142 YYYZ=              0.0639 ZZZX=              0.0816
 ZZZY=              0.0826 XXYY=            -58.2995 XXZZ=            -57.2835 YYZZ=            -15.1477
 XXYZ=              0.3215 YYXZ=              0.0963 ZZXY=              0.3538
 N-N= 1.037345317773D+02 E-N=-6.555996530213D+02  KE= 1.911037744434D+02
 Leave Link  601 at Wed Aug 26 15:04:52 2020, MaxMem=  2097152000 cpu:         0.5
 (Enter /opt/cluster/programs/g09/g09_d.01/g09/l9999.exe)
 1\1\GINC-NODE28\SP\RB2PLYPD3-FC\def2QZVP\C3H4O1\BOITTIER\26-Aug-2020\0
 \\#p B2PLYPD3/Def2QZVP\\acrolein\\0,1\C,0,-5.005394,-1.377097,0.866112
 \O,0,-3.931105,-0.876604,0.679353\C,0,-5.200017,-2.813215,1.119062\C,0
 ,-6.39967,-3.310708,1.421024\H,0,-4.360164,-3.439844,1.116909\H,0,-7.2
 51956,-2.66349,1.404587\H,0,-6.598699,-4.374645,1.645919\H,0,-5.903445
 ,-0.78921,0.947849\\Version=ES64L-G09RevD.01\State=1-A\HF=-191.6153984
 \MP2=-191.8616302\RMSD=9.306e-09\PG=C01 [X(C3H4O1)]\\@


 IN SO FAR AS QUANTUM MECHANICS IS CORRECT, CHEMICAL 
 QUESTIONS ARE PROBLEMS IN APPLIED MATHEMATICS.

                    -- EYRING, WALTER, & KIMBALL, 1944
 Job cpu time:       0 days  0 hours 15 minutes 11.0 seconds.
 File lengths (MBytes):  RWF=     49 Int=      0 D2E=      0 Chk=      7 Scr=      1
 Normal termination of Gaussian 09 at Wed Aug 26 15:04:52 2020.
