 Entering Gaussian System, Link 0=/opt/cluster/programs/g09/g09_d.01/g09//g09
 Input=/home/boittier/MDCM/nms_sampling/acrolein_geom.xyz.dir/energies/acrolein_396_energy.com
 Output=/scratch/boittier/acrolein_396_energy/acrolein_396_energy.out
 Initial command:
 /opt/cluster/programs/g09/g09_d.01/g09/l1.exe "/scratch/boittier/acrolein_396_energy/Gau-73593.inp" -scrdir="/scratch/boittier/acrolein_396_energy/"
 Entering Link 1 = /opt/cluster/programs/g09/g09_d.01/g09/l1.exe PID=     73594.
  
 Copyright (c) 1988,1990,1992,1993,1995,1998,2003,2009,2013,
            Gaussian, Inc.  All Rights Reserved.
  
 This is part of the Gaussian(R) 09 program.  It is based on
 the Gaussian(R) 03 system (copyright 2003, Gaussian, Inc.),
 the Gaussian(R) 98 system (copyright 1998, Gaussian, Inc.),
 the Gaussian(R) 94 system (copyright 1995, Gaussian, Inc.),
 the Gaussian 92(TM) system (copyright 1992, Gaussian, Inc.),
 the Gaussian 90(TM) system (copyright 1990, Gaussian, Inc.),
 the Gaussian 88(TM) system (copyright 1988, Gaussian, Inc.),
 the Gaussian 86(TM) system (copyright 1986, Carnegie Mellon
 University), and the Gaussian 82(TM) system (copyright 1983,
 Carnegie Mellon University). Gaussian is a federally registered
 trademark of Gaussian, Inc.
  
 This software contains proprietary and confidential information,
 including trade secrets, belonging to Gaussian, Inc.
  
 This software is provided under written license and may be
 used, copied, transmitted, or stored only in accord with that
 written license.
  
 The following legend is applicable only to US Government
 contracts under FAR:
  
                    RESTRICTED RIGHTS LEGEND
  
 Use, reproduction and disclosure by the US Government is
 subject to restrictions as set forth in subparagraphs (a)
 and (c) of the Commercial Computer Software - Restricted
 Rights clause in FAR 52.227-19.
  
 Gaussian, Inc.
 340 Quinnipiac St., Bldg. 40, Wallingford CT 06492
  
  
 ---------------------------------------------------------------
 Warning -- This program may not be used in any manner that
 competes with the business of Gaussian, Inc. or will provide
 assistance to any competitor of Gaussian, Inc.  The licensee
 of this program is prohibited from giving any competitor of
 Gaussian, Inc. access to this program.  By using this program,
 the user acknowledges that Gaussian, Inc. is engaged in the
 business of creating and licensing software in the field of
 computational chemistry and represents and warrants to the
 licensee that it is not a competitor of Gaussian, Inc. and that
 it will not use this program in any manner prohibited above.
 ---------------------------------------------------------------
  

 Cite this work as:
 Gaussian 09, Revision D.01,
 M. J. Frisch, G. W. Trucks, H. B. Schlegel, G. E. Scuseria, 
 M. A. Robb, J. R. Cheeseman, G. Scalmani, V. Barone, B. Mennucci, 
 G. A. Petersson, H. Nakatsuji, M. Caricato, X. Li, H. P. Hratchian, 
 A. F. Izmaylov, J. Bloino, G. Zheng, J. L. Sonnenberg, M. Hada, 
 M. Ehara, K. Toyota, R. Fukuda, J. Hasegawa, M. Ishida, T. Nakajima, 
 Y. Honda, O. Kitao, H. Nakai, T. Vreven, J. A. Montgomery, Jr., 
 J. E. Peralta, F. Ogliaro, M. Bearpark, J. J. Heyd, E. Brothers, 
 K. N. Kudin, V. N. Staroverov, T. Keith, R. Kobayashi, J. Normand, 
 K. Raghavachari, A. Rendell, J. C. Burant, S. S. Iyengar, J. Tomasi, 
 M. Cossi, N. Rega, J. M. Millam, M. Klene, J. E. Knox, J. B. Cross, 
 V. Bakken, C. Adamo, J. Jaramillo, R. Gomperts, R. E. Stratmann, 
 O. Yazyev, A. J. Austin, R. Cammi, C. Pomelli, J. W. Ochterski, 
 R. L. Martin, K. Morokuma, V. G. Zakrzewski, G. A. Voth, 
 P. Salvador, J. J. Dannenberg, S. Dapprich, A. D. Daniels, 
 O. Farkas, J. B. Foresman, J. V. Ortiz, J. Cioslowski, 
 and D. J. Fox, Gaussian, Inc., Wallingford CT, 2013.
 
 ******************************************
 Gaussian 09:  ES64L-G09RevD.01 24-Apr-2013
                26-Aug-2020 
 ******************************************
 %chk=/home/boittier/MDCM/nms_sampling/acrolein_geom.xyz.dir/acrolein_396.chk
 %nproc=8
 Will use up to    8 processors via shared memory.
 %mem=16000MB
 --------------------
 #p B2PLYPD3/Def2QZVP
 --------------------
 1/38=1/1;
 2/12=2,17=6,18=5,40=1/2;
 3/5=45,7=101,11=9,16=1,25=1,30=1,74=-60/1,2,3;
 4//1;
 5/5=2,38=5/2;
 8/10=1/1;
 9/16=-3/6;
 6/7=2,8=2,9=2,10=2/1;
 99/5=1,9=1/99;
 Leave Link    1 at Wed Aug 26 15:38:07 2020, MaxMem=  2097152000 cpu:         0.2
 (Enter /opt/cluster/programs/g09/g09_d.01/g09/l101.exe)
 --------
 acrolein
 --------
 Symbolic Z-matrix:
 Charge =  0 Multiplicity = 1
 C                    -4.99826  -1.4031    0.91396 
 O                    -3.94362  -0.85658   0.64005 
 C                    -5.19677  -2.82801   1.16788 
 C                    -6.40429  -3.30265   1.39301 
 H                    -4.26673  -3.44552   1.11261 
 H                    -7.27759  -2.65701   1.40197 
 H                    -6.56612  -4.31732   1.4799 
 H                    -5.88477  -0.79537   0.92725 
 
 NAtoms=      8 NQM=        8 NQMF=       0 NMMI=      0 NMMIF=      0
                NMic=       0 NMicF=      0.
                    Isotopes and Nuclear Properties:
 (Nuclear quadrupole moments (NQMom) in fm**2, nuclear magnetic moments (NMagM)
  in nuclear magnetons)

  Atom         1           2           3           4           5           6           7           8
 IAtWgt=          12          16          12          12           1           1           1           1
 AtmWgt=  12.0000000  15.9949146  12.0000000  12.0000000   1.0078250   1.0078250   1.0078250   1.0078250
 NucSpn=           0           0           0           0           1           1           1           1
 AtZEff=   0.0000000   0.0000000   0.0000000   0.0000000   0.0000000   0.0000000   0.0000000   0.0000000
 NQMom=    0.0000000   0.0000000   0.0000000   0.0000000   0.0000000   0.0000000   0.0000000   0.0000000
 NMagM=    0.0000000   0.0000000   0.0000000   0.0000000   2.7928460   2.7928460   2.7928460   2.7928460
 AtZNuc=   6.0000000   8.0000000   6.0000000   6.0000000   1.0000000   1.0000000   1.0000000   1.0000000
 Leave Link  101 at Wed Aug 26 15:38:07 2020, MaxMem=  2097152000 cpu:         0.5
 (Enter /opt/cluster/programs/g09/g09_d.01/g09/l202.exe)
                          Input orientation:                          
 ---------------------------------------------------------------------
 Center     Atomic      Atomic             Coordinates (Angstroms)
 Number     Number       Type             X           Y           Z
 ---------------------------------------------------------------------
      1          6           0       -4.998262   -1.403095    0.913961
      2          8           0       -3.943624   -0.856584    0.640051
      3          6           0       -5.196769   -2.828012    1.167883
      4          6           0       -6.404288   -3.302653    1.393006
      5          1           0       -4.266733   -3.445521    1.112605
      6          1           0       -7.277587   -2.657010    1.401965
      7          1           0       -6.566124   -4.317319    1.479902
      8          1           0       -5.884771   -0.795368    0.927249
 ---------------------------------------------------------------------
                    Distance matrix (angstroms):
                    1          2          3          4          5
     1  C    0.000000
     2  O    1.219001   0.000000
     3  C    1.460914   2.394892   0.000000
     4  C    2.411372   3.550361   1.316840   0.000000
     5  H    2.178554   2.651472   1.117739   2.160597   0.000000
     6  H    2.646842   3.864888   2.100914   1.086088   3.125815
     7  H    3.357258   4.422617   2.047077   1.031159   2.486391
     8  H    1.074899   1.963232   2.159373   2.602558   3.110581
                    6          7          8
     6  H    0.000000
     7  H    1.808004   0.000000
     8  H    2.372973   3.629574   0.000000
 Stoichiometry    C3H4O
 Framework group  C1[X(C3H4O)]
 Deg. of freedom    18
 Full point group                 C1      NOp   1
 Largest Abelian subgroup         C1      NOp   1
 Largest concise Abelian subgroup C1      NOp   1
                         Standard orientation:                         
 ---------------------------------------------------------------------
 Center     Atomic      Atomic             Coordinates (Angstroms)
 Number     Number       Type             X           Y           Z
 ---------------------------------------------------------------------
      1          6           0       -0.656339    0.332495   -0.018478
      2          8           0       -1.793396   -0.105382    0.017970
      3          6           0        0.575901   -0.452260   -0.022251
      4          6           0        1.747880    0.147785   -0.000388
      5          1           0        0.423684   -1.559453   -0.005130
      6          1           0        1.833320    1.230389    0.015542
      7          1           0        2.619035   -0.396182    0.091688
      8          1           0       -0.533525    1.400180    0.000842
 ---------------------------------------------------------------------
 Rotational constants (GHZ):     48.8459993      4.6917541      4.2822682
 Leave Link  202 at Wed Aug 26 15:38:07 2020, MaxMem=  2097152000 cpu:         0.0
 (Enter /opt/cluster/programs/g09/g09_d.01/g09/l301.exe)
 Standard basis: def2QZVP (5D, 7F)
 Ernie: Thresh=  0.10000D-02 Tol=  0.10000D-05 Strict=F.
 There are   428 symmetry adapted cartesian basis functions of A   symmetry.
 There are   348 symmetry adapted basis functions of A   symmetry.
   348 basis functions,   520 primitive gaussians,   428 cartesian basis functions
    15 alpha electrons       15 beta electrons
       nuclear repulsion energy       103.6457521998 Hartrees.
 IExCor=  419 DFT=T Ex+Corr=B2PLYPD3 ExCW=0 ScaHFX=  0.530000
 ScaDFX=  0.470000  0.470000  0.730000  0.730000 ScalE2=  0.270000  0.270000
 IRadAn=      0 IRanWt=     -1 IRanGd=            0 ICorTp=0 IEmpDi=141
 NAtoms=    8 NActive=    8 NUniq=    8 SFac= 1.00D+00 NAtFMM=   60 NAOKFM=F Big=F
 Integral buffers will be    131072 words long.
 Regular integral format.
 Two-electron integral symmetry is turned on.
 R6Disp:  Grimme-D3(BJ) Dispersion energy=       -0.0035957236 Hartrees.
 Nuclear repulsion after empirical dispersion term =      103.6421564762 Hartrees.
 Leave Link  301 at Wed Aug 26 15:38:07 2020, MaxMem=  2097152000 cpu:         0.5
 (Enter /opt/cluster/programs/g09/g09_d.01/g09/l302.exe)
 NPDir=0 NMtPBC=     1 NCelOv=     1 NCel=       1 NClECP=     1 NCelD=      1
         NCelK=      1 NCelE2=     1 NClLst=     1 CellRange=     0.0.
 One-electron integrals computed using PRISM.
   1 Symmetry operations used in ECPInt.
 ECPInt:  NShTT=    5886 NPrTT=   14376 LenC2=    5781 LenP2D=   12190.
 LDataN:  DoStor=T MaxTD1= 8 Len=  415
 NBasis=   348 RedAO= T EigKep=  5.54D-05  NBF=   348
 NBsUse=   348 1.00D-06 EigRej= -1.00D+00 NBFU=   348
 Precomputing XC quadrature grid using
 IXCGrd= 4 IRadAn=           0 IRanWt=          -1 IRanGd=           0 AccXCQ= 0.00D+00.
 Generated NRdTot=       0 NPtTot=           0 NUsed=           0 NTot=          32
 NSgBfM=   428   428   428   428   428 MxSgAt=     8 MxSgA2=     8.
 Leave Link  302 at Wed Aug 26 15:38:08 2020, MaxMem=  2097152000 cpu:         2.8
 (Enter /opt/cluster/programs/g09/g09_d.01/g09/l303.exe)
 DipDrv:  MaxL=1.
 Leave Link  303 at Wed Aug 26 15:38:08 2020, MaxMem=  2097152000 cpu:         0.4
 (Enter /opt/cluster/programs/g09/g09_d.01/g09/l401.exe)
 ExpMin= 7.60D-02 ExpMax= 1.17D+05 ExpMxC= 1.13D+03 IAcc=2 IRadAn=         4 AccDes= 0.00D+00
 Harris functional with IExCor=  419 and IRadAn=       4 diagonalized for initial guess.
 HarFok:  IExCor=  419 AccDes= 0.00D+00 IRadAn=         4 IDoV= 1 UseB2=F ITyADJ=14
 ICtDFT=  3500011 ScaDFX=  1.000000  1.000000  1.000000  1.000000
 FoFCou: FMM=F IPFlag=           0 FMFlag=      100000 FMFlg1=           0
         NFxFlg=           0 DoJE=T BraDBF=F KetDBF=T FulRan=T
         wScrn=  0.000000 ICntrl=     500 IOpCl=  0 I1Cent=   200000004 NGrid=           0
         NMat0=    1 NMatS0=      1 NMatT0=    0 NMatD0=    1 NMtDS0=    0 NMtDT0=    0
 Petite list used in FoFCou.
 Harris En= -192.047851824901    
 JPrj=0 DoOrth=F DoCkMO=F.
 Leave Link  401 at Wed Aug 26 15:38:09 2020, MaxMem=  2097152000 cpu:         6.7
 (Enter /opt/cluster/programs/g09/g09_d.01/g09/l502.exe)
 Closed shell SCF:
 Using DIIS extrapolation, IDIIS=  1040.
 Integral symmetry usage will be decided dynamically.
 Keep R1 ints in memory in canonical form, NReq=1883905047.
 IVT=      574566 IEndB=      574566 NGot=  2097152000 MDV=   252723534
 LenX=   252723534 LenY=   252539909
 Requested convergence on RMS density matrix=1.00D-08 within 128 cycles.
 Requested convergence on MAX density matrix=1.00D-06.
 Requested convergence on             energy=1.00D-06.
 No special actions if energy rises.
 FoFCou: FMM=F IPFlag=           0 FMFlag=           0 FMFlg1=           0
         NFxFlg=           0 DoJE=F BraDBF=F KetDBF=F FulRan=T
         wScrn=  0.000000 ICntrl=     600 IOpCl=  0 I1Cent=           0 NGrid=           0
         NMat0=    1 NMatS0=  60726 NMatT0=    0 NMatD0=    1 NMtDS0=    0 NMtDT0=    0
 Symmetry not used in FoFCou.
 Integral accuracy reduced to 1.0D-05 until final iterations.

 Cycle   1  Pass 0  IDiag  1:
 E= -191.468113407063    
 DIIS: error= 2.42D-02 at cycle   1 NSaved=   1.
 NSaved= 1 IEnMin= 1 EnMin= -191.468113407063     IErMin= 1 ErrMin= 2.42D-02
 ErrMax= 2.42D-02  0.00D+00 EMaxC= 1.00D-01 BMatC= 2.59D-01 BMatP= 2.59D-01
 IDIUse=3 WtCom= 7.58D-01 WtEn= 2.42D-01
 Coeff-Com:  0.100D+01
 Coeff-En:   0.100D+01
 Coeff:      0.100D+01
 Gap=     0.291 Goal=   None    Shift=    0.000
 GapD=    0.291 DampG=1.000 DampE=0.500 DampFc=0.5000 IDamp=-1.
 Damping current iteration by 5.00D-01
 RMSDP=1.78D-03 MaxDP=2.18D-01              OVMax= 1.68D-01

 Cycle   2  Pass 0  IDiag  1:
 E= -191.539459542206     Delta-E=       -0.071346135143 Rises=F Damp=T
 DIIS: error= 9.29D-03 at cycle   2 NSaved=   2.
 NSaved= 2 IEnMin= 2 EnMin= -191.539459542206     IErMin= 2 ErrMin= 9.29D-03
 ErrMax= 9.29D-03  0.00D+00 EMaxC= 1.00D-01 BMatC= 3.39D-02 BMatP= 2.59D-01
 IDIUse=3 WtCom= 9.07D-01 WtEn= 9.29D-02
 Coeff-Com: -0.165D+00 0.117D+01
 Coeff-En:   0.000D+00 0.100D+01
 Coeff:     -0.150D+00 0.115D+01
 Gap=     0.350 Goal=   None    Shift=    0.000
 RMSDP=5.95D-04 MaxDP=7.21D-02 DE=-7.13D-02 OVMax= 1.30D-01

 Cycle   3  Pass 0  IDiag  1:
 E= -191.601374020491     Delta-E=       -0.061914478285 Rises=F Damp=F
 DIIS: error= 9.30D-03 at cycle   3 NSaved=   3.
 NSaved= 3 IEnMin= 3 EnMin= -191.601374020491     IErMin= 2 ErrMin= 9.29D-03
 ErrMax= 9.30D-03  0.00D+00 EMaxC= 1.00D-01 BMatC= 1.69D-02 BMatP= 3.39D-02
 IDIUse=3 WtCom= 9.07D-01 WtEn= 9.30D-02
 Coeff-Com: -0.192D+00 0.530D+00 0.662D+00
 Coeff-En:   0.000D+00 0.000D+00 0.100D+01
 Coeff:     -0.174D+00 0.480D+00 0.694D+00
 Gap=     0.337 Goal=   None    Shift=    0.000
 RMSDP=2.42D-04 MaxDP=1.86D-02 DE=-6.19D-02 OVMax= 4.76D-02

 Cycle   4  Pass 0  IDiag  1:
 E= -191.610584181153     Delta-E=       -0.009210160662 Rises=F Damp=F
 DIIS: error= 4.06D-03 at cycle   4 NSaved=   4.
 NSaved= 4 IEnMin= 4 EnMin= -191.610584181153     IErMin= 4 ErrMin= 4.06D-03
 ErrMax= 4.06D-03  0.00D+00 EMaxC= 1.00D-01 BMatC= 3.11D-03 BMatP= 1.69D-02
 IDIUse=3 WtCom= 9.59D-01 WtEn= 4.06D-02
 Coeff-Com: -0.604D-01 0.100D+00 0.363D+00 0.597D+00
 Coeff-En:   0.000D+00 0.000D+00 0.170D+00 0.830D+00
 Coeff:     -0.579D-01 0.963D-01 0.355D+00 0.606D+00
 Gap=     0.320 Goal=   None    Shift=    0.000
 RMSDP=1.01D-04 MaxDP=8.54D-03 DE=-9.21D-03 OVMax= 1.50D-02

 Cycle   5  Pass 0  IDiag  1:
 E= -191.613090001787     Delta-E=       -0.002505820634 Rises=F Damp=F
 DIIS: error= 3.07D-04 at cycle   5 NSaved=   5.
 NSaved= 5 IEnMin= 5 EnMin= -191.613090001787     IErMin= 5 ErrMin= 3.07D-04
 ErrMax= 3.07D-04  0.00D+00 EMaxC= 1.00D-01 BMatC= 1.31D-05 BMatP= 3.11D-03
 IDIUse=3 WtCom= 9.97D-01 WtEn= 3.07D-03
 Coeff-Com: -0.986D-02 0.133D-01 0.661D-01 0.143D+00 0.787D+00
 Coeff-En:   0.000D+00 0.000D+00 0.000D+00 0.000D+00 0.100D+01
 Coeff:     -0.983D-02 0.133D-01 0.659D-01 0.143D+00 0.788D+00
 Gap=     0.319 Goal=   None    Shift=    0.000
 RMSDP=7.60D-06 MaxDP=3.56D-04 DE=-2.51D-03 OVMax= 2.40D-03

 Initial convergence to 1.0D-05 achieved.  Increase integral accuracy.
 Cycle   6  Pass 1  IDiag  1:
 E= -191.613095792825     Delta-E=       -0.000005791038 Rises=F Damp=F
 DIIS: error= 1.06D-04 at cycle   1 NSaved=   1.
 NSaved= 1 IEnMin= 1 EnMin= -191.613095792825     IErMin= 1 ErrMin= 1.06D-04
 ErrMax= 1.06D-04  0.00D+00 EMaxC= 1.00D-01 BMatC= 1.89D-06 BMatP= 1.89D-06
 IDIUse=3 WtCom= 9.99D-01 WtEn= 1.06D-03
 Coeff-Com:  0.100D+01
 Coeff-En:   0.100D+01
 Coeff:      0.100D+01
 Gap=     0.320 Goal=   None    Shift=    0.000
 RMSDP=7.60D-06 MaxDP=3.56D-04 DE=-5.79D-06 OVMax= 7.59D-04

 Cycle   7  Pass 1  IDiag  1:
 E= -191.613096759436     Delta-E=       -0.000000966611 Rises=F Damp=F
 DIIS: error= 9.28D-05 at cycle   2 NSaved=   2.
 NSaved= 2 IEnMin= 2 EnMin= -191.613096759436     IErMin= 2 ErrMin= 9.28D-05
 ErrMax= 9.28D-05  0.00D+00 EMaxC= 1.00D-01 BMatC= 1.35D-06 BMatP= 1.89D-06
 IDIUse=1 WtCom= 1.00D+00 WtEn= 0.00D+00
 Coeff-Com:  0.454D+00 0.546D+00
 Coeff:      0.454D+00 0.546D+00
 Gap=     0.319 Goal=   None    Shift=    0.000
 RMSDP=2.14D-06 MaxDP=1.68D-04 DE=-9.67D-07 OVMax= 6.51D-04

 Cycle   8  Pass 1  IDiag  1:
 E= -191.613098058210     Delta-E=       -0.000001298774 Rises=F Damp=F
 DIIS: error= 1.66D-05 at cycle   3 NSaved=   3.
 NSaved= 3 IEnMin= 3 EnMin= -191.613098058210     IErMin= 3 ErrMin= 1.66D-05
 ErrMax= 1.66D-05  0.00D+00 EMaxC= 1.00D-01 BMatC= 6.99D-08 BMatP= 1.35D-06
 IDIUse=1 WtCom= 1.00D+00 WtEn= 0.00D+00
 Coeff-Com:  0.647D-01 0.175D+00 0.760D+00
 Coeff:      0.647D-01 0.175D+00 0.760D+00
 Gap=     0.320 Goal=   None    Shift=    0.000
 RMSDP=1.38D-06 MaxDP=1.59D-04 DE=-1.30D-06 OVMax= 1.00D-04

 Cycle   9  Pass 1  IDiag  1:
 E= -191.613098130887     Delta-E=       -0.000000072677 Rises=F Damp=F
 DIIS: error= 1.23D-05 at cycle   4 NSaved=   4.
 NSaved= 4 IEnMin= 4 EnMin= -191.613098130887     IErMin= 4 ErrMin= 1.23D-05
 ErrMax= 1.23D-05  0.00D+00 EMaxC= 1.00D-01 BMatC= 1.34D-08 BMatP= 6.99D-08
 IDIUse=1 WtCom= 1.00D+00 WtEn= 0.00D+00
 Coeff-Com: -0.980D-01-0.623D-01 0.318D+00 0.842D+00
 Coeff:     -0.980D-01-0.623D-01 0.318D+00 0.842D+00
 Gap=     0.320 Goal=   None    Shift=    0.000
 RMSDP=6.87D-07 MaxDP=7.45D-05 DE=-7.27D-08 OVMax= 1.01D-04

 Cycle  10  Pass 1  IDiag  1:
 E= -191.613098152033     Delta-E=       -0.000000021146 Rises=F Damp=F
 DIIS: error= 3.88D-06 at cycle   5 NSaved=   5.
 NSaved= 5 IEnMin= 5 EnMin= -191.613098152033     IErMin= 5 ErrMin= 3.88D-06
 ErrMax= 3.88D-06  0.00D+00 EMaxC= 1.00D-01 BMatC= 3.18D-09 BMatP= 1.34D-08
 IDIUse=1 WtCom= 1.00D+00 WtEn= 0.00D+00
 Coeff-Com: -0.549D-01-0.444D-01 0.848D-01 0.454D+00 0.560D+00
 Coeff:     -0.549D-01-0.444D-01 0.848D-01 0.454D+00 0.560D+00
 Gap=     0.320 Goal=   None    Shift=    0.000
 RMSDP=1.90D-07 MaxDP=2.11D-05 DE=-2.11D-08 OVMax= 1.69D-05

 Cycle  11  Pass 1  IDiag  1:
 E= -191.613098154393     Delta-E=       -0.000000002360 Rises=F Damp=F
 DIIS: error= 1.05D-06 at cycle   6 NSaved=   6.
 NSaved= 6 IEnMin= 6 EnMin= -191.613098154393     IErMin= 6 ErrMin= 1.05D-06
 ErrMax= 1.05D-06  0.00D+00 EMaxC= 1.00D-01 BMatC= 1.67D-10 BMatP= 3.18D-09
 IDIUse=1 WtCom= 1.00D+00 WtEn= 0.00D+00
 Coeff-Com:  0.657D-02 0.231D-02-0.583D-01-0.150D-01 0.124D+00 0.941D+00
 Coeff:      0.657D-02 0.231D-02-0.583D-01-0.150D-01 0.124D+00 0.941D+00
 Gap=     0.320 Goal=   None    Shift=    0.000
 RMSDP=5.51D-08 MaxDP=5.95D-06 DE=-2.36D-09 OVMax= 6.74D-06

 Cycle  12  Pass 1  IDiag  1:
 E= -191.613098154597     Delta-E=       -0.000000000204 Rises=F Damp=F
 DIIS: error= 2.57D-07 at cycle   7 NSaved=   7.
 NSaved= 7 IEnMin= 7 EnMin= -191.613098154597     IErMin= 7 ErrMin= 2.57D-07
 ErrMax= 2.57D-07  0.00D+00 EMaxC= 1.00D-01 BMatC= 1.61D-11 BMatP= 1.67D-10
 IDIUse=1 WtCom= 1.00D+00 WtEn= 0.00D+00
 Coeff-Com:  0.577D-02 0.376D-02-0.284D-01-0.292D-01-0.185D-02 0.323D+00
 Coeff-Com:  0.727D+00
 Coeff:      0.577D-02 0.376D-02-0.284D-01-0.292D-01-0.185D-02 0.323D+00
 Coeff:      0.727D+00
 Gap=     0.320 Goal=   None    Shift=    0.000
 RMSDP=9.10D-09 MaxDP=4.37D-07 DE=-2.04D-10 OVMax= 1.42D-06

 SCF Done:  E(RB2PLYPD3) =  -191.613098155     A.U. after   12 cycles
            NFock= 12  Conv=0.91D-08     -V/T= 2.0027
 KE= 1.910886203907D+02 PE=-6.554153724896D+02 EE= 1.690714974681D+02
 Leave Link  502 at Wed Aug 26 15:39:19 2020, MaxMem=  2097152000 cpu:       317.4
 (Enter /opt/cluster/programs/g09/g09_d.01/g09/l801.exe)
 DoSCS=T DFT=T ScalE2(SS,OS)=  0.270000  0.270000
 ExpMin= 7.60D-02 ExpMax= 1.17D+05 ExpMxC= 1.13D+03 IAcc=3 IRadAn=         5 AccDes= 0.00D+00
 HarFok:  IExCor=  205 AccDes= 0.00D+00 IRadAn=         5 IDoV=-2 UseB2=F ITyADJ=14
 ICtDFT= 12500011 ScaDFX=  1.000000  1.000000  1.000000  1.000000
 Largest valence mixing into a core orbital is  1.14D-04
 Largest core mixing into a valence orbital is  1.85D-05
 Range of M.O.s used for correlation:     5   348
 NBasis=   348 NAE=    15 NBE=    15 NFC=     4 NFV=     0
 NROrb=    344 NOA=    11 NOB=    11 NVA=   333 NVB=   333

 **** Warning!!: The largest alpha MO coefficient is  0.29998161D+02

 Leave Link  801 at Wed Aug 26 15:39:19 2020, MaxMem=  2097152000 cpu:         0.8
 (Enter /opt/cluster/programs/g09/g09_d.01/g09/l906.exe)
 DoSCS=T DFT=T ScalE2(SS,OS)=  0.270000  0.270000
 FulOut=F Deriv=F AODrv=F NAtomX=     8
   MMem=        1190  MDisk=          11 MDiskD=          11
  W3Min=     1567764 MinDsk=     2827057 NBas6D=         428
 NBas2D=       93150    NTT=       91806    LW2=     4508827
    MDV=  2096570324 MDiskM=       10875 NBas2p=       89544
 Fully direct method using O(OVN) memory.
 IMap=   1   2   3   4   5   6   7   8   9  10  11
 JobTyp=1 Pass  1:  I=   1 to  11 NPSUse=  8 ParTrn=T ParDer=T DoDerP=F.
 Spin components of T(2) and E(2):
     alpha-alpha T2 =       0.4350839248D-01 E2=     -0.2946141559D-01
     alpha-beta  T2 =       0.2645563044D+00 E2=     -0.1879469535D+00
     beta-beta   T2 =       0.4350839248D-01 E2=     -0.2946141559D-01
 The integrals were generated   1 times.
 E2(B2PLYPD3) =    -0.2468697847D+00 E(B2PLYPD3) =    -0.19185996793930D+03
 Leave Link  906 at Wed Aug 26 15:40:06 2020, MaxMem=  2097152000 cpu:       378.1
 (Enter /opt/cluster/programs/g09/g09_d.01/g09/l601.exe)
 Copying SCF densities to generalized density rwf, IOpCl= 0 IROHF=0.

 **********************************************************************

            Population analysis using the SCF density.

 **********************************************************************

 Orbital symmetries:
       Occupied  (A) (A) (A) (A) (A) (A) (A) (A) (A) (A) (A) (A)
                 (A) (A) (A)
       Virtual   (A) (A) (A) (A) (A) (A) (A) (A) (A) (A) (A) (A)
                 (A) (A) (A) (A) (A) (A) (A) (A) (A) (A) (A) (A)
                 (A) (A) (A) (A) (A) (A) (A) (A) (A) (A) (A) (A)
                 (A) (A) (A) (A) (A) (A) (A) (A) (A) (A) (A) (A)
                 (A) (A) (A) (A) (A) (A) (A) (A) (A) (A) (A) (A)
                 (A) (A) (A) (A) (A) (A) (A) (A) (A) (A) (A) (A)
                 (A) (A) (A) (A) (A) (A) (A) (A) (A) (A) (A) (A)
                 (A) (A) (A) (A) (A) (A) (A) (A) (A) (A) (A) (A)
                 (A) (A) (A) (A) (A) (A) (A) (A) (A) (A) (A) (A)
                 (A) (A) (A) (A) (A) (A) (A) (A) (A) (A) (A) (A)
                 (A) (A) (A) (A) (A) (A) (A) (A) (A) (A) (A) (A)
                 (A) (A) (A) (A) (A) (A) (A) (A) (A) (A) (A) (A)
                 (A) (A) (A) (A) (A) (A) (A) (A) (A) (A) (A) (A)
                 (A) (A) (A) (A) (A) (A) (A) (A) (A) (A) (A) (A)
                 (A) (A) (A) (A) (A) (A) (A) (A) (A) (A) (A) (A)
                 (A) (A) (A) (A) (A) (A) (A) (A) (A) (A) (A) (A)
                 (A) (A) (A) (A) (A) (A) (A) (A) (A) (A) (A) (A)
                 (A) (A) (A) (A) (A) (A) (A) (A) (A) (A) (A) (A)
                 (A) (A) (A) (A) (A) (A) (A) (A) (A) (A) (A) (A)
                 (A) (A) (A) (A) (A) (A) (A) (A) (A) (A) (A) (A)
                 (A) (A) (A) (A) (A) (A) (A) (A) (A) (A) (A) (A)
                 (A) (A) (A) (A) (A) (A) (A) (A) (A) (A) (A) (A)
                 (A) (A) (A) (A) (A) (A) (A) (A) (A) (A) (A) (A)
                 (A) (A) (A) (A) (A) (A) (A) (A) (A) (A) (A) (A)
                 (A) (A) (A) (A) (A) (A) (A) (A) (A) (A) (A) (A)
                 (A) (A) (A) (A) (A) (A) (A) (A) (A) (A) (A) (A)
                 (A) (A) (A) (A) (A) (A) (A) (A) (A) (A) (A) (A)
                 (A) (A) (A) (A) (A) (A) (A) (A) (A)
 The electronic state is 1-A.
 Alpha  occ. eigenvalues --  -19.72600 -10.71081 -10.64932 -10.64618  -1.18859
 Alpha  occ. eigenvalues --   -0.93697  -0.76170  -0.66996  -0.57030  -0.56721
 Alpha  occ. eigenvalues --   -0.50567  -0.46836  -0.46469  -0.35043  -0.33740
 Alpha virt. eigenvalues --   -0.01783   0.05809   0.07100   0.08328   0.09734
 Alpha virt. eigenvalues --    0.12722   0.14152   0.15274   0.17230   0.19798
 Alpha virt. eigenvalues --    0.19964   0.22021   0.25440   0.26595   0.28718
 Alpha virt. eigenvalues --    0.31435   0.34077   0.35448   0.37407   0.39153
 Alpha virt. eigenvalues --    0.39906   0.41692   0.42936   0.44226   0.46586
 Alpha virt. eigenvalues --    0.48151   0.49445   0.53415   0.53818   0.57080
 Alpha virt. eigenvalues --    0.58467   0.64399   0.66018   0.69149   0.71078
 Alpha virt. eigenvalues --    0.75340   0.76394   0.78792   0.79971   0.81161
 Alpha virt. eigenvalues --    0.81729   0.81949   0.82554   0.84220   0.86236
 Alpha virt. eigenvalues --    0.88422   0.91700   0.92474   0.93999   0.95885
 Alpha virt. eigenvalues --    0.96646   0.98037   1.01553   1.02357   1.06891
 Alpha virt. eigenvalues --    1.10292   1.13259   1.15070   1.16203   1.18799
 Alpha virt. eigenvalues --    1.20927   1.25243   1.27447   1.36415   1.41005
 Alpha virt. eigenvalues --    1.43985   1.47521   1.48194   1.55126   1.56704
 Alpha virt. eigenvalues --    1.62659   1.63207   1.65784   1.67346   1.71073
 Alpha virt. eigenvalues --    1.73774   1.75833   1.77383   1.82011   1.83283
 Alpha virt. eigenvalues --    1.86982   1.88461   1.90402   1.93243   1.94467
 Alpha virt. eigenvalues --    1.96811   1.98509   2.00076   2.02211   2.03675
 Alpha virt. eigenvalues --    2.06122   2.09859   2.11348   2.13774   2.14942
 Alpha virt. eigenvalues --    2.16757   2.18544   2.20831   2.24279   2.26843
 Alpha virt. eigenvalues --    2.29813   2.36832   2.37443   2.41568   2.45271
 Alpha virt. eigenvalues --    2.46052   2.46892   2.48579   2.49407   2.54148
 Alpha virt. eigenvalues --    2.55641   2.57682   2.59287   2.62027   2.63803
 Alpha virt. eigenvalues --    2.65403   2.67233   2.67806   2.71310   2.75224
 Alpha virt. eigenvalues --    2.77411   2.78081   2.86268   2.88025   2.89041
 Alpha virt. eigenvalues --    2.90977   2.97119   2.99875   3.02407   3.05834
 Alpha virt. eigenvalues --    3.17785   3.20294   3.30474   3.30759   3.37326
 Alpha virt. eigenvalues --    3.37418   3.40603   3.42603   3.47738   3.53044
 Alpha virt. eigenvalues --    3.55626   3.57058   3.59032   3.63193   3.65306
 Alpha virt. eigenvalues --    3.68030   3.78109   3.79079   3.83392   3.93732
 Alpha virt. eigenvalues --    3.96282   3.99955   4.03277   4.05371   4.06249
 Alpha virt. eigenvalues --    4.13854   4.18939   4.19874   4.25127   4.32856
 Alpha virt. eigenvalues --    4.39443   4.43125   4.56369   4.61365   4.63288
 Alpha virt. eigenvalues --    4.67318   4.81343   4.88460   4.92148   4.98419
 Alpha virt. eigenvalues --    5.04700   5.08277   5.10786   5.11980   5.13440
 Alpha virt. eigenvalues --    5.21463   5.28006   5.30301   5.35821   5.43792
 Alpha virt. eigenvalues --    5.44333   5.54149   5.54266   5.59050   5.60208
 Alpha virt. eigenvalues --    5.69025   5.71362   5.73420   5.76491   5.78132
 Alpha virt. eigenvalues --    5.78425   5.79960   5.87392   5.90082   5.96223
 Alpha virt. eigenvalues --    5.98429   6.00217   6.02189   6.04596   6.08412
 Alpha virt. eigenvalues --    6.08905   6.14965   6.16353   6.18707   6.19610
 Alpha virt. eigenvalues --    6.20843   6.25815   6.27043   6.30403   6.32149
 Alpha virt. eigenvalues --    6.33661   6.35257   6.39906   6.44004   6.47960
 Alpha virt. eigenvalues --    6.51091   6.52733   6.57064   6.62029   6.62715
 Alpha virt. eigenvalues --    6.64702   6.72378   6.75240   6.77338   6.80833
 Alpha virt. eigenvalues --    6.86909   6.88803   7.01260   7.04322   7.05760
 Alpha virt. eigenvalues --    7.10980   7.15241   7.16201   7.18243   7.28091
 Alpha virt. eigenvalues --    7.30209   7.43112   7.43769   7.48773   7.49276
 Alpha virt. eigenvalues --    7.56491   7.58092   7.59987   7.65378   7.66578
 Alpha virt. eigenvalues --    7.69562   7.70473   7.73439   7.75989   7.80072
 Alpha virt. eigenvalues --    7.86920   7.87330   7.95482   8.00812   8.07830
 Alpha virt. eigenvalues --    8.10246   8.11910   8.16421   8.19471   8.22595
 Alpha virt. eigenvalues --    8.25734   8.29277   8.29977   8.34346   8.34913
 Alpha virt. eigenvalues --    8.36695   8.47060   8.49846   8.53213   8.56906
 Alpha virt. eigenvalues --    8.59019   8.61712   8.63515   8.69663   8.72441
 Alpha virt. eigenvalues --    8.90051   8.97678   9.00507   9.04922   9.08407
 Alpha virt. eigenvalues --    9.10465   9.11678   9.19279   9.29341   9.35078
 Alpha virt. eigenvalues --    9.39754   9.43799   9.62124   9.70930   9.80536
 Alpha virt. eigenvalues --    9.82805   9.94722   9.99567  10.02629  10.05924
 Alpha virt. eigenvalues --   10.08892  10.09477  10.18055  10.25285  10.28727
 Alpha virt. eigenvalues --   10.40749  10.42331  10.53184  10.83300  11.03476
 Alpha virt. eigenvalues --   11.18664  11.25734  11.29395  11.38740  11.57698
 Alpha virt. eigenvalues --   11.65891  11.66627  11.78967  12.04398  12.11469
 Alpha virt. eigenvalues --   12.32144  12.36274  12.48238  12.59514  12.91483
 Alpha virt. eigenvalues --   13.21994  13.33999  13.74425  14.37688  14.68663
 Alpha virt. eigenvalues --   28.60000  28.93819  29.62944  48.65904 148.19005
 Alpha virt. eigenvalues --  148.50202 149.24933 254.41913
          Condensed to atoms (all electrons):
               1          2          3          4          5          6
     1  C    4.492539   0.628331   0.366145  -0.057848  -0.029409  -0.004445
     2  O    0.628331   7.890910  -0.087729   0.005579   0.007780   0.000436
     3  C    0.366145  -0.087729   5.162668   0.488018   0.364110  -0.051034
     4  C   -0.057848   0.005579   0.488018   4.859214  -0.037464   0.427606
     5  H   -0.029409   0.007780   0.364110  -0.037464   0.585343   0.005372
     6  H   -0.004445   0.000436  -0.051034   0.427606   0.005372   0.570582
     7  H    0.003140  -0.000663  -0.038208   0.420657  -0.005623  -0.041633
     8  H    0.444952  -0.087661  -0.171763   0.021034   0.010230   0.006944
               7          8
     1  C    0.003140   0.444952
     2  O   -0.000663  -0.087661
     3  C   -0.038208  -0.171763
     4  C    0.420657   0.021034
     5  H   -0.005623   0.010230
     6  H   -0.041633   0.006944
     7  H    0.558347  -0.000819
     8  H   -0.000819   0.708329
 Mulliken charges:
               1
     1  C    0.156595
     2  O   -0.356982
     3  C   -0.032208
     4  C   -0.126796
     5  H    0.099662
     6  H    0.086173
     7  H    0.104803
     8  H    0.068753
 Sum of Mulliken charges =   0.00000
 Mulliken charges with hydrogens summed into heavy atoms:
               1
     1  C    0.225348
     2  O   -0.356982
     3  C    0.067454
     4  C    0.064180
 Electronic spatial extent (au):  <R**2>=            296.3573
 Charge=              0.0000 electrons
 Dipole moment (field-independent basis, Debye):
    X=              3.5995    Y=              0.7285    Z=              0.0274  Tot=              3.6726
 Quadrupole moment (field-independent basis, Debye-Ang):
   XX=            -27.5631   YY=            -21.6883   ZZ=            -25.0959
   XY=             -0.7879   XZ=              0.3373   YZ=             -0.0287
 Traceless Quadrupole moment (field-independent basis, Debye-Ang):
   XX=             -2.7807   YY=              3.0942   ZZ=             -0.3135
   XY=             -0.7879   XZ=              0.3373   YZ=             -0.0287
 Octapole moment (field-independent basis, Debye-Ang**2):
  XXX=             15.4274  YYY=              0.0687  ZZZ=              0.2170  XYY=             -0.1212
  XXY=              1.0451  XXZ=              0.5394  XZZ=             -4.0177  YZZ=              0.2372
  YYZ=              0.1341  XYZ=             -0.0877
 Hexadecapole moment (field-independent basis, Debye-Ang**3):
 XXXX=           -300.8057 YYYY=            -54.6439 ZZZZ=            -27.0967 XXXY=             -2.3553
 XXXZ=              2.1636 YYYX=              0.3023 YYYZ=              0.0163 ZZZX=              0.2295
 ZZZY=             -0.0599 XXYY=            -57.7613 XXZZ=            -56.3642 YYZZ=            -15.4296
 XXYZ=             -0.3023 YYXZ=              0.1857 ZZXY=              0.2655
 N-N= 1.036421564762D+02 E-N=-6.554153421601D+02  KE= 1.910886203907D+02
 Leave Link  601 at Wed Aug 26 15:40:07 2020, MaxMem=  2097152000 cpu:         0.5
 (Enter /opt/cluster/programs/g09/g09_d.01/g09/l9999.exe)
 1\1\GINC-NODE28\SP\RB2PLYPD3-FC\def2QZVP\C3H4O1\BOITTIER\26-Aug-2020\0
 \\#p B2PLYPD3/Def2QZVP\\acrolein\\0,1\C,0,-4.998262,-1.403095,0.913961
 \O,0,-3.943624,-0.856584,0.640051\C,0,-5.196769,-2.828012,1.167883\C,0
 ,-6.404288,-3.302653,1.393006\H,0,-4.266733,-3.445521,1.112605\H,0,-7.
 277587,-2.65701,1.401965\H,0,-6.566124,-4.317319,1.479902\H,0,-5.88477
 1,-0.795368,0.927249\\Version=ES64L-G09RevD.01\State=1-A\HF=-191.61309
 82\MP2=-191.8599679\RMSD=9.101e-09\PG=C01 [X(C3H4O1)]\\@


 A people that values its privileges above its principles soon loses both.
 -- Dwight D. Eisenhower
 Job cpu time:       0 days  0 hours 11 minutes 48.5 seconds.
 File lengths (MBytes):  RWF=     49 Int=      0 D2E=      0 Chk=      7 Scr=      1
 Normal termination of Gaussian 09 at Wed Aug 26 15:40:07 2020.
