 Entering Gaussian System, Link 0=/opt/cluster/programs/g09/g09_d.01/g09//g09
 Input=/home/boittier/MDCM/nms_sampling/acrolein_geom.xyz.dir/energies/acrolein_550_energy.com
 Output=/scratch/boittier/acrolein_550_energy/acrolein_550_energy.out
 Initial command:
 /opt/cluster/programs/g09/g09_d.01/g09/l1.exe "/scratch/boittier/acrolein_550_energy/Gau-190615.inp" -scrdir="/scratch/boittier/acrolein_550_energy/"
 Entering Link 1 = /opt/cluster/programs/g09/g09_d.01/g09/l1.exe PID=    190616.
  
 Copyright (c) 1988,1990,1992,1993,1995,1998,2003,2009,2013,
            Gaussian, Inc.  All Rights Reserved.
  
 This is part of the Gaussian(R) 09 program.  It is based on
 the Gaussian(R) 03 system (copyright 2003, Gaussian, Inc.),
 the Gaussian(R) 98 system (copyright 1998, Gaussian, Inc.),
 the Gaussian(R) 94 system (copyright 1995, Gaussian, Inc.),
 the Gaussian 92(TM) system (copyright 1992, Gaussian, Inc.),
 the Gaussian 90(TM) system (copyright 1990, Gaussian, Inc.),
 the Gaussian 88(TM) system (copyright 1988, Gaussian, Inc.),
 the Gaussian 86(TM) system (copyright 1986, Carnegie Mellon
 University), and the Gaussian 82(TM) system (copyright 1983,
 Carnegie Mellon University). Gaussian is a federally registered
 trademark of Gaussian, Inc.
  
 This software contains proprietary and confidential information,
 including trade secrets, belonging to Gaussian, Inc.
  
 This software is provided under written license and may be
 used, copied, transmitted, or stored only in accord with that
 written license.
  
 The following legend is applicable only to US Government
 contracts under FAR:
  
                    RESTRICTED RIGHTS LEGEND
  
 Use, reproduction and disclosure by the US Government is
 subject to restrictions as set forth in subparagraphs (a)
 and (c) of the Commercial Computer Software - Restricted
 Rights clause in FAR 52.227-19.
  
 Gaussian, Inc.
 340 Quinnipiac St., Bldg. 40, Wallingford CT 06492
  
  
 ---------------------------------------------------------------
 Warning -- This program may not be used in any manner that
 competes with the business of Gaussian, Inc. or will provide
 assistance to any competitor of Gaussian, Inc.  The licensee
 of this program is prohibited from giving any competitor of
 Gaussian, Inc. access to this program.  By using this program,
 the user acknowledges that Gaussian, Inc. is engaged in the
 business of creating and licensing software in the field of
 computational chemistry and represents and warrants to the
 licensee that it is not a competitor of Gaussian, Inc. and that
 it will not use this program in any manner prohibited above.
 ---------------------------------------------------------------
  

 Cite this work as:
 Gaussian 09, Revision D.01,
 M. J. Frisch, G. W. Trucks, H. B. Schlegel, G. E. Scuseria, 
 M. A. Robb, J. R. Cheeseman, G. Scalmani, V. Barone, B. Mennucci, 
 G. A. Petersson, H. Nakatsuji, M. Caricato, X. Li, H. P. Hratchian, 
 A. F. Izmaylov, J. Bloino, G. Zheng, J. L. Sonnenberg, M. Hada, 
 M. Ehara, K. Toyota, R. Fukuda, J. Hasegawa, M. Ishida, T. Nakajima, 
 Y. Honda, O. Kitao, H. Nakai, T. Vreven, J. A. Montgomery, Jr., 
 J. E. Peralta, F. Ogliaro, M. Bearpark, J. J. Heyd, E. Brothers, 
 K. N. Kudin, V. N. Staroverov, T. Keith, R. Kobayashi, J. Normand, 
 K. Raghavachari, A. Rendell, J. C. Burant, S. S. Iyengar, J. Tomasi, 
 M. Cossi, N. Rega, J. M. Millam, M. Klene, J. E. Knox, J. B. Cross, 
 V. Bakken, C. Adamo, J. Jaramillo, R. Gomperts, R. E. Stratmann, 
 O. Yazyev, A. J. Austin, R. Cammi, C. Pomelli, J. W. Ochterski, 
 R. L. Martin, K. Morokuma, V. G. Zakrzewski, G. A. Voth, 
 P. Salvador, J. J. Dannenberg, S. Dapprich, A. D. Daniels, 
 O. Farkas, J. B. Foresman, J. V. Ortiz, J. Cioslowski, 
 and D. J. Fox, Gaussian, Inc., Wallingford CT, 2013.
 
 ******************************************
 Gaussian 09:  ES64L-G09RevD.01 24-Apr-2013
                26-Aug-2020 
 ******************************************
 %chk=/home/boittier/MDCM/nms_sampling/acrolein_geom.xyz.dir/acrolein_550.chk
 %nproc=8
 Will use up to    8 processors via shared memory.
 %mem=16000MB
 --------------------
 #p B2PLYPD3/Def2QZVP
 --------------------
 1/38=1/1;
 2/12=2,17=6,18=5,40=1/2;
 3/5=45,7=101,11=9,16=1,25=1,30=1,74=-60/1,2,3;
 4//1;
 5/5=2,38=5/2;
 8/10=1/1;
 9/16=-3/6;
 6/7=2,8=2,9=2,10=2/1;
 99/5=1,9=1/99;
 Leave Link    1 at Wed Aug 26 16:22:42 2020, MaxMem=  2097152000 cpu:         0.2
 (Enter /opt/cluster/programs/g09/g09_d.01/g09/l101.exe)
 --------
 acrolein
 --------
 Symbolic Z-matrix:
 Charge =  0 Multiplicity = 1
 C                    -5.01529  -1.37763   0.91316 
 O                    -3.93783  -0.87407   0.64241 
 C                    -5.18954  -2.81275   1.1689 
 C                    -6.3936   -3.30899   1.38954 
 H                    -4.31565  -3.45068   1.0825 
 H                    -7.21976  -2.68004   1.41306 
 H                    -6.59474  -4.41273   1.51917 
 H                    -5.95294  -0.78364   0.91118 
 
 NAtoms=      8 NQM=        8 NQMF=       0 NMMI=      0 NMMIF=      0
                NMic=       0 NMicF=      0.
                    Isotopes and Nuclear Properties:
 (Nuclear quadrupole moments (NQMom) in fm**2, nuclear magnetic moments (NMagM)
  in nuclear magnetons)

  Atom         1           2           3           4           5           6           7           8
 IAtWgt=          12          16          12          12           1           1           1           1
 AtmWgt=  12.0000000  15.9949146  12.0000000  12.0000000   1.0078250   1.0078250   1.0078250   1.0078250
 NucSpn=           0           0           0           0           1           1           1           1
 AtZEff=   0.0000000   0.0000000   0.0000000   0.0000000   0.0000000   0.0000000   0.0000000   0.0000000
 NQMom=    0.0000000   0.0000000   0.0000000   0.0000000   0.0000000   0.0000000   0.0000000   0.0000000
 NMagM=    0.0000000   0.0000000   0.0000000   0.0000000   2.7928460   2.7928460   2.7928460   2.7928460
 AtZNuc=   6.0000000   8.0000000   6.0000000   6.0000000   1.0000000   1.0000000   1.0000000   1.0000000
 Leave Link  101 at Wed Aug 26 16:22:42 2020, MaxMem=  2097152000 cpu:         0.6
 (Enter /opt/cluster/programs/g09/g09_d.01/g09/l202.exe)
                          Input orientation:                          
 ---------------------------------------------------------------------
 Center     Atomic      Atomic             Coordinates (Angstroms)
 Number     Number       Type             X           Y           Z
 ---------------------------------------------------------------------
      1          6           0       -5.015290   -1.377632    0.913160
      2          8           0       -3.937832   -0.874066    0.642407
      3          6           0       -5.189545   -2.812751    1.168896
      4          6           0       -6.393599   -3.308991    1.389543
      5          1           0       -4.315651   -3.450680    1.082499
      6          1           0       -7.219756   -2.680043    1.413055
      7          1           0       -6.594743   -4.412731    1.519170
      8          1           0       -5.952935   -0.783639    0.911177
 ---------------------------------------------------------------------
                    Distance matrix (angstroms):
                    1          2          3          4          5
     1  C    0.000000
     2  O    1.219755   0.000000
     3  C    1.468105   2.366955   0.000000
     4  C    2.420088   3.538059   1.320865   0.000000
     5  H    2.194470   2.641092   1.085407   2.105284   0.000000
     6  H    2.608800   3.824458   2.049142   1.038587   3.022743
     7  H    3.474730   4.511102   2.158057   1.129382   2.512068
     8  H    1.109959   2.034958   2.183227   2.607762   3.134192
                    6          7          8
     6  H    0.000000
     7  H    1.845023   0.000000
     8  H    2.335180   3.735222   0.000000
 Stoichiometry    C3H4O
 Framework group  C1[X(C3H4O)]
 Deg. of freedom    18
 Full point group                 C1      NOp   1
 Largest Abelian subgroup         C1      NOp   1
 Largest concise Abelian subgroup C1      NOp   1
                         Standard orientation:                         
 ---------------------------------------------------------------------
 Center     Atomic      Atomic             Coordinates (Angstroms)
 Number     Number       Type             X           Y           Z
 ---------------------------------------------------------------------
      1          6           0       -0.668271    0.358532   -0.018591
      2          8           0       -1.784948   -0.131029    0.015558
      3          6           0        0.560763   -0.444409   -0.028115
      4          6           0        1.742292    0.145213    0.003863
      5          1           0        0.459113   -1.523668    0.026448
      6          1           0        1.807116    1.181774    0.005289
      7          1           0        2.716393   -0.422253    0.071789
      8          1           0       -0.511742    1.456365    0.029066
 ---------------------------------------------------------------------
 Rotational constants (GHZ):     48.0469965      4.7055792      4.2875605
 Leave Link  202 at Wed Aug 26 16:22:42 2020, MaxMem=  2097152000 cpu:         0.0
 (Enter /opt/cluster/programs/g09/g09_d.01/g09/l301.exe)
 Standard basis: def2QZVP (5D, 7F)
 Ernie: Thresh=  0.10000D-02 Tol=  0.10000D-05 Strict=F.
 There are   428 symmetry adapted cartesian basis functions of A   symmetry.
 There are   348 symmetry adapted basis functions of A   symmetry.
   348 basis functions,   520 primitive gaussians,   428 cartesian basis functions
    15 alpha electrons       15 beta electrons
       nuclear repulsion energy       103.3762133175 Hartrees.
 IExCor=  419 DFT=T Ex+Corr=B2PLYPD3 ExCW=0 ScaHFX=  0.530000
 ScaDFX=  0.470000  0.470000  0.730000  0.730000 ScalE2=  0.270000  0.270000
 IRadAn=      0 IRanWt=     -1 IRanGd=            0 ICorTp=0 IEmpDi=141
 NAtoms=    8 NActive=    8 NUniq=    8 SFac= 1.00D+00 NAtFMM=   60 NAOKFM=F Big=F
 Integral buffers will be    131072 words long.
 Regular integral format.
 Two-electron integral symmetry is turned on.
 R6Disp:  Grimme-D3(BJ) Dispersion energy=       -0.0035910662 Hartrees.
 Nuclear repulsion after empirical dispersion term =      103.3726222512 Hartrees.
 Leave Link  301 at Wed Aug 26 16:22:42 2020, MaxMem=  2097152000 cpu:         0.5
 (Enter /opt/cluster/programs/g09/g09_d.01/g09/l302.exe)
 NPDir=0 NMtPBC=     1 NCelOv=     1 NCel=       1 NClECP=     1 NCelD=      1
         NCelK=      1 NCelE2=     1 NClLst=     1 CellRange=     0.0.
 One-electron integrals computed using PRISM.
   1 Symmetry operations used in ECPInt.
 ECPInt:  NShTT=    5886 NPrTT=   14376 LenC2=    5780 LenP2D=   12187.
 LDataN:  DoStor=T MaxTD1= 8 Len=  415
 NBasis=   348 RedAO= T EigKep=  5.77D-05  NBF=   348
 NBsUse=   348 1.00D-06 EigRej= -1.00D+00 NBFU=   348
 Precomputing XC quadrature grid using
 IXCGrd= 4 IRadAn=           0 IRanWt=          -1 IRanGd=           0 AccXCQ= 0.00D+00.
 Generated NRdTot=       0 NPtTot=           0 NUsed=           0 NTot=          32
 NSgBfM=   428   428   428   428   428 MxSgAt=     8 MxSgA2=     8.
 Leave Link  302 at Wed Aug 26 16:22:43 2020, MaxMem=  2097152000 cpu:         3.3
 (Enter /opt/cluster/programs/g09/g09_d.01/g09/l303.exe)
 DipDrv:  MaxL=1.
 Leave Link  303 at Wed Aug 26 16:22:43 2020, MaxMem=  2097152000 cpu:         0.4
 (Enter /opt/cluster/programs/g09/g09_d.01/g09/l401.exe)
 ExpMin= 7.60D-02 ExpMax= 1.17D+05 ExpMxC= 1.13D+03 IAcc=2 IRadAn=         4 AccDes= 0.00D+00
 Harris functional with IExCor=  419 and IRadAn=       4 diagonalized for initial guess.
 HarFok:  IExCor=  419 AccDes= 0.00D+00 IRadAn=         4 IDoV= 1 UseB2=F ITyADJ=14
 ICtDFT=  3500011 ScaDFX=  1.000000  1.000000  1.000000  1.000000
 FoFCou: FMM=F IPFlag=           0 FMFlag=      100000 FMFlg1=           0
         NFxFlg=           0 DoJE=T BraDBF=F KetDBF=T FulRan=T
         wScrn=  0.000000 ICntrl=     500 IOpCl=  0 I1Cent=   200000004 NGrid=           0
         NMat0=    1 NMatS0=      1 NMatT0=    0 NMatD0=    1 NMtDS0=    0 NMtDT0=    0
 Petite list used in FoFCou.
 Harris En= -192.046089730072    
 JPrj=0 DoOrth=F DoCkMO=F.
 Leave Link  401 at Wed Aug 26 16:22:44 2020, MaxMem=  2097152000 cpu:         7.8
 (Enter /opt/cluster/programs/g09/g09_d.01/g09/l502.exe)
 Closed shell SCF:
 Using DIIS extrapolation, IDIIS=  1040.
 Integral symmetry usage will be decided dynamically.
 Keep R1 ints in memory in canonical form, NReq=1883905047.
 IVT=      574566 IEndB=      574566 NGot=  2097152000 MDV=   252723534
 LenX=   252723534 LenY=   252539909
 Requested convergence on RMS density matrix=1.00D-08 within 128 cycles.
 Requested convergence on MAX density matrix=1.00D-06.
 Requested convergence on             energy=1.00D-06.
 No special actions if energy rises.
 FoFCou: FMM=F IPFlag=           0 FMFlag=           0 FMFlg1=           0
         NFxFlg=           0 DoJE=F BraDBF=F KetDBF=F FulRan=T
         wScrn=  0.000000 ICntrl=     600 IOpCl=  0 I1Cent=           0 NGrid=           0
         NMat0=    1 NMatS0=  60726 NMatT0=    0 NMatD0=    1 NMtDS0=    0 NMtDT0=    0
 Symmetry not used in FoFCou.
 Integral accuracy reduced to 1.0D-05 until final iterations.

 Cycle   1  Pass 0  IDiag  1:
 E= -191.468214344395    
 DIIS: error= 2.70D-02 at cycle   1 NSaved=   1.
 NSaved= 1 IEnMin= 1 EnMin= -191.468214344395     IErMin= 1 ErrMin= 2.70D-02
 ErrMax= 2.70D-02  0.00D+00 EMaxC= 1.00D-01 BMatC= 2.59D-01 BMatP= 2.59D-01
 IDIUse=3 WtCom= 7.30D-01 WtEn= 2.70D-01
 Coeff-Com:  0.100D+01
 Coeff-En:   0.100D+01
 Coeff:      0.100D+01
 Gap=     0.290 Goal=   None    Shift=    0.000
 GapD=    0.290 DampG=1.000 DampE=0.500 DampFc=0.5000 IDamp=-1.
 Damping current iteration by 5.00D-01
 RMSDP=1.82D-03 MaxDP=2.26D-01              OVMax= 1.72D-01

 Cycle   2  Pass 0  IDiag  1:
 E= -191.538807389028     Delta-E=       -0.070593044633 Rises=F Damp=T
 DIIS: error= 1.00D-02 at cycle   2 NSaved=   2.
 NSaved= 2 IEnMin= 2 EnMin= -191.538807389028     IErMin= 2 ErrMin= 1.00D-02
 ErrMax= 1.00D-02  0.00D+00 EMaxC= 1.00D-01 BMatC= 3.39D-02 BMatP= 2.59D-01
 IDIUse=3 WtCom= 9.00D-01 WtEn= 1.00D-01
 Coeff-Com: -0.149D+00 0.115D+01
 Coeff-En:   0.000D+00 0.100D+01
 Coeff:     -0.134D+00 0.113D+01
 Gap=     0.354 Goal=   None    Shift=    0.000
 RMSDP=6.17D-04 MaxDP=7.72D-02 DE=-7.06D-02 OVMax= 1.34D-01

 Cycle   3  Pass 0  IDiag  1:
 E= -191.601250237624     Delta-E=       -0.062442848596 Rises=F Damp=F
 DIIS: error= 1.09D-02 at cycle   3 NSaved=   3.
 NSaved= 3 IEnMin= 3 EnMin= -191.601250237624     IErMin= 2 ErrMin= 1.00D-02
 ErrMax= 1.09D-02  0.00D+00 EMaxC= 1.00D-01 BMatC= 1.74D-02 BMatP= 3.39D-02
 IDIUse=3 WtCom= 8.91D-01 WtEn= 1.09D-01
 Coeff-Com: -0.188D+00 0.525D+00 0.664D+00
 Coeff-En:   0.000D+00 0.000D+00 0.100D+01
 Coeff:     -0.168D+00 0.468D+00 0.700D+00
 Gap=     0.337 Goal=   None    Shift=    0.000
 RMSDP=2.50D-04 MaxDP=1.88D-02 DE=-6.24D-02 OVMax= 4.84D-02

 Cycle   4  Pass 0  IDiag  1:
 E= -191.610707681742     Delta-E=       -0.009457444117 Rises=F Damp=F
 DIIS: error= 4.81D-03 at cycle   4 NSaved=   4.
 NSaved= 4 IEnMin= 4 EnMin= -191.610707681742     IErMin= 4 ErrMin= 4.81D-03
 ErrMax= 4.81D-03  0.00D+00 EMaxC= 1.00D-01 BMatC= 3.41D-03 BMatP= 1.74D-02
 IDIUse=3 WtCom= 9.52D-01 WtEn= 4.81D-02
 Coeff-Com: -0.587D-01 0.963D-01 0.369D+00 0.594D+00
 Coeff-En:   0.000D+00 0.000D+00 0.181D+00 0.819D+00
 Coeff:     -0.559D-01 0.916D-01 0.360D+00 0.604D+00
 Gap=     0.323 Goal=   None    Shift=    0.000
 RMSDP=1.04D-04 MaxDP=8.71D-03 DE=-9.46D-03 OVMax= 1.54D-02

 Cycle   5  Pass 0  IDiag  1:
 E= -191.613440780334     Delta-E=       -0.002733098593 Rises=F Damp=F
 DIIS: error= 3.39D-04 at cycle   5 NSaved=   5.
 NSaved= 5 IEnMin= 5 EnMin= -191.613440780334     IErMin= 5 ErrMin= 3.39D-04
 ErrMax= 3.39D-04  0.00D+00 EMaxC= 1.00D-01 BMatC= 1.26D-05 BMatP= 3.41D-03
 IDIUse=3 WtCom= 9.97D-01 WtEn= 3.39D-03
 Coeff-Com: -0.771D-02 0.952D-02 0.561D-01 0.127D+00 0.815D+00
 Coeff-En:   0.000D+00 0.000D+00 0.000D+00 0.000D+00 0.100D+01
 Coeff:     -0.769D-02 0.949D-02 0.559D-01 0.126D+00 0.816D+00
 Gap=     0.322 Goal=   None    Shift=    0.000
 RMSDP=8.35D-06 MaxDP=5.34D-04 DE=-2.73D-03 OVMax= 2.33D-03

 Initial convergence to 1.0D-05 achieved.  Increase integral accuracy.
 Cycle   6  Pass 1  IDiag  1:
 E= -191.613438246561     Delta-E=        0.000002533773 Rises=F Damp=F
 DIIS: error= 1.08D-04 at cycle   1 NSaved=   1.
 NSaved= 1 IEnMin= 1 EnMin= -191.613438246561     IErMin= 1 ErrMin= 1.08D-04
 ErrMax= 1.08D-04  0.00D+00 EMaxC= 1.00D-01 BMatC= 1.72D-06 BMatP= 1.72D-06
 IDIUse=3 WtCom= 9.99D-01 WtEn= 1.08D-03
 Coeff-Com:  0.100D+01
 Coeff-En:   0.100D+01
 Coeff:      0.100D+01
 Gap=     0.323 Goal=   None    Shift=    0.000
 RMSDP=8.35D-06 MaxDP=5.34D-04 DE= 2.53D-06 OVMax= 7.73D-04

 Cycle   7  Pass 1  IDiag  1:
 E= -191.613439419798     Delta-E=       -0.000001173237 Rises=F Damp=F
 DIIS: error= 7.93D-05 at cycle   2 NSaved=   2.
 NSaved= 2 IEnMin= 2 EnMin= -191.613439419798     IErMin= 2 ErrMin= 7.93D-05
 ErrMax= 7.93D-05  0.00D+00 EMaxC= 1.00D-01 BMatC= 1.03D-06 BMatP= 1.72D-06
 IDIUse=1 WtCom= 1.00D+00 WtEn= 0.00D+00
 Coeff-Com:  0.430D+00 0.570D+00
 Coeff:      0.430D+00 0.570D+00
 Gap=     0.322 Goal=   None    Shift=    0.000
 RMSDP=1.90D-06 MaxDP=1.44D-04 DE=-1.17D-06 OVMax= 5.32D-04

 Cycle   8  Pass 1  IDiag  1:
 E= -191.613440382470     Delta-E=       -0.000000962672 Rises=F Damp=F
 DIIS: error= 1.55D-05 at cycle   3 NSaved=   3.
 NSaved= 3 IEnMin= 3 EnMin= -191.613440382470     IErMin= 3 ErrMin= 1.55D-05
 ErrMax= 1.55D-05  0.00D+00 EMaxC= 1.00D-01 BMatC= 7.29D-08 BMatP= 1.03D-06
 IDIUse=1 WtCom= 1.00D+00 WtEn= 0.00D+00
 Coeff-Com:  0.659D-01 0.193D+00 0.741D+00
 Coeff:      0.659D-01 0.193D+00 0.741D+00
 Gap=     0.322 Goal=   None    Shift=    0.000
 RMSDP=1.41D-06 MaxDP=1.61D-04 DE=-9.63D-07 OVMax= 1.13D-04

 Cycle   9  Pass 1  IDiag  1:
 E= -191.613440452622     Delta-E=       -0.000000070151 Rises=F Damp=F
 DIIS: error= 1.59D-05 at cycle   4 NSaved=   4.
 NSaved= 4 IEnMin= 4 EnMin= -191.613440452622     IErMin= 3 ErrMin= 1.55D-05
 ErrMax= 1.59D-05  0.00D+00 EMaxC= 1.00D-01 BMatC= 1.67D-08 BMatP= 7.29D-08
 IDIUse=1 WtCom= 1.00D+00 WtEn= 0.00D+00
 Coeff-Com: -0.109D+00-0.779D-01 0.364D+00 0.823D+00
 Coeff:     -0.109D+00-0.779D-01 0.364D+00 0.823D+00
 Gap=     0.322 Goal=   None    Shift=    0.000
 RMSDP=7.12D-07 MaxDP=7.63D-05 DE=-7.02D-08 OVMax= 1.11D-04

 Cycle  10  Pass 1  IDiag  1:
 E= -191.613440478718     Delta-E=       -0.000000026096 Rises=F Damp=F
 DIIS: error= 2.95D-06 at cycle   5 NSaved=   5.
 NSaved= 5 IEnMin= 5 EnMin= -191.613440478718     IErMin= 5 ErrMin= 2.95D-06
 ErrMax= 2.95D-06  0.00D+00 EMaxC= 1.00D-01 BMatC= 2.25D-09 BMatP= 1.67D-08
 IDIUse=1 WtCom= 1.00D+00 WtEn= 0.00D+00
 Coeff-Com: -0.489D-01-0.433D-01 0.848D-01 0.383D+00 0.625D+00
 Coeff:     -0.489D-01-0.433D-01 0.848D-01 0.383D+00 0.625D+00
 Gap=     0.322 Goal=   None    Shift=    0.000
 RMSDP=1.59D-07 MaxDP=1.71D-05 DE=-2.61D-08 OVMax= 2.05D-05

 Cycle  11  Pass 1  IDiag  1:
 E= -191.613440480463     Delta-E=       -0.000000001745 Rises=F Damp=F
 DIIS: error= 1.15D-06 at cycle   6 NSaved=   6.
 NSaved= 6 IEnMin= 6 EnMin= -191.613440480463     IErMin= 6 ErrMin= 1.15D-06
 ErrMax= 1.15D-06  0.00D+00 EMaxC= 1.00D-01 BMatC= 2.21D-10 BMatP= 2.25D-09
 IDIUse=1 WtCom= 1.00D+00 WtEn= 0.00D+00
 Coeff-Com:  0.679D-02 0.196D-02-0.642D-01-0.103D-01 0.204D+00 0.862D+00
 Coeff:      0.679D-02 0.196D-02-0.642D-01-0.103D-01 0.204D+00 0.862D+00
 Gap=     0.322 Goal=   None    Shift=    0.000
 RMSDP=6.08D-08 MaxDP=6.59D-06 DE=-1.75D-09 OVMax= 6.09D-06

 Cycle  12  Pass 1  IDiag  1:
 E= -191.613440480708     Delta-E=       -0.000000000244 Rises=F Damp=F
 DIIS: error= 2.55D-07 at cycle   7 NSaved=   7.
 NSaved= 7 IEnMin= 7 EnMin= -191.613440480708     IErMin= 7 ErrMin= 2.55D-07
 ErrMax= 2.55D-07  0.00D+00 EMaxC= 1.00D-01 BMatC= 1.60D-11 BMatP= 2.21D-10
 IDIUse=1 WtCom= 1.00D+00 WtEn= 0.00D+00
 Coeff-Com:  0.572D-02 0.361D-02-0.318D-01-0.238D-01 0.291D-01 0.311D+00
 Coeff-Com:  0.706D+00
 Coeff:      0.572D-02 0.361D-02-0.318D-01-0.238D-01 0.291D-01 0.311D+00
 Coeff:      0.706D+00
 Gap=     0.322 Goal=   None    Shift=    0.000
 RMSDP=8.60D-09 MaxDP=4.70D-07 DE=-2.44D-10 OVMax= 1.73D-06

 SCF Done:  E(RB2PLYPD3) =  -191.613440481     A.U. after   12 cycles
            NFock= 12  Conv=0.86D-08     -V/T= 2.0033
 KE= 1.909824369745D+02 PE=-6.547980017713D+02 EE= 1.688295020648D+02
 Leave Link  502 at Wed Aug 26 16:24:00 2020, MaxMem=  2097152000 cpu:       372.6
 (Enter /opt/cluster/programs/g09/g09_d.01/g09/l801.exe)
 DoSCS=T DFT=T ScalE2(SS,OS)=  0.270000  0.270000
 ExpMin= 7.60D-02 ExpMax= 1.17D+05 ExpMxC= 1.13D+03 IAcc=3 IRadAn=         5 AccDes= 0.00D+00
 HarFok:  IExCor=  205 AccDes= 0.00D+00 IRadAn=         5 IDoV=-2 UseB2=F ITyADJ=14
 ICtDFT= 12500011 ScaDFX=  1.000000  1.000000  1.000000  1.000000
 Largest valence mixing into a core orbital is  1.16D-04
 Largest core mixing into a valence orbital is  1.86D-05
 Range of M.O.s used for correlation:     5   348
 NBasis=   348 NAE=    15 NBE=    15 NFC=     4 NFV=     0
 NROrb=    344 NOA=    11 NOB=    11 NVA=   333 NVB=   333

 **** Warning!!: The largest alpha MO coefficient is  0.29517787D+02

 Leave Link  801 at Wed Aug 26 16:24:03 2020, MaxMem=  2097152000 cpu:         0.9
 (Enter /opt/cluster/programs/g09/g09_d.01/g09/l906.exe)
 DoSCS=T DFT=T ScalE2(SS,OS)=  0.270000  0.270000
 FulOut=F Deriv=F AODrv=F NAtomX=     8
   MMem=        1190  MDisk=          11 MDiskD=          11
  W3Min=     1567764 MinDsk=     2827057 NBas6D=         428
 NBas2D=       93150    NTT=       91806    LW2=     4508827
    MDV=  2096570866 MDiskM=       10875 NBas2p=       89424
 Fully direct method using O(OVN) memory.
 IMap=   1   2   3   4   5   6   7   8   9  10  11
 JobTyp=1 Pass  1:  I=   1 to  11 NPSUse=  8 ParTrn=T ParDer=T DoDerP=F.
 Spin components of T(2) and E(2):
     alpha-alpha T2 =       0.4383133160D-01 E2=     -0.2951627634D-01
     alpha-beta  T2 =       0.2669565923D+00 E2=     -0.1883665448D+00
     beta-beta   T2 =       0.4383133160D-01 E2=     -0.2951627634D-01
 The integrals were generated   1 times.
 E2(B2PLYPD3) =    -0.2473990975D+00 E(B2PLYPD3) =    -0.19186083957823D+03
 Leave Link  906 at Wed Aug 26 16:25:00 2020, MaxMem=  2097152000 cpu:       457.3
 (Enter /opt/cluster/programs/g09/g09_d.01/g09/l601.exe)
 Copying SCF densities to generalized density rwf, IOpCl= 0 IROHF=0.

 **********************************************************************

            Population analysis using the SCF density.

 **********************************************************************

 Orbital symmetries:
       Occupied  (A) (A) (A) (A) (A) (A) (A) (A) (A) (A) (A) (A)
                 (A) (A) (A)
       Virtual   (A) (A) (A) (A) (A) (A) (A) (A) (A) (A) (A) (A)
                 (A) (A) (A) (A) (A) (A) (A) (A) (A) (A) (A) (A)
                 (A) (A) (A) (A) (A) (A) (A) (A) (A) (A) (A) (A)
                 (A) (A) (A) (A) (A) (A) (A) (A) (A) (A) (A) (A)
                 (A) (A) (A) (A) (A) (A) (A) (A) (A) (A) (A) (A)
                 (A) (A) (A) (A) (A) (A) (A) (A) (A) (A) (A) (A)
                 (A) (A) (A) (A) (A) (A) (A) (A) (A) (A) (A) (A)
                 (A) (A) (A) (A) (A) (A) (A) (A) (A) (A) (A) (A)
                 (A) (A) (A) (A) (A) (A) (A) (A) (A) (A) (A) (A)
                 (A) (A) (A) (A) (A) (A) (A) (A) (A) (A) (A) (A)
                 (A) (A) (A) (A) (A) (A) (A) (A) (A) (A) (A) (A)
                 (A) (A) (A) (A) (A) (A) (A) (A) (A) (A) (A) (A)
                 (A) (A) (A) (A) (A) (A) (A) (A) (A) (A) (A) (A)
                 (A) (A) (A) (A) (A) (A) (A) (A) (A) (A) (A) (A)
                 (A) (A) (A) (A) (A) (A) (A) (A) (A) (A) (A) (A)
                 (A) (A) (A) (A) (A) (A) (A) (A) (A) (A) (A) (A)
                 (A) (A) (A) (A) (A) (A) (A) (A) (A) (A) (A) (A)
                 (A) (A) (A) (A) (A) (A) (A) (A) (A) (A) (A) (A)
                 (A) (A) (A) (A) (A) (A) (A) (A) (A) (A) (A) (A)
                 (A) (A) (A) (A) (A) (A) (A) (A) (A) (A) (A) (A)
                 (A) (A) (A) (A) (A) (A) (A) (A) (A) (A) (A) (A)
                 (A) (A) (A) (A) (A) (A) (A) (A) (A) (A) (A) (A)
                 (A) (A) (A) (A) (A) (A) (A) (A) (A) (A) (A) (A)
                 (A) (A) (A) (A) (A) (A) (A) (A) (A) (A) (A) (A)
                 (A) (A) (A) (A) (A) (A) (A) (A) (A) (A) (A) (A)
                 (A) (A) (A) (A) (A) (A) (A) (A) (A) (A) (A) (A)
                 (A) (A) (A) (A) (A) (A) (A) (A) (A) (A) (A) (A)
                 (A) (A) (A) (A) (A) (A) (A) (A) (A)
 The electronic state is 1-A.
 Alpha  occ. eigenvalues --  -19.72855 -10.71803 -10.65245 -10.64238  -1.19018
 Alpha  occ. eigenvalues --   -0.93385  -0.75261  -0.67271  -0.56878  -0.56026
 Alpha  occ. eigenvalues --   -0.50350  -0.46806  -0.46520  -0.34852  -0.33935
 Alpha virt. eigenvalues --   -0.01691   0.05707   0.07047   0.08053   0.09770
 Alpha virt. eigenvalues --    0.12536   0.14009   0.15312   0.17452   0.19870
 Alpha virt. eigenvalues --    0.20144   0.21418   0.25430   0.26470   0.28877
 Alpha virt. eigenvalues --    0.31616   0.33302   0.35548   0.37514   0.39062
 Alpha virt. eigenvalues --    0.39368   0.41313   0.43038   0.44527   0.46158
 Alpha virt. eigenvalues --    0.47008   0.49294   0.53907   0.54275   0.56917
 Alpha virt. eigenvalues --    0.59186   0.64076   0.65951   0.67333   0.71136
 Alpha virt. eigenvalues --    0.75098   0.76546   0.77989   0.79902   0.81228
 Alpha virt. eigenvalues --    0.81525   0.82329   0.82876   0.84217   0.86523
 Alpha virt. eigenvalues --    0.88305   0.91574   0.92833   0.93389   0.96020
 Alpha virt. eigenvalues --    0.96549   0.97106   1.01039   1.02609   1.07110
 Alpha virt. eigenvalues --    1.10460   1.12279   1.14349   1.17496   1.19323
 Alpha virt. eigenvalues --    1.20565   1.26400   1.28347   1.32757   1.40128
 Alpha virt. eigenvalues --    1.42315   1.47226   1.48299   1.55043   1.56881
 Alpha virt. eigenvalues --    1.61815   1.63417   1.64577   1.66507   1.69664
 Alpha virt. eigenvalues --    1.74234   1.76460   1.77477   1.81956   1.83244
 Alpha virt. eigenvalues --    1.86732   1.91059   1.91297   1.93158   1.94477
 Alpha virt. eigenvalues --    1.95990   1.98421   2.00308   2.01786   2.02934
 Alpha virt. eigenvalues --    2.06511   2.10407   2.11672   2.14068   2.14262
 Alpha virt. eigenvalues --    2.16274   2.19234   2.20979   2.22611   2.25702
 Alpha virt. eigenvalues --    2.29085   2.35154   2.35661   2.39534   2.42101
 Alpha virt. eigenvalues --    2.45835   2.46908   2.49524   2.50354   2.53245
 Alpha virt. eigenvalues --    2.55561   2.57582   2.59167   2.61953   2.63795
 Alpha virt. eigenvalues --    2.65871   2.66643   2.68156   2.69387   2.73926
 Alpha virt. eigenvalues --    2.75085   2.78449   2.85510   2.86765   2.88579
 Alpha virt. eigenvalues --    2.89484   2.95882   2.98473   3.02974   3.07832
 Alpha virt. eigenvalues --    3.17329   3.18953   3.28224   3.29232   3.31200
 Alpha virt. eigenvalues --    3.35283   3.41085   3.41366   3.46204   3.47883
 Alpha virt. eigenvalues --    3.49727   3.53839   3.60565   3.62852   3.65512
 Alpha virt. eigenvalues --    3.67674   3.72841   3.78159   3.85918   3.89007
 Alpha virt. eigenvalues --    3.94004   3.98567   4.01857   4.04194   4.06214
 Alpha virt. eigenvalues --    4.09914   4.18311   4.20629   4.26077   4.31732
 Alpha virt. eigenvalues --    4.40468   4.42815   4.54372   4.62135   4.62522
 Alpha virt. eigenvalues --    4.66499   4.82634   4.89032   4.91189   4.99656
 Alpha virt. eigenvalues --    5.03894   5.04712   5.08476   5.11586   5.12459
 Alpha virt. eigenvalues --    5.20718   5.25481   5.29814   5.35339   5.44314
 Alpha virt. eigenvalues --    5.45132   5.54750   5.55447   5.57395   5.58601
 Alpha virt. eigenvalues --    5.64487   5.67771   5.70140   5.72123   5.78767
 Alpha virt. eigenvalues --    5.80067   5.83517   5.85533   5.92358   5.95150
 Alpha virt. eigenvalues --    5.96379   5.98748   5.99937   6.05012   6.08037
 Alpha virt. eigenvalues --    6.09663   6.14931   6.16188   6.16832   6.18978
 Alpha virt. eigenvalues --    6.21475   6.22939   6.23957   6.27970   6.31338
 Alpha virt. eigenvalues --    6.34690   6.35610   6.38944   6.40273   6.44786
 Alpha virt. eigenvalues --    6.48022   6.50766   6.51545   6.53395   6.60771
 Alpha virt. eigenvalues --    6.63782   6.71221   6.72827   6.75990   6.77980
 Alpha virt. eigenvalues --    6.84060   6.86174   6.94709   6.97753   7.03393
 Alpha virt. eigenvalues --    7.06735   7.08528   7.12793   7.15869   7.20982
 Alpha virt. eigenvalues --    7.30562   7.39805   7.46876   7.48995   7.53649
 Alpha virt. eigenvalues --    7.55524   7.58542   7.60330   7.62595   7.67664
 Alpha virt. eigenvalues --    7.68816   7.69840   7.72897   7.76056   7.77888
 Alpha virt. eigenvalues --    7.85599   7.87774   7.89888   8.02373   8.03561
 Alpha virt. eigenvalues --    8.06412   8.09164   8.13588   8.17230   8.20635
 Alpha virt. eigenvalues --    8.23079   8.26946   8.28464   8.30803   8.34061
 Alpha virt. eigenvalues --    8.35806   8.38470   8.44224   8.52643   8.56124
 Alpha virt. eigenvalues --    8.57375   8.61621   8.65349   8.69122   8.72482
 Alpha virt. eigenvalues --    8.85401   8.86613   8.94986   8.97501   9.07471
 Alpha virt. eigenvalues --    9.08110   9.09675   9.19282   9.28864   9.30703
 Alpha virt. eigenvalues --    9.32176   9.42744   9.56870   9.66356   9.70611
 Alpha virt. eigenvalues --    9.77090   9.85597   9.86833   9.88088   9.91885
 Alpha virt. eigenvalues --   10.02968  10.12770  10.18079  10.22032  10.27210
 Alpha virt. eigenvalues --   10.34440  10.50754  10.53504  10.73406  10.93444
 Alpha virt. eigenvalues --   11.03567  11.24995  11.26641  11.29833  11.48862
 Alpha virt. eigenvalues --   11.65622  11.75304  11.87483  12.03669  12.07380
 Alpha virt. eigenvalues --   12.32788  12.35994  12.48105  12.57353  12.97406
 Alpha virt. eigenvalues --   12.99133  13.33264  13.74834  14.36290  14.65032
 Alpha virt. eigenvalues --   28.62244  28.86470  29.53834  48.63991 148.20782
 Alpha virt. eigenvalues --  148.41978 149.15131 254.39857
          Condensed to atoms (all electrons):
               1          2          3          4          5          6
     1  C    4.505660   0.616336   0.367768  -0.054259  -0.030452  -0.004945
     2  O    0.616336   7.888738  -0.090558   0.006930   0.004442   0.000500
     3  C    0.367768  -0.090558   5.161269   0.470676   0.372944  -0.054685
     4  C   -0.054259   0.006930   0.470676   4.876972  -0.038875   0.427741
     5  H   -0.030452   0.004442   0.372944  -0.038875   0.577114   0.005529
     6  H   -0.004945   0.000500  -0.054685   0.427741   0.005529   0.575936
     7  H    0.002526  -0.000525  -0.029522   0.413955  -0.005219  -0.041171
     8  H    0.446689  -0.073326  -0.164563   0.026818   0.007368   0.005490
               7          8
     1  C    0.002526   0.446689
     2  O   -0.000525  -0.073326
     3  C   -0.029522  -0.164563
     4  C    0.413955   0.026818
     5  H   -0.005219   0.007368
     6  H   -0.041171   0.005490
     7  H    0.563102  -0.000615
     8  H   -0.000615   0.677211
 Mulliken charges:
               1
     1  C    0.150677
     2  O   -0.352537
     3  C   -0.033329
     4  C   -0.129959
     5  H    0.107148
     6  H    0.085604
     7  H    0.097470
     8  H    0.074927
 Sum of Mulliken charges =   0.00000
 Mulliken charges with hydrogens summed into heavy atoms:
               1
     1  C    0.225603
     2  O   -0.352537
     3  C    0.073819
     4  C    0.053115
 Electronic spatial extent (au):  <R**2>=            296.8677
 Charge=              0.0000 electrons
 Dipole moment (field-independent basis, Debye):
    X=              3.4966    Y=              0.8200    Z=              0.0449  Tot=              3.5918
 Quadrupole moment (field-independent basis, Debye-Ang):
   XX=            -27.4967   YY=            -21.7307   ZZ=            -25.1891
   XY=             -1.0003   XZ=              0.2735   YZ=             -0.0711
 Traceless Quadrupole moment (field-independent basis, Debye-Ang):
   XX=             -2.6912   YY=              3.0748   ZZ=             -0.3836
   XY=             -1.0003   XZ=              0.2735   YZ=             -0.0711
 Octapole moment (field-independent basis, Debye-Ang**2):
  XXX=             15.2706  YYY=              0.0654  ZZZ=              0.2037  XYY=             -0.3171
  XXY=              0.6312  XXZ=              0.4049  XZZ=             -4.2452  YZZ=              0.2037
  YYZ=              0.2551  XYZ=             -0.1017
 Hexadecapole moment (field-independent basis, Debye-Ang**3):
 XXXX=           -300.4683 YYYY=            -55.0135 ZZZZ=            -27.2873 XXXY=             -3.1630
 XXXZ=              1.6919 YYYX=              0.2464 YYYZ=             -0.1309 ZZZX=              0.1356
 ZZZY=             -0.0914 XXYY=            -58.3577 XXZZ=            -57.1487 YYZZ=            -15.4215
 XXYZ=             -0.3187 YYXZ=              0.1279 ZZXY=              0.5196
 N-N= 1.033726222512D+02 E-N=-6.547979686253D+02  KE= 1.909824369745D+02
 Leave Link  601 at Wed Aug 26 16:25:00 2020, MaxMem=  2097152000 cpu:         0.5
 (Enter /opt/cluster/programs/g09/g09_d.01/g09/l9999.exe)
 1\1\GINC-NODE13\SP\RB2PLYPD3-FC\def2QZVP\C3H4O1\BOITTIER\26-Aug-2020\0
 \\#p B2PLYPD3/Def2QZVP\\acrolein\\0,1\C,0,-5.01529,-1.377632,0.91316\O
 ,0,-3.937832,-0.874066,0.642407\C,0,-5.189545,-2.812751,1.168896\C,0,-
 6.393599,-3.308991,1.389543\H,0,-4.315651,-3.45068,1.082499\H,0,-7.219
 756,-2.680043,1.413055\H,0,-6.594743,-4.412731,1.51917\H,0,-5.952935,-
 0.783639,0.911177\\Version=ES64L-G09RevD.01\State=1-A\HF=-191.6134405\
 MP2=-191.8608396\RMSD=8.599e-09\PG=C01 [X(C3H4O1)]\\@


 The mind is not a vessel to be filled but a fire to be kindled.
                                  -- Plutarch
 Job cpu time:       0 days  0 hours 14 minutes  4.7 seconds.
 File lengths (MBytes):  RWF=     49 Int=      0 D2E=      0 Chk=      7 Scr=      1
 Normal termination of Gaussian 09 at Wed Aug 26 16:25:00 2020.
