 Entering Gaussian System, Link 0=/opt/cluster/programs/g09/g09_d.01/g09//g09
 Input=/home/boittier/MDCM/nms_sampling/acrolein_geom.xyz.dir/energies/acrolein_443_energy.com
 Output=/scratch/boittier/acrolein_443_energy/acrolein_443_energy.out
 Initial command:
 /opt/cluster/programs/g09/g09_d.01/g09/l1.exe "/scratch/boittier/acrolein_443_energy/Gau-119667.inp" -scrdir="/scratch/boittier/acrolein_443_energy/"
 Entering Link 1 = /opt/cluster/programs/g09/g09_d.01/g09/l1.exe PID=    119668.
  
 Copyright (c) 1988,1990,1992,1993,1995,1998,2003,2009,2013,
            Gaussian, Inc.  All Rights Reserved.
  
 This is part of the Gaussian(R) 09 program.  It is based on
 the Gaussian(R) 03 system (copyright 2003, Gaussian, Inc.),
 the Gaussian(R) 98 system (copyright 1998, Gaussian, Inc.),
 the Gaussian(R) 94 system (copyright 1995, Gaussian, Inc.),
 the Gaussian 92(TM) system (copyright 1992, Gaussian, Inc.),
 the Gaussian 90(TM) system (copyright 1990, Gaussian, Inc.),
 the Gaussian 88(TM) system (copyright 1988, Gaussian, Inc.),
 the Gaussian 86(TM) system (copyright 1986, Carnegie Mellon
 University), and the Gaussian 82(TM) system (copyright 1983,
 Carnegie Mellon University). Gaussian is a federally registered
 trademark of Gaussian, Inc.
  
 This software contains proprietary and confidential information,
 including trade secrets, belonging to Gaussian, Inc.
  
 This software is provided under written license and may be
 used, copied, transmitted, or stored only in accord with that
 written license.
  
 The following legend is applicable only to US Government
 contracts under FAR:
  
                    RESTRICTED RIGHTS LEGEND
  
 Use, reproduction and disclosure by the US Government is
 subject to restrictions as set forth in subparagraphs (a)
 and (c) of the Commercial Computer Software - Restricted
 Rights clause in FAR 52.227-19.
  
 Gaussian, Inc.
 340 Quinnipiac St., Bldg. 40, Wallingford CT 06492
  
  
 ---------------------------------------------------------------
 Warning -- This program may not be used in any manner that
 competes with the business of Gaussian, Inc. or will provide
 assistance to any competitor of Gaussian, Inc.  The licensee
 of this program is prohibited from giving any competitor of
 Gaussian, Inc. access to this program.  By using this program,
 the user acknowledges that Gaussian, Inc. is engaged in the
 business of creating and licensing software in the field of
 computational chemistry and represents and warrants to the
 licensee that it is not a competitor of Gaussian, Inc. and that
 it will not use this program in any manner prohibited above.
 ---------------------------------------------------------------
  

 Cite this work as:
 Gaussian 09, Revision D.01,
 M. J. Frisch, G. W. Trucks, H. B. Schlegel, G. E. Scuseria, 
 M. A. Robb, J. R. Cheeseman, G. Scalmani, V. Barone, B. Mennucci, 
 G. A. Petersson, H. Nakatsuji, M. Caricato, X. Li, H. P. Hratchian, 
 A. F. Izmaylov, J. Bloino, G. Zheng, J. L. Sonnenberg, M. Hada, 
 M. Ehara, K. Toyota, R. Fukuda, J. Hasegawa, M. Ishida, T. Nakajima, 
 Y. Honda, O. Kitao, H. Nakai, T. Vreven, J. A. Montgomery, Jr., 
 J. E. Peralta, F. Ogliaro, M. Bearpark, J. J. Heyd, E. Brothers, 
 K. N. Kudin, V. N. Staroverov, T. Keith, R. Kobayashi, J. Normand, 
 K. Raghavachari, A. Rendell, J. C. Burant, S. S. Iyengar, J. Tomasi, 
 M. Cossi, N. Rega, J. M. Millam, M. Klene, J. E. Knox, J. B. Cross, 
 V. Bakken, C. Adamo, J. Jaramillo, R. Gomperts, R. E. Stratmann, 
 O. Yazyev, A. J. Austin, R. Cammi, C. Pomelli, J. W. Ochterski, 
 R. L. Martin, K. Morokuma, V. G. Zakrzewski, G. A. Voth, 
 P. Salvador, J. J. Dannenberg, S. Dapprich, A. D. Daniels, 
 O. Farkas, J. B. Foresman, J. V. Ortiz, J. Cioslowski, 
 and D. J. Fox, Gaussian, Inc., Wallingford CT, 2013.
 
 ******************************************
 Gaussian 09:  ES64L-G09RevD.01 24-Apr-2013
                26-Aug-2020 
 ******************************************
 %chk=/home/boittier/MDCM/nms_sampling/acrolein_geom.xyz.dir/acrolein_443.chk
 %nproc=8
 Will use up to    8 processors via shared memory.
 %mem=16000MB
 --------------------
 #p B2PLYPD3/Def2QZVP
 --------------------
 1/38=1/1;
 2/12=2,17=6,18=5,40=1/2;
 3/5=45,7=101,11=9,16=1,25=1,30=1,74=-60/1,2,3;
 4//1;
 5/5=2,38=5/2;
 8/10=1/1;
 9/16=-3/6;
 6/7=2,8=2,9=2,10=2/1;
 99/5=1,9=1/99;
 Leave Link    1 at Wed Aug 26 15:50:49 2020, MaxMem=  2097152000 cpu:         0.3
 (Enter /opt/cluster/programs/g09/g09_d.01/g09/l101.exe)
 --------
 acrolein
 --------
 Symbolic Z-matrix:
 Charge =  0 Multiplicity = 1
 C                    -5.00943  -1.37955   0.91065 
 O                    -3.93958  -0.87631   0.63974 
 C                    -5.18874  -2.80692   1.15699 
 C                    -6.39871  -3.31085   1.38721 
 H                    -4.31597  -3.44578   1.18485 
 H                    -7.18998  -2.6779    1.36606 
 H                    -6.60301  -4.42455   1.56949 
 H                    -5.9633   -0.76553   1.03631 
 
 NAtoms=      8 NQM=        8 NQMF=       0 NMMI=      0 NMMIF=      0
                NMic=       0 NMicF=      0.
                    Isotopes and Nuclear Properties:
 (Nuclear quadrupole moments (NQMom) in fm**2, nuclear magnetic moments (NMagM)
  in nuclear magnetons)

  Atom         1           2           3           4           5           6           7           8
 IAtWgt=          12          16          12          12           1           1           1           1
 AtmWgt=  12.0000000  15.9949146  12.0000000  12.0000000   1.0078250   1.0078250   1.0078250   1.0078250
 NucSpn=           0           0           0           0           1           1           1           1
 AtZEff=   0.0000000   0.0000000   0.0000000   0.0000000   0.0000000   0.0000000   0.0000000   0.0000000
 NQMom=    0.0000000   0.0000000   0.0000000   0.0000000   0.0000000   0.0000000   0.0000000   0.0000000
 NMagM=    0.0000000   0.0000000   0.0000000   0.0000000   2.7928460   2.7928460   2.7928460   2.7928460
 AtZNuc=   6.0000000   8.0000000   6.0000000   6.0000000   1.0000000   1.0000000   1.0000000   1.0000000
 Leave Link  101 at Wed Aug 26 15:50:49 2020, MaxMem=  2097152000 cpu:         0.5
 (Enter /opt/cluster/programs/g09/g09_d.01/g09/l202.exe)
                          Input orientation:                          
 ---------------------------------------------------------------------
 Center     Atomic      Atomic             Coordinates (Angstroms)
 Number     Number       Type             X           Y           Z
 ---------------------------------------------------------------------
      1          6           0       -5.009428   -1.379551    0.910650
      2          8           0       -3.939577   -0.876312    0.639744
      3          6           0       -5.188739   -2.806918    1.156986
      4          6           0       -6.398714   -3.310851    1.387206
      5          1           0       -4.315974   -3.445775    1.184855
      6          1           0       -7.189982   -2.677900    1.366058
      7          1           0       -6.603006   -4.424555    1.569493
      8          1           0       -5.963298   -0.765533    1.036313
 ---------------------------------------------------------------------
                    Distance matrix (angstroms):
                    1          2          3          4          5
     1  C    0.000000
     2  O    1.212939   0.000000
     3  C    1.459524   2.356944   0.000000
     4  C    2.426343   3.540203   1.330785   0.000000
     5  H    2.196668   2.653481   1.081958   2.096892   0.000000
     6  H    2.578357   3.786606   2.016266   1.013499   2.980334
     7  H    3.499373   4.533025   2.187936   1.146865   2.517235
     8  H    1.141349   2.065184   2.186723   2.606023   3.149514
                    6          7          8
     6  H    0.000000
     7  H    1.853842   0.000000
     8  H    2.295786   3.752592   0.000000
 Stoichiometry    C3H4O
 Framework group  C1[X(C3H4O)]
 Deg. of freedom    18
 Full point group                 C1      NOp   1
 Largest Abelian subgroup         C1      NOp   1
 Largest concise Abelian subgroup C1      NOp   1
                         Standard orientation:                         
 ---------------------------------------------------------------------
 Center     Atomic      Atomic             Coordinates (Angstroms)
 Number     Number       Type             X           Y           Z
 ---------------------------------------------------------------------
      1          6           0        0.671649    0.352520    0.013896
      2          8           0        1.783119   -0.131797   -0.022027
      3          6           0       -0.553163   -0.441235    0.012896
      4          6           0       -1.745962    0.148378   -0.011090
      5          1           0       -0.477022   -1.519105    0.067959
      6          1           0       -1.775959    1.160729   -0.048837
      7          1           0       -2.740580   -0.422277   -0.030764
      8          1           0        0.493462    1.477049    0.093653
 ---------------------------------------------------------------------
 Rotational constants (GHZ):     48.3589150      4.7045585      4.2896393
 Leave Link  202 at Wed Aug 26 15:50:49 2020, MaxMem=  2097152000 cpu:         0.0
 (Enter /opt/cluster/programs/g09/g09_d.01/g09/l301.exe)
 Standard basis: def2QZVP (5D, 7F)
 Ernie: Thresh=  0.10000D-02 Tol=  0.10000D-05 Strict=F.
 There are   428 symmetry adapted cartesian basis functions of A   symmetry.
 There are   348 symmetry adapted basis functions of A   symmetry.
   348 basis functions,   520 primitive gaussians,   428 cartesian basis functions
    15 alpha electrons       15 beta electrons
       nuclear repulsion energy       103.4343109926 Hartrees.
 IExCor=  419 DFT=T Ex+Corr=B2PLYPD3 ExCW=0 ScaHFX=  0.530000
 ScaDFX=  0.470000  0.470000  0.730000  0.730000 ScalE2=  0.270000  0.270000
 IRadAn=      0 IRanWt=     -1 IRanGd=            0 ICorTp=0 IEmpDi=141
 NAtoms=    8 NActive=    8 NUniq=    8 SFac= 1.00D+00 NAtFMM=   60 NAOKFM=F Big=F
 Integral buffers will be    131072 words long.
 Regular integral format.
 Two-electron integral symmetry is turned on.
 R6Disp:  Grimme-D3(BJ) Dispersion energy=       -0.0035926492 Hartrees.
 Nuclear repulsion after empirical dispersion term =      103.4307183434 Hartrees.
 Leave Link  301 at Wed Aug 26 15:50:49 2020, MaxMem=  2097152000 cpu:         0.4
 (Enter /opt/cluster/programs/g09/g09_d.01/g09/l302.exe)
 NPDir=0 NMtPBC=     1 NCelOv=     1 NCel=       1 NClECP=     1 NCelD=      1
         NCelK=      1 NCelE2=     1 NClLst=     1 CellRange=     0.0.
 One-electron integrals computed using PRISM.
   1 Symmetry operations used in ECPInt.
 ECPInt:  NShTT=    5886 NPrTT=   14376 LenC2=    5780 LenP2D=   12184.
 LDataN:  DoStor=T MaxTD1= 8 Len=  415
 NBasis=   348 RedAO= T EigKep=  5.79D-05  NBF=   348
 NBsUse=   348 1.00D-06 EigRej= -1.00D+00 NBFU=   348
 Precomputing XC quadrature grid using
 IXCGrd= 4 IRadAn=           0 IRanWt=          -1 IRanGd=           0 AccXCQ= 0.00D+00.
 Generated NRdTot=       0 NPtTot=           0 NUsed=           0 NTot=          32
 NSgBfM=   428   428   428   428   428 MxSgAt=     8 MxSgA2=     8.
 Leave Link  302 at Wed Aug 26 15:50:49 2020, MaxMem=  2097152000 cpu:         3.0
 (Enter /opt/cluster/programs/g09/g09_d.01/g09/l303.exe)
 DipDrv:  MaxL=1.
 Leave Link  303 at Wed Aug 26 15:50:49 2020, MaxMem=  2097152000 cpu:         0.3
 (Enter /opt/cluster/programs/g09/g09_d.01/g09/l401.exe)
 ExpMin= 7.60D-02 ExpMax= 1.17D+05 ExpMxC= 1.13D+03 IAcc=2 IRadAn=         4 AccDes= 0.00D+00
 Harris functional with IExCor=  419 and IRadAn=       4 diagonalized for initial guess.
 HarFok:  IExCor=  419 AccDes= 0.00D+00 IRadAn=         4 IDoV= 1 UseB2=F ITyADJ=14
 ICtDFT=  3500011 ScaDFX=  1.000000  1.000000  1.000000  1.000000
 FoFCou: FMM=F IPFlag=           0 FMFlag=      100000 FMFlg1=           0
         NFxFlg=           0 DoJE=T BraDBF=F KetDBF=T FulRan=T
         wScrn=  0.000000 ICntrl=     500 IOpCl=  0 I1Cent=   200000004 NGrid=           0
         NMat0=    1 NMatS0=      1 NMatT0=    0 NMatD0=    1 NMtDS0=    0 NMtDT0=    0
 Petite list used in FoFCou.
 Harris En= -192.041835809740    
 JPrj=0 DoOrth=F DoCkMO=F.
 Leave Link  401 at Wed Aug 26 15:50:50 2020, MaxMem=  2097152000 cpu:         6.9
 (Enter /opt/cluster/programs/g09/g09_d.01/g09/l502.exe)
 Closed shell SCF:
 Using DIIS extrapolation, IDIIS=  1040.
 Integral symmetry usage will be decided dynamically.
 Keep R1 ints in memory in canonical form, NReq=1883905047.
 IVT=      574566 IEndB=      574566 NGot=  2097152000 MDV=   252723534
 LenX=   252723534 LenY=   252539909
 Requested convergence on RMS density matrix=1.00D-08 within 128 cycles.
 Requested convergence on MAX density matrix=1.00D-06.
 Requested convergence on             energy=1.00D-06.
 No special actions if energy rises.
 FoFCou: FMM=F IPFlag=           0 FMFlag=           0 FMFlg1=           0
         NFxFlg=           0 DoJE=F BraDBF=F KetDBF=F FulRan=T
         wScrn=  0.000000 ICntrl=     600 IOpCl=  0 I1Cent=           0 NGrid=           0
         NMat0=    1 NMatS0=  60726 NMatT0=    0 NMatD0=    1 NMtDS0=    0 NMtDT0=    0
 Symmetry not used in FoFCou.
 Integral accuracy reduced to 1.0D-05 until final iterations.

 Cycle   1  Pass 0  IDiag  1:
 E= -191.463855774756    
 DIIS: error= 2.78D-02 at cycle   1 NSaved=   1.
 NSaved= 1 IEnMin= 1 EnMin= -191.463855774756     IErMin= 1 ErrMin= 2.78D-02
 ErrMax= 2.78D-02  0.00D+00 EMaxC= 1.00D-01 BMatC= 2.60D-01 BMatP= 2.60D-01
 IDIUse=3 WtCom= 7.22D-01 WtEn= 2.78D-01
 Coeff-Com:  0.100D+01
 Coeff-En:   0.100D+01
 Coeff:      0.100D+01
 Gap=     0.293 Goal=   None    Shift=    0.000
 GapD=    0.293 DampG=1.000 DampE=0.500 DampFc=0.5000 IDamp=-1.
 Damping current iteration by 5.00D-01
 RMSDP=1.80D-03 MaxDP=2.23D-01              OVMax= 1.72D-01

 Cycle   2  Pass 0  IDiag  1:
 E= -191.534462801582     Delta-E=       -0.070607026826 Rises=F Damp=T
 DIIS: error= 9.35D-03 at cycle   2 NSaved=   2.
 NSaved= 2 IEnMin= 2 EnMin= -191.534462801582     IErMin= 2 ErrMin= 9.35D-03
 ErrMax= 9.35D-03  0.00D+00 EMaxC= 1.00D-01 BMatC= 3.38D-02 BMatP= 2.60D-01
 IDIUse=3 WtCom= 9.06D-01 WtEn= 9.35D-02
 Coeff-Com: -0.148D+00 0.115D+01
 Coeff-En:   0.000D+00 0.100D+01
 Coeff:     -0.134D+00 0.113D+01
 Gap=     0.354 Goal=   None    Shift=    0.000
 RMSDP=6.08D-04 MaxDP=7.59D-02 DE=-7.06D-02 OVMax= 1.32D-01

 Cycle   3  Pass 0  IDiag  1:
 E= -191.597056280025     Delta-E=       -0.062593478443 Rises=F Damp=F
 DIIS: error= 1.12D-02 at cycle   3 NSaved=   3.
 NSaved= 3 IEnMin= 3 EnMin= -191.597056280025     IErMin= 2 ErrMin= 9.35D-03
 ErrMax= 1.12D-02  0.00D+00 EMaxC= 1.00D-01 BMatC= 1.75D-02 BMatP= 3.38D-02
 IDIUse=3 WtCom= 8.88D-01 WtEn= 1.12D-01
 Coeff-Com: -0.188D+00 0.524D+00 0.664D+00
 Coeff-En:   0.000D+00 0.000D+00 0.100D+01
 Coeff:     -0.167D+00 0.466D+00 0.702D+00
 Gap=     0.334 Goal=   None    Shift=    0.000
 RMSDP=2.49D-04 MaxDP=1.87D-02 DE=-6.26D-02 OVMax= 4.80D-02

 Cycle   4  Pass 0  IDiag  1:
 E= -191.606543336995     Delta-E=       -0.009487056969 Rises=F Damp=F
 DIIS: error= 4.90D-03 at cycle   4 NSaved=   4.
 NSaved= 4 IEnMin= 4 EnMin= -191.606543336995     IErMin= 4 ErrMin= 4.90D-03
 ErrMax= 4.90D-03  0.00D+00 EMaxC= 1.00D-01 BMatC= 3.39D-03 BMatP= 1.75D-02
 IDIUse=3 WtCom= 9.51D-01 WtEn= 4.90D-02
 Coeff-Com: -0.584D-01 0.953D-01 0.368D+00 0.595D+00
 Coeff-En:   0.000D+00 0.000D+00 0.179D+00 0.821D+00
 Coeff:     -0.555D-01 0.906D-01 0.359D+00 0.606D+00
 Gap=     0.322 Goal=   None    Shift=    0.000
 RMSDP=1.03D-04 MaxDP=8.45D-03 DE=-9.49D-03 OVMax= 1.53D-02

 Cycle   5  Pass 0  IDiag  1:
 E= -191.609262230859     Delta-E=       -0.002718893864 Rises=F Damp=F
 DIIS: error= 3.36D-04 at cycle   5 NSaved=   5.
 NSaved= 5 IEnMin= 5 EnMin= -191.609262230859     IErMin= 5 ErrMin= 3.36D-04
 ErrMax= 3.36D-04  0.00D+00 EMaxC= 1.00D-01 BMatC= 1.18D-05 BMatP= 3.39D-03
 IDIUse=3 WtCom= 9.97D-01 WtEn= 3.36D-03
 Coeff-Com: -0.659D-02 0.775D-02 0.486D-01 0.116D+00 0.834D+00
 Coeff-En:   0.000D+00 0.000D+00 0.000D+00 0.000D+00 0.100D+01
 Coeff:     -0.657D-02 0.772D-02 0.484D-01 0.116D+00 0.835D+00
 Gap=     0.321 Goal=   None    Shift=    0.000
 RMSDP=8.45D-06 MaxDP=5.59D-04 DE=-2.72D-03 OVMax= 2.30D-03

 Initial convergence to 1.0D-05 achieved.  Increase integral accuracy.
 Cycle   6  Pass 1  IDiag  1:
 E= -191.609257728127     Delta-E=        0.000004502732 Rises=F Damp=F
 DIIS: error= 1.03D-04 at cycle   1 NSaved=   1.
 NSaved= 1 IEnMin= 1 EnMin= -191.609257728127     IErMin= 1 ErrMin= 1.03D-04
 ErrMax= 1.03D-04  0.00D+00 EMaxC= 1.00D-01 BMatC= 1.67D-06 BMatP= 1.67D-06
 IDIUse=3 WtCom= 9.99D-01 WtEn= 1.03D-03
 Coeff-Com:  0.100D+01
 Coeff-En:   0.100D+01
 Coeff:      0.100D+01
 Gap=     0.321 Goal=   None    Shift=    0.000
 RMSDP=8.45D-06 MaxDP=5.59D-04 DE= 4.50D-06 OVMax= 7.68D-04

 Cycle   7  Pass 1  IDiag  1:
 E= -191.609258848246     Delta-E=       -0.000001120119 Rises=F Damp=F
 DIIS: error= 7.77D-05 at cycle   2 NSaved=   2.
 NSaved= 2 IEnMin= 2 EnMin= -191.609258848246     IErMin= 2 ErrMin= 7.77D-05
 ErrMax= 7.77D-05  0.00D+00 EMaxC= 1.00D-01 BMatC= 1.02D-06 BMatP= 1.67D-06
 IDIUse=1 WtCom= 1.00D+00 WtEn= 0.00D+00
 Coeff-Com:  0.432D+00 0.568D+00
 Coeff:      0.432D+00 0.568D+00
 Gap=     0.321 Goal=   None    Shift=    0.000
 RMSDP=1.89D-06 MaxDP=1.46D-04 DE=-1.12D-06 OVMax= 5.24D-04

 Cycle   8  Pass 1  IDiag  1:
 E= -191.609259800297     Delta-E=       -0.000000952051 Rises=F Damp=F
 DIIS: error= 1.57D-05 at cycle   3 NSaved=   3.
 NSaved= 3 IEnMin= 3 EnMin= -191.609259800297     IErMin= 3 ErrMin= 1.57D-05
 ErrMax= 1.57D-05  0.00D+00 EMaxC= 1.00D-01 BMatC= 7.01D-08 BMatP= 1.02D-06
 IDIUse=1 WtCom= 1.00D+00 WtEn= 0.00D+00
 Coeff-Com:  0.711D-01 0.194D+00 0.734D+00
 Coeff:      0.711D-01 0.194D+00 0.734D+00
 Gap=     0.321 Goal=   None    Shift=    0.000
 RMSDP=1.34D-06 MaxDP=1.52D-04 DE=-9.52D-07 OVMax= 1.10D-04

 Cycle   9  Pass 1  IDiag  1:
 E= -191.609259868345     Delta-E=       -0.000000068048 Rises=F Damp=F
 DIIS: error= 1.58D-05 at cycle   4 NSaved=   4.
 NSaved= 4 IEnMin= 4 EnMin= -191.609259868345     IErMin= 3 ErrMin= 1.57D-05
 ErrMax= 1.58D-05  0.00D+00 EMaxC= 1.00D-01 BMatC= 1.56D-08 BMatP= 7.01D-08
 IDIUse=1 WtCom= 1.00D+00 WtEn= 0.00D+00
 Coeff-Com: -0.110D+00-0.813D-01 0.354D+00 0.838D+00
 Coeff:     -0.110D+00-0.813D-01 0.354D+00 0.838D+00
 Gap=     0.321 Goal=   None    Shift=    0.000
 RMSDP=7.00D-07 MaxDP=7.40D-05 DE=-6.80D-08 OVMax= 1.10D-04

 Cycle  10  Pass 1  IDiag  1:
 E= -191.609259893435     Delta-E=       -0.000000025090 Rises=F Damp=F
 DIIS: error= 2.85D-06 at cycle   5 NSaved=   5.
 NSaved= 5 IEnMin= 5 EnMin= -191.609259893435     IErMin= 5 ErrMin= 2.85D-06
 ErrMax= 2.85D-06  0.00D+00 EMaxC= 1.00D-01 BMatC= 2.06D-09 BMatP= 1.56D-08
 IDIUse=1 WtCom= 1.00D+00 WtEn= 0.00D+00
 Coeff-Com: -0.493D-01-0.441D-01 0.823D-01 0.386D+00 0.625D+00
 Coeff:     -0.493D-01-0.441D-01 0.823D-01 0.386D+00 0.625D+00
 Gap=     0.321 Goal=   None    Shift=    0.000
 RMSDP=1.49D-07 MaxDP=1.60D-05 DE=-2.51D-08 OVMax= 1.95D-05

 Cycle  11  Pass 1  IDiag  1:
 E= -191.609259894990     Delta-E=       -0.000000001555 Rises=F Damp=F
 DIIS: error= 1.12D-06 at cycle   6 NSaved=   6.
 NSaved= 6 IEnMin= 6 EnMin= -191.609259894990     IErMin= 6 ErrMin= 1.12D-06
 ErrMax= 1.12D-06  0.00D+00 EMaxC= 1.00D-01 BMatC= 2.18D-10 BMatP= 2.06D-09
 IDIUse=1 WtCom= 1.00D+00 WtEn= 0.00D+00
 Coeff-Com:  0.661D-02 0.210D-02-0.631D-01-0.102D-01 0.216D+00 0.848D+00
 Coeff:      0.661D-02 0.210D-02-0.631D-01-0.102D-01 0.216D+00 0.848D+00
 Gap=     0.321 Goal=   None    Shift=    0.000
 RMSDP=5.85D-08 MaxDP=6.30D-06 DE=-1.55D-09 OVMax= 5.53D-06

 Cycle  12  Pass 1  IDiag  1:
 E= -191.609259895240     Delta-E=       -0.000000000250 Rises=F Damp=F
 DIIS: error= 2.55D-07 at cycle   7 NSaved=   7.
 NSaved= 7 IEnMin= 7 EnMin= -191.609259895240     IErMin= 7 ErrMin= 2.55D-07
 ErrMax= 2.55D-07  0.00D+00 EMaxC= 1.00D-01 BMatC= 1.47D-11 BMatP= 2.18D-10
 IDIUse=1 WtCom= 1.00D+00 WtEn= 0.00D+00
 Coeff-Com:  0.559D-02 0.362D-02-0.309D-01-0.236D-01 0.331D-01 0.299D+00
 Coeff-Com:  0.713D+00
 Coeff:      0.559D-02 0.362D-02-0.309D-01-0.236D-01 0.331D-01 0.299D+00
 Coeff:      0.713D+00
 Gap=     0.321 Goal=   None    Shift=    0.000
 RMSDP=8.37D-09 MaxDP=4.31D-07 DE=-2.50D-10 OVMax= 1.67D-06

 SCF Done:  E(RB2PLYPD3) =  -191.609259895     A.U. after   12 cycles
            NFock= 12  Conv=0.84D-08     -V/T= 2.0033
 KE= 1.909779144846D+02 PE=-6.548834616815D+02 EE= 1.688655689583D+02
 Leave Link  502 at Wed Aug 26 15:51:50 2020, MaxMem=  2097152000 cpu:       258.6
 (Enter /opt/cluster/programs/g09/g09_d.01/g09/l801.exe)
 DoSCS=T DFT=T ScalE2(SS,OS)=  0.270000  0.270000
 ExpMin= 7.60D-02 ExpMax= 1.17D+05 ExpMxC= 1.13D+03 IAcc=3 IRadAn=         5 AccDes= 0.00D+00
 HarFok:  IExCor=  205 AccDes= 0.00D+00 IRadAn=         5 IDoV=-2 UseB2=F ITyADJ=14
 ICtDFT= 12500011 ScaDFX=  1.000000  1.000000  1.000000  1.000000
 DSYEVD-2 returned Info=        1739 IAlg= 4 N=    57 NDim=    57 NE2=    36785415 trying  DSYEV.
 Largest valence mixing into a core orbital is  1.16D-04
 Largest core mixing into a valence orbital is  1.86D-05
 Range of M.O.s used for correlation:     5   348
 NBasis=   348 NAE=    15 NBE=    15 NFC=     4 NFV=     0
 NROrb=    344 NOA=    11 NOB=    11 NVA=   333 NVB=   333

 **** Warning!!: The largest alpha MO coefficient is  0.30236851D+02

 Leave Link  801 at Wed Aug 26 15:51:50 2020, MaxMem=  2097152000 cpu:         0.9
 (Enter /opt/cluster/programs/g09/g09_d.01/g09/l906.exe)
 DoSCS=T DFT=T ScalE2(SS,OS)=  0.270000  0.270000
 FulOut=F Deriv=F AODrv=F NAtomX=     8
   MMem=        1190  MDisk=          11 MDiskD=          11
  W3Min=     1567764 MinDsk=     2827057 NBas6D=         428
 NBas2D=       93150    NTT=       91806    LW2=     4508827
    MDV=  2096571050 MDiskM=       10875 NBas2p=       89430
 Fully direct method using O(OVN) memory.
 IMap=   1   2   3   4   5   6   7   8   9  10  11
 JobTyp=1 Pass  1:  I=   1 to  11 NPSUse=  8 ParTrn=T ParDer=T DoDerP=F.
 Spin components of T(2) and E(2):
     alpha-alpha T2 =       0.4393730798D-01 E2=     -0.2954634786D-01
     alpha-beta  T2 =       0.2677704500D+00 E2=     -0.1884703159D+00
     beta-beta   T2 =       0.4393730798D-01 E2=     -0.2954634786D-01
 The integrals were generated   1 times.
 E2(B2PLYPD3) =    -0.2475630116D+00 E(B2PLYPD3) =    -0.19185682290685D+03
 Leave Link  906 at Wed Aug 26 15:52:47 2020, MaxMem=  2097152000 cpu:       452.1
 (Enter /opt/cluster/programs/g09/g09_d.01/g09/l601.exe)
 Copying SCF densities to generalized density rwf, IOpCl= 0 IROHF=0.

 **********************************************************************

            Population analysis using the SCF density.

 **********************************************************************

 Orbital symmetries:
       Occupied  (A) (A) (A) (A) (A) (A) (A) (A) (A) (A) (A) (A)
                 (A) (A) (A)
       Virtual   (A) (A) (A) (A) (A) (A) (A) (A) (A) (A) (A) (A)
                 (A) (A) (A) (A) (A) (A) (A) (A) (A) (A) (A) (A)
                 (A) (A) (A) (A) (A) (A) (A) (A) (A) (A) (A) (A)
                 (A) (A) (A) (A) (A) (A) (A) (A) (A) (A) (A) (A)
                 (A) (A) (A) (A) (A) (A) (A) (A) (A) (A) (A) (A)
                 (A) (A) (A) (A) (A) (A) (A) (A) (A) (A) (A) (A)
                 (A) (A) (A) (A) (A) (A) (A) (A) (A) (A) (A) (A)
                 (A) (A) (A) (A) (A) (A) (A) (A) (A) (A) (A) (A)
                 (A) (A) (A) (A) (A) (A) (A) (A) (A) (A) (A) (A)
                 (A) (A) (A) (A) (A) (A) (A) (A) (A) (A) (A) (A)
                 (A) (A) (A) (A) (A) (A) (A) (A) (A) (A) (A) (A)
                 (A) (A) (A) (A) (A) (A) (A) (A) (A) (A) (A) (A)
                 (A) (A) (A) (A) (A) (A) (A) (A) (A) (A) (A) (A)
                 (A) (A) (A) (A) (A) (A) (A) (A) (A) (A) (A) (A)
                 (A) (A) (A) (A) (A) (A) (A) (A) (A) (A) (A) (A)
                 (A) (A) (A) (A) (A) (A) (A) (A) (A) (A) (A) (A)
                 (A) (A) (A) (A) (A) (A) (A) (A) (A) (A) (A) (A)
                 (A) (A) (A) (A) (A) (A) (A) (A) (A) (A) (A) (A)
                 (A) (A) (A) (A) (A) (A) (A) (A) (A) (A) (A) (A)
                 (A) (A) (A) (A) (A) (A) (A) (A) (A) (A) (A) (A)
                 (A) (A) (A) (A) (A) (A) (A) (A) (A) (A) (A) (A)
                 (A) (A) (A) (A) (A) (A) (A) (A) (A) (A) (A) (A)
                 (A) (A) (A) (A) (A) (A) (A) (A) (A) (A) (A) (A)
                 (A) (A) (A) (A) (A) (A) (A) (A) (A) (A) (A) (A)
                 (A) (A) (A) (A) (A) (A) (A) (A) (A) (A) (A) (A)
                 (A) (A) (A) (A) (A) (A) (A) (A) (A) (A) (A) (A)
                 (A) (A) (A) (A) (A) (A) (A) (A) (A) (A) (A) (A)
                 (A) (A) (A) (A) (A) (A) (A) (A) (A)
 The electronic state is 1-A.
 Alpha  occ. eigenvalues --  -19.72962 -10.72028 -10.65315 -10.64238  -1.19505
 Alpha  occ. eigenvalues --   -0.93370  -0.75311  -0.67084  -0.56830  -0.55967
 Alpha  occ. eigenvalues --   -0.50263  -0.47167  -0.46677  -0.34736  -0.33934
 Alpha virt. eigenvalues --   -0.01808   0.05711   0.06931   0.08187   0.09778
 Alpha virt. eigenvalues --    0.12530   0.13928   0.15299   0.17419   0.19782
 Alpha virt. eigenvalues --    0.20343   0.21295   0.25457   0.26303   0.28952
 Alpha virt. eigenvalues --    0.31434   0.32985   0.35340   0.37310   0.38970
 Alpha virt. eigenvalues --    0.40002   0.40777   0.43001   0.45084   0.46158
 Alpha virt. eigenvalues --    0.46341   0.49282   0.53743   0.55340   0.56951
 Alpha virt. eigenvalues --    0.59256   0.64032   0.66225   0.66461   0.71167
 Alpha virt. eigenvalues --    0.74997   0.76327   0.78133   0.79920   0.80753
 Alpha virt. eigenvalues --    0.81647   0.82498   0.83300   0.84118   0.86584
 Alpha virt. eigenvalues --    0.88624   0.91584   0.92830   0.93457   0.96090
 Alpha virt. eigenvalues --    0.96481   0.97020   1.00833   1.02406   1.07226
 Alpha virt. eigenvalues --    1.10186   1.11888   1.14664   1.17963   1.19141
 Alpha virt. eigenvalues --    1.20176   1.26848   1.29113   1.32064   1.40438
 Alpha virt. eigenvalues --    1.42252   1.47204   1.47974   1.55119   1.57158
 Alpha virt. eigenvalues --    1.61293   1.62956   1.64343   1.66385   1.68978
 Alpha virt. eigenvalues --    1.74155   1.76684   1.77540   1.81521   1.83455
 Alpha virt. eigenvalues --    1.86454   1.90916   1.92558   1.93479   1.93802
 Alpha virt. eigenvalues --    1.95816   1.98731   2.00233   2.01693   2.02656
 Alpha virt. eigenvalues --    2.06640   2.10181   2.12053   2.13474   2.14695
 Alpha virt. eigenvalues --    2.16966   2.19354   2.19685   2.22986   2.25595
 Alpha virt. eigenvalues --    2.28897   2.34953   2.35307   2.38716   2.41394
 Alpha virt. eigenvalues --    2.45536   2.46627   2.50193   2.50867   2.52950
 Alpha virt. eigenvalues --    2.54525   2.57961   2.59569   2.61260   2.63606
 Alpha virt. eigenvalues --    2.66099   2.66916   2.67803   2.69001   2.73474
 Alpha virt. eigenvalues --    2.74719   2.78326   2.85241   2.86122   2.88514
 Alpha virt. eigenvalues --    2.88828   2.94818   3.00525   3.01202   3.09322
 Alpha virt. eigenvalues --    3.16962   3.18801   3.25496   3.28789   3.29946
 Alpha virt. eigenvalues --    3.34839   3.40349   3.42593   3.45113   3.46920
 Alpha virt. eigenvalues --    3.50563   3.52134   3.60656   3.61153   3.65163
 Alpha virt. eigenvalues --    3.67877   3.71862   3.77742   3.86280   3.90939
 Alpha virt. eigenvalues --    3.95144   3.98399   4.02777   4.03710   4.05650
 Alpha virt. eigenvalues --    4.09363   4.18326   4.21164   4.27383   4.30819
 Alpha virt. eigenvalues --    4.39245   4.42993   4.55232   4.60598   4.62579
 Alpha virt. eigenvalues --    4.67120   4.84586   4.88328   4.92594   5.00246
 Alpha virt. eigenvalues --    5.03193   5.04838   5.08528   5.11278   5.12694
 Alpha virt. eigenvalues --    5.20955   5.25445   5.29326   5.35020   5.43419
 Alpha virt. eigenvalues --    5.46175   5.53569   5.54379   5.56836   5.59014
 Alpha virt. eigenvalues --    5.64307   5.65265   5.68817   5.71341   5.78658
 Alpha virt. eigenvalues --    5.80501   5.85202   5.85675   5.91662   5.93024
 Alpha virt. eigenvalues --    5.96838   5.97706   5.98249   6.04707   6.07117
 Alpha virt. eigenvalues --    6.10222   6.14582   6.15189   6.15443   6.17669
 Alpha virt. eigenvalues --    6.21407   6.22139   6.23196   6.28666   6.30922
 Alpha virt. eigenvalues --    6.32418   6.34484   6.37131   6.39692   6.42903
 Alpha virt. eigenvalues --    6.48478   6.48741   6.50566   6.51357   6.60529
 Alpha virt. eigenvalues --    6.64284   6.70963   6.73259   6.77825   6.80395
 Alpha virt. eigenvalues --    6.84982   6.86619   6.91803   6.92629   7.03425
 Alpha virt. eigenvalues --    7.09368   7.10684   7.11380   7.12296   7.20970
 Alpha virt. eigenvalues --    7.30445   7.36371   7.42649   7.47838   7.53637
 Alpha virt. eigenvalues --    7.55489   7.57156   7.58524   7.59951   7.66496
 Alpha virt. eigenvalues --    7.67679   7.69889   7.75022   7.75490   7.78838
 Alpha virt. eigenvalues --    7.85238   7.88222   7.90477   8.00182   8.03357
 Alpha virt. eigenvalues --    8.03560   8.06325   8.14035   8.18396   8.19137
 Alpha virt. eigenvalues --    8.22359   8.24330   8.28881   8.30936   8.32564
 Alpha virt. eigenvalues --    8.34684   8.39890   8.43607   8.53368   8.55759
 Alpha virt. eigenvalues --    8.59060   8.61562   8.70534   8.72968   8.75585
 Alpha virt. eigenvalues --    8.79317   8.82788   8.94459   8.98046   9.06222
 Alpha virt. eigenvalues --    9.07150   9.08703   9.19500   9.27401   9.28541
 Alpha virt. eigenvalues --    9.32511   9.41945   9.57842   9.63475   9.66762
 Alpha virt. eigenvalues --    9.70688   9.76498   9.78705   9.80906   9.94100
 Alpha virt. eigenvalues --   10.10183  10.12956  10.18724  10.19902  10.27168
 Alpha virt. eigenvalues --   10.46437  10.51657  10.59064  10.78595  10.91124
 Alpha virt. eigenvalues --   11.01163  11.22633  11.24833  11.28880  11.45916
 Alpha virt. eigenvalues --   11.65928  11.74463  11.84284  12.03796  12.07764
 Alpha virt. eigenvalues --   12.32090  12.36099  12.42730  12.51861  12.81359
 Alpha virt. eigenvalues --   12.94215  13.36532  13.78130  14.35961  14.69370
 Alpha virt. eigenvalues --   28.61628  28.86721  29.48961  48.65059 148.20426
 Alpha virt. eigenvalues --  148.42706 149.10327 254.41108
          Condensed to atoms (all electrons):
               1          2          3          4          5          6
     1  C    4.512753   0.615982   0.357127  -0.051421  -0.030684  -0.004636
     2  O    0.615982   7.880231  -0.088585   0.006686   0.003771   0.000446
     3  C    0.357127  -0.088585   5.163124   0.474513   0.372108  -0.056770
     4  C   -0.051421   0.006686   0.474513   4.875176  -0.039921   0.427930
     5  H   -0.030684   0.003771   0.372108  -0.039921   0.581806   0.005833
     6  H   -0.004636   0.000446  -0.056770   0.427930   0.005833   0.573715
     7  H    0.002350  -0.000456  -0.028325   0.413954  -0.004967  -0.039308
     8  H    0.450349  -0.071966  -0.166854   0.026412   0.007267   0.005595
               7          8
     1  C    0.002350   0.450349
     2  O   -0.000456  -0.071966
     3  C   -0.028325  -0.166854
     4  C    0.413954   0.026412
     5  H   -0.004967   0.007267
     6  H   -0.039308   0.005595
     7  H    0.557737  -0.000516
     8  H   -0.000516   0.683630
 Mulliken charges:
               1
     1  C    0.148181
     2  O   -0.346109
     3  C   -0.026339
     4  C   -0.133329
     5  H    0.104787
     6  H    0.087194
     7  H    0.099532
     8  H    0.066082
 Sum of Mulliken charges =   0.00000
 Mulliken charges with hydrogens summed into heavy atoms:
               1
     1  C    0.214264
     2  O   -0.346109
     3  C    0.078448
     4  C    0.053397
 Electronic spatial extent (au):  <R**2>=            296.8364
 Charge=              0.0000 electrons
 Dipole moment (field-independent basis, Debye):
    X=             -3.4859    Y=              0.7641    Z=              0.0859  Tot=              3.5697
 Quadrupole moment (field-independent basis, Debye-Ang):
   XX=            -27.3397   YY=            -21.8709   ZZ=            -25.2127
   XY=              1.0440   XZ=              0.2232   YZ=             -0.0936
 Traceless Quadrupole moment (field-independent basis, Debye-Ang):
   XX=             -2.5319   YY=              2.9369   ZZ=             -0.4049
   XY=              1.0440   XZ=              0.2232   YZ=             -0.0936
 Octapole moment (field-independent basis, Debye-Ang**2):
  XXX=            -15.4026  YYY=             -0.1455  ZZZ=             -0.0628  XYY=              0.3188
  XXY=              0.2864  XXZ=             -0.1088  XZZ=              4.2994  YZZ=              0.1709
  YYZ=              0.2094  XYZ=              0.0854
 Hexadecapole moment (field-independent basis, Debye-Ang**3):
 XXXX=           -298.7009 YYYY=            -55.5523 ZZZZ=            -27.4031 XXXY=              3.8503
 XXXZ=              0.9700 YYYX=             -0.2542 YYYZ=             -0.2567 ZZZX=             -0.0293
 ZZZY=             -0.1077 XXYY=            -58.6052 XXZZ=            -57.2292 YYZZ=            -15.4657
 XXYZ=             -0.1219 YYXZ=              0.1014 ZZXY=             -0.6032
 N-N= 1.034307183434D+02 E-N=-6.548834293974D+02  KE= 1.909779144846D+02
 Leave Link  601 at Wed Aug 26 15:52:47 2020, MaxMem=  2097152000 cpu:         0.6
 (Enter /opt/cluster/programs/g09/g09_d.01/g09/l9999.exe)
 1\1\GINC-NODE01\SP\RB2PLYPD3-FC\def2QZVP\C3H4O1\BOITTIER\26-Aug-2020\0
 \\#p B2PLYPD3/Def2QZVP\\acrolein\\0,1\C,0,-5.009428,-1.379551,0.91065\
 O,0,-3.939577,-0.876312,0.639744\C,0,-5.188739,-2.806918,1.156986\C,0,
 -6.398714,-3.310851,1.387206\H,0,-4.315974,-3.445775,1.184855\H,0,-7.1
 89982,-2.6779,1.366058\H,0,-6.603006,-4.424555,1.569493\H,0,-5.963298,
 -0.765533,1.036313\\Version=ES64L-G09RevD.01\State=1-A\HF=-191.6092599
 \MP2=-191.8568229\RMSD=8.367e-09\PG=C01 [X(C3H4O1)]\\@


 IF MATHEMATICALLY YOU END UP WITH THE INCORRECT ANSWER,
 TRY MULTIPLYING BY THE PAGE NUMBER.
 Job cpu time:       0 days  0 hours 12 minutes  4.2 seconds.
 File lengths (MBytes):  RWF=     49 Int=      0 D2E=      0 Chk=      7 Scr=      1
 Normal termination of Gaussian 09 at Wed Aug 26 15:52:47 2020.
