 Entering Gaussian System, Link 0=/opt/cluster/programs/g09/g09_d.01/g09//g09
 Input=/home/boittier/MDCM/nms_sampling/acrolein_geom.xyz.dir/energies/acrolein_9_energy.com
 Output=/scratch/boittier/acrolein_9_energy/acrolein_9_energy.out
 Initial command:
 /opt/cluster/programs/g09/g09_d.01/g09/l1.exe "/scratch/boittier/acrolein_9_energy/Gau-102422.inp" -scrdir="/scratch/boittier/acrolein_9_energy/"
 Entering Link 1 = /opt/cluster/programs/g09/g09_d.01/g09/l1.exe PID=    102423.
  
 Copyright (c) 1988,1990,1992,1993,1995,1998,2003,2009,2013,
            Gaussian, Inc.  All Rights Reserved.
  
 This is part of the Gaussian(R) 09 program.  It is based on
 the Gaussian(R) 03 system (copyright 2003, Gaussian, Inc.),
 the Gaussian(R) 98 system (copyright 1998, Gaussian, Inc.),
 the Gaussian(R) 94 system (copyright 1995, Gaussian, Inc.),
 the Gaussian 92(TM) system (copyright 1992, Gaussian, Inc.),
 the Gaussian 90(TM) system (copyright 1990, Gaussian, Inc.),
 the Gaussian 88(TM) system (copyright 1988, Gaussian, Inc.),
 the Gaussian 86(TM) system (copyright 1986, Carnegie Mellon
 University), and the Gaussian 82(TM) system (copyright 1983,
 Carnegie Mellon University). Gaussian is a federally registered
 trademark of Gaussian, Inc.
  
 This software contains proprietary and confidential information,
 including trade secrets, belonging to Gaussian, Inc.
  
 This software is provided under written license and may be
 used, copied, transmitted, or stored only in accord with that
 written license.
  
 The following legend is applicable only to US Government
 contracts under FAR:
  
                    RESTRICTED RIGHTS LEGEND
  
 Use, reproduction and disclosure by the US Government is
 subject to restrictions as set forth in subparagraphs (a)
 and (c) of the Commercial Computer Software - Restricted
 Rights clause in FAR 52.227-19.
  
 Gaussian, Inc.
 340 Quinnipiac St., Bldg. 40, Wallingford CT 06492
  
  
 ---------------------------------------------------------------
 Warning -- This program may not be used in any manner that
 competes with the business of Gaussian, Inc. or will provide
 assistance to any competitor of Gaussian, Inc.  The licensee
 of this program is prohibited from giving any competitor of
 Gaussian, Inc. access to this program.  By using this program,
 the user acknowledges that Gaussian, Inc. is engaged in the
 business of creating and licensing software in the field of
 computational chemistry and represents and warrants to the
 licensee that it is not a competitor of Gaussian, Inc. and that
 it will not use this program in any manner prohibited above.
 ---------------------------------------------------------------
  

 Cite this work as:
 Gaussian 09, Revision D.01,
 M. J. Frisch, G. W. Trucks, H. B. Schlegel, G. E. Scuseria, 
 M. A. Robb, J. R. Cheeseman, G. Scalmani, V. Barone, B. Mennucci, 
 G. A. Petersson, H. Nakatsuji, M. Caricato, X. Li, H. P. Hratchian, 
 A. F. Izmaylov, J. Bloino, G. Zheng, J. L. Sonnenberg, M. Hada, 
 M. Ehara, K. Toyota, R. Fukuda, J. Hasegawa, M. Ishida, T. Nakajima, 
 Y. Honda, O. Kitao, H. Nakai, T. Vreven, J. A. Montgomery, Jr., 
 J. E. Peralta, F. Ogliaro, M. Bearpark, J. J. Heyd, E. Brothers, 
 K. N. Kudin, V. N. Staroverov, T. Keith, R. Kobayashi, J. Normand, 
 K. Raghavachari, A. Rendell, J. C. Burant, S. S. Iyengar, J. Tomasi, 
 M. Cossi, N. Rega, J. M. Millam, M. Klene, J. E. Knox, J. B. Cross, 
 V. Bakken, C. Adamo, J. Jaramillo, R. Gomperts, R. E. Stratmann, 
 O. Yazyev, A. J. Austin, R. Cammi, C. Pomelli, J. W. Ochterski, 
 R. L. Martin, K. Morokuma, V. G. Zakrzewski, G. A. Voth, 
 P. Salvador, J. J. Dannenberg, S. Dapprich, A. D. Daniels, 
 O. Farkas, J. B. Foresman, J. V. Ortiz, J. Cioslowski, 
 and D. J. Fox, Gaussian, Inc., Wallingford CT, 2013.
 
 ******************************************
 Gaussian 09:  ES64L-G09RevD.01 24-Apr-2013
                26-Aug-2020 
 ******************************************
 %chk=/home/boittier/MDCM/nms_sampling/acrolein_geom.xyz.dir/acrolein_9.chk
 %nproc=8
 Will use up to    8 processors via shared memory.
 %mem=16000MB
 --------------------
 #p B2PLYPD3/Def2QZVP
 --------------------
 1/38=1/1;
 2/12=2,17=6,18=5,40=1/2;
 3/5=45,7=101,11=9,16=1,25=1,30=1,74=-60/1,2,3;
 4//1;
 5/5=2,38=5/2;
 8/10=1/1;
 9/16=-3/6;
 6/7=2,8=2,9=2,10=2/1;
 99/5=1,9=1/99;
 Leave Link    1 at Wed Aug 26 20:55:13 2020, MaxMem=  2097152000 cpu:         2.8
 (Enter /opt/cluster/programs/g09/g09_d.01/g09/l101.exe)
 --------
 acrolein
 --------
 Symbolic Z-matrix:
 Charge =  0 Multiplicity = 1
 C                    -5.00817  -1.37961   0.87751 
 O                    -3.94002  -0.87454   0.67538 
 C                    -5.18304  -2.81037   1.11539 
 C                    -6.40331  -3.30999   1.42274 
 H                    -4.3132   -3.44611   1.135 
 H                    -7.2211   -2.65616   1.40912 
 H                    -6.60082  -4.43958   1.62018 
 H                    -5.95869  -0.76755   0.90186 
 
 NAtoms=      8 NQM=        8 NQMF=       0 NMMI=      0 NMMIF=      0
                NMic=       0 NMicF=      0.
                    Isotopes and Nuclear Properties:
 (Nuclear quadrupole moments (NQMom) in fm**2, nuclear magnetic moments (NMagM)
  in nuclear magnetons)

  Atom         1           2           3           4           5           6           7           8
 IAtWgt=          12          16          12          12           1           1           1           1
 AtmWgt=  12.0000000  15.9949146  12.0000000  12.0000000   1.0078250   1.0078250   1.0078250   1.0078250
 NucSpn=           0           0           0           0           1           1           1           1
 AtZEff=   0.0000000   0.0000000   0.0000000   0.0000000   0.0000000   0.0000000   0.0000000   0.0000000
 NQMom=    0.0000000   0.0000000   0.0000000   0.0000000   0.0000000   0.0000000   0.0000000   0.0000000
 NMagM=    0.0000000   0.0000000   0.0000000   0.0000000   2.7928460   2.7928460   2.7928460   2.7928460
 AtZNuc=   6.0000000   8.0000000   6.0000000   6.0000000   1.0000000   1.0000000   1.0000000   1.0000000
 Leave Link  101 at Wed Aug 26 20:55:13 2020, MaxMem=  2097152000 cpu:         0.5
 (Enter /opt/cluster/programs/g09/g09_d.01/g09/l202.exe)
                          Input orientation:                          
 ---------------------------------------------------------------------
 Center     Atomic      Atomic             Coordinates (Angstroms)
 Number     Number       Type             X           Y           Z
 ---------------------------------------------------------------------
      1          6           0       -5.008169   -1.379608    0.877510
      2          8           0       -3.940016   -0.874535    0.675375
      3          6           0       -5.183044   -2.810370    1.115385
      4          6           0       -6.403305   -3.309986    1.422742
      5          1           0       -4.313201   -3.446112    1.134997
      6          1           0       -7.221095   -2.656161    1.409120
      7          1           0       -6.600819   -4.439580    1.620181
      8          1           0       -5.958685   -0.767554    0.901861
 ---------------------------------------------------------------------
                    Distance matrix (angstroms):
                    1          2          3          4          5
     1  C    0.000000
     2  O    1.198711   0.000000
     3  C    1.460906   2.342261   0.000000
     4  C    2.443367   3.543695   1.353928   0.000000
     5  H    2.195386   2.638850   1.077580   2.114205   0.000000
     6  H    2.609452   3.805004   2.064876   1.047117   3.025725
     7  H    3.528672   4.547755   2.217934   1.163605   2.540783
     8  H    1.130789   2.034150   2.195520   2.633052   3.152244
                    6          7          8
     6  H    0.000000
     7  H    1.899966   0.000000
     8  H    2.327623   3.796326   0.000000
 Stoichiometry    C3H4O
 Framework group  C1[X(C3H4O)]
 Deg. of freedom    18
 Full point group                 C1      NOp   1
 Largest Abelian subgroup         C1      NOp   1
 Largest concise Abelian subgroup C1      NOp   1
                         Standard orientation:                         
 ---------------------------------------------------------------------
 Center     Atomic      Atomic             Coordinates (Angstroms)
 Number     Number       Type             X           Y           Z
 ---------------------------------------------------------------------
      1          6           0       -0.678976    0.351458    0.013304
      2          8           0       -1.776687   -0.129211   -0.016607
      3          6           0        0.543211   -0.448678    0.030262
      4          6           0        1.755899    0.151094   -0.022489
      5          1           0        0.464261   -1.522633   -0.009333
      6          1           0        1.789519    1.197403    0.001189
      7          1           0        2.760735   -0.435534   -0.010284
      8          1           0       -0.521821    1.471214    0.024824
 ---------------------------------------------------------------------
 Rotational constants (GHZ):     47.6486093      4.6953195      4.2758856
 Leave Link  202 at Wed Aug 26 20:55:14 2020, MaxMem=  2097152000 cpu:         0.0
 (Enter /opt/cluster/programs/g09/g09_d.01/g09/l301.exe)
 Standard basis: def2QZVP (5D, 7F)
 Ernie: Thresh=  0.10000D-02 Tol=  0.10000D-05 Strict=F.
 There are   428 symmetry adapted cartesian basis functions of A   symmetry.
 There are   348 symmetry adapted basis functions of A   symmetry.
   348 basis functions,   520 primitive gaussians,   428 cartesian basis functions
    15 alpha electrons       15 beta electrons
       nuclear repulsion energy       103.2355517587 Hartrees.
 IExCor=  419 DFT=T Ex+Corr=B2PLYPD3 ExCW=0 ScaHFX=  0.530000
 ScaDFX=  0.470000  0.470000  0.730000  0.730000 ScalE2=  0.270000  0.270000
 IRadAn=      0 IRanWt=     -1 IRanGd=            0 ICorTp=0 IEmpDi=141
 NAtoms=    8 NActive=    8 NUniq=    8 SFac= 1.00D+00 NAtFMM=   60 NAOKFM=F Big=F
 Integral buffers will be    131072 words long.
 Regular integral format.
 Two-electron integral symmetry is turned on.
 R6Disp:  Grimme-D3(BJ) Dispersion energy=       -0.0035831775 Hartrees.
 Nuclear repulsion after empirical dispersion term =      103.2319685812 Hartrees.
 Leave Link  301 at Wed Aug 26 20:55:15 2020, MaxMem=  2097152000 cpu:         0.4
 (Enter /opt/cluster/programs/g09/g09_d.01/g09/l302.exe)
 NPDir=0 NMtPBC=     1 NCelOv=     1 NCel=       1 NClECP=     1 NCelD=      1
         NCelK=      1 NCelE2=     1 NClLst=     1 CellRange=     0.0.
 One-electron integrals computed using PRISM.
   1 Symmetry operations used in ECPInt.
 ECPInt:  NShTT=    5886 NPrTT=   14376 LenC2=    5780 LenP2D=   12179.
 LDataN:  DoStor=T MaxTD1= 8 Len=  415
 NBasis=   348 RedAO= T EigKep=  6.11D-05  NBF=   348
 NBsUse=   348 1.00D-06 EigRej= -1.00D+00 NBFU=   348
 Precomputing XC quadrature grid using
 IXCGrd= 4 IRadAn=           0 IRanWt=          -1 IRanGd=           0 AccXCQ= 0.00D+00.
 Generated NRdTot=       0 NPtTot=           0 NUsed=           0 NTot=          32
 NSgBfM=   428   428   428   428   428 MxSgAt=     8 MxSgA2=     8.
 Leave Link  302 at Wed Aug 26 20:55:15 2020, MaxMem=  2097152000 cpu:         3.0
 (Enter /opt/cluster/programs/g09/g09_d.01/g09/l303.exe)
 DipDrv:  MaxL=1.
 Leave Link  303 at Wed Aug 26 20:55:16 2020, MaxMem=  2097152000 cpu:         0.3
 (Enter /opt/cluster/programs/g09/g09_d.01/g09/l401.exe)
 ExpMin= 7.60D-02 ExpMax= 1.17D+05 ExpMxC= 1.13D+03 IAcc=2 IRadAn=         4 AccDes= 0.00D+00
 Harris functional with IExCor=  419 and IRadAn=       4 diagonalized for initial guess.
 HarFok:  IExCor=  419 AccDes= 0.00D+00 IRadAn=         4 IDoV= 1 UseB2=F ITyADJ=14
 ICtDFT=  3500011 ScaDFX=  1.000000  1.000000  1.000000  1.000000
 FoFCou: FMM=F IPFlag=           0 FMFlag=      100000 FMFlg1=           0
         NFxFlg=           0 DoJE=T BraDBF=F KetDBF=T FulRan=T
         wScrn=  0.000000 ICntrl=     500 IOpCl=  0 I1Cent=   200000004 NGrid=           0
         NMat0=    1 NMatS0=      1 NMatT0=    0 NMatD0=    1 NMtDS0=    0 NMtDT0=    0
 Petite list used in FoFCou.
 Harris En= -192.037636065855    
 JPrj=0 DoOrth=F DoCkMO=F.
 Leave Link  401 at Wed Aug 26 20:55:17 2020, MaxMem=  2097152000 cpu:         6.9
 (Enter /opt/cluster/programs/g09/g09_d.01/g09/l502.exe)
 Closed shell SCF:
 Using DIIS extrapolation, IDIIS=  1040.
 Integral symmetry usage will be decided dynamically.
 Keep R1 ints in memory in canonical form, NReq=1883905047.
 IVT=      574566 IEndB=      574566 NGot=  2097152000 MDV=   252723534
 LenX=   252723534 LenY=   252539909
 Requested convergence on RMS density matrix=1.00D-08 within 128 cycles.
 Requested convergence on MAX density matrix=1.00D-06.
 Requested convergence on             energy=1.00D-06.
 No special actions if energy rises.
 FoFCou: FMM=F IPFlag=           0 FMFlag=           0 FMFlg1=           0
         NFxFlg=           0 DoJE=F BraDBF=F KetDBF=F FulRan=T
         wScrn=  0.000000 ICntrl=     600 IOpCl=  0 I1Cent=           0 NGrid=           0
         NMat0=    1 NMatS0=  60726 NMatT0=    0 NMatD0=    1 NMtDS0=    0 NMtDT0=    0
 Symmetry not used in FoFCou.
 Integral accuracy reduced to 1.0D-05 until final iterations.

 Cycle   1  Pass 0  IDiag  1:
 E= -191.469985095056    
 DIIS: error= 2.72D-02 at cycle   1 NSaved=   1.
 NSaved= 1 IEnMin= 1 EnMin= -191.469985095056     IErMin= 1 ErrMin= 2.72D-02
 ErrMax= 2.72D-02  0.00D+00 EMaxC= 1.00D-01 BMatC= 2.54D-01 BMatP= 2.54D-01
 IDIUse=3 WtCom= 7.28D-01 WtEn= 2.72D-01
 Coeff-Com:  0.100D+01
 Coeff-En:   0.100D+01
 Coeff:      0.100D+01
 Gap=     0.284 Goal=   None    Shift=    0.000
 GapD=    0.284 DampG=1.000 DampE=0.500 DampFc=0.5000 IDamp=-1.
 Damping current iteration by 5.00D-01
 RMSDP=1.88D-03 MaxDP=2.40D-01              OVMax= 1.79D-01

 Cycle   2  Pass 0  IDiag  1:
 E= -191.537640953416     Delta-E=       -0.067655858360 Rises=F Damp=T
 DIIS: error= 1.02D-02 at cycle   2 NSaved=   2.
 NSaved= 2 IEnMin= 2 EnMin= -191.537640953416     IErMin= 2 ErrMin= 1.02D-02
 ErrMax= 1.02D-02  0.00D+00 EMaxC= 1.00D-01 BMatC= 3.35D-02 BMatP= 2.54D-01
 IDIUse=3 WtCom= 8.98D-01 WtEn= 1.02D-01
 Coeff-Com: -0.145D+00 0.115D+01
 Coeff-En:   0.000D+00 0.100D+01
 Coeff:     -0.131D+00 0.113D+01
 Gap=     0.353 Goal=   None    Shift=    0.000
 RMSDP=6.42D-04 MaxDP=8.37D-02 DE=-6.77D-02 OVMax= 1.31D-01

 Cycle   3  Pass 0  IDiag  1:
 E= -191.598619749857     Delta-E=       -0.060978796441 Rises=F Damp=F
 DIIS: error= 1.13D-02 at cycle   3 NSaved=   3.
 NSaved= 3 IEnMin= 3 EnMin= -191.598619749857     IErMin= 2 ErrMin= 1.02D-02
 ErrMax= 1.13D-02  0.00D+00 EMaxC= 1.00D-01 BMatC= 1.68D-02 BMatP= 3.35D-02
 IDIUse=3 WtCom= 8.87D-01 WtEn= 1.13D-01
 Coeff-Com: -0.190D+00 0.516D+00 0.673D+00
 Coeff-En:   0.000D+00 0.000D+00 0.100D+01
 Coeff:     -0.168D+00 0.458D+00 0.710D+00
 Gap=     0.330 Goal=   None    Shift=    0.000
 RMSDP=2.44D-04 MaxDP=1.84D-02 DE=-6.10D-02 OVMax= 4.78D-02

 Cycle   4  Pass 0  IDiag  1:
 E= -191.607856078419     Delta-E=       -0.009236328562 Rises=F Damp=F
 DIIS: error= 4.81D-03 at cycle   4 NSaved=   4.
 NSaved= 4 IEnMin= 4 EnMin= -191.607856078419     IErMin= 4 ErrMin= 4.81D-03
 ErrMax= 4.81D-03  0.00D+00 EMaxC= 1.00D-01 BMatC= 3.09D-03 BMatP= 1.68D-02
 IDIUse=3 WtCom= 9.52D-01 WtEn= 4.81D-02
 Coeff-Com: -0.591D-01 0.966D-01 0.367D+00 0.596D+00
 Coeff-En:   0.000D+00 0.000D+00 0.167D+00 0.833D+00
 Coeff:     -0.563D-01 0.919D-01 0.357D+00 0.607D+00
 Gap=     0.320 Goal=   None    Shift=    0.000
 RMSDP=9.78D-05 MaxDP=7.91D-03 DE=-9.24D-03 OVMax= 1.43D-02

 Cycle   5  Pass 0  IDiag  1:
 E= -191.610360820627     Delta-E=       -0.002504742208 Rises=F Damp=F
 DIIS: error= 3.52D-04 at cycle   5 NSaved=   5.
 NSaved= 5 IEnMin= 5 EnMin= -191.610360820627     IErMin= 5 ErrMin= 3.52D-04
 ErrMax= 3.52D-04  0.00D+00 EMaxC= 1.00D-01 BMatC= 1.06D-05 BMatP= 3.09D-03
 IDIUse=3 WtCom= 9.96D-01 WtEn= 3.52D-03
 Coeff-Com: -0.522D-02 0.562D-02 0.388D-01 0.102D+00 0.859D+00
 Coeff-En:   0.000D+00 0.000D+00 0.000D+00 0.000D+00 0.100D+01
 Coeff:     -0.520D-02 0.560D-02 0.387D-01 0.102D+00 0.859D+00
 Gap=     0.319 Goal=   None    Shift=    0.000
 RMSDP=1.04D-05 MaxDP=9.13D-04 DE=-2.50D-03 OVMax= 2.16D-03

 Cycle   6  Pass 0  IDiag  1:
 E= -191.610372893654     Delta-E=       -0.000012073027 Rises=F Damp=F
 DIIS: error= 9.71D-05 at cycle   6 NSaved=   6.
 NSaved= 6 IEnMin= 6 EnMin= -191.610372893654     IErMin= 6 ErrMin= 9.71D-05
 ErrMax= 9.71D-05  0.00D+00 EMaxC= 1.00D-01 BMatC= 1.46D-06 BMatP= 1.06D-05
 IDIUse=1 WtCom= 1.00D+00 WtEn= 0.00D+00
 Coeff-Com:  0.380D-02-0.712D-02-0.201D-01-0.247D-01 0.257D+00 0.791D+00
 Coeff:      0.380D-02-0.712D-02-0.201D-01-0.247D-01 0.257D+00 0.791D+00
 Gap=     0.320 Goal=   None    Shift=    0.000
 RMSDP=7.13D-06 MaxDP=7.73D-04 DE=-1.21D-05 OVMax= 5.23D-04

 Initial convergence to 1.0D-05 achieved.  Increase integral accuracy.
 Cycle   7  Pass 1  IDiag  1:
 E= -191.610356746792     Delta-E=        0.000016146862 Rises=F Damp=F
 DIIS: error= 2.38D-05 at cycle   1 NSaved=   1.
 NSaved= 1 IEnMin= 1 EnMin= -191.610356746792     IErMin= 1 ErrMin= 2.38D-05
 ErrMax= 2.38D-05  0.00D+00 EMaxC= 1.00D-01 BMatC= 1.92D-07 BMatP= 1.92D-07
 IDIUse=1 WtCom= 1.00D+00 WtEn= 0.00D+00
 Coeff-Com:  0.100D+01
 Coeff:      0.100D+01
 Gap=     0.320 Goal=   None    Shift=    0.000
 RMSDP=7.13D-06 MaxDP=7.73D-04 DE= 1.61D-05 OVMax= 1.98D-04

 Cycle   8  Pass 1  IDiag  1:
 E= -191.610356875300     Delta-E=       -0.000000128508 Rises=F Damp=F
 DIIS: error= 3.02D-05 at cycle   2 NSaved=   2.
 NSaved= 2 IEnMin= 2 EnMin= -191.610356875300     IErMin= 1 ErrMin= 2.38D-05
 ErrMax= 3.02D-05  0.00D+00 EMaxC= 1.00D-01 BMatC= 1.08D-07 BMatP= 1.92D-07
 IDIUse=1 WtCom= 1.00D+00 WtEn= 0.00D+00
 Coeff-Com:  0.410D+00 0.590D+00
 Coeff:      0.410D+00 0.590D+00
 Gap=     0.320 Goal=   None    Shift=    0.000
 RMSDP=6.08D-07 MaxDP=3.54D-05 DE=-1.29D-07 OVMax= 2.01D-04

 Cycle   9  Pass 1  IDiag  1:
 E= -191.610356967518     Delta-E=       -0.000000092219 Rises=F Damp=F
 DIIS: error= 1.11D-05 at cycle   3 NSaved=   3.
 NSaved= 3 IEnMin= 3 EnMin= -191.610356967518     IErMin= 3 ErrMin= 1.11D-05
 ErrMax= 1.11D-05  0.00D+00 EMaxC= 1.00D-01 BMatC= 2.51D-08 BMatP= 1.08D-07
 IDIUse=1 WtCom= 1.00D+00 WtEn= 0.00D+00
 Coeff-Com: -0.390D-01 0.297D+00 0.742D+00
 Coeff:     -0.390D-01 0.297D+00 0.742D+00
 Gap=     0.320 Goal=   None    Shift=    0.000
 RMSDP=6.30D-07 MaxDP=6.80D-05 DE=-9.22D-08 OVMax= 5.76D-05

 Cycle  10  Pass 1  IDiag  1:
 E= -191.610356988900     Delta-E=       -0.000000021382 Rises=F Damp=F
 DIIS: error= 3.42D-06 at cycle   4 NSaved=   4.
 NSaved= 4 IEnMin= 4 EnMin= -191.610356988900     IErMin= 4 ErrMin= 3.42D-06
 ErrMax= 3.42D-06  0.00D+00 EMaxC= 1.00D-01 BMatC= 1.93D-09 BMatP= 2.51D-08
 IDIUse=1 WtCom= 1.00D+00 WtEn= 0.00D+00
 Coeff-Com: -0.724D-01 0.731D-01 0.245D+00 0.754D+00
 Coeff:     -0.724D-01 0.731D-01 0.245D+00 0.754D+00
 Gap=     0.320 Goal=   None    Shift=    0.000
 RMSDP=1.56D-07 MaxDP=1.52D-05 DE=-2.14D-08 OVMax= 2.86D-05

 Cycle  11  Pass 1  IDiag  1:
 E= -191.610356991402     Delta-E=       -0.000000002502 Rises=F Damp=F
 DIIS: error= 1.58D-06 at cycle   5 NSaved=   5.
 NSaved= 5 IEnMin= 5 EnMin= -191.610356991402     IErMin= 5 ErrMin= 1.58D-06
 ErrMax= 1.58D-06  0.00D+00 EMaxC= 1.00D-01 BMatC= 3.99D-10 BMatP= 1.93D-09
 IDIUse=1 WtCom= 1.00D+00 WtEn= 0.00D+00
 Coeff-Com: -0.141D-01-0.144D-01-0.896D-01 0.243D+00 0.875D+00
 Coeff:     -0.141D-01-0.144D-01-0.896D-01 0.243D+00 0.875D+00
 Gap=     0.320 Goal=   None    Shift=    0.000
 RMSDP=1.08D-07 MaxDP=1.17D-05 DE=-2.50D-09 OVMax= 1.40D-05

 Cycle  12  Pass 1  IDiag  1:
 E= -191.610356991811     Delta-E=       -0.000000000408 Rises=F Damp=F
 DIIS: error= 5.98D-07 at cycle   6 NSaved=   6.
 NSaved= 6 IEnMin= 6 EnMin= -191.610356991811     IErMin= 6 ErrMin= 5.98D-07
 ErrMax= 5.98D-07  0.00D+00 EMaxC= 1.00D-01 BMatC= 6.20D-11 BMatP= 3.99D-10
 IDIUse=1 WtCom= 1.00D+00 WtEn= 0.00D+00
 Coeff-Com:  0.206D-02-0.135D-01-0.787D-01 0.243D-01 0.436D+00 0.630D+00
 Coeff:      0.206D-02-0.135D-01-0.787D-01 0.243D-01 0.436D+00 0.630D+00
 Gap=     0.320 Goal=   None    Shift=    0.000
 RMSDP=3.13D-08 MaxDP=3.58D-06 DE=-4.08D-10 OVMax= 3.09D-06

 Cycle  13  Pass 1  IDiag  1:
 E= -191.610356991869     Delta-E=       -0.000000000058 Rises=F Damp=F
 DIIS: error= 5.67D-08 at cycle   7 NSaved=   7.
 NSaved= 7 IEnMin= 7 EnMin= -191.610356991869     IErMin= 7 ErrMin= 5.67D-08
 ErrMax= 5.67D-08  0.00D+00 EMaxC= 1.00D-01 BMatC= 8.79D-13 BMatP= 6.20D-11
 IDIUse=1 WtCom= 1.00D+00 WtEn= 0.00D+00
 Coeff-Com:  0.109D-02-0.170D-02-0.141D-01-0.768D-02 0.619D-01 0.144D+00
 Coeff-Com:  0.816D+00
 Coeff:      0.109D-02-0.170D-02-0.141D-01-0.768D-02 0.619D-01 0.144D+00
 Coeff:      0.816D+00
 Gap=     0.320 Goal=   None    Shift=    0.000
 RMSDP=3.08D-09 MaxDP=1.44D-07 DE=-5.81D-11 OVMax= 4.95D-07

 SCF Done:  E(RB2PLYPD3) =  -191.610356992     A.U. after   13 cycles
            NFock= 13  Conv=0.31D-08     -V/T= 2.0037
 KE= 1.909112840486D+02 PE=-6.544380147860D+02 EE= 1.686844051643D+02
 Leave Link  502 at Wed Aug 26 20:56:25 2020, MaxMem=  2097152000 cpu:       295.7
 (Enter /opt/cluster/programs/g09/g09_d.01/g09/l801.exe)
 DoSCS=T DFT=T ScalE2(SS,OS)=  0.270000  0.270000
 ExpMin= 7.60D-02 ExpMax= 1.17D+05 ExpMxC= 1.13D+03 IAcc=3 IRadAn=         5 AccDes= 0.00D+00
 HarFok:  IExCor=  205 AccDes= 0.00D+00 IRadAn=         5 IDoV=-2 UseB2=F ITyADJ=14
 ICtDFT= 12500011 ScaDFX=  1.000000  1.000000  1.000000  1.000000
 Largest valence mixing into a core orbital is  1.15D-04
 Largest core mixing into a valence orbital is  1.92D-05
 Range of M.O.s used for correlation:     5   348
 NBasis=   348 NAE=    15 NBE=    15 NFC=     4 NFV=     0
 NROrb=    344 NOA=    11 NOB=    11 NVA=   333 NVB=   333

 **** Warning!!: The largest alpha MO coefficient is  0.30622079D+02

 Leave Link  801 at Wed Aug 26 20:56:26 2020, MaxMem=  2097152000 cpu:         0.9
 (Enter /opt/cluster/programs/g09/g09_d.01/g09/l906.exe)
 DoSCS=T DFT=T ScalE2(SS,OS)=  0.270000  0.270000
 FulOut=F Deriv=F AODrv=F NAtomX=     8
   MMem=        1190  MDisk=          11 MDiskD=          11
  W3Min=     1567764 MinDsk=     2827057 NBas6D=         428
 NBas2D=       93150    NTT=       91806    LW2=     4508827
    MDV=  2096571298 MDiskM=       10875 NBas2p=       89415
 Fully direct method using O(OVN) memory.
 IMap=   1   2   3   4   5   6   7   8   9  10  11
 JobTyp=1 Pass  1:  I=   1 to  11 NPSUse=  8 ParTrn=T ParDer=T DoDerP=F.
 Spin components of T(2) and E(2):
     alpha-alpha T2 =       0.4395142281D-01 E2=     -0.2950105293D-01
     alpha-beta  T2 =       0.2691206196D+00 E2=     -0.1884781071D+00
     beta-beta   T2 =       0.4395142281D-01 E2=     -0.2950105293D-01
 The integrals were generated   1 times.
 E2(B2PLYPD3) =    -0.2474802130D+00 E(B2PLYPD3) =    -0.19185783720482D+03
 Leave Link  906 at Wed Aug 26 20:57:23 2020, MaxMem=  2097152000 cpu:       458.4
 (Enter /opt/cluster/programs/g09/g09_d.01/g09/l601.exe)
 Copying SCF densities to generalized density rwf, IOpCl= 0 IROHF=0.

 **********************************************************************

            Population analysis using the SCF density.

 **********************************************************************

 Orbital symmetries:
       Occupied  (A) (A) (A) (A) (A) (A) (A) (A) (A) (A) (A) (A)
                 (A) (A) (A)
       Virtual   (A) (A) (A) (A) (A) (A) (A) (A) (A) (A) (A) (A)
                 (A) (A) (A) (A) (A) (A) (A) (A) (A) (A) (A) (A)
                 (A) (A) (A) (A) (A) (A) (A) (A) (A) (A) (A) (A)
                 (A) (A) (A) (A) (A) (A) (A) (A) (A) (A) (A) (A)
                 (A) (A) (A) (A) (A) (A) (A) (A) (A) (A) (A) (A)
                 (A) (A) (A) (A) (A) (A) (A) (A) (A) (A) (A) (A)
                 (A) (A) (A) (A) (A) (A) (A) (A) (A) (A) (A) (A)
                 (A) (A) (A) (A) (A) (A) (A) (A) (A) (A) (A) (A)
                 (A) (A) (A) (A) (A) (A) (A) (A) (A) (A) (A) (A)
                 (A) (A) (A) (A) (A) (A) (A) (A) (A) (A) (A) (A)
                 (A) (A) (A) (A) (A) (A) (A) (A) (A) (A) (A) (A)
                 (A) (A) (A) (A) (A) (A) (A) (A) (A) (A) (A) (A)
                 (A) (A) (A) (A) (A) (A) (A) (A) (A) (A) (A) (A)
                 (A) (A) (A) (A) (A) (A) (A) (A) (A) (A) (A) (A)
                 (A) (A) (A) (A) (A) (A) (A) (A) (A) (A) (A) (A)
                 (A) (A) (A) (A) (A) (A) (A) (A) (A) (A) (A) (A)
                 (A) (A) (A) (A) (A) (A) (A) (A) (A) (A) (A) (A)
                 (A) (A) (A) (A) (A) (A) (A) (A) (A) (A) (A) (A)
                 (A) (A) (A) (A) (A) (A) (A) (A) (A) (A) (A) (A)
                 (A) (A) (A) (A) (A) (A) (A) (A) (A) (A) (A) (A)
                 (A) (A) (A) (A) (A) (A) (A) (A) (A) (A) (A) (A)
                 (A) (A) (A) (A) (A) (A) (A) (A) (A) (A) (A) (A)
                 (A) (A) (A) (A) (A) (A) (A) (A) (A) (A) (A) (A)
                 (A) (A) (A) (A) (A) (A) (A) (A) (A) (A) (A) (A)
                 (A) (A) (A) (A) (A) (A) (A) (A) (A) (A) (A) (A)
                 (A) (A) (A) (A) (A) (A) (A) (A) (A) (A) (A) (A)
                 (A) (A) (A) (A) (A) (A) (A) (A) (A) (A) (A) (A)
                 (A) (A) (A) (A) (A) (A) (A) (A) (A)
 The electronic state is 1-A.
 Alpha  occ. eigenvalues --  -19.72790 -10.71670 -10.66159 -10.64487  -1.20315
 Alpha  occ. eigenvalues --   -0.92586  -0.74891  -0.66979  -0.56741  -0.55739
 Alpha  occ. eigenvalues --   -0.50084  -0.47255  -0.46977  -0.34345  -0.33838
 Alpha virt. eigenvalues --   -0.01832   0.05640   0.07016   0.08224   0.09754
 Alpha virt. eigenvalues --    0.12370   0.13892   0.15355   0.17588   0.19865
 Alpha virt. eigenvalues --    0.20079   0.21059   0.25343   0.26174   0.29008
 Alpha virt. eigenvalues --    0.31258   0.33006   0.35046   0.37085   0.38107
 Alpha virt. eigenvalues --    0.39438   0.41240   0.43081   0.44242   0.46058
 Alpha virt. eigenvalues --    0.47814   0.49319   0.54184   0.55249   0.56690
 Alpha virt. eigenvalues --    0.58021   0.64138   0.66292   0.66611   0.71119
 Alpha virt. eigenvalues --    0.74632   0.76169   0.77989   0.79847   0.80263
 Alpha virt. eigenvalues --    0.81606   0.82402   0.82878   0.84198   0.86531
 Alpha virt. eigenvalues --    0.87981   0.91813   0.92725   0.93215   0.95683
 Alpha virt. eigenvalues --    0.96429   0.96944   1.00550   1.01971   1.07434
 Alpha virt. eigenvalues --    1.09973   1.11603   1.15316   1.17545   1.18546
 Alpha virt. eigenvalues --    1.19233   1.26354   1.28935   1.32100   1.39605
 Alpha virt. eigenvalues --    1.42417   1.46727   1.47679   1.55083   1.57329
 Alpha virt. eigenvalues --    1.58597   1.61829   1.66006   1.67066   1.70770
 Alpha virt. eigenvalues --    1.72664   1.76973   1.78766   1.81546   1.83387
 Alpha virt. eigenvalues --    1.86051   1.90882   1.92372   1.93353   1.93865
 Alpha virt. eigenvalues --    1.95836   1.98445   1.99818   2.00802   2.02975
 Alpha virt. eigenvalues --    2.06746   2.09873   2.11326   2.13618   2.14854
 Alpha virt. eigenvalues --    2.16363   2.18032   2.19482   2.22469   2.25110
 Alpha virt. eigenvalues --    2.28754   2.34711   2.35397   2.38784   2.41328
 Alpha virt. eigenvalues --    2.45221   2.46843   2.49634   2.49942   2.53188
 Alpha virt. eigenvalues --    2.54518   2.56327   2.59250   2.61011   2.62743
 Alpha virt. eigenvalues --    2.65539   2.65985   2.67707   2.68017   2.71676
 Alpha virt. eigenvalues --    2.73900   2.76971   2.84849   2.85595   2.86983
 Alpha virt. eigenvalues --    2.88208   2.94307   2.98163   3.01370   3.07744
 Alpha virt. eigenvalues --    3.16242   3.17657   3.25213   3.27984   3.29436
 Alpha virt. eigenvalues --    3.33645   3.39358   3.41940   3.44503   3.44794
 Alpha virt. eigenvalues --    3.47716   3.50060   3.59104   3.61064   3.63988
 Alpha virt. eigenvalues --    3.64652   3.71512   3.76127   3.83650   3.89052
 Alpha virt. eigenvalues --    3.93626   3.96339   4.00489   4.04174   4.05887
 Alpha virt. eigenvalues --    4.07431   4.18591   4.20722   4.26530   4.32233
 Alpha virt. eigenvalues --    4.39440   4.41796   4.53955   4.60162   4.62496
 Alpha virt. eigenvalues --    4.67114   4.83077   4.87319   4.92196   5.00015
 Alpha virt. eigenvalues --    5.02306   5.03036   5.07877   5.10661   5.12266
 Alpha virt. eigenvalues --    5.21653   5.26018   5.30697   5.33760   5.43171
 Alpha virt. eigenvalues --    5.45095   5.52468   5.55204   5.57794   5.60038
 Alpha virt. eigenvalues --    5.63132   5.64631   5.67402   5.72926   5.77732
 Alpha virt. eigenvalues --    5.80169   5.83242   5.86629   5.91718   5.93112
 Alpha virt. eigenvalues --    5.96395   5.97300   5.99313   6.03254   6.07402
 Alpha virt. eigenvalues --    6.09505   6.13336   6.13942   6.15270   6.17428
 Alpha virt. eigenvalues --    6.21053   6.21737   6.22861   6.28328   6.28770
 Alpha virt. eigenvalues --    6.31573   6.32402   6.37134   6.38140   6.41892
 Alpha virt. eigenvalues --    6.46288   6.47526   6.48592   6.50980   6.59855
 Alpha virt. eigenvalues --    6.61877   6.66542   6.72418   6.74464   6.75694
 Alpha virt. eigenvalues --    6.80802   6.84195   6.87044   6.92001   6.98402
 Alpha virt. eigenvalues --    7.01500   7.06099   7.07915   7.13756   7.20577
 Alpha virt. eigenvalues --    7.29973   7.30848   7.45286   7.46016   7.51753
 Alpha virt. eigenvalues --    7.55714   7.57572   7.59706   7.60044   7.65784
 Alpha virt. eigenvalues --    7.68211   7.70266   7.71538   7.74966   7.76700
 Alpha virt. eigenvalues --    7.84091   7.85893   7.88886   7.96734   7.99612
 Alpha virt. eigenvalues --    8.04234   8.06294   8.12021   8.14727   8.16803
 Alpha virt. eigenvalues --    8.19803   8.25037   8.26630   8.28953   8.29734
 Alpha virt. eigenvalues --    8.33469   8.37191   8.42323   8.50400   8.54117
 Alpha virt. eigenvalues --    8.55780   8.59359   8.61165   8.67854   8.71227
 Alpha virt. eigenvalues --    8.73777   8.81081   8.82402   8.92135   9.06503
 Alpha virt. eigenvalues --    9.07277   9.08932   9.15387   9.22473   9.27515
 Alpha virt. eigenvalues --    9.31653   9.39878   9.51965   9.56149   9.68803
 Alpha virt. eigenvalues --    9.75693   9.76970   9.80990   9.82468   9.90609
 Alpha virt. eigenvalues --    9.97514  10.12040  10.17150  10.21268  10.27758
 Alpha virt. eigenvalues --   10.29957  10.50769  10.53604  10.60984  10.72772
 Alpha virt. eigenvalues --   11.01018  11.21459  11.25381  11.28050  11.41669
 Alpha virt. eigenvalues --   11.67057  11.77270  11.86497  12.04121  12.11101
 Alpha virt. eigenvalues --   12.34054  12.37407  12.44171  12.54653  12.73002
 Alpha virt. eigenvalues --   12.95176  13.43185  13.84145  14.35203  14.80166
 Alpha virt. eigenvalues --   28.60135  28.87301  29.37891  48.67713 148.18899
 Alpha virt. eigenvalues --  148.42772 148.96769 254.44150
          Condensed to atoms (all electrons):
               1          2          3          4          5          6
     1  C    4.502772   0.621051   0.359522  -0.051195  -0.030036  -0.004556
     2  O    0.621051   7.875859  -0.092374   0.006687   0.004781   0.000389
     3  C    0.359522  -0.092374   5.168711   0.478780   0.366751  -0.052519
     4  C   -0.051195   0.006687   0.478780   4.882927  -0.037900   0.421332
     5  H   -0.030036   0.004781   0.366751  -0.037900   0.580427   0.005691
     6  H   -0.004556   0.000389  -0.052519   0.421332   0.005691   0.574972
     7  H    0.002337  -0.000463  -0.026974   0.409180  -0.004667  -0.038775
     8  H    0.450000  -0.076411  -0.165977   0.024314   0.007531   0.005870
               7          8
     1  C    0.002337   0.450000
     2  O   -0.000463  -0.076411
     3  C   -0.026974  -0.165977
     4  C    0.409180   0.024314
     5  H   -0.004667   0.007531
     6  H   -0.038775   0.005870
     7  H    0.560805  -0.000604
     8  H   -0.000604   0.689997
 Mulliken charges:
               1
     1  C    0.150105
     2  O   -0.339520
     3  C   -0.035919
     4  C   -0.134126
     5  H    0.107422
     6  H    0.087598
     7  H    0.099160
     8  H    0.065280
 Sum of Mulliken charges =   0.00000
 Mulliken charges with hydrogens summed into heavy atoms:
               1
     1  C    0.215385
     2  O   -0.339520
     3  C    0.071503
     4  C    0.052632
 Electronic spatial extent (au):  <R**2>=            297.9453
 Charge=              0.0000 electrons
 Dipole moment (field-independent basis, Debye):
    X=              3.4090    Y=              0.7525    Z=              0.0409  Tot=              3.4913
 Quadrupole moment (field-independent basis, Debye-Ang):
   XX=            -27.2697   YY=            -21.8283   ZZ=            -25.3241
   XY=             -1.0723   XZ=             -0.1126   YZ=              0.0477
 Traceless Quadrupole moment (field-independent basis, Debye-Ang):
   XX=             -2.4623   YY=              2.9791   ZZ=             -0.5168
   XY=             -1.0723   XZ=             -0.1126   YZ=              0.0477
 Octapole moment (field-independent basis, Debye-Ang**2):
  XXX=             14.9376  YYY=             -0.1263  ZZZ=             -0.0809  XYY=             -0.4359
  XXY=              0.2925  XXZ=              0.1411  XZZ=             -4.6197  YZZ=              0.1622
  YYZ=             -0.0449  XYZ=              0.0304
 Hexadecapole moment (field-independent basis, Debye-Ang**3):
 XXXX=           -300.0559 YYYY=            -55.9357 ZZZZ=            -27.6622 XXXY=             -4.5012
 XXXZ=             -0.0803 YYYX=              0.2693 YYYZ=              0.2088 ZZZX=              0.0660
 ZZZY=              0.0486 XXYY=            -58.7397 XXZZ=            -57.8048 YYZZ=            -15.6707
 XXYZ=              0.0543 YYXZ=              0.0125 ZZXY=              0.5425
 N-N= 1.032319685812D+02 E-N=-6.544380176741D+02  KE= 1.909112840486D+02
 Leave Link  601 at Wed Aug 26 20:57:24 2020, MaxMem=  2097152000 cpu:         0.6
 (Enter /opt/cluster/programs/g09/g09_d.01/g09/l9999.exe)
 1\1\GINC-NODE12\SP\RB2PLYPD3-FC\def2QZVP\C3H4O1\BOITTIER\26-Aug-2020\0
 \\#p B2PLYPD3/Def2QZVP\\acrolein\\0,1\C,0,-5.008169,-1.379608,0.87751\
 O,0,-3.940016,-0.874535,0.675375\C,0,-5.183044,-2.81037,1.115385\C,0,-
 6.403305,-3.309986,1.422742\H,0,-4.313201,-3.446112,1.134997\H,0,-7.22
 1095,-2.656161,1.40912\H,0,-6.600819,-4.43958,1.620181\H,0,-5.958685,-
 0.767554,0.901861\\Version=ES64L-G09RevD.01\State=1-A\HF=-191.610357\M
 P2=-191.8578372\RMSD=3.081e-09\PG=C01 [X(C3H4O1)]\\@


 IN NATURE THERE ARE NEITHER REWARDS OR
 PUNISHMENTS -- THERE ARE CONSEQUENCES.

                            -- ROBERT GREEN INGERSOLL
 Job cpu time:       0 days  0 hours 12 minutes 50.4 seconds.
 File lengths (MBytes):  RWF=     49 Int=      0 D2E=      0 Chk=      7 Scr=      1
 Normal termination of Gaussian 09 at Wed Aug 26 20:57:25 2020.
