 Entering Gaussian System, Link 0=/opt/cluster/programs/g09/g09_d.01/g09//g09
 Input=/home/boittier/MDCM/nms_sampling/acrolein_geom.xyz.dir/energies/acrolein_813_energy.com
 Output=/scratch/boittier/acrolein_813_energy/acrolein_813_energy.out
 Initial command:
 /opt/cluster/programs/g09/g09_d.01/g09/l1.exe "/scratch/boittier/acrolein_813_energy/Gau-66712.inp" -scrdir="/scratch/boittier/acrolein_813_energy/"
 Entering Link 1 = /opt/cluster/programs/g09/g09_d.01/g09/l1.exe PID=     66713.
  
 Copyright (c) 1988,1990,1992,1993,1995,1998,2003,2009,2013,
            Gaussian, Inc.  All Rights Reserved.
  
 This is part of the Gaussian(R) 09 program.  It is based on
 the Gaussian(R) 03 system (copyright 2003, Gaussian, Inc.),
 the Gaussian(R) 98 system (copyright 1998, Gaussian, Inc.),
 the Gaussian(R) 94 system (copyright 1995, Gaussian, Inc.),
 the Gaussian 92(TM) system (copyright 1992, Gaussian, Inc.),
 the Gaussian 90(TM) system (copyright 1990, Gaussian, Inc.),
 the Gaussian 88(TM) system (copyright 1988, Gaussian, Inc.),
 the Gaussian 86(TM) system (copyright 1986, Carnegie Mellon
 University), and the Gaussian 82(TM) system (copyright 1983,
 Carnegie Mellon University). Gaussian is a federally registered
 trademark of Gaussian, Inc.
  
 This software contains proprietary and confidential information,
 including trade secrets, belonging to Gaussian, Inc.
  
 This software is provided under written license and may be
 used, copied, transmitted, or stored only in accord with that
 written license.
  
 The following legend is applicable only to US Government
 contracts under FAR:
  
                    RESTRICTED RIGHTS LEGEND
  
 Use, reproduction and disclosure by the US Government is
 subject to restrictions as set forth in subparagraphs (a)
 and (c) of the Commercial Computer Software - Restricted
 Rights clause in FAR 52.227-19.
  
 Gaussian, Inc.
 340 Quinnipiac St., Bldg. 40, Wallingford CT 06492
  
  
 ---------------------------------------------------------------
 Warning -- This program may not be used in any manner that
 competes with the business of Gaussian, Inc. or will provide
 assistance to any competitor of Gaussian, Inc.  The licensee
 of this program is prohibited from giving any competitor of
 Gaussian, Inc. access to this program.  By using this program,
 the user acknowledges that Gaussian, Inc. is engaged in the
 business of creating and licensing software in the field of
 computational chemistry and represents and warrants to the
 licensee that it is not a competitor of Gaussian, Inc. and that
 it will not use this program in any manner prohibited above.
 ---------------------------------------------------------------
  

 Cite this work as:
 Gaussian 09, Revision D.01,
 M. J. Frisch, G. W. Trucks, H. B. Schlegel, G. E. Scuseria, 
 M. A. Robb, J. R. Cheeseman, G. Scalmani, V. Barone, B. Mennucci, 
 G. A. Petersson, H. Nakatsuji, M. Caricato, X. Li, H. P. Hratchian, 
 A. F. Izmaylov, J. Bloino, G. Zheng, J. L. Sonnenberg, M. Hada, 
 M. Ehara, K. Toyota, R. Fukuda, J. Hasegawa, M. Ishida, T. Nakajima, 
 Y. Honda, O. Kitao, H. Nakai, T. Vreven, J. A. Montgomery, Jr., 
 J. E. Peralta, F. Ogliaro, M. Bearpark, J. J. Heyd, E. Brothers, 
 K. N. Kudin, V. N. Staroverov, T. Keith, R. Kobayashi, J. Normand, 
 K. Raghavachari, A. Rendell, J. C. Burant, S. S. Iyengar, J. Tomasi, 
 M. Cossi, N. Rega, J. M. Millam, M. Klene, J. E. Knox, J. B. Cross, 
 V. Bakken, C. Adamo, J. Jaramillo, R. Gomperts, R. E. Stratmann, 
 O. Yazyev, A. J. Austin, R. Cammi, C. Pomelli, J. W. Ochterski, 
 R. L. Martin, K. Morokuma, V. G. Zakrzewski, G. A. Voth, 
 P. Salvador, J. J. Dannenberg, S. Dapprich, A. D. Daniels, 
 O. Farkas, J. B. Foresman, J. V. Ortiz, J. Cioslowski, 
 and D. J. Fox, Gaussian, Inc., Wallingford CT, 2013.
 
 ******************************************
 Gaussian 09:  ES64L-G09RevD.01 24-Apr-2013
                26-Aug-2020 
 ******************************************
 %chk=/home/boittier/MDCM/nms_sampling/acrolein_geom.xyz.dir/acrolein_813.chk
 %nproc=8
 Will use up to    8 processors via shared memory.
 %mem=16000MB
 --------------------
 #p B2PLYPD3/Def2QZVP
 --------------------
 1/38=1/1;
 2/12=2,17=6,18=5,40=1/2;
 3/5=45,7=101,11=9,16=1,25=1,30=1,74=-60/1,2,3;
 4//1;
 5/5=2,38=5/2;
 8/10=1/1;
 9/16=-3/6;
 6/7=2,8=2,9=2,10=2/1;
 99/5=1,9=1/99;
 Leave Link    1 at Wed Aug 26 19:46:05 2020, MaxMem=  2097152000 cpu:         3.9
 (Enter /opt/cluster/programs/g09/g09_d.01/g09/l101.exe)
 --------
 acrolein
 --------
 Symbolic Z-matrix:
 Charge =  0 Multiplicity = 1
 C                    -5.00063  -1.39998   0.88107 
 O                    -3.94102  -0.85781   0.67243 
 C                    -5.19004  -2.82308   1.12319 
 C                    -6.41169  -3.3037    1.40961 
 H                    -4.28611  -3.45846   1.13349 
 H                    -7.26838  -2.6677    1.46638 
 H                    -6.55816  -4.32897   1.64148 
 H                    -5.88717  -0.81942   0.88986 
 
 NAtoms=      8 NQM=        8 NQMF=       0 NMMI=      0 NMMIF=      0
                NMic=       0 NMicF=      0.
                    Isotopes and Nuclear Properties:
 (Nuclear quadrupole moments (NQMom) in fm**2, nuclear magnetic moments (NMagM)
  in nuclear magnetons)

  Atom         1           2           3           4           5           6           7           8
 IAtWgt=          12          16          12          12           1           1           1           1
 AtmWgt=  12.0000000  15.9949146  12.0000000  12.0000000   1.0078250   1.0078250   1.0078250   1.0078250
 NucSpn=           0           0           0           0           1           1           1           1
 AtZEff=   0.0000000   0.0000000   0.0000000   0.0000000   0.0000000   0.0000000   0.0000000   0.0000000
 NQMom=    0.0000000   0.0000000   0.0000000   0.0000000   0.0000000   0.0000000   0.0000000   0.0000000
 NMagM=    0.0000000   0.0000000   0.0000000   0.0000000   2.7928460   2.7928460   2.7928460   2.7928460
 AtZNuc=   6.0000000   8.0000000   6.0000000   6.0000000   1.0000000   1.0000000   1.0000000   1.0000000
 Leave Link  101 at Wed Aug 26 19:46:14 2020, MaxMem=  2097152000 cpu:         0.6
 (Enter /opt/cluster/programs/g09/g09_d.01/g09/l202.exe)
                          Input orientation:                          
 ---------------------------------------------------------------------
 Center     Atomic      Atomic             Coordinates (Angstroms)
 Number     Number       Type             X           Y           Z
 ---------------------------------------------------------------------
      1          6           0       -5.000625   -1.399977    0.881066
      2          8           0       -3.941020   -0.857813    0.672433
      3          6           0       -5.190039   -2.823075    1.123187
      4          6           0       -6.411692   -3.303698    1.409610
      5          1           0       -4.286108   -3.458463    1.133486
      6          1           0       -7.268379   -2.667704    1.466378
      7          1           0       -6.558156   -4.328971    1.641477
      8          1           0       -5.887166   -0.819416    0.889860
 ---------------------------------------------------------------------
                    Distance matrix (angstroms):
                    1          2          3          4          5
     1  C    0.000000
     2  O    1.208401   0.000000
     3  C    1.455922   2.371810   0.000000
     4  C    2.427884   3.553872   1.343679   0.000000
     5  H    2.193539   2.663651   1.104950   2.149024   0.000000
     6  H    2.663162   3.870061   2.112207   1.068468   3.103233
     7  H    3.403400   4.453918   2.099546   1.061319   2.485567
     8  H    1.059756   1.958630   2.134263   2.591703   3.096338
                    6          7          8
     6  H    0.000000
     7  H    1.815182   0.000000
     8  H    2.378296   3.651319   0.000000
 Stoichiometry    C3H4O
 Framework group  C1[X(C3H4O)]
 Deg. of freedom    18
 Full point group                 C1      NOp   1
 Largest Abelian subgroup         C1      NOp   1
 Largest concise Abelian subgroup C1      NOp   1
                         Standard orientation:                         
 ---------------------------------------------------------------------
 Center     Atomic      Atomic             Coordinates (Angstroms)
 Number     Number       Type             X           Y           Z
 ---------------------------------------------------------------------
      1          6           0        0.665201    0.337120   -0.012756
      2          8           0        1.788881   -0.106336    0.017631
      3          6           0       -0.556869   -0.454113   -0.026980
      4          6           0       -1.755557    0.152152    0.005601
      5          1           0       -0.447645   -1.553031    0.009953
      6          1           0       -1.848182    1.216010    0.040956
      7          1           0       -2.654540   -0.410209    0.050083
      8          1           0        0.522673    1.386963   -0.037224
 ---------------------------------------------------------------------
 Rotational constants (GHZ):     48.8762876      4.6837442      4.2756787
 Leave Link  202 at Wed Aug 26 19:46:25 2020, MaxMem=  2097152000 cpu:         0.0
 (Enter /opt/cluster/programs/g09/g09_d.01/g09/l301.exe)
 Standard basis: def2QZVP (5D, 7F)
 Ernie: Thresh=  0.10000D-02 Tol=  0.10000D-05 Strict=F.
 There are   428 symmetry adapted cartesian basis functions of A   symmetry.
 There are   348 symmetry adapted basis functions of A   symmetry.
   348 basis functions,   520 primitive gaussians,   428 cartesian basis functions
    15 alpha electrons       15 beta electrons
       nuclear repulsion energy       103.6049754272 Hartrees.
 IExCor=  419 DFT=T Ex+Corr=B2PLYPD3 ExCW=0 ScaHFX=  0.530000
 ScaDFX=  0.470000  0.470000  0.730000  0.730000 ScalE2=  0.270000  0.270000
 IRadAn=      0 IRanWt=     -1 IRanGd=            0 ICorTp=0 IEmpDi=141
 NAtoms=    8 NActive=    8 NUniq=    8 SFac= 1.00D+00 NAtFMM=   60 NAOKFM=F Big=F
 Integral buffers will be    131072 words long.
 Regular integral format.
 Two-electron integral symmetry is turned on.
 R6Disp:  Grimme-D3(BJ) Dispersion energy=       -0.0035906758 Hartrees.
 Nuclear repulsion after empirical dispersion term =      103.6013847514 Hartrees.
 Leave Link  301 at Wed Aug 26 19:46:27 2020, MaxMem=  2097152000 cpu:         0.5
 (Enter /opt/cluster/programs/g09/g09_d.01/g09/l302.exe)
 NPDir=0 NMtPBC=     1 NCelOv=     1 NCel=       1 NClECP=     1 NCelD=      1
         NCelK=      1 NCelE2=     1 NClLst=     1 CellRange=     0.0.
 One-electron integrals computed using PRISM.
   1 Symmetry operations used in ECPInt.
 ECPInt:  NShTT=    5886 NPrTT=   14376 LenC2=    5781 LenP2D=   12189.
 LDataN:  DoStor=T MaxTD1= 8 Len=  415
 NBasis=   348 RedAO= T EigKep=  5.85D-05  NBF=   348
 NBsUse=   348 1.00D-06 EigRej= -1.00D+00 NBFU=   348
 Precomputing XC quadrature grid using
 IXCGrd= 4 IRadAn=           0 IRanWt=          -1 IRanGd=           0 AccXCQ= 0.00D+00.
 Generated NRdTot=       0 NPtTot=           0 NUsed=           0 NTot=          32
 NSgBfM=   428   428   428   428   428 MxSgAt=     8 MxSgA2=     8.
 Leave Link  302 at Wed Aug 26 19:46:29 2020, MaxMem=  2097152000 cpu:         2.9
 (Enter /opt/cluster/programs/g09/g09_d.01/g09/l303.exe)
 DipDrv:  MaxL=1.
 Leave Link  303 at Wed Aug 26 19:46:34 2020, MaxMem=  2097152000 cpu:         0.4
 (Enter /opt/cluster/programs/g09/g09_d.01/g09/l401.exe)
 ExpMin= 7.60D-02 ExpMax= 1.17D+05 ExpMxC= 1.13D+03 IAcc=2 IRadAn=         4 AccDes= 0.00D+00
 Harris functional with IExCor=  419 and IRadAn=       4 diagonalized for initial guess.
 HarFok:  IExCor=  419 AccDes= 0.00D+00 IRadAn=         4 IDoV= 1 UseB2=F ITyADJ=14
 ICtDFT=  3500011 ScaDFX=  1.000000  1.000000  1.000000  1.000000
 FoFCou: FMM=F IPFlag=           0 FMFlag=      100000 FMFlg1=           0
         NFxFlg=           0 DoJE=T BraDBF=F KetDBF=T FulRan=T
         wScrn=  0.000000 ICntrl=     500 IOpCl=  0 I1Cent=   200000004 NGrid=           0
         NMat0=    1 NMatS0=      1 NMatT0=    0 NMatD0=    1 NMtDS0=    0 NMtDT0=    0
 Petite list used in FoFCou.
 Harris En= -192.046707952980    
 JPrj=0 DoOrth=F DoCkMO=F.
 Leave Link  401 at Wed Aug 26 19:46:38 2020, MaxMem=  2097152000 cpu:         6.3
 (Enter /opt/cluster/programs/g09/g09_d.01/g09/l502.exe)
 Closed shell SCF:
 Using DIIS extrapolation, IDIIS=  1040.
 Integral symmetry usage will be decided dynamically.
 Keep R1 ints in memory in canonical form, NReq=1883905047.
 IVT=      574566 IEndB=      574566 NGot=  2097152000 MDV=   252723534
 LenX=   252723534 LenY=   252539909
 Requested convergence on RMS density matrix=1.00D-08 within 128 cycles.
 Requested convergence on MAX density matrix=1.00D-06.
 Requested convergence on             energy=1.00D-06.
 No special actions if energy rises.
 FoFCou: FMM=F IPFlag=           0 FMFlag=           0 FMFlg1=           0
         NFxFlg=           0 DoJE=F BraDBF=F KetDBF=F FulRan=T
         wScrn=  0.000000 ICntrl=     600 IOpCl=  0 I1Cent=           0 NGrid=           0
         NMat0=    1 NMatS0=  60726 NMatT0=    0 NMatD0=    1 NMtDS0=    0 NMtDT0=    0
 Symmetry not used in FoFCou.
 Integral accuracy reduced to 1.0D-05 until final iterations.

 Cycle   1  Pass 0  IDiag  1:
 E= -191.475249231268    
 DIIS: error= 2.57D-02 at cycle   1 NSaved=   1.
 NSaved= 1 IEnMin= 1 EnMin= -191.475249231268     IErMin= 1 ErrMin= 2.57D-02
 ErrMax= 2.57D-02  0.00D+00 EMaxC= 1.00D-01 BMatC= 2.53D-01 BMatP= 2.53D-01
 IDIUse=3 WtCom= 7.43D-01 WtEn= 2.57D-01
 Coeff-Com:  0.100D+01
 Coeff-En:   0.100D+01
 Coeff:      0.100D+01
 Gap=     0.284 Goal=   None    Shift=    0.000
 GapD=    0.284 DampG=1.000 DampE=0.500 DampFc=0.5000 IDamp=-1.
 Damping current iteration by 5.00D-01
 RMSDP=1.84D-03 MaxDP=2.32D-01              OVMax= 1.71D-01

 Cycle   2  Pass 0  IDiag  1:
 E= -191.543957126907     Delta-E=       -0.068707895639 Rises=F Damp=T
 DIIS: error= 9.73D-03 at cycle   2 NSaved=   2.
 NSaved= 2 IEnMin= 2 EnMin= -191.543957126907     IErMin= 2 ErrMin= 9.73D-03
 ErrMax= 9.73D-03  0.00D+00 EMaxC= 1.00D-01 BMatC= 3.37D-02 BMatP= 2.53D-01
 IDIUse=3 WtCom= 9.03D-01 WtEn= 9.73D-02
 Coeff-Com: -0.170D+00 0.117D+01
 Coeff-En:   0.000D+00 0.100D+01
 Coeff:     -0.154D+00 0.115D+01
 Gap=     0.350 Goal=   None    Shift=    0.000
 RMSDP=6.16D-04 MaxDP=7.76D-02 DE=-6.87D-02 OVMax= 1.27D-01

 Cycle   3  Pass 0  IDiag  1:
 E= -191.603673765451     Delta-E=       -0.059716638543 Rises=F Damp=F
 DIIS: error= 1.03D-02 at cycle   3 NSaved=   3.
 NSaved= 3 IEnMin= 3 EnMin= -191.603673765451     IErMin= 2 ErrMin= 9.73D-03
 ErrMax= 1.03D-02  0.00D+00 EMaxC= 1.00D-01 BMatC= 1.66D-02 BMatP= 3.37D-02
 IDIUse=3 WtCom= 8.97D-01 WtEn= 1.03D-01
 Coeff-Com: -0.196D+00 0.532D+00 0.665D+00
 Coeff-En:   0.000D+00 0.000D+00 0.100D+01
 Coeff:     -0.176D+00 0.477D+00 0.699D+00
 Gap=     0.331 Goal=   None    Shift=    0.000
 RMSDP=2.42D-04 MaxDP=1.86D-02 DE=-5.97D-02 OVMax= 4.71D-02

 Cycle   4  Pass 0  IDiag  1:
 E= -191.612754727288     Delta-E=       -0.009080961837 Rises=F Damp=F
 DIIS: error= 4.43D-03 at cycle   4 NSaved=   4.
 NSaved= 4 IEnMin= 4 EnMin= -191.612754727288     IErMin= 4 ErrMin= 4.43D-03
 ErrMax= 4.43D-03  0.00D+00 EMaxC= 1.00D-01 BMatC= 3.00D-03 BMatP= 1.66D-02
 IDIUse=3 WtCom= 9.56D-01 WtEn= 4.43D-02
 Coeff-Com: -0.602D-01 0.100D+00 0.362D+00 0.598D+00
 Coeff-En:   0.000D+00 0.000D+00 0.166D+00 0.834D+00
 Coeff:     -0.575D-01 0.956D-01 0.353D+00 0.608D+00
 Gap=     0.319 Goal=   None    Shift=    0.000
 RMSDP=9.89D-05 MaxDP=8.33D-03 DE=-9.08D-03 OVMax= 1.44D-02

 Cycle   5  Pass 0  IDiag  1:
 E= -191.615167174771     Delta-E=       -0.002412447483 Rises=F Damp=F
 DIIS: error= 3.31D-04 at cycle   5 NSaved=   5.
 NSaved= 5 IEnMin= 5 EnMin= -191.615167174771     IErMin= 5 ErrMin= 3.31D-04
 ErrMax= 3.31D-04  0.00D+00 EMaxC= 1.00D-01 BMatC= 1.15D-05 BMatP= 3.00D-03
 IDIUse=3 WtCom= 9.97D-01 WtEn= 3.31D-03
 Coeff-Com: -0.772D-02 0.992D-02 0.524D-01 0.124D+00 0.821D+00
 Coeff-En:   0.000D+00 0.000D+00 0.000D+00 0.000D+00 0.100D+01
 Coeff:     -0.770D-02 0.989D-02 0.523D-01 0.124D+00 0.822D+00
 Gap=     0.318 Goal=   None    Shift=    0.000
 RMSDP=8.55D-06 MaxDP=6.33D-04 DE=-2.41D-03 OVMax= 2.30D-03

 Initial convergence to 1.0D-05 achieved.  Increase integral accuracy.
 Cycle   6  Pass 1  IDiag  1:
 E= -191.615170680825     Delta-E=       -0.000003506054 Rises=F Damp=F
 DIIS: error= 1.03D-04 at cycle   1 NSaved=   1.
 NSaved= 1 IEnMin= 1 EnMin= -191.615170680825     IErMin= 1 ErrMin= 1.03D-04
 ErrMax= 1.03D-04  0.00D+00 EMaxC= 1.00D-01 BMatC= 1.54D-06 BMatP= 1.54D-06
 IDIUse=3 WtCom= 9.99D-01 WtEn= 1.03D-03
 Coeff-Com:  0.100D+01
 Coeff-En:   0.100D+01
 Coeff:      0.100D+01
 Gap=     0.319 Goal=   None    Shift=    0.000
 RMSDP=8.55D-06 MaxDP=6.33D-04 DE=-3.51D-06 OVMax= 7.00D-04

 Cycle   7  Pass 1  IDiag  1:
 E= -191.615171703338     Delta-E=       -0.000001022513 Rises=F Damp=F
 DIIS: error= 7.64D-05 at cycle   2 NSaved=   2.
 NSaved= 2 IEnMin= 2 EnMin= -191.615171703338     IErMin= 2 ErrMin= 7.64D-05
 ErrMax= 7.64D-05  0.00D+00 EMaxC= 1.00D-01 BMatC= 9.31D-07 BMatP= 1.54D-06
 IDIUse=1 WtCom= 1.00D+00 WtEn= 0.00D+00
 Coeff-Com:  0.431D+00 0.569D+00
 Coeff:      0.431D+00 0.569D+00
 Gap=     0.319 Goal=   None    Shift=    0.000
 RMSDP=1.76D-06 MaxDP=1.26D-04 DE=-1.02D-06 OVMax= 5.26D-04

 Cycle   8  Pass 1  IDiag  1:
 E= -191.615172578963     Delta-E=       -0.000000875625 Rises=F Damp=F
 DIIS: error= 1.67D-05 at cycle   3 NSaved=   3.
 NSaved= 3 IEnMin= 3 EnMin= -191.615172578963     IErMin= 3 ErrMin= 1.67D-05
 ErrMax= 1.67D-05  0.00D+00 EMaxC= 1.00D-01 BMatC= 6.58D-08 BMatP= 9.31D-07
 IDIUse=1 WtCom= 1.00D+00 WtEn= 0.00D+00
 Coeff-Com:  0.723D-01 0.200D+00 0.728D+00
 Coeff:      0.723D-01 0.200D+00 0.728D+00
 Gap=     0.319 Goal=   None    Shift=    0.000
 RMSDP=1.36D-06 MaxDP=1.55D-04 DE=-8.76D-07 OVMax= 1.01D-04

 Cycle   9  Pass 1  IDiag  1:
 E= -191.615172641610     Delta-E=       -0.000000062647 Rises=F Damp=F
 DIIS: error= 1.36D-05 at cycle   4 NSaved=   4.
 NSaved= 4 IEnMin= 4 EnMin= -191.615172641610     IErMin= 4 ErrMin= 1.36D-05
 ErrMax= 1.36D-05  0.00D+00 EMaxC= 1.00D-01 BMatC= 1.36D-08 BMatP= 6.58D-08
 IDIUse=1 WtCom= 1.00D+00 WtEn= 0.00D+00
 Coeff-Com: -0.106D+00-0.737D-01 0.340D+00 0.839D+00
 Coeff:     -0.106D+00-0.737D-01 0.340D+00 0.839D+00
 Gap=     0.319 Goal=   None    Shift=    0.000
 RMSDP=6.96D-07 MaxDP=7.51D-05 DE=-6.26D-08 OVMax= 1.04D-04

 Cycle  10  Pass 1  IDiag  1:
 E= -191.615172663243     Delta-E=       -0.000000021633 Rises=F Damp=F
 DIIS: error= 2.74D-06 at cycle   5 NSaved=   5.
 NSaved= 5 IEnMin= 5 EnMin= -191.615172663243     IErMin= 5 ErrMin= 2.74D-06
 ErrMax= 2.74D-06  0.00D+00 EMaxC= 1.00D-01 BMatC= 1.73D-09 BMatP= 1.36D-08
 IDIUse=1 WtCom= 1.00D+00 WtEn= 0.00D+00
 Coeff-Com: -0.453D-01-0.394D-01 0.704D-01 0.373D+00 0.642D+00
 Coeff:     -0.453D-01-0.394D-01 0.704D-01 0.373D+00 0.642D+00
 Gap=     0.319 Goal=   None    Shift=    0.000
 RMSDP=1.47D-07 MaxDP=1.61D-05 DE=-2.16D-08 OVMax= 1.85D-05

 Cycle  11  Pass 1  IDiag  1:
 E= -191.615172664538     Delta-E=       -0.000000001295 Rises=F Damp=F
 DIIS: error= 1.18D-06 at cycle   6 NSaved=   6.
 NSaved= 6 IEnMin= 6 EnMin= -191.615172664538     IErMin= 6 ErrMin= 1.18D-06
 ErrMax= 1.18D-06  0.00D+00 EMaxC= 1.00D-01 BMatC= 2.06D-10 BMatP= 1.73D-09
 IDIUse=1 WtCom= 1.00D+00 WtEn= 0.00D+00
 Coeff-Com:  0.562D-02 0.108D-02-0.608D-01-0.569D-02 0.240D+00 0.820D+00
 Coeff:      0.562D-02 0.108D-02-0.608D-01-0.569D-02 0.240D+00 0.820D+00
 Gap=     0.319 Goal=   None    Shift=    0.000
 RMSDP=5.30D-08 MaxDP=5.73D-06 DE=-1.29D-09 OVMax= 6.14D-06

 Cycle  12  Pass 1  IDiag  1:
 E= -191.615172664771     Delta-E=       -0.000000000233 Rises=F Damp=F
 DIIS: error= 2.39D-07 at cycle   7 NSaved=   7.
 NSaved= 7 IEnMin= 7 EnMin= -191.615172664771     IErMin= 7 ErrMin= 2.39D-07
 ErrMax= 2.39D-07  0.00D+00 EMaxC= 1.00D-01 BMatC= 1.41D-11 BMatP= 2.06D-10
 IDIUse=1 WtCom= 1.00D+00 WtEn= 0.00D+00
 Coeff-Com:  0.537D-02 0.335D-02-0.301D-01-0.239D-01 0.352D-01 0.289D+00
 Coeff-Com:  0.721D+00
 Coeff:      0.537D-02 0.335D-02-0.301D-01-0.239D-01 0.352D-01 0.289D+00
 Coeff:      0.721D+00
 Gap=     0.319 Goal=   None    Shift=    0.000
 RMSDP=8.20D-09 MaxDP=4.06D-07 DE=-2.33D-10 OVMax= 1.65D-06

 SCF Done:  E(RB2PLYPD3) =  -191.615172665     A.U. after   12 cycles
            NFock= 12  Conv=0.82D-08     -V/T= 2.0028
 KE= 1.910770773541D+02 PE=-6.553204690904D+02 EE= 1.690268343200D+02
 Leave Link  502 at Wed Aug 26 19:48:09 2020, MaxMem=  2097152000 cpu:       441.7
 (Enter /opt/cluster/programs/g09/g09_d.01/g09/l801.exe)
 DoSCS=T DFT=T ScalE2(SS,OS)=  0.270000  0.270000
 ExpMin= 7.60D-02 ExpMax= 1.17D+05 ExpMxC= 1.13D+03 IAcc=3 IRadAn=         5 AccDes= 0.00D+00
 HarFok:  IExCor=  205 AccDes= 0.00D+00 IRadAn=         5 IDoV=-2 UseB2=F ITyADJ=14
 ICtDFT= 12500011 ScaDFX=  1.000000  1.000000  1.000000  1.000000
 Largest valence mixing into a core orbital is  1.13D-04
 Largest core mixing into a valence orbital is  1.89D-05
 Range of M.O.s used for correlation:     5   348
 NBasis=   348 NAE=    15 NBE=    15 NFC=     4 NFV=     0
 NROrb=    344 NOA=    11 NOB=    11 NVA=   333 NVB=   333

 **** Warning!!: The largest alpha MO coefficient is  0.31014304D+02

 Leave Link  801 at Wed Aug 26 19:48:17 2020, MaxMem=  2097152000 cpu:         0.7
 (Enter /opt/cluster/programs/g09/g09_d.01/g09/l906.exe)
 DoSCS=T DFT=T ScalE2(SS,OS)=  0.270000  0.270000
 FulOut=F Deriv=F AODrv=F NAtomX=     8
   MMem=        1190  MDisk=          11 MDiskD=          11
  W3Min=     1567764 MinDsk=     2827057 NBas6D=         428
 NBas2D=       93150    NTT=       91806    LW2=     4508827
    MDV=  2096570514 MDiskM=       10875 NBas2p=       89520
 Fully direct method using O(OVN) memory.
 IMap=   1   2   3   4   5   6   7   8   9  10  11
 JobTyp=1 Pass  1:  I=   1 to  11 NPSUse=  8 ParTrn=T ParDer=T DoDerP=F.
 Spin components of T(2) and E(2):
     alpha-alpha T2 =       0.4348393967D-01 E2=     -0.2942583624D-01
     alpha-beta  T2 =       0.2652674515D+00 E2=     -0.1878885906D+00
     beta-beta   T2 =       0.4348393967D-01 E2=     -0.2942583624D-01
 The integrals were generated   1 times.
 E2(B2PLYPD3) =    -0.2467402631D+00 E(B2PLYPD3) =    -0.19186191292789D+03
 Leave Link  906 at Wed Aug 26 19:49:02 2020, MaxMem=  2097152000 cpu:       342.5
 (Enter /opt/cluster/programs/g09/g09_d.01/g09/l601.exe)
 Copying SCF densities to generalized density rwf, IOpCl= 0 IROHF=0.

 **********************************************************************

            Population analysis using the SCF density.

 **********************************************************************

 Orbital symmetries:
       Occupied  (A) (A) (A) (A) (A) (A) (A) (A) (A) (A) (A) (A)
                 (A) (A) (A)
       Virtual   (A) (A) (A) (A) (A) (A) (A) (A) (A) (A) (A) (A)
                 (A) (A) (A) (A) (A) (A) (A) (A) (A) (A) (A) (A)
                 (A) (A) (A) (A) (A) (A) (A) (A) (A) (A) (A) (A)
                 (A) (A) (A) (A) (A) (A) (A) (A) (A) (A) (A) (A)
                 (A) (A) (A) (A) (A) (A) (A) (A) (A) (A) (A) (A)
                 (A) (A) (A) (A) (A) (A) (A) (A) (A) (A) (A) (A)
                 (A) (A) (A) (A) (A) (A) (A) (A) (A) (A) (A) (A)
                 (A) (A) (A) (A) (A) (A) (A) (A) (A) (A) (A) (A)
                 (A) (A) (A) (A) (A) (A) (A) (A) (A) (A) (A) (A)
                 (A) (A) (A) (A) (A) (A) (A) (A) (A) (A) (A) (A)
                 (A) (A) (A) (A) (A) (A) (A) (A) (A) (A) (A) (A)
                 (A) (A) (A) (A) (A) (A) (A) (A) (A) (A) (A) (A)
                 (A) (A) (A) (A) (A) (A) (A) (A) (A) (A) (A) (A)
                 (A) (A) (A) (A) (A) (A) (A) (A) (A) (A) (A) (A)
                 (A) (A) (A) (A) (A) (A) (A) (A) (A) (A) (A) (A)
                 (A) (A) (A) (A) (A) (A) (A) (A) (A) (A) (A) (A)
                 (A) (A) (A) (A) (A) (A) (A) (A) (A) (A) (A) (A)
                 (A) (A) (A) (A) (A) (A) (A) (A) (A) (A) (A) (A)
                 (A) (A) (A) (A) (A) (A) (A) (A) (A) (A) (A) (A)
                 (A) (A) (A) (A) (A) (A) (A) (A) (A) (A) (A) (A)
                 (A) (A) (A) (A) (A) (A) (A) (A) (A) (A) (A) (A)
                 (A) (A) (A) (A) (A) (A) (A) (A) (A) (A) (A) (A)
                 (A) (A) (A) (A) (A) (A) (A) (A) (A) (A) (A) (A)
                 (A) (A) (A) (A) (A) (A) (A) (A) (A) (A) (A) (A)
                 (A) (A) (A) (A) (A) (A) (A) (A) (A) (A) (A) (A)
                 (A) (A) (A) (A) (A) (A) (A) (A) (A) (A) (A) (A)
                 (A) (A) (A) (A) (A) (A) (A) (A) (A) (A) (A) (A)
                 (A) (A) (A) (A) (A) (A) (A) (A) (A)
 The electronic state is 1-A.
 Alpha  occ. eigenvalues --  -19.72506 -10.70792 -10.65407 -10.64691  -1.19465
 Alpha  occ. eigenvalues --   -0.93057  -0.76085  -0.67429  -0.57001  -0.56472
 Alpha  occ. eigenvalues --   -0.50485  -0.47196  -0.46753  -0.34538  -0.33802
 Alpha virt. eigenvalues --   -0.01931   0.05787   0.07189   0.08349   0.09701
 Alpha virt. eigenvalues --    0.12734   0.14177   0.15346   0.17451   0.19813
 Alpha virt. eigenvalues --    0.20047   0.21738   0.25379   0.26526   0.28696
 Alpha virt. eigenvalues --    0.31942   0.33944   0.36057   0.37771   0.38973
 Alpha virt. eigenvalues --    0.39464   0.41770   0.43079   0.44717   0.46367
 Alpha virt. eigenvalues --    0.47047   0.49366   0.53230   0.54450   0.57536
 Alpha virt. eigenvalues --    0.58604   0.64526   0.65979   0.68542   0.71259
 Alpha virt. eigenvalues --    0.75225   0.76386   0.78750   0.80151   0.80873
 Alpha virt. eigenvalues --    0.81437   0.82296   0.82615   0.84108   0.86117
 Alpha virt. eigenvalues --    0.87954   0.91661   0.92323   0.93728   0.95614
 Alpha virt. eigenvalues --    0.96282   0.98026   1.01278   1.02029   1.07275
 Alpha virt. eigenvalues --    1.09893   1.12700   1.15053   1.17073   1.19407
 Alpha virt. eigenvalues --    1.21129   1.25465   1.27689   1.35936   1.40399
 Alpha virt. eigenvalues --    1.44270   1.47451   1.48778   1.55589   1.56846
 Alpha virt. eigenvalues --    1.62153   1.63425   1.65717   1.67198   1.71562
 Alpha virt. eigenvalues --    1.74118   1.75965   1.77929   1.81151   1.83069
 Alpha virt. eigenvalues --    1.86239   1.89326   1.90885   1.93672   1.94061
 Alpha virt. eigenvalues --    1.96633   1.98358   2.00201   2.02123   2.03032
 Alpha virt. eigenvalues --    2.06696   2.10111   2.11146   2.13322   2.13905
 Alpha virt. eigenvalues --    2.16654   2.18361   2.19972   2.23542   2.26278
 Alpha virt. eigenvalues --    2.29668   2.36114   2.37432   2.40436   2.45107
 Alpha virt. eigenvalues --    2.46221   2.46620   2.48360   2.49374   2.53822
 Alpha virt. eigenvalues --    2.56404   2.58255   2.59905   2.61917   2.64150
 Alpha virt. eigenvalues --    2.65226   2.66907   2.67899   2.70409   2.74073
 Alpha virt. eigenvalues --    2.76354   2.78087   2.86699   2.88571   2.89230
 Alpha virt. eigenvalues --    2.90674   2.97008   2.98551   3.02336   3.05106
 Alpha virt. eigenvalues --    3.18605   3.19745   3.31187   3.31998   3.36686
 Alpha virt. eigenvalues --    3.38164   3.42329   3.42721   3.47772   3.50744
 Alpha virt. eigenvalues --    3.53503   3.55025   3.60300   3.62304   3.66100
 Alpha virt. eigenvalues --    3.68427   3.76023   3.80350   3.83181   3.93595
 Alpha virt. eigenvalues --    3.95113   4.00548   4.03417   4.04638   4.05672
 Alpha virt. eigenvalues --    4.13325   4.19930   4.20860   4.26074   4.32461
 Alpha virt. eigenvalues --    4.38613   4.43324   4.55783   4.61771   4.62879
 Alpha virt. eigenvalues --    4.68300   4.81854   4.87730   4.92350   4.99214
 Alpha virt. eigenvalues --    5.03737   5.06997   5.11223   5.11491   5.12374
 Alpha virt. eigenvalues --    5.21457   5.28768   5.31901   5.35930   5.42704
 Alpha virt. eigenvalues --    5.45822   5.53280   5.54026   5.58736   5.59809
 Alpha virt. eigenvalues --    5.66910   5.70275   5.71467   5.75828   5.78414
 Alpha virt. eigenvalues --    5.79016   5.80170   5.86033   5.91142   5.96377
 Alpha virt. eigenvalues --    5.98292   6.00340   6.02109   6.05193   6.08241
 Alpha virt. eigenvalues --    6.09930   6.15497   6.16949   6.19129   6.19614
 Alpha virt. eigenvalues --    6.22555   6.27499   6.28949   6.29859   6.31520
 Alpha virt. eigenvalues --    6.32982   6.35584   6.38327   6.45408   6.47841
 Alpha virt. eigenvalues --    6.52227   6.52601   6.56168   6.60723   6.62642
 Alpha virt. eigenvalues --    6.65484   6.74271   6.77515   6.77713   6.80729
 Alpha virt. eigenvalues --    6.85510   6.86863   6.98796   7.02647   7.06310
 Alpha virt. eigenvalues --    7.07678   7.11649   7.12679   7.15179   7.23319
 Alpha virt. eigenvalues --    7.31790   7.43129   7.47176   7.49856   7.52040
 Alpha virt. eigenvalues --    7.58260   7.59031   7.61736   7.65796   7.67348
 Alpha virt. eigenvalues --    7.70401   7.70900   7.73956   7.76318   7.79395
 Alpha virt. eigenvalues --    7.86335   7.88449   7.94342   8.01181   8.07622
 Alpha virt. eigenvalues --    8.08103   8.11736   8.15586   8.19830   8.23218
 Alpha virt. eigenvalues --    8.24926   8.26658   8.29724   8.34018   8.35720
 Alpha virt. eigenvalues --    8.37628   8.48206   8.50657   8.52377   8.57287
 Alpha virt. eigenvalues --    8.58509   8.62279   8.63670   8.64229   8.70485
 Alpha virt. eigenvalues --    8.79294   8.93927   8.97362   9.00550   9.08934
 Alpha virt. eigenvalues --    9.10107   9.12648   9.21038   9.31035   9.35900
 Alpha virt. eigenvalues --    9.41127   9.46830   9.63430   9.72207   9.84507
 Alpha virt. eigenvalues --    9.85633   9.94607   9.99863  10.03387  10.05287
 Alpha virt. eigenvalues --   10.13567  10.19159  10.24231  10.27892  10.28808
 Alpha virt. eigenvalues --   10.31628  10.40192  10.53921  10.66604  11.01970
 Alpha virt. eigenvalues --   11.17351  11.26124  11.29225  11.39849  11.54718
 Alpha virt. eigenvalues --   11.67157  11.70583  11.81035  12.04753  12.13283
 Alpha virt. eigenvalues --   12.33231  12.37406  12.50764  12.60314  12.96034
 Alpha virt. eigenvalues --   13.21744  13.39226  13.83442  14.37398  14.77280
 Alpha virt. eigenvalues --   28.62099  28.97283  29.52778  48.68013 148.21289
 Alpha virt. eigenvalues --  148.54392 149.12580 254.44351
          Condensed to atoms (all electrons):
               1          2          3          4          5          6
     1  C    4.485131   0.631363   0.364749  -0.054112  -0.028386  -0.003445
     2  O    0.631363   7.885325  -0.091360   0.005681   0.006570   0.000409
     3  C    0.364749  -0.091360   5.167748   0.488399   0.364894  -0.048439
     4  C   -0.054112   0.005681   0.488399   4.864608  -0.037747   0.425686
     5  H   -0.028386   0.006570   0.364894  -0.037747   0.583209   0.005075
     6  H   -0.003445   0.000409  -0.048439   0.425686   0.005075   0.569206
     7  H    0.002692  -0.000589  -0.034720   0.417355  -0.004998  -0.041702
     8  H    0.449295  -0.085463  -0.177197   0.023067   0.009432   0.005541
               7          8
     1  C    0.002692   0.449295
     2  O   -0.000589  -0.085463
     3  C   -0.034720  -0.177197
     4  C    0.417355   0.023067
     5  H   -0.004998   0.009432
     6  H   -0.041702   0.005541
     7  H    0.559490  -0.000635
     8  H   -0.000635   0.702452
 Mulliken charges:
               1
     1  C    0.152714
     2  O   -0.351935
     3  C   -0.034075
     4  C   -0.132938
     5  H    0.101951
     6  H    0.087669
     7  H    0.103108
     8  H    0.073507
 Sum of Mulliken charges =   0.00000
 Mulliken charges with hydrogens summed into heavy atoms:
               1
     1  C    0.226221
     2  O   -0.351935
     3  C    0.067875
     4  C    0.057839
 Electronic spatial extent (au):  <R**2>=            296.9357
 Charge=              0.0000 electrons
 Dipole moment (field-independent basis, Debye):
    X=             -3.5699    Y=              0.7520    Z=              0.0219  Tot=              3.6483
 Quadrupole moment (field-independent basis, Debye-Ang):
   XX=            -27.4387   YY=            -21.6701   ZZ=            -25.1561
   XY=              0.8187   XZ=             -0.2942   YZ=             -0.0194
 Traceless Quadrupole moment (field-independent basis, Debye-Ang):
   XX=             -2.6838   YY=              3.0849   ZZ=             -0.4011
   XY=              0.8187   XZ=             -0.2942   YZ=             -0.0194
 Octapole moment (field-independent basis, Debye-Ang**2):
  XXX=            -15.4158  YYY=              0.1002  ZZZ=              0.1996  XYY=              0.1224
  XXY=              0.9883  XXZ=              0.3102  XZZ=              4.2693  YZZ=              0.2979
  YYZ=              0.1573  XYZ=             -0.0211
 Hexadecapole moment (field-independent basis, Debye-Ang**3):
 XXXX=           -301.2151 YYYY=            -54.1814 ZZZZ=            -27.3439 XXXY=              2.4809
 XXXZ=             -1.4962 YYYX=             -0.2355 YYYZ=             -0.0963 ZZZX=             -0.1930
 ZZZY=             -0.0321 XXYY=            -57.7899 XXZZ=            -56.8951 YYZZ=            -15.3384
 XXYZ=             -0.0068 YYXZ=             -0.2741 ZZXY=             -0.3297
 N-N= 1.036013847514D+02 E-N=-6.553204389015D+02  KE= 1.910770773541D+02
 Leave Link  601 at Wed Aug 26 19:49:07 2020, MaxMem=  2097152000 cpu:         0.5
 (Enter /opt/cluster/programs/g09/g09_d.01/g09/l9999.exe)
 1\1\GINC-NODE33\SP\RB2PLYPD3-FC\def2QZVP\C3H4O1\BOITTIER\26-Aug-2020\0
 \\#p B2PLYPD3/Def2QZVP\\acrolein\\0,1\C,0,-5.000625,-1.399977,0.881066
 \O,0,-3.94102,-0.857813,0.672433\C,0,-5.190039,-2.823075,1.123187\C,0,
 -6.411692,-3.303698,1.40961\H,0,-4.286108,-3.458463,1.133486\H,0,-7.26
 8379,-2.667704,1.466378\H,0,-6.558156,-4.328971,1.641477\H,0,-5.887166
 ,-0.819416,0.88986\\Version=ES64L-G09RevD.01\State=1-A\HF=-191.6151727
 \MP2=-191.8619129\RMSD=8.198e-09\PG=C01 [X(C3H4O1)]\\@


 ACTORS ARE SO FORTUNATE.  THEY CAN CHOOSE WHETHER
 THEY WILL APPEAR IN A TRAGEDY OR IN COMEDY,
 WHETHER THEY WILL SUFFER OF MAKE MERRY,
 LAUGH OR SHED TEARS.  BUT IN REAL LIFE IT IS DIFFERENT.
 MOST MEN AND WOMEN ARE FORCED TO PERFORM
 PARTS FOR WHICH THEY HAVE NO QUALIFICATIONS.
 THE WORLD IS A STAGE, BUT THE PLAY IS BADLY CAST.

                                   -- OSCAR WILDE
 Job cpu time:       0 days  0 hours 13 minutes 25.0 seconds.
 File lengths (MBytes):  RWF=     49 Int=      0 D2E=      0 Chk=      7 Scr=      1
 Normal termination of Gaussian 09 at Wed Aug 26 19:49:21 2020.
