 Entering Gaussian System, Link 0=/opt/cluster/programs/g09/g09_d.01/g09//g09
 Input=/home/boittier/MDCM/nms_sampling/acrolein_geom.xyz.dir/energies/acrolein_1143_energy.com
 Output=/scratch/boittier/acrolein_1143_energy/acrolein_1143_energy.out
 Initial command:
 /opt/cluster/programs/g09/g09_d.01/g09/l1.exe "/scratch/boittier/acrolein_1143_energy/Gau-18185.inp" -scrdir="/scratch/boittier/acrolein_1143_energy/"
 Entering Link 1 = /opt/cluster/programs/g09/g09_d.01/g09/l1.exe PID=     18186.
  
 Copyright (c) 1988,1990,1992,1993,1995,1998,2003,2009,2013,
            Gaussian, Inc.  All Rights Reserved.
  
 This is part of the Gaussian(R) 09 program.  It is based on
 the Gaussian(R) 03 system (copyright 2003, Gaussian, Inc.),
 the Gaussian(R) 98 system (copyright 1998, Gaussian, Inc.),
 the Gaussian(R) 94 system (copyright 1995, Gaussian, Inc.),
 the Gaussian 92(TM) system (copyright 1992, Gaussian, Inc.),
 the Gaussian 90(TM) system (copyright 1990, Gaussian, Inc.),
 the Gaussian 88(TM) system (copyright 1988, Gaussian, Inc.),
 the Gaussian 86(TM) system (copyright 1986, Carnegie Mellon
 University), and the Gaussian 82(TM) system (copyright 1983,
 Carnegie Mellon University). Gaussian is a federally registered
 trademark of Gaussian, Inc.
  
 This software contains proprietary and confidential information,
 including trade secrets, belonging to Gaussian, Inc.
  
 This software is provided under written license and may be
 used, copied, transmitted, or stored only in accord with that
 written license.
  
 The following legend is applicable only to US Government
 contracts under FAR:
  
                    RESTRICTED RIGHTS LEGEND
  
 Use, reproduction and disclosure by the US Government is
 subject to restrictions as set forth in subparagraphs (a)
 and (c) of the Commercial Computer Software - Restricted
 Rights clause in FAR 52.227-19.
  
 Gaussian, Inc.
 340 Quinnipiac St., Bldg. 40, Wallingford CT 06492
  
  
 ---------------------------------------------------------------
 Warning -- This program may not be used in any manner that
 competes with the business of Gaussian, Inc. or will provide
 assistance to any competitor of Gaussian, Inc.  The licensee
 of this program is prohibited from giving any competitor of
 Gaussian, Inc. access to this program.  By using this program,
 the user acknowledges that Gaussian, Inc. is engaged in the
 business of creating and licensing software in the field of
 computational chemistry and represents and warrants to the
 licensee that it is not a competitor of Gaussian, Inc. and that
 it will not use this program in any manner prohibited above.
 ---------------------------------------------------------------
  

 Cite this work as:
 Gaussian 09, Revision D.01,
 M. J. Frisch, G. W. Trucks, H. B. Schlegel, G. E. Scuseria, 
 M. A. Robb, J. R. Cheeseman, G. Scalmani, V. Barone, B. Mennucci, 
 G. A. Petersson, H. Nakatsuji, M. Caricato, X. Li, H. P. Hratchian, 
 A. F. Izmaylov, J. Bloino, G. Zheng, J. L. Sonnenberg, M. Hada, 
 M. Ehara, K. Toyota, R. Fukuda, J. Hasegawa, M. Ishida, T. Nakajima, 
 Y. Honda, O. Kitao, H. Nakai, T. Vreven, J. A. Montgomery, Jr., 
 J. E. Peralta, F. Ogliaro, M. Bearpark, J. J. Heyd, E. Brothers, 
 K. N. Kudin, V. N. Staroverov, T. Keith, R. Kobayashi, J. Normand, 
 K. Raghavachari, A. Rendell, J. C. Burant, S. S. Iyengar, J. Tomasi, 
 M. Cossi, N. Rega, J. M. Millam, M. Klene, J. E. Knox, J. B. Cross, 
 V. Bakken, C. Adamo, J. Jaramillo, R. Gomperts, R. E. Stratmann, 
 O. Yazyev, A. J. Austin, R. Cammi, C. Pomelli, J. W. Ochterski, 
 R. L. Martin, K. Morokuma, V. G. Zakrzewski, G. A. Voth, 
 P. Salvador, J. J. Dannenberg, S. Dapprich, A. D. Daniels, 
 O. Farkas, J. B. Foresman, J. V. Ortiz, J. Cioslowski, 
 and D. J. Fox, Gaussian, Inc., Wallingford CT, 2013.
 
 ******************************************
 Gaussian 09:  ES64L-G09RevD.01 24-Apr-2013
                26-Aug-2020 
 ******************************************
 %chk=/home/boittier/MDCM/nms_sampling/acrolein_geom.xyz.dir/acrolein_1143.chk
 %nproc=8
 Will use up to    8 processors via shared memory.
 %mem=16000MB
 --------------------
 #p B2PLYPD3/Def2QZVP
 --------------------
 1/38=1/1;
 2/12=2,17=6,18=5,40=1/2;
 3/5=45,7=101,11=9,16=1,25=1,30=1,74=-60/1,2,3;
 4//1;
 5/5=2,38=5/2;
 8/10=1/1;
 9/16=-3/6;
 6/7=2,8=2,9=2,10=2/1;
 99/5=1,9=1/99;
 Leave Link    1 at Wed Aug 26 08:42:47 2020, MaxMem=  2097152000 cpu:         0.2
 (Enter /opt/cluster/programs/g09/g09_d.01/g09/l101.exe)
 --------
 acrolein
 --------
 Symbolic Z-matrix:
 Charge =  0 Multiplicity = 1
 C                    -4.99584  -1.39174   0.92319 
 O                    -3.92814  -0.85798   0.63287 
 C                    -5.2054   -2.84694   1.15118 
 C                    -6.4128   -3.30322   1.37848 
 H                    -4.35684  -3.4339    1.25125 
 H                    -7.31418  -2.61894   1.37477 
 H                    -6.51403  -4.24364   1.60315 
 H                    -5.87776  -0.78143   1.05373 
 
 NAtoms=      8 NQM=        8 NQMF=       0 NMMI=      0 NMMIF=      0
                NMic=       0 NMicF=      0.
                    Isotopes and Nuclear Properties:
 (Nuclear quadrupole moments (NQMom) in fm**2, nuclear magnetic moments (NMagM)
  in nuclear magnetons)

  Atom         1           2           3           4           5           6           7           8
 IAtWgt=          12          16          12          12           1           1           1           1
 AtmWgt=  12.0000000  15.9949146  12.0000000  12.0000000   1.0078250   1.0078250   1.0078250   1.0078250
 NucSpn=           0           0           0           0           1           1           1           1
 AtZEff=   0.0000000   0.0000000   0.0000000   0.0000000   0.0000000   0.0000000   0.0000000   0.0000000
 NQMom=    0.0000000   0.0000000   0.0000000   0.0000000   0.0000000   0.0000000   0.0000000   0.0000000
 NMagM=    0.0000000   0.0000000   0.0000000   0.0000000   2.7928460   2.7928460   2.7928460   2.7928460
 AtZNuc=   6.0000000   8.0000000   6.0000000   6.0000000   1.0000000   1.0000000   1.0000000   1.0000000
 Leave Link  101 at Wed Aug 26 08:42:48 2020, MaxMem=  2097152000 cpu:         0.5
 (Enter /opt/cluster/programs/g09/g09_d.01/g09/l202.exe)
                          Input orientation:                          
 ---------------------------------------------------------------------
 Center     Atomic      Atomic             Coordinates (Angstroms)
 Number     Number       Type             X           Y           Z
 ---------------------------------------------------------------------
      1          6           0       -4.995840   -1.391742    0.923193
      2          8           0       -3.928144   -0.857979    0.632873
      3          6           0       -5.205396   -2.846941    1.151179
      4          6           0       -6.412801   -3.303215    1.378477
      5          1           0       -4.356835   -3.433900    1.251253
      6          1           0       -7.314181   -2.618935    1.374769
      7          1           0       -6.514033   -4.243643    1.603151
      8          1           0       -5.877756   -0.781425    1.053733
 ---------------------------------------------------------------------
                    Distance matrix (angstroms):
                    1          2          3          4          5
     1  C    0.000000
     2  O    1.228480   0.000000
     3  C    1.487782   2.419914   0.000000
     4  C    2.422559   3.564916   1.310602   0.000000
     5  H    2.164800   2.683568   1.036625   2.064040   0.000000
     6  H    2.661697   3.888010   2.132828   1.131697   3.070068
     7  H    3.301604   4.369323   1.966618   0.972179   2.330884
     8  H    1.080418   1.995989   2.174378   2.598299   3.063958
                    6          7          8
     6  H    0.000000
     7  H    1.825396   0.000000
     8  H    2.354320   3.562817   0.000000
 Stoichiometry    C3H4O
 Framework group  C1[X(C3H4O)]
 Deg. of freedom    18
 Full point group                 C1      NOp   1
 Largest Abelian subgroup         C1      NOp   1
 Largest concise Abelian subgroup C1      NOp   1
                         Standard orientation:                         
 ---------------------------------------------------------------------
 Center     Atomic      Atomic             Coordinates (Angstroms)
 Number     Number       Type             X           Y           Z
 ---------------------------------------------------------------------
      1          6           0        0.662875    0.338357    0.025976
      2          8           0        1.804292   -0.112898   -0.025977
      3          6           0       -0.590040   -0.463294   -0.006524
      4          6           0       -1.751360    0.143931   -0.023652
      5          1           0       -0.495647   -1.488012    0.118508
      6          1           0       -1.828354    1.272771   -0.046685
      7          1           0       -2.555174   -0.399655    0.035747
      8          1           0        0.515989    1.404112    0.125447
 ---------------------------------------------------------------------
 Rotational constants (GHZ):     48.3076505      4.6570624      4.2517361
 Leave Link  202 at Wed Aug 26 08:42:48 2020, MaxMem=  2097152000 cpu:         0.0
 (Enter /opt/cluster/programs/g09/g09_d.01/g09/l301.exe)
 Standard basis: def2QZVP (5D, 7F)
 Ernie: Thresh=  0.10000D-02 Tol=  0.10000D-05 Strict=F.
 There are   428 symmetry adapted cartesian basis functions of A   symmetry.
 There are   348 symmetry adapted basis functions of A   symmetry.
   348 basis functions,   520 primitive gaussians,   428 cartesian basis functions
    15 alpha electrons       15 beta electrons
       nuclear repulsion energy       103.5113295263 Hartrees.
 IExCor=  419 DFT=T Ex+Corr=B2PLYPD3 ExCW=0 ScaHFX=  0.530000
 ScaDFX=  0.470000  0.470000  0.730000  0.730000 ScalE2=  0.270000  0.270000
 IRadAn=      0 IRanWt=     -1 IRanGd=            0 ICorTp=0 IEmpDi=141
 NAtoms=    8 NActive=    8 NUniq=    8 SFac= 1.00D+00 NAtFMM=   60 NAOKFM=F Big=F
 Integral buffers will be    131072 words long.
 Regular integral format.
 Two-electron integral symmetry is turned on.
 R6Disp:  Grimme-D3(BJ) Dispersion energy=       -0.0036033230 Hartrees.
 Nuclear repulsion after empirical dispersion term =      103.5077262033 Hartrees.
 Leave Link  301 at Wed Aug 26 08:42:48 2020, MaxMem=  2097152000 cpu:         0.5
 (Enter /opt/cluster/programs/g09/g09_d.01/g09/l302.exe)
 NPDir=0 NMtPBC=     1 NCelOv=     1 NCel=       1 NClECP=     1 NCelD=      1
         NCelK=      1 NCelE2=     1 NClLst=     1 CellRange=     0.0.
 One-electron integrals computed using PRISM.
   1 Symmetry operations used in ECPInt.
 ECPInt:  NShTT=    5886 NPrTT=   14376 LenC2=    5781 LenP2D=   12196.
 LDataN:  DoStor=T MaxTD1= 8 Len=  415
 NBasis=   348 RedAO= T EigKep=  5.28D-05  NBF=   348
 NBsUse=   348 1.00D-06 EigRej= -1.00D+00 NBFU=   348
 Precomputing XC quadrature grid using
 IXCGrd= 4 IRadAn=           0 IRanWt=          -1 IRanGd=           0 AccXCQ= 0.00D+00.
 Generated NRdTot=       0 NPtTot=           0 NUsed=           0 NTot=          32
 NSgBfM=   428   428   428   428   428 MxSgAt=     8 MxSgA2=     8.
 Leave Link  302 at Wed Aug 26 08:42:48 2020, MaxMem=  2097152000 cpu:         2.6
 (Enter /opt/cluster/programs/g09/g09_d.01/g09/l303.exe)
 DipDrv:  MaxL=1.
 Leave Link  303 at Wed Aug 26 08:42:48 2020, MaxMem=  2097152000 cpu:         0.3
 (Enter /opt/cluster/programs/g09/g09_d.01/g09/l401.exe)
 ExpMin= 7.60D-02 ExpMax= 1.17D+05 ExpMxC= 1.13D+03 IAcc=2 IRadAn=         4 AccDes= 0.00D+00
 Harris functional with IExCor=  419 and IRadAn=       4 diagonalized for initial guess.
 HarFok:  IExCor=  419 AccDes= 0.00D+00 IRadAn=         4 IDoV= 1 UseB2=F ITyADJ=14
 ICtDFT=  3500011 ScaDFX=  1.000000  1.000000  1.000000  1.000000
 FoFCou: FMM=F IPFlag=           0 FMFlag=      100000 FMFlg1=           0
         NFxFlg=           0 DoJE=T BraDBF=F KetDBF=T FulRan=T
         wScrn=  0.000000 ICntrl=     500 IOpCl=  0 I1Cent=   200000004 NGrid=           0
         NMat0=    1 NMatS0=      1 NMatT0=    0 NMatD0=    1 NMtDS0=    0 NMtDT0=    0
 Petite list used in FoFCou.
 Harris En= -192.045176327226    
 JPrj=0 DoOrth=F DoCkMO=F.
 Leave Link  401 at Wed Aug 26 08:42:49 2020, MaxMem=  2097152000 cpu:         6.0
 (Enter /opt/cluster/programs/g09/g09_d.01/g09/l502.exe)
 Closed shell SCF:
 Using DIIS extrapolation, IDIIS=  1040.
 Integral symmetry usage will be decided dynamically.
 Keep R1 ints in memory in canonical form, NReq=1883905047.
 IVT=      574566 IEndB=      574566 NGot=  2097152000 MDV=   252723534
 LenX=   252723534 LenY=   252539909
 Requested convergence on RMS density matrix=1.00D-08 within 128 cycles.
 Requested convergence on MAX density matrix=1.00D-06.
 Requested convergence on             energy=1.00D-06.
 No special actions if energy rises.
 FoFCou: FMM=F IPFlag=           0 FMFlag=           0 FMFlg1=           0
         NFxFlg=           0 DoJE=F BraDBF=F KetDBF=F FulRan=T
         wScrn=  0.000000 ICntrl=     600 IOpCl=  0 I1Cent=           0 NGrid=           0
         NMat0=    1 NMatS0=  60726 NMatT0=    0 NMatD0=    1 NMtDS0=    0 NMtDT0=    0
 Symmetry not used in FoFCou.
 Integral accuracy reduced to 1.0D-05 until final iterations.

 Cycle   1  Pass 0  IDiag  1:
 E= -191.449314534611    
 DIIS: error= 2.38D-02 at cycle   1 NSaved=   1.
 NSaved= 1 IEnMin= 1 EnMin= -191.449314534611     IErMin= 1 ErrMin= 2.38D-02
 ErrMax= 2.38D-02  0.00D+00 EMaxC= 1.00D-01 BMatC= 2.68D-01 BMatP= 2.68D-01
 IDIUse=3 WtCom= 7.62D-01 WtEn= 2.38D-01
 Coeff-Com:  0.100D+01
 Coeff-En:   0.100D+01
 Coeff:      0.100D+01
 Gap=     0.296 Goal=   None    Shift=    0.000
 GapD=    0.296 DampG=1.000 DampE=0.500 DampFc=0.5000 IDamp=-1.
 Damping current iteration by 5.00D-01
 RMSDP=1.76D-03 MaxDP=2.10D-01              OVMax= 1.68D-01

 Cycle   2  Pass 0  IDiag  1:
 E= -191.524413783846     Delta-E=       -0.075099249235 Rises=F Damp=T
 DIIS: error= 1.02D-02 at cycle   2 NSaved=   2.
 NSaved= 2 IEnMin= 2 EnMin= -191.524413783846     IErMin= 2 ErrMin= 1.02D-02
 ErrMax= 1.02D-02  0.00D+00 EMaxC= 1.00D-01 BMatC= 3.46D-02 BMatP= 2.68D-01
 IDIUse=3 WtCom= 8.98D-01 WtEn= 1.02D-01
 Coeff-Com: -0.159D+00 0.116D+01
 Coeff-En:   0.000D+00 0.100D+01
 Coeff:     -0.142D+00 0.114D+01
 Gap=     0.356 Goal=   None    Shift=    0.000
 RMSDP=5.86D-04 MaxDP=6.88D-02 DE=-7.51D-02 OVMax= 1.21D-01

 Cycle   3  Pass 0  IDiag  1:
 E= -191.589610378834     Delta-E=       -0.065196594988 Rises=F Damp=F
 DIIS: error= 7.66D-03 at cycle   3 NSaved=   3.
 NSaved= 3 IEnMin= 3 EnMin= -191.589610378834     IErMin= 3 ErrMin= 7.66D-03
 ErrMax= 7.66D-03  0.00D+00 EMaxC= 1.00D-01 BMatC= 1.78D-02 BMatP= 3.46D-02
 IDIUse=3 WtCom= 9.23D-01 WtEn= 7.66D-02
 Coeff-Com: -0.188D+00 0.532D+00 0.656D+00
 Coeff-En:   0.000D+00 0.000D+00 0.100D+01
 Coeff:     -0.174D+00 0.491D+00 0.682D+00
 Gap=     0.338 Goal=   None    Shift=    0.000
 RMSDP=2.45D-04 MaxDP=1.78D-02 DE=-6.52D-02 OVMax= 4.94D-02

 Cycle   4  Pass 0  IDiag  1:
 E= -191.599658913670     Delta-E=       -0.010048534836 Rises=F Damp=F
 DIIS: error= 2.93D-03 at cycle   4 NSaved=   4.
 NSaved= 4 IEnMin= 4 EnMin= -191.599658913670     IErMin= 4 ErrMin= 2.93D-03
 ErrMax= 2.93D-03  0.00D+00 EMaxC= 1.00D-01 BMatC= 3.00D-03 BMatP= 1.78D-02
 IDIUse=3 WtCom= 9.71D-01 WtEn= 2.93D-02
 Coeff-Com: -0.597D-01 0.100D+00 0.353D+00 0.607D+00
 Coeff-En:   0.000D+00 0.000D+00 0.151D+00 0.849D+00
 Coeff:     -0.579D-01 0.972D-01 0.347D+00 0.614D+00
 Gap=     0.323 Goal=   None    Shift=    0.000
 RMSDP=1.01D-04 MaxDP=8.42D-03 DE=-1.00D-02 OVMax= 1.47D-02

 Cycle   5  Pass 0  IDiag  1:
 E= -191.602079860241     Delta-E=       -0.002420946572 Rises=F Damp=F
 DIIS: error= 2.52D-04 at cycle   5 NSaved=   5.
 NSaved= 5 IEnMin= 5 EnMin= -191.602079860241     IErMin= 5 ErrMin= 2.52D-04
 ErrMax= 2.52D-04  0.00D+00 EMaxC= 1.00D-01 BMatC= 1.47D-05 BMatP= 3.00D-03
 IDIUse=3 WtCom= 9.97D-01 WtEn= 2.52D-03
 Coeff-Com: -0.118D-01 0.163D-01 0.772D-01 0.162D+00 0.756D+00
 Coeff-En:   0.000D+00 0.000D+00 0.000D+00 0.000D+00 0.100D+01
 Coeff:     -0.117D-01 0.163D-01 0.770D-01 0.162D+00 0.757D+00
 Gap=     0.321 Goal=   None    Shift=    0.000
 RMSDP=7.46D-06 MaxDP=3.47D-04 DE=-2.42D-03 OVMax= 2.40D-03

 Initial convergence to 1.0D-05 achieved.  Increase integral accuracy.
 Cycle   6  Pass 1  IDiag  1:
 E= -191.602079048877     Delta-E=        0.000000811365 Rises=F Damp=F
 DIIS: error= 8.97D-05 at cycle   1 NSaved=   1.
 NSaved= 1 IEnMin= 1 EnMin= -191.602079048877     IErMin= 1 ErrMin= 8.97D-05
 ErrMax= 8.97D-05  0.00D+00 EMaxC= 1.00D-01 BMatC= 2.10D-06 BMatP= 2.10D-06
 IDIUse=1 WtCom= 1.00D+00 WtEn= 0.00D+00
 Coeff-Com:  0.100D+01
 Coeff:      0.100D+01
 Gap=     0.322 Goal=   None    Shift=    0.000
 RMSDP=7.46D-06 MaxDP=3.47D-04 DE= 8.11D-07 OVMax= 8.27D-04

 Cycle   7  Pass 1  IDiag  1:
 E= -191.602080048601     Delta-E=       -0.000000999724 Rises=F Damp=F
 DIIS: error= 9.14D-05 at cycle   2 NSaved=   2.
 NSaved= 2 IEnMin= 2 EnMin= -191.602080048601     IErMin= 1 ErrMin= 8.97D-05
 ErrMax= 9.14D-05  0.00D+00 EMaxC= 1.00D-01 BMatC= 1.59D-06 BMatP= 2.10D-06
 IDIUse=1 WtCom= 1.00D+00 WtEn= 0.00D+00
 Coeff-Com:  0.463D+00 0.537D+00
 Coeff:      0.463D+00 0.537D+00
 Gap=     0.322 Goal=   None    Shift=    0.000
 RMSDP=2.32D-06 MaxDP=1.90D-04 DE=-1.00D-06 OVMax= 7.08D-04

 Cycle   8  Pass 1  IDiag  1:
 E= -191.602081592908     Delta-E=       -0.000001544307 Rises=F Damp=F
 DIIS: error= 1.92D-05 at cycle   3 NSaved=   3.
 NSaved= 3 IEnMin= 3 EnMin= -191.602081592908     IErMin= 3 ErrMin= 1.92D-05
 ErrMax= 1.92D-05  0.00D+00 EMaxC= 1.00D-01 BMatC= 7.42D-08 BMatP= 1.59D-06
 IDIUse=1 WtCom= 1.00D+00 WtEn= 0.00D+00
 Coeff-Com:  0.457D-01 0.154D+00 0.800D+00
 Coeff:      0.457D-01 0.154D+00 0.800D+00
 Gap=     0.322 Goal=   None    Shift=    0.000
 RMSDP=1.52D-06 MaxDP=1.71D-04 DE=-1.54D-06 OVMax= 1.10D-04

 Cycle   9  Pass 1  IDiag  1:
 E= -191.602081674656     Delta-E=       -0.000000081749 Rises=F Damp=F
 DIIS: error= 1.06D-05 at cycle   4 NSaved=   4.
 NSaved= 4 IEnMin= 4 EnMin= -191.602081674656     IErMin= 4 ErrMin= 1.06D-05
 ErrMax= 1.06D-05  0.00D+00 EMaxC= 1.00D-01 BMatC= 1.50D-08 BMatP= 7.42D-08
 IDIUse=1 WtCom= 1.00D+00 WtEn= 0.00D+00
 Coeff-Com: -0.960D-01-0.566D-01 0.335D+00 0.818D+00
 Coeff:     -0.960D-01-0.566D-01 0.335D+00 0.818D+00
 Gap=     0.322 Goal=   None    Shift=    0.000
 RMSDP=7.16D-07 MaxDP=7.68D-05 DE=-8.17D-08 OVMax= 9.91D-05

 Cycle  10  Pass 1  IDiag  1:
 E= -191.602081697572     Delta-E=       -0.000000022916 Rises=F Damp=F
 DIIS: error= 3.82D-06 at cycle   5 NSaved=   5.
 NSaved= 5 IEnMin= 5 EnMin= -191.602081697572     IErMin= 5 ErrMin= 3.82D-06
 ErrMax= 3.82D-06  0.00D+00 EMaxC= 1.00D-01 BMatC= 4.19D-09 BMatP= 1.50D-08
 IDIUse=1 WtCom= 1.00D+00 WtEn= 0.00D+00
 Coeff-Com: -0.560D-01-0.435D-01 0.897D-01 0.460D+00 0.550D+00
 Coeff:     -0.560D-01-0.435D-01 0.897D-01 0.460D+00 0.550D+00
 Gap=     0.322 Goal=   None    Shift=    0.000
 RMSDP=2.23D-07 MaxDP=2.43D-05 DE=-2.29D-08 OVMax= 1.97D-05

 Cycle  11  Pass 1  IDiag  1:
 E= -191.602081700704     Delta-E=       -0.000000003131 Rises=F Damp=F
 DIIS: error= 1.09D-06 at cycle   6 NSaved=   6.
 NSaved= 6 IEnMin= 6 EnMin= -191.602081700704     IErMin= 6 ErrMin= 1.09D-06
 ErrMax= 1.09D-06  0.00D+00 EMaxC= 1.00D-01 BMatC= 1.78D-10 BMatP= 4.19D-09
 IDIUse=1 WtCom= 1.00D+00 WtEn= 0.00D+00
 Coeff-Com:  0.687D-02 0.235D-02-0.602D-01-0.127D-01 0.976D-01 0.966D+00
 Coeff:      0.687D-02 0.235D-02-0.602D-01-0.127D-01 0.976D-01 0.966D+00
 Gap=     0.322 Goal=   None    Shift=    0.000
 RMSDP=5.95D-08 MaxDP=5.68D-06 DE=-3.13D-09 OVMax= 7.32D-06

 Cycle  12  Pass 1  IDiag  1:
 E= -191.602081700944     Delta-E=       -0.000000000240 Rises=F Damp=F
 DIIS: error= 2.23D-07 at cycle   7 NSaved=   7.
 NSaved= 7 IEnMin= 7 EnMin= -191.602081700944     IErMin= 7 ErrMin= 2.23D-07
 ErrMax= 2.23D-07  0.00D+00 EMaxC= 1.00D-01 BMatC= 1.74D-11 BMatP= 1.78D-10
 IDIUse=1 WtCom= 1.00D+00 WtEn= 0.00D+00
 Coeff-Com:  0.570D-02 0.363D-02-0.279D-01-0.276D-01-0.107D-01 0.318D+00
 Coeff-Com:  0.738D+00
 Coeff:      0.570D-02 0.363D-02-0.279D-01-0.276D-01-0.107D-01 0.318D+00
 Coeff:      0.738D+00
 Gap=     0.322 Goal=   None    Shift=    0.000
 RMSDP=1.03D-08 MaxDP=5.03D-07 DE=-2.40D-10 OVMax= 1.69D-06

 Cycle  13  Pass 1  IDiag  1:
 E= -191.602081700971     Delta-E=       -0.000000000027 Rises=F Damp=F
 DIIS: error= 4.87D-08 at cycle   8 NSaved=   8.
 NSaved= 8 IEnMin= 8 EnMin= -191.602081700971     IErMin= 8 ErrMin= 4.87D-08
 ErrMax= 4.87D-08  0.00D+00 EMaxC= 1.00D-01 BMatC= 9.17D-13 BMatP= 1.74D-11
 IDIUse=1 WtCom= 1.00D+00 WtEn= 0.00D+00
 Coeff-Com: -0.335D-03 0.117D-03 0.410D-02 0.124D-02-0.128D-01-0.897D-01
 Coeff-Com:  0.751D-01 0.102D+01
 Coeff:     -0.335D-03 0.117D-03 0.410D-02 0.124D-02-0.128D-01-0.897D-01
 Coeff:      0.751D-01 0.102D+01
 Gap=     0.322 Goal=   None    Shift=    0.000
 RMSDP=3.98D-09 MaxDP=1.36D-07 DE=-2.71D-11 OVMax= 1.19D-06

 SCF Done:  E(RB2PLYPD3) =  -191.602081701     A.U. after   13 cycles
            NFock= 13  Conv=0.40D-08     -V/T= 2.0022
 KE= 1.911797894039D+02 PE=-6.551955733720D+02 EE= 1.689059760639D+02
 Leave Link  502 at Wed Aug 26 08:43:53 2020, MaxMem=  2097152000 cpu:       267.9
 (Enter /opt/cluster/programs/g09/g09_d.01/g09/l801.exe)
 DoSCS=T DFT=T ScalE2(SS,OS)=  0.270000  0.270000
 ExpMin= 7.60D-02 ExpMax= 1.17D+05 ExpMxC= 1.13D+03 IAcc=3 IRadAn=         5 AccDes= 0.00D+00
 HarFok:  IExCor=  205 AccDes= 0.00D+00 IRadAn=         5 IDoV=-2 UseB2=F ITyADJ=14
 ICtDFT= 12500011 ScaDFX=  1.000000  1.000000  1.000000  1.000000
 DSYEVD-2 returned Info=        1739 IAlg= 4 N=    57 NDim=    57 NE2=    36785415 trying  DSYEV.
 Largest valence mixing into a core orbital is  1.16D-04
 Largest core mixing into a valence orbital is  1.78D-05
 Range of M.O.s used for correlation:     5   348
 NBasis=   348 NAE=    15 NBE=    15 NFC=     4 NFV=     0
 NROrb=    344 NOA=    11 NOB=    11 NVA=   333 NVB=   333

 **** Warning!!: The largest alpha MO coefficient is  0.25859514D+02

 Leave Link  801 at Wed Aug 26 08:43:53 2020, MaxMem=  2097152000 cpu:         0.7
 (Enter /opt/cluster/programs/g09/g09_d.01/g09/l906.exe)
 DoSCS=T DFT=T ScalE2(SS,OS)=  0.270000  0.270000
 FulOut=F Deriv=F AODrv=F NAtomX=     8
   MMem=        1190  MDisk=          11 MDiskD=          11
  W3Min=     1567764 MinDsk=     2827057 NBas6D=         428
 NBas2D=       93150    NTT=       91806    LW2=     4508827
    MDV=  2096569674 MDiskM=       10875 NBas2p=       89749
 Fully direct method using O(OVN) memory.
 IMap=   1   2   3   4   5   6   7   8   9  10  11
 JobTyp=1 Pass  1:  I=   1 to  11 NPSUse=  8 ParTrn=T ParDer=T DoDerP=F.
 Spin components of T(2) and E(2):
     alpha-alpha T2 =       0.4352534936D-01 E2=     -0.2947421216D-01
     alpha-beta  T2 =       0.2639955950D+00 E2=     -0.1880170052D+00
     beta-beta   T2 =       0.4352534936D-01 E2=     -0.2947421216D-01
 The integrals were generated   1 times.
 E2(B2PLYPD3) =    -0.2469654295D+00 E(B2PLYPD3) =    -0.19184904713050D+03
 Leave Link  906 at Wed Aug 26 08:44:48 2020, MaxMem=  2097152000 cpu:       432.7
 (Enter /opt/cluster/programs/g09/g09_d.01/g09/l601.exe)
 Copying SCF densities to generalized density rwf, IOpCl= 0 IROHF=0.

 **********************************************************************

            Population analysis using the SCF density.

 **********************************************************************

 Orbital symmetries:
       Occupied  (A) (A) (A) (A) (A) (A) (A) (A) (A) (A) (A) (A)
                 (A) (A) (A)
       Virtual   (A) (A) (A) (A) (A) (A) (A) (A) (A) (A) (A) (A)
                 (A) (A) (A) (A) (A) (A) (A) (A) (A) (A) (A) (A)
                 (A) (A) (A) (A) (A) (A) (A) (A) (A) (A) (A) (A)
                 (A) (A) (A) (A) (A) (A) (A) (A) (A) (A) (A) (A)
                 (A) (A) (A) (A) (A) (A) (A) (A) (A) (A) (A) (A)
                 (A) (A) (A) (A) (A) (A) (A) (A) (A) (A) (A) (A)
                 (A) (A) (A) (A) (A) (A) (A) (A) (A) (A) (A) (A)
                 (A) (A) (A) (A) (A) (A) (A) (A) (A) (A) (A) (A)
                 (A) (A) (A) (A) (A) (A) (A) (A) (A) (A) (A) (A)
                 (A) (A) (A) (A) (A) (A) (A) (A) (A) (A) (A) (A)
                 (A) (A) (A) (A) (A) (A) (A) (A) (A) (A) (A) (A)
                 (A) (A) (A) (A) (A) (A) (A) (A) (A) (A) (A) (A)
                 (A) (A) (A) (A) (A) (A) (A) (A) (A) (A) (A) (A)
                 (A) (A) (A) (A) (A) (A) (A) (A) (A) (A) (A) (A)
                 (A) (A) (A) (A) (A) (A) (A) (A) (A) (A) (A) (A)
                 (A) (A) (A) (A) (A) (A) (A) (A) (A) (A) (A) (A)
                 (A) (A) (A) (A) (A) (A) (A) (A) (A) (A) (A) (A)
                 (A) (A) (A) (A) (A) (A) (A) (A) (A) (A) (A) (A)
                 (A) (A) (A) (A) (A) (A) (A) (A) (A) (A) (A) (A)
                 (A) (A) (A) (A) (A) (A) (A) (A) (A) (A) (A) (A)
                 (A) (A) (A) (A) (A) (A) (A) (A) (A) (A) (A) (A)
                 (A) (A) (A) (A) (A) (A) (A) (A) (A) (A) (A) (A)
                 (A) (A) (A) (A) (A) (A) (A) (A) (A) (A) (A) (A)
                 (A) (A) (A) (A) (A) (A) (A) (A) (A) (A) (A) (A)
                 (A) (A) (A) (A) (A) (A) (A) (A) (A) (A) (A) (A)
                 (A) (A) (A) (A) (A) (A) (A) (A) (A) (A) (A) (A)
                 (A) (A) (A) (A) (A) (A) (A) (A) (A) (A) (A) (A)
                 (A) (A) (A) (A) (A) (A) (A) (A) (A)
 The electronic state is 1-A.
 Alpha  occ. eigenvalues --  -19.72849 -10.71607 -10.64381 -10.63799  -1.18385
 Alpha  occ. eigenvalues --   -0.93927  -0.76194  -0.67638  -0.57854  -0.56062
 Alpha  occ. eigenvalues --   -0.50787  -0.47639  -0.45930  -0.35118  -0.33817
 Alpha virt. eigenvalues --   -0.01618   0.05823   0.07244   0.07974   0.09697
 Alpha virt. eigenvalues --    0.12690   0.14082   0.15194   0.17718   0.19350
 Alpha virt. eigenvalues --    0.20099   0.22202   0.25136   0.26871   0.28781
 Alpha virt. eigenvalues --    0.31932   0.33610   0.36728   0.37156   0.39049
 Alpha virt. eigenvalues --    0.40701   0.41453   0.42641   0.43757   0.45904
 Alpha virt. eigenvalues --    0.47279   0.49293   0.51740   0.53769   0.57069
 Alpha virt. eigenvalues --    0.61162   0.64819   0.66196   0.68218   0.71455
 Alpha virt. eigenvalues --    0.74978   0.76849   0.78076   0.79372   0.81658
 Alpha virt. eigenvalues --    0.81813   0.82678   0.83396   0.84279   0.86253
 Alpha virt. eigenvalues --    0.88829   0.90971   0.92307   0.95192   0.95913
 Alpha virt. eigenvalues --    0.96461   0.98827   1.02038   1.02581   1.07850
 Alpha virt. eigenvalues --    1.08369   1.11182   1.12446   1.16240   1.21714
 Alpha virt. eigenvalues --    1.23812   1.25806   1.28344   1.33658   1.41247
 Alpha virt. eigenvalues --    1.43841   1.47629   1.49703   1.54994   1.56996
 Alpha virt. eigenvalues --    1.61402   1.63320   1.64826   1.68045   1.71640
 Alpha virt. eigenvalues --    1.74476   1.75061   1.78437   1.81701   1.83722
 Alpha virt. eigenvalues --    1.86456   1.88305   1.89804   1.92723   1.94195
 Alpha virt. eigenvalues --    1.96643   1.99047   1.99639   2.02356   2.02605
 Alpha virt. eigenvalues --    2.06411   2.10253   2.11962   2.12978   2.14746
 Alpha virt. eigenvalues --    2.15821   2.17393   2.20260   2.25029   2.28691
 Alpha virt. eigenvalues --    2.31312   2.35463   2.37710   2.41257   2.42603
 Alpha virt. eigenvalues --    2.46113   2.47091   2.49291   2.50129   2.53004
 Alpha virt. eigenvalues --    2.54929   2.58134   2.60703   2.61462   2.62878
 Alpha virt. eigenvalues --    2.65376   2.67707   2.68618   2.74365   2.75155
 Alpha virt. eigenvalues --    2.77574   2.80878   2.86146   2.88517   2.90057
 Alpha virt. eigenvalues --    2.92185   2.96933   2.98694   3.06110   3.08079
 Alpha virt. eigenvalues --    3.16953   3.23051   3.27534   3.31724   3.34612
 Alpha virt. eigenvalues --    3.37683   3.40208   3.45035   3.47377   3.56581
 Alpha virt. eigenvalues --    3.60395   3.62355   3.63664   3.65373   3.67144
 Alpha virt. eigenvalues --    3.69254   3.77835   3.81974   3.82742   3.92745
 Alpha virt. eigenvalues --    3.98249   4.00699   4.03820   4.06262   4.11217
 Alpha virt. eigenvalues --    4.17044   4.18789   4.24082   4.26062   4.32936
 Alpha virt. eigenvalues --    4.38990   4.42217   4.55824   4.59523   4.63940
 Alpha virt. eigenvalues --    4.67333   4.81739   4.89065   4.90502   4.98290
 Alpha virt. eigenvalues --    5.02249   5.07018   5.12089   5.13572   5.14935
 Alpha virt. eigenvalues --    5.21828   5.25434   5.30000   5.33648   5.43402
 Alpha virt. eigenvalues --    5.45400   5.50220   5.51952   5.58590   5.61279
 Alpha virt. eigenvalues --    5.65318   5.72269   5.73942   5.76115   5.80286
 Alpha virt. eigenvalues --    5.81070   5.82210   5.87461   5.88523   5.94599
 Alpha virt. eigenvalues --    5.98406   6.00314   6.02676   6.05108   6.08360
 Alpha virt. eigenvalues --    6.09624   6.13790   6.15957   6.18473   6.19958
 Alpha virt. eigenvalues --    6.22861   6.25086   6.27328   6.30053   6.32100
 Alpha virt. eigenvalues --    6.35101   6.37632   6.43261   6.45868   6.51173
 Alpha virt. eigenvalues --    6.56545   6.56960   6.59969   6.65075   6.66313
 Alpha virt. eigenvalues --    6.68256   6.71464   6.74593   6.77201   6.84122
 Alpha virt. eigenvalues --    6.88263   6.91693   6.96871   7.02793   7.05158
 Alpha virt. eigenvalues --    7.12126   7.13190   7.19860   7.28046   7.32795
 Alpha virt. eigenvalues --    7.39815   7.42086   7.46113   7.50473   7.54844
 Alpha virt. eigenvalues --    7.56309   7.57362   7.64167   7.64780   7.66344
 Alpha virt. eigenvalues --    7.69737   7.70739   7.75535   7.76426   7.82018
 Alpha virt. eigenvalues --    7.88688   7.90164   7.94409   8.02330   8.03823
 Alpha virt. eigenvalues --    8.06042   8.11583   8.13773   8.17767   8.23893
 Alpha virt. eigenvalues --    8.24759   8.29422   8.32737   8.34361   8.35181
 Alpha virt. eigenvalues --    8.46536   8.50307   8.54529   8.60082   8.62848
 Alpha virt. eigenvalues --    8.64567   8.69571   8.71543   8.75255   8.89388
 Alpha virt. eigenvalues --    8.94384   9.02099   9.06032   9.07825   9.10694
 Alpha virt. eigenvalues --    9.13065   9.21662   9.27540   9.31693   9.35542
 Alpha virt. eigenvalues --    9.41802   9.50244   9.59413   9.70192   9.77981
 Alpha virt. eigenvalues --    9.87587   9.90172   9.97714  10.05866  10.07586
 Alpha virt. eigenvalues --   10.19888  10.26594  10.28659  10.35409  10.39627
 Alpha virt. eigenvalues --   10.48211  10.60487  10.76330  10.89064  11.06579
 Alpha virt. eigenvalues --   11.21951  11.25245  11.29841  11.31889  11.41493
 Alpha virt. eigenvalues --   11.65010  11.76361  11.86538  12.04241  12.07875
 Alpha virt. eigenvalues --   12.32599  12.35364  12.46419  12.59838  12.84558
 Alpha virt. eigenvalues --   13.06058  13.30010  13.69609  14.36050  14.60498
 Alpha virt. eigenvalues --   28.70440  28.89524  29.68976  48.62394 148.30679
 Alpha virt. eigenvalues --  148.47193 149.34362 254.37978
          Condensed to atoms (all electrons):
               1          2          3          4          5          6
     1  C    4.502614   0.618493   0.364836  -0.056462  -0.029267  -0.005441
     2  O    0.618493   7.890000  -0.084327   0.005884   0.005371   0.000488
     3  C    0.364836  -0.084327   5.168561   0.484018   0.370217  -0.048256
     4  C   -0.056462   0.005884   0.484018   4.853279  -0.039156   0.426222
     5  H   -0.029267   0.005371   0.370217  -0.039156   0.580742   0.005492
     6  H   -0.005441   0.000488  -0.048256   0.426222   0.005492   0.568507
     7  H    0.003282  -0.000745  -0.044214   0.426616  -0.005532  -0.037750
     8  H    0.448299  -0.078409  -0.168720   0.025785   0.008025   0.006933
               7          8
     1  C    0.003282   0.448299
     2  O   -0.000745  -0.078409
     3  C   -0.044214  -0.168720
     4  C    0.426616   0.025785
     5  H   -0.005532   0.008025
     6  H   -0.037750   0.006933
     7  H    0.554221  -0.000619
     8  H   -0.000619   0.679948
 Mulliken charges:
               1
     1  C    0.153647
     2  O   -0.356757
     3  C   -0.042114
     4  C   -0.126188
     5  H    0.104109
     6  H    0.083805
     7  H    0.104742
     8  H    0.078756
 Sum of Mulliken charges =   0.00000
 Mulliken charges with hydrogens summed into heavy atoms:
               1
     1  C    0.232403
     2  O   -0.356757
     3  C    0.061995
     4  C    0.062359
 Electronic spatial extent (au):  <R**2>=            297.3352
 Charge=              0.0000 electrons
 Dipole moment (field-independent basis, Debye):
    X=             -3.5672    Y=              0.7341    Z=              0.2396  Tot=              3.6499
 Quadrupole moment (field-independent basis, Debye-Ang):
   XX=            -27.8156   YY=            -21.5749   ZZ=            -25.0270
   XY=              0.9558   XZ=              0.0340   YZ=             -0.1996
 Traceless Quadrupole moment (field-independent basis, Debye-Ang):
   XX=             -3.0098   YY=              3.2309   ZZ=             -0.2211
   XY=              0.9558   XZ=              0.0340   YZ=             -0.1996
 Octapole moment (field-independent basis, Debye-Ang**2):
  XXX=            -14.7845  YYY=              0.0704  ZZZ=              0.2251  XYY=             -0.2203
  XXY=              0.6183  XXZ=              0.4910  XZZ=              3.9272  YZZ=              0.0091
  YYZ=              0.4726  XYZ=              0.1940
 Hexadecapole moment (field-independent basis, Debye-Ang**3):
 XXXX=           -305.1752 YYYY=            -54.3207 ZZZZ=            -27.1935 XXXY=              2.9614
 XXXZ=             -0.8101 YYYX=              0.1343 YYYZ=             -0.5484 ZZZX=             -0.4520
 ZZZY=             -0.1753 XXYY=            -57.4370 XXZZ=            -56.4706 YYZZ=            -15.2197
 XXYZ=             -0.4176 YYXZ=             -0.1225 ZZXY=             -0.0343
 N-N= 1.035077262033D+02 E-N=-6.551955801238D+02  KE= 1.911797894039D+02
 Leave Link  601 at Wed Aug 26 08:44:48 2020, MaxMem=  2097152000 cpu:         0.5
 (Enter /opt/cluster/programs/g09/g09_d.01/g09/l9999.exe)
 1\1\GINC-NODE33\SP\RB2PLYPD3-FC\def2QZVP\C3H4O1\BOITTIER\26-Aug-2020\0
 \\#p B2PLYPD3/Def2QZVP\\acrolein\\0,1\C,0,-4.99584,-1.391742,0.923193\
 O,0,-3.928144,-0.857979,0.632873\C,0,-5.205396,-2.846941,1.151179\C,0,
 -6.412801,-3.303215,1.378477\H,0,-4.356835,-3.4339,1.251253\H,0,-7.314
 181,-2.618935,1.374769\H,0,-6.514033,-4.243643,1.603151\H,0,-5.877756,
 -0.781425,1.053733\\Version=ES64L-G09RevD.01\State=1-A\HF=-191.6020817
 \MP2=-191.8490471\RMSD=3.978e-09\PG=C01 [X(C3H4O1)]\\@


 HE THAT FOLLOWS NATURE IS NEVER LOST.

                             -- BACON
 Job cpu time:       0 days  0 hours 11 minutes 52.7 seconds.
 File lengths (MBytes):  RWF=     49 Int=      0 D2E=      0 Chk=      7 Scr=      1
 Normal termination of Gaussian 09 at Wed Aug 26 08:44:48 2020.
