 Entering Gaussian System, Link 0=/opt/cluster/programs/g09/g09_d.01/g09//g09
 Input=/home/boittier/MDCM/nms_sampling/acrolein_geom.xyz.dir/energies/acrolein_1616_energy.com
 Output=/scratch/boittier/acrolein_1616_energy/acrolein_1616_energy.out
 Initial command:
 /opt/cluster/programs/g09/g09_d.01/g09/l1.exe "/scratch/boittier/acrolein_1616_energy/Gau-105788.inp" -scrdir="/scratch/boittier/acrolein_1616_energy/"
 Entering Link 1 = /opt/cluster/programs/g09/g09_d.01/g09/l1.exe PID=    105789.
  
 Copyright (c) 1988,1990,1992,1993,1995,1998,2003,2009,2013,
            Gaussian, Inc.  All Rights Reserved.
  
 This is part of the Gaussian(R) 09 program.  It is based on
 the Gaussian(R) 03 system (copyright 2003, Gaussian, Inc.),
 the Gaussian(R) 98 system (copyright 1998, Gaussian, Inc.),
 the Gaussian(R) 94 system (copyright 1995, Gaussian, Inc.),
 the Gaussian 92(TM) system (copyright 1992, Gaussian, Inc.),
 the Gaussian 90(TM) system (copyright 1990, Gaussian, Inc.),
 the Gaussian 88(TM) system (copyright 1988, Gaussian, Inc.),
 the Gaussian 86(TM) system (copyright 1986, Carnegie Mellon
 University), and the Gaussian 82(TM) system (copyright 1983,
 Carnegie Mellon University). Gaussian is a federally registered
 trademark of Gaussian, Inc.
  
 This software contains proprietary and confidential information,
 including trade secrets, belonging to Gaussian, Inc.
  
 This software is provided under written license and may be
 used, copied, transmitted, or stored only in accord with that
 written license.
  
 The following legend is applicable only to US Government
 contracts under FAR:
  
                    RESTRICTED RIGHTS LEGEND
  
 Use, reproduction and disclosure by the US Government is
 subject to restrictions as set forth in subparagraphs (a)
 and (c) of the Commercial Computer Software - Restricted
 Rights clause in FAR 52.227-19.
  
 Gaussian, Inc.
 340 Quinnipiac St., Bldg. 40, Wallingford CT 06492
  
  
 ---------------------------------------------------------------
 Warning -- This program may not be used in any manner that
 competes with the business of Gaussian, Inc. or will provide
 assistance to any competitor of Gaussian, Inc.  The licensee
 of this program is prohibited from giving any competitor of
 Gaussian, Inc. access to this program.  By using this program,
 the user acknowledges that Gaussian, Inc. is engaged in the
 business of creating and licensing software in the field of
 computational chemistry and represents and warrants to the
 licensee that it is not a competitor of Gaussian, Inc. and that
 it will not use this program in any manner prohibited above.
 ---------------------------------------------------------------
  

 Cite this work as:
 Gaussian 09, Revision D.01,
 M. J. Frisch, G. W. Trucks, H. B. Schlegel, G. E. Scuseria, 
 M. A. Robb, J. R. Cheeseman, G. Scalmani, V. Barone, B. Mennucci, 
 G. A. Petersson, H. Nakatsuji, M. Caricato, X. Li, H. P. Hratchian, 
 A. F. Izmaylov, J. Bloino, G. Zheng, J. L. Sonnenberg, M. Hada, 
 M. Ehara, K. Toyota, R. Fukuda, J. Hasegawa, M. Ishida, T. Nakajima, 
 Y. Honda, O. Kitao, H. Nakai, T. Vreven, J. A. Montgomery, Jr., 
 J. E. Peralta, F. Ogliaro, M. Bearpark, J. J. Heyd, E. Brothers, 
 K. N. Kudin, V. N. Staroverov, T. Keith, R. Kobayashi, J. Normand, 
 K. Raghavachari, A. Rendell, J. C. Burant, S. S. Iyengar, J. Tomasi, 
 M. Cossi, N. Rega, J. M. Millam, M. Klene, J. E. Knox, J. B. Cross, 
 V. Bakken, C. Adamo, J. Jaramillo, R. Gomperts, R. E. Stratmann, 
 O. Yazyev, A. J. Austin, R. Cammi, C. Pomelli, J. W. Ochterski, 
 R. L. Martin, K. Morokuma, V. G. Zakrzewski, G. A. Voth, 
 P. Salvador, J. J. Dannenberg, S. Dapprich, A. D. Daniels, 
 O. Farkas, J. B. Foresman, J. V. Ortiz, J. Cioslowski, 
 and D. J. Fox, Gaussian, Inc., Wallingford CT, 2013.
 
 ******************************************
 Gaussian 09:  ES64L-G09RevD.01 24-Apr-2013
                26-Aug-2020 
 ******************************************
 %chk=/home/boittier/MDCM/nms_sampling/acrolein_geom.xyz.dir/acrolein_1616.chk
 %nproc=8
 Will use up to    8 processors via shared memory.
 %mem=16000MB
 --------------------
 #p B2PLYPD3/Def2QZVP
 --------------------
 1/38=1/1;
 2/12=2,17=6,18=5,40=1/2;
 3/5=45,7=101,11=9,16=1,25=1,30=1,74=-60/1,2,3;
 4//1;
 5/5=2,38=5/2;
 8/10=1/1;
 9/16=-3/6;
 6/7=2,8=2,9=2,10=2/1;
 99/5=1,9=1/99;
 Leave Link    1 at Wed Aug 26 09:38:31 2020, MaxMem=  2097152000 cpu:         0.2
 (Enter /opt/cluster/programs/g09/g09_d.01/g09/l101.exe)
 --------
 acrolein
 --------
 Symbolic Z-matrix:
 Charge =  0 Multiplicity = 1
 C                    -5.01626  -1.37165   0.92083 
 O                    -3.94563  -0.87641   0.64448 
 C                    -5.19927  -2.81084   1.14377 
 C                    -6.38531  -3.32244   1.3867 
 H                    -4.24082  -3.4186    1.12951 
 H                    -7.20756  -2.66489   1.33273 
 H                    -6.54743  -4.35346   1.69949 
 H                    -5.93403  -0.80039   0.97291 
 
 NAtoms=      8 NQM=        8 NQMF=       0 NMMI=      0 NMMIF=      0
                NMic=       0 NMicF=      0.
                    Isotopes and Nuclear Properties:
 (Nuclear quadrupole moments (NQMom) in fm**2, nuclear magnetic moments (NMagM)
  in nuclear magnetons)

  Atom         1           2           3           4           5           6           7           8
 IAtWgt=          12          16          12          12           1           1           1           1
 AtmWgt=  12.0000000  15.9949146  12.0000000  12.0000000   1.0078250   1.0078250   1.0078250   1.0078250
 NucSpn=           0           0           0           0           1           1           1           1
 AtZEff=   0.0000000   0.0000000   0.0000000   0.0000000   0.0000000   0.0000000   0.0000000   0.0000000
 NQMom=    0.0000000   0.0000000   0.0000000   0.0000000   0.0000000   0.0000000   0.0000000   0.0000000
 NMagM=    0.0000000   0.0000000   0.0000000   0.0000000   2.7928460   2.7928460   2.7928460   2.7928460
 AtZNuc=   6.0000000   8.0000000   6.0000000   6.0000000   1.0000000   1.0000000   1.0000000   1.0000000
 Leave Link  101 at Wed Aug 26 09:38:31 2020, MaxMem=  2097152000 cpu:         0.5
 (Enter /opt/cluster/programs/g09/g09_d.01/g09/l202.exe)
                          Input orientation:                          
 ---------------------------------------------------------------------
 Center     Atomic      Atomic             Coordinates (Angstroms)
 Number     Number       Type             X           Y           Z
 ---------------------------------------------------------------------
      1          6           0       -5.016262   -1.371649    0.920828
      2          8           0       -3.945630   -0.876405    0.644475
      3          6           0       -5.199267   -2.810838    1.143765
      4          6           0       -6.385313   -3.322435    1.386701
      5          1           0       -4.240822   -3.418604    1.129508
      6          1           0       -7.207564   -2.664885    1.332734
      7          1           0       -6.547430   -4.353462    1.699492
      8          1           0       -5.934034   -0.800392    0.972911
 ---------------------------------------------------------------------
                    Distance matrix (angstroms):
                    1          2          3          4          5
     1  C    0.000000
     2  O    1.211565   0.000000
     3  C    1.467807   2.358586   0.000000
     4  C    2.428354   3.533556   1.314327   0.000000
     5  H    2.198836   2.604836   1.134989   2.161999   0.000000
     6  H    2.577582   3.783196   2.022441   1.054221   3.067727
     7  H    3.441221   4.469043   2.122749   1.089558   2.553288
     8  H    1.082290   2.016779   2.147316   2.595299   3.121942
                    6          7          8
     6  H    0.000000
     7  H    1.849752   0.000000
     8  H    2.286413   3.678108   0.000000
 Stoichiometry    C3H4O
 Framework group  C1[X(C3H4O)]
 Deg. of freedom    18
 Full point group                 C1      NOp   1
 Largest Abelian subgroup         C1      NOp   1
 Largest concise Abelian subgroup C1      NOp   1
                         Standard orientation:                         
 ---------------------------------------------------------------------
 Center     Atomic      Atomic             Coordinates (Angstroms)
 Number     Number       Type             X           Y           Z
 ---------------------------------------------------------------------
      1          6           0        0.669444    0.362411    0.029439
      2          8           0        1.775721   -0.129689   -0.013910
      3          6           0       -0.563198   -0.433589   -0.008434
      4          6           0       -1.747862    0.135590   -0.016260
      5          1           0       -0.403078   -1.557036    0.012232
      6          1           0       -1.770086    1.187831   -0.076881
      7          1           0       -2.682954   -0.411002    0.101963
      8          1           0        0.500037    1.431241    0.045496
 ---------------------------------------------------------------------
 Rotational constants (GHZ):     48.3644337      4.7314992      4.3124547
 Leave Link  202 at Wed Aug 26 09:38:31 2020, MaxMem=  2097152000 cpu:         0.0
 (Enter /opt/cluster/programs/g09/g09_d.01/g09/l301.exe)
 Standard basis: def2QZVP (5D, 7F)
 Ernie: Thresh=  0.10000D-02 Tol=  0.10000D-05 Strict=F.
 There are   428 symmetry adapted cartesian basis functions of A   symmetry.
 There are   348 symmetry adapted basis functions of A   symmetry.
   348 basis functions,   520 primitive gaussians,   428 cartesian basis functions
    15 alpha electrons       15 beta electrons
       nuclear repulsion energy       103.7338150085 Hartrees.
 IExCor=  419 DFT=T Ex+Corr=B2PLYPD3 ExCW=0 ScaHFX=  0.530000
 ScaDFX=  0.470000  0.470000  0.730000  0.730000 ScalE2=  0.270000  0.270000
 IRadAn=      0 IRanWt=     -1 IRanGd=            0 ICorTp=0 IEmpDi=141
 NAtoms=    8 NActive=    8 NUniq=    8 SFac= 1.00D+00 NAtFMM=   60 NAOKFM=F Big=F
 Integral buffers will be    131072 words long.
 Regular integral format.
 Two-electron integral symmetry is turned on.
 R6Disp:  Grimme-D3(BJ) Dispersion energy=       -0.0036000175 Hartrees.
 Nuclear repulsion after empirical dispersion term =      103.7302149910 Hartrees.
 Leave Link  301 at Wed Aug 26 09:38:31 2020, MaxMem=  2097152000 cpu:         0.4
 (Enter /opt/cluster/programs/g09/g09_d.01/g09/l302.exe)
 NPDir=0 NMtPBC=     1 NCelOv=     1 NCel=       1 NClECP=     1 NCelD=      1
         NCelK=      1 NCelE2=     1 NClLst=     1 CellRange=     0.0.
 One-electron integrals computed using PRISM.
   1 Symmetry operations used in ECPInt.
 ECPInt:  NShTT=    5886 NPrTT=   14376 LenC2=    5781 LenP2D=   12198.
 LDataN:  DoStor=T MaxTD1= 8 Len=  415
 NBasis=   348 RedAO= T EigKep=  5.56D-05  NBF=   348
 NBsUse=   348 1.00D-06 EigRej= -1.00D+00 NBFU=   348
 Precomputing XC quadrature grid using
 IXCGrd= 4 IRadAn=           0 IRanWt=          -1 IRanGd=           0 AccXCQ= 0.00D+00.
 Generated NRdTot=       0 NPtTot=           0 NUsed=           0 NTot=          32
 NSgBfM=   428   428   428   428   428 MxSgAt=     8 MxSgA2=     8.
 Leave Link  302 at Wed Aug 26 09:38:31 2020, MaxMem=  2097152000 cpu:         2.5
 (Enter /opt/cluster/programs/g09/g09_d.01/g09/l303.exe)
 DipDrv:  MaxL=1.
 Leave Link  303 at Wed Aug 26 09:38:32 2020, MaxMem=  2097152000 cpu:         0.3
 (Enter /opt/cluster/programs/g09/g09_d.01/g09/l401.exe)
 ExpMin= 7.60D-02 ExpMax= 1.17D+05 ExpMxC= 1.13D+03 IAcc=2 IRadAn=         4 AccDes= 0.00D+00
 Harris functional with IExCor=  419 and IRadAn=       4 diagonalized for initial guess.
 HarFok:  IExCor=  419 AccDes= 0.00D+00 IRadAn=         4 IDoV= 1 UseB2=F ITyADJ=14
 ICtDFT=  3500011 ScaDFX=  1.000000  1.000000  1.000000  1.000000
 FoFCou: FMM=F IPFlag=           0 FMFlag=      100000 FMFlg1=           0
         NFxFlg=           0 DoJE=T BraDBF=F KetDBF=T FulRan=T
         wScrn=  0.000000 ICntrl=     500 IOpCl=  0 I1Cent=   200000004 NGrid=           0
         NMat0=    1 NMatS0=      1 NMatT0=    0 NMatD0=    1 NMtDS0=    0 NMtDT0=    0
 Petite list used in FoFCou.
 Harris En= -192.045816902150    
 JPrj=0 DoOrth=F DoCkMO=F.
 Leave Link  401 at Wed Aug 26 09:38:33 2020, MaxMem=  2097152000 cpu:         6.0
 (Enter /opt/cluster/programs/g09/g09_d.01/g09/l502.exe)
 Closed shell SCF:
 Using DIIS extrapolation, IDIIS=  1040.
 Integral symmetry usage will be decided dynamically.
 Keep R1 ints in memory in canonical form, NReq=1883905047.
 IVT=      574566 IEndB=      574566 NGot=  2097152000 MDV=   252723534
 LenX=   252723534 LenY=   252539909
 Requested convergence on RMS density matrix=1.00D-08 within 128 cycles.
 Requested convergence on MAX density matrix=1.00D-06.
 Requested convergence on             energy=1.00D-06.
 No special actions if energy rises.
 FoFCou: FMM=F IPFlag=           0 FMFlag=           0 FMFlg1=           0
         NFxFlg=           0 DoJE=F BraDBF=F KetDBF=F FulRan=T
         wScrn=  0.000000 ICntrl=     600 IOpCl=  0 I1Cent=           0 NGrid=           0
         NMat0=    1 NMatS0=  60726 NMatT0=    0 NMatD0=    1 NMtDS0=    0 NMtDT0=    0
 Symmetry not used in FoFCou.
 Integral accuracy reduced to 1.0D-05 until final iterations.

 Cycle   1  Pass 0  IDiag  1:
 E= -191.467447937088    
 DIIS: error= 2.67D-02 at cycle   1 NSaved=   1.
 NSaved= 1 IEnMin= 1 EnMin= -191.467447937088     IErMin= 1 ErrMin= 2.67D-02
 ErrMax= 2.67D-02  0.00D+00 EMaxC= 1.00D-01 BMatC= 2.59D-01 BMatP= 2.59D-01
 IDIUse=3 WtCom= 7.33D-01 WtEn= 2.67D-01
 Coeff-Com:  0.100D+01
 Coeff-En:   0.100D+01
 Coeff:      0.100D+01
 Gap=     0.296 Goal=   None    Shift=    0.000
 GapD=    0.296 DampG=1.000 DampE=0.500 DampFc=0.5000 IDamp=-1.
 Damping current iteration by 5.00D-01
 RMSDP=1.70D-03 MaxDP=2.00D-01              OVMax= 1.68D-01

 Cycle   2  Pass 0  IDiag  1:
 E= -191.539070599324     Delta-E=       -0.071622662236 Rises=F Damp=T
 DIIS: error= 1.04D-02 at cycle   2 NSaved=   2.
 NSaved= 2 IEnMin= 2 EnMin= -191.539070599324     IErMin= 2 ErrMin= 1.04D-02
 ErrMax= 1.04D-02  0.00D+00 EMaxC= 1.00D-01 BMatC= 3.35D-02 BMatP= 2.59D-01
 IDIUse=3 WtCom= 8.96D-01 WtEn= 1.04D-01
 Coeff-Com: -0.165D+00 0.116D+01
 Coeff-En:   0.000D+00 0.100D+01
 Coeff:     -0.148D+00 0.115D+01
 Gap=     0.355 Goal=   None    Shift=    0.000
 RMSDP=5.64D-04 MaxDP=6.62D-02 DE=-7.16D-02 OVMax= 1.28D-01

 Cycle   3  Pass 0  IDiag  1:
 E= -191.601827157785     Delta-E=       -0.062756558461 Rises=F Damp=F
 DIIS: error= 8.78D-03 at cycle   3 NSaved=   3.
 NSaved= 3 IEnMin= 3 EnMin= -191.601827157785     IErMin= 3 ErrMin= 8.78D-03
 ErrMax= 8.78D-03  0.00D+00 EMaxC= 1.00D-01 BMatC= 1.59D-02 BMatP= 3.35D-02
 IDIUse=3 WtCom= 9.12D-01 WtEn= 8.78D-02
 Coeff-Com: -0.188D+00 0.518D+00 0.670D+00
 Coeff-En:   0.000D+00 0.000D+00 0.100D+01
 Coeff:     -0.171D+00 0.473D+00 0.699D+00
 Gap=     0.335 Goal=   None    Shift=    0.000
 RMSDP=2.28D-04 MaxDP=1.60D-02 DE=-6.28D-02 OVMax= 4.33D-02

 Cycle   4  Pass 0  IDiag  1:
 E= -191.610411360252     Delta-E=       -0.008584202466 Rises=F Damp=F
 DIIS: error= 3.83D-03 at cycle   4 NSaved=   4.
 NSaved= 4 IEnMin= 4 EnMin= -191.610411360252     IErMin= 4 ErrMin= 3.83D-03
 ErrMax= 3.83D-03  0.00D+00 EMaxC= 1.00D-01 BMatC= 3.02D-03 BMatP= 1.59D-02
 IDIUse=3 WtCom= 9.62D-01 WtEn= 3.83D-02
 Coeff-Com: -0.608D-01 0.101D+00 0.367D+00 0.593D+00
 Coeff-En:   0.000D+00 0.000D+00 0.174D+00 0.826D+00
 Coeff:     -0.585D-01 0.969D-01 0.360D+00 0.602D+00
 Gap=     0.324 Goal=   None    Shift=    0.000
 RMSDP=9.42D-05 MaxDP=7.31D-03 DE=-8.58D-03 OVMax= 1.43D-02

 Cycle   5  Pass 0  IDiag  1:
 E= -191.612848114346     Delta-E=       -0.002436754095 Rises=F Damp=F
 DIIS: error= 2.95D-04 at cycle   5 NSaved=   5.
 NSaved= 5 IEnMin= 5 EnMin= -191.612848114346     IErMin= 5 ErrMin= 2.95D-04
 ErrMax= 2.95D-04  0.00D+00 EMaxC= 1.00D-01 BMatC= 1.26D-05 BMatP= 3.02D-03
 IDIUse=3 WtCom= 9.97D-01 WtEn= 2.95D-03
 Coeff-Com: -0.103D-01 0.140D-01 0.690D-01 0.144D+00 0.784D+00
 Coeff-En:   0.000D+00 0.000D+00 0.000D+00 0.000D+00 0.100D+01
 Coeff:     -0.102D-01 0.139D-01 0.688D-01 0.143D+00 0.784D+00
 Gap=     0.323 Goal=   None    Shift=    0.000
 RMSDP=7.62D-06 MaxDP=3.79D-04 DE=-2.44D-03 OVMax= 2.19D-03

 Initial convergence to 1.0D-05 achieved.  Increase integral accuracy.
 Cycle   6  Pass 1  IDiag  1:
 E= -191.612851798808     Delta-E=       -0.000003684461 Rises=F Damp=F
 DIIS: error= 1.07D-04 at cycle   1 NSaved=   1.
 NSaved= 1 IEnMin= 1 EnMin= -191.612851798808     IErMin= 1 ErrMin= 1.07D-04
 ErrMax= 1.07D-04  0.00D+00 EMaxC= 1.00D-01 BMatC= 1.75D-06 BMatP= 1.75D-06
 IDIUse=3 WtCom= 9.99D-01 WtEn= 1.07D-03
 Coeff-Com:  0.100D+01
 Coeff-En:   0.100D+01
 Coeff:      0.100D+01
 Gap=     0.323 Goal=   None    Shift=    0.000
 RMSDP=7.62D-06 MaxDP=3.79D-04 DE=-3.68D-06 OVMax= 7.34D-04

 Cycle   7  Pass 1  IDiag  1:
 E= -191.612852897918     Delta-E=       -0.000001099110 Rises=F Damp=F
 DIIS: error= 8.26D-05 at cycle   2 NSaved=   2.
 NSaved= 2 IEnMin= 2 EnMin= -191.612852897918     IErMin= 2 ErrMin= 8.26D-05
 ErrMax= 8.26D-05  0.00D+00 EMaxC= 1.00D-01 BMatC= 1.11D-06 BMatP= 1.75D-06
 IDIUse=1 WtCom= 1.00D+00 WtEn= 0.00D+00
 Coeff-Com:  0.438D+00 0.562D+00
 Coeff:      0.438D+00 0.562D+00
 Gap=     0.323 Goal=   None    Shift=    0.000
 RMSDP=1.92D-06 MaxDP=1.41D-04 DE=-1.10D-06 OVMax= 5.57D-04

 Cycle   8  Pass 1  IDiag  1:
 E= -191.612853955527     Delta-E=       -0.000001057609 Rises=F Damp=F
 DIIS: error= 1.47D-05 at cycle   3 NSaved=   3.
 NSaved= 3 IEnMin= 3 EnMin= -191.612853955527     IErMin= 3 ErrMin= 1.47D-05
 ErrMax= 1.47D-05  0.00D+00 EMaxC= 1.00D-01 BMatC= 7.03D-08 BMatP= 1.11D-06
 IDIUse=1 WtCom= 1.00D+00 WtEn= 0.00D+00
 Coeff-Com:  0.571D-01 0.180D+00 0.763D+00
 Coeff:      0.571D-01 0.180D+00 0.763D+00
 Gap=     0.323 Goal=   None    Shift=    0.000
 RMSDP=1.34D-06 MaxDP=1.50D-04 DE=-1.06D-06 OVMax= 1.08D-04

 Cycle   9  Pass 1  IDiag  1:
 E= -191.612854027574     Delta-E=       -0.000000072047 Rises=F Damp=F
 DIIS: error= 1.25D-05 at cycle   4 NSaved=   4.
 NSaved= 4 IEnMin= 4 EnMin= -191.612854027574     IErMin= 4 ErrMin= 1.25D-05
 ErrMax= 1.25D-05  0.00D+00 EMaxC= 1.00D-01 BMatC= 1.50D-08 BMatP= 7.03D-08
 IDIUse=1 WtCom= 1.00D+00 WtEn= 0.00D+00
 Coeff-Com: -0.102D+00-0.681D-01 0.348D+00 0.822D+00
 Coeff:     -0.102D+00-0.681D-01 0.348D+00 0.822D+00
 Gap=     0.323 Goal=   None    Shift=    0.000
 RMSDP=6.46D-07 MaxDP=6.71D-05 DE=-7.20D-08 OVMax= 9.50D-05

 Cycle  10  Pass 1  IDiag  1:
 E= -191.612854051037     Delta-E=       -0.000000023463 Rises=F Damp=F
 DIIS: error= 3.20D-06 at cycle   5 NSaved=   5.
 NSaved= 5 IEnMin= 5 EnMin= -191.612854051037     IErMin= 5 ErrMin= 3.20D-06
 ErrMax= 3.20D-06  0.00D+00 EMaxC= 1.00D-01 BMatC= 2.65D-09 BMatP= 1.50D-08
 IDIUse=1 WtCom= 1.00D+00 WtEn= 0.00D+00
 Coeff-Com: -0.512D-01-0.434D-01 0.886D-01 0.413D+00 0.593D+00
 Coeff:     -0.512D-01-0.434D-01 0.886D-01 0.413D+00 0.593D+00
 Gap=     0.323 Goal=   None    Shift=    0.000
 RMSDP=1.66D-07 MaxDP=1.76D-05 DE=-2.35D-08 OVMax= 1.79D-05

 Cycle  11  Pass 1  IDiag  1:
 E= -191.612854053081     Delta-E=       -0.000000002043 Rises=F Damp=F
 DIIS: error= 1.02D-06 at cycle   6 NSaved=   6.
 NSaved= 6 IEnMin= 6 EnMin= -191.612854053081     IErMin= 6 ErrMin= 1.02D-06
 ErrMax= 1.02D-06  0.00D+00 EMaxC= 1.00D-01 BMatC= 1.99D-10 BMatP= 2.65D-09
 IDIUse=1 WtCom= 1.00D+00 WtEn= 0.00D+00
 Coeff-Com:  0.699D-02 0.210D-02-0.628D-01-0.138D-01 0.166D+00 0.902D+00
 Coeff:      0.699D-02 0.210D-02-0.628D-01-0.138D-01 0.166D+00 0.902D+00
 Gap=     0.323 Goal=   None    Shift=    0.000
 RMSDP=5.81D-08 MaxDP=5.85D-06 DE=-2.04D-09 OVMax= 8.03D-06

 Cycle  12  Pass 1  IDiag  1:
 E= -191.612854053347     Delta-E=       -0.000000000266 Rises=F Damp=F
 DIIS: error= 2.37D-07 at cycle   7 NSaved=   7.
 NSaved= 7 IEnMin= 7 EnMin= -191.612854053347     IErMin= 7 ErrMin= 2.37D-07
 ErrMax= 2.37D-07  0.00D+00 EMaxC= 1.00D-01 BMatC= 1.79D-11 BMatP= 1.99D-10
 IDIUse=1 WtCom= 1.00D+00 WtEn= 0.00D+00
 Coeff-Com:  0.600D-02 0.386D-02-0.307D-01-0.287D-01 0.952D-02 0.309D+00
 Coeff-Com:  0.731D+00
 Coeff:      0.600D-02 0.386D-02-0.307D-01-0.287D-01 0.952D-02 0.309D+00
 Coeff:      0.731D+00
 Gap=     0.323 Goal=   None    Shift=    0.000
 RMSDP=1.11D-08 MaxDP=4.78D-07 DE=-2.66D-10 OVMax= 2.76D-06

 Cycle  13  Pass 1  IDiag  1:
 E= -191.612854053370     Delta-E=       -0.000000000023 Rises=F Damp=F
 DIIS: error= 5.72D-08 at cycle   8 NSaved=   8.
 NSaved= 8 IEnMin= 8 EnMin= -191.612854053370     IErMin= 8 ErrMin= 5.72D-08
 ErrMax= 5.72D-08  0.00D+00 EMaxC= 1.00D-01 BMatC= 1.28D-12 BMatP= 1.79D-11
 IDIUse=1 WtCom= 1.00D+00 WtEn= 0.00D+00
 Coeff-Com: -0.111D-02-0.324D-03 0.895D-02 0.443D-02-0.239D-01-0.142D+00
 Coeff-Com:  0.198D-01 0.113D+01
 Coeff:     -0.111D-02-0.324D-03 0.895D-02 0.443D-02-0.239D-01-0.142D+00
 Coeff:      0.198D-01 0.113D+01
 Gap=     0.323 Goal=   None    Shift=    0.000
 RMSDP=6.46D-09 MaxDP=2.73D-07 DE=-2.34D-11 OVMax= 2.31D-06

 SCF Done:  E(RB2PLYPD3) =  -191.612854053     A.U. after   13 cycles
            NFock= 13  Conv=0.65D-08     -V/T= 2.0030
 KE= 1.910398244433D+02 PE=-6.555557600856D+02 EE= 1.691728665979D+02
 Leave Link  502 at Wed Aug 26 09:39:33 2020, MaxMem=  2097152000 cpu:       245.0
 (Enter /opt/cluster/programs/g09/g09_d.01/g09/l801.exe)
 DoSCS=T DFT=T ScalE2(SS,OS)=  0.270000  0.270000
 ExpMin= 7.60D-02 ExpMax= 1.17D+05 ExpMxC= 1.13D+03 IAcc=3 IRadAn=         5 AccDes= 0.00D+00
 HarFok:  IExCor=  205 AccDes= 0.00D+00 IRadAn=         5 IDoV=-2 UseB2=F ITyADJ=14
 ICtDFT= 12500011 ScaDFX=  1.000000  1.000000  1.000000  1.000000
 Largest valence mixing into a core orbital is  1.14D-04
 Largest core mixing into a valence orbital is  1.85D-05
 Range of M.O.s used for correlation:     5   348
 NBasis=   348 NAE=    15 NBE=    15 NFC=     4 NFV=     0
 NROrb=    344 NOA=    11 NOB=    11 NVA=   333 NVB=   333

 **** Warning!!: The largest alpha MO coefficient is  0.30805347D+02

 Leave Link  801 at Wed Aug 26 09:39:33 2020, MaxMem=  2097152000 cpu:         0.8
 (Enter /opt/cluster/programs/g09/g09_d.01/g09/l906.exe)
 DoSCS=T DFT=T ScalE2(SS,OS)=  0.270000  0.270000
 FulOut=F Deriv=F AODrv=F NAtomX=     8
   MMem=        1190  MDisk=          11 MDiskD=          11
  W3Min=     1567764 MinDsk=     2827057 NBas6D=         428
 NBas2D=       93150    NTT=       91806    LW2=     4508827
    MDV=  2096570588 MDiskM=       10875 NBas2p=       89475
 Fully direct method using O(OVN) memory.
 IMap=   1   2   3   4   5   6   7   8   9  10  11
 JobTyp=1 Pass  1:  I=   1 to  11 NPSUse=  8 ParTrn=T ParDer=T DoDerP=F.
 Spin components of T(2) and E(2):
     alpha-alpha T2 =       0.4351861133D-01 E2=     -0.2945912456D-01
     alpha-beta  T2 =       0.2648749974D+00 E2=     -0.1879820458D+00
     beta-beta   T2 =       0.4351861133D-01 E2=     -0.2945912456D-01
 The integrals were generated   1 times.
 E2(B2PLYPD3) =    -0.2469002949D+00 E(B2PLYPD3) =    -0.19185975434825D+03
 Leave Link  906 at Wed Aug 26 09:40:23 2020, MaxMem=  2097152000 cpu:       394.6
 (Enter /opt/cluster/programs/g09/g09_d.01/g09/l601.exe)
 Copying SCF densities to generalized density rwf, IOpCl= 0 IROHF=0.

 **********************************************************************

            Population analysis using the SCF density.

 **********************************************************************

 Orbital symmetries:
       Occupied  (A) (A) (A) (A) (A) (A) (A) (A) (A) (A) (A) (A)
                 (A) (A) (A)
       Virtual   (A) (A) (A) (A) (A) (A) (A) (A) (A) (A) (A) (A)
                 (A) (A) (A) (A) (A) (A) (A) (A) (A) (A) (A) (A)
                 (A) (A) (A) (A) (A) (A) (A) (A) (A) (A) (A) (A)
                 (A) (A) (A) (A) (A) (A) (A) (A) (A) (A) (A) (A)
                 (A) (A) (A) (A) (A) (A) (A) (A) (A) (A) (A) (A)
                 (A) (A) (A) (A) (A) (A) (A) (A) (A) (A) (A) (A)
                 (A) (A) (A) (A) (A) (A) (A) (A) (A) (A) (A) (A)
                 (A) (A) (A) (A) (A) (A) (A) (A) (A) (A) (A) (A)
                 (A) (A) (A) (A) (A) (A) (A) (A) (A) (A) (A) (A)
                 (A) (A) (A) (A) (A) (A) (A) (A) (A) (A) (A) (A)
                 (A) (A) (A) (A) (A) (A) (A) (A) (A) (A) (A) (A)
                 (A) (A) (A) (A) (A) (A) (A) (A) (A) (A) (A) (A)
                 (A) (A) (A) (A) (A) (A) (A) (A) (A) (A) (A) (A)
                 (A) (A) (A) (A) (A) (A) (A) (A) (A) (A) (A) (A)
                 (A) (A) (A) (A) (A) (A) (A) (A) (A) (A) (A) (A)
                 (A) (A) (A) (A) (A) (A) (A) (A) (A) (A) (A) (A)
                 (A) (A) (A) (A) (A) (A) (A) (A) (A) (A) (A) (A)
                 (A) (A) (A) (A) (A) (A) (A) (A) (A) (A) (A) (A)
                 (A) (A) (A) (A) (A) (A) (A) (A) (A) (A) (A) (A)
                 (A) (A) (A) (A) (A) (A) (A) (A) (A) (A) (A) (A)
                 (A) (A) (A) (A) (A) (A) (A) (A) (A) (A) (A) (A)
                 (A) (A) (A) (A) (A) (A) (A) (A) (A) (A) (A) (A)
                 (A) (A) (A) (A) (A) (A) (A) (A) (A) (A) (A) (A)
                 (A) (A) (A) (A) (A) (A) (A) (A) (A) (A) (A) (A)
                 (A) (A) (A) (A) (A) (A) (A) (A) (A) (A) (A) (A)
                 (A) (A) (A) (A) (A) (A) (A) (A) (A) (A) (A) (A)
                 (A) (A) (A) (A) (A) (A) (A) (A) (A) (A) (A) (A)
                 (A) (A) (A) (A) (A) (A) (A) (A) (A)
 The electronic state is 1-A.
 Alpha  occ. eigenvalues --  -19.72893 -10.71407 -10.64867 -10.64379  -1.19542
 Alpha  occ. eigenvalues --   -0.93410  -0.75601  -0.66908  -0.56693  -0.56513
 Alpha  occ. eigenvalues --   -0.50894  -0.46852  -0.46098  -0.34918  -0.33946
 Alpha virt. eigenvalues --   -0.01613   0.05821   0.07042   0.08213   0.09855
 Alpha virt. eigenvalues --    0.12606   0.14053   0.15374   0.17118   0.19718
 Alpha virt. eigenvalues --    0.20047   0.21781   0.25606   0.26662   0.28987
 Alpha virt. eigenvalues --    0.31738   0.33807   0.34875   0.37675   0.38750
 Alpha virt. eigenvalues --    0.39258   0.41226   0.42546   0.44902   0.45891
 Alpha virt. eigenvalues --    0.47671   0.49159   0.54488   0.54693   0.57123
 Alpha virt. eigenvalues --    0.58870   0.64161   0.65871   0.67018   0.71325
 Alpha virt. eigenvalues --    0.74918   0.76269   0.78333   0.80391   0.80980
 Alpha virt. eigenvalues --    0.81789   0.82287   0.82853   0.84321   0.87050
 Alpha virt. eigenvalues --    0.89357   0.91552   0.92372   0.94425   0.96208
 Alpha virt. eigenvalues --    0.96994   0.97556   1.00222   1.03050   1.07910
 Alpha virt. eigenvalues --    1.09876   1.12700   1.15407   1.17734   1.17999
 Alpha virt. eigenvalues --    1.19568   1.25445   1.28564   1.34193   1.38973
 Alpha virt. eigenvalues --    1.43668   1.47338   1.49339   1.55113   1.55801
 Alpha virt. eigenvalues --    1.61454   1.63756   1.65198   1.66663   1.69410
 Alpha virt. eigenvalues --    1.73080   1.76277   1.77885   1.82091   1.83305
 Alpha virt. eigenvalues --    1.86466   1.91032   1.91136   1.92540   1.94087
 Alpha virt. eigenvalues --    1.96182   1.98355   2.00238   2.01696   2.03428
 Alpha virt. eigenvalues --    2.06425   2.10217   2.11113   2.14412   2.15248
 Alpha virt. eigenvalues --    2.17092   2.19412   2.21192   2.23489   2.26156
 Alpha virt. eigenvalues --    2.27518   2.35688   2.36611   2.39388   2.43493
 Alpha virt. eigenvalues --    2.45683   2.46990   2.49813   2.51829   2.54021
 Alpha virt. eigenvalues --    2.56135   2.57311   2.59810   2.62030   2.62914
 Alpha virt. eigenvalues --    2.64633   2.66569   2.67952   2.69295   2.74727
 Alpha virt. eigenvalues --    2.76105   2.78320   2.86370   2.87042   2.89568
 Alpha virt. eigenvalues --    2.90052   2.96206   2.99926   3.02279   3.08212
 Alpha virt. eigenvalues --    3.18487   3.18712   3.29424   3.30118   3.34894
 Alpha virt. eigenvalues --    3.36536   3.40259   3.41864   3.43804   3.50038
 Alpha virt. eigenvalues --    3.50958   3.54352   3.60158   3.63279   3.66335
 Alpha virt. eigenvalues --    3.67571   3.72638   3.77417   3.83104   3.90267
 Alpha virt. eigenvalues --    3.96138   3.99840   4.00259   4.03430   4.07707
 Alpha virt. eigenvalues --    4.12944   4.19792   4.21145   4.26383   4.33841
 Alpha virt. eigenvalues --    4.40325   4.41872   4.55060   4.61249   4.63135
 Alpha virt. eigenvalues --    4.66982   4.82099   4.88783   4.91936   4.99382
 Alpha virt. eigenvalues --    5.04667   5.06892   5.09855   5.10655   5.13965
 Alpha virt. eigenvalues --    5.20934   5.26965   5.30514   5.35472   5.44058
 Alpha virt. eigenvalues --    5.44337   5.53596   5.55841   5.57825   5.60341
 Alpha virt. eigenvalues --    5.64910   5.69400   5.72300   5.72601   5.77185
 Alpha virt. eigenvalues --    5.79871   5.84001   5.86616   5.92902   5.94547
 Alpha virt. eigenvalues --    5.97910   5.98967   6.01599   6.06293   6.06695
 Alpha virt. eigenvalues --    6.07718   6.14063   6.15995   6.18548   6.19490
 Alpha virt. eigenvalues --    6.21413   6.22186   6.24778   6.28122   6.29237
 Alpha virt. eigenvalues --    6.33603   6.36704   6.39305   6.42654   6.46328
 Alpha virt. eigenvalues --    6.47075   6.52336   6.53523   6.58669   6.59704
 Alpha virt. eigenvalues --    6.65191   6.72617   6.74517   6.76604   6.81907
 Alpha virt. eigenvalues --    6.84096   6.86279   6.96392   7.00614   7.03723
 Alpha virt. eigenvalues --    7.06032   7.10001   7.13500   7.17503   7.20983
 Alpha virt. eigenvalues --    7.33056   7.40054   7.46093   7.50568   7.51979
 Alpha virt. eigenvalues --    7.56672   7.57738   7.59034   7.65030   7.67471
 Alpha virt. eigenvalues --    7.69188   7.70491   7.74546   7.76343   7.78474
 Alpha virt. eigenvalues --    7.83450   7.85357   7.93291   8.01563   8.03730
 Alpha virt. eigenvalues --    8.05871   8.10844   8.14743   8.14885   8.20575
 Alpha virt. eigenvalues --    8.23462   8.27466   8.28532   8.31761   8.36189
 Alpha virt. eigenvalues --    8.38243   8.44150   8.47794   8.55534   8.57291
 Alpha virt. eigenvalues --    8.58667   8.59363   8.62637   8.65137   8.71132
 Alpha virt. eigenvalues --    8.83903   8.91163   8.97885   9.00789   9.08317
 Alpha virt. eigenvalues --    9.09066   9.10660   9.16972   9.30978   9.33504
 Alpha virt. eigenvalues --    9.35714   9.39062   9.54034   9.65253   9.68394
 Alpha virt. eigenvalues --    9.81674   9.88176   9.93859   9.95422   9.98239
 Alpha virt. eigenvalues --   10.07247  10.10498  10.20999  10.24017  10.25007
 Alpha virt. eigenvalues --   10.29866  10.41708  10.53035  10.82788  11.00484
 Alpha virt. eigenvalues --   11.07118  11.25202  11.27713  11.31502  11.50441
 Alpha virt. eigenvalues --   11.66587  11.76045  11.83157  12.04400  12.08819
 Alpha virt. eigenvalues --   12.32617  12.37172  12.51609  12.59635  12.82617
 Alpha virt. eigenvalues --   13.19559  13.37217  13.81785  14.36335  14.71691
 Alpha virt. eigenvalues --   28.58354  28.91699  29.57360  48.65972 148.16786
 Alpha virt. eigenvalues --  148.47835 149.18587 254.42128
          Condensed to atoms (all electrons):
               1          2          3          4          5          6
     1  C    4.491727   0.623435   0.384114  -0.056000  -0.032729  -0.005718
     2  O    0.623435   7.881631  -0.096898   0.007482   0.006552   0.000488
     3  C    0.384114  -0.096898   5.159557   0.472512   0.370193  -0.061869
     4  C   -0.056000   0.007482   0.472512   4.878000  -0.038810   0.430210
     5  H   -0.032729   0.006552   0.370193  -0.038810   0.587171   0.006129
     6  H   -0.005718   0.000488  -0.061869   0.430210   0.006129   0.582003
     7  H    0.002657  -0.000601  -0.029923   0.418045  -0.005610  -0.040026
     8  H    0.436482  -0.072516  -0.166147   0.022682   0.009119   0.007936
               7          8
     1  C    0.002657   0.436482
     2  O   -0.000601  -0.072516
     3  C   -0.029923  -0.166147
     4  C    0.418045   0.022682
     5  H   -0.005610   0.009119
     6  H   -0.040026   0.007936
     7  H    0.549948  -0.001029
     8  H   -0.001029   0.689648
 Mulliken charges:
               1
     1  C    0.156032
     2  O   -0.349573
     3  C   -0.031537
     4  C   -0.134120
     5  H    0.097986
     6  H    0.080848
     7  H    0.106540
     8  H    0.073825
 Sum of Mulliken charges =   0.00000
 Mulliken charges with hydrogens summed into heavy atoms:
               1
     1  C    0.229857
     2  O   -0.349573
     3  C    0.066449
     4  C    0.053268
 Electronic spatial extent (au):  <R**2>=            295.0272
 Charge=              0.0000 electrons
 Dipole moment (field-independent basis, Debye):
    X=             -3.4096    Y=              0.8396    Z=              0.1175  Tot=              3.5135
 Quadrupole moment (field-independent basis, Debye-Ang):
   XX=            -27.4452   YY=            -21.7946   ZZ=            -25.1307
   XY=              1.0038   XZ=             -0.0939   YZ=             -0.1487
 Traceless Quadrupole moment (field-independent basis, Debye-Ang):
   XX=             -2.6550   YY=              2.9956   ZZ=             -0.3405
   XY=              1.0038   XZ=             -0.0939   YZ=             -0.1487
 Octapole moment (field-independent basis, Debye-Ang**2):
  XXX=            -14.8980  YYY=              0.1710  ZZZ=              0.0850  XYY=              0.5605
  XXY=              0.4400  XXZ=              0.7141  XZZ=              4.2120  YZZ=              0.3022
  YYZ=             -0.0466  XYZ=              0.3166
 Hexadecapole moment (field-independent basis, Debye-Ang**3):
 XXXX=           -297.3639 YYYY=            -55.4208 ZZZZ=            -27.2255 XXXY=              3.8337
 XXXZ=             -2.2539 YYYX=             -0.3486 YYYZ=             -0.3063 ZZZX=             -0.3325
 ZZZY=             -0.1105 XXYY=            -58.3441 XXZZ=            -56.3553 YYZZ=            -15.4880
 XXYZ=             -0.7897 YYXZ=              0.0363 ZZXY=             -0.4244
 N-N= 1.037302149910D+02 E-N=-6.555557672511D+02  KE= 1.910398244433D+02
 Leave Link  601 at Wed Aug 26 09:40:23 2020, MaxMem=  2097152000 cpu:         0.5
 (Enter /opt/cluster/programs/g09/g09_d.01/g09/l9999.exe)
 1\1\GINC-NODE31\SP\RB2PLYPD3-FC\def2QZVP\C3H4O1\BOITTIER\26-Aug-2020\0
 \\#p B2PLYPD3/Def2QZVP\\acrolein\\0,1\C,0,-5.016262,-1.371649,0.920828
 \O,0,-3.94563,-0.876405,0.644475\C,0,-5.199267,-2.810838,1.143765\C,0,
 -6.385313,-3.322435,1.386701\H,0,-4.240822,-3.418604,1.129508\H,0,-7.2
 07564,-2.664885,1.332734\H,0,-6.54743,-4.353462,1.699492\H,0,-5.934034
 ,-0.800392,0.972911\\Version=ES64L-G09RevD.01\State=1-A\HF=-191.612854
 1\MP2=-191.8597543\RMSD=6.465e-09\PG=C01 [X(C3H4O1)]\\@


 WE TEND TO MEET ANY NEW SITUATION BY REORGANIZING. IT CAN BE A
 WONDERFUL METHOD FOR CREATING THE ILLUSION OF PROGRESS WHILE PRODUCING
 CONFUSION, INEFFICIENCY, AND DEMORALIZATION.
     -- PETRONIUS ARBITER, 210 B.C.
 Job cpu time:       0 days  0 hours 10 minutes 51.4 seconds.
 File lengths (MBytes):  RWF=     49 Int=      0 D2E=      0 Chk=      7 Scr=      1
 Normal termination of Gaussian 09 at Wed Aug 26 09:40:23 2020.
