 Entering Gaussian System, Link 0=/opt/cluster/programs/g09/g09_d.01/g09//g09
 Input=/home/boittier/MDCM/nms_sampling/acrolein_geom.xyz.dir/energies/acrolein_516_energy.com
 Output=/scratch/boittier/acrolein_516_energy/acrolein_516_energy.out
 Initial command:
 /opt/cluster/programs/g09/g09_d.01/g09/l1.exe "/scratch/boittier/acrolein_516_energy/Gau-55548.inp" -scrdir="/scratch/boittier/acrolein_516_energy/"
 Entering Link 1 = /opt/cluster/programs/g09/g09_d.01/g09/l1.exe PID=     55556.
  
 Copyright (c) 1988,1990,1992,1993,1995,1998,2003,2009,2013,
            Gaussian, Inc.  All Rights Reserved.
  
 This is part of the Gaussian(R) 09 program.  It is based on
 the Gaussian(R) 03 system (copyright 2003, Gaussian, Inc.),
 the Gaussian(R) 98 system (copyright 1998, Gaussian, Inc.),
 the Gaussian(R) 94 system (copyright 1995, Gaussian, Inc.),
 the Gaussian 92(TM) system (copyright 1992, Gaussian, Inc.),
 the Gaussian 90(TM) system (copyright 1990, Gaussian, Inc.),
 the Gaussian 88(TM) system (copyright 1988, Gaussian, Inc.),
 the Gaussian 86(TM) system (copyright 1986, Carnegie Mellon
 University), and the Gaussian 82(TM) system (copyright 1983,
 Carnegie Mellon University). Gaussian is a federally registered
 trademark of Gaussian, Inc.
  
 This software contains proprietary and confidential information,
 including trade secrets, belonging to Gaussian, Inc.
  
 This software is provided under written license and may be
 used, copied, transmitted, or stored only in accord with that
 written license.
  
 The following legend is applicable only to US Government
 contracts under FAR:
  
                    RESTRICTED RIGHTS LEGEND
  
 Use, reproduction and disclosure by the US Government is
 subject to restrictions as set forth in subparagraphs (a)
 and (c) of the Commercial Computer Software - Restricted
 Rights clause in FAR 52.227-19.
  
 Gaussian, Inc.
 340 Quinnipiac St., Bldg. 40, Wallingford CT 06492
  
  
 ---------------------------------------------------------------
 Warning -- This program may not be used in any manner that
 competes with the business of Gaussian, Inc. or will provide
 assistance to any competitor of Gaussian, Inc.  The licensee
 of this program is prohibited from giving any competitor of
 Gaussian, Inc. access to this program.  By using this program,
 the user acknowledges that Gaussian, Inc. is engaged in the
 business of creating and licensing software in the field of
 computational chemistry and represents and warrants to the
 licensee that it is not a competitor of Gaussian, Inc. and that
 it will not use this program in any manner prohibited above.
 ---------------------------------------------------------------
  

 Cite this work as:
 Gaussian 09, Revision D.01,
 M. J. Frisch, G. W. Trucks, H. B. Schlegel, G. E. Scuseria, 
 M. A. Robb, J. R. Cheeseman, G. Scalmani, V. Barone, B. Mennucci, 
 G. A. Petersson, H. Nakatsuji, M. Caricato, X. Li, H. P. Hratchian, 
 A. F. Izmaylov, J. Bloino, G. Zheng, J. L. Sonnenberg, M. Hada, 
 M. Ehara, K. Toyota, R. Fukuda, J. Hasegawa, M. Ishida, T. Nakajima, 
 Y. Honda, O. Kitao, H. Nakai, T. Vreven, J. A. Montgomery, Jr., 
 J. E. Peralta, F. Ogliaro, M. Bearpark, J. J. Heyd, E. Brothers, 
 K. N. Kudin, V. N. Staroverov, T. Keith, R. Kobayashi, J. Normand, 
 K. Raghavachari, A. Rendell, J. C. Burant, S. S. Iyengar, J. Tomasi, 
 M. Cossi, N. Rega, J. M. Millam, M. Klene, J. E. Knox, J. B. Cross, 
 V. Bakken, C. Adamo, J. Jaramillo, R. Gomperts, R. E. Stratmann, 
 O. Yazyev, A. J. Austin, R. Cammi, C. Pomelli, J. W. Ochterski, 
 R. L. Martin, K. Morokuma, V. G. Zakrzewski, G. A. Voth, 
 P. Salvador, J. J. Dannenberg, S. Dapprich, A. D. Daniels, 
 O. Farkas, J. B. Foresman, J. V. Ortiz, J. Cioslowski, 
 and D. J. Fox, Gaussian, Inc., Wallingford CT, 2013.
 
 ******************************************
 Gaussian 09:  ES64L-G09RevD.01 24-Apr-2013
                26-Aug-2020 
 ******************************************
 %chk=/home/boittier/MDCM/nms_sampling/acrolein_geom.xyz.dir/acrolein_516.chk
 %nproc=8
 Will use up to    8 processors via shared memory.
 %mem=16000MB
 --------------------
 #p B2PLYPD3/Def2QZVP
 --------------------
 1/38=1/1;
 2/12=2,17=6,18=5,40=1/2;
 3/5=45,7=101,11=9,16=1,25=1,30=1,74=-60/1,2,3;
 4//1;
 5/5=2,38=5/2;
 8/10=1/1;
 9/16=-3/6;
 6/7=2,8=2,9=2,10=2/1;
 99/5=1,9=1/99;
 Leave Link    1 at Wed Aug 26 16:12:21 2020, MaxMem=  2097152000 cpu:         0.2
 (Enter /opt/cluster/programs/g09/g09_d.01/g09/l101.exe)
 --------
 acrolein
 --------
 Symbolic Z-matrix:
 Charge =  0 Multiplicity = 1
 C                    -5.00075  -1.40205   0.89723 
 O                    -3.9396   -0.85495   0.66184 
 C                    -5.19037  -2.82874   1.13243 
 C                    -6.41086  -3.30151   1.39992 
 H                    -4.2585   -3.47295   1.12164 
 H                    -7.29085  -2.64692   1.42617 
 H                    -6.56326  -4.35028   1.66245 
 H                    -5.91719  -0.78369   0.90481 
 
 NAtoms=      8 NQM=        8 NQMF=       0 NMMI=      0 NMMIF=      0
                NMic=       0 NMicF=      0.
                    Isotopes and Nuclear Properties:
 (Nuclear quadrupole moments (NQMom) in fm**2, nuclear magnetic moments (NMagM)
  in nuclear magnetons)

  Atom         1           2           3           4           5           6           7           8
 IAtWgt=          12          16          12          12           1           1           1           1
 AtmWgt=  12.0000000  15.9949146  12.0000000  12.0000000   1.0078250   1.0078250   1.0078250   1.0078250
 NucSpn=           0           0           0           0           1           1           1           1
 AtZEff=   0.0000000   0.0000000   0.0000000   0.0000000   0.0000000   0.0000000   0.0000000   0.0000000
 NQMom=    0.0000000   0.0000000   0.0000000   0.0000000   0.0000000   0.0000000   0.0000000   0.0000000
 NMagM=    0.0000000   0.0000000   0.0000000   0.0000000   2.7928460   2.7928460   2.7928460   2.7928460
 AtZNuc=   6.0000000   8.0000000   6.0000000   6.0000000   1.0000000   1.0000000   1.0000000   1.0000000
 Leave Link  101 at Wed Aug 26 16:12:21 2020, MaxMem=  2097152000 cpu:         0.5
 (Enter /opt/cluster/programs/g09/g09_d.01/g09/l202.exe)
                          Input orientation:                          
 ---------------------------------------------------------------------
 Center     Atomic      Atomic             Coordinates (Angstroms)
 Number     Number       Type             X           Y           Z
 ---------------------------------------------------------------------
      1          6           0       -5.000746   -1.402045    0.897232
      2          8           0       -3.939598   -0.854954    0.661842
      3          6           0       -5.190366   -2.828740    1.132433
      4          6           0       -6.410856   -3.301511    1.399922
      5          1           0       -4.258504   -3.472954    1.121640
      6          1           0       -7.290850   -2.646924    1.426171
      7          1           0       -6.563264   -4.350282    1.662453
      8          1           0       -5.917193   -0.783694    0.904808
 ---------------------------------------------------------------------
                    Distance matrix (angstroms):
                    1          2          3          4          5
     1  C    0.000000
     2  O    1.216862   0.000000
     3  C    1.458333   2.383633   0.000000
     4  C    2.418487   3.554929   1.335911   0.000000
     5  H    2.211322   2.677133   1.132914   2.177028   0.000000
     6  H    2.659714   3.876370   2.128702   1.097070   3.157560
     7  H    3.423321   4.483544   2.116804   1.091820   2.524698
     8  H    1.105572   1.993738   2.182270   2.613091   3.167078
                    6          7          8
     6  H    0.000000
     7  H    1.867254   0.000000
     8  H    2.372842   3.702970   0.000000
 Stoichiometry    C3H4O
 Framework group  C1[X(C3H4O)]
 Deg. of freedom    18
 Full point group                 C1      NOp   1
 Largest Abelian subgroup         C1      NOp   1
 Largest concise Abelian subgroup C1      NOp   1
                         Standard orientation:                         
 ---------------------------------------------------------------------
 Center     Atomic      Atomic             Coordinates (Angstroms)
 Number     Number       Type             X           Y           Z
 ---------------------------------------------------------------------
      1          6           0        0.660475    0.334786    0.002930
      2          8           0        1.794115   -0.107476    0.007104
      3          6           0       -0.563495   -0.457779   -0.018817
      4          6           0       -1.751206    0.153549   -0.002089
      5          1           0       -0.439198   -1.583716   -0.001184
      6          1           0       -1.837849    1.247173    0.004255
      7          1           0       -2.678175   -0.419098    0.067734
      8          1           0        0.527653    1.432116   -0.019783
 ---------------------------------------------------------------------
 Rotational constants (GHZ):     47.3729521      4.6748347      4.2556380
 Leave Link  202 at Wed Aug 26 16:12:21 2020, MaxMem=  2097152000 cpu:         0.0
 (Enter /opt/cluster/programs/g09/g09_d.01/g09/l301.exe)
 Standard basis: def2QZVP (5D, 7F)
 Ernie: Thresh=  0.10000D-02 Tol=  0.10000D-05 Strict=F.
 There are   428 symmetry adapted cartesian basis functions of A   symmetry.
 There are   348 symmetry adapted basis functions of A   symmetry.
   348 basis functions,   520 primitive gaussians,   428 cartesian basis functions
    15 alpha electrons       15 beta electrons
       nuclear repulsion energy       102.9636615482 Hartrees.
 IExCor=  419 DFT=T Ex+Corr=B2PLYPD3 ExCW=0 ScaHFX=  0.530000
 ScaDFX=  0.470000  0.470000  0.730000  0.730000 ScalE2=  0.270000  0.270000
 IRadAn=      0 IRanWt=     -1 IRanGd=            0 ICorTp=0 IEmpDi=141
 NAtoms=    8 NActive=    8 NUniq=    8 SFac= 1.00D+00 NAtFMM=   60 NAOKFM=F Big=F
 Integral buffers will be    131072 words long.
 Regular integral format.
 Two-electron integral symmetry is turned on.
 R6Disp:  Grimme-D3(BJ) Dispersion energy=       -0.0035807691 Hartrees.
 Nuclear repulsion after empirical dispersion term =      102.9600807791 Hartrees.
 Leave Link  301 at Wed Aug 26 16:12:21 2020, MaxMem=  2097152000 cpu:         0.5
 (Enter /opt/cluster/programs/g09/g09_d.01/g09/l302.exe)
 NPDir=0 NMtPBC=     1 NCelOv=     1 NCel=       1 NClECP=     1 NCelD=      1
         NCelK=      1 NCelE2=     1 NClLst=     1 CellRange=     0.0.
 One-electron integrals computed using PRISM.
   1 Symmetry operations used in ECPInt.
 ECPInt:  NShTT=    5886 NPrTT=   14376 LenC2=    5781 LenP2D=   12172.
 LDataN:  DoStor=T MaxTD1= 8 Len=  415
 NBasis=   348 RedAO= T EigKep=  6.02D-05  NBF=   348
 NBsUse=   348 1.00D-06 EigRej= -1.00D+00 NBFU=   348
 Precomputing XC quadrature grid using
 IXCGrd= 4 IRadAn=           0 IRanWt=          -1 IRanGd=           0 AccXCQ= 0.00D+00.
 Generated NRdTot=       0 NPtTot=           0 NUsed=           0 NTot=          32
 NSgBfM=   428   428   428   428   428 MxSgAt=     8 MxSgA2=     8.
 Leave Link  302 at Wed Aug 26 16:12:21 2020, MaxMem=  2097152000 cpu:         2.5
 (Enter /opt/cluster/programs/g09/g09_d.01/g09/l303.exe)
 DipDrv:  MaxL=1.
 Leave Link  303 at Wed Aug 26 16:12:21 2020, MaxMem=  2097152000 cpu:         0.3
 (Enter /opt/cluster/programs/g09/g09_d.01/g09/l401.exe)
 ExpMin= 7.60D-02 ExpMax= 1.17D+05 ExpMxC= 1.13D+03 IAcc=2 IRadAn=         4 AccDes= 0.00D+00
 Harris functional with IExCor=  419 and IRadAn=       4 diagonalized for initial guess.
 HarFok:  IExCor=  419 AccDes= 0.00D+00 IRadAn=         4 IDoV= 1 UseB2=F ITyADJ=14
 ICtDFT=  3500011 ScaDFX=  1.000000  1.000000  1.000000  1.000000
 FoFCou: FMM=F IPFlag=           0 FMFlag=      100000 FMFlg1=           0
         NFxFlg=           0 DoJE=T BraDBF=F KetDBF=T FulRan=T
         wScrn=  0.000000 ICntrl=     500 IOpCl=  0 I1Cent=   200000004 NGrid=           0
         NMat0=    1 NMatS0=      1 NMatT0=    0 NMatD0=    1 NMtDS0=    0 NMtDT0=    0
 Petite list used in FoFCou.
 Harris En= -192.040689798384    
 JPrj=0 DoOrth=F DoCkMO=F.
 Leave Link  401 at Wed Aug 26 16:12:22 2020, MaxMem=  2097152000 cpu:         6.0
 (Enter /opt/cluster/programs/g09/g09_d.01/g09/l502.exe)
 Closed shell SCF:
 Using DIIS extrapolation, IDIIS=  1040.
 Integral symmetry usage will be decided dynamically.
 Keep R1 ints in memory in canonical form, NReq=1883905047.
 IVT=      574566 IEndB=      574566 NGot=  2097152000 MDV=   252723534
 LenX=   252723534 LenY=   252539909
 Requested convergence on RMS density matrix=1.00D-08 within 128 cycles.
 Requested convergence on MAX density matrix=1.00D-06.
 Requested convergence on             energy=1.00D-06.
 No special actions if energy rises.
 FoFCou: FMM=F IPFlag=           0 FMFlag=           0 FMFlg1=           0
         NFxFlg=           0 DoJE=F BraDBF=F KetDBF=F FulRan=T
         wScrn=  0.000000 ICntrl=     600 IOpCl=  0 I1Cent=           0 NGrid=           0
         NMat0=    1 NMatS0=  60726 NMatT0=    0 NMatD0=    1 NMtDS0=    0 NMtDT0=    0
 Symmetry not used in FoFCou.
 Integral accuracy reduced to 1.0D-05 until final iterations.

 Cycle   1  Pass 0  IDiag  1:
 E= -191.475365091558    
 DIIS: error= 2.69D-02 at cycle   1 NSaved=   1.
 NSaved= 1 IEnMin= 1 EnMin= -191.475365091558     IErMin= 1 ErrMin= 2.69D-02
 ErrMax= 2.69D-02  0.00D+00 EMaxC= 1.00D-01 BMatC= 2.52D-01 BMatP= 2.52D-01
 IDIUse=3 WtCom= 7.31D-01 WtEn= 2.69D-01
 Coeff-Com:  0.100D+01
 Coeff-En:   0.100D+01
 Coeff:      0.100D+01
 Gap=     0.281 Goal=   None    Shift=    0.000
 GapD=    0.281 DampG=1.000 DampE=0.500 DampFc=0.5000 IDamp=-1.
 Damping current iteration by 5.00D-01
 RMSDP=1.85D-03 MaxDP=2.39D-01              OVMax= 1.75D-01

 Cycle   2  Pass 0  IDiag  1:
 E= -191.542239970713     Delta-E=       -0.066874879155 Rises=F Damp=T
 DIIS: error= 9.86D-03 at cycle   2 NSaved=   2.
 NSaved= 2 IEnMin= 2 EnMin= -191.542239970713     IErMin= 2 ErrMin= 9.86D-03
 ErrMax= 9.86D-03  0.00D+00 EMaxC= 1.00D-01 BMatC= 3.36D-02 BMatP= 2.52D-01
 IDIUse=3 WtCom= 9.01D-01 WtEn= 9.86D-02
 Coeff-Com: -0.146D+00 0.115D+01
 Coeff-En:   0.000D+00 0.100D+01
 Coeff:     -0.131D+00 0.113D+01
 Gap=     0.350 Goal=   None    Shift=    0.000
 RMSDP=6.35D-04 MaxDP=8.29D-02 DE=-6.69D-02 OVMax= 1.34D-01

 Cycle   3  Pass 0  IDiag  1:
 E= -191.601806025762     Delta-E=       -0.059566055050 Rises=F Damp=F
 DIIS: error= 1.16D-02 at cycle   3 NSaved=   3.
 NSaved= 3 IEnMin= 3 EnMin= -191.601806025762     IErMin= 2 ErrMin= 9.86D-03
 ErrMax= 1.16D-02  0.00D+00 EMaxC= 1.00D-01 BMatC= 1.75D-02 BMatP= 3.36D-02
 IDIUse=3 WtCom= 8.84D-01 WtEn= 1.16D-01
 Coeff-Com: -0.192D+00 0.525D+00 0.666D+00
 Coeff-En:   0.000D+00 0.000D+00 0.100D+01
 Coeff:     -0.169D+00 0.464D+00 0.705D+00
 Gap=     0.332 Goal=   None    Shift=    0.000
 RMSDP=2.50D-04 MaxDP=1.95D-02 DE=-5.96D-02 OVMax= 4.96D-02

 Cycle   4  Pass 0  IDiag  1:
 E= -191.611292935887     Delta-E=       -0.009486910125 Rises=F Damp=F
 DIIS: error= 5.12D-03 at cycle   4 NSaved=   4.
 NSaved= 4 IEnMin= 4 EnMin= -191.611292935887     IErMin= 4 ErrMin= 5.12D-03
 ErrMax= 5.12D-03  0.00D+00 EMaxC= 1.00D-01 BMatC= 3.38D-03 BMatP= 1.75D-02
 IDIUse=3 WtCom= 9.49D-01 WtEn= 5.12D-02
 Coeff-Com: -0.595D-01 0.971D-01 0.370D+00 0.592D+00
 Coeff-En:   0.000D+00 0.000D+00 0.181D+00 0.819D+00
 Coeff:     -0.564D-01 0.921D-01 0.360D+00 0.604D+00
 Gap=     0.318 Goal=   None    Shift=    0.000
 RMSDP=1.04D-04 MaxDP=8.85D-03 DE=-9.49D-03 OVMax= 1.53D-02

 Cycle   5  Pass 0  IDiag  1:
 E= -191.614020735921     Delta-E=       -0.002727800034 Rises=F Damp=F
 DIIS: error= 3.48D-04 at cycle   5 NSaved=   5.
 NSaved= 5 IEnMin= 5 EnMin= -191.614020735921     IErMin= 5 ErrMin= 3.48D-04
 ErrMax= 3.48D-04  0.00D+00 EMaxC= 1.00D-01 BMatC= 1.23D-05 BMatP= 3.38D-03
 IDIUse=3 WtCom= 9.97D-01 WtEn= 3.48D-03
 Coeff-Com: -0.662D-02 0.782D-02 0.482D-01 0.116D+00 0.834D+00
 Coeff-En:   0.000D+00 0.000D+00 0.000D+00 0.000D+00 0.100D+01
 Coeff:     -0.660D-02 0.779D-02 0.480D-01 0.116D+00 0.835D+00
 Gap=     0.317 Goal=   None    Shift=    0.000
 RMSDP=9.22D-06 MaxDP=7.30D-04 DE=-2.73D-03 OVMax= 2.36D-03

 Initial convergence to 1.0D-05 achieved.  Increase integral accuracy.
 Cycle   6  Pass 1  IDiag  1:
 E= -191.614023993509     Delta-E=       -0.000003257588 Rises=F Damp=F
 DIIS: error= 1.06D-04 at cycle   1 NSaved=   1.
 NSaved= 1 IEnMin= 1 EnMin= -191.614023993509     IErMin= 1 ErrMin= 1.06D-04
 ErrMax= 1.06D-04  0.00D+00 EMaxC= 1.00D-01 BMatC= 1.62D-06 BMatP= 1.62D-06
 IDIUse=3 WtCom= 9.99D-01 WtEn= 1.06D-03
 Coeff-Com:  0.100D+01
 Coeff-En:   0.100D+01
 Coeff:      0.100D+01
 Gap=     0.318 Goal=   None    Shift=    0.000
 RMSDP=9.22D-06 MaxDP=7.30D-04 DE=-3.26D-06 OVMax= 7.44D-04

 Cycle   7  Pass 1  IDiag  1:
 E= -191.614025215907     Delta-E=       -0.000001222398 Rises=F Damp=F
 DIIS: error= 7.32D-05 at cycle   2 NSaved=   2.
 NSaved= 2 IEnMin= 2 EnMin= -191.614025215907     IErMin= 2 ErrMin= 7.32D-05
 ErrMax= 7.32D-05  0.00D+00 EMaxC= 1.00D-01 BMatC= 9.19D-07 BMatP= 1.62D-06
 IDIUse=1 WtCom= 1.00D+00 WtEn= 0.00D+00
 Coeff-Com:  0.422D+00 0.578D+00
 Coeff:      0.422D+00 0.578D+00
 Gap=     0.318 Goal=   None    Shift=    0.000
 RMSDP=1.64D-06 MaxDP=9.93D-05 DE=-1.22D-06 OVMax= 4.57D-04

 Cycle   8  Pass 1  IDiag  1:
 E= -191.614026051355     Delta-E=       -0.000000835448 Rises=F Damp=F
 DIIS: error= 1.57D-05 at cycle   3 NSaved=   3.
 NSaved= 3 IEnMin= 3 EnMin= -191.614026051355     IErMin= 3 ErrMin= 1.57D-05
 ErrMax= 1.57D-05  0.00D+00 EMaxC= 1.00D-01 BMatC= 7.03D-08 BMatP= 9.19D-07
 IDIUse=1 WtCom= 1.00D+00 WtEn= 0.00D+00
 Coeff-Com:  0.664D-01 0.195D+00 0.738D+00
 Coeff:      0.664D-01 0.195D+00 0.738D+00
 Gap=     0.318 Goal=   None    Shift=    0.000
 RMSDP=1.42D-06 MaxDP=1.63D-04 DE=-8.35D-07 OVMax= 1.16D-04

 Cycle   9  Pass 1  IDiag  1:
 E= -191.614026115509     Delta-E=       -0.000000064154 Rises=F Damp=F
 DIIS: error= 1.82D-05 at cycle   4 NSaved=   4.
 NSaved= 4 IEnMin= 4 EnMin= -191.614026115509     IErMin= 3 ErrMin= 1.57D-05
 ErrMax= 1.82D-05  0.00D+00 EMaxC= 1.00D-01 BMatC= 1.92D-08 BMatP= 7.03D-08
 IDIUse=1 WtCom= 1.00D+00 WtEn= 0.00D+00
 Coeff-Com: -0.118D+00-0.920D-01 0.402D+00 0.808D+00
 Coeff:     -0.118D+00-0.920D-01 0.402D+00 0.808D+00
 Gap=     0.318 Goal=   None    Shift=    0.000
 RMSDP=7.33D-07 MaxDP=7.97D-05 DE=-6.42D-08 OVMax= 1.16D-04

 Cycle  10  Pass 1  IDiag  1:
 E= -191.614026144093     Delta-E=       -0.000000028584 Rises=F Damp=F
 DIIS: error= 1.79D-06 at cycle   5 NSaved=   5.
 NSaved= 5 IEnMin= 5 EnMin= -191.614026144093     IErMin= 5 ErrMin= 1.79D-06
 ErrMax= 1.79D-06  0.00D+00 EMaxC= 1.00D-01 BMatC= 1.13D-09 BMatP= 1.92D-08
 IDIUse=1 WtCom= 1.00D+00 WtEn= 0.00D+00
 Coeff-Com: -0.322D-01-0.320D-01 0.432D-01 0.257D+00 0.764D+00
 Coeff:     -0.322D-01-0.320D-01 0.432D-01 0.257D+00 0.764D+00
 Gap=     0.318 Goal=   None    Shift=    0.000
 RMSDP=1.31D-07 MaxDP=1.48D-05 DE=-2.86D-08 OVMax= 1.94D-05

 Cycle  11  Pass 1  IDiag  1:
 E= -191.614026145063     Delta-E=       -0.000000000970 Rises=F Damp=F
 DIIS: error= 8.40D-07 at cycle   6 NSaved=   6.
 NSaved= 6 IEnMin= 6 EnMin= -191.614026145063     IErMin= 6 ErrMin= 8.40D-07
 ErrMax= 8.40D-07  0.00D+00 EMaxC= 1.00D-01 BMatC= 1.89D-10 BMatP= 1.13D-09
 IDIUse=1 WtCom= 1.00D+00 WtEn= 0.00D+00
 Coeff-Com:  0.763D-02 0.278D-02-0.658D-01-0.152D-01 0.294D+00 0.776D+00
 Coeff:      0.763D-02 0.278D-02-0.658D-01-0.152D-01 0.294D+00 0.776D+00
 Gap=     0.318 Goal=   None    Shift=    0.000
 RMSDP=4.81D-08 MaxDP=5.24D-06 DE=-9.70D-10 OVMax= 4.24D-06

 Cycle  12  Pass 1  IDiag  1:
 E= -191.614026145256     Delta-E=       -0.000000000193 Rises=F Damp=F
 DIIS: error= 3.49D-07 at cycle   7 NSaved=   7.
 NSaved= 7 IEnMin= 7 EnMin= -191.614026145256     IErMin= 7 ErrMin= 3.49D-07
 ErrMax= 3.49D-07  0.00D+00 EMaxC= 1.00D-01 BMatC= 1.43D-11 BMatP= 1.89D-10
 IDIUse=1 WtCom= 1.00D+00 WtEn= 0.00D+00
 Coeff-Com:  0.562D-02 0.366D-02-0.318D-01-0.210D-01 0.619D-01 0.308D+00
 Coeff-Com:  0.674D+00
 Coeff:      0.562D-02 0.366D-02-0.318D-01-0.210D-01 0.619D-01 0.308D+00
 Coeff:      0.674D+00
 Gap=     0.318 Goal=   None    Shift=    0.000
 RMSDP=7.75D-09 MaxDP=3.77D-07 DE=-1.93D-10 OVMax= 2.22D-06

 SCF Done:  E(RB2PLYPD3) =  -191.614026145     A.U. after   12 cycles
            NFock= 12  Conv=0.78D-08     -V/T= 2.0039
 KE= 1.908691003544D+02 PE=-6.538880812257D+02 EE= 1.684448739469D+02
 Leave Link  502 at Wed Aug 26 16:13:22 2020, MaxMem=  2097152000 cpu:       251.1
 (Enter /opt/cluster/programs/g09/g09_d.01/g09/l801.exe)
 DoSCS=T DFT=T ScalE2(SS,OS)=  0.270000  0.270000
 ExpMin= 7.60D-02 ExpMax= 1.17D+05 ExpMxC= 1.13D+03 IAcc=3 IRadAn=         5 AccDes= 0.00D+00
 HarFok:  IExCor=  205 AccDes= 0.00D+00 IRadAn=         5 IDoV=-2 UseB2=F ITyADJ=14
 ICtDFT= 12500011 ScaDFX=  1.000000  1.000000  1.000000  1.000000
 Largest valence mixing into a core orbital is  1.15D-04
 Largest core mixing into a valence orbital is  1.93D-05
 Range of M.O.s used for correlation:     5   348
 NBasis=   348 NAE=    15 NBE=    15 NFC=     4 NFV=     0
 NROrb=    344 NOA=    11 NOB=    11 NVA=   333 NVB=   333

 **** Warning!!: The largest alpha MO coefficient is  0.31365424D+02

 Leave Link  801 at Wed Aug 26 16:13:22 2020, MaxMem=  2097152000 cpu:         0.7
 (Enter /opt/cluster/programs/g09/g09_d.01/g09/l906.exe)
 DoSCS=T DFT=T ScalE2(SS,OS)=  0.270000  0.270000
 FulOut=F Deriv=F AODrv=F NAtomX=     8
   MMem=        1190  MDisk=          11 MDiskD=          11
  W3Min=     1567764 MinDsk=     2827057 NBas6D=         428
 NBas2D=       93150    NTT=       91806    LW2=     4508827
    MDV=  2096571542 MDiskM=       10875 NBas2p=       89378
 Fully direct method using O(OVN) memory.
 IMap=   1   2   3   4   5   6   7   8   9  10  11
 JobTyp=1 Pass  1:  I=   1 to  11 NPSUse=  8 ParTrn=T ParDer=T DoDerP=F.
 Spin components of T(2) and E(2):
     alpha-alpha T2 =       0.4416520291D-01 E2=     -0.2956250313D-01
     alpha-beta  T2 =       0.2698053264D+00 E2=     -0.1887411400D+00
     beta-beta   T2 =       0.4416520291D-01 E2=     -0.2956250313D-01
 The integrals were generated   1 times.
 E2(B2PLYPD3) =    -0.2478661463D+00 E(B2PLYPD3) =    -0.19186189229156D+03
 Leave Link  906 at Wed Aug 26 16:14:14 2020, MaxMem=  2097152000 cpu:       407.7
 (Enter /opt/cluster/programs/g09/g09_d.01/g09/l601.exe)
 Copying SCF densities to generalized density rwf, IOpCl= 0 IROHF=0.

 **********************************************************************

            Population analysis using the SCF density.

 **********************************************************************

 Orbital symmetries:
       Occupied  (A) (A) (A) (A) (A) (A) (A) (A) (A) (A) (A) (A)
                 (A) (A) (A)
       Virtual   (A) (A) (A) (A) (A) (A) (A) (A) (A) (A) (A) (A)
                 (A) (A) (A) (A) (A) (A) (A) (A) (A) (A) (A) (A)
                 (A) (A) (A) (A) (A) (A) (A) (A) (A) (A) (A) (A)
                 (A) (A) (A) (A) (A) (A) (A) (A) (A) (A) (A) (A)
                 (A) (A) (A) (A) (A) (A) (A) (A) (A) (A) (A) (A)
                 (A) (A) (A) (A) (A) (A) (A) (A) (A) (A) (A) (A)
                 (A) (A) (A) (A) (A) (A) (A) (A) (A) (A) (A) (A)
                 (A) (A) (A) (A) (A) (A) (A) (A) (A) (A) (A) (A)
                 (A) (A) (A) (A) (A) (A) (A) (A) (A) (A) (A) (A)
                 (A) (A) (A) (A) (A) (A) (A) (A) (A) (A) (A) (A)
                 (A) (A) (A) (A) (A) (A) (A) (A) (A) (A) (A) (A)
                 (A) (A) (A) (A) (A) (A) (A) (A) (A) (A) (A) (A)
                 (A) (A) (A) (A) (A) (A) (A) (A) (A) (A) (A) (A)
                 (A) (A) (A) (A) (A) (A) (A) (A) (A) (A) (A) (A)
                 (A) (A) (A) (A) (A) (A) (A) (A) (A) (A) (A) (A)
                 (A) (A) (A) (A) (A) (A) (A) (A) (A) (A) (A) (A)
                 (A) (A) (A) (A) (A) (A) (A) (A) (A) (A) (A) (A)
                 (A) (A) (A) (A) (A) (A) (A) (A) (A) (A) (A) (A)
                 (A) (A) (A) (A) (A) (A) (A) (A) (A) (A) (A) (A)
                 (A) (A) (A) (A) (A) (A) (A) (A) (A) (A) (A) (A)
                 (A) (A) (A) (A) (A) (A) (A) (A) (A) (A) (A) (A)
                 (A) (A) (A) (A) (A) (A) (A) (A) (A) (A) (A) (A)
                 (A) (A) (A) (A) (A) (A) (A) (A) (A) (A) (A) (A)
                 (A) (A) (A) (A) (A) (A) (A) (A) (A) (A) (A) (A)
                 (A) (A) (A) (A) (A) (A) (A) (A) (A) (A) (A) (A)
                 (A) (A) (A) (A) (A) (A) (A) (A) (A) (A) (A) (A)
                 (A) (A) (A) (A) (A) (A) (A) (A) (A) (A) (A) (A)
                 (A) (A) (A) (A) (A) (A) (A) (A) (A)
 The electronic state is 1-A.
 Alpha  occ. eigenvalues --  -19.72632 -10.71445 -10.66008 -10.65092  -1.19017
 Alpha  occ. eigenvalues --   -0.93077  -0.75464  -0.66405  -0.56486  -0.56147
 Alpha  occ. eigenvalues --   -0.50145  -0.46640  -0.46517  -0.34739  -0.33741
 Alpha virt. eigenvalues --   -0.01960   0.05685   0.06824   0.08235   0.09678
 Alpha virt. eigenvalues --    0.12498   0.14053   0.15286   0.17163   0.19770
 Alpha virt. eigenvalues --    0.19947   0.21529   0.25344   0.26385   0.28791
 Alpha virt. eigenvalues --    0.30960   0.33581   0.35498   0.37162   0.38381
 Alpha virt. eigenvalues --    0.39447   0.41244   0.43074   0.44837   0.46070
 Alpha virt. eigenvalues --    0.47168   0.49220   0.52965   0.54038   0.56512
 Alpha virt. eigenvalues --    0.57632   0.64345   0.66005   0.68024   0.70928
 Alpha virt. eigenvalues --    0.75275   0.76468   0.78486   0.79631   0.80784
 Alpha virt. eigenvalues --    0.81340   0.81680   0.82237   0.84256   0.85956
 Alpha virt. eigenvalues --    0.87688   0.91855   0.92185   0.93404   0.95813
 Alpha virt. eigenvalues --    0.96230   0.97386   1.00925   1.02271   1.07299
 Alpha virt. eigenvalues --    1.09517   1.12311   1.15204   1.16035   1.18494
 Alpha virt. eigenvalues --    1.19389   1.25426   1.27568   1.34363   1.39199
 Alpha virt. eigenvalues --    1.43049   1.47350   1.47616   1.55176   1.56452
 Alpha virt. eigenvalues --    1.61488   1.62846   1.64729   1.66555   1.70188
 Alpha virt. eigenvalues --    1.73500   1.76536   1.77609   1.82070   1.83234
 Alpha virt. eigenvalues --    1.86667   1.88727   1.90743   1.93886   1.94600
 Alpha virt. eigenvalues --    1.96450   1.98357   1.99730   2.02517   2.02888
 Alpha virt. eigenvalues --    2.06189   2.09747   2.11437   2.14019   2.14875
 Alpha virt. eigenvalues --    2.15752   2.18129   2.19775   2.23066   2.25848
 Alpha virt. eigenvalues --    2.29618   2.35994   2.37273   2.40069   2.43489
 Alpha virt. eigenvalues --    2.45424   2.45892   2.47936   2.48627   2.53053
 Alpha virt. eigenvalues --    2.54047   2.57759   2.58560   2.60576   2.63164
 Alpha virt. eigenvalues --    2.63946   2.65939   2.66903   2.68197   2.73992
 Alpha virt. eigenvalues --    2.75963   2.76546   2.85573   2.86270   2.87039
 Alpha virt. eigenvalues --    2.88608   2.94748   2.97212   2.99723   3.04005
 Alpha virt. eigenvalues --    3.16248   3.16922   3.28605   3.29129   3.32846
 Alpha virt. eigenvalues --    3.34348   3.38854   3.40362   3.44252   3.46973
 Alpha virt. eigenvalues --    3.49814   3.51873   3.56845   3.60672   3.61817
 Alpha virt. eigenvalues --    3.64684   3.73002   3.76364   3.78906   3.90838
 Alpha virt. eigenvalues --    3.91277   3.98016   4.00521   4.02515   4.03883
 Alpha virt. eigenvalues --    4.09769   4.18114   4.18371   4.24624   4.31692
 Alpha virt. eigenvalues --    4.38153   4.42238   4.53020   4.60753   4.62675
 Alpha virt. eigenvalues --    4.66584   4.81245   4.87736   4.91524   4.98279
 Alpha virt. eigenvalues --    5.03074   5.06453   5.09010   5.09622   5.11973
 Alpha virt. eigenvalues --    5.20510   5.27302   5.31300   5.34594   5.42293
 Alpha virt. eigenvalues --    5.44666   5.52768   5.56099   5.58539   5.59157
 Alpha virt. eigenvalues --    5.66325   5.71059   5.72988   5.73638   5.74990
 Alpha virt. eigenvalues --    5.78811   5.81429   5.85661   5.89440   5.93065
 Alpha virt. eigenvalues --    5.95502   5.96981   6.00333   6.03870   6.07177
 Alpha virt. eigenvalues --    6.08518   6.12471   6.15283   6.16978   6.17810
 Alpha virt. eigenvalues --    6.20684   6.21840   6.25173   6.26958   6.29281
 Alpha virt. eigenvalues --    6.30959   6.32351   6.34436   6.39292   6.41643
 Alpha virt. eigenvalues --    6.43317   6.49645   6.50823   6.52688   6.57690
 Alpha virt. eigenvalues --    6.58185   6.64060   6.68935   6.73278   6.76040
 Alpha virt. eigenvalues --    6.82092   6.82812   6.92932   6.95818   6.98463
 Alpha virt. eigenvalues --    7.02508   7.09580   7.10668   7.15830   7.24334
 Alpha virt. eigenvalues --    7.26715   7.36532   7.38346   7.45783   7.48289
 Alpha virt. eigenvalues --    7.50460   7.53184   7.57784   7.61036   7.63844
 Alpha virt. eigenvalues --    7.66233   7.69632   7.71368   7.71629   7.76642
 Alpha virt. eigenvalues --    7.82361   7.84905   7.90760   7.99470   8.05607
 Alpha virt. eigenvalues --    8.07116   8.10205   8.12901   8.15347   8.19876
 Alpha virt. eigenvalues --    8.21578   8.25996   8.26203   8.30123   8.32947
 Alpha virt. eigenvalues --    8.34907   8.38315   8.41453   8.44633   8.50810
 Alpha virt. eigenvalues --    8.53582   8.56389   8.56994   8.61604   8.67423
 Alpha virt. eigenvalues --    8.79583   8.83986   8.90728   8.93479   9.03905
 Alpha virt. eigenvalues --    9.08059   9.09223   9.13997   9.20675   9.28484
 Alpha virt. eigenvalues --    9.33443   9.36741   9.53578   9.65745   9.66848
 Alpha virt. eigenvalues --    9.75039   9.85322   9.87663   9.90677   9.92431
 Alpha virt. eigenvalues --    9.93939   9.96387  10.08855  10.11233  10.19868
 Alpha virt. eigenvalues --   10.21855  10.24284  10.51100  10.68570  10.87823
 Alpha virt. eigenvalues --   11.02145  11.24517  11.25556  11.28370  11.38550
 Alpha virt. eigenvalues --   11.65703  11.76927  11.85822  12.04119  12.10219
 Alpha virt. eigenvalues --   12.32667  12.36061  12.46271  12.56398  12.80258
 Alpha virt. eigenvalues --   13.05695  13.34819  13.73446  14.36866  14.68635
 Alpha virt. eigenvalues --   28.50801  28.88650  29.46916  48.65645 148.08970
 Alpha virt. eigenvalues --  148.43882 149.05532 254.41655
          Condensed to atoms (all electrons):
               1          2          3          4          5          6
     1  C    4.497138   0.624135   0.358953  -0.055724  -0.026899  -0.004086
     2  O    0.624135   7.888576  -0.087770   0.005833   0.006191   0.000410
     3  C    0.358953  -0.087770   5.163229   0.482909   0.366389  -0.048050
     4  C   -0.055724   0.005833   0.482909   4.873641  -0.036902   0.422470
     5  H   -0.026899   0.006191   0.366389  -0.036902   0.581603   0.005140
     6  H   -0.004086   0.000410  -0.048050   0.422470   0.005140   0.569737
     7  H    0.002893  -0.000571  -0.034032   0.413550  -0.005316  -0.040388
     8  H    0.447721  -0.083961  -0.167649   0.021811   0.008856   0.006270
               7          8
     1  C    0.002893   0.447721
     2  O   -0.000571  -0.083961
     3  C   -0.034032  -0.167649
     4  C    0.413550   0.021811
     5  H   -0.005316   0.008856
     6  H   -0.040388   0.006270
     7  H    0.561098  -0.000636
     8  H   -0.000636   0.701883
 Mulliken charges:
               1
     1  C    0.155869
     2  O   -0.352843
     3  C   -0.033979
     4  C   -0.127589
     5  H    0.100939
     6  H    0.088498
     7  H    0.103401
     8  H    0.065705
 Sum of Mulliken charges =   0.00000
 Mulliken charges with hydrogens summed into heavy atoms:
               1
     1  C    0.221573
     2  O   -0.352843
     3  C    0.066960
     4  C    0.064309
 Electronic spatial extent (au):  <R**2>=            298.8075
 Charge=              0.0000 electrons
 Dipole moment (field-independent basis, Debye):
    X=             -3.5993    Y=              0.7124    Z=              0.0424  Tot=              3.6694
 Quadrupole moment (field-independent basis, Debye-Ang):
   XX=            -27.5588   YY=            -21.6776   ZZ=            -25.2988
   XY=              0.8206   XZ=             -0.2205   YZ=             -0.0489
 Traceless Quadrupole moment (field-independent basis, Debye-Ang):
   XX=             -2.7138   YY=              3.1675   ZZ=             -0.4538
   XY=              0.8206   XZ=             -0.2205   YZ=             -0.0489
 Octapole moment (field-independent basis, Debye-Ang**2):
  XXX=            -15.3415  YYY=             -0.0570  ZZZ=              0.1432  XYY=              0.1114
  XXY=              0.8917  XXZ=              0.4351  XZZ=              4.3073  YZZ=              0.2266
  YYZ=              0.0313  XYZ=              0.0863
 Hexadecapole moment (field-independent basis, Debye-Ang**3):
 XXXX=           -302.9670 YYYY=            -55.8310 ZZZZ=            -27.4714 XXXY=              2.8525
 XXXZ=             -1.7319 YYYX=             -0.4126 YYYZ=             -0.1228 ZZZX=             -0.2196
 ZZZY=             -0.0411 XXYY=            -58.4182 XXZZ=            -57.3565 YYZZ=            -15.8682
 XXYZ=             -0.2733 YYXZ=             -0.1588 ZZXY=             -0.3513
 N-N= 1.029600807791D+02 E-N=-6.538880508909D+02  KE= 1.908691003544D+02
 Leave Link  601 at Wed Aug 26 16:14:14 2020, MaxMem=  2097152000 cpu:         0.5
 (Enter /opt/cluster/programs/g09/g09_d.01/g09/l9999.exe)
 1\1\GINC-NODE32\SP\RB2PLYPD3-FC\def2QZVP\C3H4O1\BOITTIER\26-Aug-2020\0
 \\#p B2PLYPD3/Def2QZVP\\acrolein\\0,1\C,0,-5.000746,-1.402045,0.897232
 \O,0,-3.939598,-0.854954,0.661842\C,0,-5.190366,-2.82874,1.132433\C,0,
 -6.410856,-3.301511,1.399922\H,0,-4.258504,-3.472954,1.12164\H,0,-7.29
 085,-2.646924,1.426171\H,0,-6.563264,-4.350282,1.662453\H,0,-5.917193,
 -0.783694,0.904808\\Version=ES64L-G09RevD.01\State=1-A\HF=-191.6140261
 \MP2=-191.8618923\RMSD=7.752e-09\PG=C01 [X(C3H4O1)]\\@


 THE ONLY TROUBLE WITH A SURE THING IS THE UNCERTAINTY.
     -- FROM A TEABAG (BELONGING TO W.H.?)
 Job cpu time:       0 days  0 hours 11 minutes 10.6 seconds.
 File lengths (MBytes):  RWF=     49 Int=      0 D2E=      0 Chk=      7 Scr=      1
 Normal termination of Gaussian 09 at Wed Aug 26 16:14:14 2020.
