 Entering Gaussian System, Link 0=/opt/cluster/programs/g09/g09_d.01/g09//g09
 Input=/home/boittier/MDCM/nms_sampling/acrolein_geom.xyz.dir/energies/acrolein_1846_energy.com
 Output=/scratch/boittier/acrolein_1846_energy/acrolein_1846_energy.out
 Initial command:
 /opt/cluster/programs/g09/g09_d.01/g09/l1.exe "/scratch/boittier/acrolein_1846_energy/Gau-92484.inp" -scrdir="/scratch/boittier/acrolein_1846_energy/"
 Entering Link 1 = /opt/cluster/programs/g09/g09_d.01/g09/l1.exe PID=     92485.
  
 Copyright (c) 1988,1990,1992,1993,1995,1998,2003,2009,2013,
            Gaussian, Inc.  All Rights Reserved.
  
 This is part of the Gaussian(R) 09 program.  It is based on
 the Gaussian(R) 03 system (copyright 2003, Gaussian, Inc.),
 the Gaussian(R) 98 system (copyright 1998, Gaussian, Inc.),
 the Gaussian(R) 94 system (copyright 1995, Gaussian, Inc.),
 the Gaussian 92(TM) system (copyright 1992, Gaussian, Inc.),
 the Gaussian 90(TM) system (copyright 1990, Gaussian, Inc.),
 the Gaussian 88(TM) system (copyright 1988, Gaussian, Inc.),
 the Gaussian 86(TM) system (copyright 1986, Carnegie Mellon
 University), and the Gaussian 82(TM) system (copyright 1983,
 Carnegie Mellon University). Gaussian is a federally registered
 trademark of Gaussian, Inc.
  
 This software contains proprietary and confidential information,
 including trade secrets, belonging to Gaussian, Inc.
  
 This software is provided under written license and may be
 used, copied, transmitted, or stored only in accord with that
 written license.
  
 The following legend is applicable only to US Government
 contracts under FAR:
  
                    RESTRICTED RIGHTS LEGEND
  
 Use, reproduction and disclosure by the US Government is
 subject to restrictions as set forth in subparagraphs (a)
 and (c) of the Commercial Computer Software - Restricted
 Rights clause in FAR 52.227-19.
  
 Gaussian, Inc.
 340 Quinnipiac St., Bldg. 40, Wallingford CT 06492
  
  
 ---------------------------------------------------------------
 Warning -- This program may not be used in any manner that
 competes with the business of Gaussian, Inc. or will provide
 assistance to any competitor of Gaussian, Inc.  The licensee
 of this program is prohibited from giving any competitor of
 Gaussian, Inc. access to this program.  By using this program,
 the user acknowledges that Gaussian, Inc. is engaged in the
 business of creating and licensing software in the field of
 computational chemistry and represents and warrants to the
 licensee that it is not a competitor of Gaussian, Inc. and that
 it will not use this program in any manner prohibited above.
 ---------------------------------------------------------------
  

 Cite this work as:
 Gaussian 09, Revision D.01,
 M. J. Frisch, G. W. Trucks, H. B. Schlegel, G. E. Scuseria, 
 M. A. Robb, J. R. Cheeseman, G. Scalmani, V. Barone, B. Mennucci, 
 G. A. Petersson, H. Nakatsuji, M. Caricato, X. Li, H. P. Hratchian, 
 A. F. Izmaylov, J. Bloino, G. Zheng, J. L. Sonnenberg, M. Hada, 
 M. Ehara, K. Toyota, R. Fukuda, J. Hasegawa, M. Ishida, T. Nakajima, 
 Y. Honda, O. Kitao, H. Nakai, T. Vreven, J. A. Montgomery, Jr., 
 J. E. Peralta, F. Ogliaro, M. Bearpark, J. J. Heyd, E. Brothers, 
 K. N. Kudin, V. N. Staroverov, T. Keith, R. Kobayashi, J. Normand, 
 K. Raghavachari, A. Rendell, J. C. Burant, S. S. Iyengar, J. Tomasi, 
 M. Cossi, N. Rega, J. M. Millam, M. Klene, J. E. Knox, J. B. Cross, 
 V. Bakken, C. Adamo, J. Jaramillo, R. Gomperts, R. E. Stratmann, 
 O. Yazyev, A. J. Austin, R. Cammi, C. Pomelli, J. W. Ochterski, 
 R. L. Martin, K. Morokuma, V. G. Zakrzewski, G. A. Voth, 
 P. Salvador, J. J. Dannenberg, S. Dapprich, A. D. Daniels, 
 O. Farkas, J. B. Foresman, J. V. Ortiz, J. Cioslowski, 
 and D. J. Fox, Gaussian, Inc., Wallingford CT, 2013.
 
 ******************************************
 Gaussian 09:  ES64L-G09RevD.01 24-Apr-2013
                26-Aug-2020 
 ******************************************
 %chk=/home/boittier/MDCM/nms_sampling/acrolein_geom.xyz.dir/acrolein_1846.chk
 %nproc=8
 Will use up to    8 processors via shared memory.
 %mem=16000MB
 --------------------
 #p B2PLYPD3/Def2QZVP
 --------------------
 1/38=1/1;
 2/12=2,17=6,18=5,40=1/2;
 3/5=45,7=101,11=9,16=1,25=1,30=1,74=-60/1,2,3;
 4//1;
 5/5=2,38=5/2;
 8/10=1/1;
 9/16=-3/6;
 6/7=2,8=2,9=2,10=2/1;
 99/5=1,9=1/99;
 Leave Link    1 at Wed Aug 26 10:43:45 2020, MaxMem=  2097152000 cpu:         0.3
 (Enter /opt/cluster/programs/g09/g09_d.01/g09/l101.exe)
 --------
 acrolein
 --------
 Symbolic Z-matrix:
 Charge =  0 Multiplicity = 1
 C                    -5.03176  -1.38736   0.93142 
 O                    -3.94162  -0.88014   0.62687 
 C                    -5.19715  -2.76731   1.13131 
 C                    -6.3515   -3.34612   1.38797 
 H                    -4.33876  -3.40559   1.38023 
 H                    -7.25051  -2.73198   1.30292 
 H                    -6.54131  -4.37697   1.58345 
 H                    -6.10865  -0.70941   1.12757 
 
 NAtoms=      8 NQM=        8 NQMF=       0 NMMI=      0 NMMIF=      0
                NMic=       0 NMicF=      0.
                    Isotopes and Nuclear Properties:
 (Nuclear quadrupole moments (NQMom) in fm**2, nuclear magnetic moments (NMagM)
  in nuclear magnetons)

  Atom         1           2           3           4           5           6           7           8
 IAtWgt=          12          16          12          12           1           1           1           1
 AtmWgt=  12.0000000  15.9949146  12.0000000  12.0000000   1.0078250   1.0078250   1.0078250   1.0078250
 NucSpn=           0           0           0           0           1           1           1           1
 AtZEff=   0.0000000   0.0000000   0.0000000   0.0000000   0.0000000   0.0000000   0.0000000   0.0000000
 NQMom=    0.0000000   0.0000000   0.0000000   0.0000000   0.0000000   0.0000000   0.0000000   0.0000000
 NMagM=    0.0000000   0.0000000   0.0000000   0.0000000   2.7928460   2.7928460   2.7928460   2.7928460
 AtZNuc=   6.0000000   8.0000000   6.0000000   6.0000000   1.0000000   1.0000000   1.0000000   1.0000000
 Leave Link  101 at Wed Aug 26 10:43:45 2020, MaxMem=  2097152000 cpu:         0.6
 (Enter /opt/cluster/programs/g09/g09_d.01/g09/l202.exe)
                          Input orientation:                          
 ---------------------------------------------------------------------
 Center     Atomic      Atomic             Coordinates (Angstroms)
 Number     Number       Type             X           Y           Z
 ---------------------------------------------------------------------
      1          6           0       -5.031759   -1.387355    0.931415
      2          8           0       -3.941624   -0.880135    0.626866
      3          6           0       -5.197152   -2.767309    1.131306
      4          6           0       -6.351501   -3.346123    1.387968
      5          1           0       -4.338758   -3.405591    1.380230
      6          1           0       -7.250512   -2.731976    1.302918
      7          1           0       -6.541308   -4.376965    1.583454
      8          1           0       -6.108647   -0.709409    1.127573
 ---------------------------------------------------------------------
                    Distance matrix (angstroms):
                    1          2          3          4          5
     1  C    0.000000
     2  O    1.240329   0.000000
     3  C    1.404131   2.322119   0.000000
     4  C    2.405604   3.530989   1.316595   0.000000
     5  H    2.180587   2.665183   1.098275   2.013636   0.000000
     6  H    2.620856   3.851636   2.060822   1.092076   2.989656
     7  H    3.411988   4.461080   2.145271   1.066244   2.415801
     8  H    1.287547   2.230660   2.250731   2.660647   3.235080
                    6          7          8
     6  H    0.000000
     7  H    1.813190   0.000000
     8  H    2.329244   3.721020   0.000000
 Stoichiometry    C3H4O
 Framework group  C1[X(C3H4O)]
 Deg. of freedom    18
 Full point group                 C1      NOp   1
 Largest Abelian subgroup         C1      NOp   1
 Largest concise Abelian subgroup C1      NOp   1
                         Standard orientation:                         
 ---------------------------------------------------------------------
 Center     Atomic      Atomic             Coordinates (Angstroms)
 Number     Number       Type             X           Y           Z
 ---------------------------------------------------------------------
      1          6           0        0.651104    0.356966    0.033638
      2          8           0        1.782442   -0.146317   -0.038453
      3          6           0       -0.524716   -0.408737   -0.018624
      4          6           0       -1.740019    0.097657   -0.013484
      5          1           0       -0.510347   -1.477824    0.232478
      6          1           0       -1.832408    1.181201   -0.113621
      7          1           0       -2.669930   -0.424008   -0.016052
      8          1           0        0.434927    1.615853    0.195646
 ---------------------------------------------------------------------
 Rotational constants (GHZ):     47.9340256      4.7523594      4.3345084
 Leave Link  202 at Wed Aug 26 10:43:45 2020, MaxMem=  2097152000 cpu:         0.1
 (Enter /opt/cluster/programs/g09/g09_d.01/g09/l301.exe)
 Standard basis: def2QZVP (5D, 7F)
 Ernie: Thresh=  0.10000D-02 Tol=  0.10000D-05 Strict=F.
 There are   428 symmetry adapted cartesian basis functions of A   symmetry.
 There are   348 symmetry adapted basis functions of A   symmetry.
   348 basis functions,   520 primitive gaussians,   428 cartesian basis functions
    15 alpha electrons       15 beta electrons
       nuclear repulsion energy       103.3638200336 Hartrees.
 IExCor=  419 DFT=T Ex+Corr=B2PLYPD3 ExCW=0 ScaHFX=  0.530000
 ScaDFX=  0.470000  0.470000  0.730000  0.730000 ScalE2=  0.270000  0.270000
 IRadAn=      0 IRanWt=     -1 IRanGd=            0 ICorTp=0 IEmpDi=141
 NAtoms=    8 NActive=    8 NUniq=    8 SFac= 1.00D+00 NAtFMM=   60 NAOKFM=F Big=F
 Integral buffers will be    131072 words long.
 Regular integral format.
 Two-electron integral symmetry is turned on.
 R6Disp:  Grimme-D3(BJ) Dispersion energy=       -0.0036078309 Hartrees.
 Nuclear repulsion after empirical dispersion term =      103.3602122028 Hartrees.
 Leave Link  301 at Wed Aug 26 10:43:45 2020, MaxMem=  2097152000 cpu:         0.5
 (Enter /opt/cluster/programs/g09/g09_d.01/g09/l302.exe)
 NPDir=0 NMtPBC=     1 NCelOv=     1 NCel=       1 NClECP=     1 NCelD=      1
         NCelK=      1 NCelE2=     1 NClLst=     1 CellRange=     0.0.
 One-electron integrals computed using PRISM.
   1 Symmetry operations used in ECPInt.
 ECPInt:  NShTT=    5886 NPrTT=   14376 LenC2=    5782 LenP2D=   12190.
 LDataN:  DoStor=T MaxTD1= 8 Len=  415
 NBasis=   348 RedAO= T EigKep=  6.36D-05  NBF=   348
 NBsUse=   348 1.00D-06 EigRej= -1.00D+00 NBFU=   348
 Precomputing XC quadrature grid using
 IXCGrd= 4 IRadAn=           0 IRanWt=          -1 IRanGd=           0 AccXCQ= 0.00D+00.
 Generated NRdTot=       0 NPtTot=           0 NUsed=           0 NTot=          32
 NSgBfM=   428   428   428   428   428 MxSgAt=     8 MxSgA2=     8.
 Leave Link  302 at Wed Aug 26 10:43:46 2020, MaxMem=  2097152000 cpu:         3.0
 (Enter /opt/cluster/programs/g09/g09_d.01/g09/l303.exe)
 DipDrv:  MaxL=1.
 Leave Link  303 at Wed Aug 26 10:43:46 2020, MaxMem=  2097152000 cpu:         0.4
 (Enter /opt/cluster/programs/g09/g09_d.01/g09/l401.exe)
 ExpMin= 7.60D-02 ExpMax= 1.17D+05 ExpMxC= 1.13D+03 IAcc=2 IRadAn=         4 AccDes= 0.00D+00
 Harris functional with IExCor=  419 and IRadAn=       4 diagonalized for initial guess.
 HarFok:  IExCor=  419 AccDes= 0.00D+00 IRadAn=         4 IDoV= 1 UseB2=F ITyADJ=14
 ICtDFT=  3500011 ScaDFX=  1.000000  1.000000  1.000000  1.000000
 FoFCou: FMM=F IPFlag=           0 FMFlag=      100000 FMFlg1=           0
         NFxFlg=           0 DoJE=T BraDBF=F KetDBF=T FulRan=T
         wScrn=  0.000000 ICntrl=     500 IOpCl=  0 I1Cent=   200000004 NGrid=           0
         NMat0=    1 NMatS0=      1 NMatT0=    0 NMatD0=    1 NMtDS0=    0 NMtDT0=    0
 Petite list used in FoFCou.
 Harris En= -192.023763311791    
 JPrj=0 DoOrth=F DoCkMO=F.
 Leave Link  401 at Wed Aug 26 10:43:47 2020, MaxMem=  2097152000 cpu:         7.4
 (Enter /opt/cluster/programs/g09/g09_d.01/g09/l502.exe)
 Closed shell SCF:
 Using DIIS extrapolation, IDIIS=  1040.
 Integral symmetry usage will be decided dynamically.
 Keep R1 ints in memory in canonical form, NReq=1883905047.
 IVT=      574566 IEndB=      574566 NGot=  2097152000 MDV=   252723534
 LenX=   252723534 LenY=   252539909
 Requested convergence on RMS density matrix=1.00D-08 within 128 cycles.
 Requested convergence on MAX density matrix=1.00D-06.
 Requested convergence on             energy=1.00D-06.
 No special actions if energy rises.
 FoFCou: FMM=F IPFlag=           0 FMFlag=           0 FMFlg1=           0
         NFxFlg=           0 DoJE=F BraDBF=F KetDBF=F FulRan=T
         wScrn=  0.000000 ICntrl=     600 IOpCl=  0 I1Cent=           0 NGrid=           0
         NMat0=    1 NMatS0=  60726 NMatT0=    0 NMatD0=    1 NMtDS0=    0 NMtDT0=    0
 Symmetry not used in FoFCou.
 Integral accuracy reduced to 1.0D-05 until final iterations.

 Cycle   1  Pass 0  IDiag  1:
 E= -191.441339050780    
 DIIS: error= 2.59D-02 at cycle   1 NSaved=   1.
 NSaved= 1 IEnMin= 1 EnMin= -191.441339050780     IErMin= 1 ErrMin= 2.59D-02
 ErrMax= 2.59D-02  0.00D+00 EMaxC= 1.00D-01 BMatC= 2.62D-01 BMatP= 2.62D-01
 IDIUse=3 WtCom= 7.41D-01 WtEn= 2.59D-01
 Coeff-Com:  0.100D+01
 Coeff-En:   0.100D+01
 Coeff:      0.100D+01
 Gap=     0.296 Goal=   None    Shift=    0.000
 GapD=    0.296 DampG=1.000 DampE=0.500 DampFc=0.5000 IDamp=-1.
 Damping current iteration by 5.00D-01
 RMSDP=1.77D-03 MaxDP=2.24D-01              OVMax= 1.80D-01

 Cycle   2  Pass 0  IDiag  1:
 E= -191.510733505521     Delta-E=       -0.069394454741 Rises=F Damp=T
 DIIS: error= 1.05D-02 at cycle   2 NSaved=   2.
 NSaved= 2 IEnMin= 2 EnMin= -191.510733505521     IErMin= 2 ErrMin= 1.05D-02
 ErrMax= 1.05D-02  0.00D+00 EMaxC= 1.00D-01 BMatC= 3.47D-02 BMatP= 2.62D-01
 IDIUse=3 WtCom= 8.95D-01 WtEn= 1.05D-01
 Coeff-Com: -0.116D+00 0.112D+01
 Coeff-En:   0.000D+00 0.100D+01
 Coeff:     -0.104D+00 0.110D+01
 Gap=     0.358 Goal=   None    Shift=    0.000
 RMSDP=6.48D-04 MaxDP=8.40D-02 DE=-6.94D-02 OVMax= 1.37D-01

 Cycle   3  Pass 0  IDiag  1:
 E= -191.573338120236     Delta-E=       -0.062604614715 Rises=F Damp=F
 DIIS: error= 1.04D-02 at cycle   3 NSaved=   3.
 NSaved= 3 IEnMin= 3 EnMin= -191.573338120236     IErMin= 3 ErrMin= 1.04D-02
 ErrMax= 1.04D-02  0.00D+00 EMaxC= 1.00D-01 BMatC= 2.19D-02 BMatP= 3.47D-02
 IDIUse=3 WtCom= 8.96D-01 WtEn= 1.04D-01
 Coeff-Com: -0.187D+00 0.546D+00 0.641D+00
 Coeff-En:   0.000D+00 0.000D+00 0.100D+01
 Coeff:     -0.167D+00 0.489D+00 0.678D+00
 Gap=     0.324 Goal=   None    Shift=    0.000
 RMSDP=2.85D-04 MaxDP=2.31D-02 DE=-6.26D-02 OVMax= 6.11D-02

 Cycle   4  Pass 0  IDiag  1:
 E= -191.585914044841     Delta-E=       -0.012575924605 Rises=F Damp=F
 DIIS: error= 4.41D-03 at cycle   4 NSaved=   4.
 NSaved= 4 IEnMin= 4 EnMin= -191.585914044841     IErMin= 4 ErrMin= 4.41D-03
 ErrMax= 4.41D-03  0.00D+00 EMaxC= 1.00D-01 BMatC= 3.89D-03 BMatP= 2.19D-02
 IDIUse=3 WtCom= 9.56D-01 WtEn= 4.41D-02
 Coeff-Com: -0.602D-01 0.967D-01 0.357D+00 0.607D+00
 Coeff-En:   0.000D+00 0.000D+00 0.166D+00 0.834D+00
 Coeff:     -0.576D-01 0.924D-01 0.348D+00 0.617D+00
 Gap=     0.313 Goal=   None    Shift=    0.000
 RMSDP=1.10D-04 MaxDP=9.39D-03 DE=-1.26D-02 OVMax= 1.73D-02

 Cycle   5  Pass 0  IDiag  1:
 E= -191.589091636625     Delta-E=       -0.003177591784 Rises=F Damp=F
 DIIS: error= 3.10D-04 at cycle   5 NSaved=   5.
 NSaved= 5 IEnMin= 5 EnMin= -191.589091636625     IErMin= 5 ErrMin= 3.10D-04
 ErrMax= 3.10D-04  0.00D+00 EMaxC= 1.00D-01 BMatC= 1.15D-05 BMatP= 3.89D-03
 IDIUse=3 WtCom= 9.97D-01 WtEn= 3.10D-03
 Coeff-Com: -0.368D-02 0.296D-02 0.258D-01 0.817D-01 0.893D+00
 Coeff-En:   0.000D+00 0.000D+00 0.000D+00 0.000D+00 0.100D+01
 Coeff:     -0.367D-02 0.295D-02 0.258D-01 0.814D-01 0.894D+00
 Gap=     0.312 Goal=   None    Shift=    0.000
 RMSDP=1.08D-05 MaxDP=8.79D-04 DE=-3.18D-03 OVMax= 2.32D-03

 Cycle   6  Pass 0  IDiag  1:
 E= -191.589105643750     Delta-E=       -0.000014007125 Rises=F Damp=F
 DIIS: error= 8.16D-05 at cycle   6 NSaved=   6.
 NSaved= 6 IEnMin= 6 EnMin= -191.589105643750     IErMin= 6 ErrMin= 8.16D-05
 ErrMax= 8.16D-05  0.00D+00 EMaxC= 1.00D-01 BMatC= 1.76D-06 BMatP= 1.15D-05
 IDIUse=1 WtCom= 1.00D+00 WtEn= 0.00D+00
 Coeff-Com:  0.431D-02-0.783D-02-0.231D-01-0.314D-01 0.273D+00 0.785D+00
 Coeff:      0.431D-02-0.783D-02-0.231D-01-0.314D-01 0.273D+00 0.785D+00
 Gap=     0.312 Goal=   None    Shift=    0.000
 RMSDP=6.77D-06 MaxDP=7.45D-04 DE=-1.40D-05 OVMax= 6.12D-04

 Initial convergence to 1.0D-05 achieved.  Increase integral accuracy.
 Cycle   7  Pass 1  IDiag  1:
 E= -191.589104077933     Delta-E=        0.000001565817 Rises=F Damp=F
 DIIS: error= 2.01D-05 at cycle   1 NSaved=   1.
 NSaved= 1 IEnMin= 1 EnMin= -191.589104077933     IErMin= 1 ErrMin= 2.01D-05
 ErrMax= 2.01D-05  0.00D+00 EMaxC= 1.00D-01 BMatC= 2.30D-07 BMatP= 2.30D-07
 IDIUse=1 WtCom= 1.00D+00 WtEn= 0.00D+00
 Coeff-Com:  0.100D+01
 Coeff:      0.100D+01
 Gap=     0.312 Goal=   None    Shift=    0.000
 RMSDP=6.77D-06 MaxDP=7.45D-04 DE= 1.57D-06 OVMax= 2.55D-04

 Cycle   8  Pass 1  IDiag  1:
 E= -191.589104237038     Delta-E=       -0.000000159106 Rises=F Damp=F
 DIIS: error= 3.25D-05 at cycle   2 NSaved=   2.
 NSaved= 2 IEnMin= 2 EnMin= -191.589104237038     IErMin= 1 ErrMin= 2.01D-05
 ErrMax= 3.25D-05  0.00D+00 EMaxC= 1.00D-01 BMatC= 1.52D-07 BMatP= 2.30D-07
 IDIUse=1 WtCom= 1.00D+00 WtEn= 0.00D+00
 Coeff-Com:  0.435D+00 0.565D+00
 Coeff:      0.435D+00 0.565D+00
 Gap=     0.312 Goal=   None    Shift=    0.000
 RMSDP=7.70D-07 MaxDP=5.14D-05 DE=-1.59D-07 OVMax= 2.36D-04

 Cycle   9  Pass 1  IDiag  1:
 E= -191.589104364925     Delta-E=       -0.000000127886 Rises=F Damp=F
 DIIS: error= 1.09D-05 at cycle   3 NSaved=   3.
 NSaved= 3 IEnMin= 3 EnMin= -191.589104364925     IErMin= 3 ErrMin= 1.09D-05
 ErrMax= 1.09D-05  0.00D+00 EMaxC= 1.00D-01 BMatC= 3.61D-08 BMatP= 1.52D-07
 IDIUse=1 WtCom= 1.00D+00 WtEn= 0.00D+00
 Coeff-Com: -0.323D-01 0.302D+00 0.730D+00
 Coeff:     -0.323D-01 0.302D+00 0.730D+00
 Gap=     0.312 Goal=   None    Shift=    0.000
 RMSDP=7.23D-07 MaxDP=7.91D-05 DE=-1.28D-07 OVMax= 7.62D-05

 Cycle  10  Pass 1  IDiag  1:
 E= -191.589104396301     Delta-E=       -0.000000031376 Rises=F Damp=F
 DIIS: error= 3.84D-06 at cycle   4 NSaved=   4.
 NSaved= 4 IEnMin= 4 EnMin= -191.589104396301     IErMin= 4 ErrMin= 3.84D-06
 ErrMax= 3.84D-06  0.00D+00 EMaxC= 1.00D-01 BMatC= 3.25D-09 BMatP= 3.61D-08
 IDIUse=1 WtCom= 1.00D+00 WtEn= 0.00D+00
 Coeff-Com: -0.883D-01 0.751D-01 0.263D+00 0.750D+00
 Coeff:     -0.883D-01 0.751D-01 0.263D+00 0.750D+00
 Gap=     0.312 Goal=   None    Shift=    0.000
 RMSDP=2.18D-07 MaxDP=2.25D-05 DE=-3.14D-08 OVMax= 3.52D-05

 Cycle  11  Pass 1  IDiag  1:
 E= -191.589104400764     Delta-E=       -0.000000004462 Rises=F Damp=F
 DIIS: error= 1.75D-06 at cycle   5 NSaved=   5.
 NSaved= 5 IEnMin= 5 EnMin= -191.589104400764     IErMin= 5 ErrMin= 1.75D-06
 ErrMax= 1.75D-06  0.00D+00 EMaxC= 1.00D-01 BMatC= 6.11D-10 BMatP= 3.25D-09
 IDIUse=1 WtCom= 1.00D+00 WtEn= 0.00D+00
 Coeff-Com: -0.204D-01-0.134D-01-0.812D-01 0.241D+00 0.874D+00
 Coeff:     -0.204D-01-0.134D-01-0.812D-01 0.241D+00 0.874D+00
 Gap=     0.312 Goal=   None    Shift=    0.000
 RMSDP=1.23D-07 MaxDP=1.32D-05 DE=-4.46D-09 OVMax= 1.84D-05

 Cycle  12  Pass 1  IDiag  1:
 E= -191.589104401474     Delta-E=       -0.000000000711 Rises=F Damp=F
 DIIS: error= 6.06D-07 at cycle   6 NSaved=   6.
 NSaved= 6 IEnMin= 6 EnMin= -191.589104401474     IErMin= 6 ErrMin= 6.06D-07
 ErrMax= 6.06D-07  0.00D+00 EMaxC= 1.00D-01 BMatC= 8.55D-11 BMatP= 6.11D-10
 IDIUse=1 WtCom= 1.00D+00 WtEn= 0.00D+00
 Coeff-Com:  0.307D-02-0.127D-01-0.775D-01 0.452D-02 0.404D+00 0.679D+00
 Coeff:      0.307D-02-0.127D-01-0.775D-01 0.452D-02 0.404D+00 0.679D+00
 Gap=     0.312 Goal=   None    Shift=    0.000
 RMSDP=4.34D-08 MaxDP=5.02D-06 DE=-7.11D-10 OVMax= 3.90D-06

 Cycle  13  Pass 1  IDiag  1:
 E= -191.589104401573     Delta-E=       -0.000000000099 Rises=F Damp=F
 DIIS: error= 7.29D-08 at cycle   7 NSaved=   7.
 NSaved= 7 IEnMin= 7 EnMin= -191.589104401573     IErMin= 7 ErrMin= 7.29D-08
 ErrMax= 7.29D-08  0.00D+00 EMaxC= 1.00D-01 BMatC= 1.43D-12 BMatP= 8.55D-11
 IDIUse=1 WtCom= 1.00D+00 WtEn= 0.00D+00
 Coeff-Com:  0.128D-02-0.395D-03-0.805D-02-0.120D-01 0.211D-01 0.109D+00
 Coeff-Com:  0.889D+00
 Coeff:      0.128D-02-0.395D-03-0.805D-02-0.120D-01 0.211D-01 0.109D+00
 Coeff:      0.889D+00
 Gap=     0.312 Goal=   None    Shift=    0.000
 RMSDP=5.00D-09 MaxDP=1.58D-07 DE=-9.90D-11 OVMax= 8.76D-07

 SCF Done:  E(RB2PLYPD3) =  -191.589104402     A.U. after   13 cycles
            NFock= 13  Conv=0.50D-08     -V/T= 2.0039
 KE= 1.908494430987D+02 PE=-6.545900325180D+02 EE= 1.687912728150D+02
 Leave Link  502 at Wed Aug 26 10:45:30 2020, MaxMem=  2097152000 cpu:       456.2
 (Enter /opt/cluster/programs/g09/g09_d.01/g09/l801.exe)
 DoSCS=T DFT=T ScalE2(SS,OS)=  0.270000  0.270000
 ExpMin= 7.60D-02 ExpMax= 1.17D+05 ExpMxC= 1.13D+03 IAcc=3 IRadAn=         5 AccDes= 0.00D+00
 HarFok:  IExCor=  205 AccDes= 0.00D+00 IRadAn=         5 IDoV=-2 UseB2=F ITyADJ=14
 ICtDFT= 12500011 ScaDFX=  1.000000  1.000000  1.000000  1.000000
 DSYEVD-2 returned Info=        1739 IAlg= 4 N=    57 NDim=    57 NE2=    36785415 trying  DSYEV.
 Largest valence mixing into a core orbital is  1.20D-04
 Largest core mixing into a valence orbital is  1.83D-05
 Range of M.O.s used for correlation:     5   348
 NBasis=   348 NAE=    15 NBE=    15 NFC=     4 NFV=     0
 NROrb=    344 NOA=    11 NOB=    11 NVA=   333 NVB=   333

 **** Warning!!: The largest alpha MO coefficient is  0.23803899D+02

 Leave Link  801 at Wed Aug 26 10:45:30 2020, MaxMem=  2097152000 cpu:         0.9
 (Enter /opt/cluster/programs/g09/g09_d.01/g09/l906.exe)
 DoSCS=T DFT=T ScalE2(SS,OS)=  0.270000  0.270000
 FulOut=F Deriv=F AODrv=F NAtomX=     8
   MMem=        1190  MDisk=          11 MDiskD=          11
  W3Min=     1567764 MinDsk=     2827057 NBas6D=         428
 NBas2D=       93150    NTT=       91806    LW2=     4508827
    MDV=  2096571136 MDiskM=       10875 NBas2p=       89449
 Fully direct method using O(OVN) memory.
 IMap=   1   2   3   4   5   6   7   8   9  10  11
 JobTyp=1 Pass  1:  I=   1 to  11 NPSUse=  8 ParTrn=T ParDer=T DoDerP=F.
 Spin components of T(2) and E(2):
     alpha-alpha T2 =       0.4573435278D-01 E2=     -0.3005568203D-01
     alpha-beta  T2 =       0.2782306854D+00 E2=     -0.1906475882D+00
     beta-beta   T2 =       0.4573435278D-01 E2=     -0.3005568203D-01
 The integrals were generated   1 times.
 E2(B2PLYPD3) =    -0.2507589522D+00 E(B2PLYPD3) =    -0.19183986335381D+03
 Leave Link  906 at Wed Aug 26 10:46:59 2020, MaxMem=  2097152000 cpu:       708.9
 (Enter /opt/cluster/programs/g09/g09_d.01/g09/l601.exe)
 Copying SCF densities to generalized density rwf, IOpCl= 0 IROHF=0.

 **********************************************************************

            Population analysis using the SCF density.

 **********************************************************************

 Orbital symmetries:
       Occupied  (A) (A) (A) (A) (A) (A) (A) (A) (A) (A) (A) (A)
                 (A) (A) (A)
       Virtual   (A) (A) (A) (A) (A) (A) (A) (A) (A) (A) (A) (A)
                 (A) (A) (A) (A) (A) (A) (A) (A) (A) (A) (A) (A)
                 (A) (A) (A) (A) (A) (A) (A) (A) (A) (A) (A) (A)
                 (A) (A) (A) (A) (A) (A) (A) (A) (A) (A) (A) (A)
                 (A) (A) (A) (A) (A) (A) (A) (A) (A) (A) (A) (A)
                 (A) (A) (A) (A) (A) (A) (A) (A) (A) (A) (A) (A)
                 (A) (A) (A) (A) (A) (A) (A) (A) (A) (A) (A) (A)
                 (A) (A) (A) (A) (A) (A) (A) (A) (A) (A) (A) (A)
                 (A) (A) (A) (A) (A) (A) (A) (A) (A) (A) (A) (A)
                 (A) (A) (A) (A) (A) (A) (A) (A) (A) (A) (A) (A)
                 (A) (A) (A) (A) (A) (A) (A) (A) (A) (A) (A) (A)
                 (A) (A) (A) (A) (A) (A) (A) (A) (A) (A) (A) (A)
                 (A) (A) (A) (A) (A) (A) (A) (A) (A) (A) (A) (A)
                 (A) (A) (A) (A) (A) (A) (A) (A) (A) (A) (A) (A)
                 (A) (A) (A) (A) (A) (A) (A) (A) (A) (A) (A) (A)
                 (A) (A) (A) (A) (A) (A) (A) (A) (A) (A) (A) (A)
                 (A) (A) (A) (A) (A) (A) (A) (A) (A) (A) (A) (A)
                 (A) (A) (A) (A) (A) (A) (A) (A) (A) (A) (A) (A)
                 (A) (A) (A) (A) (A) (A) (A) (A) (A) (A) (A) (A)
                 (A) (A) (A) (A) (A) (A) (A) (A) (A) (A) (A) (A)
                 (A) (A) (A) (A) (A) (A) (A) (A) (A) (A) (A) (A)
                 (A) (A) (A) (A) (A) (A) (A) (A) (A) (A) (A) (A)
                 (A) (A) (A) (A) (A) (A) (A) (A) (A) (A) (A) (A)
                 (A) (A) (A) (A) (A) (A) (A) (A) (A) (A) (A) (A)
                 (A) (A) (A) (A) (A) (A) (A) (A) (A) (A) (A) (A)
                 (A) (A) (A) (A) (A) (A) (A) (A) (A) (A) (A) (A)
                 (A) (A) (A) (A) (A) (A) (A) (A) (A) (A) (A) (A)
                 (A) (A) (A) (A) (A) (A) (A) (A) (A)
 The electronic state is 1-A.
 Alpha  occ. eigenvalues --  -19.73416 -10.73435 -10.65602 -10.64181  -1.18267
 Alpha  occ. eigenvalues --   -0.94405  -0.76564  -0.65343  -0.57390  -0.55520
 Alpha  occ. eigenvalues --   -0.50140  -0.47138  -0.44769  -0.35128  -0.33973
 Alpha virt. eigenvalues --   -0.02748   0.05530   0.06120   0.08144   0.09721
 Alpha virt. eigenvalues --    0.12370   0.13454   0.14509   0.17632   0.19409
 Alpha virt. eigenvalues --    0.20182   0.21519   0.24703   0.26560   0.29015
 Alpha virt. eigenvalues --    0.29908   0.31946   0.33217   0.36394   0.38119
 Alpha virt. eigenvalues --    0.39243   0.40929   0.42142   0.43217   0.46249
 Alpha virt. eigenvalues --    0.48090   0.49484   0.52125   0.54063   0.58055
 Alpha virt. eigenvalues --    0.62135   0.63839   0.65300   0.66870   0.70839
 Alpha virt. eigenvalues --    0.73340   0.76739   0.77687   0.78006   0.81365
 Alpha virt. eigenvalues --    0.82739   0.82888   0.83900   0.84258   0.87509
 Alpha virt. eigenvalues --    0.89699   0.90736   0.92662   0.93983   0.96118
 Alpha virt. eigenvalues --    0.96755   0.98151   1.01695   1.03330   1.03913
 Alpha virt. eigenvalues --    1.07404   1.10234   1.11136   1.16147   1.19550
 Alpha virt. eigenvalues --    1.23567   1.26187   1.27473   1.30466   1.35784
 Alpha virt. eigenvalues --    1.39817   1.45931   1.47762   1.54088   1.54532
 Alpha virt. eigenvalues --    1.58601   1.59948   1.61206   1.63607   1.67104
 Alpha virt. eigenvalues --    1.75775   1.76936   1.80275   1.81797   1.86386
 Alpha virt. eigenvalues --    1.86980   1.90303   1.92002   1.93714   1.95623
 Alpha virt. eigenvalues --    1.95949   1.96904   1.99822   2.03083   2.05233
 Alpha virt. eigenvalues --    2.07473   2.09564   2.12655   2.13330   2.15588
 Alpha virt. eigenvalues --    2.16873   2.18460   2.21476   2.24628   2.27396
 Alpha virt. eigenvalues --    2.29022   2.31907   2.34602   2.35884   2.40283
 Alpha virt. eigenvalues --    2.41492   2.42445   2.46645   2.50737   2.51497
 Alpha virt. eigenvalues --    2.55376   2.56998   2.58268   2.59727   2.62724
 Alpha virt. eigenvalues --    2.65099   2.66624   2.69847   2.71856   2.73865
 Alpha virt. eigenvalues --    2.77130   2.78057   2.78316   2.84606   2.86843
 Alpha virt. eigenvalues --    2.89874   2.92988   2.96273   3.02663   3.08144
 Alpha virt. eigenvalues --    3.10195   3.14885   3.17706   3.24663   3.28747
 Alpha virt. eigenvalues --    3.35087   3.38359   3.40562   3.42914   3.47992
 Alpha virt. eigenvalues --    3.49491   3.53171   3.54706   3.57016   3.61836
 Alpha virt. eigenvalues --    3.63610   3.67948   3.74117   3.81997   3.90750
 Alpha virt. eigenvalues --    3.93073   3.95280   4.00095   4.05135   4.06513
 Alpha virt. eigenvalues --    4.10026   4.14671   4.19183   4.21944   4.31017
 Alpha virt. eigenvalues --    4.33436   4.42249   4.54069   4.59440   4.62235
 Alpha virt. eigenvalues --    4.63733   4.85529   4.88155   4.95832   4.98151
 Alpha virt. eigenvalues --    5.02156   5.05515   5.09337   5.16462   5.17771
 Alpha virt. eigenvalues --    5.23415   5.24335   5.28626   5.31900   5.39268
 Alpha virt. eigenvalues --    5.46045   5.51378   5.53953   5.57032   5.60721
 Alpha virt. eigenvalues --    5.63205   5.66888   5.70751   5.71336   5.73978
 Alpha virt. eigenvalues --    5.77282   5.81109   5.85194   5.89044   5.90817
 Alpha virt. eigenvalues --    5.92807   5.97101   5.98990   6.00679   6.04391
 Alpha virt. eigenvalues --    6.06964   6.08865   6.10086   6.13265   6.15810
 Alpha virt. eigenvalues --    6.20316   6.21245   6.23137   6.25763   6.27746
 Alpha virt. eigenvalues --    6.29958   6.33120   6.33236   6.36328   6.38774
 Alpha virt. eigenvalues --    6.43751   6.44956   6.49959   6.53427   6.57083
 Alpha virt. eigenvalues --    6.61611   6.67385   6.73147   6.76778   6.77722
 Alpha virt. eigenvalues --    6.80917   6.85257   6.86762   6.93956   7.02233
 Alpha virt. eigenvalues --    7.03321   7.06900   7.09091   7.14396   7.17041
 Alpha virt. eigenvalues --    7.24070   7.27296   7.36072   7.38916   7.46902
 Alpha virt. eigenvalues --    7.47936   7.52455   7.56052   7.59691   7.64244
 Alpha virt. eigenvalues --    7.68707   7.69140   7.71924   7.76326   7.79573
 Alpha virt. eigenvalues --    7.82025   7.83400   7.87787   7.94660   7.98561
 Alpha virt. eigenvalues --    8.05271   8.10273   8.11684   8.14832   8.19151
 Alpha virt. eigenvalues --    8.23016   8.25694   8.29623   8.34009   8.36658
 Alpha virt. eigenvalues --    8.38580   8.41034   8.46063   8.50598   8.52177
 Alpha virt. eigenvalues --    8.54398   8.54545   8.56978   8.67152   8.70118
 Alpha virt. eigenvalues --    8.75224   8.79659   8.88654   8.89927   8.93558
 Alpha virt. eigenvalues --    8.99797   9.07037   9.09464   9.12171   9.23195
 Alpha virt. eigenvalues --    9.26633   9.28575   9.40181   9.41469   9.50137
 Alpha virt. eigenvalues --    9.61494   9.68102   9.78640   9.91787   9.92368
 Alpha virt. eigenvalues --    9.98785  10.00777  10.08840  10.15123  10.23679
 Alpha virt. eigenvalues --   10.41232  10.45686  10.61186  10.72075  10.79112
 Alpha virt. eigenvalues --   10.96305  11.18990  11.23591  11.24444  11.27077
 Alpha virt. eigenvalues --   11.31462  11.63662  11.74474  11.96385  12.03454
 Alpha virt. eigenvalues --   12.05906  12.29581  12.33910  12.45481  12.79609
 Alpha virt. eigenvalues --   13.13536  13.25787  13.57023  14.32112  14.49186
 Alpha virt. eigenvalues --   28.42402  28.89386  29.59974  48.57867 148.00245
 Alpha virt. eigenvalues --  148.45451 149.21808 254.32901
          Condensed to atoms (all electrons):
               1          2          3          4          5          6
     1  C    4.565339   0.594909   0.325995  -0.051218  -0.028892  -0.006809
     2  O    0.594909   7.891826  -0.084063   0.007438  -0.000610   0.000319
     3  C    0.325995  -0.084063   5.142364   0.478718   0.389071  -0.048142
     4  C   -0.051218   0.007438   0.478718   4.868856  -0.055501   0.413133
     5  H   -0.028892  -0.000610   0.389071  -0.055501   0.589227   0.008660
     6  H   -0.006809   0.000319  -0.048142   0.413133   0.008660   0.602455
     7  H    0.003243  -0.000454  -0.034915   0.422150  -0.007422  -0.045633
     8  H    0.444144  -0.060917  -0.155669   0.022533   0.006201   0.007559
               7          8
     1  C    0.003243   0.444144
     2  O   -0.000454  -0.060917
     3  C   -0.034915  -0.155669
     4  C    0.422150   0.022533
     5  H   -0.007422   0.006201
     6  H   -0.045633   0.007559
     7  H    0.557848   0.000107
     8  H    0.000107   0.694212
 Mulliken charges:
               1
     1  C    0.153288
     2  O   -0.348448
     3  C   -0.013358
     4  C   -0.106109
     5  H    0.099266
     6  H    0.068457
     7  H    0.105076
     8  H    0.041829
 Sum of Mulliken charges =   0.00000
 Mulliken charges with hydrogens summed into heavy atoms:
               1
     1  C    0.195117
     2  O   -0.348448
     3  C    0.085908
     4  C    0.067424
 Electronic spatial extent (au):  <R**2>=            295.4455
 Charge=              0.0000 electrons
 Dipole moment (field-independent basis, Debye):
    X=             -3.7690    Y=              0.6292    Z=              0.2756  Tot=              3.8311
 Quadrupole moment (field-independent basis, Debye-Ang):
   XX=            -27.0025   YY=            -22.3711   ZZ=            -25.2022
   XY=              1.0984   XZ=              0.1962   YZ=             -0.3636
 Traceless Quadrupole moment (field-independent basis, Debye-Ang):
   XX=             -2.1439   YY=              2.4875   ZZ=             -0.3436
   XY=              1.0984   XZ=              0.1962   YZ=             -0.3636
 Octapole moment (field-independent basis, Debye-Ang**2):
  XXX=            -16.8700  YYY=             -0.7093  ZZZ=              0.0625  XYY=             -0.0038
  XXY=             -0.2308  XXZ=              0.0251  XZZ=              3.6989  YZZ=             -0.3097
  YYZ=              0.7486  XYZ=              0.3091
 Hexadecapole moment (field-independent basis, Debye-Ang**3):
 XXXX=           -291.6060 YYYY=            -59.6826 ZZZZ=            -27.8017 XXXY=              3.3941
 XXXZ=              0.5773 YYYX=             -0.1190 YYYZ=             -1.0604 ZZZX=             -0.4390
 ZZZY=             -0.4549 XXYY=            -58.6850 XXZZ=            -56.0823 YYZZ=            -16.1129
 XXYZ=             -0.5334 YYXZ=             -0.0924 ZZXY=             -0.4507
 N-N= 1.033602122028D+02 E-N=-6.545900343738D+02  KE= 1.908494430987D+02
 Leave Link  601 at Wed Aug 26 10:46:59 2020, MaxMem=  2097152000 cpu:         0.5
 (Enter /opt/cluster/programs/g09/g09_d.01/g09/l9999.exe)
 1\1\GINC-NODE36\SP\RB2PLYPD3-FC\def2QZVP\C3H4O1\BOITTIER\26-Aug-2020\0
 \\#p B2PLYPD3/Def2QZVP\\acrolein\\0,1\C,0,-5.031759,-1.387355,0.931415
 \O,0,-3.941624,-0.880135,0.626866\C,0,-5.197152,-2.767309,1.131306\C,0
 ,-6.351501,-3.346123,1.387968\H,0,-4.338758,-3.405591,1.38023\H,0,-7.2
 50512,-2.731976,1.302918\H,0,-6.541308,-4.376965,1.583454\H,0,-6.10864
 7,-0.709409,1.127573\\Version=ES64L-G09RevD.01\State=1-A\HF=-191.58910
 44\MP2=-191.8398634\RMSD=4.998e-09\PG=C01 [X(C3H4O1)]\\@


 THERE'S A SUCKER BORN EVERY MINUTE

              -- PHINEAS TAYLOR (P.T.) BARNUM
 Job cpu time:       0 days  0 hours 19 minutes 39.6 seconds.
 File lengths (MBytes):  RWF=     49 Int=      0 D2E=      0 Chk=      7 Scr=      1
 Normal termination of Gaussian 09 at Wed Aug 26 10:47:00 2020.
