 Entering Gaussian System, Link 0=/opt/cluster/programs/g09/g09_d.01/g09//g09
 Input=/home/boittier/MDCM/nms_sampling/acrolein_geom.xyz.dir/energies/acrolein_303_energy.com
 Output=/scratch/boittier/acrolein_303_energy/acrolein_303_energy.out
 Initial command:
 /opt/cluster/programs/g09/g09_d.01/g09/l1.exe "/scratch/boittier/acrolein_303_energy/Gau-50547.inp" -scrdir="/scratch/boittier/acrolein_303_energy/"
 Entering Link 1 = /opt/cluster/programs/g09/g09_d.01/g09/l1.exe PID=     50548.
  
 Copyright (c) 1988,1990,1992,1993,1995,1998,2003,2009,2013,
            Gaussian, Inc.  All Rights Reserved.
  
 This is part of the Gaussian(R) 09 program.  It is based on
 the Gaussian(R) 03 system (copyright 2003, Gaussian, Inc.),
 the Gaussian(R) 98 system (copyright 1998, Gaussian, Inc.),
 the Gaussian(R) 94 system (copyright 1995, Gaussian, Inc.),
 the Gaussian 92(TM) system (copyright 1992, Gaussian, Inc.),
 the Gaussian 90(TM) system (copyright 1990, Gaussian, Inc.),
 the Gaussian 88(TM) system (copyright 1988, Gaussian, Inc.),
 the Gaussian 86(TM) system (copyright 1986, Carnegie Mellon
 University), and the Gaussian 82(TM) system (copyright 1983,
 Carnegie Mellon University). Gaussian is a federally registered
 trademark of Gaussian, Inc.
  
 This software contains proprietary and confidential information,
 including trade secrets, belonging to Gaussian, Inc.
  
 This software is provided under written license and may be
 used, copied, transmitted, or stored only in accord with that
 written license.
  
 The following legend is applicable only to US Government
 contracts under FAR:
  
                    RESTRICTED RIGHTS LEGEND
  
 Use, reproduction and disclosure by the US Government is
 subject to restrictions as set forth in subparagraphs (a)
 and (c) of the Commercial Computer Software - Restricted
 Rights clause in FAR 52.227-19.
  
 Gaussian, Inc.
 340 Quinnipiac St., Bldg. 40, Wallingford CT 06492
  
  
 ---------------------------------------------------------------
 Warning -- This program may not be used in any manner that
 competes with the business of Gaussian, Inc. or will provide
 assistance to any competitor of Gaussian, Inc.  The licensee
 of this program is prohibited from giving any competitor of
 Gaussian, Inc. access to this program.  By using this program,
 the user acknowledges that Gaussian, Inc. is engaged in the
 business of creating and licensing software in the field of
 computational chemistry and represents and warrants to the
 licensee that it is not a competitor of Gaussian, Inc. and that
 it will not use this program in any manner prohibited above.
 ---------------------------------------------------------------
  

 Cite this work as:
 Gaussian 09, Revision D.01,
 M. J. Frisch, G. W. Trucks, H. B. Schlegel, G. E. Scuseria, 
 M. A. Robb, J. R. Cheeseman, G. Scalmani, V. Barone, B. Mennucci, 
 G. A. Petersson, H. Nakatsuji, M. Caricato, X. Li, H. P. Hratchian, 
 A. F. Izmaylov, J. Bloino, G. Zheng, J. L. Sonnenberg, M. Hada, 
 M. Ehara, K. Toyota, R. Fukuda, J. Hasegawa, M. Ishida, T. Nakajima, 
 Y. Honda, O. Kitao, H. Nakai, T. Vreven, J. A. Montgomery, Jr., 
 J. E. Peralta, F. Ogliaro, M. Bearpark, J. J. Heyd, E. Brothers, 
 K. N. Kudin, V. N. Staroverov, T. Keith, R. Kobayashi, J. Normand, 
 K. Raghavachari, A. Rendell, J. C. Burant, S. S. Iyengar, J. Tomasi, 
 M. Cossi, N. Rega, J. M. Millam, M. Klene, J. E. Knox, J. B. Cross, 
 V. Bakken, C. Adamo, J. Jaramillo, R. Gomperts, R. E. Stratmann, 
 O. Yazyev, A. J. Austin, R. Cammi, C. Pomelli, J. W. Ochterski, 
 R. L. Martin, K. Morokuma, V. G. Zakrzewski, G. A. Voth, 
 P. Salvador, J. J. Dannenberg, S. Dapprich, A. D. Daniels, 
 O. Farkas, J. B. Foresman, J. V. Ortiz, J. Cioslowski, 
 and D. J. Fox, Gaussian, Inc., Wallingford CT, 2013.
 
 ******************************************
 Gaussian 09:  ES64L-G09RevD.01 24-Apr-2013
                26-Aug-2020 
 ******************************************
 %chk=/home/boittier/MDCM/nms_sampling/acrolein_geom.xyz.dir/acrolein_303.chk
 %nproc=8
 Will use up to    8 processors via shared memory.
 %mem=16000MB
 --------------------
 #p B2PLYPD3/Def2QZVP
 --------------------
 1/38=1/1;
 2/12=2,17=6,18=5,40=1/2;
 3/5=45,7=101,11=9,16=1,25=1,30=1,74=-60/1,2,3;
 4//1;
 5/5=2,38=5/2;
 8/10=1/1;
 9/16=-3/6;
 6/7=2,8=2,9=2,10=2/1;
 99/5=1,9=1/99;
 Leave Link    1 at Wed Aug 26 15:12:00 2020, MaxMem=  2097152000 cpu:         0.2
 (Enter /opt/cluster/programs/g09/g09_d.01/g09/l101.exe)
 --------
 acrolein
 --------
 Symbolic Z-matrix:
 Charge =  0 Multiplicity = 1
 C                    -5.00598  -1.38021   0.90886 
 O                    -3.92815  -0.87257   0.63725 
 C                    -5.19898  -2.81651   1.17236 
 C                    -6.40371  -3.31012   1.38674 
 H                    -4.32634  -3.42739   1.14984 
 H                    -7.2219   -2.65773   1.39682 
 H                    -6.60444  -4.38717   1.48635 
 H                    -5.96479  -0.79159   1.00853 
 
 NAtoms=      8 NQM=        8 NQMF=       0 NMMI=      0 NMMIF=      0
                NMic=       0 NMicF=      0.
                    Isotopes and Nuclear Properties:
 (Nuclear quadrupole moments (NQMom) in fm**2, nuclear magnetic moments (NMagM)
  in nuclear magnetons)

  Atom         1           2           3           4           5           6           7           8
 IAtWgt=          12          16          12          12           1           1           1           1
 AtmWgt=  12.0000000  15.9949146  12.0000000  12.0000000   1.0078250   1.0078250   1.0078250   1.0078250
 NucSpn=           0           0           0           0           1           1           1           1
 AtZEff=   0.0000000   0.0000000   0.0000000   0.0000000   0.0000000   0.0000000   0.0000000   0.0000000
 NQMom=    0.0000000   0.0000000   0.0000000   0.0000000   0.0000000   0.0000000   0.0000000   0.0000000
 NMagM=    0.0000000   0.0000000   0.0000000   0.0000000   2.7928460   2.7928460   2.7928460   2.7928460
 AtZNuc=   6.0000000   8.0000000   6.0000000   6.0000000   1.0000000   1.0000000   1.0000000   1.0000000
 Leave Link  101 at Wed Aug 26 15:12:00 2020, MaxMem=  2097152000 cpu:         0.5
 (Enter /opt/cluster/programs/g09/g09_d.01/g09/l202.exe)
                          Input orientation:                          
 ---------------------------------------------------------------------
 Center     Atomic      Atomic             Coordinates (Angstroms)
 Number     Number       Type             X           Y           Z
 ---------------------------------------------------------------------
      1          6           0       -5.005978   -1.380214    0.908861
      2          8           0       -3.928149   -0.872573    0.637254
      3          6           0       -5.198976   -2.816510    1.172360
      4          6           0       -6.403706   -3.310116    1.386744
      5          1           0       -4.326342   -3.427391    1.149840
      6          1           0       -7.221900   -2.657727    1.396824
      7          1           0       -6.604443   -4.387172    1.486352
      8          1           0       -5.964789   -0.791594    1.008535
 ---------------------------------------------------------------------
                    Distance matrix (angstroms):
                    1          2          3          4          5
     1  C    0.000000
     2  O    1.221960   0.000000
     3  C    1.472965   2.383323   0.000000
     4  C    2.430337   3.554115   1.319463   0.000000
     5  H    2.170463   2.635981   1.065445   2.094115   0.000000
     6  H    2.603931   3.822632   2.041523   1.046496   3.006267
     7  H    3.454039   4.498436   2.130941   1.100121   2.494827
     8  H    1.129481   2.071789   2.171081   2.584307   3.106751
                    6          7          8
     6  H    0.000000
     7  H    1.838545   0.000000
     8  H    2.283320   3.683157   0.000000
 Stoichiometry    C3H4O
 Framework group  C1[X(C3H4O)]
 Deg. of freedom    18
 Full point group                 C1      NOp   1
 Largest Abelian subgroup         C1      NOp   1
 Largest concise Abelian subgroup C1      NOp   1
                         Standard orientation:                         
 ---------------------------------------------------------------------
 Center     Atomic      Atomic             Coordinates (Angstroms)
 Number     Number       Type             X           Y           Z
 ---------------------------------------------------------------------
      1          6           0       -0.670988    0.352884   -0.011783
      2          8           0       -1.794107   -0.127284    0.023252
      3          6           0        0.567438   -0.444367   -0.029611
      4          6           0        1.749919    0.139873    0.007608
      5          1           0        0.453069   -1.503565   -0.043466
      6          1           0        1.796113    1.185280    0.019639
      7          1           0        2.694366   -0.416974    0.098204
      8          1           0       -0.468911    1.463193   -0.057677
 ---------------------------------------------------------------------
 Rotational constants (GHZ):     48.5438070      4.6715920      4.2640704
 Leave Link  202 at Wed Aug 26 15:12:00 2020, MaxMem=  2097152000 cpu:         0.0
 (Enter /opt/cluster/programs/g09/g09_d.01/g09/l301.exe)
 Standard basis: def2QZVP (5D, 7F)
 Ernie: Thresh=  0.10000D-02 Tol=  0.10000D-05 Strict=F.
 There are   428 symmetry adapted cartesian basis functions of A   symmetry.
 There are   348 symmetry adapted basis functions of A   symmetry.
   348 basis functions,   520 primitive gaussians,   428 cartesian basis functions
    15 alpha electrons       15 beta electrons
       nuclear repulsion energy       103.2857127381 Hartrees.
 IExCor=  419 DFT=T Ex+Corr=B2PLYPD3 ExCW=0 ScaHFX=  0.530000
 ScaDFX=  0.470000  0.470000  0.730000  0.730000 ScalE2=  0.270000  0.270000
 IRadAn=      0 IRanWt=     -1 IRanGd=            0 ICorTp=0 IEmpDi=141
 NAtoms=    8 NActive=    8 NUniq=    8 SFac= 1.00D+00 NAtFMM=   60 NAOKFM=F Big=F
 Integral buffers will be    131072 words long.
 Regular integral format.
 Two-electron integral symmetry is turned on.
 R6Disp:  Grimme-D3(BJ) Dispersion energy=       -0.0035953169 Hartrees.
 Nuclear repulsion after empirical dispersion term =      103.2821174212 Hartrees.
 Leave Link  301 at Wed Aug 26 15:12:00 2020, MaxMem=  2097152000 cpu:         0.5
 (Enter /opt/cluster/programs/g09/g09_d.01/g09/l302.exe)
 NPDir=0 NMtPBC=     1 NCelOv=     1 NCel=       1 NClECP=     1 NCelD=      1
         NCelK=      1 NCelE2=     1 NClLst=     1 CellRange=     0.0.
 One-electron integrals computed using PRISM.
   1 Symmetry operations used in ECPInt.
 ECPInt:  NShTT=    5886 NPrTT=   14376 LenC2=    5780 LenP2D=   12189.
 LDataN:  DoStor=T MaxTD1= 8 Len=  415
 NBasis=   348 RedAO= T EigKep=  5.66D-05  NBF=   348
 NBsUse=   348 1.00D-06 EigRej= -1.00D+00 NBFU=   348
 Precomputing XC quadrature grid using
 IXCGrd= 4 IRadAn=           0 IRanWt=          -1 IRanGd=           0 AccXCQ= 0.00D+00.
 Generated NRdTot=       0 NPtTot=           0 NUsed=           0 NTot=          32
 NSgBfM=   428   428   428   428   428 MxSgAt=     8 MxSgA2=     8.
 Leave Link  302 at Wed Aug 26 15:12:01 2020, MaxMem=  2097152000 cpu:         2.8
 (Enter /opt/cluster/programs/g09/g09_d.01/g09/l303.exe)
 DipDrv:  MaxL=1.
 Leave Link  303 at Wed Aug 26 15:12:01 2020, MaxMem=  2097152000 cpu:         0.3
 (Enter /opt/cluster/programs/g09/g09_d.01/g09/l401.exe)
 ExpMin= 7.60D-02 ExpMax= 1.17D+05 ExpMxC= 1.13D+03 IAcc=2 IRadAn=         4 AccDes= 0.00D+00
 Harris functional with IExCor=  419 and IRadAn=       4 diagonalized for initial guess.
 HarFok:  IExCor=  419 AccDes= 0.00D+00 IRadAn=         4 IDoV= 1 UseB2=F ITyADJ=14
 ICtDFT=  3500011 ScaDFX=  1.000000  1.000000  1.000000  1.000000
 FoFCou: FMM=F IPFlag=           0 FMFlag=      100000 FMFlg1=           0
         NFxFlg=           0 DoJE=T BraDBF=F KetDBF=T FulRan=T
         wScrn=  0.000000 ICntrl=     500 IOpCl=  0 I1Cent=   200000004 NGrid=           0
         NMat0=    1 NMatS0=      1 NMatT0=    0 NMatD0=    1 NMtDS0=    0 NMtDT0=    0
 Petite list used in FoFCou.
 Harris En= -192.048057259424    
 JPrj=0 DoOrth=F DoCkMO=F.
 Leave Link  401 at Wed Aug 26 15:12:02 2020, MaxMem=  2097152000 cpu:         6.7
 (Enter /opt/cluster/programs/g09/g09_d.01/g09/l502.exe)
 Closed shell SCF:
 Using DIIS extrapolation, IDIIS=  1040.
 Integral symmetry usage will be decided dynamically.
 Keep R1 ints in memory in canonical form, NReq=1883905047.
 IVT=      574566 IEndB=      574566 NGot=  2097152000 MDV=   252723534
 LenX=   252723534 LenY=   252539909
 Requested convergence on RMS density matrix=1.00D-08 within 128 cycles.
 Requested convergence on MAX density matrix=1.00D-06.
 Requested convergence on             energy=1.00D-06.
 No special actions if energy rises.
 FoFCou: FMM=F IPFlag=           0 FMFlag=           0 FMFlg1=           0
         NFxFlg=           0 DoJE=F BraDBF=F KetDBF=F FulRan=T
         wScrn=  0.000000 ICntrl=     600 IOpCl=  0 I1Cent=           0 NGrid=           0
         NMat0=    1 NMatS0=  60726 NMatT0=    0 NMatD0=    1 NMtDS0=    0 NMtDT0=    0
 Symmetry not used in FoFCou.
 Integral accuracy reduced to 1.0D-05 until final iterations.

 Cycle   1  Pass 0  IDiag  1:
 E= -191.468057192826    
 DIIS: error= 2.78D-02 at cycle   1 NSaved=   1.
 NSaved= 1 IEnMin= 1 EnMin= -191.468057192826     IErMin= 1 ErrMin= 2.78D-02
 ErrMax= 2.78D-02  0.00D+00 EMaxC= 1.00D-01 BMatC= 2.60D-01 BMatP= 2.60D-01
 IDIUse=3 WtCom= 7.22D-01 WtEn= 2.78D-01
 Coeff-Com:  0.100D+01
 Coeff-En:   0.100D+01
 Coeff:      0.100D+01
 Gap=     0.294 Goal=   None    Shift=    0.000
 GapD=    0.294 DampG=1.000 DampE=0.500 DampFc=0.5000 IDamp=-1.
 Damping current iteration by 5.00D-01
 RMSDP=1.71D-03 MaxDP=2.03D-01              OVMax= 1.70D-01

 Cycle   2  Pass 0  IDiag  1:
 E= -191.539046630246     Delta-E=       -0.070989437419 Rises=F Damp=T
 DIIS: error= 9.66D-03 at cycle   2 NSaved=   2.
 NSaved= 2 IEnMin= 2 EnMin= -191.539046630246     IErMin= 2 ErrMin= 9.66D-03
 ErrMax= 9.66D-03  0.00D+00 EMaxC= 1.00D-01 BMatC= 3.40D-02 BMatP= 2.60D-01
 IDIUse=3 WtCom= 9.03D-01 WtEn= 9.66D-02
 Coeff-Com: -0.149D+00 0.115D+01
 Coeff-En:   0.000D+00 0.100D+01
 Coeff:     -0.134D+00 0.113D+01
 Gap=     0.351 Goal=   None    Shift=    0.000
 RMSDP=5.79D-04 MaxDP=6.80D-02 DE=-7.10D-02 OVMax= 1.36D-01

 Cycle   3  Pass 0  IDiag  1:
 E= -191.601598109275     Delta-E=       -0.062551479029 Rises=F Damp=F
 DIIS: error= 1.16D-02 at cycle   3 NSaved=   3.
 NSaved= 3 IEnMin= 3 EnMin= -191.601598109275     IErMin= 2 ErrMin= 9.66D-03
 ErrMax= 1.16D-02  0.00D+00 EMaxC= 1.00D-01 BMatC= 1.79D-02 BMatP= 3.40D-02
 IDIUse=3 WtCom= 8.84D-01 WtEn= 1.16D-01
 Coeff-Com: -0.189D+00 0.529D+00 0.660D+00
 Coeff-En:   0.000D+00 0.000D+00 0.100D+01
 Coeff:     -0.167D+00 0.468D+00 0.699D+00
 Gap=     0.336 Goal=   None    Shift=    0.000
 RMSDP=2.49D-04 MaxDP=1.78D-02 DE=-6.26D-02 OVMax= 4.95D-02

 Cycle   4  Pass 0  IDiag  1:
 E= -191.611285576824     Delta-E=       -0.009687467550 Rises=F Damp=F
 DIIS: error= 5.13D-03 at cycle   4 NSaved=   4.
 NSaved= 4 IEnMin= 4 EnMin= -191.611285576824     IErMin= 4 ErrMin= 5.13D-03
 ErrMax= 5.13D-03  0.00D+00 EMaxC= 1.00D-01 BMatC= 3.57D-03 BMatP= 1.79D-02
 IDIUse=3 WtCom= 9.49D-01 WtEn= 5.13D-02
 Coeff-Com: -0.577D-01 0.943D-01 0.370D+00 0.594D+00
 Coeff-En:   0.000D+00 0.000D+00 0.185D+00 0.815D+00
 Coeff:     -0.547D-01 0.895D-01 0.360D+00 0.605D+00
 Gap=     0.322 Goal=   None    Shift=    0.000
 RMSDP=1.04D-04 MaxDP=8.30D-03 DE=-9.69D-03 OVMax= 1.56D-02

 Cycle   5  Pass 0  IDiag  1:
 E= -191.614129448398     Delta-E=       -0.002843871573 Rises=F Damp=F
 DIIS: error= 3.32D-04 at cycle   5 NSaved=   5.
 NSaved= 5 IEnMin= 5 EnMin= -191.614129448398     IErMin= 5 ErrMin= 3.32D-04
 ErrMax= 3.32D-04  0.00D+00 EMaxC= 1.00D-01 BMatC= 1.38D-05 BMatP= 3.57D-03
 IDIUse=3 WtCom= 9.97D-01 WtEn= 3.32D-03
 Coeff-Com: -0.808D-02 0.100D-01 0.599D-01 0.134D+00 0.804D+00
 Coeff-En:   0.000D+00 0.000D+00 0.000D+00 0.000D+00 0.100D+01
 Coeff:     -0.805D-02 0.999D-02 0.597D-01 0.133D+00 0.805D+00
 Gap=     0.321 Goal=   None    Shift=    0.000
 RMSDP=7.89D-06 MaxDP=3.82D-04 DE=-2.84D-03 OVMax= 2.33D-03

 Initial convergence to 1.0D-05 achieved.  Increase integral accuracy.
 Cycle   6  Pass 1  IDiag  1:
 E= -191.614133341489     Delta-E=       -0.000003893092 Rises=F Damp=F
 DIIS: error= 1.11D-04 at cycle   1 NSaved=   1.
 NSaved= 1 IEnMin= 1 EnMin= -191.614133341489     IErMin= 1 ErrMin= 1.11D-04
 ErrMax= 1.11D-04  0.00D+00 EMaxC= 1.00D-01 BMatC= 1.75D-06 BMatP= 1.75D-06
 IDIUse=3 WtCom= 9.99D-01 WtEn= 1.11D-03
 Coeff-Com:  0.100D+01
 Coeff-En:   0.100D+01
 Coeff:      0.100D+01
 Gap=     0.322 Goal=   None    Shift=    0.000
 RMSDP=7.89D-06 MaxDP=3.82D-04 DE=-3.89D-06 OVMax= 7.95D-04

 Cycle   7  Pass 1  IDiag  1:
 E= -191.614134557085     Delta-E=       -0.000001215596 Rises=F Damp=F
 DIIS: error= 7.80D-05 at cycle   2 NSaved=   2.
 NSaved= 2 IEnMin= 2 EnMin= -191.614134557085     IErMin= 2 ErrMin= 7.80D-05
 ErrMax= 7.80D-05  0.00D+00 EMaxC= 1.00D-01 BMatC= 1.04D-06 BMatP= 1.75D-06
 IDIUse=1 WtCom= 1.00D+00 WtEn= 0.00D+00
 Coeff-Com:  0.429D+00 0.571D+00
 Coeff:      0.429D+00 0.571D+00
 Gap=     0.321 Goal=   None    Shift=    0.000
 RMSDP=1.86D-06 MaxDP=1.34D-04 DE=-1.22D-06 OVMax= 5.24D-04

 Cycle   8  Pass 1  IDiag  1:
 E= -191.614135534661     Delta-E=       -0.000000977576 Rises=F Damp=F
 DIIS: error= 1.62D-05 at cycle   3 NSaved=   3.
 NSaved= 3 IEnMin= 3 EnMin= -191.614135534661     IErMin= 3 ErrMin= 1.62D-05
 ErrMax= 1.62D-05  0.00D+00 EMaxC= 1.00D-01 BMatC= 7.08D-08 BMatP= 1.04D-06
 IDIUse=1 WtCom= 1.00D+00 WtEn= 0.00D+00
 Coeff-Com:  0.587D-01 0.183D+00 0.758D+00
 Coeff:      0.587D-01 0.183D+00 0.758D+00
 Gap=     0.321 Goal=   None    Shift=    0.000
 RMSDP=1.39D-06 MaxDP=1.54D-04 DE=-9.78D-07 OVMax= 1.17D-04

 Cycle   9  Pass 1  IDiag  1:
 E= -191.614135604761     Delta-E=       -0.000000070100 Rises=F Damp=F
 DIIS: error= 1.70D-05 at cycle   4 NSaved=   4.
 NSaved= 4 IEnMin= 4 EnMin= -191.614135604761     IErMin= 3 ErrMin= 1.62D-05
 ErrMax= 1.70D-05  0.00D+00 EMaxC= 1.00D-01 BMatC= 1.78D-08 BMatP= 7.08D-08
 IDIUse=1 WtCom= 1.00D+00 WtEn= 0.00D+00
 Coeff-Com: -0.109D+00-0.800D-01 0.382D+00 0.807D+00
 Coeff:     -0.109D+00-0.800D-01 0.382D+00 0.807D+00
 Gap=     0.322 Goal=   None    Shift=    0.000
 RMSDP=6.78D-07 MaxDP=6.95D-05 DE=-7.01D-08 OVMax= 1.10D-04

 Cycle  10  Pass 1  IDiag  1:
 E= -191.614135631735     Delta-E=       -0.000000026975 Rises=F Damp=F
 DIIS: error= 2.94D-06 at cycle   5 NSaved=   5.
 NSaved= 5 IEnMin= 5 EnMin= -191.614135631735     IErMin= 5 ErrMin= 2.94D-06
 ErrMax= 2.94D-06  0.00D+00 EMaxC= 1.00D-01 BMatC= 2.38D-09 BMatP= 1.78D-08
 IDIUse=1 WtCom= 1.00D+00 WtEn= 0.00D+00
 Coeff-Com: -0.493D-01-0.448D-01 0.923D-01 0.381D+00 0.621D+00
 Coeff:     -0.493D-01-0.448D-01 0.923D-01 0.381D+00 0.621D+00
 Gap=     0.322 Goal=   None    Shift=    0.000
 RMSDP=1.54D-07 MaxDP=1.62D-05 DE=-2.70D-08 OVMax= 2.01D-05

 Cycle  11  Pass 1  IDiag  1:
 E= -191.614135633582     Delta-E=       -0.000000001846 Rises=F Damp=F
 DIIS: error= 1.13D-06 at cycle   6 NSaved=   6.
 NSaved= 6 IEnMin= 6 EnMin= -191.614135633582     IErMin= 6 ErrMin= 1.13D-06
 ErrMax= 1.13D-06  0.00D+00 EMaxC= 1.00D-01 BMatC= 2.27D-10 BMatP= 2.38D-09
 IDIUse=1 WtCom= 1.00D+00 WtEn= 0.00D+00
 Coeff-Com:  0.688D-02 0.185D-02-0.656D-01-0.770D-02 0.199D+00 0.865D+00
 Coeff:      0.688D-02 0.185D-02-0.656D-01-0.770D-02 0.199D+00 0.865D+00
 Gap=     0.322 Goal=   None    Shift=    0.000
 RMSDP=5.85D-08 MaxDP=6.12D-06 DE=-1.85D-09 OVMax= 6.67D-06

 Cycle  12  Pass 1  IDiag  1:
 E= -191.614135633843     Delta-E=       -0.000000000261 Rises=F Damp=F
 DIIS: error= 2.90D-07 at cycle   7 NSaved=   7.
 NSaved= 7 IEnMin= 7 EnMin= -191.614135633843     IErMin= 7 ErrMin= 2.90D-07
 ErrMax= 2.90D-07  0.00D+00 EMaxC= 1.00D-01 BMatC= 1.76D-11 BMatP= 2.27D-10
 IDIUse=1 WtCom= 1.00D+00 WtEn= 0.00D+00
 Coeff-Com:  0.595D-02 0.379D-02-0.333D-01-0.236D-01 0.263D-01 0.317D+00
 Coeff-Com:  0.704D+00
 Coeff:      0.595D-02 0.379D-02-0.333D-01-0.236D-01 0.263D-01 0.317D+00
 Coeff:      0.704D+00
 Gap=     0.322 Goal=   None    Shift=    0.000
 RMSDP=8.95D-09 MaxDP=5.07D-07 DE=-2.61D-10 OVMax= 1.75D-06

 SCF Done:  E(RB2PLYPD3) =  -191.614135634     A.U. after   12 cycles
            NFock= 12  Conv=0.90D-08     -V/T= 2.0032
 KE= 1.909937016778D+02 PE=-6.546061900001D+02 EE= 1.687162352672D+02
 Leave Link  502 at Wed Aug 26 15:13:31 2020, MaxMem=  2097152000 cpu:       410.2
 (Enter /opt/cluster/programs/g09/g09_d.01/g09/l801.exe)
 DoSCS=T DFT=T ScalE2(SS,OS)=  0.270000  0.270000
 ExpMin= 7.60D-02 ExpMax= 1.17D+05 ExpMxC= 1.13D+03 IAcc=3 IRadAn=         5 AccDes= 0.00D+00
 HarFok:  IExCor=  205 AccDes= 0.00D+00 IRadAn=         5 IDoV=-2 UseB2=F ITyADJ=14
 ICtDFT= 12500011 ScaDFX=  1.000000  1.000000  1.000000  1.000000
 Largest valence mixing into a core orbital is  1.17D-04
 Largest core mixing into a valence orbital is  1.84D-05
 Range of M.O.s used for correlation:     5   348
 NBasis=   348 NAE=    15 NBE=    15 NFC=     4 NFV=     0
 NROrb=    344 NOA=    11 NOB=    11 NVA=   333 NVB=   333

 **** Warning!!: The largest alpha MO coefficient is  0.29685905D+02

 Leave Link  801 at Wed Aug 26 15:13:32 2020, MaxMem=  2097152000 cpu:         0.8
 (Enter /opt/cluster/programs/g09/g09_d.01/g09/l906.exe)
 DoSCS=T DFT=T ScalE2(SS,OS)=  0.270000  0.270000
 FulOut=F Deriv=F AODrv=F NAtomX=     8
   MMem=        1190  MDisk=          11 MDiskD=          11
  W3Min=     1567764 MinDsk=     2827057 NBas6D=         428
 NBas2D=       93150    NTT=       91806    LW2=     4508827
    MDV=  2096570670 MDiskM=       10875 NBas2p=       89469
 Fully direct method using O(OVN) memory.
 IMap=   1   2   3   4   5   6   7   8   9  10  11
 JobTyp=1 Pass  1:  I=   1 to  11 NPSUse=  8 ParTrn=T ParDer=T DoDerP=F.
 Spin components of T(2) and E(2):
     alpha-alpha T2 =       0.4396454446D-01 E2=     -0.2955973369D-01
     alpha-beta  T2 =       0.2670223651D+00 E2=     -0.1884502559D+00
     beta-beta   T2 =       0.4396454446D-01 E2=     -0.2955973369D-01
 The integrals were generated   1 times.
 E2(B2PLYPD3) =    -0.2475697232D+00 E(B2PLYPD3) =    -0.19186170535708D+03
 Leave Link  906 at Wed Aug 26 15:14:39 2020, MaxMem=  2097152000 cpu:       539.0
 (Enter /opt/cluster/programs/g09/g09_d.01/g09/l601.exe)
 Copying SCF densities to generalized density rwf, IOpCl= 0 IROHF=0.

 **********************************************************************

            Population analysis using the SCF density.

 **********************************************************************

 Orbital symmetries:
       Occupied  (A) (A) (A) (A) (A) (A) (A) (A) (A) (A) (A) (A)
                 (A) (A) (A)
       Virtual   (A) (A) (A) (A) (A) (A) (A) (A) (A) (A) (A) (A)
                 (A) (A) (A) (A) (A) (A) (A) (A) (A) (A) (A) (A)
                 (A) (A) (A) (A) (A) (A) (A) (A) (A) (A) (A) (A)
                 (A) (A) (A) (A) (A) (A) (A) (A) (A) (A) (A) (A)
                 (A) (A) (A) (A) (A) (A) (A) (A) (A) (A) (A) (A)
                 (A) (A) (A) (A) (A) (A) (A) (A) (A) (A) (A) (A)
                 (A) (A) (A) (A) (A) (A) (A) (A) (A) (A) (A) (A)
                 (A) (A) (A) (A) (A) (A) (A) (A) (A) (A) (A) (A)
                 (A) (A) (A) (A) (A) (A) (A) (A) (A) (A) (A) (A)
                 (A) (A) (A) (A) (A) (A) (A) (A) (A) (A) (A) (A)
                 (A) (A) (A) (A) (A) (A) (A) (A) (A) (A) (A) (A)
                 (A) (A) (A) (A) (A) (A) (A) (A) (A) (A) (A) (A)
                 (A) (A) (A) (A) (A) (A) (A) (A) (A) (A) (A) (A)
                 (A) (A) (A) (A) (A) (A) (A) (A) (A) (A) (A) (A)
                 (A) (A) (A) (A) (A) (A) (A) (A) (A) (A) (A) (A)
                 (A) (A) (A) (A) (A) (A) (A) (A) (A) (A) (A) (A)
                 (A) (A) (A) (A) (A) (A) (A) (A) (A) (A) (A) (A)
                 (A) (A) (A) (A) (A) (A) (A) (A) (A) (A) (A) (A)
                 (A) (A) (A) (A) (A) (A) (A) (A) (A) (A) (A) (A)
                 (A) (A) (A) (A) (A) (A) (A) (A) (A) (A) (A) (A)
                 (A) (A) (A) (A) (A) (A) (A) (A) (A) (A) (A) (A)
                 (A) (A) (A) (A) (A) (A) (A) (A) (A) (A) (A) (A)
                 (A) (A) (A) (A) (A) (A) (A) (A) (A) (A) (A) (A)
                 (A) (A) (A) (A) (A) (A) (A) (A) (A) (A) (A) (A)
                 (A) (A) (A) (A) (A) (A) (A) (A) (A) (A) (A) (A)
                 (A) (A) (A) (A) (A) (A) (A) (A) (A) (A) (A) (A)
                 (A) (A) (A) (A) (A) (A) (A) (A) (A) (A) (A) (A)
                 (A) (A) (A) (A) (A) (A) (A) (A) (A)
 The electronic state is 1-A.
 Alpha  occ. eigenvalues --  -19.73103 -10.72133 -10.65076 -10.64040  -1.18980
 Alpha  occ. eigenvalues --   -0.93519  -0.75468  -0.67202  -0.56492  -0.56395
 Alpha  occ. eigenvalues --   -0.50654  -0.47124  -0.46483  -0.34936  -0.33945
 Alpha virt. eigenvalues --   -0.01794   0.05755   0.07155   0.08079   0.09800
 Alpha virt. eigenvalues --    0.12636   0.13845   0.15319   0.17470   0.19801
 Alpha virt. eigenvalues --    0.20098   0.21549   0.25529   0.26432   0.28780
 Alpha virt. eigenvalues --    0.31941   0.33497   0.35294   0.37327   0.38682
 Alpha virt. eigenvalues --    0.39637   0.40729   0.43362   0.44621   0.46233
 Alpha virt. eigenvalues --    0.47079   0.48850   0.53927   0.54869   0.57267
 Alpha virt. eigenvalues --    0.58695   0.64029   0.65912   0.67127   0.70942
 Alpha virt. eigenvalues --    0.74938   0.76139   0.77932   0.80445   0.81020
 Alpha virt. eigenvalues --    0.81794   0.82451   0.83180   0.84314   0.86752
 Alpha virt. eigenvalues --    0.88887   0.91509   0.92569   0.93803   0.96159
 Alpha virt. eigenvalues --    0.96485   0.97341   1.00617   1.02384   1.06601
 Alpha virt. eigenvalues --    1.10602   1.12645   1.16177   1.17499   1.18431
 Alpha virt. eigenvalues --    1.20359   1.26688   1.28655   1.33417   1.41164
 Alpha virt. eigenvalues --    1.41535   1.47169   1.48127   1.54878   1.56998
 Alpha virt. eigenvalues --    1.61202   1.62506   1.65000   1.67576   1.68244
 Alpha virt. eigenvalues --    1.74943   1.75939   1.77042   1.82021   1.83207
 Alpha virt. eigenvalues --    1.86740   1.90970   1.91500   1.92737   1.93882
 Alpha virt. eigenvalues --    1.95958   1.99020   2.00736   2.01829   2.02794
 Alpha virt. eigenvalues --    2.05796   2.10230   2.11940   2.13688   2.14512
 Alpha virt. eigenvalues --    2.16828   2.19300   2.20788   2.23430   2.25878
 Alpha virt. eigenvalues --    2.28871   2.35022   2.35613   2.39311   2.42385
 Alpha virt. eigenvalues --    2.45910   2.46931   2.49802   2.50647   2.53991
 Alpha virt. eigenvalues --    2.55318   2.57629   2.59486   2.61639   2.64533
 Alpha virt. eigenvalues --    2.64887   2.66809   2.68006   2.70133   2.74508
 Alpha virt. eigenvalues --    2.76420   2.79271   2.85164   2.86848   2.88969
 Alpha virt. eigenvalues --    2.89894   2.96250   3.00010   3.02646   3.08494
 Alpha virt. eigenvalues --    3.16973   3.19150   3.26700   3.30041   3.33635
 Alpha virt. eigenvalues --    3.35787   3.41033   3.41861   3.44804   3.49609
 Alpha virt. eigenvalues --    3.50523   3.54969   3.61200   3.62479   3.66936
 Alpha virt. eigenvalues --    3.68134   3.72458   3.77321   3.84181   3.89664
 Alpha virt. eigenvalues --    3.95556   4.00358   4.03374   4.04039   4.05882
 Alpha virt. eigenvalues --    4.10727   4.19021   4.21403   4.26363   4.31338
 Alpha virt. eigenvalues --    4.40447   4.43233   4.55131   4.59918   4.63014
 Alpha virt. eigenvalues --    4.66587   4.84390   4.89496   4.91697   4.99261
 Alpha virt. eigenvalues --    5.04247   5.05229   5.08912   5.11395   5.12149
 Alpha virt. eigenvalues --    5.21073   5.25477   5.28733   5.35171   5.42586
 Alpha virt. eigenvalues --    5.45875   5.53833   5.54434   5.56524   5.59495
 Alpha virt. eigenvalues --    5.65029   5.69397   5.71243   5.72530   5.78866
 Alpha virt. eigenvalues --    5.79643   5.84799   5.85996   5.92814   5.94322
 Alpha virt. eigenvalues --    5.95983   5.97369   5.98019   6.06327   6.07708
 Alpha virt. eigenvalues --    6.11106   6.15195   6.15908   6.17989   6.19527
 Alpha virt. eigenvalues --    6.20262   6.22734   6.25321   6.28179   6.33701
 Alpha virt. eigenvalues --    6.35402   6.36809   6.38456   6.41151   6.46730
 Alpha virt. eigenvalues --    6.48234   6.51309   6.52783   6.53887   6.61306
 Alpha virt. eigenvalues --    6.64421   6.69681   6.72600   6.74371   6.80311
 Alpha virt. eigenvalues --    6.84877   6.85278   6.94945   6.98759   7.06048
 Alpha virt. eigenvalues --    7.08048   7.10276   7.13147   7.16416   7.20948
 Alpha virt. eigenvalues --    7.34746   7.40424   7.43879   7.48767   7.54736
 Alpha virt. eigenvalues --    7.58189   7.59102   7.59961   7.63528   7.66702
 Alpha virt. eigenvalues --    7.67766   7.69707   7.74453   7.76303   7.77951
 Alpha virt. eigenvalues --    7.85388   7.87458   7.90099   8.02911   8.04844
 Alpha virt. eigenvalues --    8.07356   8.08958   8.15455   8.17408   8.19898
 Alpha virt. eigenvalues --    8.23776   8.25134   8.28761   8.33975   8.35325
 Alpha virt. eigenvalues --    8.37052   8.40025   8.46771   8.56156   8.57744
 Alpha virt. eigenvalues --    8.59288   8.61909   8.64804   8.72028   8.74020
 Alpha virt. eigenvalues --    8.81431   8.87769   8.99861   9.01316   9.07183
 Alpha virt. eigenvalues --    9.08311   9.08658   9.22457   9.27479   9.32723
 Alpha virt. eigenvalues --    9.33335   9.44523   9.58111   9.68531   9.70104
 Alpha virt. eigenvalues --    9.81033   9.83949   9.87645   9.88872   9.93550
 Alpha virt. eigenvalues --    9.99182  10.17683  10.21528  10.23561  10.34795
 Alpha virt. eigenvalues --   10.38333  10.50657  10.59161  10.75160  10.96249
 Alpha virt. eigenvalues --   11.02091  11.24256  11.24636  11.28424  11.56518
 Alpha virt. eigenvalues --   11.64934  11.73058  11.85675  12.03769  12.06353
 Alpha virt. eigenvalues --   12.32139  12.35240  12.48134  12.51246  13.01195
 Alpha virt. eigenvalues --   13.15229  13.32260  13.75106  14.36448  14.63063
 Alpha virt. eigenvalues --   28.64373  28.85020  29.58221  48.63578 148.22786
 Alpha virt. eigenvalues --  148.40724 149.19993 254.39386
          Condensed to atoms (all electrons):
               1          2          3          4          5          6
     1  C    4.506924   0.616357   0.371115  -0.054769  -0.033446  -0.005071
     2  O    0.616357   7.880979  -0.088151   0.006667   0.005588   0.000461
     3  C    0.371115  -0.088151   5.152192   0.478832   0.368011  -0.056527
     4  C   -0.054769   0.006667   0.478832   4.868453  -0.038927   0.429254
     5  H   -0.033446   0.005588   0.368011  -0.038927   0.583967   0.005726
     6  H   -0.005071   0.000461  -0.056527   0.429254   0.005726   0.576768
     7  H    0.002590  -0.000503  -0.030464   0.416335  -0.005012  -0.040701
     8  H    0.441998  -0.069392  -0.165420   0.024791   0.008545   0.006615
               7          8
     1  C    0.002590   0.441998
     2  O   -0.000503  -0.069392
     3  C   -0.030464  -0.165420
     4  C    0.416335   0.024791
     5  H   -0.005012   0.008545
     6  H   -0.040701   0.006615
     7  H    0.556969  -0.000704
     8  H   -0.000704   0.686155
 Mulliken charges:
               1
     1  C    0.154302
     2  O   -0.352006
     3  C   -0.029588
     4  C   -0.130635
     5  H    0.105549
     6  H    0.083475
     7  H    0.101490
     8  H    0.067413
 Sum of Mulliken charges =   0.00000
 Mulliken charges with hydrogens summed into heavy atoms:
               1
     1  C    0.221715
     2  O   -0.352006
     3  C    0.075961
     4  C    0.054330
 Electronic spatial extent (au):  <R**2>=            297.6904
 Charge=              0.0000 electrons
 Dipole moment (field-independent basis, Debye):
    X=              3.5201    Y=              0.7578    Z=             -0.0196  Tot=              3.6008
 Quadrupole moment (field-independent basis, Debye-Ang):
   XX=            -27.4715   YY=            -21.8562   ZZ=            -25.1631
   XY=             -0.9357   XZ=              0.3723   YZ=             -0.0087
 Traceless Quadrupole moment (field-independent basis, Debye-Ang):
   XX=             -2.6413   YY=              2.9741   ZZ=             -0.3328
   XY=             -0.9357   XZ=              0.3723   YZ=             -0.0087
 Octapole moment (field-independent basis, Debye-Ang**2):
  XXX=             15.4447  YYY=             -0.1220  ZZZ=              0.1790  XYY=             -0.2202
  XXY=              0.3623  XXZ=              0.5282  XZZ=             -4.1409  YZZ=              0.1084
  YYZ=             -0.0816  XYZ=             -0.0899
 Hexadecapole moment (field-independent basis, Debye-Ang**3):
 XXXX=           -301.1353 YYYY=            -55.3748 ZZZZ=            -27.2931 XXXY=             -3.3315
 XXXZ=              2.4564 YYYX=              0.4421 YYYZ=              0.0324 ZZZX=              0.1660
 ZZZY=             -0.0077 XXYY=            -58.6449 XXZZ=            -57.0905 YYZZ=            -15.4006
 XXYZ=             -0.3249 YYXZ=              0.1545 ZZXY=              0.4587
 N-N= 1.032821174212D+02 E-N=-6.546061562142D+02  KE= 1.909937016778D+02
 Leave Link  601 at Wed Aug 26 15:14:39 2020, MaxMem=  2097152000 cpu:         0.6
 (Enter /opt/cluster/programs/g09/g09_d.01/g09/l9999.exe)
 1\1\GINC-NODE32\SP\RB2PLYPD3-FC\def2QZVP\C3H4O1\BOITTIER\26-Aug-2020\0
 \\#p B2PLYPD3/Def2QZVP\\acrolein\\0,1\C,0,-5.005978,-1.380214,0.908861
 \O,0,-3.928149,-0.872573,0.637254\C,0,-5.198976,-2.81651,1.17236\C,0,-
 6.403706,-3.310116,1.386744\H,0,-4.326342,-3.427391,1.14984\H,0,-7.221
 9,-2.657727,1.396824\H,0,-6.604443,-4.387172,1.486352\H,0,-5.964789,-0
 .791594,1.008535\\Version=ES64L-G09RevD.01\State=1-A\HF=-191.6141356\M
 P2=-191.8617054\RMSD=8.951e-09\PG=C01 [X(C3H4O1)]\\@


 A HARD FALL SHOULD MEAN A HIGH BOUNCE 
 IF ONE IS MADE OF THE RIGHT MATERIAL.

                -- THE CHEMIST ANALYST, MARCH 1950
 Job cpu time:       0 days  0 hours 16 minutes  2.5 seconds.
 File lengths (MBytes):  RWF=     49 Int=      0 D2E=      0 Chk=      7 Scr=      1
 Normal termination of Gaussian 09 at Wed Aug 26 15:14:40 2020.
