 Entering Gaussian System, Link 0=/opt/cluster/programs/g09/g09_d.01/g09//g09
 Input=/home/boittier/MDCM/nms_sampling/acrolein_geom.xyz.dir/energies/acrolein_2016_energy.com
 Output=/scratch/boittier/acrolein_2016_energy/acrolein_2016_energy.out
 Initial command:
 /opt/cluster/programs/g09/g09_d.01/g09/l1.exe "/scratch/boittier/acrolein_2016_energy/Gau-190051.inp" -scrdir="/scratch/boittier/acrolein_2016_energy/"
 Entering Link 1 = /opt/cluster/programs/g09/g09_d.01/g09/l1.exe PID=    190052.
  
 Copyright (c) 1988,1990,1992,1993,1995,1998,2003,2009,2013,
            Gaussian, Inc.  All Rights Reserved.
  
 This is part of the Gaussian(R) 09 program.  It is based on
 the Gaussian(R) 03 system (copyright 2003, Gaussian, Inc.),
 the Gaussian(R) 98 system (copyright 1998, Gaussian, Inc.),
 the Gaussian(R) 94 system (copyright 1995, Gaussian, Inc.),
 the Gaussian 92(TM) system (copyright 1992, Gaussian, Inc.),
 the Gaussian 90(TM) system (copyright 1990, Gaussian, Inc.),
 the Gaussian 88(TM) system (copyright 1988, Gaussian, Inc.),
 the Gaussian 86(TM) system (copyright 1986, Carnegie Mellon
 University), and the Gaussian 82(TM) system (copyright 1983,
 Carnegie Mellon University). Gaussian is a federally registered
 trademark of Gaussian, Inc.
  
 This software contains proprietary and confidential information,
 including trade secrets, belonging to Gaussian, Inc.
  
 This software is provided under written license and may be
 used, copied, transmitted, or stored only in accord with that
 written license.
  
 The following legend is applicable only to US Government
 contracts under FAR:
  
                    RESTRICTED RIGHTS LEGEND
  
 Use, reproduction and disclosure by the US Government is
 subject to restrictions as set forth in subparagraphs (a)
 and (c) of the Commercial Computer Software - Restricted
 Rights clause in FAR 52.227-19.
  
 Gaussian, Inc.
 340 Quinnipiac St., Bldg. 40, Wallingford CT 06492
  
  
 ---------------------------------------------------------------
 Warning -- This program may not be used in any manner that
 competes with the business of Gaussian, Inc. or will provide
 assistance to any competitor of Gaussian, Inc.  The licensee
 of this program is prohibited from giving any competitor of
 Gaussian, Inc. access to this program.  By using this program,
 the user acknowledges that Gaussian, Inc. is engaged in the
 business of creating and licensing software in the field of
 computational chemistry and represents and warrants to the
 licensee that it is not a competitor of Gaussian, Inc. and that
 it will not use this program in any manner prohibited above.
 ---------------------------------------------------------------
  

 Cite this work as:
 Gaussian 09, Revision D.01,
 M. J. Frisch, G. W. Trucks, H. B. Schlegel, G. E. Scuseria, 
 M. A. Robb, J. R. Cheeseman, G. Scalmani, V. Barone, B. Mennucci, 
 G. A. Petersson, H. Nakatsuji, M. Caricato, X. Li, H. P. Hratchian, 
 A. F. Izmaylov, J. Bloino, G. Zheng, J. L. Sonnenberg, M. Hada, 
 M. Ehara, K. Toyota, R. Fukuda, J. Hasegawa, M. Ishida, T. Nakajima, 
 Y. Honda, O. Kitao, H. Nakai, T. Vreven, J. A. Montgomery, Jr., 
 J. E. Peralta, F. Ogliaro, M. Bearpark, J. J. Heyd, E. Brothers, 
 K. N. Kudin, V. N. Staroverov, T. Keith, R. Kobayashi, J. Normand, 
 K. Raghavachari, A. Rendell, J. C. Burant, S. S. Iyengar, J. Tomasi, 
 M. Cossi, N. Rega, J. M. Millam, M. Klene, J. E. Knox, J. B. Cross, 
 V. Bakken, C. Adamo, J. Jaramillo, R. Gomperts, R. E. Stratmann, 
 O. Yazyev, A. J. Austin, R. Cammi, C. Pomelli, J. W. Ochterski, 
 R. L. Martin, K. Morokuma, V. G. Zakrzewski, G. A. Voth, 
 P. Salvador, J. J. Dannenberg, S. Dapprich, A. D. Daniels, 
 O. Farkas, J. B. Foresman, J. V. Ortiz, J. Cioslowski, 
 and D. J. Fox, Gaussian, Inc., Wallingford CT, 2013.
 
 ******************************************
 Gaussian 09:  ES64L-G09RevD.01 24-Apr-2013
                26-Aug-2020 
 ******************************************
 %chk=/home/boittier/MDCM/nms_sampling/acrolein_geom.xyz.dir/acrolein_2016.chk
 %nproc=8
 Will use up to    8 processors via shared memory.
 %mem=16000MB
 --------------------
 #p B2PLYPD3/Def2QZVP
 --------------------
 1/38=1/1;
 2/12=2,17=6,18=5,40=1/2;
 3/5=45,7=101,11=9,16=1,25=1,30=1,74=-60/1,2,3;
 4//1;
 5/5=2,38=5/2;
 8/10=1/1;
 9/16=-3/6;
 6/7=2,8=2,9=2,10=2/1;
 99/5=1,9=1/99;
 Leave Link    1 at Wed Aug 26 11:31:49 2020, MaxMem=  2097152000 cpu:         0.2
 (Enter /opt/cluster/programs/g09/g09_d.01/g09/l101.exe)
 --------
 acrolein
 --------
 Symbolic Z-matrix:
 Charge =  0 Multiplicity = 1
 C                    -5.00764  -1.39376   0.8686 
 O                    -3.9538   -0.87478   0.69464 
 C                    -5.17953  -2.79457   1.09589 
 C                    -6.37436  -3.30426   1.45672 
 H                    -4.40179  -3.44111   0.99933 
 H                    -7.19834  -2.60185   1.32939 
 H                    -6.66577  -4.5295    1.62617 
 H                    -5.98614  -0.80643   0.76219 
 
 NAtoms=      8 NQM=        8 NQMF=       0 NMMI=      0 NMMIF=      0
                NMic=       0 NMicF=      0.
                    Isotopes and Nuclear Properties:
 (Nuclear quadrupole moments (NQMom) in fm**2, nuclear magnetic moments (NMagM)
  in nuclear magnetons)

  Atom         1           2           3           4           5           6           7           8
 IAtWgt=          12          16          12          12           1           1           1           1
 AtmWgt=  12.0000000  15.9949146  12.0000000  12.0000000   1.0078250   1.0078250   1.0078250   1.0078250
 NucSpn=           0           0           0           0           1           1           1           1
 AtZEff=   0.0000000   0.0000000   0.0000000   0.0000000   0.0000000   0.0000000   0.0000000   0.0000000
 NQMom=    0.0000000   0.0000000   0.0000000   0.0000000   0.0000000   0.0000000   0.0000000   0.0000000
 NMagM=    0.0000000   0.0000000   0.0000000   0.0000000   2.7928460   2.7928460   2.7928460   2.7928460
 AtZNuc=   6.0000000   8.0000000   6.0000000   6.0000000   1.0000000   1.0000000   1.0000000   1.0000000
 Leave Link  101 at Wed Aug 26 11:31:49 2020, MaxMem=  2097152000 cpu:         0.5
 (Enter /opt/cluster/programs/g09/g09_d.01/g09/l202.exe)
                          Input orientation:                          
 ---------------------------------------------------------------------
 Center     Atomic      Atomic             Coordinates (Angstroms)
 Number     Number       Type             X           Y           Z
 ---------------------------------------------------------------------
      1          6           0       -5.007637   -1.393762    0.868604
      2          8           0       -3.953795   -0.874777    0.694635
      3          6           0       -5.179532   -2.794568    1.095888
      4          6           0       -6.374361   -3.304263    1.456716
      5          1           0       -4.401792   -3.441110    0.999326
      6          1           0       -7.198335   -2.601847    1.329387
      7          1           0       -6.665771   -4.529502    1.626169
      8          1           0       -5.986140   -0.806434    0.762194
 ---------------------------------------------------------------------
                    Distance matrix (angstroms):
                    1          2          3          4          5
     1  C    0.000000
     2  O    1.187516   0.000000
     3  C    1.429498   2.312798   0.000000
     4  C    2.421533   3.513162   1.348185   0.000000
     5  H    2.139105   2.622900   1.015982   2.029522   0.000000
     6  H    2.543806   3.729976   2.041379   1.090199   2.938359
     7  H    3.627145   4.645383   2.345229   1.270765   2.589040
     8  H    1.146187   2.034616   2.171323   2.621493   3.083490
                    6          7          8
     6  H    0.000000
     7  H    2.021771   0.000000
     8  H    2.239338   3.881957   0.000000
 Stoichiometry    C3H4O
 Framework group  C1[X(C3H4O)]
 Deg. of freedom    18
 Full point group                 C1      NOp   1
 Largest Abelian subgroup         C1      NOp   1
 Largest concise Abelian subgroup C1      NOp   1
                         Standard orientation:                         
 ---------------------------------------------------------------------
 Center     Atomic      Atomic             Coordinates (Angstroms)
 Number     Number       Type             X           Y           Z
 ---------------------------------------------------------------------
      1          6           0       -0.673970    0.336264    0.016584
      2          8           0       -1.763895   -0.131963   -0.038388
      3          6           0        0.527046   -0.438541    0.043047
      4          6           0        1.738377    0.142934   -0.067254
      5          1           0        0.497148   -1.449712    0.137178
      6          1           0        1.708899    1.225885    0.054737
      7          1           0        2.871914   -0.427091    0.003523
      8          1           0       -0.515516    1.462677    0.157403
 ---------------------------------------------------------------------
 Rotational constants (GHZ):     49.0918892      4.7510805      4.3427926
 Leave Link  202 at Wed Aug 26 11:31:49 2020, MaxMem=  2097152000 cpu:         0.0
 (Enter /opt/cluster/programs/g09/g09_d.01/g09/l301.exe)
 Standard basis: def2QZVP (5D, 7F)
 Ernie: Thresh=  0.10000D-02 Tol=  0.10000D-05 Strict=F.
 There are   428 symmetry adapted cartesian basis functions of A   symmetry.
 There are   348 symmetry adapted basis functions of A   symmetry.
   348 basis functions,   520 primitive gaussians,   428 cartesian basis functions
    15 alpha electrons       15 beta electrons
       nuclear repulsion energy       103.9188853082 Hartrees.
 IExCor=  419 DFT=T Ex+Corr=B2PLYPD3 ExCW=0 ScaHFX=  0.530000
 ScaDFX=  0.470000  0.470000  0.730000  0.730000 ScalE2=  0.270000  0.270000
 IRadAn=      0 IRanWt=     -1 IRanGd=            0 ICorTp=0 IEmpDi=141
 NAtoms=    8 NActive=    8 NUniq=    8 SFac= 1.00D+00 NAtFMM=   60 NAOKFM=F Big=F
 Integral buffers will be    131072 words long.
 Regular integral format.
 Two-electron integral symmetry is turned on.
 R6Disp:  Grimme-D3(BJ) Dispersion energy=       -0.0035996445 Hartrees.
 Nuclear repulsion after empirical dispersion term =      103.9152856637 Hartrees.
 Leave Link  301 at Wed Aug 26 11:31:49 2020, MaxMem=  2097152000 cpu:         0.4
 (Enter /opt/cluster/programs/g09/g09_d.01/g09/l302.exe)
 NPDir=0 NMtPBC=     1 NCelOv=     1 NCel=       1 NClECP=     1 NCelD=      1
         NCelK=      1 NCelE2=     1 NClLst=     1 CellRange=     0.0.
 One-electron integrals computed using PRISM.
   1 Symmetry operations used in ECPInt.
 ECPInt:  NShTT=    5886 NPrTT=   14376 LenC2=    5777 LenP2D=   12187.
 LDataN:  DoStor=T MaxTD1= 8 Len=  415
 NBasis=   348 RedAO= T EigKep=  5.89D-05  NBF=   348
 NBsUse=   348 1.00D-06 EigRej= -1.00D+00 NBFU=   348
 Precomputing XC quadrature grid using
 IXCGrd= 4 IRadAn=           0 IRanWt=          -1 IRanGd=           0 AccXCQ= 0.00D+00.
 Generated NRdTot=       0 NPtTot=           0 NUsed=           0 NTot=          32
 NSgBfM=   428   428   428   428   428 MxSgAt=     8 MxSgA2=     8.
 Leave Link  302 at Wed Aug 26 11:31:50 2020, MaxMem=  2097152000 cpu:         2.5
 (Enter /opt/cluster/programs/g09/g09_d.01/g09/l303.exe)
 DipDrv:  MaxL=1.
 Leave Link  303 at Wed Aug 26 11:31:50 2020, MaxMem=  2097152000 cpu:         0.3
 (Enter /opt/cluster/programs/g09/g09_d.01/g09/l401.exe)
 ExpMin= 7.60D-02 ExpMax= 1.17D+05 ExpMxC= 1.13D+03 IAcc=2 IRadAn=         4 AccDes= 0.00D+00
 Harris functional with IExCor=  419 and IRadAn=       4 diagonalized for initial guess.
 HarFok:  IExCor=  419 AccDes= 0.00D+00 IRadAn=         4 IDoV= 1 UseB2=F ITyADJ=14
 ICtDFT=  3500011 ScaDFX=  1.000000  1.000000  1.000000  1.000000
 FoFCou: FMM=F IPFlag=           0 FMFlag=      100000 FMFlg1=           0
         NFxFlg=           0 DoJE=T BraDBF=F KetDBF=T FulRan=T
         wScrn=  0.000000 ICntrl=     500 IOpCl=  0 I1Cent=   200000004 NGrid=           0
         NMat0=    1 NMatS0=      1 NMatT0=    0 NMatD0=    1 NMtDS0=    0 NMtDT0=    0
 Petite list used in FoFCou.
 Harris En= -192.018076585767    
 JPrj=0 DoOrth=F DoCkMO=F.
 Leave Link  401 at Wed Aug 26 11:31:51 2020, MaxMem=  2097152000 cpu:         6.1
 (Enter /opt/cluster/programs/g09/g09_d.01/g09/l502.exe)
 Closed shell SCF:
 Using DIIS extrapolation, IDIIS=  1040.
 Integral symmetry usage will be decided dynamically.
 Keep R1 ints in memory in canonical form, NReq=1883905047.
 IVT=      574566 IEndB=      574566 NGot=  2097152000 MDV=   252723534
 LenX=   252723534 LenY=   252539909
 Requested convergence on RMS density matrix=1.00D-08 within 128 cycles.
 Requested convergence on MAX density matrix=1.00D-06.
 Requested convergence on             energy=1.00D-06.
 No special actions if energy rises.
 FoFCou: FMM=F IPFlag=           0 FMFlag=           0 FMFlg1=           0
         NFxFlg=           0 DoJE=F BraDBF=F KetDBF=F FulRan=T
         wScrn=  0.000000 ICntrl=     600 IOpCl=  0 I1Cent=           0 NGrid=           0
         NMat0=    1 NMatS0=  60726 NMatT0=    0 NMatD0=    1 NMtDS0=    0 NMtDT0=    0
 Symmetry not used in FoFCou.
 Integral accuracy reduced to 1.0D-05 until final iterations.

 Cycle   1  Pass 0  IDiag  1:
 E= -191.439062231269    
 DIIS: error= 2.51D-02 at cycle   1 NSaved=   1.
 NSaved= 1 IEnMin= 1 EnMin= -191.439062231269     IErMin= 1 ErrMin= 2.51D-02
 ErrMax= 2.51D-02  0.00D+00 EMaxC= 1.00D-01 BMatC= 2.62D-01 BMatP= 2.62D-01
 IDIUse=3 WtCom= 7.49D-01 WtEn= 2.51D-01
 Coeff-Com:  0.100D+01
 Coeff-En:   0.100D+01
 Coeff:      0.100D+01
 Gap=     0.273 Goal=   None    Shift=    0.000
 GapD=    0.273 DampG=1.000 DampE=0.500 DampFc=0.5000 IDamp=-1.
 Damping current iteration by 5.00D-01
 RMSDP=2.20D-03 MaxDP=2.97D-01              OVMax= 2.11D-01

 Cycle   2  Pass 0  IDiag  1:
 E= -191.510028940951     Delta-E=       -0.070966709682 Rises=F Damp=T
 DIIS: error= 9.57D-03 at cycle   2 NSaved=   2.
 NSaved= 2 IEnMin= 2 EnMin= -191.510028940951     IErMin= 2 ErrMin= 9.57D-03
 ErrMax= 9.57D-03  0.00D+00 EMaxC= 1.00D-01 BMatC= 3.36D-02 BMatP= 2.62D-01
 IDIUse=3 WtCom= 9.04D-01 WtEn= 9.57D-02
 Coeff-Com: -0.137D+00 0.114D+01
 Coeff-En:   0.000D+00 0.100D+01
 Coeff:     -0.124D+00 0.112D+01
 Gap=     0.399 Goal=   None    Shift=    0.000
 RMSDP=7.75D-04 MaxDP=1.09D-01 DE=-7.10D-02 OVMax= 1.09D-01

 Cycle   3  Pass 0  IDiag  1:
 E= -191.575629023323     Delta-E=       -0.065600082373 Rises=F Damp=F
 DIIS: error= 9.46D-03 at cycle   3 NSaved=   3.
 NSaved= 3 IEnMin= 3 EnMin= -191.575629023323     IErMin= 3 ErrMin= 9.46D-03
 ErrMax= 9.46D-03  0.00D+00 EMaxC= 1.00D-01 BMatC= 1.63D-02 BMatP= 3.36D-02
 IDIUse=3 WtCom= 9.05D-01 WtEn= 9.46D-02
 Coeff-Com: -0.182D+00 0.501D+00 0.681D+00
 Coeff-En:   0.000D+00 0.000D+00 0.100D+01
 Coeff:     -0.165D+00 0.454D+00 0.711D+00
 Gap=     0.329 Goal=   None    Shift=    0.000
 RMSDP=2.51D-04 MaxDP=2.05D-02 DE=-6.56D-02 OVMax= 5.30D-02

 Cycle   4  Pass 0  IDiag  1:
 E= -191.584849490721     Delta-E=       -0.009220467398 Rises=F Damp=F
 DIIS: error= 3.97D-03 at cycle   4 NSaved=   4.
 NSaved= 4 IEnMin= 4 EnMin= -191.584849490721     IErMin= 4 ErrMin= 3.97D-03
 ErrMax= 3.97D-03  0.00D+00 EMaxC= 1.00D-01 BMatC= 2.97D-03 BMatP= 1.63D-02
 IDIUse=3 WtCom= 9.60D-01 WtEn= 3.97D-02
 Coeff-Com: -0.620D-01 0.102D+00 0.369D+00 0.591D+00
 Coeff-En:   0.000D+00 0.000D+00 0.157D+00 0.843D+00
 Coeff:     -0.595D-01 0.978D-01 0.361D+00 0.601D+00
 Gap=     0.319 Goal=   None    Shift=    0.000
 RMSDP=9.80D-05 MaxDP=7.85D-03 DE=-9.22D-03 OVMax= 1.36D-02

 Cycle   5  Pass 0  IDiag  1:
 E= -191.587314557319     Delta-E=       -0.002465066598 Rises=F Damp=F
 DIIS: error= 3.31D-04 at cycle   5 NSaved=   5.
 NSaved= 5 IEnMin= 5 EnMin= -191.587314557319     IErMin= 5 ErrMin= 3.31D-04
 ErrMax= 3.31D-04  0.00D+00 EMaxC= 1.00D-01 BMatC= 1.27D-05 BMatP= 2.97D-03
 IDIUse=3 WtCom= 9.97D-01 WtEn= 3.31D-03
 Coeff-Com: -0.629D-02 0.710D-02 0.448D-01 0.107D+00 0.847D+00
 Coeff-En:   0.000D+00 0.000D+00 0.000D+00 0.000D+00 0.100D+01
 Coeff:     -0.627D-02 0.707D-02 0.447D-01 0.107D+00 0.848D+00
 Gap=     0.318 Goal=   None    Shift=    0.000
 RMSDP=1.57D-05 MaxDP=1.57D-03 DE=-2.47D-03 OVMax= 2.07D-03

 Cycle   6  Pass 0  IDiag  1:
 E= -191.587327497161     Delta-E=       -0.000012939842 Rises=F Damp=F
 DIIS: error= 1.83D-04 at cycle   6 NSaved=   6.
 NSaved= 6 IEnMin= 6 EnMin= -191.587327497161     IErMin= 6 ErrMin= 1.83D-04
 ErrMax= 1.83D-04  0.00D+00 EMaxC= 1.00D-01 BMatC= 3.38D-06 BMatP= 1.27D-05
 IDIUse=3 WtCom= 9.98D-01 WtEn= 1.83D-03
 Coeff-Com:  0.391D-02-0.782D-02-0.183D-01-0.179D-01 0.350D+00 0.690D+00
 Coeff-En:   0.000D+00 0.000D+00 0.000D+00 0.000D+00 0.000D+00 0.100D+01
 Coeff:      0.391D-02-0.780D-02-0.183D-01-0.178D-01 0.349D+00 0.691D+00
 Gap=     0.318 Goal=   None    Shift=    0.000
 RMSDP=6.82D-06 MaxDP=6.45D-04 DE=-1.29D-05 OVMax= 1.37D-03

 Initial convergence to 1.0D-05 achieved.  Increase integral accuracy.
 Cycle   7  Pass 1  IDiag  1:
 E= -191.587311326725     Delta-E=        0.000016170436 Rises=F Damp=F
 DIIS: error= 4.59D-05 at cycle   1 NSaved=   1.
 NSaved= 1 IEnMin= 1 EnMin= -191.587311326725     IErMin= 1 ErrMin= 4.59D-05
 ErrMax= 4.59D-05  0.00D+00 EMaxC= 1.00D-01 BMatC= 5.57D-07 BMatP= 5.57D-07
 IDIUse=1 WtCom= 1.00D+00 WtEn= 0.00D+00
 Coeff-Com:  0.100D+01
 Coeff:      0.100D+01
 Gap=     0.319 Goal=   None    Shift=    0.000
 RMSDP=6.82D-06 MaxDP=6.45D-04 DE= 1.62D-05 OVMax= 4.83D-04

 Cycle   8  Pass 1  IDiag  1:
 E= -191.587311424782     Delta-E=       -0.000000098057 Rises=F Damp=F
 DIIS: error= 5.83D-05 at cycle   2 NSaved=   2.
 NSaved= 2 IEnMin= 2 EnMin= -191.587311424782     IErMin= 1 ErrMin= 4.59D-05
 ErrMax= 5.83D-05  0.00D+00 EMaxC= 1.00D-01 BMatC= 5.49D-07 BMatP= 5.57D-07
 IDIUse=1 WtCom= 1.00D+00 WtEn= 0.00D+00
 Coeff-Com:  0.498D+00 0.502D+00
 Coeff:      0.498D+00 0.502D+00
 Gap=     0.319 Goal=   None    Shift=    0.000
 RMSDP=1.30D-06 MaxDP=9.81D-05 DE=-9.81D-08 OVMax= 4.67D-04

 Cycle   9  Pass 1  IDiag  1:
 E= -191.587312005207     Delta-E=       -0.000000580425 Rises=F Damp=F
 DIIS: error= 8.88D-06 at cycle   3 NSaved=   3.
 NSaved= 3 IEnMin= 3 EnMin= -191.587312005207     IErMin= 3 ErrMin= 8.88D-06
 ErrMax= 8.88D-06  0.00D+00 EMaxC= 1.00D-01 BMatC= 2.46D-08 BMatP= 5.49D-07
 IDIUse=1 WtCom= 1.00D+00 WtEn= 0.00D+00
 Coeff-Com: -0.112D+00 0.817D-01 0.103D+01
 Coeff:     -0.112D+00 0.817D-01 0.103D+01
 Gap=     0.319 Goal=   None    Shift=    0.000
 RMSDP=9.79D-07 MaxDP=1.09D-04 DE=-5.80D-07 OVMax= 8.65D-05

 Cycle  10  Pass 1  IDiag  1:
 E= -191.587312038691     Delta-E=       -0.000000033484 Rises=F Damp=F
 DIIS: error= 5.29D-06 at cycle   4 NSaved=   4.
 NSaved= 4 IEnMin= 4 EnMin= -191.587312038691     IErMin= 4 ErrMin= 5.29D-06
 ErrMax= 5.29D-06  0.00D+00 EMaxC= 1.00D-01 BMatC= 3.72D-09 BMatP= 2.46D-08
 IDIUse=1 WtCom= 1.00D+00 WtEn= 0.00D+00
 Coeff-Com: -0.922D-01 0.829D-02 0.420D+00 0.664D+00
 Coeff:     -0.922D-01 0.829D-02 0.420D+00 0.664D+00
 Gap=     0.319 Goal=   None    Shift=    0.000
 RMSDP=1.72D-07 MaxDP=1.50D-05 DE=-3.35D-08 OVMax= 3.24D-05

 Cycle  11  Pass 1  IDiag  1:
 E= -191.587312042660     Delta-E=       -0.000000003968 Rises=F Damp=F
 DIIS: error= 1.85D-06 at cycle   5 NSaved=   5.
 NSaved= 5 IEnMin= 5 EnMin= -191.587312042660     IErMin= 5 ErrMin= 1.85D-06
 ErrMax= 1.85D-06  0.00D+00 EMaxC= 1.00D-01 BMatC= 1.04D-09 BMatP= 3.72D-09
 IDIUse=1 WtCom= 1.00D+00 WtEn= 0.00D+00
 Coeff-Com: -0.137D-01-0.958D-02-0.960D-01 0.333D+00 0.786D+00
 Coeff:     -0.137D-01-0.958D-02-0.960D-01 0.333D+00 0.786D+00
 Gap=     0.319 Goal=   None    Shift=    0.000
 RMSDP=1.66D-07 MaxDP=1.86D-05 DE=-3.97D-09 OVMax= 1.68D-05

 Cycle  12  Pass 1  IDiag  1:
 E= -191.587312043630     Delta-E=       -0.000000000970 Rises=F Damp=F
 DIIS: error= 3.50D-07 at cycle   6 NSaved=   6.
 NSaved= 6 IEnMin= 6 EnMin= -191.587312043630     IErMin= 6 ErrMin= 3.50D-07
 ErrMax= 3.50D-07  0.00D+00 EMaxC= 1.00D-01 BMatC= 3.01D-11 BMatP= 1.04D-09
 IDIUse=1 WtCom= 1.00D+00 WtEn= 0.00D+00
 Coeff-Com:  0.248D-02-0.269D-02-0.673D-01 0.696D-01 0.250D+00 0.747D+00
 Coeff:      0.248D-02-0.269D-02-0.673D-01 0.696D-01 0.250D+00 0.747D+00
 Gap=     0.319 Goal=   None    Shift=    0.000
 RMSDP=1.97D-08 MaxDP=1.60D-06 DE=-9.70D-10 OVMax= 3.54D-06

 Cycle  13  Pass 1  IDiag  1:
 E= -191.587312043665     Delta-E=       -0.000000000036 Rises=F Damp=F
 DIIS: error= 9.46D-08 at cycle   7 NSaved=   7.
 NSaved= 7 IEnMin= 7 EnMin= -191.587312043665     IErMin= 7 ErrMin= 9.46D-08
 ErrMax= 9.46D-08  0.00D+00 EMaxC= 1.00D-01 BMatC= 1.92D-12 BMatP= 3.01D-11
 IDIUse=1 WtCom= 1.00D+00 WtEn= 0.00D+00
 Coeff-Com:  0.142D-02 0.296D-03-0.828D-02-0.476D-02-0.149D-02 0.157D+00
 Coeff-Com:  0.856D+00
 Coeff:      0.142D-02 0.296D-03-0.828D-02-0.476D-02-0.149D-02 0.157D+00
 Coeff:      0.856D+00
 Gap=     0.319 Goal=   None    Shift=    0.000
 RMSDP=5.89D-09 MaxDP=1.84D-07 DE=-3.58D-11 OVMax= 1.62D-06

 SCF Done:  E(RB2PLYPD3) =  -191.587312044     A.U. after   13 cycles
            NFock= 13  Conv=0.59D-08     -V/T= 2.0033
 KE= 1.909535533084D+02 PE=-6.557781556772D+02 EE= 1.693220046613D+02
 Leave Link  502 at Wed Aug 26 11:32:53 2020, MaxMem=  2097152000 cpu:       251.9
 (Enter /opt/cluster/programs/g09/g09_d.01/g09/l801.exe)
 DoSCS=T DFT=T ScalE2(SS,OS)=  0.270000  0.270000
 ExpMin= 7.60D-02 ExpMax= 1.17D+05 ExpMxC= 1.13D+03 IAcc=3 IRadAn=         5 AccDes= 0.00D+00
 HarFok:  IExCor=  205 AccDes= 0.00D+00 IRadAn=         5 IDoV=-2 UseB2=F ITyADJ=14
 ICtDFT= 12500011 ScaDFX=  1.000000  1.000000  1.000000  1.000000
 DSYEVD-2 returned Info=        1739 IAlg= 4 N=    57 NDim=    57 NE2=    36785415 trying  DSYEV.
 Largest valence mixing into a core orbital is  1.17D-04
 Largest core mixing into a valence orbital is  1.88D-05
 Range of M.O.s used for correlation:     5   348
 NBasis=   348 NAE=    15 NBE=    15 NFC=     4 NFV=     0
 NROrb=    344 NOA=    11 NOB=    11 NVA=   333 NVB=   333

 **** Warning!!: The largest alpha MO coefficient is  0.25192488D+02

 Leave Link  801 at Wed Aug 26 11:32:53 2020, MaxMem=  2097152000 cpu:         1.0
 (Enter /opt/cluster/programs/g09/g09_d.01/g09/l906.exe)
 DoSCS=T DFT=T ScalE2(SS,OS)=  0.270000  0.270000
 FulOut=F Deriv=F AODrv=F NAtomX=     8
   MMem=        1190  MDisk=          11 MDiskD=          11
  W3Min=     1567764 MinDsk=     2827057 NBas6D=         428
 NBas2D=       93150    NTT=       91806    LW2=     4508827
    MDV=  2096571470 MDiskM=       10875 NBas2p=       89197
 Fully direct method using O(OVN) memory.
 IMap=   1   2   3   4   5   6   7   8   9  10  11
 JobTyp=1 Pass  1:  I=   1 to  11 NPSUse=  8 ParTrn=T ParDer=T DoDerP=F.
 Spin components of T(2) and E(2):
     alpha-alpha T2 =       0.4408006302D-01 E2=     -0.2957710381D-01
     alpha-beta  T2 =       0.2709542441D+00 E2=     -0.1888152015D+00
     beta-beta   T2 =       0.4408006302D-01 E2=     -0.2957710381D-01
 The integrals were generated   1 times.
 E2(B2PLYPD3) =    -0.2479694091D+00 E(B2PLYPD3) =    -0.19183528145279D+03
 Leave Link  906 at Wed Aug 26 11:33:43 2020, MaxMem=  2097152000 cpu:       401.2
 (Enter /opt/cluster/programs/g09/g09_d.01/g09/l601.exe)
 Copying SCF densities to generalized density rwf, IOpCl= 0 IROHF=0.

 **********************************************************************

            Population analysis using the SCF density.

 **********************************************************************

 Orbital symmetries:
       Occupied  (A) (A) (A) (A) (A) (A) (A) (A) (A) (A) (A) (A)
                 (A) (A) (A)
       Virtual   (A) (A) (A) (A) (A) (A) (A) (A) (A) (A) (A) (A)
                 (A) (A) (A) (A) (A) (A) (A) (A) (A) (A) (A) (A)
                 (A) (A) (A) (A) (A) (A) (A) (A) (A) (A) (A) (A)
                 (A) (A) (A) (A) (A) (A) (A) (A) (A) (A) (A) (A)
                 (A) (A) (A) (A) (A) (A) (A) (A) (A) (A) (A) (A)
                 (A) (A) (A) (A) (A) (A) (A) (A) (A) (A) (A) (A)
                 (A) (A) (A) (A) (A) (A) (A) (A) (A) (A) (A) (A)
                 (A) (A) (A) (A) (A) (A) (A) (A) (A) (A) (A) (A)
                 (A) (A) (A) (A) (A) (A) (A) (A) (A) (A) (A) (A)
                 (A) (A) (A) (A) (A) (A) (A) (A) (A) (A) (A) (A)
                 (A) (A) (A) (A) (A) (A) (A) (A) (A) (A) (A) (A)
                 (A) (A) (A) (A) (A) (A) (A) (A) (A) (A) (A) (A)
                 (A) (A) (A) (A) (A) (A) (A) (A) (A) (A) (A) (A)
                 (A) (A) (A) (A) (A) (A) (A) (A) (A) (A) (A) (A)
                 (A) (A) (A) (A) (A) (A) (A) (A) (A) (A) (A) (A)
                 (A) (A) (A) (A) (A) (A) (A) (A) (A) (A) (A) (A)
                 (A) (A) (A) (A) (A) (A) (A) (A) (A) (A) (A) (A)
                 (A) (A) (A) (A) (A) (A) (A) (A) (A) (A) (A) (A)
                 (A) (A) (A) (A) (A) (A) (A) (A) (A) (A) (A) (A)
                 (A) (A) (A) (A) (A) (A) (A) (A) (A) (A) (A) (A)
                 (A) (A) (A) (A) (A) (A) (A) (A) (A) (A) (A) (A)
                 (A) (A) (A) (A) (A) (A) (A) (A) (A) (A) (A) (A)
                 (A) (A) (A) (A) (A) (A) (A) (A) (A) (A) (A) (A)
                 (A) (A) (A) (A) (A) (A) (A) (A) (A) (A) (A) (A)
                 (A) (A) (A) (A) (A) (A) (A) (A) (A) (A) (A) (A)
                 (A) (A) (A) (A) (A) (A) (A) (A) (A) (A) (A) (A)
                 (A) (A) (A) (A) (A) (A) (A) (A) (A) (A) (A) (A)
                 (A) (A) (A) (A) (A) (A) (A) (A) (A)
 The electronic state is 1-A.
 Alpha  occ. eigenvalues --  -19.72818 -10.71492 -10.67440 -10.63621  -1.21126
 Alpha  occ. eigenvalues --   -0.93290  -0.74425  -0.67449  -0.56794  -0.55466
 Alpha  occ. eigenvalues --   -0.50140  -0.47682  -0.45855  -0.34551  -0.33868
 Alpha virt. eigenvalues --   -0.02006   0.05105   0.06852   0.08571   0.09593
 Alpha virt. eigenvalues --    0.12034   0.13935   0.15248   0.18061   0.19486
 Alpha virt. eigenvalues --    0.20094   0.20314   0.25286   0.25654   0.28663
 Alpha virt. eigenvalues --    0.29206   0.33108   0.34118   0.35661   0.37567
 Alpha virt. eigenvalues --    0.38650   0.41271   0.42114   0.44072   0.46754
 Alpha virt. eigenvalues --    0.48720   0.51720   0.53524   0.54895   0.58180
 Alpha virt. eigenvalues --    0.61601   0.64332   0.64816   0.67097   0.71155
 Alpha virt. eigenvalues --    0.73826   0.76995   0.77932   0.79606   0.80066
 Alpha virt. eigenvalues --    0.80395   0.82389   0.83811   0.84231   0.86984
 Alpha virt. eigenvalues --    0.89780   0.91972   0.92822   0.94220   0.95358
 Alpha virt. eigenvalues --    0.96851   0.97862   1.00306   1.02501   1.05942
 Alpha virt. eigenvalues --    1.07570   1.10670   1.14958   1.16251   1.18370
 Alpha virt. eigenvalues --    1.23428   1.25125   1.29899   1.32196   1.36571
 Alpha virt. eigenvalues --    1.42652   1.45640   1.47484   1.50975   1.55426
 Alpha virt. eigenvalues --    1.57385   1.59248   1.65506   1.68478   1.70934
 Alpha virt. eigenvalues --    1.71994   1.76985   1.79166   1.82075   1.84636
 Alpha virt. eigenvalues --    1.87344   1.91023   1.92475   1.92831   1.94066
 Alpha virt. eigenvalues --    1.97350   1.98739   1.98945   2.00979   2.04055
 Alpha virt. eigenvalues --    2.08463   2.09037   2.11418   2.12875   2.14458
 Alpha virt. eigenvalues --    2.18561   2.19602   2.20429   2.23471   2.25432
 Alpha virt. eigenvalues --    2.28863   2.33362   2.34855   2.37414   2.41163
 Alpha virt. eigenvalues --    2.44473   2.44804   2.47166   2.50870   2.52853
 Alpha virt. eigenvalues --    2.54818   2.56032   2.57302   2.60770   2.61724
 Alpha virt. eigenvalues --    2.63499   2.65016   2.66634   2.68905   2.71348
 Alpha virt. eigenvalues --    2.74535   2.77603   2.80489   2.84157   2.86471
 Alpha virt. eigenvalues --    2.89051   2.95599   2.97873   3.00495   3.09888
 Alpha virt. eigenvalues --    3.13849   3.14501   3.22319   3.26101   3.28806
 Alpha virt. eigenvalues --    3.31672   3.36065   3.39561   3.43491   3.45674
 Alpha virt. eigenvalues --    3.46204   3.49704   3.57912   3.61649   3.64644
 Alpha virt. eigenvalues --    3.66397   3.71146   3.73242   3.87962   3.90973
 Alpha virt. eigenvalues --    3.92554   3.95071   4.00329   4.02073   4.05735
 Alpha virt. eigenvalues --    4.08981   4.19498   4.22104   4.23897   4.32685
 Alpha virt. eigenvalues --    4.35914   4.40761   4.53838   4.60530   4.63041
 Alpha virt. eigenvalues --    4.67641   4.82554   4.89091   4.94214   4.98781
 Alpha virt. eigenvalues --    5.03654   5.04641   5.10682   5.12618   5.17861
 Alpha virt. eigenvalues --    5.21395   5.27776   5.29701   5.32288   5.41042
 Alpha virt. eigenvalues --    5.42320   5.49477   5.53972   5.54766   5.57981
 Alpha virt. eigenvalues --    5.59273   5.64698   5.70057   5.74837   5.76887
 Alpha virt. eigenvalues --    5.81034   5.84416   5.85560   5.90589   5.91684
 Alpha virt. eigenvalues --    5.94873   5.96282   5.98391   5.99939   6.03594
 Alpha virt. eigenvalues --    6.07400   6.09417   6.12300   6.13565   6.15465
 Alpha virt. eigenvalues --    6.17702   6.20136   6.22428   6.23703   6.28172
 Alpha virt. eigenvalues --    6.30557   6.32237   6.35013   6.39844   6.42896
 Alpha virt. eigenvalues --    6.43760   6.48137   6.50640   6.54202   6.57923
 Alpha virt. eigenvalues --    6.60277   6.64407   6.66961   6.74147   6.75218
 Alpha virt. eigenvalues --    6.78069   6.82334   6.84871   6.92612   6.95988
 Alpha virt. eigenvalues --    7.01336   7.07179   7.11062   7.13718   7.18265
 Alpha virt. eigenvalues --    7.19009   7.35015   7.40431   7.44649   7.49784
 Alpha virt. eigenvalues --    7.51753   7.55119   7.59077   7.60154   7.65280
 Alpha virt. eigenvalues --    7.66193   7.68518   7.70663   7.75807   7.79258
 Alpha virt. eigenvalues --    7.82755   7.86790   7.88418   7.92216   7.97693
 Alpha virt. eigenvalues --    8.00685   8.05630   8.10496   8.12653   8.16934
 Alpha virt. eigenvalues --    8.18928   8.22455   8.24206   8.26584   8.28755
 Alpha virt. eigenvalues --    8.32399   8.36067   8.40320   8.46291   8.53895
 Alpha virt. eigenvalues --    8.55753   8.60015   8.61482   8.64945   8.73916
 Alpha virt. eigenvalues --    8.75410   8.81361   8.84642   8.92398   9.01652
 Alpha virt. eigenvalues --    9.02771   9.06101   9.08383   9.10301   9.16362
 Alpha virt. eigenvalues --    9.27154   9.31872   9.37371   9.49000   9.61072
 Alpha virt. eigenvalues --    9.71853   9.75282   9.78293   9.80786   9.88636
 Alpha virt. eigenvalues --    9.97500  10.06293  10.18065  10.24377  10.31798
 Alpha virt. eigenvalues --   10.42591  10.48771  10.55231  10.58310  10.70332
 Alpha virt. eigenvalues --   10.98492  11.16736  11.25565  11.25808  11.36157
 Alpha virt. eigenvalues --   11.58167  11.68781  11.79731  12.05517  12.14037
 Alpha virt. eigenvalues --   12.22479  12.36360  12.39664  12.45389  12.56488
 Alpha virt. eigenvalues --   12.79431  13.49644  13.91656  14.34513  14.90058
 Alpha virt. eigenvalues --   28.59271  28.86080  29.38438  48.70142 148.17541
 Alpha virt. eigenvalues --  148.42176 148.99578 254.46901
          Condensed to atoms (all electrons):
               1          2          3          4          5          6
     1  C    4.517496   0.620610   0.331695  -0.044845  -0.034145  -0.006297
     2  O    0.620610   7.869393  -0.087928   0.006179   0.002822   0.000262
     3  C    0.331695  -0.087928   5.203758   0.463294   0.370233  -0.056710
     4  C   -0.044845   0.006179   0.463294   4.912229  -0.043294   0.409268
     5  H   -0.034145   0.002822   0.370233  -0.043294   0.586707   0.007428
     6  H   -0.006297   0.000262  -0.056710   0.409268   0.007428   0.597638
     7  H    0.001913  -0.000339  -0.020022   0.396339  -0.004830  -0.037205
     8  H    0.465251  -0.079813  -0.177895   0.025337   0.006815   0.007345
               7          8
     1  C    0.001913   0.465251
     2  O   -0.000339  -0.079813
     3  C   -0.020022  -0.177895
     4  C    0.396339   0.025337
     5  H   -0.004830   0.006815
     6  H   -0.037205   0.007345
     7  H    0.572313  -0.000490
     8  H   -0.000490   0.698510
 Mulliken charges:
               1
     1  C    0.148321
     2  O   -0.331186
     3  C   -0.026425
     4  C   -0.124506
     5  H    0.108265
     6  H    0.078270
     7  H    0.092321
     8  H    0.054939
 Sum of Mulliken charges =   0.00000
 Mulliken charges with hydrogens summed into heavy atoms:
               1
     1  C    0.203261
     2  O   -0.331186
     3  C    0.081840
     4  C    0.046085
 Electronic spatial extent (au):  <R**2>=            295.4191
 Charge=              0.0000 electrons
 Dipole moment (field-independent basis, Debye):
    X=              3.3604    Y=              0.6484    Z=              0.3218  Tot=              3.4375
 Quadrupole moment (field-independent basis, Debye-Ang):
   XX=            -27.0146   YY=            -22.2184   ZZ=            -25.2713
   XY=             -1.2687   XZ=             -0.0029   YZ=             -0.0364
 Traceless Quadrupole moment (field-independent basis, Debye-Ang):
   XX=             -2.1798   YY=              2.6164   ZZ=             -0.4365
   XY=             -1.2687   XZ=             -0.0029   YZ=             -0.0364
 Octapole moment (field-independent basis, Debye-Ang**2):
  XXX=             15.0388  YYY=             -0.3868  ZZZ=              0.2213  XYY=             -0.8933
  XXY=             -0.5590  XXZ=              0.8092  XZZ=             -4.9121  YZZ=             -0.0279
  YYZ=              0.7635  XYZ=              0.0980
 Hexadecapole moment (field-independent basis, Debye-Ang**3):
 XXXX=           -293.9693 YYYY=            -56.2258 ZZZZ=            -27.9159 XXXY=             -7.0356
 XXXZ=              1.0808 YYYX=              0.0680 YYYZ=              0.0111 ZZZX=              0.5902
 ZZZY=             -0.1058 XXYY=            -59.5149 XXZZ=            -58.2422 YYZZ=            -15.4292
 XXYZ=              0.1459 YYXZ=              0.5578 ZZXY=              0.4518
 N-N= 1.039152856637D+02 E-N=-6.557781525778D+02  KE= 1.909535533084D+02
 Leave Link  601 at Wed Aug 26 11:33:44 2020, MaxMem=  2097152000 cpu:         0.5
 (Enter /opt/cluster/programs/g09/g09_d.01/g09/l9999.exe)
 1\1\GINC-NODE34\SP\RB2PLYPD3-FC\def2QZVP\C3H4O1\BOITTIER\26-Aug-2020\0
 \\#p B2PLYPD3/Def2QZVP\\acrolein\\0,1\C,0,-5.007637,-1.393762,0.868604
 \O,0,-3.953795,-0.874777,0.694635\C,0,-5.179532,-2.794568,1.095888\C,0
 ,-6.374361,-3.304263,1.456716\H,0,-4.401792,-3.44111,0.999326\H,0,-7.1
 98335,-2.601847,1.329387\H,0,-6.665771,-4.529502,1.626169\H,0,-5.98614
 ,-0.806434,0.762194\\Version=ES64L-G09RevD.01\State=1-A\HF=-191.587312
 \MP2=-191.8352815\RMSD=5.892e-09\PG=C01 [X(C3H4O1)]\\@


 MEMORIES ARE LIKE AN ENGLISH GRAMMER LESSON -
 PRESENT TENSE, AND PAST PERFECT.
 Job cpu time:       0 days  0 hours 11 minutes  5.3 seconds.
 File lengths (MBytes):  RWF=     49 Int=      0 D2E=      0 Chk=      7 Scr=      1
 Normal termination of Gaussian 09 at Wed Aug 26 11:33:44 2020.
