 Entering Gaussian System, Link 0=/opt/cluster/programs/g09/g09_d.01/g09//g09
 Input=/home/boittier/MDCM/nms_sampling/acrolein_geom.xyz.dir/energies/acrolein_1173_energy.com
 Output=/scratch/boittier/acrolein_1173_energy/acrolein_1173_energy.out
 Initial command:
 /opt/cluster/programs/g09/g09_d.01/g09/l1.exe "/scratch/boittier/acrolein_1173_energy/Gau-32527.inp" -scrdir="/scratch/boittier/acrolein_1173_energy/"
 Entering Link 1 = /opt/cluster/programs/g09/g09_d.01/g09/l1.exe PID=     32528.
  
 Copyright (c) 1988,1990,1992,1993,1995,1998,2003,2009,2013,
            Gaussian, Inc.  All Rights Reserved.
  
 This is part of the Gaussian(R) 09 program.  It is based on
 the Gaussian(R) 03 system (copyright 2003, Gaussian, Inc.),
 the Gaussian(R) 98 system (copyright 1998, Gaussian, Inc.),
 the Gaussian(R) 94 system (copyright 1995, Gaussian, Inc.),
 the Gaussian 92(TM) system (copyright 1992, Gaussian, Inc.),
 the Gaussian 90(TM) system (copyright 1990, Gaussian, Inc.),
 the Gaussian 88(TM) system (copyright 1988, Gaussian, Inc.),
 the Gaussian 86(TM) system (copyright 1986, Carnegie Mellon
 University), and the Gaussian 82(TM) system (copyright 1983,
 Carnegie Mellon University). Gaussian is a federally registered
 trademark of Gaussian, Inc.
  
 This software contains proprietary and confidential information,
 including trade secrets, belonging to Gaussian, Inc.
  
 This software is provided under written license and may be
 used, copied, transmitted, or stored only in accord with that
 written license.
  
 The following legend is applicable only to US Government
 contracts under FAR:
  
                    RESTRICTED RIGHTS LEGEND
  
 Use, reproduction and disclosure by the US Government is
 subject to restrictions as set forth in subparagraphs (a)
 and (c) of the Commercial Computer Software - Restricted
 Rights clause in FAR 52.227-19.
  
 Gaussian, Inc.
 340 Quinnipiac St., Bldg. 40, Wallingford CT 06492
  
  
 ---------------------------------------------------------------
 Warning -- This program may not be used in any manner that
 competes with the business of Gaussian, Inc. or will provide
 assistance to any competitor of Gaussian, Inc.  The licensee
 of this program is prohibited from giving any competitor of
 Gaussian, Inc. access to this program.  By using this program,
 the user acknowledges that Gaussian, Inc. is engaged in the
 business of creating and licensing software in the field of
 computational chemistry and represents and warrants to the
 licensee that it is not a competitor of Gaussian, Inc. and that
 it will not use this program in any manner prohibited above.
 ---------------------------------------------------------------
  

 Cite this work as:
 Gaussian 09, Revision D.01,
 M. J. Frisch, G. W. Trucks, H. B. Schlegel, G. E. Scuseria, 
 M. A. Robb, J. R. Cheeseman, G. Scalmani, V. Barone, B. Mennucci, 
 G. A. Petersson, H. Nakatsuji, M. Caricato, X. Li, H. P. Hratchian, 
 A. F. Izmaylov, J. Bloino, G. Zheng, J. L. Sonnenberg, M. Hada, 
 M. Ehara, K. Toyota, R. Fukuda, J. Hasegawa, M. Ishida, T. Nakajima, 
 Y. Honda, O. Kitao, H. Nakai, T. Vreven, J. A. Montgomery, Jr., 
 J. E. Peralta, F. Ogliaro, M. Bearpark, J. J. Heyd, E. Brothers, 
 K. N. Kudin, V. N. Staroverov, T. Keith, R. Kobayashi, J. Normand, 
 K. Raghavachari, A. Rendell, J. C. Burant, S. S. Iyengar, J. Tomasi, 
 M. Cossi, N. Rega, J. M. Millam, M. Klene, J. E. Knox, J. B. Cross, 
 V. Bakken, C. Adamo, J. Jaramillo, R. Gomperts, R. E. Stratmann, 
 O. Yazyev, A. J. Austin, R. Cammi, C. Pomelli, J. W. Ochterski, 
 R. L. Martin, K. Morokuma, V. G. Zakrzewski, G. A. Voth, 
 P. Salvador, J. J. Dannenberg, S. Dapprich, A. D. Daniels, 
 O. Farkas, J. B. Foresman, J. V. Ortiz, J. Cioslowski, 
 and D. J. Fox, Gaussian, Inc., Wallingford CT, 2013.
 
 ******************************************
 Gaussian 09:  ES64L-G09RevD.01 24-Apr-2013
                26-Aug-2020 
 ******************************************
 %chk=/home/boittier/MDCM/nms_sampling/acrolein_geom.xyz.dir/acrolein_1173.chk
 %nproc=8
 Will use up to    8 processors via shared memory.
 %mem=16000MB
 --------------------
 #p B2PLYPD3/Def2QZVP
 --------------------
 1/38=1/1;
 2/12=2,17=6,18=5,40=1/2;
 3/5=45,7=101,11=9,16=1,25=1,30=1,74=-60/1,2,3;
 4//1;
 5/5=2,38=5/2;
 8/10=1/1;
 9/16=-3/6;
 6/7=2,8=2,9=2,10=2/1;
 99/5=1,9=1/99;
 Leave Link    1 at Wed Aug 26 09:45:44 2020, MaxMem=  2097152000 cpu:         0.3
 (Enter /opt/cluster/programs/g09/g09_d.01/g09/l101.exe)
 --------
 acrolein
 --------
 Symbolic Z-matrix:
 Charge =  0 Multiplicity = 1
 C                    -5.00796  -1.38504   0.9314 
 O                    -3.94008  -0.8569    0.62342 
 C                    -5.18655  -2.8462    1.18955 
 C                    -6.4158   -3.30194   1.37292 
 H                    -4.26472  -3.45122   1.10147 
 H                    -7.26232  -2.65138   1.35729 
 H                    -6.49953  -4.28704   1.50493 
 H                    -5.88752  -0.8149    0.99622 
 
 NAtoms=      8 NQM=        8 NQMF=       0 NMMI=      0 NMMIF=      0
                NMic=       0 NMicF=      0.
                    Isotopes and Nuclear Properties:
 (Nuclear quadrupole moments (NQMom) in fm**2, nuclear magnetic moments (NMagM)
  in nuclear magnetons)

  Atom         1           2           3           4           5           6           7           8
 IAtWgt=          12          16          12          12           1           1           1           1
 AtmWgt=  12.0000000  15.9949146  12.0000000  12.0000000   1.0078250   1.0078250   1.0078250   1.0078250
 NucSpn=           0           0           0           0           1           1           1           1
 AtZEff=   0.0000000   0.0000000   0.0000000   0.0000000   0.0000000   0.0000000   0.0000000   0.0000000
 NQMom=    0.0000000   0.0000000   0.0000000   0.0000000   0.0000000   0.0000000   0.0000000   0.0000000
 NMagM=    0.0000000   0.0000000   0.0000000   0.0000000   2.7928460   2.7928460   2.7928460   2.7928460
 AtZNuc=   6.0000000   8.0000000   6.0000000   6.0000000   1.0000000   1.0000000   1.0000000   1.0000000
 Leave Link  101 at Wed Aug 26 09:45:44 2020, MaxMem=  2097152000 cpu:         0.5
 (Enter /opt/cluster/programs/g09/g09_d.01/g09/l202.exe)
                          Input orientation:                          
 ---------------------------------------------------------------------
 Center     Atomic      Atomic             Coordinates (Angstroms)
 Number     Number       Type             X           Y           Z
 ---------------------------------------------------------------------
      1          6           0       -5.007959   -1.385036    0.931397
      2          8           0       -3.940083   -0.856901    0.623418
      3          6           0       -5.186546   -2.846201    1.189552
      4          6           0       -6.415803   -3.301937    1.372924
      5          1           0       -4.264721   -3.451223    1.101475
      6          1           0       -7.262315   -2.651383    1.357288
      7          1           0       -6.499525   -4.287040    1.504925
      8          1           0       -5.887518   -0.814896    0.996221
 ---------------------------------------------------------------------
                    Distance matrix (angstroms):
                    1          2          3          4          5
     1  C    0.000000
     2  O    1.230503   0.000000
     3  C    1.494503   2.414848   0.000000
     4  C    2.418983   3.559375   1.323780   0.000000
     5  H    2.202376   2.657900   1.106151   2.173275   0.000000
     6  H    2.620523   3.846551   2.091628   1.067730   3.112998
     7  H    3.312904   4.369628   1.974688   0.997427   2.419858
     8  H    1.050184   1.983242   2.157531   2.570285   3.097542
                    6          7          8
     6  H    0.000000
     7  H    1.810806   0.000000
     8  H    2.322309   3.562179   0.000000
 Stoichiometry    C3H4O
 Framework group  C1[X(C3H4O)]
 Deg. of freedom    18
 Full point group                 C1      NOp   1
 Largest Abelian subgroup         C1      NOp   1
 Largest concise Abelian subgroup C1      NOp   1
                         Standard orientation:                         
 ---------------------------------------------------------------------
 Center     Atomic      Atomic             Coordinates (Angstroms)
 Number     Number       Type             X           Y           Z
 ---------------------------------------------------------------------
      1          6           0        0.659383    0.351531    0.035147
      2          8           0        1.797598   -0.110806   -0.034479
      3          6           0       -0.589179   -0.469797    0.042395
      4          6           0       -1.751384    0.160701   -0.021988
      5          1           0       -0.428160   -1.563207   -0.003416
      6          1           0       -1.809025    1.226194   -0.060054
      7          1           0       -2.560960   -0.421095   -0.053005
      8          1           0        0.504443    1.389948    0.058985
 ---------------------------------------------------------------------
 Rotational constants (GHZ):     46.7744140      4.6805384      4.2598214
 Leave Link  202 at Wed Aug 26 09:45:44 2020, MaxMem=  2097152000 cpu:         0.0
 (Enter /opt/cluster/programs/g09/g09_d.01/g09/l301.exe)
 Standard basis: def2QZVP (5D, 7F)
 Ernie: Thresh=  0.10000D-02 Tol=  0.10000D-05 Strict=F.
 There are   428 symmetry adapted cartesian basis functions of A   symmetry.
 There are   348 symmetry adapted basis functions of A   symmetry.
   348 basis functions,   520 primitive gaussians,   428 cartesian basis functions
    15 alpha electrons       15 beta electrons
       nuclear repulsion energy       103.2912525102 Hartrees.
 IExCor=  419 DFT=T Ex+Corr=B2PLYPD3 ExCW=0 ScaHFX=  0.530000
 ScaDFX=  0.470000  0.470000  0.730000  0.730000 ScalE2=  0.270000  0.270000
 IRadAn=      0 IRanWt=     -1 IRanGd=            0 ICorTp=0 IEmpDi=141
 NAtoms=    8 NActive=    8 NUniq=    8 SFac= 1.00D+00 NAtFMM=   60 NAOKFM=F Big=F
 Integral buffers will be    131072 words long.
 Regular integral format.
 Two-electron integral symmetry is turned on.
 R6Disp:  Grimme-D3(BJ) Dispersion energy=       -0.0036040611 Hartrees.
 Nuclear repulsion after empirical dispersion term =      103.2876484491 Hartrees.
 Leave Link  301 at Wed Aug 26 09:45:44 2020, MaxMem=  2097152000 cpu:         0.4
 (Enter /opt/cluster/programs/g09/g09_d.01/g09/l302.exe)
 NPDir=0 NMtPBC=     1 NCelOv=     1 NCel=       1 NClECP=     1 NCelD=      1
         NCelK=      1 NCelE2=     1 NClLst=     1 CellRange=     0.0.
 One-electron integrals computed using PRISM.
   1 Symmetry operations used in ECPInt.
 ECPInt:  NShTT=    5886 NPrTT=   14376 LenC2=    5781 LenP2D=   12196.
 LDataN:  DoStor=T MaxTD1= 8 Len=  415
 NBasis=   348 RedAO= T EigKep=  5.67D-05  NBF=   348
 NBsUse=   348 1.00D-06 EigRej= -1.00D+00 NBFU=   348
 Precomputing XC quadrature grid using
 IXCGrd= 4 IRadAn=           0 IRanWt=          -1 IRanGd=           0 AccXCQ= 0.00D+00.
 Generated NRdTot=       0 NPtTot=           0 NUsed=           0 NTot=          32
 NSgBfM=   428   428   428   428   428 MxSgAt=     8 MxSgA2=     8.
 Leave Link  302 at Wed Aug 26 09:45:45 2020, MaxMem=  2097152000 cpu:         3.0
 (Enter /opt/cluster/programs/g09/g09_d.01/g09/l303.exe)
 DipDrv:  MaxL=1.
 Leave Link  303 at Wed Aug 26 09:45:45 2020, MaxMem=  2097152000 cpu:         0.3
 (Enter /opt/cluster/programs/g09/g09_d.01/g09/l401.exe)
 ExpMin= 7.60D-02 ExpMax= 1.17D+05 ExpMxC= 1.13D+03 IAcc=2 IRadAn=         4 AccDes= 0.00D+00
 Harris functional with IExCor=  419 and IRadAn=       4 diagonalized for initial guess.
 HarFok:  IExCor=  419 AccDes= 0.00D+00 IRadAn=         4 IDoV= 1 UseB2=F ITyADJ=14
 ICtDFT=  3500011 ScaDFX=  1.000000  1.000000  1.000000  1.000000
 FoFCou: FMM=F IPFlag=           0 FMFlag=      100000 FMFlg1=           0
         NFxFlg=           0 DoJE=T BraDBF=F KetDBF=T FulRan=T
         wScrn=  0.000000 ICntrl=     500 IOpCl=  0 I1Cent=   200000004 NGrid=           0
         NMat0=    1 NMatS0=      1 NMatT0=    0 NMatD0=    1 NMtDS0=    0 NMtDT0=    0
 Petite list used in FoFCou.
 Harris En= -192.045353217548    
 JPrj=0 DoOrth=F DoCkMO=F.
 Leave Link  401 at Wed Aug 26 09:45:46 2020, MaxMem=  2097152000 cpu:         6.9
 (Enter /opt/cluster/programs/g09/g09_d.01/g09/l502.exe)
 Closed shell SCF:
 Using DIIS extrapolation, IDIIS=  1040.
 Integral symmetry usage will be decided dynamically.
 Keep R1 ints in memory in canonical form, NReq=1883905047.
 IVT=      574566 IEndB=      574566 NGot=  2097152000 MDV=   252723534
 LenX=   252723534 LenY=   252539909
 Requested convergence on RMS density matrix=1.00D-08 within 128 cycles.
 Requested convergence on MAX density matrix=1.00D-06.
 Requested convergence on             energy=1.00D-06.
 No special actions if energy rises.
 FoFCou: FMM=F IPFlag=           0 FMFlag=           0 FMFlg1=           0
         NFxFlg=           0 DoJE=F BraDBF=F KetDBF=F FulRan=T
         wScrn=  0.000000 ICntrl=     600 IOpCl=  0 I1Cent=           0 NGrid=           0
         NMat0=    1 NMatS0=  60726 NMatT0=    0 NMatD0=    1 NMtDS0=    0 NMtDT0=    0
 Symmetry not used in FoFCou.
 Integral accuracy reduced to 1.0D-05 until final iterations.

 Cycle   1  Pass 0  IDiag  1:
 E= -191.459407147540    
 DIIS: error= 2.48D-02 at cycle   1 NSaved=   1.
 NSaved= 1 IEnMin= 1 EnMin= -191.459407147540     IErMin= 1 ErrMin= 2.48D-02
 ErrMax= 2.48D-02  0.00D+00 EMaxC= 1.00D-01 BMatC= 2.61D-01 BMatP= 2.61D-01
 IDIUse=3 WtCom= 7.52D-01 WtEn= 2.48D-01
 Coeff-Com:  0.100D+01
 Coeff-En:   0.100D+01
 Coeff:      0.100D+01
 Gap=     0.295 Goal=   None    Shift=    0.000
 GapD=    0.295 DampG=1.000 DampE=0.500 DampFc=0.5000 IDamp=-1.
 Damping current iteration by 5.00D-01
 RMSDP=1.68D-03 MaxDP=1.90D-01              OVMax= 1.67D-01

 Cycle   2  Pass 0  IDiag  1:
 E= -191.531781948809     Delta-E=       -0.072374801270 Rises=F Damp=T
 DIIS: error= 9.06D-03 at cycle   2 NSaved=   2.
 NSaved= 2 IEnMin= 2 EnMin= -191.531781948809     IErMin= 2 ErrMin= 9.06D-03
 ErrMax= 9.06D-03  0.00D+00 EMaxC= 1.00D-01 BMatC= 3.43D-02 BMatP= 2.61D-01
 IDIUse=3 WtCom= 9.09D-01 WtEn= 9.06D-02
 Coeff-Com: -0.163D+00 0.116D+01
 Coeff-En:   0.000D+00 0.100D+01
 Coeff:     -0.148D+00 0.115D+01
 Gap=     0.349 Goal=   None    Shift=    0.000
 RMSDP=5.59D-04 MaxDP=6.16D-02 DE=-7.24D-02 OVMax= 1.22D-01

 Cycle   3  Pass 0  IDiag  1:
 E= -191.594050214019     Delta-E=       -0.062268265210 Rises=F Damp=F
 DIIS: error= 8.23D-03 at cycle   3 NSaved=   3.
 NSaved= 3 IEnMin= 3 EnMin= -191.594050214019     IErMin= 3 ErrMin= 8.23D-03
 ErrMax= 8.23D-03  0.00D+00 EMaxC= 1.00D-01 BMatC= 1.78D-02 BMatP= 3.43D-02
 IDIUse=3 WtCom= 9.18D-01 WtEn= 8.23D-02
 Coeff-Com: -0.193D+00 0.538D+00 0.655D+00
 Coeff-En:   0.000D+00 0.000D+00 0.100D+01
 Coeff:     -0.177D+00 0.493D+00 0.684D+00
 Gap=     0.336 Goal=   None    Shift=    0.000
 RMSDP=2.40D-04 MaxDP=1.64D-02 DE=-6.23D-02 OVMax= 5.04D-02

 Cycle   4  Pass 0  IDiag  1:
 E= -191.604076524973     Delta-E=       -0.010026310954 Rises=F Damp=F
 DIIS: error= 3.49D-03 at cycle   4 NSaved=   4.
 NSaved= 4 IEnMin= 4 EnMin= -191.604076524973     IErMin= 4 ErrMin= 3.49D-03
 ErrMax= 3.49D-03  0.00D+00 EMaxC= 1.00D-01 BMatC= 3.03D-03 BMatP= 1.78D-02
 IDIUse=3 WtCom= 9.65D-01 WtEn= 3.49D-02
 Coeff-Com: -0.603D-01 0.101D+00 0.354D+00 0.605D+00
 Coeff-En:   0.000D+00 0.000D+00 0.154D+00 0.846D+00
 Coeff:     -0.582D-01 0.978D-01 0.347D+00 0.613D+00
 Gap=     0.322 Goal=   None    Shift=    0.000
 RMSDP=9.90D-05 MaxDP=7.96D-03 DE=-1.00D-02 OVMax= 1.53D-02

 Cycle   5  Pass 0  IDiag  1:
 E= -191.606513664490     Delta-E=       -0.002437139517 Rises=F Damp=F
 DIIS: error= 2.74D-04 at cycle   5 NSaved=   5.
 NSaved= 5 IEnMin= 5 EnMin= -191.606513664490     IErMin= 5 ErrMin= 2.74D-04
 ErrMax= 2.74D-04  0.00D+00 EMaxC= 1.00D-01 BMatC= 1.80D-05 BMatP= 3.03D-03
 IDIUse=3 WtCom= 9.97D-01 WtEn= 2.74D-03
 Coeff-Com: -0.134D-01 0.191D-01 0.866D-01 0.181D+00 0.727D+00
 Coeff-En:   0.000D+00 0.000D+00 0.000D+00 0.000D+00 0.100D+01
 Coeff:     -0.134D-01 0.191D-01 0.864D-01 0.180D+00 0.728D+00
 Gap=     0.321 Goal=   None    Shift=    0.000
 RMSDP=7.67D-06 MaxDP=3.39D-04 DE=-2.44D-03 OVMax= 2.76D-03

 Initial convergence to 1.0D-05 achieved.  Increase integral accuracy.
 Cycle   6  Pass 1  IDiag  1:
 E= -191.606524497224     Delta-E=       -0.000010832734 Rises=F Damp=F
 DIIS: error= 9.58D-05 at cycle   1 NSaved=   1.
 NSaved= 1 IEnMin= 1 EnMin= -191.606524497224     IErMin= 1 ErrMin= 9.58D-05
 ErrMax= 9.58D-05  0.00D+00 EMaxC= 1.00D-01 BMatC= 2.59D-06 BMatP= 2.59D-06
 IDIUse=1 WtCom= 1.00D+00 WtEn= 0.00D+00
 Coeff-Com:  0.100D+01
 Coeff:      0.100D+01
 Gap=     0.322 Goal=   None    Shift=    0.000
 RMSDP=7.67D-06 MaxDP=3.39D-04 DE=-1.08D-05 OVMax= 1.23D-03

 Cycle   7  Pass 1  IDiag  1:
 E= -191.606525120508     Delta-E=       -0.000000623284 Rises=F Damp=F
 DIIS: error= 1.20D-04 at cycle   2 NSaved=   2.
 NSaved= 2 IEnMin= 2 EnMin= -191.606525120508     IErMin= 1 ErrMin= 9.58D-05
 ErrMax= 1.20D-04  0.00D+00 EMaxC= 1.00D-01 BMatC= 2.47D-06 BMatP= 2.59D-06
 IDIUse=3 WtCom= 9.99D-01 WtEn= 1.20D-03
 Coeff-Com:  0.494D+00 0.506D+00
 Coeff-En:   0.427D+00 0.573D+00
 Coeff:      0.494D+00 0.506D+00
 Gap=     0.321 Goal=   None    Shift=    0.000
 RMSDP=2.71D-06 MaxDP=2.13D-04 DE=-6.23D-07 OVMax= 8.63D-04

 Cycle   8  Pass 1  IDiag  1:
 E= -191.606527536423     Delta-E=       -0.000002415916 Rises=F Damp=F
 DIIS: error= 2.07D-05 at cycle   3 NSaved=   3.
 NSaved= 3 IEnMin= 3 EnMin= -191.606527536423     IErMin= 3 ErrMin= 2.07D-05
 ErrMax= 2.07D-05  0.00D+00 EMaxC= 1.00D-01 BMatC= 6.08D-08 BMatP= 2.47D-06
 IDIUse=1 WtCom= 1.00D+00 WtEn= 0.00D+00
 Coeff-Com:  0.299D-01 0.107D+00 0.864D+00
 Coeff:      0.299D-01 0.107D+00 0.864D+00
 Gap=     0.321 Goal=   None    Shift=    0.000
 RMSDP=1.42D-06 MaxDP=1.53D-04 DE=-2.42D-06 OVMax= 1.16D-04

 Cycle   9  Pass 1  IDiag  1:
 E= -191.606527611237     Delta-E=       -0.000000074814 Rises=F Damp=F
 DIIS: error= 1.09D-05 at cycle   4 NSaved=   4.
 NSaved= 4 IEnMin= 4 EnMin= -191.606527611237     IErMin= 4 ErrMin= 1.09D-05
 ErrMax= 1.09D-05  0.00D+00 EMaxC= 1.00D-01 BMatC= 1.40D-08 BMatP= 6.08D-08
 IDIUse=1 WtCom= 1.00D+00 WtEn= 0.00D+00
 Coeff-Com: -0.910D-01-0.553D-01 0.351D+00 0.796D+00
 Coeff:     -0.910D-01-0.553D-01 0.351D+00 0.796D+00
 Gap=     0.321 Goal=   None    Shift=    0.000
 RMSDP=6.23D-07 MaxDP=6.37D-05 DE=-7.48D-08 OVMax= 9.38D-05

 Cycle  10  Pass 1  IDiag  1:
 E= -191.606527631109     Delta-E=       -0.000000019872 Rises=F Damp=F
 DIIS: error= 3.45D-06 at cycle   5 NSaved=   5.
 NSaved= 5 IEnMin= 5 EnMin= -191.606527631109     IErMin= 5 ErrMin= 3.45D-06
 ErrMax= 3.45D-06  0.00D+00 EMaxC= 1.00D-01 BMatC= 4.41D-09 BMatP= 1.40D-08
 IDIUse=1 WtCom= 1.00D+00 WtEn= 0.00D+00
 Coeff-Com: -0.556D-01-0.421D-01 0.964D-01 0.464D+00 0.537D+00
 Coeff:     -0.556D-01-0.421D-01 0.964D-01 0.464D+00 0.537D+00
 Gap=     0.321 Goal=   None    Shift=    0.000
 RMSDP=2.28D-07 MaxDP=2.44D-05 DE=-1.99D-08 OVMax= 2.05D-05

 Cycle  11  Pass 1  IDiag  1:
 E= -191.606527634329     Delta-E=       -0.000000003220 Rises=F Damp=F
 DIIS: error= 8.92D-07 at cycle   6 NSaved=   6.
 NSaved= 6 IEnMin= 6 EnMin= -191.606527634329     IErMin= 6 ErrMin= 8.92D-07
 ErrMax= 8.92D-07  0.00D+00 EMaxC= 1.00D-01 BMatC= 1.48D-10 BMatP= 4.41D-09
 IDIUse=1 WtCom= 1.00D+00 WtEn= 0.00D+00
 Coeff-Com:  0.676D-02 0.331D-02-0.595D-01-0.112D-01 0.745D-01 0.986D+00
 Coeff:      0.676D-02 0.331D-02-0.595D-01-0.112D-01 0.745D-01 0.986D+00
 Gap=     0.321 Goal=   None    Shift=    0.000
 RMSDP=5.46D-08 MaxDP=4.91D-06 DE=-3.22D-09 OVMax= 7.72D-06

 Cycle  12  Pass 1  IDiag  1:
 E= -191.606527634536     Delta-E=       -0.000000000207 Rises=F Damp=F
 DIIS: error= 2.74D-07 at cycle   7 NSaved=   7.
 NSaved= 7 IEnMin= 7 EnMin= -191.606527634536     IErMin= 7 ErrMin= 2.74D-07
 ErrMax= 2.74D-07  0.00D+00 EMaxC= 1.00D-01 BMatC= 1.72D-11 BMatP= 1.48D-10
 IDIUse=1 WtCom= 1.00D+00 WtEn= 0.00D+00
 Coeff-Com:  0.550D-02 0.386D-02-0.272D-01-0.266D-01-0.209D-01 0.317D+00
 Coeff-Com:  0.748D+00
 Coeff:      0.550D-02 0.386D-02-0.272D-01-0.266D-01-0.209D-01 0.317D+00
 Coeff:      0.748D+00
 Gap=     0.321 Goal=   None    Shift=    0.000
 RMSDP=1.04D-08 MaxDP=5.72D-07 DE=-2.07D-10 OVMax= 1.26D-06

 Cycle  13  Pass 1  IDiag  1:
 E= -191.606527634553     Delta-E=       -0.000000000017 Rises=F Damp=F
 DIIS: error= 5.23D-08 at cycle   8 NSaved=   8.
 NSaved= 8 IEnMin= 8 EnMin= -191.606527634553     IErMin= 8 ErrMin= 5.23D-08
 ErrMax= 5.23D-08  0.00D+00 EMaxC= 1.00D-01 BMatC= 8.90D-13 BMatP= 1.72D-11
 IDIUse=1 WtCom= 1.00D+00 WtEn= 0.00D+00
 Coeff-Com:  0.359D-04 0.341D-03 0.218D-02-0.521D-03-0.128D-01-0.676D-01
 Coeff-Com:  0.119D+00 0.959D+00
 Coeff:      0.359D-04 0.341D-03 0.218D-02-0.521D-03-0.128D-01-0.676D-01
 Coeff:      0.119D+00 0.959D+00
 Gap=     0.321 Goal=   None    Shift=    0.000
 RMSDP=2.72D-09 MaxDP=1.00D-07 DE=-1.72D-11 OVMax= 3.62D-07

 SCF Done:  E(RB2PLYPD3) =  -191.606527635     A.U. after   13 cycles
            NFock= 13  Conv=0.27D-08     -V/T= 2.0026
 KE= 1.911064383515D+02 PE=-6.547243886084D+02 EE= 1.687237741733D+02
 Leave Link  502 at Wed Aug 26 09:47:20 2020, MaxMem=  2097152000 cpu:       418.4
 (Enter /opt/cluster/programs/g09/g09_d.01/g09/l801.exe)
 DoSCS=T DFT=T ScalE2(SS,OS)=  0.270000  0.270000
 ExpMin= 7.60D-02 ExpMax= 1.17D+05 ExpMxC= 1.13D+03 IAcc=3 IRadAn=         5 AccDes= 0.00D+00
 HarFok:  IExCor=  205 AccDes= 0.00D+00 IRadAn=         5 IDoV=-2 UseB2=F ITyADJ=14
 ICtDFT= 12500011 ScaDFX=  1.000000  1.000000  1.000000  1.000000
 Largest valence mixing into a core orbital is  1.15D-04
 Largest core mixing into a valence orbital is  1.83D-05
 Range of M.O.s used for correlation:     5   348
 NBasis=   348 NAE=    15 NBE=    15 NFC=     4 NFV=     0
 NROrb=    344 NOA=    11 NOB=    11 NVA=   333 NVB=   333

 **** Warning!!: The largest alpha MO coefficient is  0.26115074D+02

 Leave Link  801 at Wed Aug 26 09:47:20 2020, MaxMem=  2097152000 cpu:         0.9
 (Enter /opt/cluster/programs/g09/g09_d.01/g09/l906.exe)
 DoSCS=T DFT=T ScalE2(SS,OS)=  0.270000  0.270000
 FulOut=F Deriv=F AODrv=F NAtomX=     8
   MMem=        1190  MDisk=          11 MDiskD=          11
  W3Min=     1567764 MinDsk=     2827057 NBas6D=         428
 NBas2D=       93150    NTT=       91806    LW2=     4508827
    MDV=  2096569668 MDiskM=       10875 NBas2p=       89741
 Fully direct method using O(OVN) memory.
 IMap=   1   2   3   4   5   6   7   8   9  10  11
 JobTyp=1 Pass  1:  I=   1 to  11 NPSUse=  8 ParTrn=T ParDer=T DoDerP=F.
 Spin components of T(2) and E(2):
     alpha-alpha T2 =       0.4377687506D-01 E2=     -0.2951686442D-01
     alpha-beta  T2 =       0.2657842231D+00 E2=     -0.1882979838D+00
     beta-beta   T2 =       0.4377687506D-01 E2=     -0.2951686442D-01
 The integrals were generated   1 times.
 E2(B2PLYPD3) =    -0.2473317127D+00 E(B2PLYPD3) =    -0.19185385934723D+03
 Leave Link  906 at Wed Aug 26 09:48:16 2020, MaxMem=  2097152000 cpu:       445.8
 (Enter /opt/cluster/programs/g09/g09_d.01/g09/l601.exe)
 Copying SCF densities to generalized density rwf, IOpCl= 0 IROHF=0.

 **********************************************************************

            Population analysis using the SCF density.

 **********************************************************************

 Orbital symmetries:
       Occupied  (A) (A) (A) (A) (A) (A) (A) (A) (A) (A) (A) (A)
                 (A) (A) (A)
       Virtual   (A) (A) (A) (A) (A) (A) (A) (A) (A) (A) (A) (A)
                 (A) (A) (A) (A) (A) (A) (A) (A) (A) (A) (A) (A)
                 (A) (A) (A) (A) (A) (A) (A) (A) (A) (A) (A) (A)
                 (A) (A) (A) (A) (A) (A) (A) (A) (A) (A) (A) (A)
                 (A) (A) (A) (A) (A) (A) (A) (A) (A) (A) (A) (A)
                 (A) (A) (A) (A) (A) (A) (A) (A) (A) (A) (A) (A)
                 (A) (A) (A) (A) (A) (A) (A) (A) (A) (A) (A) (A)
                 (A) (A) (A) (A) (A) (A) (A) (A) (A) (A) (A) (A)
                 (A) (A) (A) (A) (A) (A) (A) (A) (A) (A) (A) (A)
                 (A) (A) (A) (A) (A) (A) (A) (A) (A) (A) (A) (A)
                 (A) (A) (A) (A) (A) (A) (A) (A) (A) (A) (A) (A)
                 (A) (A) (A) (A) (A) (A) (A) (A) (A) (A) (A) (A)
                 (A) (A) (A) (A) (A) (A) (A) (A) (A) (A) (A) (A)
                 (A) (A) (A) (A) (A) (A) (A) (A) (A) (A) (A) (A)
                 (A) (A) (A) (A) (A) (A) (A) (A) (A) (A) (A) (A)
                 (A) (A) (A) (A) (A) (A) (A) (A) (A) (A) (A) (A)
                 (A) (A) (A) (A) (A) (A) (A) (A) (A) (A) (A) (A)
                 (A) (A) (A) (A) (A) (A) (A) (A) (A) (A) (A) (A)
                 (A) (A) (A) (A) (A) (A) (A) (A) (A) (A) (A) (A)
                 (A) (A) (A) (A) (A) (A) (A) (A) (A) (A) (A) (A)
                 (A) (A) (A) (A) (A) (A) (A) (A) (A) (A) (A) (A)
                 (A) (A) (A) (A) (A) (A) (A) (A) (A) (A) (A) (A)
                 (A) (A) (A) (A) (A) (A) (A) (A) (A) (A) (A) (A)
                 (A) (A) (A) (A) (A) (A) (A) (A) (A) (A) (A) (A)
                 (A) (A) (A) (A) (A) (A) (A) (A) (A) (A) (A) (A)
                 (A) (A) (A) (A) (A) (A) (A) (A) (A) (A) (A) (A)
                 (A) (A) (A) (A) (A) (A) (A) (A) (A) (A) (A) (A)
                 (A) (A) (A) (A) (A) (A) (A) (A) (A)
 The electronic state is 1-A.
 Alpha  occ. eigenvalues --  -19.72729 -10.71276 -10.64680 -10.64226  -1.18183
 Alpha  occ. eigenvalues --   -0.93493  -0.76114  -0.67588  -0.57521  -0.56202
 Alpha  occ. eigenvalues --   -0.50415  -0.47641  -0.45914  -0.34826  -0.33765
 Alpha virt. eigenvalues --   -0.01627   0.05869   0.07210   0.07750   0.09782
 Alpha virt. eigenvalues --    0.12832   0.13878   0.15304   0.17309   0.19707
 Alpha virt. eigenvalues --    0.20105   0.22222   0.25231   0.26755   0.28604
 Alpha virt. eigenvalues --    0.31779   0.33519   0.36640   0.37730   0.39270
 Alpha virt. eigenvalues --    0.39952   0.41972   0.42293   0.44251   0.46074
 Alpha virt. eigenvalues --    0.46404   0.49253   0.52604   0.54199   0.57168
 Alpha virt. eigenvalues --    0.58750   0.64125   0.66365   0.69192   0.70665
 Alpha virt. eigenvalues --    0.74764   0.76302   0.78124   0.79760   0.81491
 Alpha virt. eigenvalues --    0.81946   0.82454   0.82705   0.83918   0.86354
 Alpha virt. eigenvalues --    0.88519   0.90733   0.92399   0.94536   0.95487
 Alpha virt. eigenvalues --    0.96966   0.97988   1.01458   1.02293   1.07445
 Alpha virt. eigenvalues --    1.11020   1.11979   1.13327   1.16711   1.19445
 Alpha virt. eigenvalues --    1.21842   1.25164   1.28128   1.36884   1.40914
 Alpha virt. eigenvalues --    1.43804   1.47498   1.49550   1.54567   1.56932
 Alpha virt. eigenvalues --    1.60691   1.63762   1.67040   1.69912   1.70961
 Alpha virt. eigenvalues --    1.73246   1.75306   1.78492   1.81487   1.82454
 Alpha virt. eigenvalues --    1.86274   1.86875   1.90493   1.93078   1.93906
 Alpha virt. eigenvalues --    1.96659   1.97259   1.99605   2.02541   2.02796
 Alpha virt. eigenvalues --    2.06028   2.09720   2.11245   2.12452   2.13233
 Alpha virt. eigenvalues --    2.16157   2.17798   2.19986   2.24935   2.27193
 Alpha virt. eigenvalues --    2.29637   2.36550   2.37772   2.42071   2.44798
 Alpha virt. eigenvalues --    2.46544   2.46940   2.48601   2.51423   2.54773
 Alpha virt. eigenvalues --    2.55719   2.57890   2.60557   2.62142   2.62422
 Alpha virt. eigenvalues --    2.62625   2.66727   2.68664   2.73616   2.74691
 Alpha virt. eigenvalues --    2.78221   2.79876   2.85647   2.88382   2.90758
 Alpha virt. eigenvalues --    2.91644   2.97045   2.99238   3.04345   3.06299
 Alpha virt. eigenvalues --    3.17668   3.21603   3.28464   3.29352   3.37211
 Alpha virt. eigenvalues --    3.38678   3.40383   3.45085   3.48112   3.56129
 Alpha virt. eigenvalues --    3.57098   3.59679   3.61885   3.63028   3.67118
 Alpha virt. eigenvalues --    3.72148   3.76385   3.79439   3.84718   3.91099
 Alpha virt. eigenvalues --    3.97277   4.00919   4.02734   4.06063   4.09512
 Alpha virt. eigenvalues --    4.13348   4.18851   4.22610   4.24038   4.32834
 Alpha virt. eigenvalues --    4.38003   4.41980   4.57611   4.59429   4.62971
 Alpha virt. eigenvalues --    4.66968   4.79141   4.88466   4.91412   4.96928
 Alpha virt. eigenvalues --    5.02406   5.07306   5.11805   5.12728   5.13201
 Alpha virt. eigenvalues --    5.20316   5.26445   5.31110   5.34261   5.41400
 Alpha virt. eigenvalues --    5.46142   5.51400   5.52781   5.58616   5.61167
 Alpha virt. eigenvalues --    5.67483   5.70021   5.72118   5.74260   5.77210
 Alpha virt. eigenvalues --    5.80025   5.82591   5.87744   5.89569   5.96388
 Alpha virt. eigenvalues --    5.99782   6.00637   6.02589   6.03933   6.07001
 Alpha virt. eigenvalues --    6.10444   6.15241   6.15678   6.18288   6.19350
 Alpha virt. eigenvalues --    6.21806   6.24030   6.26826   6.30845   6.32046
 Alpha virt. eigenvalues --    6.36322   6.37258   6.42969   6.46339   6.49709
 Alpha virt. eigenvalues --    6.51681   6.56338   6.58386   6.60572   6.65866
 Alpha virt. eigenvalues --    6.67829   6.75069   6.76608   6.80826   6.85263
 Alpha virt. eigenvalues --    6.89600   6.91833   6.97142   7.01342   7.05117
 Alpha virt. eigenvalues --    7.11058   7.12784   7.17010   7.24235   7.30723
 Alpha virt. eigenvalues --    7.37288   7.42207   7.42989   7.48450   7.49711
 Alpha virt. eigenvalues --    7.55924   7.57088   7.61879   7.63904   7.68441
 Alpha virt. eigenvalues --    7.68657   7.72209   7.72892   7.77281   7.82153
 Alpha virt. eigenvalues --    7.85180   7.88506   7.94600   8.00374   8.04138
 Alpha virt. eigenvalues --    8.05707   8.09476   8.11994   8.17371   8.21517
 Alpha virt. eigenvalues --    8.25141   8.30753   8.32166   8.35807   8.37132
 Alpha virt. eigenvalues --    8.39449   8.49860   8.54204   8.56944   8.60440
 Alpha virt. eigenvalues --    8.62964   8.64306   8.69260   8.73616   8.82353
 Alpha virt. eigenvalues --    8.89692   9.02133   9.03681   9.08173   9.09823
 Alpha virt. eigenvalues --    9.12862   9.19909   9.20651   9.31394   9.36670
 Alpha virt. eigenvalues --    9.40981   9.46448   9.57720   9.68880   9.84814
 Alpha virt. eigenvalues --    9.90856   9.91164   9.98026  10.08486  10.18852
 Alpha virt. eigenvalues --   10.20252  10.22523  10.23773  10.25479  10.31432
 Alpha virt. eigenvalues --   10.47872  10.55109  10.60017  10.85514  11.06407
 Alpha virt. eigenvalues --   11.23972  11.25341  11.32816  11.37741  11.46318
 Alpha virt. eigenvalues --   11.64900  11.75421  11.78253  12.04012  12.07315
 Alpha virt. eigenvalues --   12.29554  12.35245  12.47655  12.59346  12.91349
 Alpha virt. eigenvalues --   13.26603  13.28657  13.69939  14.36832  14.59514
 Alpha virt. eigenvalues --   28.70064  28.91230  29.61992  48.63024 148.29597
 Alpha virt. eigenvalues --  148.48633 149.25600 254.38663
          Condensed to atoms (all electrons):
               1          2          3          4          5          6
     1  C    4.496786   0.622559   0.387758  -0.060288  -0.030718  -0.004775
     2  O    0.622559   7.896305  -0.093372   0.006236   0.008291   0.000610
     3  C    0.387758  -0.093372   5.153686   0.482799   0.368245  -0.052175
     4  C   -0.060288   0.006236   0.482799   4.861044  -0.034925   0.433244
     5  H   -0.030718   0.008291   0.368245  -0.034925   0.575703   0.004681
     6  H   -0.004775   0.000610  -0.052175   0.433244   0.004681   0.558337
     7  H    0.003519  -0.000911  -0.042744   0.424672  -0.005222  -0.038621
     8  H    0.429769  -0.076902  -0.162546   0.021422   0.009647   0.007183
               7          8
     1  C    0.003519   0.429769
     2  O   -0.000911  -0.076902
     3  C   -0.042744  -0.162546
     4  C    0.424672   0.021422
     5  H   -0.005222   0.009647
     6  H   -0.038621   0.007183
     7  H    0.555846  -0.001173
     8  H   -0.001173   0.689771
 Mulliken charges:
               1
     1  C    0.155391
     2  O   -0.362815
     3  C   -0.041651
     4  C   -0.134203
     5  H    0.104297
     6  H    0.091516
     7  H    0.104635
     8  H    0.082830
 Sum of Mulliken charges =   0.00000
 Mulliken charges with hydrogens summed into heavy atoms:
               1
     1  C    0.238220
     2  O   -0.362815
     3  C    0.062647
     4  C    0.061948
 Electronic spatial extent (au):  <R**2>=            296.9018
 Charge=              0.0000 electrons
 Dipole moment (field-independent basis, Debye):
    X=             -3.5424    Y=              0.7986    Z=              0.0379  Tot=              3.6316
 Quadrupole moment (field-independent basis, Debye-Ang):
   XX=            -28.0020   YY=            -21.3698   ZZ=            -25.1249
   XY=              0.8347   XZ=              0.4043   YZ=              0.0111
 Traceless Quadrupole moment (field-independent basis, Debye-Ang):
   XX=             -3.1698   YY=              3.4624   ZZ=             -0.2926
   XY=              0.8347   XZ=              0.4043   YZ=              0.0111
 Octapole moment (field-independent basis, Debye-Ang**2):
  XXX=            -14.4517  YYY=              0.2364  ZZZ=             -0.2495  XYY=             -0.1328
  XXY=              0.8472  XXZ=             -0.1755  XZZ=              3.9872  YZZ=              0.2975
  YYZ=             -0.1957  XYZ=              0.0645
 Hexadecapole moment (field-independent basis, Debye-Ang**3):
 XXXX=           -305.1149 YYYY=            -54.3014 ZZZZ=            -27.3989 XXXY=              2.4369
 XXXZ=              1.4349 YYYX=             -0.3217 YYYZ=              0.0908 ZZZX=              0.1324
 ZZZY=              0.0578 XXYY=            -57.3929 XXZZ=            -56.4055 YYZZ=            -15.4416
 XXYZ=             -0.0554 YYXZ=              0.3145 ZZXY=             -0.2835
 N-N= 1.032876484491D+02 E-N=-6.547243957246D+02  KE= 1.911064383515D+02
 Leave Link  601 at Wed Aug 26 09:48:20 2020, MaxMem=  2097152000 cpu:         0.6
 (Enter /opt/cluster/programs/g09/g09_d.01/g09/l9999.exe)
 1\1\GINC-NODE05\SP\RB2PLYPD3-FC\def2QZVP\C3H4O1\BOITTIER\26-Aug-2020\0
 \\#p B2PLYPD3/Def2QZVP\\acrolein\\0,1\C,0,-5.007959,-1.385036,0.931397
 \O,0,-3.940083,-0.856901,0.623418\C,0,-5.186546,-2.846201,1.189552\C,0
 ,-6.415803,-3.301937,1.372924\H,0,-4.264721,-3.451223,1.101475\H,0,-7.
 262315,-2.651383,1.357288\H,0,-6.499525,-4.28704,1.504925\H,0,-5.88751
 8,-0.814896,0.996221\\Version=ES64L-G09RevD.01\State=1-A\HF=-191.60652
 76\MP2=-191.8538593\RMSD=2.722e-09\PG=C01 [X(C3H4O1)]\\@


 There was a great rattling of the words for the fewness of ideas.
                   -- Charles Baxter in Gryphon
 Job cpu time:       0 days  0 hours 14 minutes 37.7 seconds.
 File lengths (MBytes):  RWF=     49 Int=      0 D2E=      0 Chk=      7 Scr=      1
 Normal termination of Gaussian 09 at Wed Aug 26 09:48:20 2020.
