 Entering Gaussian System, Link 0=/opt/cluster/programs/g09/g09_d.01/g09//g09
 Input=/home/boittier/MDCM/nms_sampling/acrolein_geom.xyz.dir/energies/acrolein_2448_energy.com
 Output=/scratch/boittier/acrolein_2448_energy/acrolein_2448_energy.out
 Initial command:
 /opt/cluster/programs/g09/g09_d.01/g09/l1.exe "/scratch/boittier/acrolein_2448_energy/Gau-41048.inp" -scrdir="/scratch/boittier/acrolein_2448_energy/"
 Entering Link 1 = /opt/cluster/programs/g09/g09_d.01/g09/l1.exe PID=     41049.
  
 Copyright (c) 1988,1990,1992,1993,1995,1998,2003,2009,2013,
            Gaussian, Inc.  All Rights Reserved.
  
 This is part of the Gaussian(R) 09 program.  It is based on
 the Gaussian(R) 03 system (copyright 2003, Gaussian, Inc.),
 the Gaussian(R) 98 system (copyright 1998, Gaussian, Inc.),
 the Gaussian(R) 94 system (copyright 1995, Gaussian, Inc.),
 the Gaussian 92(TM) system (copyright 1992, Gaussian, Inc.),
 the Gaussian 90(TM) system (copyright 1990, Gaussian, Inc.),
 the Gaussian 88(TM) system (copyright 1988, Gaussian, Inc.),
 the Gaussian 86(TM) system (copyright 1986, Carnegie Mellon
 University), and the Gaussian 82(TM) system (copyright 1983,
 Carnegie Mellon University). Gaussian is a federally registered
 trademark of Gaussian, Inc.
  
 This software contains proprietary and confidential information,
 including trade secrets, belonging to Gaussian, Inc.
  
 This software is provided under written license and may be
 used, copied, transmitted, or stored only in accord with that
 written license.
  
 The following legend is applicable only to US Government
 contracts under FAR:
  
                    RESTRICTED RIGHTS LEGEND
  
 Use, reproduction and disclosure by the US Government is
 subject to restrictions as set forth in subparagraphs (a)
 and (c) of the Commercial Computer Software - Restricted
 Rights clause in FAR 52.227-19.
  
 Gaussian, Inc.
 340 Quinnipiac St., Bldg. 40, Wallingford CT 06492
  
  
 ---------------------------------------------------------------
 Warning -- This program may not be used in any manner that
 competes with the business of Gaussian, Inc. or will provide
 assistance to any competitor of Gaussian, Inc.  The licensee
 of this program is prohibited from giving any competitor of
 Gaussian, Inc. access to this program.  By using this program,
 the user acknowledges that Gaussian, Inc. is engaged in the
 business of creating and licensing software in the field of
 computational chemistry and represents and warrants to the
 licensee that it is not a competitor of Gaussian, Inc. and that
 it will not use this program in any manner prohibited above.
 ---------------------------------------------------------------
  

 Cite this work as:
 Gaussian 09, Revision D.01,
 M. J. Frisch, G. W. Trucks, H. B. Schlegel, G. E. Scuseria, 
 M. A. Robb, J. R. Cheeseman, G. Scalmani, V. Barone, B. Mennucci, 
 G. A. Petersson, H. Nakatsuji, M. Caricato, X. Li, H. P. Hratchian, 
 A. F. Izmaylov, J. Bloino, G. Zheng, J. L. Sonnenberg, M. Hada, 
 M. Ehara, K. Toyota, R. Fukuda, J. Hasegawa, M. Ishida, T. Nakajima, 
 Y. Honda, O. Kitao, H. Nakai, T. Vreven, J. A. Montgomery, Jr., 
 J. E. Peralta, F. Ogliaro, M. Bearpark, J. J. Heyd, E. Brothers, 
 K. N. Kudin, V. N. Staroverov, T. Keith, R. Kobayashi, J. Normand, 
 K. Raghavachari, A. Rendell, J. C. Burant, S. S. Iyengar, J. Tomasi, 
 M. Cossi, N. Rega, J. M. Millam, M. Klene, J. E. Knox, J. B. Cross, 
 V. Bakken, C. Adamo, J. Jaramillo, R. Gomperts, R. E. Stratmann, 
 O. Yazyev, A. J. Austin, R. Cammi, C. Pomelli, J. W. Ochterski, 
 R. L. Martin, K. Morokuma, V. G. Zakrzewski, G. A. Voth, 
 P. Salvador, J. J. Dannenberg, S. Dapprich, A. D. Daniels, 
 O. Farkas, J. B. Foresman, J. V. Ortiz, J. Cioslowski, 
 and D. J. Fox, Gaussian, Inc., Wallingford CT, 2013.
 
 ******************************************
 Gaussian 09:  ES64L-G09RevD.01 24-Apr-2013
                26-Aug-2020 
 ******************************************
 %chk=/home/boittier/MDCM/nms_sampling/acrolein_geom.xyz.dir/acrolein_2448.chk
 %nproc=8
 Will use up to    8 processors via shared memory.
 %mem=16000MB
 --------------------
 #p B2PLYPD3/Def2QZVP
 --------------------
 1/38=1/1;
 2/12=2,17=6,18=5,40=1/2;
 3/5=45,7=101,11=9,16=1,25=1,30=1,74=-60/1,2,3;
 4//1;
 5/5=2,38=5/2;
 8/10=1/1;
 9/16=-3/6;
 6/7=2,8=2,9=2,10=2/1;
 99/5=1,9=1/99;
 Leave Link    1 at Wed Aug 26 13:46:42 2020, MaxMem=  2097152000 cpu:         0.2
 (Enter /opt/cluster/programs/g09/g09_d.01/g09/l101.exe)
 --------
 acrolein
 --------
 Symbolic Z-matrix:
 Charge =  0 Multiplicity = 1
 C                    -4.99886  -1.40138   0.92563 
 O                    -3.93962  -0.86968   0.63406 
 C                    -5.20591  -2.79772   1.18172 
 C                    -6.38245  -3.31564   1.36894 
 H                    -4.33745  -3.3604    1.12912 
 H                    -7.17894  -2.6877    1.59317 
 H                    -6.62851  -4.38567   1.45324 
 H                    -6.04284  -0.79279   0.81562 
 
 NAtoms=      8 NQM=        8 NQMF=       0 NMMI=      0 NMMIF=      0
                NMic=       0 NMicF=      0.
                    Isotopes and Nuclear Properties:
 (Nuclear quadrupole moments (NQMom) in fm**2, nuclear magnetic moments (NMagM)
  in nuclear magnetons)

  Atom         1           2           3           4           5           6           7           8
 IAtWgt=          12          16          12          12           1           1           1           1
 AtmWgt=  12.0000000  15.9949146  12.0000000  12.0000000   1.0078250   1.0078250   1.0078250   1.0078250
 NucSpn=           0           0           0           0           1           1           1           1
 AtZEff=   0.0000000   0.0000000   0.0000000   0.0000000   0.0000000   0.0000000   0.0000000   0.0000000
 NQMom=    0.0000000   0.0000000   0.0000000   0.0000000   0.0000000   0.0000000   0.0000000   0.0000000
 NMagM=    0.0000000   0.0000000   0.0000000   0.0000000   2.7928460   2.7928460   2.7928460   2.7928460
 AtZNuc=   6.0000000   8.0000000   6.0000000   6.0000000   1.0000000   1.0000000   1.0000000   1.0000000
 Leave Link  101 at Wed Aug 26 13:46:43 2020, MaxMem=  2097152000 cpu:         0.5
 (Enter /opt/cluster/programs/g09/g09_d.01/g09/l202.exe)
                          Input orientation:                          
 ---------------------------------------------------------------------
 Center     Atomic      Atomic             Coordinates (Angstroms)
 Number     Number       Type             X           Y           Z
 ---------------------------------------------------------------------
      1          6           0       -4.998863   -1.401380    0.925630
      2          8           0       -3.939618   -0.869682    0.634061
      3          6           0       -5.205906   -2.797719    1.181715
      4          6           0       -6.382450   -3.315635    1.368942
      5          1           0       -4.337452   -3.360395    1.129123
      6          1           0       -7.178936   -2.687703    1.593169
      7          1           0       -6.628514   -4.385668    1.453239
      8          1           0       -6.042842   -0.792794    0.815617
 ---------------------------------------------------------------------
                    Distance matrix (angstroms):
                    1          2          3          4          5
     1  C    0.000000
     2  O    1.220539   0.000000
     3  C    1.434646   2.370809   0.000000
     4  C    2.403167   3.534143   1.299056   0.000000
     5  H    2.077646   2.570410   1.036138   2.059498   0.000000
     6  H    2.617815   3.836440   2.018476   1.038733   2.956668
     7  H    3.440946   4.501486   2.149214   1.101192   2.530850
     8  H    1.213413   2.112445   2.203228   2.605039   3.098260
                    6          7          8
     6  H    0.000000
     7  H    1.790427   0.000000
     8  H    2.342216   3.695716   0.000000
 Stoichiometry    C3H4O
 Framework group  C1[X(C3H4O)]
 Deg. of freedom    18
 Full point group                 C1      NOp   1
 Largest Abelian subgroup         C1      NOp   1
 Largest concise Abelian subgroup C1      NOp   1
                         Standard orientation:                         
 ---------------------------------------------------------------------
 Center     Atomic      Atomic             Coordinates (Angstroms)
 Number     Number       Type             X           Y           Z
 ---------------------------------------------------------------------
      1          6           0        0.657278    0.331093    0.031817
      2          8           0        1.789583   -0.121511   -0.020620
      3          6           0       -0.560787   -0.426869    0.036423
      4          6           0       -1.736102    0.122745   -0.027653
      5          1           0       -0.409433   -1.451777    0.020969
      6          1           0       -1.829203    1.137070    0.175926
      7          1           0       -2.701976   -0.392729   -0.145966
      8          1           0        0.461607    1.517713   -0.129484
 ---------------------------------------------------------------------
 Rotational constants (GHZ):     50.9191802      4.7130857      4.3222007
 Leave Link  202 at Wed Aug 26 13:46:43 2020, MaxMem=  2097152000 cpu:         0.0
 (Enter /opt/cluster/programs/g09/g09_d.01/g09/l301.exe)
 Standard basis: def2QZVP (5D, 7F)
 Ernie: Thresh=  0.10000D-02 Tol=  0.10000D-05 Strict=F.
 There are   428 symmetry adapted cartesian basis functions of A   symmetry.
 There are   348 symmetry adapted basis functions of A   symmetry.
   348 basis functions,   520 primitive gaussians,   428 cartesian basis functions
    15 alpha electrons       15 beta electrons
       nuclear repulsion energy       104.0378172185 Hartrees.
 IExCor=  419 DFT=T Ex+Corr=B2PLYPD3 ExCW=0 ScaHFX=  0.530000
 ScaDFX=  0.470000  0.470000  0.730000  0.730000 ScalE2=  0.270000  0.270000
 IRadAn=      0 IRanWt=     -1 IRanGd=            0 ICorTp=0 IEmpDi=141
 NAtoms=    8 NActive=    8 NUniq=    8 SFac= 1.00D+00 NAtFMM=   60 NAOKFM=F Big=F
 Integral buffers will be    131072 words long.
 Regular integral format.
 Two-electron integral symmetry is turned on.
 R6Disp:  Grimme-D3(BJ) Dispersion energy=       -0.0036050269 Hartrees.
 Nuclear repulsion after empirical dispersion term =      104.0342121915 Hartrees.
 Leave Link  301 at Wed Aug 26 13:46:43 2020, MaxMem=  2097152000 cpu:         0.4
 (Enter /opt/cluster/programs/g09/g09_d.01/g09/l302.exe)
 NPDir=0 NMtPBC=     1 NCelOv=     1 NCel=       1 NClECP=     1 NCelD=      1
         NCelK=      1 NCelE2=     1 NClLst=     1 CellRange=     0.0.
 One-electron integrals computed using PRISM.
   1 Symmetry operations used in ECPInt.
 ECPInt:  NShTT=    5886 NPrTT=   14376 LenC2=    5780 LenP2D=   12196.
 LDataN:  DoStor=T MaxTD1= 8 Len=  415
 NBasis=   348 RedAO= T EigKep=  5.22D-05  NBF=   348
 NBsUse=   348 1.00D-06 EigRej= -1.00D+00 NBFU=   348
 Precomputing XC quadrature grid using
 IXCGrd= 4 IRadAn=           0 IRanWt=          -1 IRanGd=           0 AccXCQ= 0.00D+00.
 Generated NRdTot=       0 NPtTot=           0 NUsed=           0 NTot=          32
 NSgBfM=   428   428   428   428   428 MxSgAt=     8 MxSgA2=     8.
 Leave Link  302 at Wed Aug 26 13:46:43 2020, MaxMem=  2097152000 cpu:         4.6
 (Enter /opt/cluster/programs/g09/g09_d.01/g09/l303.exe)
 DipDrv:  MaxL=1.
 Leave Link  303 at Wed Aug 26 13:46:43 2020, MaxMem=  2097152000 cpu:         0.3
 (Enter /opt/cluster/programs/g09/g09_d.01/g09/l401.exe)
 ExpMin= 7.60D-02 ExpMax= 1.17D+05 ExpMxC= 1.13D+03 IAcc=2 IRadAn=         4 AccDes= 0.00D+00
 Harris functional with IExCor=  419 and IRadAn=       4 diagonalized for initial guess.
 HarFok:  IExCor=  419 AccDes= 0.00D+00 IRadAn=         4 IDoV= 1 UseB2=F ITyADJ=14
 ICtDFT=  3500011 ScaDFX=  1.000000  1.000000  1.000000  1.000000
 FoFCou: FMM=F IPFlag=           0 FMFlag=      100000 FMFlg1=           0
         NFxFlg=           0 DoJE=T BraDBF=F KetDBF=T FulRan=T
         wScrn=  0.000000 ICntrl=     500 IOpCl=  0 I1Cent=   200000004 NGrid=           0
         NMat0=    1 NMatS0=      1 NMatT0=    0 NMatD0=    1 NMtDS0=    0 NMtDT0=    0
 Petite list used in FoFCou.
 Harris En= -192.040559326880    
 JPrj=0 DoOrth=F DoCkMO=F.
 Leave Link  401 at Wed Aug 26 13:46:44 2020, MaxMem=  2097152000 cpu:         6.0
 (Enter /opt/cluster/programs/g09/g09_d.01/g09/l502.exe)
 Closed shell SCF:
 Using DIIS extrapolation, IDIIS=  1040.
 Integral symmetry usage will be decided dynamically.
 Keep R1 ints in memory in canonical form, NReq=1883905047.
 IVT=      574566 IEndB=      574566 NGot=  2097152000 MDV=   252723534
 LenX=   252723534 LenY=   252539909
 Requested convergence on RMS density matrix=1.00D-08 within 128 cycles.
 Requested convergence on MAX density matrix=1.00D-06.
 Requested convergence on             energy=1.00D-06.
 No special actions if energy rises.
 FoFCou: FMM=F IPFlag=           0 FMFlag=           0 FMFlg1=           0
         NFxFlg=           0 DoJE=F BraDBF=F KetDBF=F FulRan=T
         wScrn=  0.000000 ICntrl=     600 IOpCl=  0 I1Cent=           0 NGrid=           0
         NMat0=    1 NMatS0=  60726 NMatT0=    0 NMatD0=    1 NMtDS0=    0 NMtDT0=    0
 Symmetry not used in FoFCou.
 Integral accuracy reduced to 1.0D-05 until final iterations.

 Cycle   1  Pass 0  IDiag  1:
 E= -191.449222047586    
 DIIS: error= 2.63D-02 at cycle   1 NSaved=   1.
 NSaved= 1 IEnMin= 1 EnMin= -191.449222047586     IErMin= 1 ErrMin= 2.63D-02
 ErrMax= 2.63D-02  0.00D+00 EMaxC= 1.00D-01 BMatC= 2.68D-01 BMatP= 2.68D-01
 IDIUse=3 WtCom= 7.37D-01 WtEn= 2.63D-01
 Coeff-Com:  0.100D+01
 Coeff-En:   0.100D+01
 Coeff:      0.100D+01
 Gap=     0.299 Goal=   None    Shift=    0.000
 GapD=    0.299 DampG=1.000 DampE=0.500 DampFc=0.5000 IDamp=-1.
 Damping current iteration by 5.00D-01
 RMSDP=1.69D-03 MaxDP=2.03D-01              OVMax= 1.75D-01

 Cycle   2  Pass 0  IDiag  1:
 E= -191.523311544674     Delta-E=       -0.074089497087 Rises=F Damp=T
 DIIS: error= 9.51D-03 at cycle   2 NSaved=   2.
 NSaved= 2 IEnMin= 2 EnMin= -191.523311544674     IErMin= 2 ErrMin= 9.51D-03
 ErrMax= 9.51D-03  0.00D+00 EMaxC= 1.00D-01 BMatC= 3.42D-02 BMatP= 2.68D-01
 IDIUse=3 WtCom= 9.05D-01 WtEn= 9.51D-02
 Coeff-Com: -0.148D+00 0.115D+01
 Coeff-En:   0.000D+00 0.100D+01
 Coeff:     -0.134D+00 0.113D+01
 Gap=     0.352 Goal=   None    Shift=    0.000
 RMSDP=5.80D-04 MaxDP=6.87D-02 DE=-7.41D-02 OVMax= 1.32D-01

 Cycle   3  Pass 0  IDiag  1:
 E= -191.588578239120     Delta-E=       -0.065266694447 Rises=F Damp=F
 DIIS: error= 1.04D-02 at cycle   3 NSaved=   3.
 NSaved= 3 IEnMin= 3 EnMin= -191.588578239120     IErMin= 2 ErrMin= 9.51D-03
 ErrMax= 1.04D-02  0.00D+00 EMaxC= 1.00D-01 BMatC= 1.83D-02 BMatP= 3.42D-02
 IDIUse=3 WtCom= 8.96D-01 WtEn= 1.04D-01
 Coeff-Com: -0.186D+00 0.531D+00 0.655D+00
 Coeff-En:   0.000D+00 0.000D+00 0.100D+01
 Coeff:     -0.166D+00 0.475D+00 0.691D+00
 Gap=     0.337 Goal=   None    Shift=    0.000
 RMSDP=2.57D-04 MaxDP=1.99D-02 DE=-6.53D-02 OVMax= 5.19D-02

 Cycle   4  Pass 0  IDiag  1:
 E= -191.598555215987     Delta-E=       -0.009976976867 Rises=F Damp=F
 DIIS: error= 4.50D-03 at cycle   4 NSaved=   4.
 NSaved= 4 IEnMin= 4 EnMin= -191.598555215987     IErMin= 4 ErrMin= 4.50D-03
 ErrMax= 4.50D-03  0.00D+00 EMaxC= 1.00D-01 BMatC= 3.59D-03 BMatP= 1.83D-02
 IDIUse=3 WtCom= 9.55D-01 WtEn= 4.50D-02
 Coeff-Com: -0.586D-01 0.956D-01 0.367D+00 0.596D+00
 Coeff-En:   0.000D+00 0.000D+00 0.182D+00 0.818D+00
 Coeff:     -0.560D-01 0.913D-01 0.358D+00 0.606D+00
 Gap=     0.316 Goal=   None    Shift=    0.000
 RMSDP=1.04D-04 MaxDP=8.51D-03 DE=-9.98D-03 OVMax= 1.59D-02

 Cycle   5  Pass 0  IDiag  1:
 E= -191.601433423777     Delta-E=       -0.002878207790 Rises=F Damp=F
 DIIS: error= 2.75D-04 at cycle   5 NSaved=   5.
 NSaved= 5 IEnMin= 5 EnMin= -191.601433423777     IErMin= 5 ErrMin= 2.75D-04
 ErrMax= 2.75D-04  0.00D+00 EMaxC= 1.00D-01 BMatC= 1.14D-05 BMatP= 3.59D-03
 IDIUse=3 WtCom= 9.97D-01 WtEn= 2.75D-03
 Coeff-Com: -0.601D-02 0.675D-02 0.441D-01 0.108D+00 0.848D+00
 Coeff-En:   0.000D+00 0.000D+00 0.000D+00 0.000D+00 0.100D+01
 Coeff:     -0.599D-02 0.673D-02 0.440D-01 0.107D+00 0.848D+00
 Gap=     0.315 Goal=   None    Shift=    0.000
 RMSDP=8.81D-06 MaxDP=5.69D-04 DE=-2.88D-03 OVMax= 2.17D-03

 Initial convergence to 1.0D-05 achieved.  Increase integral accuracy.
 Cycle   6  Pass 1  IDiag  1:
 E= -191.601433085708     Delta-E=        0.000000338069 Rises=F Damp=F
 DIIS: error= 8.64D-05 at cycle   1 NSaved=   1.
 NSaved= 1 IEnMin= 1 EnMin= -191.601433085708     IErMin= 1 ErrMin= 8.64D-05
 ErrMax= 8.64D-05  0.00D+00 EMaxC= 1.00D-01 BMatC= 1.59D-06 BMatP= 1.59D-06
 IDIUse=1 WtCom= 1.00D+00 WtEn= 0.00D+00
 Coeff-Com:  0.100D+01
 Coeff:      0.100D+01
 Gap=     0.315 Goal=   None    Shift=    0.000
 RMSDP=8.81D-06 MaxDP=5.69D-04 DE= 3.38D-07 OVMax= 7.83D-04

 Cycle   7  Pass 1  IDiag  1:
 E= -191.601434414628     Delta-E=       -0.000001328920 Rises=F Damp=F
 DIIS: error= 5.74D-05 at cycle   2 NSaved=   2.
 NSaved= 2 IEnMin= 2 EnMin= -191.601434414628     IErMin= 2 ErrMin= 5.74D-05
 ErrMax= 5.74D-05  0.00D+00 EMaxC= 1.00D-01 BMatC= 8.61D-07 BMatP= 1.59D-06
 IDIUse=1 WtCom= 1.00D+00 WtEn= 0.00D+00
 Coeff-Com:  0.415D+00 0.585D+00
 Coeff:      0.415D+00 0.585D+00
 Gap=     0.315 Goal=   None    Shift=    0.000
 RMSDP=1.52D-06 MaxDP=8.86D-05 DE=-1.33D-06 OVMax= 3.81D-04

 Cycle   8  Pass 1  IDiag  1:
 E= -191.601435176721     Delta-E=       -0.000000762093 Rises=F Damp=F
 DIIS: error= 1.25D-05 at cycle   3 NSaved=   3.
 NSaved= 3 IEnMin= 3 EnMin= -191.601435176721     IErMin= 3 ErrMin= 1.25D-05
 ErrMax= 1.25D-05  0.00D+00 EMaxC= 1.00D-01 BMatC= 6.44D-08 BMatP= 8.61D-07
 IDIUse=1 WtCom= 1.00D+00 WtEn= 0.00D+00
 Coeff-Com:  0.447D-01 0.168D+00 0.787D+00
 Coeff:      0.447D-01 0.168D+00 0.787D+00
 Gap=     0.315 Goal=   None    Shift=    0.000
 RMSDP=1.34D-06 MaxDP=1.45D-04 DE=-7.62D-07 OVMax= 1.37D-04

 Cycle   9  Pass 1  IDiag  1:
 E= -191.601435240640     Delta-E=       -0.000000063919 Rises=F Damp=F
 DIIS: error= 1.82D-05 at cycle   4 NSaved=   4.
 NSaved= 4 IEnMin= 4 EnMin= -191.601435240640     IErMin= 3 ErrMin= 1.25D-05
 ErrMax= 1.82D-05  0.00D+00 EMaxC= 1.00D-01 BMatC= 2.48D-08 BMatP= 6.44D-08
 IDIUse=1 WtCom= 1.00D+00 WtEn= 0.00D+00
 Coeff-Com: -0.123D+00-0.107D+00 0.473D+00 0.757D+00
 Coeff:     -0.123D+00-0.107D+00 0.473D+00 0.757D+00
 Gap=     0.315 Goal=   None    Shift=    0.000
 RMSDP=6.45D-07 MaxDP=6.18D-05 DE=-6.39D-08 OVMax= 1.20D-04

 Cycle  10  Pass 1  IDiag  1:
 E= -191.601435275299     Delta-E=       -0.000000034660 Rises=F Damp=F
 DIIS: error= 1.63D-06 at cycle   5 NSaved=   5.
 NSaved= 5 IEnMin= 5 EnMin= -191.601435275299     IErMin= 5 ErrMin= 1.63D-06
 ErrMax= 1.63D-06  0.00D+00 EMaxC= 1.00D-01 BMatC= 9.56D-10 BMatP= 2.48D-08
 IDIUse=1 WtCom= 1.00D+00 WtEn= 0.00D+00
 Coeff-Com: -0.181D-01-0.245D-01-0.133D-02 0.160D+00 0.884D+00
 Coeff:     -0.181D-01-0.245D-01-0.133D-02 0.160D+00 0.884D+00
 Gap=     0.315 Goal=   None    Shift=    0.000
 RMSDP=1.52D-07 MaxDP=1.67D-05 DE=-3.47D-08 OVMax= 2.20D-05

 Cycle  11  Pass 1  IDiag  1:
 E= -191.601435276576     Delta-E=       -0.000000001277 Rises=F Damp=F
 DIIS: error= 6.25D-07 at cycle   6 NSaved=   6.
 NSaved= 6 IEnMin= 6 EnMin= -191.601435276576     IErMin= 6 ErrMin= 6.25D-07
 ErrMax= 6.25D-07  0.00D+00 EMaxC= 1.00D-01 BMatC= 1.25D-10 BMatP= 9.56D-10
 IDIUse=1 WtCom= 1.00D+00 WtEn= 0.00D+00
 Coeff-Com:  0.128D-01 0.773D-02-0.805D-01-0.443D-01 0.252D+00 0.853D+00
 Coeff:      0.128D-01 0.773D-02-0.805D-01-0.443D-01 0.252D+00 0.853D+00
 Gap=     0.315 Goal=   None    Shift=    0.000
 RMSDP=4.74D-08 MaxDP=3.39D-06 DE=-1.28D-09 OVMax= 1.15D-05

 Cycle  12  Pass 1  IDiag  1:
 E= -191.601435276818     Delta-E=       -0.000000000242 Rises=F Damp=F
 DIIS: error= 1.57D-07 at cycle   7 NSaved=   7.
 NSaved= 7 IEnMin= 7 EnMin= -191.601435276818     IErMin= 7 ErrMin= 1.57D-07
 ErrMax= 1.57D-07  0.00D+00 EMaxC= 1.00D-01 BMatC= 6.88D-12 BMatP= 1.25D-10
 IDIUse=1 WtCom= 1.00D+00 WtEn= 0.00D+00
 Coeff-Com:  0.630D-03 0.127D-02 0.537D-02-0.677D-02-0.855D-01-0.466D-01
 Coeff-Com:  0.113D+01
 Coeff:      0.630D-03 0.127D-02 0.537D-02-0.677D-02-0.855D-01-0.466D-01
 Coeff:      0.113D+01
 Gap=     0.315 Goal=   None    Shift=    0.000
 RMSDP=1.70D-08 MaxDP=7.68D-07 DE=-2.42D-10 OVMax= 6.21D-06

 Cycle  13  Pass 1  IDiag  1:
 E= -191.601435276856     Delta-E=       -0.000000000038 Rises=F Damp=F
 DIIS: error= 1.13D-07 at cycle   8 NSaved=   8.
 NSaved= 8 IEnMin= 8 EnMin= -191.601435276856     IErMin= 8 ErrMin= 1.13D-07
 ErrMax= 1.13D-07  0.00D+00 EMaxC= 1.00D-01 BMatC= 2.92D-12 BMatP= 6.88D-12
 IDIUse=1 WtCom= 1.00D+00 WtEn= 0.00D+00
 Coeff-Com: -0.182D-02-0.725D-03 0.157D-01 0.293D-02-0.825D-01-0.164D+00
 Coeff-Com:  0.486D+00 0.744D+00
 Coeff:     -0.182D-02-0.725D-03 0.157D-01 0.293D-02-0.825D-01-0.164D+00
 Coeff:      0.486D+00 0.744D+00
 Gap=     0.315 Goal=   None    Shift=    0.000
 RMSDP=7.38D-09 MaxDP=3.27D-07 DE=-3.79D-11 OVMax= 2.80D-06

 SCF Done:  E(RB2PLYPD3) =  -191.601435277     A.U. after   13 cycles
            NFock= 13  Conv=0.74D-08     -V/T= 2.0026
 KE= 1.910982902346D+02 PE=-6.561334586754D+02 EE= 1.693995209724D+02
 Leave Link  502 at Wed Aug 26 13:47:43 2020, MaxMem=  2097152000 cpu:       245.0
 (Enter /opt/cluster/programs/g09/g09_d.01/g09/l801.exe)
 DoSCS=T DFT=T ScalE2(SS,OS)=  0.270000  0.270000
 ExpMin= 7.60D-02 ExpMax= 1.17D+05 ExpMxC= 1.13D+03 IAcc=3 IRadAn=         5 AccDes= 0.00D+00
 HarFok:  IExCor=  205 AccDes= 0.00D+00 IRadAn=         5 IDoV=-2 UseB2=F ITyADJ=14
 ICtDFT= 12500011 ScaDFX=  1.000000  1.000000  1.000000  1.000000
 DSYEVD-2 returned Info=        1739 IAlg= 4 N=    57 NDim=    57 NE2=    36785415 trying  DSYEV.
 Largest valence mixing into a core orbital is  1.18D-04
 Largest core mixing into a valence orbital is  1.77D-05
 Range of M.O.s used for correlation:     5   348
 NBasis=   348 NAE=    15 NBE=    15 NFC=     4 NFV=     0
 NROrb=    344 NOA=    11 NOB=    11 NVA=   333 NVB=   333

 **** Warning!!: The largest alpha MO coefficient is  0.24096949D+02

 Leave Link  801 at Wed Aug 26 13:47:43 2020, MaxMem=  2097152000 cpu:         0.7
 (Enter /opt/cluster/programs/g09/g09_d.01/g09/l906.exe)
 DoSCS=T DFT=T ScalE2(SS,OS)=  0.270000  0.270000
 FulOut=F Deriv=F AODrv=F NAtomX=     8
   MMem=        1190  MDisk=          11 MDiskD=          11
  W3Min=     1567764 MinDsk=     2827057 NBas6D=         428
 NBas2D=       93150    NTT=       91806    LW2=     4508827
    MDV=  2096570468 MDiskM=       10875 NBas2p=       89502
 Fully direct method using O(OVN) memory.
 IMap=   1   2   3   4   5   6   7   8   9  10  11
 JobTyp=1 Pass  1:  I=   1 to  11 NPSUse=  8 ParTrn=T ParDer=T DoDerP=F.
 Spin components of T(2) and E(2):
     alpha-alpha T2 =       0.4401305104D-01 E2=     -0.2965407709D-01
     alpha-beta  T2 =       0.2668752598D+00 E2=     -0.1885585068D+00
     beta-beta   T2 =       0.4401305104D-01 E2=     -0.2965407709D-01
 The integrals were generated   1 times.
 E2(B2PLYPD3) =    -0.2478666610D+00 E(B2PLYPD3) =    -0.19184930193785D+03
 Leave Link  906 at Wed Aug 26 13:48:31 2020, MaxMem=  2097152000 cpu:       377.8
 (Enter /opt/cluster/programs/g09/g09_d.01/g09/l601.exe)
 Copying SCF densities to generalized density rwf, IOpCl= 0 IROHF=0.

 **********************************************************************

            Population analysis using the SCF density.

 **********************************************************************

 Orbital symmetries:
       Occupied  (A) (A) (A) (A) (A) (A) (A) (A) (A) (A) (A) (A)
                 (A) (A) (A)
       Virtual   (A) (A) (A) (A) (A) (A) (A) (A) (A) (A) (A) (A)
                 (A) (A) (A) (A) (A) (A) (A) (A) (A) (A) (A) (A)
                 (A) (A) (A) (A) (A) (A) (A) (A) (A) (A) (A) (A)
                 (A) (A) (A) (A) (A) (A) (A) (A) (A) (A) (A) (A)
                 (A) (A) (A) (A) (A) (A) (A) (A) (A) (A) (A) (A)
                 (A) (A) (A) (A) (A) (A) (A) (A) (A) (A) (A) (A)
                 (A) (A) (A) (A) (A) (A) (A) (A) (A) (A) (A) (A)
                 (A) (A) (A) (A) (A) (A) (A) (A) (A) (A) (A) (A)
                 (A) (A) (A) (A) (A) (A) (A) (A) (A) (A) (A) (A)
                 (A) (A) (A) (A) (A) (A) (A) (A) (A) (A) (A) (A)
                 (A) (A) (A) (A) (A) (A) (A) (A) (A) (A) (A) (A)
                 (A) (A) (A) (A) (A) (A) (A) (A) (A) (A) (A) (A)
                 (A) (A) (A) (A) (A) (A) (A) (A) (A) (A) (A) (A)
                 (A) (A) (A) (A) (A) (A) (A) (A) (A) (A) (A) (A)
                 (A) (A) (A) (A) (A) (A) (A) (A) (A) (A) (A) (A)
                 (A) (A) (A) (A) (A) (A) (A) (A) (A) (A) (A) (A)
                 (A) (A) (A) (A) (A) (A) (A) (A) (A) (A) (A) (A)
                 (A) (A) (A) (A) (A) (A) (A) (A) (A) (A) (A) (A)
                 (A) (A) (A) (A) (A) (A) (A) (A) (A) (A) (A) (A)
                 (A) (A) (A) (A) (A) (A) (A) (A) (A) (A) (A) (A)
                 (A) (A) (A) (A) (A) (A) (A) (A) (A) (A) (A) (A)
                 (A) (A) (A) (A) (A) (A) (A) (A) (A) (A) (A) (A)
                 (A) (A) (A) (A) (A) (A) (A) (A) (A) (A) (A) (A)
                 (A) (A) (A) (A) (A) (A) (A) (A) (A) (A) (A) (A)
                 (A) (A) (A) (A) (A) (A) (A) (A) (A) (A) (A) (A)
                 (A) (A) (A) (A) (A) (A) (A) (A) (A) (A) (A) (A)
                 (A) (A) (A) (A) (A) (A) (A) (A) (A) (A) (A) (A)
                 (A) (A) (A) (A) (A) (A) (A) (A) (A)
 The electronic state is 1-A.
 Alpha  occ. eigenvalues --  -19.73211 -10.72452 -10.65084 -10.63562  -1.19171
 Alpha  occ. eigenvalues --   -0.94631  -0.76302  -0.66640  -0.57462  -0.56105
 Alpha  occ. eigenvalues --   -0.50575  -0.47245  -0.46623  -0.35308  -0.33688
 Alpha virt. eigenvalues --   -0.02158   0.05748   0.07110   0.08089   0.09866
 Alpha virt. eigenvalues --    0.12597   0.13896   0.15172   0.17258   0.19475
 Alpha virt. eigenvalues --    0.20692   0.21735   0.24469   0.26927   0.28652
 Alpha virt. eigenvalues --    0.31403   0.32808   0.35671   0.36668   0.38195
 Alpha virt. eigenvalues --    0.38871   0.40898   0.42857   0.44168   0.46493
 Alpha virt. eigenvalues --    0.48198   0.49302   0.53418   0.55449   0.59388
 Alpha virt. eigenvalues --    0.59873   0.64112   0.65831   0.67641   0.71117
 Alpha virt. eigenvalues --    0.75167   0.76401   0.78653   0.79671   0.81123
 Alpha virt. eigenvalues --    0.81954   0.82774   0.83557   0.84517   0.86985
 Alpha virt. eigenvalues --    0.88776   0.91799   0.92626   0.94386   0.96653
 Alpha virt. eigenvalues --    0.96954   0.97821   1.00837   1.03065   1.05889
 Alpha virt. eigenvalues --    1.08467   1.11695   1.15985   1.16809   1.19786
 Alpha virt. eigenvalues --    1.21904   1.27006   1.28960   1.31908   1.37352
 Alpha virt. eigenvalues --    1.42283   1.47832   1.48531   1.54373   1.55111
 Alpha virt. eigenvalues --    1.58012   1.60012   1.65236   1.68156   1.70223
 Alpha virt. eigenvalues --    1.75208   1.76558   1.77569   1.82230   1.85654
 Alpha virt. eigenvalues --    1.87254   1.90861   1.91532   1.92515   1.96820
 Alpha virt. eigenvalues --    1.97955   1.99802   2.00237   2.01785   2.03725
 Alpha virt. eigenvalues --    2.06824   2.09157   2.11028   2.14335   2.16523
 Alpha virt. eigenvalues --    2.18682   2.19380   2.22695   2.22815   2.25845
 Alpha virt. eigenvalues --    2.29621   2.35107   2.36719   2.38287   2.41236
 Alpha virt. eigenvalues --    2.43550   2.46249   2.47342   2.50720   2.53292
 Alpha virt. eigenvalues --    2.55404   2.57441   2.59043   2.62795   2.64244
 Alpha virt. eigenvalues --    2.66939   2.69289   2.69907   2.72238   2.76067
 Alpha virt. eigenvalues --    2.77548   2.78997   2.83375   2.85325   2.86050
 Alpha virt. eigenvalues --    2.90422   2.97106   3.01389   3.04891   3.06814
 Alpha virt. eigenvalues --    3.15199   3.18120   3.23320   3.27804   3.34932
 Alpha virt. eigenvalues --    3.38306   3.39835   3.43715   3.47987   3.49983
 Alpha virt. eigenvalues --    3.51288   3.54554   3.61664   3.63514   3.66744
 Alpha virt. eigenvalues --    3.68628   3.75616   3.79477   3.86886   3.88221
 Alpha virt. eigenvalues --    3.93007   4.00690   4.04367   4.06283   4.07686
 Alpha virt. eigenvalues --    4.10146   4.20040   4.22284   4.28420   4.31584
 Alpha virt. eigenvalues --    4.42675   4.46174   4.55432   4.59505   4.64275
 Alpha virt. eigenvalues --    4.67464   4.86385   4.89132   4.95625   5.01267
 Alpha virt. eigenvalues --    5.03299   5.07629   5.07973   5.13864   5.16303
 Alpha virt. eigenvalues --    5.22086   5.26125   5.28489   5.33728   5.40769
 Alpha virt. eigenvalues --    5.48227   5.53592   5.55495   5.58352   5.61694
 Alpha virt. eigenvalues --    5.64607   5.66859   5.70285   5.75882   5.77844
 Alpha virt. eigenvalues --    5.82703   5.83737   5.85906   5.88974   5.93135
 Alpha virt. eigenvalues --    5.96962   5.98677   5.99328   6.05702   6.07174
 Alpha virt. eigenvalues --    6.10265   6.13656   6.14352   6.18208   6.18968
 Alpha virt. eigenvalues --    6.19965   6.21468   6.24970   6.25512   6.31431
 Alpha virt. eigenvalues --    6.33921   6.37026   6.40862   6.43581   6.46419
 Alpha virt. eigenvalues --    6.49725   6.52544   6.56113   6.59289   6.61699
 Alpha virt. eigenvalues --    6.66216   6.69139   6.72895   6.81014   6.85624
 Alpha virt. eigenvalues --    6.86733   6.90075   6.95765   6.96167   7.06705
 Alpha virt. eigenvalues --    7.09682   7.11805   7.18542   7.19982   7.21723
 Alpha virt. eigenvalues --    7.27943   7.37121   7.44652   7.48594   7.51492
 Alpha virt. eigenvalues --    7.58248   7.61030   7.62641   7.64652   7.68641
 Alpha virt. eigenvalues --    7.69581   7.73804   7.76569   7.78593   7.80590
 Alpha virt. eigenvalues --    7.82455   7.88739   7.92366   7.96765   8.05107
 Alpha virt. eigenvalues --    8.06690   8.14405   8.17751   8.21545   8.24777
 Alpha virt. eigenvalues --    8.26680   8.29817   8.31024   8.33763   8.37098
 Alpha virt. eigenvalues --    8.39792   8.44609   8.46693   8.51859   8.56806
 Alpha virt. eigenvalues --    8.60910   8.64063   8.71005   8.76604   8.79458
 Alpha virt. eigenvalues --    8.84323   8.92440   8.98543   8.99902   9.04259
 Alpha virt. eigenvalues --    9.08628   9.10394   9.15972   9.20417   9.30567
 Alpha virt. eigenvalues --    9.34369   9.47270   9.50623   9.54839   9.60726
 Alpha virt. eigenvalues --    9.68141   9.78834   9.92599   9.96188  10.04921
 Alpha virt. eigenvalues --   10.15634  10.21279  10.22701  10.33588  10.46617
 Alpha virt. eigenvalues --   10.48220  10.56180  10.70152  10.80489  10.91998
 Alpha virt. eigenvalues --   11.00078  11.24275  11.26682  11.35729  11.56073
 Alpha virt. eigenvalues --   11.64902  11.71086  11.88154  11.97555  12.04836
 Alpha virt. eigenvalues --   12.09252  12.31230  12.37234  12.48066  12.95528
 Alpha virt. eigenvalues --   13.17517  13.34124  13.69564  14.36996  14.64332
 Alpha virt. eigenvalues --   28.58801  28.89510  29.72813  48.63236 148.16660
 Alpha virt. eigenvalues --  148.46477 149.37331 254.38959
          Condensed to atoms (all electrons):
               1          2          3          4          5          6
     1  C    4.525482   0.611233   0.351939  -0.058256  -0.037223  -0.004648
     2  O    0.611233   7.880184  -0.080083   0.006281   0.006132   0.000340
     3  C    0.351939  -0.080083   5.152370   0.485789   0.366686  -0.058980
     4  C   -0.058256   0.006281   0.485789   4.858047  -0.042167   0.425994
     5  H   -0.037223   0.006132   0.366686  -0.042167   0.590664   0.006390
     6  H   -0.004648   0.000340  -0.058980   0.425994   0.006390   0.579619
     7  H    0.002780  -0.000423  -0.031544   0.419265  -0.005333  -0.043926
     8  H    0.445525  -0.074981  -0.165504   0.023589   0.010327   0.007508
               7          8
     1  C    0.002780   0.445525
     2  O   -0.000423  -0.074981
     3  C   -0.031544  -0.165504
     4  C    0.419265   0.023589
     5  H   -0.005333   0.010327
     6  H   -0.043926   0.007508
     7  H    0.561572  -0.000507
     8  H   -0.000507   0.719654
 Mulliken charges:
               1
     1  C    0.163168
     2  O   -0.348684
     3  C   -0.020672
     4  C   -0.118542
     5  H    0.104525
     6  H    0.087703
     7  H    0.098114
     8  H    0.034388
 Sum of Mulliken charges =   0.00000
 Mulliken charges with hydrogens summed into heavy atoms:
               1
     1  C    0.197556
     2  O   -0.348684
     3  C    0.083852
     4  C    0.067275
 Electronic spatial extent (au):  <R**2>=            294.9736
 Charge=              0.0000 electrons
 Dipole moment (field-independent basis, Debye):
    X=             -3.6516    Y=              0.5656    Z=              0.0885  Tot=              3.6962
 Quadrupole moment (field-independent basis, Debye-Ang):
   XX=            -27.0008   YY=            -22.3808   ZZ=            -24.9730
   XY=              0.7026   XZ=              0.1686   YZ=              0.2059
 Traceless Quadrupole moment (field-independent basis, Debye-Ang):
   XX=             -2.2159   YY=              2.4040   ZZ=             -0.1881
   XY=              0.7026   XZ=              0.1686   YZ=              0.2059
 Octapole moment (field-independent basis, Debye-Ang**2):
  XXX=            -16.6186  YYY=             -0.8847  ZZZ=              0.0376  XYY=              0.3486
  XXY=              0.5819  XXZ=             -0.3109  XZZ=              3.7079  YZZ=             -0.0633
  YYZ=              0.0872  XYZ=             -0.5668
 Hexadecapole moment (field-independent basis, Debye-Ang**3):
 XXXX=           -293.6400 YYYY=            -56.5713 ZZZZ=            -27.1218 XXXY=              2.1762
 XXXZ=              1.8670 YYYX=             -0.8047 YYYZ=              0.2120 ZZZX=             -0.1795
 ZZZY=              0.3389 XXYY=            -58.6378 XXZZ=            -56.0175 YYZZ=            -15.2552
 XXYZ=              1.4443 YYXZ=             -0.5791 ZZXY=             -0.6113
 N-N= 1.040342121915D+02 E-N=-6.561334674350D+02  KE= 1.910982902346D+02
 Leave Link  601 at Wed Aug 26 13:48:31 2020, MaxMem=  2097152000 cpu:         0.5
 (Enter /opt/cluster/programs/g09/g09_d.01/g09/l9999.exe)
 1\1\GINC-NODE32\SP\RB2PLYPD3-FC\def2QZVP\C3H4O1\BOITTIER\26-Aug-2020\0
 \\#p B2PLYPD3/Def2QZVP\\acrolein\\0,1\C,0,-4.998863,-1.40138,0.92563\O
 ,0,-3.939618,-0.869682,0.634061\C,0,-5.205906,-2.797719,1.181715\C,0,-
 6.38245,-3.315635,1.368942\H,0,-4.337452,-3.360395,1.129123\H,0,-7.178
 936,-2.687703,1.593169\H,0,-6.628514,-4.385668,1.453239\H,0,-6.042842,
 -0.792794,0.815617\\Version=ES64L-G09RevD.01\State=1-A\HF=-191.6014353
 \MP2=-191.8493019\RMSD=7.376e-09\PG=C01 [X(C3H4O1)]\\@


 "PERFECTION IS NOT AN ACCIDENT"
         --  EAGLE ELECTRIC MANUFACTURING CO.,INC. NY
 Job cpu time:       0 days  0 hours 10 minutes 36.7 seconds.
 File lengths (MBytes):  RWF=     49 Int=      0 D2E=      0 Chk=      7 Scr=      1
 Normal termination of Gaussian 09 at Wed Aug 26 13:48:31 2020.
