 Entering Gaussian System, Link 0=/opt/cluster/programs/g09/g09_d.01/g09//g09
 Input=/home/boittier/MDCM/nms_sampling/acrolein_geom.xyz.dir/energies/acrolein_488_energy.com
 Output=/scratch/boittier/acrolein_488_energy/acrolein_488_energy.out
 Initial command:
 /opt/cluster/programs/g09/g09_d.01/g09/l1.exe "/scratch/boittier/acrolein_488_energy/Gau-189621.inp" -scrdir="/scratch/boittier/acrolein_488_energy/"
 Entering Link 1 = /opt/cluster/programs/g09/g09_d.01/g09/l1.exe PID=    189622.
  
 Copyright (c) 1988,1990,1992,1993,1995,1998,2003,2009,2013,
            Gaussian, Inc.  All Rights Reserved.
  
 This is part of the Gaussian(R) 09 program.  It is based on
 the Gaussian(R) 03 system (copyright 2003, Gaussian, Inc.),
 the Gaussian(R) 98 system (copyright 1998, Gaussian, Inc.),
 the Gaussian(R) 94 system (copyright 1995, Gaussian, Inc.),
 the Gaussian 92(TM) system (copyright 1992, Gaussian, Inc.),
 the Gaussian 90(TM) system (copyright 1990, Gaussian, Inc.),
 the Gaussian 88(TM) system (copyright 1988, Gaussian, Inc.),
 the Gaussian 86(TM) system (copyright 1986, Carnegie Mellon
 University), and the Gaussian 82(TM) system (copyright 1983,
 Carnegie Mellon University). Gaussian is a federally registered
 trademark of Gaussian, Inc.
  
 This software contains proprietary and confidential information,
 including trade secrets, belonging to Gaussian, Inc.
  
 This software is provided under written license and may be
 used, copied, transmitted, or stored only in accord with that
 written license.
  
 The following legend is applicable only to US Government
 contracts under FAR:
  
                    RESTRICTED RIGHTS LEGEND
  
 Use, reproduction and disclosure by the US Government is
 subject to restrictions as set forth in subparagraphs (a)
 and (c) of the Commercial Computer Software - Restricted
 Rights clause in FAR 52.227-19.
  
 Gaussian, Inc.
 340 Quinnipiac St., Bldg. 40, Wallingford CT 06492
  
  
 ---------------------------------------------------------------
 Warning -- This program may not be used in any manner that
 competes with the business of Gaussian, Inc. or will provide
 assistance to any competitor of Gaussian, Inc.  The licensee
 of this program is prohibited from giving any competitor of
 Gaussian, Inc. access to this program.  By using this program,
 the user acknowledges that Gaussian, Inc. is engaged in the
 business of creating and licensing software in the field of
 computational chemistry and represents and warrants to the
 licensee that it is not a competitor of Gaussian, Inc. and that
 it will not use this program in any manner prohibited above.
 ---------------------------------------------------------------
  

 Cite this work as:
 Gaussian 09, Revision D.01,
 M. J. Frisch, G. W. Trucks, H. B. Schlegel, G. E. Scuseria, 
 M. A. Robb, J. R. Cheeseman, G. Scalmani, V. Barone, B. Mennucci, 
 G. A. Petersson, H. Nakatsuji, M. Caricato, X. Li, H. P. Hratchian, 
 A. F. Izmaylov, J. Bloino, G. Zheng, J. L. Sonnenberg, M. Hada, 
 M. Ehara, K. Toyota, R. Fukuda, J. Hasegawa, M. Ishida, T. Nakajima, 
 Y. Honda, O. Kitao, H. Nakai, T. Vreven, J. A. Montgomery, Jr., 
 J. E. Peralta, F. Ogliaro, M. Bearpark, J. J. Heyd, E. Brothers, 
 K. N. Kudin, V. N. Staroverov, T. Keith, R. Kobayashi, J. Normand, 
 K. Raghavachari, A. Rendell, J. C. Burant, S. S. Iyengar, J. Tomasi, 
 M. Cossi, N. Rega, J. M. Millam, M. Klene, J. E. Knox, J. B. Cross, 
 V. Bakken, C. Adamo, J. Jaramillo, R. Gomperts, R. E. Stratmann, 
 O. Yazyev, A. J. Austin, R. Cammi, C. Pomelli, J. W. Ochterski, 
 R. L. Martin, K. Morokuma, V. G. Zakrzewski, G. A. Voth, 
 P. Salvador, J. J. Dannenberg, S. Dapprich, A. D. Daniels, 
 O. Farkas, J. B. Foresman, J. V. Ortiz, J. Cioslowski, 
 and D. J. Fox, Gaussian, Inc., Wallingford CT, 2013.
 
 ******************************************
 Gaussian 09:  ES64L-G09RevD.01 24-Apr-2013
                26-Aug-2020 
 ******************************************
 %chk=/home/boittier/MDCM/nms_sampling/acrolein_geom.xyz.dir/acrolein_488.chk
 %nproc=8
 Will use up to    8 processors via shared memory.
 %mem=16000MB
 --------------------
 #p B2PLYPD3/Def2QZVP
 --------------------
 1/38=1/1;
 2/12=2,17=6,18=5,40=1/2;
 3/5=45,7=101,11=9,16=1,25=1,30=1,74=-60/1,2,3;
 4//1;
 5/5=2,38=5/2;
 8/10=1/1;
 9/16=-3/6;
 6/7=2,8=2,9=2,10=2/1;
 99/5=1,9=1/99;
 Leave Link    1 at Wed Aug 26 16:03:40 2020, MaxMem=  2097152000 cpu:         0.4
 (Enter /opt/cluster/programs/g09/g09_d.01/g09/l101.exe)
 --------
 acrolein
 --------
 Symbolic Z-matrix:
 Charge =  0 Multiplicity = 1
 C                    -5.00092  -1.38622   0.91432 
 O                    -3.93109  -0.86459   0.6378 
 C                    -5.19161  -2.82629   1.16321 
 C                    -6.41777  -3.30894   1.38611 
 H                    -4.27984  -3.43081   1.14175 
 H                    -7.29915  -2.64891   1.33436 
 H                    -6.59096  -4.34618   1.58011 
 H                    -5.89156  -0.80591   1.03256 
 
 NAtoms=      8 NQM=        8 NQMF=       0 NMMI=      0 NMMIF=      0
                NMic=       0 NMicF=      0.
                    Isotopes and Nuclear Properties:
 (Nuclear quadrupole moments (NQMom) in fm**2, nuclear magnetic moments (NMagM)
  in nuclear magnetons)

  Atom         1           2           3           4           5           6           7           8
 IAtWgt=          12          16          12          12           1           1           1           1
 AtmWgt=  12.0000000  15.9949146  12.0000000  12.0000000   1.0078250   1.0078250   1.0078250   1.0078250
 NucSpn=           0           0           0           0           1           1           1           1
 AtZEff=   0.0000000   0.0000000   0.0000000   0.0000000   0.0000000   0.0000000   0.0000000   0.0000000
 NQMom=    0.0000000   0.0000000   0.0000000   0.0000000   0.0000000   0.0000000   0.0000000   0.0000000
 NMagM=    0.0000000   0.0000000   0.0000000   0.0000000   2.7928460   2.7928460   2.7928460   2.7928460
 AtZNuc=   6.0000000   8.0000000   6.0000000   6.0000000   1.0000000   1.0000000   1.0000000   1.0000000
 Leave Link  101 at Wed Aug 26 16:03:40 2020, MaxMem=  2097152000 cpu:         0.5
 (Enter /opt/cluster/programs/g09/g09_d.01/g09/l202.exe)
                          Input orientation:                          
 ---------------------------------------------------------------------
 Center     Atomic      Atomic             Coordinates (Angstroms)
 Number     Number       Type             X           Y           Z
 ---------------------------------------------------------------------
      1          6           0       -5.000920   -1.386217    0.914315
      2          8           0       -3.931085   -0.864586    0.637797
      3          6           0       -5.191606   -2.826287    1.163210
      4          6           0       -6.417766   -3.308942    1.386110
      5          1           0       -4.279836   -3.430812    1.141753
      6          1           0       -7.299149   -2.648907    1.334364
      7          1           0       -6.590961   -4.346177    1.580110
      8          1           0       -5.891565   -0.805913    1.032556
 ---------------------------------------------------------------------
                    Distance matrix (angstroms):
                    1          2          3          4          5
     1  C    0.000000
     2  O    1.221928   0.000000
     3  C    1.473808   2.390239   0.000000
     4  C    2.434526   3.566291   1.336454   0.000000
     5  H    2.179922   2.638392   1.094183   2.155298   0.000000
     6  H    2.655689   3.874643   2.121908   1.102343   3.124856
     7  H    3.425329   4.481559   2.107621   1.069340   2.524153
     8  H    1.069571   2.000690   2.142177   2.582062   3.082157
                    6          7          8
     6  H    0.000000
     7  H    1.855437   0.000000
     8  H    2.338591   3.649992   0.000000
 Stoichiometry    C3H4O
 Framework group  C1[X(C3H4O)]
 Deg. of freedom    18
 Full point group                 C1      NOp   1
 Largest Abelian subgroup         C1      NOp   1
 Largest concise Abelian subgroup C1      NOp   1
                         Standard orientation:                         
 ---------------------------------------------------------------------
 Center     Atomic      Atomic             Coordinates (Angstroms)
 Number     Number       Type             X           Y           Z
 ---------------------------------------------------------------------
      1          6           0        0.666568    0.348497    0.018814
      2          8           0        1.798026   -0.111017   -0.023122
      3          6           0       -0.566456   -0.458815    0.015676
      4          6           0       -1.759142    0.143610   -0.010644
      5          1           0       -0.417507   -1.542728    0.029157
      6          1           0       -1.832538    1.241122   -0.083034
      7          1           0       -2.673445   -0.410904   -0.003482
      8          1           0        0.493456    1.400895    0.099263
 ---------------------------------------------------------------------
 Rotational constants (GHZ):     47.8881517      4.6481286      4.2393378
 Leave Link  202 at Wed Aug 26 16:03:40 2020, MaxMem=  2097152000 cpu:         0.0
 (Enter /opt/cluster/programs/g09/g09_d.01/g09/l301.exe)
 Standard basis: def2QZVP (5D, 7F)
 Ernie: Thresh=  0.10000D-02 Tol=  0.10000D-05 Strict=F.
 There are   428 symmetry adapted cartesian basis functions of A   symmetry.
 There are   348 symmetry adapted basis functions of A   symmetry.
   348 basis functions,   520 primitive gaussians,   428 cartesian basis functions
    15 alpha electrons       15 beta electrons
       nuclear repulsion energy       102.9932963533 Hartrees.
 IExCor=  419 DFT=T Ex+Corr=B2PLYPD3 ExCW=0 ScaHFX=  0.530000
 ScaDFX=  0.470000  0.470000  0.730000  0.730000 ScalE2=  0.270000  0.270000
 IRadAn=      0 IRanWt=     -1 IRanGd=            0 ICorTp=0 IEmpDi=141
 NAtoms=    8 NActive=    8 NUniq=    8 SFac= 1.00D+00 NAtFMM=   60 NAOKFM=F Big=F
 Integral buffers will be    131072 words long.
 Regular integral format.
 Two-electron integral symmetry is turned on.
 R6Disp:  Grimme-D3(BJ) Dispersion energy=       -0.0035871755 Hartrees.
 Nuclear repulsion after empirical dispersion term =      102.9897091778 Hartrees.
 Leave Link  301 at Wed Aug 26 16:03:40 2020, MaxMem=  2097152000 cpu:         0.4
 (Enter /opt/cluster/programs/g09/g09_d.01/g09/l302.exe)
 NPDir=0 NMtPBC=     1 NCelOv=     1 NCel=       1 NClECP=     1 NCelD=      1
         NCelK=      1 NCelE2=     1 NClLst=     1 CellRange=     0.0.
 One-electron integrals computed using PRISM.
   1 Symmetry operations used in ECPInt.
 ECPInt:  NShTT=    5886 NPrTT=   14376 LenC2=    5781 LenP2D=   12181.
 LDataN:  DoStor=T MaxTD1= 8 Len=  415
 NBasis=   348 RedAO= T EigKep=  5.88D-05  NBF=   348
 NBsUse=   348 1.00D-06 EigRej= -1.00D+00 NBFU=   348
 Precomputing XC quadrature grid using
 IXCGrd= 4 IRadAn=           0 IRanWt=          -1 IRanGd=           0 AccXCQ= 0.00D+00.
 Generated NRdTot=       0 NPtTot=           0 NUsed=           0 NTot=          32
 NSgBfM=   428   428   428   428   428 MxSgAt=     8 MxSgA2=     8.
 Leave Link  302 at Wed Aug 26 16:03:41 2020, MaxMem=  2097152000 cpu:         3.0
 (Enter /opt/cluster/programs/g09/g09_d.01/g09/l303.exe)
 DipDrv:  MaxL=1.
 Leave Link  303 at Wed Aug 26 16:03:41 2020, MaxMem=  2097152000 cpu:         0.3
 (Enter /opt/cluster/programs/g09/g09_d.01/g09/l401.exe)
 ExpMin= 7.60D-02 ExpMax= 1.17D+05 ExpMxC= 1.13D+03 IAcc=2 IRadAn=         4 AccDes= 0.00D+00
 Harris functional with IExCor=  419 and IRadAn=       4 diagonalized for initial guess.
 HarFok:  IExCor=  419 AccDes= 0.00D+00 IRadAn=         4 IDoV= 1 UseB2=F ITyADJ=14
 ICtDFT=  3500011 ScaDFX=  1.000000  1.000000  1.000000  1.000000
 FoFCou: FMM=F IPFlag=           0 FMFlag=      100000 FMFlg1=           0
         NFxFlg=           0 DoJE=T BraDBF=F KetDBF=T FulRan=T
         wScrn=  0.000000 ICntrl=     500 IOpCl=  0 I1Cent=   200000004 NGrid=           0
         NMat0=    1 NMatS0=      1 NMatT0=    0 NMatD0=    1 NMtDS0=    0 NMtDT0=    0
 Petite list used in FoFCou.
 Harris En= -192.044407438354    
 JPrj=0 DoOrth=F DoCkMO=F.
 Leave Link  401 at Wed Aug 26 16:03:42 2020, MaxMem=  2097152000 cpu:         6.9
 (Enter /opt/cluster/programs/g09/g09_d.01/g09/l502.exe)
 Closed shell SCF:
 Using DIIS extrapolation, IDIIS=  1040.
 Integral symmetry usage will be decided dynamically.
 Keep R1 ints in memory in canonical form, NReq=1883905047.
 IVT=      574566 IEndB=      574566 NGot=  2097152000 MDV=   252723534
 LenX=   252723534 LenY=   252539909
 Requested convergence on RMS density matrix=1.00D-08 within 128 cycles.
 Requested convergence on MAX density matrix=1.00D-06.
 Requested convergence on             energy=1.00D-06.
 No special actions if energy rises.
 FoFCou: FMM=F IPFlag=           0 FMFlag=           0 FMFlg1=           0
         NFxFlg=           0 DoJE=F BraDBF=F KetDBF=F FulRan=T
         wScrn=  0.000000 ICntrl=     600 IOpCl=  0 I1Cent=           0 NGrid=           0
         NMat0=    1 NMatS0=  60726 NMatT0=    0 NMatD0=    1 NMtDS0=    0 NMtDT0=    0
 Symmetry not used in FoFCou.
 Integral accuracy reduced to 1.0D-05 until final iterations.

 Cycle   1  Pass 0  IDiag  1:
 E= -191.476276296694    
 DIIS: error= 2.44D-02 at cycle   1 NSaved=   1.
 NSaved= 1 IEnMin= 1 EnMin= -191.476276296694     IErMin= 1 ErrMin= 2.44D-02
 ErrMax= 2.44D-02  0.00D+00 EMaxC= 1.00D-01 BMatC= 2.51D-01 BMatP= 2.51D-01
 IDIUse=3 WtCom= 7.56D-01 WtEn= 2.44D-01
 Coeff-Com:  0.100D+01
 Coeff-En:   0.100D+01
 Coeff:      0.100D+01
 Gap=     0.283 Goal=   None    Shift=    0.000
 GapD=    0.283 DampG=1.000 DampE=0.500 DampFc=0.5000 IDamp=-1.
 Damping current iteration by 5.00D-01
 RMSDP=1.76D-03 MaxDP=2.15D-01              OVMax= 1.72D-01

 Cycle   2  Pass 0  IDiag  1:
 E= -191.543659853733     Delta-E=       -0.067383557039 Rises=F Damp=T
 DIIS: error= 1.13D-02 at cycle   2 NSaved=   2.
 NSaved= 2 IEnMin= 2 EnMin= -191.543659853733     IErMin= 2 ErrMin= 1.13D-02
 ErrMax= 1.13D-02  0.00D+00 EMaxC= 1.00D-01 BMatC= 3.38D-02 BMatP= 2.51D-01
 IDIUse=3 WtCom= 8.87D-01 WtEn= 1.13D-01
 Coeff-Com: -0.156D+00 0.116D+01
 Coeff-En:   0.000D+00 0.100D+01
 Coeff:     -0.139D+00 0.114D+01
 Gap=     0.351 Goal=   None    Shift=    0.000
 RMSDP=5.98D-04 MaxDP=7.29D-02 DE=-6.74D-02 OVMax= 1.33D-01

 Cycle   3  Pass 0  IDiag  1:
 E= -191.602865810315     Delta-E=       -0.059205956582 Rises=F Damp=F
 DIIS: error= 8.38D-03 at cycle   3 NSaved=   3.
 NSaved= 3 IEnMin= 3 EnMin= -191.602865810315     IErMin= 3 ErrMin= 8.38D-03
 ErrMax= 8.38D-03  0.00D+00 EMaxC= 1.00D-01 BMatC= 1.74D-02 BMatP= 3.38D-02
 IDIUse=3 WtCom= 9.16D-01 WtEn= 8.38D-02
 Coeff-Com: -0.194D+00 0.531D+00 0.663D+00
 Coeff-En:   0.000D+00 0.000D+00 0.100D+01
 Coeff:     -0.178D+00 0.487D+00 0.691D+00
 Gap=     0.332 Goal=   None    Shift=    0.000
 RMSDP=2.36D-04 MaxDP=1.67D-02 DE=-5.92D-02 OVMax= 4.77D-02

 Cycle   4  Pass 0  IDiag  1:
 E= -191.612643513254     Delta-E=       -0.009777702939 Rises=F Damp=F
 DIIS: error= 3.44D-03 at cycle   4 NSaved=   4.
 NSaved= 4 IEnMin= 4 EnMin= -191.612643513254     IErMin= 4 ErrMin= 3.44D-03
 ErrMax= 3.44D-03  0.00D+00 EMaxC= 1.00D-01 BMatC= 2.88D-03 BMatP= 1.74D-02
 IDIUse=3 WtCom= 9.66D-01 WtEn= 3.44D-02
 Coeff-Com: -0.626D-01 0.105D+00 0.356D+00 0.602D+00
 Coeff-En:   0.000D+00 0.000D+00 0.150D+00 0.850D+00
 Coeff:     -0.605D-01 0.101D+00 0.349D+00 0.611D+00
 Gap=     0.320 Goal=   None    Shift=    0.000
 RMSDP=9.33D-05 MaxDP=7.22D-03 DE=-9.78D-03 OVMax= 1.42D-02

 Cycle   5  Pass 0  IDiag  1:
 E= -191.615002008627     Delta-E=       -0.002358495373 Rises=F Damp=F
 DIIS: error= 3.01D-04 at cycle   5 NSaved=   5.
 NSaved= 5 IEnMin= 5 EnMin= -191.615002008627     IErMin= 5 ErrMin= 3.01D-04
 ErrMax= 3.01D-04  0.00D+00 EMaxC= 1.00D-01 BMatC= 1.17D-05 BMatP= 2.88D-03
 IDIUse=3 WtCom= 9.97D-01 WtEn= 3.01D-03
 Coeff-Com: -0.943D-02 0.128D-01 0.593D-01 0.134D+00 0.804D+00
 Coeff-En:   0.000D+00 0.000D+00 0.000D+00 0.000D+00 0.100D+01
 Coeff:     -0.940D-02 0.127D-01 0.591D-01 0.133D+00 0.804D+00
 Gap=     0.319 Goal=   None    Shift=    0.000
 RMSDP=8.52D-06 MaxDP=5.95D-04 DE=-2.36D-03 OVMax= 2.27D-03

 Initial convergence to 1.0D-05 achieved.  Increase integral accuracy.
 Cycle   6  Pass 1  IDiag  1:
 E= -191.615006716297     Delta-E=       -0.000004707670 Rises=F Damp=F
 DIIS: error= 1.02D-04 at cycle   1 NSaved=   1.
 NSaved= 1 IEnMin= 1 EnMin= -191.615006716297     IErMin= 1 ErrMin= 1.02D-04
 ErrMax= 1.02D-04  0.00D+00 EMaxC= 1.00D-01 BMatC= 1.66D-06 BMatP= 1.66D-06
 IDIUse=3 WtCom= 9.99D-01 WtEn= 1.02D-03
 Coeff-Com:  0.100D+01
 Coeff-En:   0.100D+01
 Coeff:      0.100D+01
 Gap=     0.320 Goal=   None    Shift=    0.000
 RMSDP=8.52D-06 MaxDP=5.95D-04 DE=-4.71D-06 OVMax= 7.60D-04

 Cycle   7  Pass 1  IDiag  1:
 E= -191.615007968779     Delta-E=       -0.000001252482 Rises=F Damp=F
 DIIS: error= 6.94D-05 at cycle   2 NSaved=   2.
 NSaved= 2 IEnMin= 2 EnMin= -191.615007968779     IErMin= 2 ErrMin= 6.94D-05
 ErrMax= 6.94D-05  0.00D+00 EMaxC= 1.00D-01 BMatC= 9.35D-07 BMatP= 1.66D-06
 IDIUse=1 WtCom= 1.00D+00 WtEn= 0.00D+00
 Coeff-Com:  0.421D+00 0.579D+00
 Coeff:      0.421D+00 0.579D+00
 Gap=     0.320 Goal=   None    Shift=    0.000
 RMSDP=1.68D-06 MaxDP=1.01D-04 DE=-1.25D-06 OVMax= 4.99D-04

 Cycle   8  Pass 1  IDiag  1:
 E= -191.615008840582     Delta-E=       -0.000000871803 Rises=F Damp=F
 DIIS: error= 1.46D-05 at cycle   3 NSaved=   3.
 NSaved= 3 IEnMin= 3 EnMin= -191.615008840582     IErMin= 3 ErrMin= 1.46D-05
 ErrMax= 1.46D-05  0.00D+00 EMaxC= 1.00D-01 BMatC= 7.09D-08 BMatP= 9.35D-07
 IDIUse=1 WtCom= 1.00D+00 WtEn= 0.00D+00
 Coeff-Com:  0.538D-01 0.187D+00 0.760D+00
 Coeff:      0.538D-01 0.187D+00 0.760D+00
 Gap=     0.320 Goal=   None    Shift=    0.000
 RMSDP=1.47D-06 MaxDP=1.63D-04 DE=-8.72D-07 OVMax= 1.19D-04

 Cycle   9  Pass 1  IDiag  1:
 E= -191.615008908757     Delta-E=       -0.000000068175 Rises=F Damp=F
 DIIS: error= 1.31D-05 at cycle   4 NSaved=   4.
 NSaved= 4 IEnMin= 4 EnMin= -191.615008908757     IErMin= 4 ErrMin= 1.31D-05
 ErrMax= 1.31D-05  0.00D+00 EMaxC= 1.00D-01 BMatC= 1.93D-08 BMatP= 7.09D-08
 IDIUse=1 WtCom= 1.00D+00 WtEn= 0.00D+00
 Coeff-Com: -0.113D+00-0.828D-01 0.405D+00 0.791D+00
 Coeff:     -0.113D+00-0.828D-01 0.405D+00 0.791D+00
 Gap=     0.320 Goal=   None    Shift=    0.000
 RMSDP=7.07D-07 MaxDP=7.34D-05 DE=-6.82D-08 OVMax= 1.17D-04

 Cycle  10  Pass 1  IDiag  1:
 E= -191.615008937098     Delta-E=       -0.000000028341 Rises=F Damp=F
 DIIS: error= 2.36D-06 at cycle   5 NSaved=   5.
 NSaved= 5 IEnMin= 5 EnMin= -191.615008937098     IErMin= 5 ErrMin= 2.36D-06
 ErrMax= 2.36D-06  0.00D+00 EMaxC= 1.00D-01 BMatC= 1.74D-09 BMatP= 1.93D-08
 IDIUse=1 WtCom= 1.00D+00 WtEn= 0.00D+00
 Coeff-Com: -0.417D-01-0.385D-01 0.764D-01 0.322D+00 0.682D+00
 Coeff:     -0.417D-01-0.385D-01 0.764D-01 0.322D+00 0.682D+00
 Gap=     0.320 Goal=   None    Shift=    0.000
 RMSDP=1.41D-07 MaxDP=1.50D-05 DE=-2.83D-08 OVMax= 2.10D-05

 Cycle  11  Pass 1  IDiag  1:
 E= -191.615008938490     Delta-E=       -0.000000001392 Rises=F Damp=F
 DIIS: error= 1.13D-06 at cycle   6 NSaved=   6.
 NSaved= 6 IEnMin= 6 EnMin= -191.615008938490     IErMin= 6 ErrMin= 1.13D-06
 ErrMax= 1.13D-06  0.00D+00 EMaxC= 1.00D-01 BMatC= 2.34D-10 BMatP= 1.74D-09
 IDIUse=1 WtCom= 1.00D+00 WtEn= 0.00D+00
 Coeff-Com:  0.682D-02 0.149D-02-0.665D-01-0.553D-02 0.253D+00 0.811D+00
 Coeff:      0.682D-02 0.149D-02-0.665D-01-0.553D-02 0.253D+00 0.811D+00
 Gap=     0.320 Goal=   None    Shift=    0.000
 RMSDP=5.44D-08 MaxDP=5.55D-06 DE=-1.39D-09 OVMax= 6.16D-06

 Cycle  12  Pass 1  IDiag  1:
 E= -191.615008938738     Delta-E=       -0.000000000249 Rises=F Damp=F
 DIIS: error= 3.28D-07 at cycle   7 NSaved=   7.
 NSaved= 7 IEnMin= 7 EnMin= -191.615008938738     IErMin= 7 ErrMin= 3.28D-07
 ErrMax= 3.28D-07  0.00D+00 EMaxC= 1.00D-01 BMatC= 1.87D-11 BMatP= 2.34D-10
 IDIUse=1 WtCom= 1.00D+00 WtEn= 0.00D+00
 Coeff-Com:  0.607D-02 0.377D-02-0.346D-01-0.225D-01 0.425D-01 0.315D+00
 Coeff-Com:  0.690D+00
 Coeff:      0.607D-02 0.377D-02-0.346D-01-0.225D-01 0.425D-01 0.315D+00
 Coeff:      0.690D+00
 Gap=     0.320 Goal=   None    Shift=    0.000
 RMSDP=9.31D-09 MaxDP=4.76D-07 DE=-2.49D-10 OVMax= 2.12D-06

 SCF Done:  E(RB2PLYPD3) =  -191.615008939     A.U. after   12 cycles
            NFock= 12  Conv=0.93D-08     -V/T= 2.0035
 KE= 1.909466290761D+02 PE=-6.540025553740D+02 EE= 1.684512081814D+02
 Leave Link  502 at Wed Aug 26 16:04:45 2020, MaxMem=  2097152000 cpu:       281.3
 (Enter /opt/cluster/programs/g09/g09_d.01/g09/l801.exe)
 DoSCS=T DFT=T ScalE2(SS,OS)=  0.270000  0.270000
 ExpMin= 7.60D-02 ExpMax= 1.17D+05 ExpMxC= 1.13D+03 IAcc=3 IRadAn=         5 AccDes= 0.00D+00
 HarFok:  IExCor=  205 AccDes= 0.00D+00 IRadAn=         5 IDoV=-2 UseB2=F ITyADJ=14
 ICtDFT= 12500011 ScaDFX=  1.000000  1.000000  1.000000  1.000000
 Largest valence mixing into a core orbital is  1.15D-04
 Largest core mixing into a valence orbital is  1.91D-05
 Range of M.O.s used for correlation:     5   348
 NBasis=   348 NAE=    15 NBE=    15 NFC=     4 NFV=     0
 NROrb=    344 NOA=    11 NOB=    11 NVA=   333 NVB=   333

 **** Warning!!: The largest alpha MO coefficient is  0.30688536D+02

 Leave Link  801 at Wed Aug 26 16:04:45 2020, MaxMem=  2097152000 cpu:         1.0
 (Enter /opt/cluster/programs/g09/g09_d.01/g09/l906.exe)
 DoSCS=T DFT=T ScalE2(SS,OS)=  0.270000  0.270000
 FulOut=F Deriv=F AODrv=F NAtomX=     8
   MMem=        1190  MDisk=          11 MDiskD=          11
  W3Min=     1567764 MinDsk=     2827057 NBas6D=         428
 NBas2D=       93150    NTT=       91806    LW2=     4508827
    MDV=  2096571038 MDiskM=       10875 NBas2p=       89426
 Fully direct method using O(OVN) memory.
 IMap=   1   2   3   4   5   6   7   8   9  10  11
 JobTyp=1 Pass  1:  I=   1 to  11 NPSUse=  8 ParTrn=T ParDer=T DoDerP=F.
 Spin components of T(2) and E(2):
     alpha-alpha T2 =       0.4404129437D-01 E2=     -0.2953653586D-01
     alpha-beta  T2 =       0.2684630120D+00 E2=     -0.1885717498D+00
     beta-beta   T2 =       0.4404129437D-01 E2=     -0.2953653586D-01
 The integrals were generated   1 times.
 E2(B2PLYPD3) =    -0.2476448215D+00 E(B2PLYPD3) =    -0.19186265376023D+03
 Leave Link  906 at Wed Aug 26 16:06:29 2020, MaxMem=  2097152000 cpu:       827.4
 (Enter /opt/cluster/programs/g09/g09_d.01/g09/l601.exe)
 Copying SCF densities to generalized density rwf, IOpCl= 0 IROHF=0.

 **********************************************************************

            Population analysis using the SCF density.

 **********************************************************************

 Orbital symmetries:
       Occupied  (A) (A) (A) (A) (A) (A) (A) (A) (A) (A) (A) (A)
                 (A) (A) (A)
       Virtual   (A) (A) (A) (A) (A) (A) (A) (A) (A) (A) (A) (A)
                 (A) (A) (A) (A) (A) (A) (A) (A) (A) (A) (A) (A)
                 (A) (A) (A) (A) (A) (A) (A) (A) (A) (A) (A) (A)
                 (A) (A) (A) (A) (A) (A) (A) (A) (A) (A) (A) (A)
                 (A) (A) (A) (A) (A) (A) (A) (A) (A) (A) (A) (A)
                 (A) (A) (A) (A) (A) (A) (A) (A) (A) (A) (A) (A)
                 (A) (A) (A) (A) (A) (A) (A) (A) (A) (A) (A) (A)
                 (A) (A) (A) (A) (A) (A) (A) (A) (A) (A) (A) (A)
                 (A) (A) (A) (A) (A) (A) (A) (A) (A) (A) (A) (A)
                 (A) (A) (A) (A) (A) (A) (A) (A) (A) (A) (A) (A)
                 (A) (A) (A) (A) (A) (A) (A) (A) (A) (A) (A) (A)
                 (A) (A) (A) (A) (A) (A) (A) (A) (A) (A) (A) (A)
                 (A) (A) (A) (A) (A) (A) (A) (A) (A) (A) (A) (A)
                 (A) (A) (A) (A) (A) (A) (A) (A) (A) (A) (A) (A)
                 (A) (A) (A) (A) (A) (A) (A) (A) (A) (A) (A) (A)
                 (A) (A) (A) (A) (A) (A) (A) (A) (A) (A) (A) (A)
                 (A) (A) (A) (A) (A) (A) (A) (A) (A) (A) (A) (A)
                 (A) (A) (A) (A) (A) (A) (A) (A) (A) (A) (A) (A)
                 (A) (A) (A) (A) (A) (A) (A) (A) (A) (A) (A) (A)
                 (A) (A) (A) (A) (A) (A) (A) (A) (A) (A) (A) (A)
                 (A) (A) (A) (A) (A) (A) (A) (A) (A) (A) (A) (A)
                 (A) (A) (A) (A) (A) (A) (A) (A) (A) (A) (A) (A)
                 (A) (A) (A) (A) (A) (A) (A) (A) (A) (A) (A) (A)
                 (A) (A) (A) (A) (A) (A) (A) (A) (A) (A) (A) (A)
                 (A) (A) (A) (A) (A) (A) (A) (A) (A) (A) (A) (A)
                 (A) (A) (A) (A) (A) (A) (A) (A) (A) (A) (A) (A)
                 (A) (A) (A) (A) (A) (A) (A) (A) (A) (A) (A) (A)
                 (A) (A) (A) (A) (A) (A) (A) (A) (A)
 The electronic state is 1-A.
 Alpha  occ. eigenvalues --  -19.72797 -10.71347 -10.65710 -10.64664  -1.18784
 Alpha  occ. eigenvalues --   -0.92967  -0.75723  -0.67286  -0.56534  -0.56218
 Alpha  occ. eigenvalues --   -0.50636  -0.46856  -0.46319  -0.34636  -0.33913
 Alpha virt. eigenvalues --   -0.01928   0.05693   0.07211   0.07988   0.09708
 Alpha virt. eigenvalues --    0.12608   0.13994   0.15330   0.17427   0.19458
 Alpha virt. eigenvalues --    0.20135   0.21626   0.25239   0.26747   0.28768
 Alpha virt. eigenvalues --    0.31569   0.33912   0.35937   0.37535   0.38342
 Alpha virt. eigenvalues --    0.39620   0.41512   0.42572   0.44333   0.45892
 Alpha virt. eigenvalues --    0.46881   0.48937   0.53126   0.54172   0.56815
 Alpha virt. eigenvalues --    0.59213   0.64313   0.65859   0.67621   0.70942
 Alpha virt. eigenvalues --    0.74636   0.76494   0.78265   0.79742   0.80769
 Alpha virt. eigenvalues --    0.81345   0.82524   0.82828   0.84135   0.86278
 Alpha virt. eigenvalues --    0.88434   0.91502   0.92107   0.93931   0.95637
 Alpha virt. eigenvalues --    0.96425   0.97723   1.00473   1.02138   1.07289
 Alpha virt. eigenvalues --    1.09680   1.12462   1.15625   1.16712   1.17718
 Alpha virt. eigenvalues --    1.20866   1.25007   1.28060   1.35235   1.38638
 Alpha virt. eigenvalues --    1.43782   1.47432   1.48813   1.55156   1.56413
 Alpha virt. eigenvalues --    1.61817   1.62787   1.64629   1.66849   1.69304
 Alpha virt. eigenvalues --    1.74629   1.75933   1.77522   1.81981   1.83012
 Alpha virt. eigenvalues --    1.86093   1.89535   1.91007   1.93694   1.94173
 Alpha virt. eigenvalues --    1.96475   1.98109   2.00260   2.02382   2.02970
 Alpha virt. eigenvalues --    2.06055   2.09547   2.11131   2.13327   2.13793
 Alpha virt. eigenvalues --    2.16261   2.18778   2.20376   2.23754   2.25304
 Alpha virt. eigenvalues --    2.28725   2.35638   2.37277   2.39209   2.43992
 Alpha virt. eigenvalues --    2.45077   2.46365   2.47787   2.49882   2.54309
 Alpha virt. eigenvalues --    2.55386   2.58466   2.59322   2.60958   2.63650
 Alpha virt. eigenvalues --    2.64719   2.66594   2.68392   2.69760   2.74724
 Alpha virt. eigenvalues --    2.76243   2.77808   2.86163   2.86995   2.87821
 Alpha virt. eigenvalues --    2.89137   2.95907   2.98832   3.00527   3.04616
 Alpha virt. eigenvalues --    3.17151   3.18689   3.29930   3.30702   3.34280
 Alpha virt. eigenvalues --    3.35736   3.40150   3.41694   3.43560   3.49760
 Alpha virt. eigenvalues --    3.51953   3.54659   3.60214   3.62701   3.64070
 Alpha virt. eigenvalues --    3.67660   3.73781   3.76649   3.79861   3.90583
 Alpha virt. eigenvalues --    3.92686   3.99111   4.01913   4.02805   4.05582
 Alpha virt. eigenvalues --    4.11898   4.18799   4.20141   4.25568   4.32350
 Alpha virt. eigenvalues --    4.39612   4.42743   4.55122   4.61245   4.62695
 Alpha virt. eigenvalues --    4.66570   4.80543   4.88901   4.90993   4.97753
 Alpha virt. eigenvalues --    5.02900   5.06450   5.08157   5.09695   5.12456
 Alpha virt. eigenvalues --    5.21107   5.27879   5.30750   5.34425   5.41284
 Alpha virt. eigenvalues --    5.46323   5.52805   5.54403   5.57862   5.60181
 Alpha virt. eigenvalues --    5.67296   5.68276   5.73438   5.73984   5.77765
 Alpha virt. eigenvalues --    5.79249   5.79345   5.85358   5.89349   5.95267
 Alpha virt. eigenvalues --    5.96550   5.97771   6.02147   6.05735   6.07121
 Alpha virt. eigenvalues --    6.07757   6.13917   6.15481   6.18082   6.19220
 Alpha virt. eigenvalues --    6.20824   6.24440   6.27256   6.28087   6.29481
 Alpha virt. eigenvalues --    6.32289   6.34769   6.37400   6.45799   6.46724
 Alpha virt. eigenvalues --    6.48280   6.52732   6.54874   6.57897   6.59288
 Alpha virt. eigenvalues --    6.61497   6.68528   6.70911   6.74496   6.79117
 Alpha virt. eigenvalues --    6.83445   6.83546   6.96905   6.99906   7.00812
 Alpha virt. eigenvalues --    7.03559   7.08994   7.12454   7.16296   7.23694
 Alpha virt. eigenvalues --    7.32115   7.37748   7.42886   7.47259   7.51139
 Alpha virt. eigenvalues --    7.54141   7.57402   7.59909   7.65050   7.67577
 Alpha virt. eigenvalues --    7.68297   7.69791   7.73277   7.75421   7.76400
 Alpha virt. eigenvalues --    7.83072   7.87284   7.93432   8.03006   8.07634
 Alpha virt. eigenvalues --    8.08323   8.09811   8.11928   8.16124   8.17191
 Alpha virt. eigenvalues --    8.23102   8.24413   8.29243   8.33309   8.35069
 Alpha virt. eigenvalues --    8.35838   8.43968   8.45985   8.51629   8.55924
 Alpha virt. eigenvalues --    8.56617   8.58469   8.63064   8.63285   8.68814
 Alpha virt. eigenvalues --    8.79734   8.90588   8.92320   8.97843   9.07994
 Alpha virt. eigenvalues --    9.08559   9.09233   9.18140   9.29333   9.32379
 Alpha virt. eigenvalues --    9.35622   9.38247   9.57000   9.67393   9.79470
 Alpha virt. eigenvalues --    9.86241   9.87555   9.93050   9.94179   9.97127
 Alpha virt. eigenvalues --   10.00301  10.13494  10.18032  10.22500  10.24971
 Alpha virt. eigenvalues --   10.28558  10.43890  10.51525  10.69500  10.95901
 Alpha virt. eigenvalues --   11.02502  11.25281  11.27276  11.30405  11.52035
 Alpha virt. eigenvalues --   11.65637  11.75144  11.83141  12.04180  12.08212
 Alpha virt. eigenvalues --   12.32041  12.35932  12.49465  12.60571  12.96027
 Alpha virt. eigenvalues --   13.14094  13.32513  13.75774  14.37158  14.65343
 Alpha virt. eigenvalues --   28.60360  28.90145  29.51880  48.64637 148.19007
 Alpha virt. eigenvalues --  148.46612 149.11179 254.40532
          Condensed to atoms (all electrons):
               1          2          3          4          5          6
     1  C    4.490469   0.623840   0.379142  -0.056806  -0.031669  -0.004544
     2  O    0.623840   7.888269  -0.092226   0.006353   0.006967   0.000430
     3  C    0.379142  -0.092226   5.152721   0.485418   0.366516  -0.050501
     4  C   -0.056806   0.006353   0.485418   4.870958  -0.036352   0.424932
     5  H   -0.031669   0.006967   0.366516  -0.036352   0.579574   0.005076
     6  H   -0.004544   0.000430  -0.050501   0.424932   0.005076   0.574617
     7  H    0.002704  -0.000613  -0.032404   0.413925  -0.004708  -0.040539
     8  H    0.438163  -0.075625  -0.167903   0.023044   0.009308   0.006791
               7          8
     1  C    0.002704   0.438163
     2  O   -0.000613  -0.075625
     3  C   -0.032404  -0.167903
     4  C    0.413925   0.023044
     5  H   -0.004708   0.009308
     6  H   -0.040539   0.006791
     7  H    0.557978  -0.000873
     8  H   -0.000873   0.689724
 Mulliken charges:
               1
     1  C    0.158702
     2  O   -0.357395
     3  C   -0.040764
     4  C   -0.131472
     5  H    0.105289
     6  H    0.083737
     7  H    0.104531
     8  H    0.077370
 Sum of Mulliken charges =   0.00000
 Mulliken charges with hydrogens summed into heavy atoms:
               1
     1  C    0.236072
     2  O   -0.357395
     3  C    0.064525
     4  C    0.056797
 Electronic spatial extent (au):  <R**2>=            299.0743
 Charge=              0.0000 electrons
 Dipole moment (field-independent basis, Debye):
    X=             -3.5617    Y=              0.7690    Z=              0.0629  Tot=              3.6443
 Quadrupole moment (field-independent basis, Debye-Ang):
   XX=            -27.6025   YY=            -21.6709   ZZ=            -25.2350
   XY=              0.8132   XZ=              0.2469   YZ=             -0.0963
 Traceless Quadrupole moment (field-independent basis, Debye-Ang):
   XX=             -2.7663   YY=              3.1653   ZZ=             -0.3989
   XY=              0.8132   XZ=              0.2469   YZ=             -0.0963
 Octapole moment (field-independent basis, Debye-Ang**2):
  XXX=            -15.5101  YYY=              0.1197  ZZZ=             -0.0871  XYY=              0.2246
  XXY=              0.7035  XXZ=             -0.0076  XZZ=              4.3100  YZZ=              0.2448
  YYZ=              0.0075  XYZ=              0.1967
 Hexadecapole moment (field-independent basis, Debye-Ang**3):
 XXXX=           -303.8107 YYYY=            -54.8937 ZZZZ=            -27.5182 XXXY=              3.0124
 XXXZ=              0.5884 YYYX=             -0.5071 YYYZ=             -0.1822 ZZZX=              0.0119
 ZZZY=             -0.0603 XXYY=            -58.6255 XXZZ=            -57.5376 YYZZ=            -15.4963
 XXYZ=             -0.4245 YYXZ=              0.3057 ZZXY=             -0.2895
 N-N= 1.029897091778D+02 E-N=-6.540025210946D+02  KE= 1.909466290761D+02
 Leave Link  601 at Wed Aug 26 16:06:29 2020, MaxMem=  2097152000 cpu:         0.8
 (Enter /opt/cluster/programs/g09/g09_d.01/g09/l9999.exe)
 1\1\GINC-NODE13\SP\RB2PLYPD3-FC\def2QZVP\C3H4O1\BOITTIER\26-Aug-2020\0
 \\#p B2PLYPD3/Def2QZVP\\acrolein\\0,1\C,0,-5.00092,-1.386217,0.914315\
 O,0,-3.931085,-0.864586,0.637797\C,0,-5.191606,-2.826287,1.16321\C,0,-
 6.417766,-3.308942,1.38611\H,0,-4.279836,-3.430812,1.141753\H,0,-7.299
 149,-2.648907,1.334364\H,0,-6.590961,-4.346177,1.58011\H,0,-5.891565,-
 0.805913,1.032556\\Version=ES64L-G09RevD.01\State=1-A\HF=-191.6150089\
 MP2=-191.8626538\RMSD=9.312e-09\PG=C01 [X(C3H4O1)]\\@


 EDUCATION WITHOUT COMMON SENSE IS A LOAD OF BOOKS ON THE BACK OF AN ASS.
 Job cpu time:       0 days  0 hours 18 minutes 43.0 seconds.
 File lengths (MBytes):  RWF=     49 Int=      0 D2E=      0 Chk=      7 Scr=      1
 Normal termination of Gaussian 09 at Wed Aug 26 16:06:29 2020.
