 Entering Gaussian System, Link 0=/opt/cluster/programs/g09/g09_d.01/g09//g09
 Input=/home/boittier/MDCM/nms_sampling/acrolein_geom.xyz.dir/energies/acrolein_2299_energy.com
 Output=/scratch/boittier/acrolein_2299_energy/acrolein_2299_energy.out
 Initial command:
 /opt/cluster/programs/g09/g09_d.01/g09/l1.exe "/scratch/boittier/acrolein_2299_energy/Gau-199883.inp" -scrdir="/scratch/boittier/acrolein_2299_energy/"
 Entering Link 1 = /opt/cluster/programs/g09/g09_d.01/g09/l1.exe PID=    199884.
  
 Copyright (c) 1988,1990,1992,1993,1995,1998,2003,2009,2013,
            Gaussian, Inc.  All Rights Reserved.
  
 This is part of the Gaussian(R) 09 program.  It is based on
 the Gaussian(R) 03 system (copyright 2003, Gaussian, Inc.),
 the Gaussian(R) 98 system (copyright 1998, Gaussian, Inc.),
 the Gaussian(R) 94 system (copyright 1995, Gaussian, Inc.),
 the Gaussian 92(TM) system (copyright 1992, Gaussian, Inc.),
 the Gaussian 90(TM) system (copyright 1990, Gaussian, Inc.),
 the Gaussian 88(TM) system (copyright 1988, Gaussian, Inc.),
 the Gaussian 86(TM) system (copyright 1986, Carnegie Mellon
 University), and the Gaussian 82(TM) system (copyright 1983,
 Carnegie Mellon University). Gaussian is a federally registered
 trademark of Gaussian, Inc.
  
 This software contains proprietary and confidential information,
 including trade secrets, belonging to Gaussian, Inc.
  
 This software is provided under written license and may be
 used, copied, transmitted, or stored only in accord with that
 written license.
  
 The following legend is applicable only to US Government
 contracts under FAR:
  
                    RESTRICTED RIGHTS LEGEND
  
 Use, reproduction and disclosure by the US Government is
 subject to restrictions as set forth in subparagraphs (a)
 and (c) of the Commercial Computer Software - Restricted
 Rights clause in FAR 52.227-19.
  
 Gaussian, Inc.
 340 Quinnipiac St., Bldg. 40, Wallingford CT 06492
  
  
 ---------------------------------------------------------------
 Warning -- This program may not be used in any manner that
 competes with the business of Gaussian, Inc. or will provide
 assistance to any competitor of Gaussian, Inc.  The licensee
 of this program is prohibited from giving any competitor of
 Gaussian, Inc. access to this program.  By using this program,
 the user acknowledges that Gaussian, Inc. is engaged in the
 business of creating and licensing software in the field of
 computational chemistry and represents and warrants to the
 licensee that it is not a competitor of Gaussian, Inc. and that
 it will not use this program in any manner prohibited above.
 ---------------------------------------------------------------
  

 Cite this work as:
 Gaussian 09, Revision D.01,
 M. J. Frisch, G. W. Trucks, H. B. Schlegel, G. E. Scuseria, 
 M. A. Robb, J. R. Cheeseman, G. Scalmani, V. Barone, B. Mennucci, 
 G. A. Petersson, H. Nakatsuji, M. Caricato, X. Li, H. P. Hratchian, 
 A. F. Izmaylov, J. Bloino, G. Zheng, J. L. Sonnenberg, M. Hada, 
 M. Ehara, K. Toyota, R. Fukuda, J. Hasegawa, M. Ishida, T. Nakajima, 
 Y. Honda, O. Kitao, H. Nakai, T. Vreven, J. A. Montgomery, Jr., 
 J. E. Peralta, F. Ogliaro, M. Bearpark, J. J. Heyd, E. Brothers, 
 K. N. Kudin, V. N. Staroverov, T. Keith, R. Kobayashi, J. Normand, 
 K. Raghavachari, A. Rendell, J. C. Burant, S. S. Iyengar, J. Tomasi, 
 M. Cossi, N. Rega, J. M. Millam, M. Klene, J. E. Knox, J. B. Cross, 
 V. Bakken, C. Adamo, J. Jaramillo, R. Gomperts, R. E. Stratmann, 
 O. Yazyev, A. J. Austin, R. Cammi, C. Pomelli, J. W. Ochterski, 
 R. L. Martin, K. Morokuma, V. G. Zakrzewski, G. A. Voth, 
 P. Salvador, J. J. Dannenberg, S. Dapprich, A. D. Daniels, 
 O. Farkas, J. B. Foresman, J. V. Ortiz, J. Cioslowski, 
 and D. J. Fox, Gaussian, Inc., Wallingford CT, 2013.
 
 ******************************************
 Gaussian 09:  ES64L-G09RevD.01 24-Apr-2013
                26-Aug-2020 
 ******************************************
 %chk=/home/boittier/MDCM/nms_sampling/acrolein_geom.xyz.dir/acrolein_2299.chk
 %nproc=8
 Will use up to    8 processors via shared memory.
 %mem=16000MB
 --------------------
 #p B2PLYPD3/Def2QZVP
 --------------------
 1/38=1/1;
 2/12=2,17=6,18=5,40=1/2;
 3/5=45,7=101,11=9,16=1,25=1,30=1,74=-60/1,2,3;
 4//1;
 5/5=2,38=5/2;
 8/10=1/1;
 9/16=-3/6;
 6/7=2,8=2,9=2,10=2/1;
 99/5=1,9=1/99;
 Leave Link    1 at Wed Aug 26 12:59:33 2020, MaxMem=  2097152000 cpu:         0.2
 (Enter /opt/cluster/programs/g09/g09_d.01/g09/l101.exe)
 --------
 acrolein
 --------
 Symbolic Z-matrix:
 Charge =  0 Multiplicity = 1
 C                    -5.00547  -1.36636   0.84281 
 O                    -3.92037  -0.86506   0.70455 
 C                    -5.19471  -2.86281   1.12126 
 C                    -6.43574  -3.29126   1.45689 
 H                    -4.31036  -3.43813   0.92091 
 H                    -7.20058  -2.65862   1.50467 
 H                    -6.53186  -4.29837   1.47047 
 H                    -5.87317  -0.81686   0.66539 
 
 NAtoms=      8 NQM=        8 NQMF=       0 NMMI=      0 NMMIF=      0
                NMic=       0 NMicF=      0.
                    Isotopes and Nuclear Properties:
 (Nuclear quadrupole moments (NQMom) in fm**2, nuclear magnetic moments (NMagM)
  in nuclear magnetons)

  Atom         1           2           3           4           5           6           7           8
 IAtWgt=          12          16          12          12           1           1           1           1
 AtmWgt=  12.0000000  15.9949146  12.0000000  12.0000000   1.0078250   1.0078250   1.0078250   1.0078250
 NucSpn=           0           0           0           0           1           1           1           1
 AtZEff=   0.0000000   0.0000000   0.0000000   0.0000000   0.0000000   0.0000000   0.0000000   0.0000000
 NQMom=    0.0000000   0.0000000   0.0000000   0.0000000   0.0000000   0.0000000   0.0000000   0.0000000
 NMagM=    0.0000000   0.0000000   0.0000000   0.0000000   2.7928460   2.7928460   2.7928460   2.7928460
 AtZNuc=   6.0000000   8.0000000   6.0000000   6.0000000   1.0000000   1.0000000   1.0000000   1.0000000
 Leave Link  101 at Wed Aug 26 12:59:34 2020, MaxMem=  2097152000 cpu:         0.5
 (Enter /opt/cluster/programs/g09/g09_d.01/g09/l202.exe)
                          Input orientation:                          
 ---------------------------------------------------------------------
 Center     Atomic      Atomic             Coordinates (Angstroms)
 Number     Number       Type             X           Y           Z
 ---------------------------------------------------------------------
      1          6           0       -5.005469   -1.366364    0.842808
      2          8           0       -3.920365   -0.865055    0.704546
      3          6           0       -5.194714   -2.862809    1.121256
      4          6           0       -6.435737   -3.291259    1.456891
      5          1           0       -4.310356   -3.438131    0.920912
      6          1           0       -7.200578   -2.658622    1.504665
      7          1           0       -6.531863   -4.298370    1.470470
      8          1           0       -5.873172   -0.816863    0.665390
 ---------------------------------------------------------------------
                    Distance matrix (angstroms):
                    1          2          3          4          5
     1  C    0.000000
     2  O    1.203278   0.000000
     3  C    1.533850   2.405958   0.000000
     4  C    2.475477   3.574855   1.355123   0.000000
     5  H    2.186664   2.611442   1.073882   2.196836   0.000000
     6  H    2.631822   3.823202   2.052361   0.993727   3.049883
     7  H    3.364595   4.381120   1.992675   1.011779   2.444815
     8  H    1.042275   1.953794   2.203183   2.658118   3.062471
                    6          7          8
     6  H    0.000000
     7  H    1.771192   0.000000
     8  H    2.420427   3.633582   0.000000
 Stoichiometry    C3H4O
 Framework group  C1[X(C3H4O)]
 Deg. of freedom    18
 Full point group                 C1      NOp   1
 Largest Abelian subgroup         C1      NOp   1
 Largest concise Abelian subgroup C1      NOp   1
                         Standard orientation:                         
 ---------------------------------------------------------------------
 Center     Atomic      Atomic             Coordinates (Angstroms)
 Number     Number       Type             X           Y           Z
 ---------------------------------------------------------------------
      1          6           0       -0.689770    0.364586    0.044079
      2          8           0       -1.786589   -0.120157   -0.055366
      3          6           0        0.591362   -0.478493    0.019316
      4          6           0        1.776111    0.174308   -0.061795
      5          1           0        0.403250   -1.525223    0.168283
      6          1           0        1.813278    1.167002   -0.087706
      7          1           0        2.582005   -0.419093    0.086890
      8          1           0       -0.572032    1.376161    0.265868
 ---------------------------------------------------------------------
 Rotational constants (GHZ):     46.0778210      4.6252940      4.2198163
 Leave Link  202 at Wed Aug 26 12:59:34 2020, MaxMem=  2097152000 cpu:         0.0
 (Enter /opt/cluster/programs/g09/g09_d.01/g09/l301.exe)
 Standard basis: def2QZVP (5D, 7F)
 Ernie: Thresh=  0.10000D-02 Tol=  0.10000D-05 Strict=F.
 There are   428 symmetry adapted cartesian basis functions of A   symmetry.
 There are   348 symmetry adapted basis functions of A   symmetry.
   348 basis functions,   520 primitive gaussians,   428 cartesian basis functions
    15 alpha electrons       15 beta electrons
       nuclear repulsion energy       103.1924822364 Hartrees.
 IExCor=  419 DFT=T Ex+Corr=B2PLYPD3 ExCW=0 ScaHFX=  0.530000
 ScaDFX=  0.470000  0.470000  0.730000  0.730000 ScalE2=  0.270000  0.270000
 IRadAn=      0 IRanWt=     -1 IRanGd=            0 ICorTp=0 IEmpDi=141
 NAtoms=    8 NActive=    8 NUniq=    8 SFac= 1.00D+00 NAtFMM=   60 NAOKFM=F Big=F
 Integral buffers will be    131072 words long.
 Regular integral format.
 Two-electron integral symmetry is turned on.
 R6Disp:  Grimme-D3(BJ) Dispersion energy=       -0.0035933364 Hartrees.
 Nuclear repulsion after empirical dispersion term =      103.1888889000 Hartrees.
 Leave Link  301 at Wed Aug 26 12:59:34 2020, MaxMem=  2097152000 cpu:         0.4
 (Enter /opt/cluster/programs/g09/g09_d.01/g09/l302.exe)
 NPDir=0 NMtPBC=     1 NCelOv=     1 NCel=       1 NClECP=     1 NCelD=      1
         NCelK=      1 NCelE2=     1 NClLst=     1 CellRange=     0.0.
 One-electron integrals computed using PRISM.
   1 Symmetry operations used in ECPInt.
 ECPInt:  NShTT=    5886 NPrTT=   14376 LenC2=    5779 LenP2D=   12182.
 LDataN:  DoStor=T MaxTD1= 8 Len=  415
 NBasis=   348 RedAO= T EigKep=  6.02D-05  NBF=   348
 NBsUse=   348 1.00D-06 EigRej= -1.00D+00 NBFU=   348
 Precomputing XC quadrature grid using
 IXCGrd= 4 IRadAn=           0 IRanWt=          -1 IRanGd=           0 AccXCQ= 0.00D+00.
 Generated NRdTot=       0 NPtTot=           0 NUsed=           0 NTot=          32
 NSgBfM=   428   428   428   428   428 MxSgAt=     8 MxSgA2=     8.
 Leave Link  302 at Wed Aug 26 12:59:34 2020, MaxMem=  2097152000 cpu:         2.6
 (Enter /opt/cluster/programs/g09/g09_d.01/g09/l303.exe)
 DipDrv:  MaxL=1.
 Leave Link  303 at Wed Aug 26 12:59:34 2020, MaxMem=  2097152000 cpu:         0.3
 (Enter /opt/cluster/programs/g09/g09_d.01/g09/l401.exe)
 ExpMin= 7.60D-02 ExpMax= 1.17D+05 ExpMxC= 1.13D+03 IAcc=2 IRadAn=         4 AccDes= 0.00D+00
 Harris functional with IExCor=  419 and IRadAn=       4 diagonalized for initial guess.
 HarFok:  IExCor=  419 AccDes= 0.00D+00 IRadAn=         4 IDoV= 1 UseB2=F ITyADJ=14
 ICtDFT=  3500011 ScaDFX=  1.000000  1.000000  1.000000  1.000000
 FoFCou: FMM=F IPFlag=           0 FMFlag=      100000 FMFlg1=           0
         NFxFlg=           0 DoJE=T BraDBF=F KetDBF=T FulRan=T
         wScrn=  0.000000 ICntrl=     500 IOpCl=  0 I1Cent=   200000004 NGrid=           0
         NMat0=    1 NMatS0=      1 NMatT0=    0 NMatD0=    1 NMtDS0=    0 NMtDT0=    0
 Petite list used in FoFCou.
 Harris En= -192.039502568879    
 JPrj=0 DoOrth=F DoCkMO=F.
 Leave Link  401 at Wed Aug 26 12:59:35 2020, MaxMem=  2097152000 cpu:         5.9
 (Enter /opt/cluster/programs/g09/g09_d.01/g09/l502.exe)
 Closed shell SCF:
 Using DIIS extrapolation, IDIIS=  1040.
 Integral symmetry usage will be decided dynamically.
 Keep R1 ints in memory in canonical form, NReq=1883905047.
 IVT=      574566 IEndB=      574566 NGot=  2097152000 MDV=   252723534
 LenX=   252723534 LenY=   252539909
 Requested convergence on RMS density matrix=1.00D-08 within 128 cycles.
 Requested convergence on MAX density matrix=1.00D-06.
 Requested convergence on             energy=1.00D-06.
 No special actions if energy rises.
 FoFCou: FMM=F IPFlag=           0 FMFlag=           0 FMFlg1=           0
         NFxFlg=           0 DoJE=F BraDBF=F KetDBF=F FulRan=T
         wScrn=  0.000000 ICntrl=     600 IOpCl=  0 I1Cent=           0 NGrid=           0
         NMat0=    1 NMatS0=  60726 NMatT0=    0 NMatD0=    1 NMtDS0=    0 NMtDT0=    0
 Symmetry not used in FoFCou.
 Integral accuracy reduced to 1.0D-05 until final iterations.

 Cycle   1  Pass 0  IDiag  1:
 E= -191.448746393412    
 DIIS: error= 1.97D-02 at cycle   1 NSaved=   1.
 NSaved= 1 IEnMin= 1 EnMin= -191.448746393412     IErMin= 1 ErrMin= 1.97D-02
 ErrMax= 1.97D-02  0.00D+00 EMaxC= 1.00D-01 BMatC= 2.64D-01 BMatP= 2.64D-01
 IDIUse=3 WtCom= 8.03D-01 WtEn= 1.97D-01
 Coeff-Com:  0.100D+01
 Coeff-En:   0.100D+01
 Coeff:      0.100D+01
 Gap=     0.302 Goal=   None    Shift=    0.000
 GapD=    0.302 DampG=1.000 DampE=0.500 DampFc=0.5000 IDamp=-1.
 Damping current iteration by 5.00D-01
 RMSDP=1.59D-03 MaxDP=1.71D-01              OVMax= 1.70D-01

 Cycle   2  Pass 0  IDiag  1:
 E= -191.522611067761     Delta-E=       -0.073864674350 Rises=F Damp=T
 DIIS: error= 9.81D-03 at cycle   2 NSaved=   2.
 NSaved= 2 IEnMin= 2 EnMin= -191.522611067761     IErMin= 2 ErrMin= 9.81D-03
 ErrMax= 9.81D-03  0.00D+00 EMaxC= 1.00D-01 BMatC= 3.44D-02 BMatP= 2.64D-01
 IDIUse=3 WtCom= 9.02D-01 WtEn= 9.81D-02
 Coeff-Com: -0.169D+00 0.117D+01
 Coeff-En:   0.000D+00 0.100D+01
 Coeff:     -0.152D+00 0.115D+01
 Gap=     0.349 Goal=   None    Shift=    0.000
 RMSDP=4.95D-04 MaxDP=5.12D-02 DE=-7.39D-02 OVMax= 1.18D-01

 Cycle   3  Pass 0  IDiag  1:
 E= -191.586558804255     Delta-E=       -0.063947736493 Rises=F Damp=F
 DIIS: error= 6.71D-03 at cycle   3 NSaved=   3.
 NSaved= 3 IEnMin= 3 EnMin= -191.586558804255     IErMin= 3 ErrMin= 6.71D-03
 ErrMax= 6.71D-03  0.00D+00 EMaxC= 1.00D-01 BMatC= 1.63D-02 BMatP= 3.44D-02
 IDIUse=3 WtCom= 9.33D-01 WtEn= 6.71D-02
 Coeff-Com: -0.190D+00 0.523D+00 0.667D+00
 Coeff-En:   0.000D+00 0.000D+00 0.100D+01
 Coeff:     -0.177D+00 0.488D+00 0.689D+00
 Gap=     0.333 Goal=   None    Shift=    0.000
 RMSDP=2.13D-04 MaxDP=1.27D-02 DE=-6.39D-02 OVMax= 5.09D-02

 Cycle   4  Pass 0  IDiag  1:
 E= -191.596017238396     Delta-E=       -0.009458434142 Rises=F Damp=F
 DIIS: error= 2.59D-03 at cycle   4 NSaved=   4.
 NSaved= 4 IEnMin= 4 EnMin= -191.596017238396     IErMin= 4 ErrMin= 2.59D-03
 ErrMax= 2.59D-03  0.00D+00 EMaxC= 1.00D-01 BMatC= 2.40D-03 BMatP= 1.63D-02
 IDIUse=3 WtCom= 9.74D-01 WtEn= 2.59D-02
 Coeff-Com: -0.581D-01 0.984D-01 0.341D+00 0.619D+00
 Coeff-En:   0.000D+00 0.000D+00 0.119D+00 0.881D+00
 Coeff:     -0.566D-01 0.958D-01 0.335D+00 0.625D+00
 Gap=     0.323 Goal=   None    Shift=    0.000
 RMSDP=8.45D-05 MaxDP=6.19D-03 DE=-9.46D-03 OVMax= 1.30D-02

 Cycle   5  Pass 0  IDiag  1:
 E= -191.597947742506     Delta-E=       -0.001930504110 Rises=F Damp=F
 DIIS: error= 2.47D-04 at cycle   5 NSaved=   5.
 NSaved= 5 IEnMin= 5 EnMin= -191.597947742506     IErMin= 5 ErrMin= 2.47D-04
 ErrMax= 2.47D-04  0.00D+00 EMaxC= 1.00D-01 BMatC= 1.95D-05 BMatP= 2.40D-03
 IDIUse=3 WtCom= 9.98D-01 WtEn= 2.47D-03
 Coeff-Com: -0.146D-01 0.211D-01 0.946D-01 0.203D+00 0.696D+00
 Coeff-En:   0.000D+00 0.000D+00 0.000D+00 0.000D+00 0.100D+01
 Coeff:     -0.146D-01 0.211D-01 0.944D-01 0.202D+00 0.697D+00
 Gap=     0.321 Goal=   None    Shift=    0.000
 RMSDP=8.06D-06 MaxDP=3.75D-04 DE=-1.93D-03 OVMax= 2.81D-03

 Initial convergence to 1.0D-05 achieved.  Increase integral accuracy.
 Cycle   6  Pass 1  IDiag  1:
 E= -191.597952678948     Delta-E=       -0.000004936442 Rises=F Damp=F
 DIIS: error= 1.40D-04 at cycle   1 NSaved=   1.
 NSaved= 1 IEnMin= 1 EnMin= -191.597952678948     IErMin= 1 ErrMin= 1.40D-04
 ErrMax= 1.40D-04  0.00D+00 EMaxC= 1.00D-01 BMatC= 2.97D-06 BMatP= 2.97D-06
 IDIUse=3 WtCom= 9.99D-01 WtEn= 1.40D-03
 Coeff-Com:  0.100D+01
 Coeff-En:   0.100D+01
 Coeff:      0.100D+01
 Gap=     0.322 Goal=   None    Shift=    0.000
 RMSDP=8.06D-06 MaxDP=3.75D-04 DE=-4.94D-06 OVMax= 1.68D-03

 Cycle   7  Pass 1  IDiag  1:
 E= -191.597952750189     Delta-E=       -0.000000071242 Rises=F Damp=F
 DIIS: error= 1.47D-04 at cycle   2 NSaved=   2.
 NSaved= 2 IEnMin= 2 EnMin= -191.597952750189     IErMin= 1 ErrMin= 1.40D-04
 ErrMax= 1.47D-04  0.00D+00 EMaxC= 1.00D-01 BMatC= 3.50D-06 BMatP= 2.97D-06
 IDIUse=3 WtCom= 4.52D-01 WtEn= 5.48D-01
 Coeff-Com:  0.522D+00 0.478D+00
 Coeff-En:   0.494D+00 0.506D+00
 Coeff:      0.506D+00 0.494D+00
 Gap=     0.322 Goal=   None    Shift=    0.000
 RMSDP=3.21D-06 MaxDP=2.55D-04 DE=-7.12D-08 OVMax= 1.02D-03

 Cycle   8  Pass 1  IDiag  1:
 E= -191.597956121060     Delta-E=       -0.000003370871 Rises=F Damp=F
 DIIS: error= 2.39D-05 at cycle   3 NSaved=   3.
 NSaved= 3 IEnMin= 3 EnMin= -191.597956121060     IErMin= 3 ErrMin= 2.39D-05
 ErrMax= 2.39D-05  0.00D+00 EMaxC= 1.00D-01 BMatC= 6.18D-08 BMatP= 2.97D-06
 IDIUse=1 WtCom= 1.00D+00 WtEn= 0.00D+00
 Coeff-Com: -0.332D-02 0.795D-01 0.924D+00
 Coeff:     -0.332D-02 0.795D-01 0.924D+00
 Gap=     0.322 Goal=   None    Shift=    0.000
 RMSDP=1.38D-06 MaxDP=1.39D-04 DE=-3.37D-06 OVMax= 1.35D-04

 Cycle   9  Pass 1  IDiag  1:
 E= -191.597956201254     Delta-E=       -0.000000080195 Rises=F Damp=F
 DIIS: error= 8.16D-06 at cycle   4 NSaved=   4.
 NSaved= 4 IEnMin= 4 EnMin= -191.597956201254     IErMin= 4 ErrMin= 8.16D-06
 ErrMax= 8.16D-06  0.00D+00 EMaxC= 1.00D-01 BMatC= 1.19D-08 BMatP= 6.18D-08
 IDIUse=1 WtCom= 1.00D+00 WtEn= 0.00D+00
 Coeff-Com: -0.889D-01-0.480D-01 0.361D+00 0.775D+00
 Coeff:     -0.889D-01-0.480D-01 0.361D+00 0.775D+00
 Gap=     0.322 Goal=   None    Shift=    0.000
 RMSDP=5.24D-07 MaxDP=5.15D-05 DE=-8.02D-08 OVMax= 8.79D-05

 Cycle  10  Pass 1  IDiag  1:
 E= -191.597956217470     Delta-E=       -0.000000016216 Rises=F Damp=F
 DIIS: error= 2.68D-06 at cycle   5 NSaved=   5.
 NSaved= 5 IEnMin= 5 EnMin= -191.597956217470     IErMin= 5 ErrMin= 2.68D-06
 ErrMax= 2.68D-06  0.00D+00 EMaxC= 1.00D-01 BMatC= 3.36D-09 BMatP= 1.19D-08
 IDIUse=1 WtCom= 1.00D+00 WtEn= 0.00D+00
 Coeff-Com: -0.511D-01-0.358D-01 0.103D+00 0.442D+00 0.542D+00
 Coeff:     -0.511D-01-0.358D-01 0.103D+00 0.442D+00 0.542D+00
 Gap=     0.322 Goal=   None    Shift=    0.000
 RMSDP=1.87D-07 MaxDP=1.91D-05 DE=-1.62D-08 OVMax= 1.91D-05

 Cycle  11  Pass 1  IDiag  1:
 E= -191.597956219964     Delta-E=       -0.000000002493 Rises=F Damp=F
 DIIS: error= 7.39D-07 at cycle   6 NSaved=   6.
 NSaved= 6 IEnMin= 6 EnMin= -191.597956219964     IErMin= 6 ErrMin= 7.39D-07
 ErrMax= 7.39D-07  0.00D+00 EMaxC= 1.00D-01 BMatC= 1.16D-10 BMatP= 3.36D-09
 IDIUse=1 WtCom= 1.00D+00 WtEn= 0.00D+00
 Coeff-Com:  0.616D-02 0.175D-02-0.553D-01-0.805D-02 0.876D-01 0.968D+00
 Coeff:      0.616D-02 0.175D-02-0.553D-01-0.805D-02 0.876D-01 0.968D+00
 Gap=     0.322 Goal=   None    Shift=    0.000
 RMSDP=5.17D-08 MaxDP=3.11D-06 DE=-2.49D-09 OVMax= 8.46D-06

 Cycle  12  Pass 1  IDiag  1:
 E= -191.597956220177     Delta-E=       -0.000000000213 Rises=F Damp=F
 DIIS: error= 1.55D-07 at cycle   7 NSaved=   7.
 NSaved= 7 IEnMin= 7 EnMin= -191.597956220177     IErMin= 7 ErrMin= 1.55D-07
 ErrMax= 1.55D-07  0.00D+00 EMaxC= 1.00D-01 BMatC= 1.38D-11 BMatP= 1.16D-10
 IDIUse=1 WtCom= 1.00D+00 WtEn= 0.00D+00
 Coeff-Com:  0.475D-02 0.295D-02-0.218D-01-0.258D-01-0.249D-01 0.247D+00
 Coeff-Com:  0.817D+00
 Coeff:      0.475D-02 0.295D-02-0.218D-01-0.258D-01-0.249D-01 0.247D+00
 Coeff:      0.817D+00
 Gap=     0.322 Goal=   None    Shift=    0.000
 RMSDP=1.32D-08 MaxDP=5.85D-07 DE=-2.13D-10 OVMax= 3.33D-06

 Cycle  13  Pass 1  IDiag  1:
 E= -191.597956220202     Delta-E=       -0.000000000025 Rises=F Damp=F
 DIIS: error= 6.09D-08 at cycle   8 NSaved=   8.
 NSaved= 8 IEnMin= 8 EnMin= -191.597956220202     IErMin= 8 ErrMin= 6.09D-08
 ErrMax= 6.09D-08  0.00D+00 EMaxC= 1.00D-01 BMatC= 1.67D-12 BMatP= 1.38D-11
 IDIUse=1 WtCom= 1.00D+00 WtEn= 0.00D+00
 Coeff-Com: -0.231D-03 0.326D-03 0.508D-02-0.167D-02-0.177D-01-0.117D+00
 Coeff-Com:  0.144D+00 0.988D+00
 Coeff:     -0.231D-03 0.326D-03 0.508D-02-0.167D-02-0.177D-01-0.117D+00
 Coeff:      0.144D+00 0.988D+00
 Gap=     0.322 Goal=   None    Shift=    0.000
 RMSDP=6.51D-09 MaxDP=2.67D-07 DE=-2.49D-11 OVMax= 2.41D-06

 SCF Done:  E(RB2PLYPD3) =  -191.597956220     A.U. after   13 cycles
            NFock= 13  Conv=0.65D-08     -V/T= 2.0020
 KE= 1.912140895823D+02 PE=-6.545765816954D+02 EE= 1.685756469929D+02
 Leave Link  502 at Wed Aug 26 13:00:43 2020, MaxMem=  2097152000 cpu:       292.1
 (Enter /opt/cluster/programs/g09/g09_d.01/g09/l801.exe)
 DoSCS=T DFT=T ScalE2(SS,OS)=  0.270000  0.270000
 ExpMin= 7.60D-02 ExpMax= 1.17D+05 ExpMxC= 1.13D+03 IAcc=3 IRadAn=         5 AccDes= 0.00D+00
 HarFok:  IExCor=  205 AccDes= 0.00D+00 IRadAn=         5 IDoV=-2 UseB2=F ITyADJ=14
 ICtDFT= 12500011 ScaDFX=  1.000000  1.000000  1.000000  1.000000
 Largest valence mixing into a core orbital is  1.14D-04
 Largest core mixing into a valence orbital is  1.84D-05
 Range of M.O.s used for correlation:     5   348
 NBasis=   348 NAE=    15 NBE=    15 NFC=     4 NFV=     0
 NROrb=    344 NOA=    11 NOB=    11 NVA=   333 NVB=   333

 **** Warning!!: The largest alpha MO coefficient is  0.24401047D+02

 Leave Link  801 at Wed Aug 26 13:00:43 2020, MaxMem=  2097152000 cpu:         0.7
 (Enter /opt/cluster/programs/g09/g09_d.01/g09/l906.exe)
 DoSCS=T DFT=T ScalE2(SS,OS)=  0.270000  0.270000
 FulOut=F Deriv=F AODrv=F NAtomX=     8
   MMem=        1190  MDisk=          11 MDiskD=          11
  W3Min=     1567764 MinDsk=     2827057 NBas6D=         428
 NBas2D=       93150    NTT=       91806    LW2=     4508827
    MDV=  2096570162 MDiskM=       10875 NBas2p=       89632
 Fully direct method using O(OVN) memory.
 IMap=   1   2   3   4   5   6   7   8   9  10  11
 JobTyp=1 Pass  1:  I=   1 to  11 NPSUse=  8 ParTrn=T ParDer=T DoDerP=F.
 Spin components of T(2) and E(2):
     alpha-alpha T2 =       0.4317862645D-01 E2=     -0.2932898378D-01
     alpha-beta  T2 =       0.2637410497D+00 E2=     -0.1877287508D+00
     beta-beta   T2 =       0.4317862645D-01 E2=     -0.2932898378D-01
 The integrals were generated   1 times.
 E2(B2PLYPD3) =    -0.2463867183D+00 E(B2PLYPD3) =    -0.19184434293853D+03
 Leave Link  906 at Wed Aug 26 13:01:37 2020, MaxMem=  2097152000 cpu:       426.6
 (Enter /opt/cluster/programs/g09/g09_d.01/g09/l601.exe)
 Copying SCF densities to generalized density rwf, IOpCl= 0 IROHF=0.

 **********************************************************************

            Population analysis using the SCF density.

 **********************************************************************

 Orbital symmetries:
       Occupied  (A) (A) (A) (A) (A) (A) (A) (A) (A) (A) (A) (A)
                 (A) (A) (A)
       Virtual   (A) (A) (A) (A) (A) (A) (A) (A) (A) (A) (A) (A)
                 (A) (A) (A) (A) (A) (A) (A) (A) (A) (A) (A) (A)
                 (A) (A) (A) (A) (A) (A) (A) (A) (A) (A) (A) (A)
                 (A) (A) (A) (A) (A) (A) (A) (A) (A) (A) (A) (A)
                 (A) (A) (A) (A) (A) (A) (A) (A) (A) (A) (A) (A)
                 (A) (A) (A) (A) (A) (A) (A) (A) (A) (A) (A) (A)
                 (A) (A) (A) (A) (A) (A) (A) (A) (A) (A) (A) (A)
                 (A) (A) (A) (A) (A) (A) (A) (A) (A) (A) (A) (A)
                 (A) (A) (A) (A) (A) (A) (A) (A) (A) (A) (A) (A)
                 (A) (A) (A) (A) (A) (A) (A) (A) (A) (A) (A) (A)
                 (A) (A) (A) (A) (A) (A) (A) (A) (A) (A) (A) (A)
                 (A) (A) (A) (A) (A) (A) (A) (A) (A) (A) (A) (A)
                 (A) (A) (A) (A) (A) (A) (A) (A) (A) (A) (A) (A)
                 (A) (A) (A) (A) (A) (A) (A) (A) (A) (A) (A) (A)
                 (A) (A) (A) (A) (A) (A) (A) (A) (A) (A) (A) (A)
                 (A) (A) (A) (A) (A) (A) (A) (A) (A) (A) (A) (A)
                 (A) (A) (A) (A) (A) (A) (A) (A) (A) (A) (A) (A)
                 (A) (A) (A) (A) (A) (A) (A) (A) (A) (A) (A) (A)
                 (A) (A) (A) (A) (A) (A) (A) (A) (A) (A) (A) (A)
                 (A) (A) (A) (A) (A) (A) (A) (A) (A) (A) (A) (A)
                 (A) (A) (A) (A) (A) (A) (A) (A) (A) (A) (A) (A)
                 (A) (A) (A) (A) (A) (A) (A) (A) (A) (A) (A) (A)
                 (A) (A) (A) (A) (A) (A) (A) (A) (A) (A) (A) (A)
                 (A) (A) (A) (A) (A) (A) (A) (A) (A) (A) (A) (A)
                 (A) (A) (A) (A) (A) (A) (A) (A) (A) (A) (A) (A)
                 (A) (A) (A) (A) (A) (A) (A) (A) (A) (A) (A) (A)
                 (A) (A) (A) (A) (A) (A) (A) (A) (A) (A) (A) (A)
                 (A) (A) (A) (A) (A) (A) (A) (A) (A)
 The electronic state is 1-A.
 Alpha  occ. eigenvalues --  -19.72838 -10.71102 -10.64800 -10.63613  -1.19953
 Alpha  occ. eigenvalues --   -0.92309  -0.75616  -0.68335  -0.58130  -0.55947
 Alpha  occ. eigenvalues --   -0.51069  -0.48583  -0.46252  -0.34143  -0.33508
 Alpha virt. eigenvalues --   -0.01344   0.06091   0.06888   0.08015   0.09807
 Alpha virt. eigenvalues --    0.12936   0.14016   0.15349   0.17657   0.19241
 Alpha virt. eigenvalues --    0.20311   0.22284   0.24619   0.27137   0.28308
 Alpha virt. eigenvalues --    0.31318   0.33274   0.35209   0.37705   0.38626
 Alpha virt. eigenvalues --    0.40059   0.40321   0.42152   0.42259   0.45628
 Alpha virt. eigenvalues --    0.48728   0.50720   0.51535   0.54093   0.57359
 Alpha virt. eigenvalues --    0.62329   0.65584   0.66661   0.67469   0.71559
 Alpha virt. eigenvalues --    0.73828   0.76587   0.78069   0.79155   0.81040
 Alpha virt. eigenvalues --    0.81405   0.81815   0.84135   0.85002   0.86793
 Alpha virt. eigenvalues --    0.88013   0.90042   0.92569   0.94245   0.95912
 Alpha virt. eigenvalues --    0.96754   0.98151   1.00870   1.02531   1.06047
 Alpha virt. eigenvalues --    1.07939   1.09594   1.12276   1.18253   1.21389
 Alpha virt. eigenvalues --    1.23536   1.24393   1.27822   1.34444   1.39551
 Alpha virt. eigenvalues --    1.45959   1.47987   1.50364   1.54395   1.55075
 Alpha virt. eigenvalues --    1.57817   1.59924   1.65228   1.68151   1.69634
 Alpha virt. eigenvalues --    1.72170   1.76189   1.80193   1.82058   1.84538
 Alpha virt. eigenvalues --    1.86669   1.87946   1.89441   1.91523   1.94136
 Alpha virt. eigenvalues --    1.95068   1.97759   1.99413   2.00213   2.03557
 Alpha virt. eigenvalues --    2.06912   2.09004   2.10422   2.13136   2.13319
 Alpha virt. eigenvalues --    2.15334   2.17250   2.22030   2.25020   2.27183
 Alpha virt. eigenvalues --    2.31006   2.37061   2.37505   2.40746   2.42762
 Alpha virt. eigenvalues --    2.44054   2.46165   2.48927   2.52546   2.53284
 Alpha virt. eigenvalues --    2.56830   2.59227   2.60540   2.62568   2.63791
 Alpha virt. eigenvalues --    2.66611   2.68304   2.69975   2.72655   2.74218
 Alpha virt. eigenvalues --    2.77087   2.80531   2.86978   2.88653   2.89420
 Alpha virt. eigenvalues --    2.91501   2.94857   2.97617   3.02214   3.06858
 Alpha virt. eigenvalues --    3.16402   3.21699   3.27830   3.30422   3.34020
 Alpha virt. eigenvalues --    3.41523   3.42469   3.44218   3.52023   3.52605
 Alpha virt. eigenvalues --    3.56556   3.60715   3.62822   3.63151   3.69434
 Alpha virt. eigenvalues --    3.73191   3.77834   3.84452   3.88508   3.90148
 Alpha virt. eigenvalues --    3.99565   4.02470   4.02928   4.05360   4.09653
 Alpha virt. eigenvalues --    4.11766   4.18286   4.22521   4.27226   4.28973
 Alpha virt. eigenvalues --    4.37565   4.43061   4.55418   4.61172   4.63661
 Alpha virt. eigenvalues --    4.65368   4.78728   4.86410   4.90635   4.95593
 Alpha virt. eigenvalues --    5.01599   5.03581   5.10117   5.12549   5.13742
 Alpha virt. eigenvalues --    5.22177   5.26747   5.32006   5.34099   5.39247
 Alpha virt. eigenvalues --    5.47779   5.51695   5.55527   5.57289   5.62141
 Alpha virt. eigenvalues --    5.66573   5.70233   5.72935   5.74412   5.77228
 Alpha virt. eigenvalues --    5.80392   5.83885   5.89447   5.91629   5.95900
 Alpha virt. eigenvalues --    5.97050   6.01203   6.02354   6.04857   6.10102
 Alpha virt. eigenvalues --    6.10228   6.14460   6.15442   6.18974   6.21392
 Alpha virt. eigenvalues --    6.22780   6.26703   6.29812   6.31644   6.33066
 Alpha virt. eigenvalues --    6.35723   6.41568   6.45313   6.49337   6.52543
 Alpha virt. eigenvalues --    6.53313   6.57854   6.61743   6.64082   6.66799
 Alpha virt. eigenvalues --    6.69220   6.75927   6.79330   6.85232   6.85982
 Alpha virt. eigenvalues --    6.91183   6.91755   6.94820   7.03981   7.06685
 Alpha virt. eigenvalues --    7.07299   7.13363   7.16986   7.28157   7.33382
 Alpha virt. eigenvalues --    7.34617   7.44316   7.45735   7.49398   7.50566
 Alpha virt. eigenvalues --    7.56291   7.58909   7.62309   7.67239   7.67695
 Alpha virt. eigenvalues --    7.70584   7.72996   7.76620   7.80253   7.85269
 Alpha virt. eigenvalues --    7.87104   7.88860   7.91371   7.95319   8.01275
 Alpha virt. eigenvalues --    8.01964   8.05042   8.10325   8.15263   8.19568
 Alpha virt. eigenvalues --    8.26708   8.29285   8.35303   8.39095   8.41247
 Alpha virt. eigenvalues --    8.45653   8.47809   8.50573   8.60990   8.64271
 Alpha virt. eigenvalues --    8.64797   8.70111   8.75257   8.77500   8.81941
 Alpha virt. eigenvalues --    8.88009   9.02306   9.07522   9.08219   9.11743
 Alpha virt. eigenvalues --    9.17049   9.19762   9.23312   9.34368   9.40161
 Alpha virt. eigenvalues --    9.43485   9.54556   9.62215   9.74060   9.93824
 Alpha virt. eigenvalues --    9.99757  10.03050  10.10937  10.12512  10.23682
 Alpha virt. eigenvalues --   10.26190  10.31614  10.36261  10.45539  10.51343
 Alpha virt. eigenvalues --   10.55231  10.61614  10.64234  10.78006  11.05377
 Alpha virt. eigenvalues --   11.13076  11.26118  11.27768  11.36744  11.63774
 Alpha virt. eigenvalues --   11.68151  11.78278  11.85726  12.04455  12.11001
 Alpha virt. eigenvalues --   12.28870  12.37875  12.45819  12.60386  12.93472
 Alpha virt. eigenvalues --   13.29135  13.40905  13.79275  14.34403  14.77049
 Alpha virt. eigenvalues --   28.84415  28.93472  29.57408  48.65389 148.44933
 Alpha virt. eigenvalues --  148.51453 149.22667 254.41549
          Condensed to atoms (all electrons):
               1          2          3          4          5          6
     1  C    4.506053   0.616071   0.389954  -0.059776  -0.034677  -0.004360
     2  O    0.616071   7.883879  -0.094549   0.007087   0.007141   0.000475
     3  C    0.389954  -0.094549   5.164717   0.480093   0.373008  -0.056190
     4  C   -0.059776   0.007087   0.480093   4.848037  -0.027245   0.440753
     5  H   -0.034677   0.007141   0.373008  -0.027245   0.565686   0.004347
     6  H   -0.004360   0.000475  -0.056190   0.440753   0.004347   0.558690
     7  H    0.003860  -0.000874  -0.038492   0.424003  -0.005322  -0.042262
     8  H    0.429712  -0.076310  -0.158057   0.026538   0.007807   0.007150
               7          8
     1  C    0.003860   0.429712
     2  O   -0.000874  -0.076310
     3  C   -0.038492  -0.158057
     4  C    0.424003   0.026538
     5  H   -0.005322   0.007807
     6  H   -0.042262   0.007150
     7  H    0.560374  -0.001838
     8  H   -0.001838   0.676474
 Mulliken charges:
               1
     1  C    0.153163
     2  O   -0.342920
     3  C   -0.060483
     4  C   -0.139490
     5  H    0.109256
     6  H    0.091398
     7  H    0.100551
     8  H    0.088525
 Sum of Mulliken charges =   0.00000
 Mulliken charges with hydrogens summed into heavy atoms:
               1
     1  C    0.241689
     2  O   -0.342920
     3  C    0.048773
     4  C    0.052459
 Electronic spatial extent (au):  <R**2>=            299.0678
 Charge=              0.0000 electrons
 Dipole moment (field-independent basis, Debye):
    X=              3.1859    Y=              0.8545    Z=              0.4346  Tot=              3.3270
 Quadrupole moment (field-independent basis, Debye-Ang):
   XX=            -27.9191   YY=            -21.3788   ZZ=            -25.0800
   XY=             -0.8732   XZ=             -0.1344   YZ=             -0.3066
 Traceless Quadrupole moment (field-independent basis, Debye-Ang):
   XX=             -3.1265   YY=              3.4138   ZZ=             -0.2873
   XY=             -0.8732   XZ=             -0.1344   YZ=             -0.3066
 Octapole moment (field-independent basis, Debye-Ang**2):
  XXX=             13.0174  YYY=              0.3356  ZZZ=              0.3117  XYY=             -0.3093
  XXY=              1.1544  XXZ=              1.1188  XZZ=             -4.3114  YZZ=              0.4038
  YYZ=              0.7423  XYZ=             -0.3877
 Hexadecapole moment (field-independent basis, Debye-Ang**3):
 XXXX=           -308.9040 YYYY=            -53.9407 ZZZZ=            -28.3141 XXXY=             -2.1561
 XXXZ=              1.7158 YYYX=              0.5693 YYYZ=             -0.6477 ZZZX=              0.6817
 ZZZY=             -0.2339 XXYY=            -57.5576 XXZZ=            -57.1271 YYZZ=            -15.0966
 XXYZ=             -0.8977 YYXZ=              0.0546 ZZXY=              0.3815
 N-N= 1.031888889000D+02 E-N=-6.545765896807D+02  KE= 1.912140895823D+02
 Leave Link  601 at Wed Aug 26 13:01:37 2020, MaxMem=  2097152000 cpu:         0.5
 (Enter /opt/cluster/programs/g09/g09_d.01/g09/l9999.exe)
 1\1\GINC-NODE27\SP\RB2PLYPD3-FC\def2QZVP\C3H4O1\BOITTIER\26-Aug-2020\0
 \\#p B2PLYPD3/Def2QZVP\\acrolein\\0,1\C,0,-5.005469,-1.366364,0.842808
 \O,0,-3.920365,-0.865055,0.704546\C,0,-5.194714,-2.862809,1.121256\C,0
 ,-6.435737,-3.291259,1.456891\H,0,-4.310356,-3.438131,0.920912\H,0,-7.
 200578,-2.658622,1.504665\H,0,-6.531863,-4.29837,1.47047\H,0,-5.873172
 ,-0.816863,0.66539\\Version=ES64L-G09RevD.01\State=1-A\HF=-191.5979562
 \MP2=-191.8443429\RMSD=6.509e-09\PG=C01 [X(C3H4O1)]\\@


 "THE TIME HAS COME", THE WALRUS SAID,
 "TO TALK OF MANY THINGS,
 OF SHOES AND SHIPS AND SEALING WAX,
 OF CABBAGES AND KINGS,
 AND WHY THE SEA IS BOILING HOT,
 AND WHETHER PIGS HAVE WINGS."
 Job cpu time:       0 days  0 hours 12 minutes 10.6 seconds.
 File lengths (MBytes):  RWF=     49 Int=      0 D2E=      0 Chk=      7 Scr=      1
 Normal termination of Gaussian 09 at Wed Aug 26 13:01:38 2020.
