 Entering Gaussian System, Link 0=/opt/cluster/programs/g09/g09_d.01/g09//g09
 Input=/home/boittier/MDCM/nms_sampling/acrolein_geom.xyz.dir/energies/acrolein_1057_energy.com
 Output=/scratch/boittier/acrolein_1057_energy/acrolein_1057_energy.out
 Initial command:
 /opt/cluster/programs/g09/g09_d.01/g09/l1.exe "/scratch/boittier/acrolein_1057_energy/Gau-28607.inp" -scrdir="/scratch/boittier/acrolein_1057_energy/"
 Entering Link 1 = /opt/cluster/programs/g09/g09_d.01/g09/l1.exe PID=     28608.
  
 Copyright (c) 1988,1990,1992,1993,1995,1998,2003,2009,2013,
            Gaussian, Inc.  All Rights Reserved.
  
 This is part of the Gaussian(R) 09 program.  It is based on
 the Gaussian(R) 03 system (copyright 2003, Gaussian, Inc.),
 the Gaussian(R) 98 system (copyright 1998, Gaussian, Inc.),
 the Gaussian(R) 94 system (copyright 1995, Gaussian, Inc.),
 the Gaussian 92(TM) system (copyright 1992, Gaussian, Inc.),
 the Gaussian 90(TM) system (copyright 1990, Gaussian, Inc.),
 the Gaussian 88(TM) system (copyright 1988, Gaussian, Inc.),
 the Gaussian 86(TM) system (copyright 1986, Carnegie Mellon
 University), and the Gaussian 82(TM) system (copyright 1983,
 Carnegie Mellon University). Gaussian is a federally registered
 trademark of Gaussian, Inc.
  
 This software contains proprietary and confidential information,
 including trade secrets, belonging to Gaussian, Inc.
  
 This software is provided under written license and may be
 used, copied, transmitted, or stored only in accord with that
 written license.
  
 The following legend is applicable only to US Government
 contracts under FAR:
  
                    RESTRICTED RIGHTS LEGEND
  
 Use, reproduction and disclosure by the US Government is
 subject to restrictions as set forth in subparagraphs (a)
 and (c) of the Commercial Computer Software - Restricted
 Rights clause in FAR 52.227-19.
  
 Gaussian, Inc.
 340 Quinnipiac St., Bldg. 40, Wallingford CT 06492
  
  
 ---------------------------------------------------------------
 Warning -- This program may not be used in any manner that
 competes with the business of Gaussian, Inc. or will provide
 assistance to any competitor of Gaussian, Inc.  The licensee
 of this program is prohibited from giving any competitor of
 Gaussian, Inc. access to this program.  By using this program,
 the user acknowledges that Gaussian, Inc. is engaged in the
 business of creating and licensing software in the field of
 computational chemistry and represents and warrants to the
 licensee that it is not a competitor of Gaussian, Inc. and that
 it will not use this program in any manner prohibited above.
 ---------------------------------------------------------------
  

 Cite this work as:
 Gaussian 09, Revision D.01,
 M. J. Frisch, G. W. Trucks, H. B. Schlegel, G. E. Scuseria, 
 M. A. Robb, J. R. Cheeseman, G. Scalmani, V. Barone, B. Mennucci, 
 G. A. Petersson, H. Nakatsuji, M. Caricato, X. Li, H. P. Hratchian, 
 A. F. Izmaylov, J. Bloino, G. Zheng, J. L. Sonnenberg, M. Hada, 
 M. Ehara, K. Toyota, R. Fukuda, J. Hasegawa, M. Ishida, T. Nakajima, 
 Y. Honda, O. Kitao, H. Nakai, T. Vreven, J. A. Montgomery, Jr., 
 J. E. Peralta, F. Ogliaro, M. Bearpark, J. J. Heyd, E. Brothers, 
 K. N. Kudin, V. N. Staroverov, T. Keith, R. Kobayashi, J. Normand, 
 K. Raghavachari, A. Rendell, J. C. Burant, S. S. Iyengar, J. Tomasi, 
 M. Cossi, N. Rega, J. M. Millam, M. Klene, J. E. Knox, J. B. Cross, 
 V. Bakken, C. Adamo, J. Jaramillo, R. Gomperts, R. E. Stratmann, 
 O. Yazyev, A. J. Austin, R. Cammi, C. Pomelli, J. W. Ochterski, 
 R. L. Martin, K. Morokuma, V. G. Zakrzewski, G. A. Voth, 
 P. Salvador, J. J. Dannenberg, S. Dapprich, A. D. Daniels, 
 O. Farkas, J. B. Foresman, J. V. Ortiz, J. Cioslowski, 
 and D. J. Fox, Gaussian, Inc., Wallingford CT, 2013.
 
 ******************************************
 Gaussian 09:  ES64L-G09RevD.01 24-Apr-2013
                26-Aug-2020 
 ******************************************
 %chk=/home/boittier/MDCM/nms_sampling/acrolein_geom.xyz.dir/acrolein_1057.chk
 %nproc=8
 Will use up to    8 processors via shared memory.
 %mem=16000MB
 --------------------
 #p B2PLYPD3/Def2QZVP
 --------------------
 1/38=1/1;
 2/12=2,17=6,18=5,40=1/2;
 3/5=45,7=101,11=9,16=1,25=1,30=1,74=-60/1,2,3;
 4//1;
 5/5=2,38=5/2;
 8/10=1/1;
 9/16=-3/6;
 6/7=2,8=2,9=2,10=2/1;
 99/5=1,9=1/99;
 Leave Link    1 at Wed Aug 26 08:34:11 2020, MaxMem=  2097152000 cpu:         0.2
 (Enter /opt/cluster/programs/g09/g09_d.01/g09/l101.exe)
 --------
 acrolein
 --------
 Symbolic Z-matrix:
 Charge =  0 Multiplicity = 1
 C                    -5.00804  -1.37833   0.88487 
 O                    -3.92471  -0.87366   0.66876 
 C                    -5.19882  -2.80592   1.11524 
 C                    -6.4083   -3.31353   1.40303 
 H                    -4.27235  -3.4602    1.20978 
 H                    -7.27445  -2.69477   1.46208 
 H                    -6.60786  -4.41693   1.68627 
 H                    -5.9549   -0.79689   0.95042 
 
 NAtoms=      8 NQM=        8 NQMF=       0 NMMI=      0 NMMIF=      0
                NMic=       0 NMicF=      0.
                    Isotopes and Nuclear Properties:
 (Nuclear quadrupole moments (NQMom) in fm**2, nuclear magnetic moments (NMagM)
  in nuclear magnetons)

  Atom         1           2           3           4           5           6           7           8
 IAtWgt=          12          16          12          12           1           1           1           1
 AtmWgt=  12.0000000  15.9949146  12.0000000  12.0000000   1.0078250   1.0078250   1.0078250   1.0078250
 NucSpn=           0           0           0           0           1           1           1           1
 AtZEff=   0.0000000   0.0000000   0.0000000   0.0000000   0.0000000   0.0000000   0.0000000   0.0000000
 NQMom=    0.0000000   0.0000000   0.0000000   0.0000000   0.0000000   0.0000000   0.0000000   0.0000000
 NMagM=    0.0000000   0.0000000   0.0000000   0.0000000   2.7928460   2.7928460   2.7928460   2.7928460
 AtZNuc=   6.0000000   8.0000000   6.0000000   6.0000000   1.0000000   1.0000000   1.0000000   1.0000000
 Leave Link  101 at Wed Aug 26 08:34:11 2020, MaxMem=  2097152000 cpu:         0.5
 (Enter /opt/cluster/programs/g09/g09_d.01/g09/l202.exe)
                          Input orientation:                          
 ---------------------------------------------------------------------
 Center     Atomic      Atomic             Coordinates (Angstroms)
 Number     Number       Type             X           Y           Z
 ---------------------------------------------------------------------
      1          6           0       -5.008039   -1.378330    0.884873
      2          8           0       -3.924708   -0.873658    0.668760
      3          6           0       -5.198823   -2.805924    1.115242
      4          6           0       -6.408302   -3.313531    1.403033
      5          1           0       -4.272345   -3.460196    1.209777
      6          1           0       -7.274450   -2.694771    1.462080
      7          1           0       -6.607860   -4.416934    1.686266
      8          1           0       -5.954901   -0.796888    0.950420
 ---------------------------------------------------------------------
                    Distance matrix (angstroms):
                    1          2          3          4          5
     1  C    0.000000
     2  O    1.214498   0.000000
     3  C    1.458593   2.357195   0.000000
     4  C    2.444224   3.558142   1.342880   0.000000
     5  H    2.231810   2.665282   1.138143   2.149691   0.000000
     6  H    2.683804   3.894429   2.107339   1.066097   3.108403
     7  H    3.526297   4.559543   2.215131   1.156522   2.568466
     8  H    1.113067   2.051075   2.152916   2.596906   3.160929
                    6          7          8
     6  H    0.000000
     7  H    1.860228   0.000000
     8  H    2.367481   3.751341   0.000000
 Stoichiometry    C3H4O
 Framework group  C1[X(C3H4O)]
 Deg. of freedom    18
 Full point group                 C1      NOp   1
 Largest Abelian subgroup         C1      NOp   1
 Largest concise Abelian subgroup C1      NOp   1
                         Standard orientation:                         
 ---------------------------------------------------------------------
 Center     Atomic      Atomic             Coordinates (Angstroms)
 Number     Number       Type             X           Y           Z
 ---------------------------------------------------------------------
      1          6           0        0.677710    0.358197   -0.006909
      2          8           0        1.791688   -0.125280    0.010648
      3          6           0       -0.544206   -0.437700   -0.037941
      4          6           0       -1.756628    0.138621   -0.003073
      5          1           0       -0.449553   -1.566263    0.075002
      6          1           0       -1.871003    1.197823    0.036589
      7          1           0       -2.756771   -0.437669    0.068663
      8          1           0        0.482571    1.453641    0.022104
 ---------------------------------------------------------------------
 Rotational constants (GHZ):     47.7517770      4.6480871      4.2379176
 Leave Link  202 at Wed Aug 26 08:34:11 2020, MaxMem=  2097152000 cpu:         0.0
 (Enter /opt/cluster/programs/g09/g09_d.01/g09/l301.exe)
 Standard basis: def2QZVP (5D, 7F)
 Ernie: Thresh=  0.10000D-02 Tol=  0.10000D-05 Strict=F.
 There are   428 symmetry adapted cartesian basis functions of A   symmetry.
 There are   348 symmetry adapted basis functions of A   symmetry.
   348 basis functions,   520 primitive gaussians,   428 cartesian basis functions
    15 alpha electrons       15 beta electrons
       nuclear repulsion energy       102.7167794003 Hartrees.
 IExCor=  419 DFT=T Ex+Corr=B2PLYPD3 ExCW=0 ScaHFX=  0.530000
 ScaDFX=  0.470000  0.470000  0.730000  0.730000 ScalE2=  0.270000  0.270000
 IRadAn=      0 IRanWt=     -1 IRanGd=            0 ICorTp=0 IEmpDi=141
 NAtoms=    8 NActive=    8 NUniq=    8 SFac= 1.00D+00 NAtFMM=   60 NAOKFM=F Big=F
 Integral buffers will be    131072 words long.
 Regular integral format.
 Two-electron integral symmetry is turned on.
 R6Disp:  Grimme-D3(BJ) Dispersion energy=       -0.0035716506 Hartrees.
 Nuclear repulsion after empirical dispersion term =      102.7132077498 Hartrees.
 Leave Link  301 at Wed Aug 26 08:34:11 2020, MaxMem=  2097152000 cpu:         0.5
 (Enter /opt/cluster/programs/g09/g09_d.01/g09/l302.exe)
 NPDir=0 NMtPBC=     1 NCelOv=     1 NCel=       1 NClECP=     1 NCelD=      1
         NCelK=      1 NCelE2=     1 NClLst=     1 CellRange=     0.0.
 One-electron integrals computed using PRISM.
   1 Symmetry operations used in ECPInt.
 ECPInt:  NShTT=    5886 NPrTT=   14376 LenC2=    5776 LenP2D=   12162.
 LDataN:  DoStor=T MaxTD1= 8 Len=  415
 NBasis=   348 RedAO= T EigKep=  6.39D-05  NBF=   348
 NBsUse=   348 1.00D-06 EigRej= -1.00D+00 NBFU=   348
 Precomputing XC quadrature grid using
 IXCGrd= 4 IRadAn=           0 IRanWt=          -1 IRanGd=           0 AccXCQ= 0.00D+00.
 Generated NRdTot=       0 NPtTot=           0 NUsed=           0 NTot=          32
 NSgBfM=   428   428   428   428   428 MxSgAt=     8 MxSgA2=     8.
 Leave Link  302 at Wed Aug 26 08:34:12 2020, MaxMem=  2097152000 cpu:         3.1
 (Enter /opt/cluster/programs/g09/g09_d.01/g09/l303.exe)
 DipDrv:  MaxL=1.
 Leave Link  303 at Wed Aug 26 08:34:12 2020, MaxMem=  2097152000 cpu:         0.4
 (Enter /opt/cluster/programs/g09/g09_d.01/g09/l401.exe)
 ExpMin= 7.60D-02 ExpMax= 1.17D+05 ExpMxC= 1.13D+03 IAcc=2 IRadAn=         4 AccDes= 0.00D+00
 Harris functional with IExCor=  419 and IRadAn=       4 diagonalized for initial guess.
 HarFok:  IExCor=  419 AccDes= 0.00D+00 IRadAn=         4 IDoV= 1 UseB2=F ITyADJ=14
 ICtDFT=  3500011 ScaDFX=  1.000000  1.000000  1.000000  1.000000
 FoFCou: FMM=F IPFlag=           0 FMFlag=      100000 FMFlg1=           0
         NFxFlg=           0 DoJE=T BraDBF=F KetDBF=T FulRan=T
         wScrn=  0.000000 ICntrl=     500 IOpCl=  0 I1Cent=   200000004 NGrid=           0
         NMat0=    1 NMatS0=      1 NMatT0=    0 NMatD0=    1 NMtDS0=    0 NMtDT0=    0
 Petite list used in FoFCou.
 Harris En= -192.033522517034    
 JPrj=0 DoOrth=F DoCkMO=F.
 Leave Link  401 at Wed Aug 26 08:34:13 2020, MaxMem=  2097152000 cpu:         6.3
 (Enter /opt/cluster/programs/g09/g09_d.01/g09/l502.exe)
 Closed shell SCF:
 Using DIIS extrapolation, IDIIS=  1040.
 Integral symmetry usage will be decided dynamically.
 Keep R1 ints in memory in canonical form, NReq=1883905047.
 IVT=      574566 IEndB=      574566 NGot=  2097152000 MDV=   252723534
 LenX=   252723534 LenY=   252539909
 Requested convergence on RMS density matrix=1.00D-08 within 128 cycles.
 Requested convergence on MAX density matrix=1.00D-06.
 Requested convergence on             energy=1.00D-06.
 No special actions if energy rises.
 FoFCou: FMM=F IPFlag=           0 FMFlag=           0 FMFlg1=           0
         NFxFlg=           0 DoJE=F BraDBF=F KetDBF=F FulRan=T
         wScrn=  0.000000 ICntrl=     600 IOpCl=  0 I1Cent=           0 NGrid=           0
         NMat0=    1 NMatS0=  60726 NMatT0=    0 NMatD0=    1 NMtDS0=    0 NMtDT0=    0
 Symmetry not used in FoFCou.
 Integral accuracy reduced to 1.0D-05 until final iterations.

 Cycle   1  Pass 0  IDiag  1:
 E= -191.471734828718    
 DIIS: error= 2.66D-02 at cycle   1 NSaved=   1.
 NSaved= 1 IEnMin= 1 EnMin= -191.471734828718     IErMin= 1 ErrMin= 2.66D-02
 ErrMax= 2.66D-02  0.00D+00 EMaxC= 1.00D-01 BMatC= 2.49D-01 BMatP= 2.49D-01
 IDIUse=3 WtCom= 7.34D-01 WtEn= 2.66D-01
 Coeff-Com:  0.100D+01
 Coeff-En:   0.100D+01
 Coeff:      0.100D+01
 Gap=     0.283 Goal=   None    Shift=    0.000
 GapD=    0.283 DampG=1.000 DampE=0.500 DampFc=0.5000 IDamp=-1.
 Damping current iteration by 5.00D-01
 RMSDP=1.79D-03 MaxDP=2.26D-01              OVMax= 1.76D-01

 Cycle   2  Pass 0  IDiag  1:
 E= -191.537554159064     Delta-E=       -0.065819330347 Rises=F Damp=T
 DIIS: error= 1.01D-02 at cycle   2 NSaved=   2.
 NSaved= 2 IEnMin= 2 EnMin= -191.537554159064     IErMin= 2 ErrMin= 1.01D-02
 ErrMax= 1.01D-02  0.00D+00 EMaxC= 1.00D-01 BMatC= 3.34D-02 BMatP= 2.49D-01
 IDIUse=3 WtCom= 8.99D-01 WtEn= 1.01D-01
 Coeff-Com: -0.143D+00 0.114D+01
 Coeff-En:   0.000D+00 0.100D+01
 Coeff:     -0.128D+00 0.113D+01
 Gap=     0.354 Goal=   None    Shift=    0.000
 RMSDP=6.17D-04 MaxDP=7.91D-02 DE=-6.58D-02 OVMax= 1.32D-01

 Cycle   3  Pass 0  IDiag  1:
 E= -191.596663797242     Delta-E=       -0.059109638177 Rises=F Damp=F
 DIIS: error= 1.10D-02 at cycle   3 NSaved=   3.
 NSaved= 3 IEnMin= 3 EnMin= -191.596663797242     IErMin= 2 ErrMin= 1.01D-02
 ErrMax= 1.10D-02  0.00D+00 EMaxC= 1.00D-01 BMatC= 1.72D-02 BMatP= 3.34D-02
 IDIUse=3 WtCom= 8.90D-01 WtEn= 1.10D-01
 Coeff-Com: -0.192D+00 0.522D+00 0.670D+00
 Coeff-En:   0.000D+00 0.000D+00 0.100D+01
 Coeff:     -0.171D+00 0.465D+00 0.706D+00
 Gap=     0.329 Goal=   None    Shift=    0.000
 RMSDP=2.43D-04 MaxDP=1.78D-02 DE=-5.91D-02 OVMax= 4.89D-02

 Cycle   4  Pass 0  IDiag  1:
 E= -191.606073482060     Delta-E=       -0.009409684818 Rises=F Damp=F
 DIIS: error= 4.87D-03 at cycle   4 NSaved=   4.
 NSaved= 4 IEnMin= 4 EnMin= -191.606073482060     IErMin= 4 ErrMin= 4.87D-03
 ErrMax= 4.87D-03  0.00D+00 EMaxC= 1.00D-01 BMatC= 3.28D-03 BMatP= 1.72D-02
 IDIUse=3 WtCom= 9.51D-01 WtEn= 4.87D-02
 Coeff-Com: -0.615D-01 0.101D+00 0.371D+00 0.590D+00
 Coeff-En:   0.000D+00 0.000D+00 0.177D+00 0.823D+00
 Coeff:     -0.585D-01 0.961D-01 0.361D+00 0.601D+00
 Gap=     0.320 Goal=   None    Shift=    0.000
 RMSDP=9.86D-05 MaxDP=7.83D-03 DE=-9.41D-03 OVMax= 1.48D-02

 Cycle   5  Pass 0  IDiag  1:
 E= -191.608750727790     Delta-E=       -0.002677245730 Rises=F Damp=F
 DIIS: error= 3.49D-04 at cycle   5 NSaved=   5.
 NSaved= 5 IEnMin= 5 EnMin= -191.608750727790     IErMin= 5 ErrMin= 3.49D-04
 ErrMax= 3.49D-04  0.00D+00 EMaxC= 1.00D-01 BMatC= 1.24D-05 BMatP= 3.28D-03
 IDIUse=3 WtCom= 9.97D-01 WtEn= 3.49D-03
 Coeff-Com: -0.707D-02 0.859D-02 0.495D-01 0.117D+00 0.832D+00
 Coeff-En:   0.000D+00 0.000D+00 0.000D+00 0.000D+00 0.100D+01
 Coeff:     -0.704D-02 0.856D-02 0.493D-01 0.117D+00 0.832D+00
 Gap=     0.319 Goal=   None    Shift=    0.000
 RMSDP=9.57D-06 MaxDP=7.67D-04 DE=-2.68D-03 OVMax= 2.30D-03

 Initial convergence to 1.0D-05 achieved.  Increase integral accuracy.
 Cycle   6  Pass 1  IDiag  1:
 E= -191.608747057630     Delta-E=        0.000003670160 Rises=F Damp=F
 DIIS: error= 1.02D-04 at cycle   1 NSaved=   1.
 NSaved= 1 IEnMin= 1 EnMin= -191.608747057630     IErMin= 1 ErrMin= 1.02D-04
 ErrMax= 1.02D-04  0.00D+00 EMaxC= 1.00D-01 BMatC= 1.66D-06 BMatP= 1.66D-06
 IDIUse=3 WtCom= 9.99D-01 WtEn= 1.02D-03
 Coeff-Com:  0.100D+01
 Coeff-En:   0.100D+01
 Coeff:      0.100D+01
 Gap=     0.319 Goal=   None    Shift=    0.000
 RMSDP=9.57D-06 MaxDP=7.67D-04 DE= 3.67D-06 OVMax= 7.29D-04

 Cycle   7  Pass 1  IDiag  1:
 E= -191.608748376586     Delta-E=       -0.000001318956 Rises=F Damp=F
 DIIS: error= 7.57D-05 at cycle   2 NSaved=   2.
 NSaved= 2 IEnMin= 2 EnMin= -191.608748376586     IErMin= 2 ErrMin= 7.57D-05
 ErrMax= 7.57D-05  0.00D+00 EMaxC= 1.00D-01 BMatC= 9.36D-07 BMatP= 1.66D-06
 IDIUse=1 WtCom= 1.00D+00 WtEn= 0.00D+00
 Coeff-Com:  0.421D+00 0.579D+00
 Coeff:      0.421D+00 0.579D+00
 Gap=     0.319 Goal=   None    Shift=    0.000
 RMSDP=1.56D-06 MaxDP=9.04D-05 DE=-1.32D-06 OVMax= 4.09D-04

 Cycle   8  Pass 1  IDiag  1:
 E= -191.608749210108     Delta-E=       -0.000000833522 Rises=F Damp=F
 DIIS: error= 1.57D-05 at cycle   3 NSaved=   3.
 NSaved= 3 IEnMin= 3 EnMin= -191.608749210108     IErMin= 3 ErrMin= 1.57D-05
 ErrMax= 1.57D-05  0.00D+00 EMaxC= 1.00D-01 BMatC= 6.94D-08 BMatP= 9.36D-07
 IDIUse=1 WtCom= 1.00D+00 WtEn= 0.00D+00
 Coeff-Com:  0.562D-01 0.181D+00 0.763D+00
 Coeff:      0.562D-01 0.181D+00 0.763D+00
 Gap=     0.319 Goal=   None    Shift=    0.000
 RMSDP=1.38D-06 MaxDP=1.52D-04 DE=-8.34D-07 OVMax= 1.18D-04

 Cycle   9  Pass 1  IDiag  1:
 E= -191.608749274503     Delta-E=       -0.000000064395 Rises=F Damp=F
 DIIS: error= 1.89D-05 at cycle   4 NSaved=   4.
 NSaved= 4 IEnMin= 4 EnMin= -191.608749274503     IErMin= 3 ErrMin= 1.57D-05
 ErrMax= 1.89D-05  0.00D+00 EMaxC= 1.00D-01 BMatC= 2.29D-08 BMatP= 6.94D-08
 IDIUse=1 WtCom= 1.00D+00 WtEn= 0.00D+00
 Coeff-Com: -0.120D+00-0.982D-01 0.439D+00 0.779D+00
 Coeff:     -0.120D+00-0.982D-01 0.439D+00 0.779D+00
 Gap=     0.319 Goal=   None    Shift=    0.000
 RMSDP=7.06D-07 MaxDP=7.38D-05 DE=-6.44D-08 OVMax= 1.17D-04

 Cycle  10  Pass 1  IDiag  1:
 E= -191.608749306284     Delta-E=       -0.000000031781 Rises=F Damp=F
 DIIS: error= 1.53D-06 at cycle   5 NSaved=   5.
 NSaved= 5 IEnMin= 5 EnMin= -191.608749306284     IErMin= 5 ErrMin= 1.53D-06
 ErrMax= 1.53D-06  0.00D+00 EMaxC= 1.00D-01 BMatC= 9.36D-10 BMatP= 2.29D-08
 IDIUse=1 WtCom= 1.00D+00 WtEn= 0.00D+00
 Coeff-Com: -0.239D-01-0.275D-01 0.195D-01 0.194D+00 0.838D+00
 Coeff:     -0.239D-01-0.275D-01 0.195D-01 0.194D+00 0.838D+00
 Gap=     0.319 Goal=   None    Shift=    0.000
 RMSDP=1.51D-07 MaxDP=1.75D-05 DE=-3.18D-08 OVMax= 1.50D-05

 Cycle  11  Pass 1  IDiag  1:
 E= -191.608749307188     Delta-E=       -0.000000000904 Rises=F Damp=F
 DIIS: error= 6.02D-07 at cycle   6 NSaved=   6.
 NSaved= 6 IEnMin= 6 EnMin= -191.608749307188     IErMin= 6 ErrMin= 6.02D-07
 ErrMax= 6.02D-07  0.00D+00 EMaxC= 1.00D-01 BMatC= 1.06D-10 BMatP= 9.36D-10
 IDIUse=1 WtCom= 1.00D+00 WtEn= 0.00D+00
 Coeff-Com:  0.106D-01 0.614D-02-0.689D-01-0.347D-01 0.229D+00 0.858D+00
 Coeff:      0.106D-01 0.614D-02-0.689D-01-0.347D-01 0.229D+00 0.858D+00
 Gap=     0.319 Goal=   None    Shift=    0.000
 RMSDP=3.82D-08 MaxDP=2.71D-06 DE=-9.04D-10 OVMax= 4.17D-06

 Cycle  12  Pass 1  IDiag  1:
 E= -191.608749307320     Delta-E=       -0.000000000131 Rises=F Damp=F
 DIIS: error= 6.93D-08 at cycle   7 NSaved=   7.
 NSaved= 7 IEnMin= 7 EnMin= -191.608749307320     IErMin= 7 ErrMin= 6.93D-08
 ErrMax= 6.93D-08  0.00D+00 EMaxC= 1.00D-01 BMatC= 1.52D-12 BMatP= 1.06D-10
 IDIUse=1 WtCom= 1.00D+00 WtEn= 0.00D+00
 Coeff-Com:  0.307D-03 0.503D-03 0.206D-02-0.164D-02-0.491D-01-0.553D-01
 Coeff-Com:  0.110D+01
 Coeff:      0.307D-03 0.503D-03 0.206D-02-0.164D-02-0.491D-01-0.553D-01
 Coeff:      0.110D+01
 Gap=     0.319 Goal=   None    Shift=    0.000
 RMSDP=4.34D-09 MaxDP=1.53D-07 DE=-1.31D-10 OVMax= 6.69D-07

 SCF Done:  E(RB2PLYPD3) =  -191.608749307     A.U. after   12 cycles
            NFock= 12  Conv=0.43D-08     -V/T= 2.0043
 KE= 1.907974049999D+02 PE=-6.533155127721D+02 EE= 1.681961507151D+02
 Leave Link  502 at Wed Aug 26 08:35:20 2020, MaxMem=  2097152000 cpu:       289.4
 (Enter /opt/cluster/programs/g09/g09_d.01/g09/l801.exe)
 DoSCS=T DFT=T ScalE2(SS,OS)=  0.270000  0.270000
 ExpMin= 7.60D-02 ExpMax= 1.17D+05 ExpMxC= 1.13D+03 IAcc=3 IRadAn=         5 AccDes= 0.00D+00
 HarFok:  IExCor=  205 AccDes= 0.00D+00 IRadAn=         5 IDoV=-2 UseB2=F ITyADJ=14
 ICtDFT= 12500011 ScaDFX=  1.000000  1.000000  1.000000  1.000000
 Largest valence mixing into a core orbital is  1.16D-04
 Largest core mixing into a valence orbital is  1.95D-05
 Range of M.O.s used for correlation:     5   348
 NBasis=   348 NAE=    15 NBE=    15 NFC=     4 NFV=     0
 NROrb=    344 NOA=    11 NOB=    11 NVA=   333 NVB=   333

 **** Warning!!: The largest alpha MO coefficient is  0.30024000D+02

 Leave Link  801 at Wed Aug 26 08:35:22 2020, MaxMem=  2097152000 cpu:         0.8
 (Enter /opt/cluster/programs/g09/g09_d.01/g09/l906.exe)
 DoSCS=T DFT=T ScalE2(SS,OS)=  0.270000  0.270000
 FulOut=F Deriv=F AODrv=F NAtomX=     8
   MMem=        1190  MDisk=          11 MDiskD=          11
  W3Min=     1567764 MinDsk=     2827057 NBas6D=         428
 NBas2D=       93150    NTT=       91806    LW2=     4508827
    MDV=  2096571682 MDiskM=       10875 NBas2p=       89386
 Fully direct method using O(OVN) memory.
 IMap=   1   2   3   4   5   6   7   8   9  10  11
 JobTyp=1 Pass  1:  I=   1 to  11 NPSUse=  8 ParTrn=T ParDer=T DoDerP=F.
 Spin components of T(2) and E(2):
     alpha-alpha T2 =       0.4447454335D-01 E2=     -0.2961489640D-01
     alpha-beta  T2 =       0.2723857458D+00 E2=     -0.1891606726D+00
     beta-beta   T2 =       0.4447454335D-01 E2=     -0.2961489640D-01
 The integrals were generated   1 times.
 E2(B2PLYPD3) =    -0.2483904654D+00 E(B2PLYPD3) =    -0.19185713977275D+03
 Leave Link  906 at Wed Aug 26 08:36:17 2020, MaxMem=  2097152000 cpu:       439.9
 (Enter /opt/cluster/programs/g09/g09_d.01/g09/l601.exe)
 Copying SCF densities to generalized density rwf, IOpCl= 0 IROHF=0.

 **********************************************************************

            Population analysis using the SCF density.

 **********************************************************************

 Orbital symmetries:
       Occupied  (A) (A) (A) (A) (A) (A) (A) (A) (A) (A) (A) (A)
                 (A) (A) (A)
       Virtual   (A) (A) (A) (A) (A) (A) (A) (A) (A) (A) (A) (A)
                 (A) (A) (A) (A) (A) (A) (A) (A) (A) (A) (A) (A)
                 (A) (A) (A) (A) (A) (A) (A) (A) (A) (A) (A) (A)
                 (A) (A) (A) (A) (A) (A) (A) (A) (A) (A) (A) (A)
                 (A) (A) (A) (A) (A) (A) (A) (A) (A) (A) (A) (A)
                 (A) (A) (A) (A) (A) (A) (A) (A) (A) (A) (A) (A)
                 (A) (A) (A) (A) (A) (A) (A) (A) (A) (A) (A) (A)
                 (A) (A) (A) (A) (A) (A) (A) (A) (A) (A) (A) (A)
                 (A) (A) (A) (A) (A) (A) (A) (A) (A) (A) (A) (A)
                 (A) (A) (A) (A) (A) (A) (A) (A) (A) (A) (A) (A)
                 (A) (A) (A) (A) (A) (A) (A) (A) (A) (A) (A) (A)
                 (A) (A) (A) (A) (A) (A) (A) (A) (A) (A) (A) (A)
                 (A) (A) (A) (A) (A) (A) (A) (A) (A) (A) (A) (A)
                 (A) (A) (A) (A) (A) (A) (A) (A) (A) (A) (A) (A)
                 (A) (A) (A) (A) (A) (A) (A) (A) (A) (A) (A) (A)
                 (A) (A) (A) (A) (A) (A) (A) (A) (A) (A) (A) (A)
                 (A) (A) (A) (A) (A) (A) (A) (A) (A) (A) (A) (A)
                 (A) (A) (A) (A) (A) (A) (A) (A) (A) (A) (A) (A)
                 (A) (A) (A) (A) (A) (A) (A) (A) (A) (A) (A) (A)
                 (A) (A) (A) (A) (A) (A) (A) (A) (A) (A) (A) (A)
                 (A) (A) (A) (A) (A) (A) (A) (A) (A) (A) (A) (A)
                 (A) (A) (A) (A) (A) (A) (A) (A) (A) (A) (A) (A)
                 (A) (A) (A) (A) (A) (A) (A) (A) (A) (A) (A) (A)
                 (A) (A) (A) (A) (A) (A) (A) (A) (A) (A) (A) (A)
                 (A) (A) (A) (A) (A) (A) (A) (A) (A) (A) (A) (A)
                 (A) (A) (A) (A) (A) (A) (A) (A) (A) (A) (A) (A)
                 (A) (A) (A) (A) (A) (A) (A) (A) (A) (A) (A) (A)
                 (A) (A) (A) (A) (A) (A) (A) (A) (A)
 The electronic state is 1-A.
 Alpha  occ. eigenvalues --  -19.72953 -10.71837 -10.66313 -10.65051  -1.19394
 Alpha  occ. eigenvalues --   -0.92697  -0.75348  -0.66478  -0.56757  -0.55490
 Alpha  occ. eigenvalues --   -0.50174  -0.46885  -0.45757  -0.34562  -0.34014
 Alpha virt. eigenvalues --   -0.02085   0.05530   0.06778   0.08144   0.09652
 Alpha virt. eigenvalues --    0.12379   0.13971   0.15284   0.17387   0.19833
 Alpha virt. eigenvalues --    0.19901   0.21292   0.25235   0.26436   0.28620
 Alpha virt. eigenvalues --    0.30786   0.33420   0.34721   0.37428   0.38244
 Alpha virt. eigenvalues --    0.38977   0.40833   0.42057   0.44176   0.46141
 Alpha virt. eigenvalues --    0.46767   0.49368   0.52090   0.53929   0.57195
 Alpha virt. eigenvalues --    0.60155   0.63971   0.66015   0.66605   0.71236
 Alpha virt. eigenvalues --    0.74546   0.76439   0.78185   0.78965   0.80644
 Alpha virt. eigenvalues --    0.81731   0.81947   0.83096   0.84341   0.86349
 Alpha virt. eigenvalues --    0.87936   0.91246   0.92420   0.93140   0.95972
 Alpha virt. eigenvalues --    0.96111   0.96884   1.00459   1.02521   1.06477
 Alpha virt. eigenvalues --    1.09031   1.12124   1.12563   1.16486   1.18715
 Alpha virt. eigenvalues --    1.21936   1.26158   1.26654   1.30894   1.37848
 Alpha virt. eigenvalues --    1.42164   1.47021   1.47516   1.54974   1.55714
 Alpha virt. eigenvalues --    1.60160   1.62290   1.63910   1.64288   1.69833
 Alpha virt. eigenvalues --    1.71430   1.77388   1.78997   1.81424   1.84249
 Alpha virt. eigenvalues --    1.86403   1.90763   1.91686   1.94106   1.94630
 Alpha virt. eigenvalues --    1.95643   1.98840   2.00632   2.01898   2.03911
 Alpha virt. eigenvalues --    2.07371   2.10038   2.11113   2.12590   2.14539
 Alpha virt. eigenvalues --    2.15275   2.17955   2.20474   2.23275   2.23900
 Alpha virt. eigenvalues --    2.29334   2.33919   2.34705   2.39959   2.40810
 Alpha virt. eigenvalues --    2.45053   2.45357   2.47096   2.48844   2.52380
 Alpha virt. eigenvalues --    2.55527   2.57874   2.59186   2.60556   2.62284
 Alpha virt. eigenvalues --    2.64693   2.65944   2.66222   2.68387   2.71683
 Alpha virt. eigenvalues --    2.73787   2.76519   2.84212   2.86156   2.87219
 Alpha virt. eigenvalues --    2.87661   2.94815   2.95079   3.00568   3.04530
 Alpha virt. eigenvalues --    3.13430   3.16299   3.25927   3.27676   3.28566
 Alpha virt. eigenvalues --    3.33490   3.35646   3.40131   3.42127   3.44545
 Alpha virt. eigenvalues --    3.46570   3.48389   3.55766   3.60576   3.62296
 Alpha virt. eigenvalues --    3.64116   3.68340   3.74769   3.80794   3.84528
 Alpha virt. eigenvalues --    3.89575   3.96334   3.98300   4.02490   4.05632
 Alpha virt. eigenvalues --    4.08017   4.17977   4.18747   4.24543   4.31014
 Alpha virt. eigenvalues --    4.35865   4.44089   4.52726   4.61316   4.63118
 Alpha virt. eigenvalues --    4.65624   4.82161   4.87890   4.91609   5.00450
 Alpha virt. eigenvalues --    5.01295   5.03235   5.08638   5.09046   5.13332
 Alpha virt. eigenvalues --    5.21080   5.26305   5.31051   5.33910   5.41722
 Alpha virt. eigenvalues --    5.44615   5.53264   5.56099   5.58164   5.59683
 Alpha virt. eigenvalues --    5.60586   5.66006   5.68509   5.74421   5.76447
 Alpha virt. eigenvalues --    5.79408   5.81543   5.86344   5.90348   5.90815
 Alpha virt. eigenvalues --    5.95505   5.96254   5.99009   6.03541   6.06287
 Alpha virt. eigenvalues --    6.10122   6.11228   6.13673   6.13914   6.16066
 Alpha virt. eigenvalues --    6.17344   6.18921   6.23325   6.26582   6.28327
 Alpha virt. eigenvalues --    6.30827   6.30950   6.33681   6.37248   6.39479
 Alpha virt. eigenvalues --    6.45086   6.46180   6.48676   6.49490   6.56873
 Alpha virt. eigenvalues --    6.57521   6.65286   6.67709   6.71486   6.74927
 Alpha virt. eigenvalues --    6.78945   6.81861   6.87301   6.88971   6.92172
 Alpha virt. eigenvalues --    6.99222   7.03432   7.09772   7.15119   7.18747
 Alpha virt. eigenvalues --    7.26224   7.35933   7.42169   7.44488   7.46625
 Alpha virt. eigenvalues --    7.51255   7.54045   7.59252   7.60537   7.63010
 Alpha virt. eigenvalues --    7.64561   7.67938   7.69266   7.72654   7.74874
 Alpha virt. eigenvalues --    7.79063   7.87420   7.89338   7.95656   8.00324
 Alpha virt. eigenvalues --    8.04587   8.06143   8.11243   8.14794   8.18426
 Alpha virt. eigenvalues --    8.22392   8.24339   8.25532   8.27285   8.31194
 Alpha virt. eigenvalues --    8.31874   8.34729   8.40995   8.44847   8.46935
 Alpha virt. eigenvalues --    8.51833   8.54834   8.57184   8.62076   8.69161
 Alpha virt. eigenvalues --    8.74431   8.78380   8.79477   8.88645   9.04391
 Alpha virt. eigenvalues --    9.07725   9.08466   9.11819   9.15805   9.27651
 Alpha virt. eigenvalues --    9.30517   9.35227   9.48676   9.50896   9.62941
 Alpha virt. eigenvalues --    9.69784   9.73339   9.79855   9.81819   9.85830
 Alpha virt. eigenvalues --    9.91107   9.97609  10.06990  10.15516  10.17750
 Alpha virt. eigenvalues --   10.22866  10.28678  10.51418  10.61653  10.79853
 Alpha virt. eigenvalues --   10.99188  11.17892  11.23182  11.24913  11.32776
 Alpha virt. eigenvalues --   11.66091  11.75683  11.89706  12.03920  12.07825
 Alpha virt. eigenvalues --   12.32687  12.36279  12.49984  12.53282  12.72912
 Alpha virt. eigenvalues --   12.80536  13.35971  13.78666  14.35853  14.68715
 Alpha virt. eigenvalues --   28.49130  28.85325  29.39791  48.65104 148.07180
 Alpha virt. eigenvalues --  148.40758 148.98002 254.41150
          Condensed to atoms (all electrons):
               1          2          3          4          5          6
     1  C    4.496878   0.619780   0.365053  -0.052660  -0.028430  -0.004369
     2  O    0.619780   7.879454  -0.092369   0.006778   0.004168   0.000391
     3  C    0.365053  -0.092369   5.156914   0.475556   0.372419  -0.048004
     4  C   -0.052660   0.006778   0.475556   4.884295  -0.040124   0.418959
     5  H   -0.028430   0.004168   0.372419  -0.040124   0.582478   0.005749
     6  H   -0.004369   0.000391  -0.048004   0.418959   0.005749   0.582183
     7  H    0.002345  -0.000460  -0.027056   0.409539  -0.005809  -0.043233
     8  H    0.445960  -0.070215  -0.168436   0.024744   0.007905   0.005490
               7          8
     1  C    0.002345   0.445960
     2  O   -0.000460  -0.070215
     3  C   -0.027056  -0.168436
     4  C    0.409539   0.024744
     5  H   -0.005809   0.007905
     6  H   -0.043233   0.005490
     7  H    0.568457  -0.000643
     8  H   -0.000643   0.683285
 Mulliken charges:
               1
     1  C    0.155445
     2  O   -0.347528
     3  C   -0.034078
     4  C   -0.127087
     5  H    0.101645
     6  H    0.082834
     7  H    0.096860
     8  H    0.071908
 Sum of Mulliken charges =   0.00000
 Mulliken charges with hydrogens summed into heavy atoms:
               1
     1  C    0.227353
     2  O   -0.347528
     3  C    0.067567
     4  C    0.052608
 Electronic spatial extent (au):  <R**2>=            300.5374
 Charge=              0.0000 electrons
 Dipole moment (field-independent basis, Debye):
    X=             -3.5292    Y=              0.8227    Z=              0.1343  Tot=              3.6263
 Quadrupole moment (field-independent basis, Debye-Ang):
   XX=            -27.3269   YY=            -21.8652   ZZ=            -25.3561
   XY=              0.8510   XZ=             -0.3327   YZ=             -0.1175
 Traceless Quadrupole moment (field-independent basis, Debye-Ang):
   XX=             -2.4775   YY=              2.9842   ZZ=             -0.5067
   XY=              0.8510   XZ=             -0.3327   YZ=             -0.1175
 Octapole moment (field-independent basis, Debye-Ang**2):
  XXX=            -15.7816  YYY=              0.0677  ZZZ=              0.3123  XYY=              0.3381
  XXY=              0.8050  XXZ=              0.5684  XZZ=              4.5214  YZZ=              0.2774
  YYZ=              0.4800  XYZ=              0.0376
 Hexadecapole moment (field-independent basis, Debye-Ang**3):
 XXXX=           -302.7761 YYYY=            -56.1804 ZZZZ=            -27.6971 XXXY=              2.6612
 XXXZ=             -2.1107 YYYX=             -0.6855 YYYZ=             -0.4004 ZZZX=             -0.3303
 ZZZY=             -0.0989 XXYY=            -59.3115 XXZZ=            -58.2683 YYZZ=            -15.7976
 XXYZ=             -0.1543 YYXZ=             -0.3861 ZZXY=             -0.5500
 N-N= 1.027132077498D+02 E-N=-6.533155170421D+02  KE= 1.907974049999D+02
 Leave Link  601 at Wed Aug 26 08:36:22 2020, MaxMem=  2097152000 cpu:         0.8
 (Enter /opt/cluster/programs/g09/g09_d.01/g09/l9999.exe)
 1\1\GINC-NODE26\SP\RB2PLYPD3-FC\def2QZVP\C3H4O1\BOITTIER\26-Aug-2020\0
 \\#p B2PLYPD3/Def2QZVP\\acrolein\\0,1\C,0,-5.008039,-1.37833,0.884873\
 O,0,-3.924708,-0.873658,0.66876\C,0,-5.198823,-2.805924,1.115242\C,0,-
 6.408302,-3.313531,1.403033\H,0,-4.272345,-3.460196,1.209777\H,0,-7.27
 445,-2.694771,1.46208\H,0,-6.60786,-4.416934,1.686266\H,0,-5.954901,-0
 .796888,0.95042\\Version=ES64L-G09RevD.01\State=1-A\HF=-191.6087493\MP
 2=-191.8571398\RMSD=4.338e-09\PG=C01 [X(C3H4O1)]\\@


 NOTHING MAKES A PERSON MORE PRODUCTIVE THAN THE LAST MINUTE.
 Job cpu time:       0 days  0 hours 12 minutes 24.5 seconds.
 File lengths (MBytes):  RWF=     49 Int=      0 D2E=      0 Chk=      7 Scr=      1
 Normal termination of Gaussian 09 at Wed Aug 26 08:36:22 2020.
