 Entering Gaussian System, Link 0=/opt/cluster/programs/g09/g09_d.01/g09//g09
 Input=/home/boittier/MDCM/nms_sampling/butadiene_geom.xyz.dir/energies/butadiene_292_energy.com
 Output=/scratch/boittier/butadiene_292_energy/butadiene_292_energy.out
 Initial command:
 /opt/cluster/programs/g09/g09_d.01/g09/l1.exe "/scratch/boittier/butadiene_292_energy/Gau-133436.inp" -scrdir="/scratch/boittier/butadiene_292_energy/"
 Entering Link 1 = /opt/cluster/programs/g09/g09_d.01/g09/l1.exe PID=    133437.
  
 Copyright (c) 1988,1990,1992,1993,1995,1998,2003,2009,2013,
            Gaussian, Inc.  All Rights Reserved.
  
 This is part of the Gaussian(R) 09 program.  It is based on
 the Gaussian(R) 03 system (copyright 2003, Gaussian, Inc.),
 the Gaussian(R) 98 system (copyright 1998, Gaussian, Inc.),
 the Gaussian(R) 94 system (copyright 1995, Gaussian, Inc.),
 the Gaussian 92(TM) system (copyright 1992, Gaussian, Inc.),
 the Gaussian 90(TM) system (copyright 1990, Gaussian, Inc.),
 the Gaussian 88(TM) system (copyright 1988, Gaussian, Inc.),
 the Gaussian 86(TM) system (copyright 1986, Carnegie Mellon
 University), and the Gaussian 82(TM) system (copyright 1983,
 Carnegie Mellon University). Gaussian is a federally registered
 trademark of Gaussian, Inc.
  
 This software contains proprietary and confidential information,
 including trade secrets, belonging to Gaussian, Inc.
  
 This software is provided under written license and may be
 used, copied, transmitted, or stored only in accord with that
 written license.
  
 The following legend is applicable only to US Government
 contracts under FAR:
  
                    RESTRICTED RIGHTS LEGEND
  
 Use, reproduction and disclosure by the US Government is
 subject to restrictions as set forth in subparagraphs (a)
 and (c) of the Commercial Computer Software - Restricted
 Rights clause in FAR 52.227-19.
  
 Gaussian, Inc.
 340 Quinnipiac St., Bldg. 40, Wallingford CT 06492
  
  
 ---------------------------------------------------------------
 Warning -- This program may not be used in any manner that
 competes with the business of Gaussian, Inc. or will provide
 assistance to any competitor of Gaussian, Inc.  The licensee
 of this program is prohibited from giving any competitor of
 Gaussian, Inc. access to this program.  By using this program,
 the user acknowledges that Gaussian, Inc. is engaged in the
 business of creating and licensing software in the field of
 computational chemistry and represents and warrants to the
 licensee that it is not a competitor of Gaussian, Inc. and that
 it will not use this program in any manner prohibited above.
 ---------------------------------------------------------------
  

 Cite this work as:
 Gaussian 09, Revision D.01,
 M. J. Frisch, G. W. Trucks, H. B. Schlegel, G. E. Scuseria, 
 M. A. Robb, J. R. Cheeseman, G. Scalmani, V. Barone, B. Mennucci, 
 G. A. Petersson, H. Nakatsuji, M. Caricato, X. Li, H. P. Hratchian, 
 A. F. Izmaylov, J. Bloino, G. Zheng, J. L. Sonnenberg, M. Hada, 
 M. Ehara, K. Toyota, R. Fukuda, J. Hasegawa, M. Ishida, T. Nakajima, 
 Y. Honda, O. Kitao, H. Nakai, T. Vreven, J. A. Montgomery, Jr., 
 J. E. Peralta, F. Ogliaro, M. Bearpark, J. J. Heyd, E. Brothers, 
 K. N. Kudin, V. N. Staroverov, T. Keith, R. Kobayashi, J. Normand, 
 K. Raghavachari, A. Rendell, J. C. Burant, S. S. Iyengar, J. Tomasi, 
 M. Cossi, N. Rega, J. M. Millam, M. Klene, J. E. Knox, J. B. Cross, 
 V. Bakken, C. Adamo, J. Jaramillo, R. Gomperts, R. E. Stratmann, 
 O. Yazyev, A. J. Austin, R. Cammi, C. Pomelli, J. W. Ochterski, 
 R. L. Martin, K. Morokuma, V. G. Zakrzewski, G. A. Voth, 
 P. Salvador, J. J. Dannenberg, S. Dapprich, A. D. Daniels, 
 O. Farkas, J. B. Foresman, J. V. Ortiz, J. Cioslowski, 
 and D. J. Fox, Gaussian, Inc., Wallingford CT, 2013.
 
 ******************************************
 Gaussian 09:  ES64L-G09RevD.01 24-Apr-2013
                26-Aug-2020 
 ******************************************
 %chk=/home/boittier/MDCM/nms_sampling/butadiene_geom.xyz.dir/butadiene_292.chk
 %nproc=8
 Will use up to    8 processors via shared memory.
 %mem=16000MB
 --------------------
 #p B2PLYPD3/Def2QZVP
 --------------------
 1/38=1/1;
 2/12=2,17=6,18=5,40=1/2;
 3/5=45,7=101,11=9,16=1,25=1,30=1,74=-60/1,2,3;
 4//1;
 5/5=2,38=5/2;
 8/10=1/1;
 9/16=-3/6;
 6/7=2,8=2,9=2,10=2/1;
 99/5=1,9=1/99;
 Leave Link    1 at Wed Aug 26 16:08:49 2020, MaxMem=  2097152000 cpu:         0.2
 (Enter /opt/cluster/programs/g09/g09_d.01/g09/l101.exe)
 ---------
 butadiene
 ---------
 Symbolic Z-matrix:
 Charge =  0 Multiplicity = 1
 C                    -3.84601   0.2338    0.04115 
 C                    -2.72753  -0.51204   0.02516 
 C                    -1.37881   0.05369  -0.00762 
 C                    -0.25387  -0.63747   0.04661 
 H                    -4.80992  -0.21472   0.00398 
 H                    -3.79815   1.31128  -0.00658 
 H                    -2.80531  -1.59264  -0.02052 
 H                    -1.32913   1.10893  -0.07656 
 H                    -0.31368  -1.72385   0.09855 
 H                     0.71853  -0.17186   0.05146 
 
 NAtoms=     10 NQM=       10 NQMF=       0 NMMI=      0 NMMIF=      0
                NMic=       0 NMicF=      0.
                    Isotopes and Nuclear Properties:
 (Nuclear quadrupole moments (NQMom) in fm**2, nuclear magnetic moments (NMagM)
  in nuclear magnetons)

  Atom         1           2           3           4           5           6           7           8           9          10
 IAtWgt=          12          12          12          12           1           1           1           1           1           1
 AtmWgt=  12.0000000  12.0000000  12.0000000  12.0000000   1.0078250   1.0078250   1.0078250   1.0078250   1.0078250   1.0078250
 NucSpn=           0           0           0           0           1           1           1           1           1           1
 AtZEff=   0.0000000   0.0000000   0.0000000   0.0000000   0.0000000   0.0000000   0.0000000   0.0000000   0.0000000   0.0000000
 NQMom=    0.0000000   0.0000000   0.0000000   0.0000000   0.0000000   0.0000000   0.0000000   0.0000000   0.0000000   0.0000000
 NMagM=    0.0000000   0.0000000   0.0000000   0.0000000   2.7928460   2.7928460   2.7928460   2.7928460   2.7928460   2.7928460
 AtZNuc=   6.0000000   6.0000000   6.0000000   6.0000000   1.0000000   1.0000000   1.0000000   1.0000000   1.0000000   1.0000000
 Leave Link  101 at Wed Aug 26 16:08:49 2020, MaxMem=  2097152000 cpu:         0.5
 (Enter /opt/cluster/programs/g09/g09_d.01/g09/l202.exe)
                          Input orientation:                          
 ---------------------------------------------------------------------
 Center     Atomic      Atomic             Coordinates (Angstroms)
 Number     Number       Type             X           Y           Z
 ---------------------------------------------------------------------
      1          6           0       -3.846011    0.233795    0.041147
      2          6           0       -2.727532   -0.512042    0.025158
      3          6           0       -1.378812    0.053685   -0.007615
      4          6           0       -0.253865   -0.637469    0.046609
      5          1           0       -4.809920   -0.214722    0.003984
      6          1           0       -3.798152    1.311284   -0.006577
      7          1           0       -2.805305   -1.592640   -0.020524
      8          1           0       -1.329129    1.108934   -0.076558
      9          1           0       -0.313680   -1.723852    0.098554
     10          1           0        0.718533   -0.171864    0.051455
 ---------------------------------------------------------------------
                    Distance matrix (angstroms):
                    1          2          3          4          5
     1  C    0.000000
     2  C    1.344442   0.000000
     3  C    2.474245   1.462931   0.000000
     4  C    3.696301   2.476938   1.321416   0.000000
     5  H    1.063799   2.103613   3.441610   4.575824   0.000000
     6  H    1.079607   2.114652   2.726676   4.045051   1.830978
     7  H    2.103030   1.084356   2.178402   2.725198   2.432641
     8  H    2.667287   2.143231   1.058665   2.054577   3.724843
     9  H    4.038940   2.701953   2.074950   1.089268   4.743690
    10  H    4.582546   3.462914   2.110265   1.078132   5.528823
                    6          7          8          9         10
     6  H    0.000000
     7  H    3.068992   0.000000
     8  H    2.478289   3.079081   0.000000
     9  H    4.622191   2.497917   3.014378   0.000000
    10  H    4.754318   3.800160   2.418626   1.864497   0.000000
 Stoichiometry    C4H6
 Framework group  C1[X(C4H6)]
 Deg. of freedom    24
 Full point group                 C1      NOp   1
 Largest Abelian subgroup         C1      NOp   1
 Largest concise Abelian subgroup C1      NOp   1
                         Standard orientation:                         
 ---------------------------------------------------------------------
 Center     Atomic      Atomic             Coordinates (Angstroms)
 Number     Number       Type             X           Y           Z
 ---------------------------------------------------------------------
      1          6           0       -1.844645   -0.122753   -0.028417
      2          6           0       -0.611600    0.411967    0.006182
      3          6           0        0.615147   -0.384898    0.022486
      4          6           0        1.845108    0.096727   -0.014563
      5          1           0       -2.713758    0.488643    0.021668
      6          1           0       -1.988991   -1.192497   -0.009372
      7          1           0       -0.496484    1.487622    0.080624
      8          1           0        0.476467   -1.433645    0.063331
      9          1           0        1.979282    1.177454   -0.037578
     10          1           0        2.719423   -0.533837   -0.032805
 ---------------------------------------------------------------------
 Rotational constants (GHZ):     42.8398218      4.4316882      4.0182530
 Leave Link  202 at Wed Aug 26 16:08:49 2020, MaxMem=  2097152000 cpu:         0.0
 (Enter /opt/cluster/programs/g09/g09_d.01/g09/l301.exe)
 Standard basis: def2QZVP (5D, 7F)
 Ernie: Thresh=  0.10000D-02 Tol=  0.10000D-05 Strict=F.
 There are   498 symmetry adapted cartesian basis functions of A   symmetry.
 There are   408 symmetry adapted basis functions of A   symmetry.
   408 basis functions,   596 primitive gaussians,   498 cartesian basis functions
    15 alpha electrons       15 beta electrons
       nuclear repulsion energy       104.0660934205 Hartrees.
 IExCor=  419 DFT=T Ex+Corr=B2PLYPD3 ExCW=0 ScaHFX=  0.530000
 ScaDFX=  0.470000  0.470000  0.730000  0.730000 ScalE2=  0.270000  0.270000
 IRadAn=      0 IRanWt=     -1 IRanGd=            0 ICorTp=0 IEmpDi=141
 NAtoms=   10 NActive=   10 NUniq=   10 SFac= 1.00D+00 NAtFMM=   60 NAOKFM=F Big=F
 Integral buffers will be    131072 words long.
 Regular integral format.
 Two-electron integral symmetry is turned on.
 R6Disp:  Grimme-D3(BJ) Dispersion energy=       -0.0048374198 Hartrees.
 Nuclear repulsion after empirical dispersion term =      104.0612560006 Hartrees.
 Leave Link  301 at Wed Aug 26 16:08:49 2020, MaxMem=  2097152000 cpu:         0.4
 (Enter /opt/cluster/programs/g09/g09_d.01/g09/l302.exe)
 NPDir=0 NMtPBC=     1 NCelOv=     1 NCel=       1 NClECP=     1 NCelD=      1
         NCelK=      1 NCelE2=     1 NClLst=     1 CellRange=     0.0.
 One-electron integrals computed using PRISM.
   1 Symmetry operations used in ECPInt.
 ECPInt:  NShTT=    8256 NPrTT=   19107 LenC2=    8055 LenP2D=   16110.
 LDataN:  DoStor=T MaxTD1= 8 Len=  415
 NBasis=   408 RedAO= T EigKep=  4.20D-05  NBF=   408
 NBsUse=   408 1.00D-06 EigRej= -1.00D+00 NBFU=   408
 Precomputing XC quadrature grid using
 IXCGrd= 4 IRadAn=           0 IRanWt=          -1 IRanGd=           0 AccXCQ= 0.00D+00.
 Generated NRdTot=       0 NPtTot=           0 NUsed=           0 NTot=          32
 NSgBfM=   498   498   498   498   498 MxSgAt=    10 MxSgA2=    10.
 Leave Link  302 at Wed Aug 26 16:08:50 2020, MaxMem=  2097152000 cpu:         3.1
 (Enter /opt/cluster/programs/g09/g09_d.01/g09/l303.exe)
 DipDrv:  MaxL=1.
 Leave Link  303 at Wed Aug 26 16:08:50 2020, MaxMem=  2097152000 cpu:         0.4
 (Enter /opt/cluster/programs/g09/g09_d.01/g09/l401.exe)
 ExpMin= 7.60D-02 ExpMax= 6.70D+04 ExpMxC= 6.47D+02 IAcc=2 IRadAn=         4 AccDes= 0.00D+00
 Harris functional with IExCor=  419 and IRadAn=       4 diagonalized for initial guess.
 HarFok:  IExCor=  419 AccDes= 0.00D+00 IRadAn=         4 IDoV= 1 UseB2=F ITyADJ=14
 ICtDFT=  3500011 ScaDFX=  1.000000  1.000000  1.000000  1.000000
 FoFCou: FMM=F IPFlag=           0 FMFlag=      100000 FMFlg1=           0
         NFxFlg=           0 DoJE=T BraDBF=F KetDBF=T FulRan=T
         wScrn=  0.000000 ICntrl=     500 IOpCl=  0 I1Cent=   200000004 NGrid=           0
         NMat0=    1 NMatS0=      1 NMatT0=    0 NMatD0=    1 NMtDS0=    0 NMtDT0=    0
 Petite list used in FoFCou.
 Harris En= -156.139087700953    
 JPrj=0 DoOrth=F DoCkMO=F.
 Leave Link  401 at Wed Aug 26 16:08:52 2020, MaxMem=  2097152000 cpu:         8.3
 (Enter /opt/cluster/programs/g09/g09_d.01/g09/l502.exe)
 Closed shell SCF:
 Using DIIS extrapolation, IDIIS=  1040.
 Integral symmetry usage will be decided dynamically.
 IVT=      770090 IEndB=      770090 NGot=  2097152000 MDV=  2096647053
 LenX=  2096647053 LenY=  2096398551
 Requested convergence on RMS density matrix=1.00D-08 within 128 cycles.
 Requested convergence on MAX density matrix=1.00D-06.
 Requested convergence on             energy=1.00D-06.
 No special actions if energy rises.
 Fock matrices will be formed incrementally for  20 cycles.
 Integral accuracy reduced to 1.0D-05 until final iterations.

 Cycle   1  Pass 0  IDiag  1:
 FoFJK:  IHMeth= 1 ICntrl=       0 DoSepK=F KAlg= 0 I1Cent=   0 FoldK=F
 IRaf= 940000000 NMat=   1 IRICut=       1 DoRegI=T DoRafI=F ISym2E= 0.
 FoFCou: FMM=F IPFlag=           0 FMFlag=      100000 FMFlg1=           0
         NFxFlg=           0 DoJE=F BraDBF=F KetDBF=F FulRan=T
         wScrn=  0.000000 ICntrl=       0 IOpCl=  0 I1Cent=           0 NGrid=           0
         NMat0=    1 NMatS0=      1 NMatT0=    0 NMatD0=    1 NMtDS0=    0 NMtDT0=    0
 Symmetry not used in FoFCou.
 E= -155.510956107470    
 DIIS: error= 3.55D-02 at cycle   1 NSaved=   1.
 NSaved= 1 IEnMin= 1 EnMin= -155.510956107470     IErMin= 1 ErrMin= 3.55D-02
 ErrMax= 3.55D-02  0.00D+00 EMaxC= 1.00D-01 BMatC= 2.56D-01 BMatP= 2.56D-01
 IDIUse=3 WtCom= 6.45D-01 WtEn= 3.55D-01
 Coeff-Com:  0.100D+01
 Coeff-En:   0.100D+01
 Coeff:      0.100D+01
 Gap=     0.301 Goal=   None    Shift=    0.000
 GapD=    0.301 DampG=1.000 DampE=0.500 DampFc=0.5000 IDamp=-1.
 Damping current iteration by 5.00D-01
 RMSDP=9.48D-04 MaxDP=5.09D-02              OVMax= 1.94D-01

 Cycle   2  Pass 0  IDiag  1:
 RMSU=  4.35D-04    CP:  9.50D-01
 E= -155.611606640734     Delta-E=       -0.100650533264 Rises=F Damp=T
 DIIS: error= 9.86D-03 at cycle   2 NSaved=   2.
 NSaved= 2 IEnMin= 2 EnMin= -155.611606640734     IErMin= 2 ErrMin= 9.86D-03
 ErrMax= 9.86D-03  0.00D+00 EMaxC= 1.00D-01 BMatC= 3.00D-02 BMatP= 2.56D-01
 IDIUse=3 WtCom= 9.01D-01 WtEn= 9.86D-02
 Coeff-Com: -0.303D+00 0.130D+01
 Coeff-En:   0.000D+00 0.100D+01
 Coeff:     -0.273D+00 0.127D+01
 Gap=     0.358 Goal=   None    Shift=    0.000
 RMSDP=2.61D-04 MaxDP=7.89D-03 DE=-1.01D-01 OVMax= 9.29D-02

 Cycle   3  Pass 0  IDiag  1:
 RMSU=  2.49D-04    CP:  9.33D-01  1.10D+00
 E= -155.698442449114     Delta-E=       -0.086835808380 Rises=F Damp=F
 DIIS: error= 4.30D-03 at cycle   3 NSaved=   3.
 NSaved= 3 IEnMin= 3 EnMin= -155.698442449114     IErMin= 3 ErrMin= 4.30D-03
 ErrMax= 4.30D-03  0.00D+00 EMaxC= 1.00D-01 BMatC= 1.78D-03 BMatP= 3.00D-02
 IDIUse=3 WtCom= 9.57D-01 WtEn= 4.30D-02
 Coeff-Com: -0.111D+00 0.217D+00 0.893D+00
 Coeff-En:   0.000D+00 0.000D+00 0.100D+01
 Coeff:     -0.106D+00 0.208D+00 0.898D+00
 Gap=     0.296 Goal=   None    Shift=    0.000
 RMSDP=6.68D-05 MaxDP=3.88D-03 DE=-8.68D-02 OVMax= 2.13D-02

 Cycle   4  Pass 0  IDiag  1:
 RMSU=  4.75D-05    CP:  9.29D-01  1.20D+00  9.34D-01
 E= -155.699867526401     Delta-E=       -0.001425077286 Rises=F Damp=F
 DIIS: error= 2.59D-03 at cycle   4 NSaved=   4.
 NSaved= 4 IEnMin= 4 EnMin= -155.699867526401     IErMin= 4 ErrMin= 2.59D-03
 ErrMax= 2.59D-03  0.00D+00 EMaxC= 1.00D-01 BMatC= 5.00D-04 BMatP= 1.78D-03
 IDIUse=3 WtCom= 9.74D-01 WtEn= 2.59D-02
 Coeff-Com: -0.504D-01 0.830D-01 0.469D+00 0.498D+00
 Coeff-En:   0.000D+00 0.000D+00 0.855D-01 0.915D+00
 Coeff:     -0.491D-01 0.808D-01 0.459D+00 0.509D+00
 Gap=     0.296 Goal=   None    Shift=    0.000
 RMSDP=2.61D-05 MaxDP=1.32D-03 DE=-1.43D-03 OVMax= 8.26D-03

 Cycle   5  Pass 0  IDiag  1:
 RMSU=  1.51D-05    CP:  9.29D-01  1.19D+00  9.73D-01  6.04D-01
 E= -155.700347984246     Delta-E=       -0.000480457846 Rises=F Damp=F
 DIIS: error= 2.95D-04 at cycle   5 NSaved=   5.
 NSaved= 5 IEnMin= 5 EnMin= -155.700347984246     IErMin= 5 ErrMin= 2.95D-04
 ErrMax= 2.95D-04  0.00D+00 EMaxC= 1.00D-01 BMatC= 5.51D-06 BMatP= 5.00D-04
 IDIUse=3 WtCom= 9.97D-01 WtEn= 2.95D-03
 Coeff-Com: -0.344D-02 0.342D-02 0.414D-01 0.116D+00 0.843D+00
 Coeff-En:   0.000D+00 0.000D+00 0.000D+00 0.000D+00 0.100D+01
 Coeff:     -0.343D-02 0.341D-02 0.413D-01 0.115D+00 0.843D+00
 Gap=     0.296 Goal=   None    Shift=    0.000
 RMSDP=3.76D-06 MaxDP=1.38D-04 DE=-4.80D-04 OVMax= 1.26D-03

 Initial convergence to 1.0D-05 achieved.  Increase integral accuracy.
 Cycle   6  Pass 1  IDiag  1:
 E= -155.700375156640     Delta-E=       -0.000027172394 Rises=F Damp=F
 DIIS: error= 5.61D-05 at cycle   1 NSaved=   1.
 NSaved= 1 IEnMin= 1 EnMin= -155.700375156640     IErMin= 1 ErrMin= 5.61D-05
 ErrMax= 5.61D-05  0.00D+00 EMaxC= 1.00D-01 BMatC= 5.25D-07 BMatP= 5.25D-07
 IDIUse=1 WtCom= 1.00D+00 WtEn= 0.00D+00
 Coeff-Com:  0.100D+01
 Coeff:      0.100D+01
 Gap=     0.296 Goal=   None    Shift=    0.000
 RMSDP=3.76D-06 MaxDP=1.38D-04 DE=-2.72D-05 OVMax= 3.37D-04

 Cycle   7  Pass 1  IDiag  1:
 RMSU=  1.65D-05    CP:  1.00D+00
 E= -155.700375476601     Delta-E=       -0.000000319961 Rises=F Damp=F
 DIIS: error= 2.75D-05 at cycle   2 NSaved=   2.
 NSaved= 2 IEnMin= 2 EnMin= -155.700375476601     IErMin= 2 ErrMin= 2.75D-05
 ErrMax= 2.75D-05  0.00D+00 EMaxC= 1.00D-01 BMatC= 7.86D-08 BMatP= 5.25D-07
 IDIUse=1 WtCom= 1.00D+00 WtEn= 0.00D+00
 Coeff-Com:  0.190D+00 0.810D+00
 Coeff:      0.190D+00 0.810D+00
 Gap=     0.296 Goal=   None    Shift=    0.000
 RMSDP=7.42D-07 MaxDP=3.01D-05 DE=-3.20D-07 OVMax= 1.61D-04

 Cycle   8  Pass 1  IDiag  1:
 RMSU=  5.84D-07    CP:  1.00D+00  1.03D+00
 E= -155.700375524322     Delta-E=       -0.000000047722 Rises=F Damp=F
 DIIS: error= 1.50D-05 at cycle   3 NSaved=   3.
 NSaved= 3 IEnMin= 3 EnMin= -155.700375524322     IErMin= 3 ErrMin= 1.50D-05
 ErrMax= 1.50D-05  0.00D+00 EMaxC= 1.00D-01 BMatC= 3.53D-08 BMatP= 7.86D-08
 IDIUse=1 WtCom= 1.00D+00 WtEn= 0.00D+00
 Coeff-Com: -0.130D-01 0.395D+00 0.618D+00
 Coeff:     -0.130D-01 0.395D+00 0.618D+00
 Gap=     0.296 Goal=   None    Shift=    0.000
 RMSDP=2.87D-07 MaxDP=1.52D-05 DE=-4.77D-08 OVMax= 9.87D-05

 Cycle   9  Pass 1  IDiag  1:
 RMSU=  2.28D-07    CP:  1.00D+00  1.04D+00  8.33D-01
 E= -155.700375558969     Delta-E=       -0.000000034647 Rises=F Damp=F
 DIIS: error= 3.72D-06 at cycle   4 NSaved=   4.
 NSaved= 4 IEnMin= 4 EnMin= -155.700375558969     IErMin= 4 ErrMin= 3.72D-06
 ErrMax= 3.72D-06  0.00D+00 EMaxC= 1.00D-01 BMatC= 7.73D-10 BMatP= 3.53D-08
 IDIUse=1 WtCom= 1.00D+00 WtEn= 0.00D+00
 Coeff-Com: -0.111D-01 0.896D-01 0.194D+00 0.727D+00
 Coeff:     -0.111D-01 0.896D-01 0.194D+00 0.727D+00
 Gap=     0.296 Goal=   None    Shift=    0.000
 RMSDP=5.71D-08 MaxDP=2.10D-06 DE=-3.46D-08 OVMax= 1.75D-05

 Cycle  10  Pass 1  IDiag  1:
 RMSU=  4.82D-08    CP:  1.00D+00  1.04D+00  8.73D-01  1.05D+00
 E= -155.700375559962     Delta-E=       -0.000000000993 Rises=F Damp=F
 DIIS: error= 1.03D-06 at cycle   5 NSaved=   5.
 NSaved= 5 IEnMin= 5 EnMin= -155.700375559962     IErMin= 5 ErrMin= 1.03D-06
 ErrMax= 1.03D-06  0.00D+00 EMaxC= 1.00D-01 BMatC= 1.03D-10 BMatP= 7.73D-10
 IDIUse=1 WtCom= 1.00D+00 WtEn= 0.00D+00
 Coeff-Com: -0.108D-02-0.391D-01-0.433D-01 0.216D+00 0.867D+00
 Coeff:     -0.108D-02-0.391D-01-0.433D-01 0.216D+00 0.867D+00
 Gap=     0.296 Goal=   None    Shift=    0.000
 RMSDP=2.83D-08 MaxDP=1.71D-06 DE=-9.93D-10 OVMax= 8.56D-06

 Cycle  11  Pass 1  IDiag  1:
 RMSU=  1.86D-08    CP:  1.00D+00  1.04D+00  8.87D-01  1.14D+00  1.06D+00
 E= -155.700375560137     Delta-E=       -0.000000000175 Rises=F Damp=F
 DIIS: error= 3.26D-07 at cycle   6 NSaved=   6.
 NSaved= 6 IEnMin= 6 EnMin= -155.700375560137     IErMin= 6 ErrMin= 3.26D-07
 ErrMax= 3.26D-07  0.00D+00 EMaxC= 1.00D-01 BMatC= 5.70D-12 BMatP= 1.03D-10
 IDIUse=1 WtCom= 1.00D+00 WtEn= 0.00D+00
 Coeff-Com:  0.594D-03-0.192D-01-0.279D-01 0.837D-02 0.255D+00 0.784D+00
 Coeff:      0.594D-03-0.192D-01-0.279D-01 0.837D-02 0.255D+00 0.784D+00
 Gap=     0.296 Goal=   None    Shift=    0.000
 RMSDP=5.89D-09 MaxDP=1.77D-07 DE=-1.75D-10 OVMax= 2.10D-06

 SCF Done:  E(RB2PLYPD3) =  -155.700375560     A.U. after   11 cycles
            NFock= 11  Conv=0.59D-08     -V/T= 2.0033
 KE= 1.551880097668D+02 PE=-5.690960972982D+02 EE= 1.541464559706D+02
 Leave Link  502 at Wed Aug 26 16:11:31 2020, MaxMem=  2097152000 cpu:      1274.3
 (Enter /opt/cluster/programs/g09/g09_d.01/g09/l801.exe)
 DoSCS=T DFT=T ScalE2(SS,OS)=  0.270000  0.270000
 ExpMin= 7.60D-02 ExpMax= 6.70D+04 ExpMxC= 6.47D+02 IAcc=3 IRadAn=         5 AccDes= 0.00D+00
 HarFok:  IExCor=  205 AccDes= 0.00D+00 IRadAn=         5 IDoV=-2 UseB2=F ITyADJ=14
 ICtDFT= 12500011 ScaDFX=  1.000000  1.000000  1.000000  1.000000
 Largest valence mixing into a core orbital is  1.10D-04
 Largest core mixing into a valence orbital is  1.98D-05
 Range of M.O.s used for correlation:     5   408
 NBasis=   408 NAE=    15 NBE=    15 NFC=     4 NFV=     0
 NROrb=    404 NOA=    11 NOB=    11 NVA=   393 NVB=   393

 **** Warning!!: The largest alpha MO coefficient is  0.27705723D+02

 Leave Link  801 at Wed Aug 26 16:11:32 2020, MaxMem=  2097152000 cpu:         0.9
 (Enter /opt/cluster/programs/g09/g09_d.01/g09/l906.exe)
 DoSCS=T DFT=T ScalE2(SS,OS)=  0.270000  0.270000
 FulOut=F Deriv=F AODrv=F NAtomX=    10
   MMem=         881  MDisk=          11 MDiskD=          11
  W3Min=     2152854 MinDsk=     3857222 NBas6D=         498
 NBas2D=      125763    NTT=      124251    LW2=     4508827
    MDV=  2096382378 MDiskM=        9345 NBas2p=      117513
 Fully direct method using O(OVN) memory.
 IMap=   1   2   3   4   5   6   7   8   9  10  11
 JobTyp=1 Pass  1:  I=   1 to  11 NPSUse=  8 ParTrn=T ParDer=T DoDerP=F.
 Spin components of T(2) and E(2):
     alpha-alpha T2 =       0.4175223013D-01 E2=     -0.2536389581D-01
     alpha-beta  T2 =       0.2699532813D+00 E2=     -0.1746086003D+00
     beta-beta   T2 =       0.4175223013D-01 E2=     -0.2536389581D-01
 The integrals were generated   1 times.
 E2(B2PLYPD3) =    -0.2253363919D+00 E(B2PLYPD3) =    -0.15592571195202D+03
 Leave Link  906 at Wed Aug 26 16:13:25 2020, MaxMem=  2097152000 cpu:       900.8
 (Enter /opt/cluster/programs/g09/g09_d.01/g09/l601.exe)
 Copying SCF densities to generalized density rwf, IOpCl= 0 IROHF=0.

 **********************************************************************

            Population analysis using the SCF density.

 **********************************************************************

 Orbital symmetries:
       Occupied  (A) (A) (A) (A) (A) (A) (A) (A) (A) (A) (A) (A)
                 (A) (A) (A)
       Virtual   (A) (A) (A) (A) (A) (A) (A) (A) (A) (A) (A) (A)
                 (A) (A) (A) (A) (A) (A) (A) (A) (A) (A) (A) (A)
                 (A) (A) (A) (A) (A) (A) (A) (A) (A) (A) (A) (A)
                 (A) (A) (A) (A) (A) (A) (A) (A) (A) (A) (A) (A)
                 (A) (A) (A) (A) (A) (A) (A) (A) (A) (A) (A) (A)
                 (A) (A) (A) (A) (A) (A) (A) (A) (A) (A) (A) (A)
                 (A) (A) (A) (A) (A) (A) (A) (A) (A) (A) (A) (A)
                 (A) (A) (A) (A) (A) (A) (A) (A) (A) (A) (A) (A)
                 (A) (A) (A) (A) (A) (A) (A) (A) (A) (A) (A) (A)
                 (A) (A) (A) (A) (A) (A) (A) (A) (A) (A) (A) (A)
                 (A) (A) (A) (A) (A) (A) (A) (A) (A) (A) (A) (A)
                 (A) (A) (A) (A) (A) (A) (A) (A) (A) (A) (A) (A)
                 (A) (A) (A) (A) (A) (A) (A) (A) (A) (A) (A) (A)
                 (A) (A) (A) (A) (A) (A) (A) (A) (A) (A) (A) (A)
                 (A) (A) (A) (A) (A) (A) (A) (A) (A) (A) (A) (A)
                 (A) (A) (A) (A) (A) (A) (A) (A) (A) (A) (A) (A)
                 (A) (A) (A) (A) (A) (A) (A) (A) (A) (A) (A) (A)
                 (A) (A) (A) (A) (A) (A) (A) (A) (A) (A) (A) (A)
                 (A) (A) (A) (A) (A) (A) (A) (A) (A) (A) (A) (A)
                 (A) (A) (A) (A) (A) (A) (A) (A) (A) (A) (A) (A)
                 (A) (A) (A) (A) (A) (A) (A) (A) (A) (A) (A) (A)
                 (A) (A) (A) (A) (A) (A) (A) (A) (A) (A) (A) (A)
                 (A) (A) (A) (A) (A) (A) (A) (A) (A) (A) (A) (A)
                 (A) (A) (A) (A) (A) (A) (A) (A) (A) (A) (A) (A)
                 (A) (A) (A) (A) (A) (A) (A) (A) (A) (A) (A) (A)
                 (A) (A) (A) (A) (A) (A) (A) (A) (A) (A) (A) (A)
                 (A) (A) (A) (A) (A) (A) (A) (A) (A) (A) (A) (A)
                 (A) (A) (A) (A) (A) (A) (A) (A) (A) (A) (A) (A)
                 (A) (A) (A) (A) (A) (A) (A) (A) (A) (A) (A) (A)
                 (A) (A) (A) (A) (A) (A) (A) (A) (A) (A) (A) (A)
                 (A) (A) (A) (A) (A) (A) (A) (A) (A) (A) (A) (A)
                 (A) (A) (A) (A) (A) (A) (A) (A) (A) (A) (A) (A)
                 (A) (A) (A) (A) (A) (A) (A) (A) (A)
 The electronic state is 1-A.
 Alpha  occ. eigenvalues --  -10.62743 -10.62015 -10.61475 -10.61310  -0.92954
 Alpha  occ. eigenvalues --   -0.85102  -0.70193  -0.64316  -0.54780  -0.54030
 Alpha  occ. eigenvalues --   -0.47000  -0.45679  -0.41194  -0.37953  -0.27828
 Alpha virt. eigenvalues --    0.01802   0.07029   0.07498   0.08120   0.09634
 Alpha virt. eigenvalues --    0.11687   0.12504   0.14652   0.15868   0.16164
 Alpha virt. eigenvalues --    0.18852   0.20521   0.21499   0.22899   0.23910
 Alpha virt. eigenvalues --    0.26779   0.27087   0.29295   0.31977   0.35288
 Alpha virt. eigenvalues --    0.35991   0.36825   0.37621   0.38389   0.40483
 Alpha virt. eigenvalues --    0.43135   0.43551   0.44832   0.47265   0.47789
 Alpha virt. eigenvalues --    0.48747   0.50141   0.51861   0.55491   0.57569
 Alpha virt. eigenvalues --    0.58098   0.61250   0.64492   0.66828   0.68129
 Alpha virt. eigenvalues --    0.69031   0.71728   0.77063   0.77265   0.79085
 Alpha virt. eigenvalues --    0.79780   0.80721   0.81617   0.82467   0.84391
 Alpha virt. eigenvalues --    0.84645   0.85979   0.86552   0.87125   0.90983
 Alpha virt. eigenvalues --    0.92436   0.93463   0.94565   0.96044   0.96411
 Alpha virt. eigenvalues --    0.98876   0.99252   0.99996   1.03145   1.04824
 Alpha virt. eigenvalues --    1.05868   1.09238   1.10485   1.11596   1.12534
 Alpha virt. eigenvalues --    1.13692   1.17192   1.19845   1.21863   1.23967
 Alpha virt. eigenvalues --    1.24808   1.26688   1.34221   1.34591   1.36283
 Alpha virt. eigenvalues --    1.37674   1.41192   1.47866   1.62765   1.64677
 Alpha virt. eigenvalues --    1.67028   1.67463   1.69663   1.72353   1.73037
 Alpha virt. eigenvalues --    1.75273   1.80249   1.82805   1.84667   1.87103
 Alpha virt. eigenvalues --    1.89827   1.90872   1.91295   1.92962   1.94298
 Alpha virt. eigenvalues --    1.95154   1.98810   2.00146   2.01261   2.01750
 Alpha virt. eigenvalues --    2.03705   2.05585   2.06875   2.08401   2.09729
 Alpha virt. eigenvalues --    2.10543   2.11528   2.14419   2.17802   2.19031
 Alpha virt. eigenvalues --    2.19898   2.21688   2.23058   2.25561   2.29150
 Alpha virt. eigenvalues --    2.30630   2.32746   2.33533   2.38445   2.42547
 Alpha virt. eigenvalues --    2.44655   2.45690   2.46283   2.47702   2.50061
 Alpha virt. eigenvalues --    2.52828   2.54357   2.56958   2.57445   2.58204
 Alpha virt. eigenvalues --    2.59784   2.62519   2.64411   2.64620   2.65344
 Alpha virt. eigenvalues --    2.67746   2.69999   2.70563   2.71281   2.72049
 Alpha virt. eigenvalues --    2.73169   2.75475   2.76539   2.78997   2.79520
 Alpha virt. eigenvalues --    2.81083   2.88973   2.91377   2.91994   2.93137
 Alpha virt. eigenvalues --    2.95601   3.03391   3.05576   3.08866   3.11770
 Alpha virt. eigenvalues --    3.13786   3.15743   3.25812   3.35215   3.37421
 Alpha virt. eigenvalues --    3.38311   3.40035   3.43985   3.47030   3.48310
 Alpha virt. eigenvalues --    3.49809   3.50311   3.53554   3.56478   3.60446
 Alpha virt. eigenvalues --    3.61715   3.63944   3.64737   3.70489   3.78484
 Alpha virt. eigenvalues --    3.79597   3.82983   3.88540   3.91600   3.93419
 Alpha virt. eigenvalues --    3.96435   3.97518   4.01781   4.07074   4.14980
 Alpha virt. eigenvalues --    4.17198   4.19020   4.22030   4.26963   4.46091
 Alpha virt. eigenvalues --    4.54711   4.57429   4.59464   4.86234   5.00259
 Alpha virt. eigenvalues --    5.01129   5.04815   5.06105   5.06701   5.07701
 Alpha virt. eigenvalues --    5.12819   5.18338   5.20331   5.28267   5.30878
 Alpha virt. eigenvalues --    5.33271   5.39771   5.40832   5.45495   5.49758
 Alpha virt. eigenvalues --    5.52334   5.55002   5.58426   5.59124   5.61736
 Alpha virt. eigenvalues --    5.66140   5.68901   5.75435   5.75565   5.76537
 Alpha virt. eigenvalues --    5.78904   5.81263   5.84490   5.85282   5.86982
 Alpha virt. eigenvalues --    5.89639   5.90670   5.99547   6.00490   6.03839
 Alpha virt. eigenvalues --    6.05730   6.07459   6.08727   6.10582   6.12534
 Alpha virt. eigenvalues --    6.14527   6.15933   6.17018   6.19425   6.20521
 Alpha virt. eigenvalues --    6.23737   6.24004   6.29808   6.32303   6.35828
 Alpha virt. eigenvalues --    6.36169   6.37582   6.38662   6.38781   6.38900
 Alpha virt. eigenvalues --    6.41297   6.42451   6.43110   6.53802   6.54236
 Alpha virt. eigenvalues --    6.55300   6.56581   6.58563   6.60075   6.63005
 Alpha virt. eigenvalues --    6.65866   6.67690   6.70859   6.72187   6.78754
 Alpha virt. eigenvalues --    6.82664   6.86680   6.88023   6.92585   6.93806
 Alpha virt. eigenvalues --    6.95416   6.98093   7.02080   7.07290   7.10540
 Alpha virt. eigenvalues --    7.14602   7.16488   7.18012   7.22050   7.22544
 Alpha virt. eigenvalues --    7.26375   7.28517   7.37049   7.37959   7.42585
 Alpha virt. eigenvalues --    7.47139   7.49832   7.56961   7.59781   7.60557
 Alpha virt. eigenvalues --    7.63888   7.65327   7.66822   7.67679   7.68127
 Alpha virt. eigenvalues --    7.70797   7.73921   7.76925   7.77570   7.79253
 Alpha virt. eigenvalues --    7.82113   7.84383   7.86651   7.92260   7.92924
 Alpha virt. eigenvalues --    7.95502   7.97278   8.07498   8.09771   8.13720
 Alpha virt. eigenvalues --    8.14683   8.16912   8.18121   8.20264   8.23709
 Alpha virt. eigenvalues --    8.29427   8.32678   8.33922   8.35426   8.36376
 Alpha virt. eigenvalues --    8.37413   8.37677   8.39092   8.42621   8.47173
 Alpha virt. eigenvalues --    8.48214   8.51895   8.56709   8.57528   8.58288
 Alpha virt. eigenvalues --    8.59127   8.61430   8.65012   8.68909   8.71599
 Alpha virt. eigenvalues --    8.75181   8.78486   8.81947   8.84074   8.84967
 Alpha virt. eigenvalues --    8.90463   8.93893   8.96370   9.06317   9.16667
 Alpha virt. eigenvalues --    9.25724   9.26277   9.32272   9.39893   9.48525
 Alpha virt. eigenvalues --    9.59241   9.66741   9.77976   9.85710   9.89074
 Alpha virt. eigenvalues --    9.96150   9.97570  10.00373  10.02456  10.05033
 Alpha virt. eigenvalues --   10.07383  10.10831  10.32120  10.35385  10.37956
 Alpha virt. eigenvalues --   10.42188  10.48851  10.61701  10.69136  10.86111
 Alpha virt. eigenvalues --   11.04944  11.15552  11.50063  11.73662  11.82421
 Alpha virt. eigenvalues --   11.92281  12.90212  13.07597  13.24288  13.24449
 Alpha virt. eigenvalues --   28.68291  28.79451  29.49765  29.68419 148.27951
 Alpha virt. eigenvalues --  148.37810 149.09552 149.29858
          Condensed to atoms (all electrons):
               1          2          3          4          5          6
     1  C    4.834766   0.620234  -0.078943  -0.001963   0.425784   0.425745
     2  C    0.620234   4.842253   0.400740  -0.077769  -0.046216  -0.045953
     3  C   -0.078943   0.400740   4.834441   0.615277   0.007403  -0.007389
     4  C   -0.001963  -0.077769   0.615277   4.839368  -0.000612   0.000276
     5  H    0.425784  -0.046216   0.007403  -0.000612   0.580475  -0.044959
     6  H    0.425745  -0.045953  -0.007389   0.000276  -0.044959   0.594344
     7  H   -0.047980   0.408518  -0.059375  -0.000674  -0.008788   0.007499
     8  H   -0.001039  -0.063922   0.411132  -0.052049  -0.000056   0.004417
     9  H    0.000301  -0.008496  -0.051734   0.425664  -0.000036   0.000052
    10  H   -0.000617   0.007257  -0.045246   0.427134   0.000024  -0.000037
               7          8          9         10
     1  C   -0.047980  -0.001039   0.000301  -0.000617
     2  C    0.408518  -0.063922  -0.008496   0.007257
     3  C   -0.059375   0.411132  -0.051734  -0.045246
     4  C   -0.000674  -0.052049   0.425664   0.427134
     5  H   -0.008788  -0.000056  -0.000036   0.000024
     6  H    0.007499   0.004417   0.000052  -0.000037
     7  H    0.634146   0.006996   0.004982  -0.000172
     8  H    0.006996   0.640212   0.008633  -0.009649
     9  H    0.004982   0.008633   0.602332  -0.043192
    10  H   -0.000172  -0.009649  -0.043192   0.575258
 Mulliken charges:
               1
     1  C   -0.176288
     2  C   -0.036646
     3  C   -0.026306
     4  C   -0.174655
     5  H    0.086982
     6  H    0.066005
     7  H    0.054848
     8  H    0.055326
     9  H    0.061493
    10  H    0.089241
 Sum of Mulliken charges =   0.00000
 Mulliken charges with hydrogens summed into heavy atoms:
               1
     1  C   -0.023301
     2  C    0.018202
     3  C    0.029020
     4  C   -0.023921
 Electronic spatial extent (au):  <R**2>=            335.3634
 Charge=              0.0000 electrons
 Dipole moment (field-independent basis, Debye):
    X=             -0.0155    Y=             -0.0235    Z=              0.0989  Tot=              0.1028
 Quadrupole moment (field-independent basis, Debye-Ang):
   XX=            -23.3883   YY=            -23.1425   ZZ=            -29.2138
   XY=              0.0125   XZ=             -0.2527   YZ=              0.0361
 Traceless Quadrupole moment (field-independent basis, Debye-Ang):
   XX=              1.8599   YY=              2.1057   ZZ=             -3.9656
   XY=              0.0125   XZ=             -0.2527   YZ=              0.0361
 Octapole moment (field-independent basis, Debye-Ang**2):
  XXX=             -0.0737  YYY=             -0.0080  ZZZ=              0.1998  XYY=             -0.0910
  XXY=             -0.5243  XXZ=              0.0885  XZZ=              0.0673  YZZ=             -0.0528
  YYZ=              0.3357  XYZ=             -0.1284
 Hexadecapole moment (field-independent basis, Debye-Ang**3):
 XXXX=           -343.6133 YYYY=            -64.8121 ZZZZ=            -36.7615 XXXY=             -7.1241
 XXXZ=             -2.0041 YYYX=              1.6790 YYYZ=              0.0965 ZZZX=             -0.4441
 ZZZY=              0.0405 XXYY=            -68.5168 XXZZ=            -77.1288 YYZZ=            -19.0350
 XXYZ=              0.1358 YYXZ=             -0.3182 ZZXY=              0.3461
 N-N= 1.040612560006D+02 E-N=-5.690960903487D+02  KE= 1.551880097668D+02
 Leave Link  601 at Wed Aug 26 16:13:25 2020, MaxMem=  2097152000 cpu:         0.8
 (Enter /opt/cluster/programs/g09/g09_d.01/g09/l9999.exe)
 1\1\GINC-NODE21\SP\RB2PLYPD3-FC\def2QZVP\C4H6\BOITTIER\26-Aug-2020\0\\
 #p B2PLYPD3/Def2QZVP\\butadiene\\0,1\C,0,-3.846011,0.233795,0.041147\C
 ,0,-2.727532,-0.512042,0.025158\C,0,-1.378812,0.053685,-0.007615\C,0,-
 0.253865,-0.637469,0.046609\H,0,-4.80992,-0.214722,0.003984\H,0,-3.798
 152,1.311284,-0.006577\H,0,-2.805305,-1.59264,-0.020524\H,0,-1.329129,
 1.108934,-0.076558\H,0,-0.31368,-1.723852,0.098554\H,0,0.718533,-0.171
 864,0.051455\\Version=ES64L-G09RevD.01\State=1-A\HF=-155.7003756\MP2=-
 155.925712\RMSD=5.891e-09\PG=C01 [X(C4H6)]\\@


 WHEN ALL ELSE FAILS, TRY THE BOSS'S SUGGESTION.
 Job cpu time:       0 days  0 hours 36 minutes 30.5 seconds.
 File lengths (MBytes):  RWF=     92 Int=      0 D2E=      0 Chk=      9 Scr=      1
 Normal termination of Gaussian 09 at Wed Aug 26 16:13:25 2020.
