 Entering Gaussian System, Link 0=/opt/cluster/programs/g09/g09_d.01/g09//g09
 Input=/home/boittier/MDCM/nms_sampling/butadiene_geom.xyz.dir/energies/butadiene_1445_energy.com
 Output=/scratch/boittier/butadiene_1445_energy/butadiene_1445_energy.out
 Initial command:
 /opt/cluster/programs/g09/g09_d.01/g09/l1.exe "/scratch/boittier/butadiene_1445_energy/Gau-83581.inp" -scrdir="/scratch/boittier/butadiene_1445_energy/"
 Entering Link 1 = /opt/cluster/programs/g09/g09_d.01/g09/l1.exe PID=     83582.
  
 Copyright (c) 1988,1990,1992,1993,1995,1998,2003,2009,2013,
            Gaussian, Inc.  All Rights Reserved.
  
 This is part of the Gaussian(R) 09 program.  It is based on
 the Gaussian(R) 03 system (copyright 2003, Gaussian, Inc.),
 the Gaussian(R) 98 system (copyright 1998, Gaussian, Inc.),
 the Gaussian(R) 94 system (copyright 1995, Gaussian, Inc.),
 the Gaussian 92(TM) system (copyright 1992, Gaussian, Inc.),
 the Gaussian 90(TM) system (copyright 1990, Gaussian, Inc.),
 the Gaussian 88(TM) system (copyright 1988, Gaussian, Inc.),
 the Gaussian 86(TM) system (copyright 1986, Carnegie Mellon
 University), and the Gaussian 82(TM) system (copyright 1983,
 Carnegie Mellon University). Gaussian is a federally registered
 trademark of Gaussian, Inc.
  
 This software contains proprietary and confidential information,
 including trade secrets, belonging to Gaussian, Inc.
  
 This software is provided under written license and may be
 used, copied, transmitted, or stored only in accord with that
 written license.
  
 The following legend is applicable only to US Government
 contracts under FAR:
  
                    RESTRICTED RIGHTS LEGEND
  
 Use, reproduction and disclosure by the US Government is
 subject to restrictions as set forth in subparagraphs (a)
 and (c) of the Commercial Computer Software - Restricted
 Rights clause in FAR 52.227-19.
  
 Gaussian, Inc.
 340 Quinnipiac St., Bldg. 40, Wallingford CT 06492
  
  
 ---------------------------------------------------------------
 Warning -- This program may not be used in any manner that
 competes with the business of Gaussian, Inc. or will provide
 assistance to any competitor of Gaussian, Inc.  The licensee
 of this program is prohibited from giving any competitor of
 Gaussian, Inc. access to this program.  By using this program,
 the user acknowledges that Gaussian, Inc. is engaged in the
 business of creating and licensing software in the field of
 computational chemistry and represents and warrants to the
 licensee that it is not a competitor of Gaussian, Inc. and that
 it will not use this program in any manner prohibited above.
 ---------------------------------------------------------------
  

 Cite this work as:
 Gaussian 09, Revision D.01,
 M. J. Frisch, G. W. Trucks, H. B. Schlegel, G. E. Scuseria, 
 M. A. Robb, J. R. Cheeseman, G. Scalmani, V. Barone, B. Mennucci, 
 G. A. Petersson, H. Nakatsuji, M. Caricato, X. Li, H. P. Hratchian, 
 A. F. Izmaylov, J. Bloino, G. Zheng, J. L. Sonnenberg, M. Hada, 
 M. Ehara, K. Toyota, R. Fukuda, J. Hasegawa, M. Ishida, T. Nakajima, 
 Y. Honda, O. Kitao, H. Nakai, T. Vreven, J. A. Montgomery, Jr., 
 J. E. Peralta, F. Ogliaro, M. Bearpark, J. J. Heyd, E. Brothers, 
 K. N. Kudin, V. N. Staroverov, T. Keith, R. Kobayashi, J. Normand, 
 K. Raghavachari, A. Rendell, J. C. Burant, S. S. Iyengar, J. Tomasi, 
 M. Cossi, N. Rega, J. M. Millam, M. Klene, J. E. Knox, J. B. Cross, 
 V. Bakken, C. Adamo, J. Jaramillo, R. Gomperts, R. E. Stratmann, 
 O. Yazyev, A. J. Austin, R. Cammi, C. Pomelli, J. W. Ochterski, 
 R. L. Martin, K. Morokuma, V. G. Zakrzewski, G. A. Voth, 
 P. Salvador, J. J. Dannenberg, S. Dapprich, A. D. Daniels, 
 O. Farkas, J. B. Foresman, J. V. Ortiz, J. Cioslowski, 
 and D. J. Fox, Gaussian, Inc., Wallingford CT, 2013.
 
 ******************************************
 Gaussian 09:  ES64L-G09RevD.01 24-Apr-2013
                26-Aug-2020 
 ******************************************
 %chk=/home/boittier/MDCM/nms_sampling/butadiene_geom.xyz.dir/butadiene_1445.chk
 %nproc=8
 Will use up to    8 processors via shared memory.
 %mem=16000MB
 --------------------
 #p B2PLYPD3/Def2QZVP
 --------------------
 1/38=1/1;
 2/12=2,17=6,18=5,40=1/2;
 3/5=45,7=101,11=9,16=1,25=1,30=1,74=-60/1,2,3;
 4//1;
 5/5=2,38=5/2;
 8/10=1/1;
 9/16=-3/6;
 6/7=2,8=2,9=2,10=2/1;
 99/5=1,9=1/99;
 Leave Link    1 at Wed Aug 26 09:19:08 2020, MaxMem=  2097152000 cpu:         0.2
 (Enter /opt/cluster/programs/g09/g09_d.01/g09/l101.exe)
 ---------
 butadiene
 ---------
 Symbolic Z-matrix:
 Charge =  0 Multiplicity = 1
 C                    -3.86325   0.2117   -0.01041 
 C                    -2.71791  -0.48493   0.0779 
 C                    -1.36866   0.08255   0.04313 
 C                    -0.24701  -0.67107  -0.01185 
 H                    -4.81132  -0.28544   0.06036 
 H                    -3.87847   1.3208   -0.17058 
 H                    -2.79992  -1.53585   0.1134 
 H                    -1.35364   1.17444   0.07271 
 H                    -0.32945  -1.75812  -0.03084 
 H                     0.70757  -0.1802    0.14274 
 
 NAtoms=     10 NQM=       10 NQMF=       0 NMMI=      0 NMMIF=      0
                NMic=       0 NMicF=      0.
                    Isotopes and Nuclear Properties:
 (Nuclear quadrupole moments (NQMom) in fm**2, nuclear magnetic moments (NMagM)
  in nuclear magnetons)

  Atom         1           2           3           4           5           6           7           8           9          10
 IAtWgt=          12          12          12          12           1           1           1           1           1           1
 AtmWgt=  12.0000000  12.0000000  12.0000000  12.0000000   1.0078250   1.0078250   1.0078250   1.0078250   1.0078250   1.0078250
 NucSpn=           0           0           0           0           1           1           1           1           1           1
 AtZEff=   0.0000000   0.0000000   0.0000000   0.0000000   0.0000000   0.0000000   0.0000000   0.0000000   0.0000000   0.0000000
 NQMom=    0.0000000   0.0000000   0.0000000   0.0000000   0.0000000   0.0000000   0.0000000   0.0000000   0.0000000   0.0000000
 NMagM=    0.0000000   0.0000000   0.0000000   0.0000000   2.7928460   2.7928460   2.7928460   2.7928460   2.7928460   2.7928460
 AtZNuc=   6.0000000   6.0000000   6.0000000   6.0000000   1.0000000   1.0000000   1.0000000   1.0000000   1.0000000   1.0000000
 Leave Link  101 at Wed Aug 26 09:19:08 2020, MaxMem=  2097152000 cpu:         0.6
 (Enter /opt/cluster/programs/g09/g09_d.01/g09/l202.exe)
                          Input orientation:                          
 ---------------------------------------------------------------------
 Center     Atomic      Atomic             Coordinates (Angstroms)
 Number     Number       Type             X           Y           Z
 ---------------------------------------------------------------------
      1          6           0       -3.863245    0.211696   -0.010408
      2          6           0       -2.717905   -0.484925    0.077898
      3          6           0       -1.368660    0.082545    0.043131
      4          6           0       -0.247006   -0.671074   -0.011853
      5          1           0       -4.811321   -0.285443    0.060360
      6          1           0       -3.878473    1.320802   -0.170581
      7          1           0       -2.799922   -1.535846    0.113399
      8          1           0       -1.353641    1.174443    0.072714
      9          1           0       -0.329451   -1.758122   -0.030844
     10          1           0        0.707571   -0.180201    0.142735
 ---------------------------------------------------------------------
                    Distance matrix (angstroms):
                    1          2          3          4          5
     1  C    0.000000
     2  C    1.343459   0.000000
     3  C    2.498500   1.464136   0.000000
     4  C    3.722428   2.479526   1.352432   0.000000
     5  H    1.072848   2.102972   3.462315   4.581146   0.000000
     6  H    1.120716   2.160859   2.806798   4.144915   1.871780
     7  H    2.049363   1.054714   2.161629   2.698314   2.368976
     8  H    2.689220   2.148196   1.092402   2.153538   3.753261
     9  H    4.045776   2.708795   2.115061   1.090335   4.718502
    10  H    4.590141   3.439614   2.095159   1.084468   5.520510
                    6          7          8          9         10
     6  H    0.000000
     7  H    3.066652   0.000000
     8  H    2.540746   3.072304   0.000000
     9  H    4.700517   2.484641   3.107994   0.000000
    10  H    4.835595   3.760471   2.467500   1.896148   0.000000
 Stoichiometry    C4H6
 Framework group  C1[X(C4H6)]
 Deg. of freedom    24
 Full point group                 C1      NOp   1
 Largest Abelian subgroup         C1      NOp   1
 Largest concise Abelian subgroup C1      NOp   1
                         Standard orientation:                         
 ---------------------------------------------------------------------
 Center     Atomic      Atomic             Coordinates (Angstroms)
 Number     Number       Type             X           Y           Z
 ---------------------------------------------------------------------
      1          6           0        1.855682    0.095020    0.024502
      2          6           0        0.603387   -0.386418   -0.045199
      3          6           0       -0.621759    0.415006   -0.024458
      4          6           0       -1.860259   -0.123107    0.050545
      5          1           0        2.698642   -0.566052   -0.033850
      6          1           0        2.070741    1.187027    0.155932
      7          1           0        0.495082   -1.435523   -0.053550
      8          1           0       -0.440519    1.490716   -0.082261
      9          1           0       -1.974354   -1.206435    0.097601
     10          1           0       -2.711896    0.527258   -0.116218
 ---------------------------------------------------------------------
 Rotational constants (GHZ):     41.8368279      4.3781583      3.9713034
 Leave Link  202 at Wed Aug 26 09:19:08 2020, MaxMem=  2097152000 cpu:         0.0
 (Enter /opt/cluster/programs/g09/g09_d.01/g09/l301.exe)
 Standard basis: def2QZVP (5D, 7F)
 Ernie: Thresh=  0.10000D-02 Tol=  0.10000D-05 Strict=F.
 There are   498 symmetry adapted cartesian basis functions of A   symmetry.
 There are   408 symmetry adapted basis functions of A   symmetry.
   408 basis functions,   596 primitive gaussians,   498 cartesian basis functions
    15 alpha electrons       15 beta electrons
       nuclear repulsion energy       103.3024495408 Hartrees.
 IExCor=  419 DFT=T Ex+Corr=B2PLYPD3 ExCW=0 ScaHFX=  0.530000
 ScaDFX=  0.470000  0.470000  0.730000  0.730000 ScalE2=  0.270000  0.270000
 IRadAn=      0 IRanWt=     -1 IRanGd=            0 ICorTp=0 IEmpDi=141
 NAtoms=   10 NActive=   10 NUniq=   10 SFac= 1.00D+00 NAtFMM=   60 NAOKFM=F Big=F
 Integral buffers will be    131072 words long.
 Regular integral format.
 Two-electron integral symmetry is turned on.
 R6Disp:  Grimme-D3(BJ) Dispersion energy=       -0.0048188553 Hartrees.
 Nuclear repulsion after empirical dispersion term =      103.2976306854 Hartrees.
 Leave Link  301 at Wed Aug 26 09:19:08 2020, MaxMem=  2097152000 cpu:         0.5
 (Enter /opt/cluster/programs/g09/g09_d.01/g09/l302.exe)
 NPDir=0 NMtPBC=     1 NCelOv=     1 NCel=       1 NClECP=     1 NCelD=      1
         NCelK=      1 NCelE2=     1 NClLst=     1 CellRange=     0.0.
 One-electron integrals computed using PRISM.
   1 Symmetry operations used in ECPInt.
 ECPInt:  NShTT=    8256 NPrTT=   19107 LenC2=    8054 LenP2D=   16092.
 LDataN:  DoStor=T MaxTD1= 8 Len=  415
 NBasis=   408 RedAO= T EigKep=  4.70D-05  NBF=   408
 NBsUse=   408 1.00D-06 EigRej= -1.00D+00 NBFU=   408
 Precomputing XC quadrature grid using
 IXCGrd= 4 IRadAn=           0 IRanWt=          -1 IRanGd=           0 AccXCQ= 0.00D+00.
 Generated NRdTot=       0 NPtTot=           0 NUsed=           0 NTot=          32
 NSgBfM=   498   498   498   498   498 MxSgAt=    10 MxSgA2=    10.
 Leave Link  302 at Wed Aug 26 09:19:09 2020, MaxMem=  2097152000 cpu:         3.6
 (Enter /opt/cluster/programs/g09/g09_d.01/g09/l303.exe)
 DipDrv:  MaxL=1.
 Leave Link  303 at Wed Aug 26 09:19:09 2020, MaxMem=  2097152000 cpu:         0.4
 (Enter /opt/cluster/programs/g09/g09_d.01/g09/l401.exe)
 ExpMin= 7.60D-02 ExpMax= 6.70D+04 ExpMxC= 6.47D+02 IAcc=2 IRadAn=         4 AccDes= 0.00D+00
 Harris functional with IExCor=  419 and IRadAn=       4 diagonalized for initial guess.
 HarFok:  IExCor=  419 AccDes= 0.00D+00 IRadAn=         4 IDoV= 1 UseB2=F ITyADJ=14
 ICtDFT=  3500011 ScaDFX=  1.000000  1.000000  1.000000  1.000000
 FoFCou: FMM=F IPFlag=           0 FMFlag=      100000 FMFlg1=           0
         NFxFlg=           0 DoJE=T BraDBF=F KetDBF=T FulRan=T
         wScrn=  0.000000 ICntrl=     500 IOpCl=  0 I1Cent=   200000004 NGrid=           0
         NMat0=    1 NMatS0=      1 NMatT0=    0 NMatD0=    1 NMtDS0=    0 NMtDT0=    0
 Petite list used in FoFCou.
 Harris En= -156.127045928596    
 JPrj=0 DoOrth=F DoCkMO=F.
 Leave Link  401 at Wed Aug 26 09:19:10 2020, MaxMem=  2097152000 cpu:         9.4
 (Enter /opt/cluster/programs/g09/g09_d.01/g09/l502.exe)
 Closed shell SCF:
 Using DIIS extrapolation, IDIIS=  1040.
 Integral symmetry usage will be decided dynamically.
 IVT=      770090 IEndB=      770090 NGot=  2097152000 MDV=  2096647053
 LenX=  2096647053 LenY=  2096398551
 Requested convergence on RMS density matrix=1.00D-08 within 128 cycles.
 Requested convergence on MAX density matrix=1.00D-06.
 Requested convergence on             energy=1.00D-06.
 No special actions if energy rises.
 Fock matrices will be formed incrementally for  20 cycles.
 Integral accuracy reduced to 1.0D-05 until final iterations.

 Cycle   1  Pass 0  IDiag  1:
 FoFJK:  IHMeth= 1 ICntrl=       0 DoSepK=F KAlg= 0 I1Cent=   0 FoldK=F
 IRaf= 940000000 NMat=   1 IRICut=       1 DoRegI=T DoRafI=F ISym2E= 0.
 FoFCou: FMM=F IPFlag=           0 FMFlag=      100000 FMFlg1=           0
         NFxFlg=           0 DoJE=F BraDBF=F KetDBF=F FulRan=T
         wScrn=  0.000000 ICntrl=       0 IOpCl=  0 I1Cent=           0 NGrid=           0
         NMat0=    1 NMatS0=      1 NMatT0=    0 NMatD0=    1 NMtDS0=    0 NMtDT0=    0
 Symmetry not used in FoFCou.
 E= -155.515086930595    
 DIIS: error= 3.27D-02 at cycle   1 NSaved=   1.
 NSaved= 1 IEnMin= 1 EnMin= -155.515086930595     IErMin= 1 ErrMin= 3.27D-02
 ErrMax= 3.27D-02  0.00D+00 EMaxC= 1.00D-01 BMatC= 2.45D-01 BMatP= 2.45D-01
 IDIUse=3 WtCom= 6.73D-01 WtEn= 3.27D-01
 Coeff-Com:  0.100D+01
 Coeff-En:   0.100D+01
 Coeff:      0.100D+01
 Gap=     0.293 Goal=   None    Shift=    0.000
 GapD=    0.293 DampG=1.000 DampE=0.500 DampFc=0.5000 IDamp=-1.
 Damping current iteration by 5.00D-01
 RMSDP=9.66D-04 MaxDP=5.10D-02              OVMax= 1.90D-01

 Cycle   2  Pass 0  IDiag  1:
 RMSU=  4.47D-04    CP:  9.52D-01
 E= -155.610901596428     Delta-E=       -0.095814665832 Rises=F Damp=T
 DIIS: error= 1.03D-02 at cycle   2 NSaved=   2.
 NSaved= 2 IEnMin= 2 EnMin= -155.610901596428     IErMin= 2 ErrMin= 1.03D-02
 ErrMax= 1.03D-02  0.00D+00 EMaxC= 1.00D-01 BMatC= 2.95D-02 BMatP= 2.45D-01
 IDIUse=3 WtCom= 8.97D-01 WtEn= 1.03D-01
 Coeff-Com: -0.305D+00 0.131D+01
 Coeff-En:   0.000D+00 0.100D+01
 Coeff:     -0.274D+00 0.127D+01
 Gap=     0.355 Goal=   None    Shift=    0.000
 RMSDP=2.92D-04 MaxDP=8.10D-03 DE=-9.58D-02 OVMax= 9.27D-02

 Cycle   3  Pass 0  IDiag  1:
 RMSU=  2.85D-04    CP:  9.35D-01  9.96D-01
 E= -155.693695928572     Delta-E=       -0.082794332144 Rises=F Damp=F
 DIIS: error= 4.36D-03 at cycle   3 NSaved=   3.
 NSaved= 3 IEnMin= 3 EnMin= -155.693695928572     IErMin= 3 ErrMin= 4.36D-03
 ErrMax= 4.36D-03  0.00D+00 EMaxC= 1.00D-01 BMatC= 1.92D-03 BMatP= 2.95D-02
 IDIUse=3 WtCom= 9.56D-01 WtEn= 4.36D-02
 Coeff-Com: -0.117D+00 0.233D+00 0.884D+00
 Coeff-En:   0.000D+00 0.000D+00 0.100D+01
 Coeff:     -0.112D+00 0.223D+00 0.889D+00
 Gap=     0.288 Goal=   None    Shift=    0.000
 RMSDP=7.14D-05 MaxDP=4.03D-03 DE=-8.28D-02 OVMax= 2.33D-02

 Cycle   4  Pass 0  IDiag  1:
 RMSU=  5.14D-05    CP:  9.31D-01  1.10D+00  9.44D-01
 E= -155.695210401295     Delta-E=       -0.001514472723 Rises=F Damp=F
 DIIS: error= 2.79D-03 at cycle   4 NSaved=   4.
 NSaved= 4 IEnMin= 4 EnMin= -155.695210401295     IErMin= 4 ErrMin= 2.79D-03
 ErrMax= 2.79D-03  0.00D+00 EMaxC= 1.00D-01 BMatC= 5.84D-04 BMatP= 1.92D-03
 IDIUse=3 WtCom= 9.72D-01 WtEn= 2.79D-02
 Coeff-Com: -0.535D-01 0.888D-01 0.473D+00 0.492D+00
 Coeff-En:   0.000D+00 0.000D+00 0.115D+00 0.885D+00
 Coeff:     -0.520D-01 0.863D-01 0.463D+00 0.503D+00
 Gap=     0.288 Goal=   None    Shift=    0.000
 RMSDP=2.93D-05 MaxDP=1.40D-03 DE=-1.51D-03 OVMax= 8.79D-03

 Cycle   5  Pass 0  IDiag  1:
 RMSU=  1.63D-05    CP:  9.31D-01  1.08D+00  9.88D-01  6.06D-01
 E= -155.695773596169     Delta-E=       -0.000563194875 Rises=F Damp=F
 DIIS: error= 3.05D-04 at cycle   5 NSaved=   5.
 NSaved= 5 IEnMin= 5 EnMin= -155.695773596169     IErMin= 5 ErrMin= 3.05D-04
 ErrMax= 3.05D-04  0.00D+00 EMaxC= 1.00D-01 BMatC= 5.18D-06 BMatP= 5.84D-04
 IDIUse=3 WtCom= 9.97D-01 WtEn= 3.05D-03
 Coeff-Com: -0.360D-02 0.369D-02 0.417D-01 0.107D+00 0.851D+00
 Coeff-En:   0.000D+00 0.000D+00 0.000D+00 0.000D+00 0.100D+01
 Coeff:     -0.359D-02 0.367D-02 0.415D-01 0.107D+00 0.852D+00
 Gap=     0.289 Goal=   None    Shift=    0.000
 RMSDP=4.62D-06 MaxDP=1.26D-04 DE=-5.63D-04 OVMax= 1.32D-03

 Initial convergence to 1.0D-05 achieved.  Increase integral accuracy.
 Cycle   6  Pass 1  IDiag  1:
 E= -155.695796196461     Delta-E=       -0.000022600292 Rises=F Damp=F
 DIIS: error= 4.46D-05 at cycle   1 NSaved=   1.
 NSaved= 1 IEnMin= 1 EnMin= -155.695796196461     IErMin= 1 ErrMin= 4.46D-05
 ErrMax= 4.46D-05  0.00D+00 EMaxC= 1.00D-01 BMatC= 4.46D-07 BMatP= 4.46D-07
 IDIUse=1 WtCom= 1.00D+00 WtEn= 0.00D+00
 Coeff-Com:  0.100D+01
 Coeff:      0.100D+01
 Gap=     0.289 Goal=   None    Shift=    0.000
 RMSDP=4.62D-06 MaxDP=1.26D-04 DE=-2.26D-05 OVMax= 3.32D-04

 Cycle   7  Pass 1  IDiag  1:
 RMSU=  1.80D-05    CP:  1.00D+00
 E= -155.695796534326     Delta-E=       -0.000000337865 Rises=F Damp=F
 DIIS: error= 2.80D-05 at cycle   2 NSaved=   2.
 NSaved= 2 IEnMin= 2 EnMin= -155.695796534326     IErMin= 2 ErrMin= 2.80D-05
 ErrMax= 2.80D-05  0.00D+00 EMaxC= 1.00D-01 BMatC= 5.31D-08 BMatP= 4.46D-07
 IDIUse=1 WtCom= 1.00D+00 WtEn= 0.00D+00
 Coeff-Com:  0.156D+00 0.844D+00
 Coeff:      0.156D+00 0.844D+00
 Gap=     0.289 Goal=   None    Shift=    0.000
 RMSDP=9.83D-07 MaxDP=3.55D-05 DE=-3.38D-07 OVMax= 1.77D-04

 Cycle   8  Pass 1  IDiag  1:
 RMSU=  6.51D-07    CP:  1.00D+00  1.04D+00
 E= -155.695796569455     Delta-E=       -0.000000035129 Rises=F Damp=F
 DIIS: error= 1.04D-05 at cycle   3 NSaved=   3.
 NSaved= 3 IEnMin= 3 EnMin= -155.695796569455     IErMin= 3 ErrMin= 1.04D-05
 ErrMax= 1.04D-05  0.00D+00 EMaxC= 1.00D-01 BMatC= 2.89D-08 BMatP= 5.31D-08
 IDIUse=1 WtCom= 1.00D+00 WtEn= 0.00D+00
 Coeff-Com: -0.164D-01 0.417D+00 0.599D+00
 Coeff:     -0.164D-01 0.417D+00 0.599D+00
 Gap=     0.289 Goal=   None    Shift=    0.000
 RMSDP=3.60D-07 MaxDP=1.73D-05 DE=-3.51D-08 OVMax= 8.04D-05

 Cycle   9  Pass 1  IDiag  1:
 RMSU=  2.77D-07    CP:  1.00D+00  1.05D+00  1.07D+00
 E= -155.695796597719     Delta-E=       -0.000000028264 Rises=F Damp=F
 DIIS: error= 4.95D-06 at cycle   4 NSaved=   4.
 NSaved= 4 IEnMin= 4 EnMin= -155.695796597719     IErMin= 4 ErrMin= 4.95D-06
 ErrMax= 4.95D-06  0.00D+00 EMaxC= 1.00D-01 BMatC= 7.38D-10 BMatP= 2.89D-08
 IDIUse=1 WtCom= 1.00D+00 WtEn= 0.00D+00
 Coeff-Com: -0.133D-01 0.739D-01 0.170D+00 0.769D+00
 Coeff:     -0.133D-01 0.739D-01 0.170D+00 0.769D+00
 Gap=     0.289 Goal=   None    Shift=    0.000
 RMSDP=7.73D-08 MaxDP=3.28D-06 DE=-2.83D-08 OVMax= 2.37D-05

 Cycle  10  Pass 1  IDiag  1:
 RMSU=  5.24D-08    CP:  1.00D+00  1.06D+00  1.13D+00  1.08D+00
 E= -155.695796598795     Delta-E=       -0.000000001076 Rises=F Damp=F
 DIIS: error= 8.56D-07 at cycle   5 NSaved=   5.
 NSaved= 5 IEnMin= 5 EnMin= -155.695796598795     IErMin= 5 ErrMin= 8.56D-07
 ErrMax= 8.56D-07  0.00D+00 EMaxC= 1.00D-01 BMatC= 1.35D-10 BMatP= 7.38D-10
 IDIUse=1 WtCom= 1.00D+00 WtEn= 0.00D+00
 Coeff-Com: -0.157D-02-0.417D-01-0.453D-01 0.253D+00 0.836D+00
 Coeff:     -0.157D-02-0.417D-01-0.453D-01 0.253D+00 0.836D+00
 Gap=     0.289 Goal=   None    Shift=    0.000
 RMSDP=3.47D-08 MaxDP=1.96D-06 DE=-1.08D-09 OVMax= 8.70D-06

 Cycle  11  Pass 1  IDiag  1:
 RMSU=  2.04D-08    CP:  1.00D+00  1.06D+00  1.15D+00  1.15D+00  1.04D+00
 E= -155.695796598995     Delta-E=       -0.000000000200 Rises=F Damp=F
 DIIS: error= 2.56D-07 at cycle   6 NSaved=   6.
 NSaved= 6 IEnMin= 6 EnMin= -155.695796598995     IErMin= 6 ErrMin= 2.56D-07
 ErrMax= 2.56D-07  0.00D+00 EMaxC= 1.00D-01 BMatC= 7.16D-12 BMatP= 1.35D-10
 IDIUse=1 WtCom= 1.00D+00 WtEn= 0.00D+00
 Coeff-Com:  0.724D-03-0.202D-01-0.307D-01 0.177D-01 0.257D+00 0.776D+00
 Coeff:      0.724D-03-0.202D-01-0.307D-01 0.177D-01 0.257D+00 0.776D+00
 Gap=     0.289 Goal=   None    Shift=    0.000
 RMSDP=7.39D-09 MaxDP=2.49D-07 DE=-2.00D-10 OVMax= 2.15D-06

 SCF Done:  E(RB2PLYPD3) =  -155.695796599     A.U. after   11 cycles
            NFock= 11  Conv=0.74D-08     -V/T= 2.0044
 KE= 1.550126417409D+02 PE=-5.674195066819D+02 EE= 1.534134376566D+02
 Leave Link  502 at Wed Aug 26 09:22:01 2020, MaxMem=  2097152000 cpu:      1354.6
 (Enter /opt/cluster/programs/g09/g09_d.01/g09/l801.exe)
 DoSCS=T DFT=T ScalE2(SS,OS)=  0.270000  0.270000
 ExpMin= 7.60D-02 ExpMax= 6.70D+04 ExpMxC= 6.47D+02 IAcc=3 IRadAn=         5 AccDes= 0.00D+00
 HarFok:  IExCor=  205 AccDes= 0.00D+00 IRadAn=         5 IDoV=-2 UseB2=F ITyADJ=14
 ICtDFT= 12500011 ScaDFX=  1.000000  1.000000  1.000000  1.000000
 Largest valence mixing into a core orbital is  1.13D-04
 Largest core mixing into a valence orbital is  2.02D-05
 Range of M.O.s used for correlation:     5   408
 NBasis=   408 NAE=    15 NBE=    15 NFC=     4 NFV=     0
 NROrb=    404 NOA=    11 NOB=    11 NVA=   393 NVB=   393

 **** Warning!!: The largest alpha MO coefficient is  0.26522928D+02

 Leave Link  801 at Wed Aug 26 09:22:01 2020, MaxMem=  2097152000 cpu:         0.9
 (Enter /opt/cluster/programs/g09/g09_d.01/g09/l906.exe)
 DoSCS=T DFT=T ScalE2(SS,OS)=  0.270000  0.270000
 FulOut=F Deriv=F AODrv=F NAtomX=    10
   MMem=         881  MDisk=          11 MDiskD=          11
  W3Min=     2152854 MinDsk=     3857222 NBas6D=         498
 NBas2D=      125763    NTT=      124251    LW2=     4508827
    MDV=  2096383864 MDiskM=        9345 NBas2p=      117229
 Fully direct method using O(OVN) memory.
 IMap=   1   2   3   4   5   6   7   8   9  10  11
 JobTyp=1 Pass  1:  I=   1 to  11 NPSUse=  8 ParTrn=T ParDer=T DoDerP=F.
 Spin components of T(2) and E(2):
     alpha-alpha T2 =       0.4252148703D-01 E2=     -0.2548512645D-01
     alpha-beta  T2 =       0.2761680881D+00 E2=     -0.1755442908D+00
     beta-beta   T2 =       0.4252148703D-01 E2=     -0.2548512645D-01
 The integrals were generated   1 times.
 E2(B2PLYPD3) =    -0.2265145437D+00 E(B2PLYPD3) =    -0.15592231114265D+03
 Leave Link  906 at Wed Aug 26 09:23:43 2020, MaxMem=  2097152000 cpu:       818.8
 (Enter /opt/cluster/programs/g09/g09_d.01/g09/l601.exe)
 Copying SCF densities to generalized density rwf, IOpCl= 0 IROHF=0.

 **********************************************************************

            Population analysis using the SCF density.

 **********************************************************************

 Orbital symmetries:
       Occupied  (A) (A) (A) (A) (A) (A) (A) (A) (A) (A) (A) (A)
                 (A) (A) (A)
       Virtual   (A) (A) (A) (A) (A) (A) (A) (A) (A) (A) (A) (A)
                 (A) (A) (A) (A) (A) (A) (A) (A) (A) (A) (A) (A)
                 (A) (A) (A) (A) (A) (A) (A) (A) (A) (A) (A) (A)
                 (A) (A) (A) (A) (A) (A) (A) (A) (A) (A) (A) (A)
                 (A) (A) (A) (A) (A) (A) (A) (A) (A) (A) (A) (A)
                 (A) (A) (A) (A) (A) (A) (A) (A) (A) (A) (A) (A)
                 (A) (A) (A) (A) (A) (A) (A) (A) (A) (A) (A) (A)
                 (A) (A) (A) (A) (A) (A) (A) (A) (A) (A) (A) (A)
                 (A) (A) (A) (A) (A) (A) (A) (A) (A) (A) (A) (A)
                 (A) (A) (A) (A) (A) (A) (A) (A) (A) (A) (A) (A)
                 (A) (A) (A) (A) (A) (A) (A) (A) (A) (A) (A) (A)
                 (A) (A) (A) (A) (A) (A) (A) (A) (A) (A) (A) (A)
                 (A) (A) (A) (A) (A) (A) (A) (A) (A) (A) (A) (A)
                 (A) (A) (A) (A) (A) (A) (A) (A) (A) (A) (A) (A)
                 (A) (A) (A) (A) (A) (A) (A) (A) (A) (A) (A) (A)
                 (A) (A) (A) (A) (A) (A) (A) (A) (A) (A) (A) (A)
                 (A) (A) (A) (A) (A) (A) (A) (A) (A) (A) (A) (A)
                 (A) (A) (A) (A) (A) (A) (A) (A) (A) (A) (A) (A)
                 (A) (A) (A) (A) (A) (A) (A) (A) (A) (A) (A) (A)
                 (A) (A) (A) (A) (A) (A) (A) (A) (A) (A) (A) (A)
                 (A) (A) (A) (A) (A) (A) (A) (A) (A) (A) (A) (A)
                 (A) (A) (A) (A) (A) (A) (A) (A) (A) (A) (A) (A)
                 (A) (A) (A) (A) (A) (A) (A) (A) (A) (A) (A) (A)
                 (A) (A) (A) (A) (A) (A) (A) (A) (A) (A) (A) (A)
                 (A) (A) (A) (A) (A) (A) (A) (A) (A) (A) (A) (A)
                 (A) (A) (A) (A) (A) (A) (A) (A) (A) (A) (A) (A)
                 (A) (A) (A) (A) (A) (A) (A) (A) (A) (A) (A) (A)
                 (A) (A) (A) (A) (A) (A) (A) (A) (A) (A) (A) (A)
                 (A) (A) (A) (A) (A) (A) (A) (A) (A) (A) (A) (A)
                 (A) (A) (A) (A) (A) (A) (A) (A) (A) (A) (A) (A)
                 (A) (A) (A) (A) (A) (A) (A) (A) (A) (A) (A) (A)
                 (A) (A) (A) (A) (A) (A) (A) (A) (A) (A) (A) (A)
                 (A) (A) (A) (A) (A) (A) (A) (A) (A)
 The electronic state is 1-A.
 Alpha  occ. eigenvalues --  -10.63024 -10.62330 -10.62022 -10.61960  -0.92609
 Alpha  occ. eigenvalues --   -0.84638  -0.70083  -0.64077  -0.54247  -0.53724
 Alpha  occ. eigenvalues --   -0.46630  -0.45806  -0.41226  -0.37610  -0.27563
 Alpha virt. eigenvalues --    0.01314   0.06979   0.07410   0.08069   0.09464
 Alpha virt. eigenvalues --    0.11695   0.12268   0.14697   0.15732   0.15999
 Alpha virt. eigenvalues --    0.18942   0.20411   0.21083   0.22425   0.24061
 Alpha virt. eigenvalues --    0.26685   0.26819   0.29281   0.31740   0.34085
 Alpha virt. eigenvalues --    0.34943   0.36246   0.36793   0.38133   0.39751
 Alpha virt. eigenvalues --    0.42467   0.43661   0.44790   0.47141   0.47635
 Alpha virt. eigenvalues --    0.48077   0.49370   0.53504   0.55857   0.56614
 Alpha virt. eigenvalues --    0.57852   0.60594   0.64349   0.66847   0.67888
 Alpha virt. eigenvalues --    0.68791   0.70848   0.76078   0.76949   0.78366
 Alpha virt. eigenvalues --    0.80309   0.80755   0.81285   0.82365   0.83487
 Alpha virt. eigenvalues --    0.84237   0.85850   0.86725   0.87808   0.90099
 Alpha virt. eigenvalues --    0.92271   0.93321   0.94070   0.95691   0.96285
 Alpha virt. eigenvalues --    0.98699   0.98756   0.99452   1.02636   1.04090
 Alpha virt. eigenvalues --    1.06372   1.08060   1.09360   1.10893   1.12081
 Alpha virt. eigenvalues --    1.13934   1.17954   1.19528   1.20639   1.21828
 Alpha virt. eigenvalues --    1.24440   1.25536   1.32715   1.33280   1.36544
 Alpha virt. eigenvalues --    1.37878   1.40448   1.46231   1.57172   1.62669
 Alpha virt. eigenvalues --    1.64508   1.66886   1.70564   1.71115   1.73939
 Alpha virt. eigenvalues --    1.76316   1.81427   1.82846   1.83959   1.88056
 Alpha virt. eigenvalues --    1.89948   1.90508   1.91918   1.92075   1.93932
 Alpha virt. eigenvalues --    1.95999   1.97977   2.00415   2.01072   2.02650
 Alpha virt. eigenvalues --    2.03173   2.05526   2.06835   2.07561   2.08973
 Alpha virt. eigenvalues --    2.10079   2.11222   2.13485   2.17017   2.17409
 Alpha virt. eigenvalues --    2.20262   2.21705   2.23435   2.24916   2.27359
 Alpha virt. eigenvalues --    2.29474   2.32755   2.33572   2.37039   2.42761
 Alpha virt. eigenvalues --    2.43419   2.44391   2.46583   2.48481   2.49338
 Alpha virt. eigenvalues --    2.52582   2.53322   2.55790   2.56058   2.58118
 Alpha virt. eigenvalues --    2.59487   2.60563   2.62658   2.63440   2.65272
 Alpha virt. eigenvalues --    2.67051   2.69316   2.69873   2.70195   2.72104
 Alpha virt. eigenvalues --    2.72821   2.74754   2.76533   2.77732   2.78399
 Alpha virt. eigenvalues --    2.80479   2.87201   2.88670   2.90389   2.91587
 Alpha virt. eigenvalues --    2.94756   3.01565   3.03666   3.08803   3.09895
 Alpha virt. eigenvalues --    3.11074   3.12715   3.23770   3.32075   3.33442
 Alpha virt. eigenvalues --    3.35357   3.36858   3.42989   3.44067   3.46591
 Alpha virt. eigenvalues --    3.47792   3.49651   3.53140   3.53630   3.56622
 Alpha virt. eigenvalues --    3.57687   3.62770   3.64115   3.67621   3.77625
 Alpha virt. eigenvalues --    3.79300   3.81549   3.84169   3.87744   3.87983
 Alpha virt. eigenvalues --    3.94704   3.95645   4.00946   4.05343   4.11840
 Alpha virt. eigenvalues --    4.14710   4.15623   4.23012   4.25464   4.41471
 Alpha virt. eigenvalues --    4.50936   4.55725   4.59203   4.79494   4.97628
 Alpha virt. eigenvalues --    4.99668   5.03306   5.04693   5.06944   5.08552
 Alpha virt. eigenvalues --    5.12977   5.18412   5.19648   5.29057   5.30578
 Alpha virt. eigenvalues --    5.32962   5.38229   5.38874   5.43541   5.49640
 Alpha virt. eigenvalues --    5.53368   5.53666   5.58848   5.60491   5.62573
 Alpha virt. eigenvalues --    5.67455   5.70324   5.72048   5.74924   5.76022
 Alpha virt. eigenvalues --    5.78324   5.79591   5.83414   5.85267   5.86382
 Alpha virt. eigenvalues --    5.87110   5.89870   5.95743   5.99565   6.01092
 Alpha virt. eigenvalues --    6.03323   6.06188   6.06826   6.10676   6.12808
 Alpha virt. eigenvalues --    6.13394   6.15918   6.16389   6.17338   6.20215
 Alpha virt. eigenvalues --    6.22331   6.23740   6.25505   6.30985   6.31538
 Alpha virt. eigenvalues --    6.33595   6.33961   6.34963   6.36782   6.38355
 Alpha virt. eigenvalues --    6.40211   6.41566   6.42883   6.48848   6.51338
 Alpha virt. eigenvalues --    6.52743   6.55545   6.56227   6.56957   6.59610
 Alpha virt. eigenvalues --    6.61534   6.64130   6.64720   6.70090   6.76077
 Alpha virt. eigenvalues --    6.79121   6.83832   6.85248   6.89083   6.90170
 Alpha virt. eigenvalues --    6.92546   6.94300   6.97345   7.03022   7.06472
 Alpha virt. eigenvalues --    7.10004   7.12970   7.14357   7.19295   7.23126
 Alpha virt. eigenvalues --    7.24981   7.28524   7.35466   7.37462   7.41659
 Alpha virt. eigenvalues --    7.43030   7.45284   7.51191   7.54913   7.58657
 Alpha virt. eigenvalues --    7.61122   7.63850   7.64876   7.65771   7.68063
 Alpha virt. eigenvalues --    7.68815   7.70587   7.74040   7.74708   7.77123
 Alpha virt. eigenvalues --    7.79110   7.82594   7.85270   7.89567   7.92519
 Alpha virt. eigenvalues --    7.93885   7.96254   8.06290   8.07306   8.10645
 Alpha virt. eigenvalues --    8.11629   8.12595   8.15557   8.17227   8.19728
 Alpha virt. eigenvalues --    8.28155   8.28584   8.31572   8.33378   8.34814
 Alpha virt. eigenvalues --    8.36352   8.37197   8.38574   8.40904   8.46175
 Alpha virt. eigenvalues --    8.46845   8.47705   8.51016   8.53325   8.55586
 Alpha virt. eigenvalues --    8.57589   8.59798   8.61409   8.65437   8.69500
 Alpha virt. eigenvalues --    8.72559   8.74491   8.75961   8.77950   8.82678
 Alpha virt. eigenvalues --    8.85077   8.87619   8.92786   9.00995   9.07732
 Alpha virt. eigenvalues --    9.16179   9.22399   9.28397   9.32119   9.39323
 Alpha virt. eigenvalues --    9.52740   9.64060   9.74307   9.81811   9.84926
 Alpha virt. eigenvalues --    9.85800   9.91084   9.94788   9.97197  10.00088
 Alpha virt. eigenvalues --   10.01116  10.05767  10.20962  10.28006  10.33748
 Alpha virt. eigenvalues --   10.37178  10.45721  10.50827  10.63094  10.74841
 Alpha virt. eigenvalues --   10.86955  10.98902  11.45611  11.64909  11.87602
 Alpha virt. eigenvalues --   11.91055  12.81809  12.98667  13.12196  13.14976
 Alpha virt. eigenvalues --   28.65572  28.76067  29.39560  29.59428 148.24911
 Alpha virt. eigenvalues --  148.34532 148.98023 149.19314
          Condensed to atoms (all electrons):
               1          2          3          4          5          6
     1  C    4.850969   0.613515  -0.079291  -0.001542   0.423400   0.420814
     2  C    0.613515   4.841255   0.400527  -0.079001  -0.046062  -0.043903
     3  C   -0.079291   0.400527   4.851358   0.611243   0.007045  -0.006943
     4  C   -0.001542  -0.079001   0.611243   4.843562  -0.000585   0.000229
     5  H    0.423400  -0.046062   0.007045  -0.000585   0.583163  -0.044070
     6  H    0.420814  -0.043903  -0.006943   0.000229  -0.044070   0.599684
     7  H   -0.050612   0.408433  -0.059798  -0.001820  -0.009780   0.007932
     8  H    0.000132  -0.063741   0.408372  -0.044566  -0.000216   0.004816
     9  H    0.000352  -0.007467  -0.046723   0.425403  -0.000041   0.000045
    10  H   -0.000717   0.008051  -0.048033   0.422724   0.000027  -0.000029
               7          8          9         10
     1  C   -0.050612   0.000132   0.000352  -0.000717
     2  C    0.408433  -0.063741  -0.007467   0.008051
     3  C   -0.059798   0.408372  -0.046723  -0.048033
     4  C   -0.001820  -0.044566   0.425403   0.422724
     5  H   -0.009780  -0.000216  -0.000041   0.000027
     6  H    0.007932   0.004816   0.000045  -0.000029
     7  H    0.637492   0.007224   0.004510  -0.000054
     8  H    0.007224   0.631554   0.006957  -0.008331
     9  H    0.004510   0.006957   0.587669  -0.040890
    10  H   -0.000054  -0.008331  -0.040890   0.578223
 Mulliken charges:
               1
     1  C   -0.177021
     2  C   -0.031608
     3  C   -0.037758
     4  C   -0.175647
     5  H    0.087118
     6  H    0.061424
     7  H    0.056474
     8  H    0.057800
     9  H    0.070186
    10  H    0.089030
 Sum of Mulliken charges =   0.00000
 Mulliken charges with hydrogens summed into heavy atoms:
               1
     1  C   -0.028478
     2  C    0.024866
     3  C    0.020043
     4  C   -0.016430
 Electronic spatial extent (au):  <R**2>=            339.0824
 Charge=              0.0000 electrons
 Dipole moment (field-independent basis, Debye):
    X=              0.0363    Y=             -0.0353    Z=             -0.0773  Tot=              0.0924
 Quadrupole moment (field-independent basis, Debye-Ang):
   XX=            -23.6926   YY=            -23.0670   ZZ=            -29.3647
   XY=              0.1146   XZ=              0.4214   YZ=             -0.0446
 Traceless Quadrupole moment (field-independent basis, Debye-Ang):
   XX=              1.6822   YY=              2.3078   ZZ=             -3.9900
   XY=              0.1146   XZ=              0.4214   YZ=             -0.0446
 Octapole moment (field-independent basis, Debye-Ang**2):
  XXX=              0.6786  YYY=             -0.2611  ZZZ=             -0.1896  XYY=              0.0694
  XXY=             -0.1001  XXZ=             -0.7366  XZZ=              0.0341  YZZ=             -0.0701
  YYZ=              0.0423  XYZ=              0.9947
 Hexadecapole moment (field-independent basis, Debye-Ang**3):
 XXXX=           -353.4261 YYYY=            -65.4509 ZZZZ=            -37.5887 XXXY=             -6.7536
 XXXZ=              3.3672 YYYX=              2.0302 YYYZ=             -0.0937 ZZZX=              0.7107
 ZZZY=             -0.0604 XXYY=            -68.7572 XXZZ=            -78.3736 YYZZ=            -19.3373
 XXYZ=             -0.0835 YYXZ=              0.5335 ZZXY=              0.3639
 N-N= 1.032976306854D+02 E-N=-5.674195028074D+02  KE= 1.550126417409D+02
 Leave Link  601 at Wed Aug 26 09:23:44 2020, MaxMem=  2097152000 cpu:         0.7
 (Enter /opt/cluster/programs/g09/g09_d.01/g09/l9999.exe)
 1\1\GINC-NODE36\SP\RB2PLYPD3-FC\def2QZVP\C4H6\BOITTIER\26-Aug-2020\0\\
 #p B2PLYPD3/Def2QZVP\\butadiene\\0,1\C,0,-3.863245,0.211696,-0.010408\
 C,0,-2.717905,-0.484925,0.077898\C,0,-1.36866,0.082545,0.043131\C,0,-0
 .247006,-0.671074,-0.011853\H,0,-4.811321,-0.285443,0.06036\H,0,-3.878
 473,1.320802,-0.170581\H,0,-2.799922,-1.535846,0.113399\H,0,-1.353641,
 1.174443,0.072714\H,0,-0.329451,-1.758122,-0.030844\H,0,0.707571,-0.18
 0201,0.142735\\Version=ES64L-G09RevD.01\State=1-A\HF=-155.6957966\MP2=
 -155.9223111\RMSD=7.387e-09\PG=C01 [X(C4H6)]\\@


 ROSE IS A RED
 TY COBB IS BLUE
 'CAUSE PETE JUST HIT
 NO. 4592.
 Job cpu time:       0 days  0 hours 36 minutes 30.0 seconds.
 File lengths (MBytes):  RWF=     92 Int=      0 D2E=      0 Chk=      9 Scr=      1
 Normal termination of Gaussian 09 at Wed Aug 26 09:23:44 2020.
