 Entering Gaussian System, Link 0=/opt/cluster/programs/g09/g09_d.01/g09//g09
 Input=/home/boittier/MDCM/nms_sampling/butadiene_geom.xyz.dir/energies/butadiene_1970_energy.com
 Output=/scratch/boittier/butadiene_1970_energy/butadiene_1970_energy.out
 Initial command:
 /opt/cluster/programs/g09/g09_d.01/g09/l1.exe "/scratch/boittier/butadiene_1970_energy/Gau-71193.inp" -scrdir="/scratch/boittier/butadiene_1970_energy/"
 Entering Link 1 = /opt/cluster/programs/g09/g09_d.01/g09/l1.exe PID=     71194.
  
 Copyright (c) 1988,1990,1992,1993,1995,1998,2003,2009,2013,
            Gaussian, Inc.  All Rights Reserved.
  
 This is part of the Gaussian(R) 09 program.  It is based on
 the Gaussian(R) 03 system (copyright 2003, Gaussian, Inc.),
 the Gaussian(R) 98 system (copyright 1998, Gaussian, Inc.),
 the Gaussian(R) 94 system (copyright 1995, Gaussian, Inc.),
 the Gaussian 92(TM) system (copyright 1992, Gaussian, Inc.),
 the Gaussian 90(TM) system (copyright 1990, Gaussian, Inc.),
 the Gaussian 88(TM) system (copyright 1988, Gaussian, Inc.),
 the Gaussian 86(TM) system (copyright 1986, Carnegie Mellon
 University), and the Gaussian 82(TM) system (copyright 1983,
 Carnegie Mellon University). Gaussian is a federally registered
 trademark of Gaussian, Inc.
  
 This software contains proprietary and confidential information,
 including trade secrets, belonging to Gaussian, Inc.
  
 This software is provided under written license and may be
 used, copied, transmitted, or stored only in accord with that
 written license.
  
 The following legend is applicable only to US Government
 contracts under FAR:
  
                    RESTRICTED RIGHTS LEGEND
  
 Use, reproduction and disclosure by the US Government is
 subject to restrictions as set forth in subparagraphs (a)
 and (c) of the Commercial Computer Software - Restricted
 Rights clause in FAR 52.227-19.
  
 Gaussian, Inc.
 340 Quinnipiac St., Bldg. 40, Wallingford CT 06492
  
  
 ---------------------------------------------------------------
 Warning -- This program may not be used in any manner that
 competes with the business of Gaussian, Inc. or will provide
 assistance to any competitor of Gaussian, Inc.  The licensee
 of this program is prohibited from giving any competitor of
 Gaussian, Inc. access to this program.  By using this program,
 the user acknowledges that Gaussian, Inc. is engaged in the
 business of creating and licensing software in the field of
 computational chemistry and represents and warrants to the
 licensee that it is not a competitor of Gaussian, Inc. and that
 it will not use this program in any manner prohibited above.
 ---------------------------------------------------------------
  

 Cite this work as:
 Gaussian 09, Revision D.01,
 M. J. Frisch, G. W. Trucks, H. B. Schlegel, G. E. Scuseria, 
 M. A. Robb, J. R. Cheeseman, G. Scalmani, V. Barone, B. Mennucci, 
 G. A. Petersson, H. Nakatsuji, M. Caricato, X. Li, H. P. Hratchian, 
 A. F. Izmaylov, J. Bloino, G. Zheng, J. L. Sonnenberg, M. Hada, 
 M. Ehara, K. Toyota, R. Fukuda, J. Hasegawa, M. Ishida, T. Nakajima, 
 Y. Honda, O. Kitao, H. Nakai, T. Vreven, J. A. Montgomery, Jr., 
 J. E. Peralta, F. Ogliaro, M. Bearpark, J. J. Heyd, E. Brothers, 
 K. N. Kudin, V. N. Staroverov, T. Keith, R. Kobayashi, J. Normand, 
 K. Raghavachari, A. Rendell, J. C. Burant, S. S. Iyengar, J. Tomasi, 
 M. Cossi, N. Rega, J. M. Millam, M. Klene, J. E. Knox, J. B. Cross, 
 V. Bakken, C. Adamo, J. Jaramillo, R. Gomperts, R. E. Stratmann, 
 O. Yazyev, A. J. Austin, R. Cammi, C. Pomelli, J. W. Ochterski, 
 R. L. Martin, K. Morokuma, V. G. Zakrzewski, G. A. Voth, 
 P. Salvador, J. J. Dannenberg, S. Dapprich, A. D. Daniels, 
 O. Farkas, J. B. Foresman, J. V. Ortiz, J. Cioslowski, 
 and D. J. Fox, Gaussian, Inc., Wallingford CT, 2013.
 
 ******************************************
 Gaussian 09:  ES64L-G09RevD.01 24-Apr-2013
                26-Aug-2020 
 ******************************************
 %chk=/home/boittier/MDCM/nms_sampling/butadiene_geom.xyz.dir/butadiene_1970.chk
 %nproc=8
 Will use up to    8 processors via shared memory.
 %mem=16000MB
 --------------------
 #p B2PLYPD3/Def2QZVP
 --------------------
 1/38=1/1;
 2/12=2,17=6,18=5,40=1/2;
 3/5=45,7=101,11=9,16=1,25=1,30=1,74=-60/1,2,3;
 4//1;
 5/5=2,38=5/2;
 8/10=1/1;
 9/16=-3/6;
 6/7=2,8=2,9=2,10=2/1;
 99/5=1,9=1/99;
 Leave Link    1 at Wed Aug 26 11:31:20 2020, MaxMem=  2097152000 cpu:         0.2
 (Enter /opt/cluster/programs/g09/g09_d.01/g09/l101.exe)
 ---------
 butadiene
 ---------
 Symbolic Z-matrix:
 Charge =  0 Multiplicity = 1
 C                    -3.85454   0.2138   -0.05303 
 C                    -2.74548  -0.51154   0.14348 
 C                    -1.37819   0.09227   0.06936 
 C                    -0.23548  -0.6689   -0.05496 
 H                    -4.92321  -0.14963  -0.00482 
 H                    -3.79681   1.32423  -0.23459 
 H                    -2.81747  -1.59579   0.10067 
 H                    -1.32028   1.13885   0.19056 
 H                    -0.13497  -1.64206  -0.06138 
 H                     0.74754  -0.19073   0.14126 
 
 NAtoms=     10 NQM=       10 NQMF=       0 NMMI=      0 NMMIF=      0
                NMic=       0 NMicF=      0.
                    Isotopes and Nuclear Properties:
 (Nuclear quadrupole moments (NQMom) in fm**2, nuclear magnetic moments (NMagM)
  in nuclear magnetons)

  Atom         1           2           3           4           5           6           7           8           9          10
 IAtWgt=          12          12          12          12           1           1           1           1           1           1
 AtmWgt=  12.0000000  12.0000000  12.0000000  12.0000000   1.0078250   1.0078250   1.0078250   1.0078250   1.0078250   1.0078250
 NucSpn=           0           0           0           0           1           1           1           1           1           1
 AtZEff=   0.0000000   0.0000000   0.0000000   0.0000000   0.0000000   0.0000000   0.0000000   0.0000000   0.0000000   0.0000000
 NQMom=    0.0000000   0.0000000   0.0000000   0.0000000   0.0000000   0.0000000   0.0000000   0.0000000   0.0000000   0.0000000
 NMagM=    0.0000000   0.0000000   0.0000000   0.0000000   2.7928460   2.7928460   2.7928460   2.7928460   2.7928460   2.7928460
 AtZNuc=   6.0000000   6.0000000   6.0000000   6.0000000   1.0000000   1.0000000   1.0000000   1.0000000   1.0000000   1.0000000
 Leave Link  101 at Wed Aug 26 11:31:20 2020, MaxMem=  2097152000 cpu:         0.5
 (Enter /opt/cluster/programs/g09/g09_d.01/g09/l202.exe)
                          Input orientation:                          
 ---------------------------------------------------------------------
 Center     Atomic      Atomic             Coordinates (Angstroms)
 Number     Number       Type             X           Y           Z
 ---------------------------------------------------------------------
      1          6           0       -3.854539    0.213803   -0.053033
      2          6           0       -2.745479   -0.511538    0.143476
      3          6           0       -1.378185    0.092266    0.069362
      4          6           0       -0.235479   -0.668897   -0.054962
      5          1           0       -4.923213   -0.149629   -0.004819
      6          1           0       -3.796813    1.324230   -0.234592
      7          1           0       -2.817470   -1.595793    0.100666
      8          1           0       -1.320277    1.138852    0.190562
      9          1           0       -0.134972   -1.642061   -0.061378
     10          1           0        0.747539   -0.190734    0.141255
 ---------------------------------------------------------------------
                    Distance matrix (angstroms):
                    1          2          3          4          5
     1  C    0.000000
     2  C    1.339683   0.000000
     3  C    2.482354   1.496518   0.000000
     4  C    3.725152   2.522744   1.378623   0.000000
     5  H    1.129810   2.212577   3.554046   4.716673   0.000000
     6  H    1.126652   2.149019   2.731279   4.085085   1.869180
     7  H    2.091357   1.087485   2.218573   2.747732   2.556691
     8  H    2.708789   2.181102   1.055171   2.122504   3.831384
     9  H    4.156859   2.852156   2.137887   0.978361   5.015756
    10  H    4.623907   3.507719   2.145684   1.110615   5.672782
                    6          7          8          9         10
     6  H    0.000000
     7  H    3.098071   0.000000
     8  H    2.519594   3.118966   0.000000
     9  H    4.715715   2.687786   3.033463   0.000000
    10  H    4.804947   3.832118   2.458880   1.710624   0.000000
 Stoichiometry    C4H6
 Framework group  C1[X(C4H6)]
 Deg. of freedom    24
 Full point group                 C1      NOp   1
 Largest Abelian subgroup         C1      NOp   1
 Largest concise Abelian subgroup C1      NOp   1
                         Standard orientation:                         
 ---------------------------------------------------------------------
 Center     Atomic      Atomic             Coordinates (Angstroms)
 Number     Number       Type             X           Y           Z
 ---------------------------------------------------------------------
      1          6           0        1.850946    0.102186    0.064229
      2          6           0        0.630029   -0.419745   -0.113808
      3          6           0       -0.608739    0.417361   -0.048441
      4          6           0       -1.866995   -0.127416    0.095132
      5          1           0        2.838375   -0.445125    0.020571
      6          1           0        1.991273    1.208789    0.222603
      7          1           0        0.509830   -1.498590   -0.048455
      8          1           0       -0.481840    1.455070   -0.191417
      9          1           0       -2.137614   -1.067214    0.122266
     10          1           0       -2.751467    0.512750   -0.108242
 ---------------------------------------------------------------------
 Rotational constants (GHZ):     40.5643924      4.3027023      3.9174399
 Leave Link  202 at Wed Aug 26 11:31:20 2020, MaxMem=  2097152000 cpu:         0.1
 (Enter /opt/cluster/programs/g09/g09_d.01/g09/l301.exe)
 Standard basis: def2QZVP (5D, 7F)
 Ernie: Thresh=  0.10000D-02 Tol=  0.10000D-05 Strict=F.
 There are   498 symmetry adapted cartesian basis functions of A   symmetry.
 There are   408 symmetry adapted basis functions of A   symmetry.
   408 basis functions,   596 primitive gaussians,   498 cartesian basis functions
    15 alpha electrons       15 beta electrons
       nuclear repulsion energy       102.4840828732 Hartrees.
 IExCor=  419 DFT=T Ex+Corr=B2PLYPD3 ExCW=0 ScaHFX=  0.530000
 ScaDFX=  0.470000  0.470000  0.730000  0.730000 ScalE2=  0.270000  0.270000
 IRadAn=      0 IRanWt=     -1 IRanGd=            0 ICorTp=0 IEmpDi=141
 NAtoms=   10 NActive=   10 NUniq=   10 SFac= 1.00D+00 NAtFMM=   60 NAOKFM=F Big=F
 Integral buffers will be    131072 words long.
 Regular integral format.
 Two-electron integral symmetry is turned on.
 R6Disp:  Grimme-D3(BJ) Dispersion energy=       -0.0047798196 Hartrees.
 Nuclear repulsion after empirical dispersion term =      102.4793030535 Hartrees.
 Leave Link  301 at Wed Aug 26 11:31:20 2020, MaxMem=  2097152000 cpu:         0.5
 (Enter /opt/cluster/programs/g09/g09_d.01/g09/l302.exe)
 NPDir=0 NMtPBC=     1 NCelOv=     1 NCel=       1 NClECP=     1 NCelD=      1
         NCelK=      1 NCelE2=     1 NClLst=     1 CellRange=     0.0.
 One-electron integrals computed using PRISM.
   1 Symmetry operations used in ECPInt.
 ECPInt:  NShTT=    8256 NPrTT=   19107 LenC2=    8048 LenP2D=   16042.
 LDataN:  DoStor=T MaxTD1= 8 Len=  415
 NBasis=   408 RedAO= T EigKep=  5.22D-05  NBF=   408
 NBsUse=   408 1.00D-06 EigRej= -1.00D+00 NBFU=   408
 Precomputing XC quadrature grid using
 IXCGrd= 4 IRadAn=           0 IRanWt=          -1 IRanGd=           0 AccXCQ= 0.00D+00.
 Generated NRdTot=       0 NPtTot=           0 NUsed=           0 NTot=          32
 NSgBfM=   498   498   498   498   498 MxSgAt=    10 MxSgA2=    10.
 Leave Link  302 at Wed Aug 26 11:31:21 2020, MaxMem=  2097152000 cpu:         3.1
 (Enter /opt/cluster/programs/g09/g09_d.01/g09/l303.exe)
 DipDrv:  MaxL=1.
 Leave Link  303 at Wed Aug 26 11:31:21 2020, MaxMem=  2097152000 cpu:         0.3
 (Enter /opt/cluster/programs/g09/g09_d.01/g09/l401.exe)
 ExpMin= 7.60D-02 ExpMax= 6.70D+04 ExpMxC= 6.47D+02 IAcc=2 IRadAn=         4 AccDes= 0.00D+00
 Harris functional with IExCor=  419 and IRadAn=       4 diagonalized for initial guess.
 HarFok:  IExCor=  419 AccDes= 0.00D+00 IRadAn=         4 IDoV= 1 UseB2=F ITyADJ=14
 ICtDFT=  3500011 ScaDFX=  1.000000  1.000000  1.000000  1.000000
 FoFCou: FMM=F IPFlag=           0 FMFlag=      100000 FMFlg1=           0
         NFxFlg=           0 DoJE=T BraDBF=F KetDBF=T FulRan=T
         wScrn=  0.000000 ICntrl=     500 IOpCl=  0 I1Cent=   200000004 NGrid=           0
         NMat0=    1 NMatS0=      1 NMatT0=    0 NMatD0=    1 NMtDS0=    0 NMtDT0=    0
 Petite list used in FoFCou.
 Harris En= -156.107283265271    
 JPrj=0 DoOrth=F DoCkMO=F.
 Leave Link  401 at Wed Aug 26 11:31:22 2020, MaxMem=  2097152000 cpu:         8.2
 (Enter /opt/cluster/programs/g09/g09_d.01/g09/l502.exe)
 Closed shell SCF:
 Using DIIS extrapolation, IDIIS=  1040.
 Integral symmetry usage will be decided dynamically.
 IVT=      770090 IEndB=      770090 NGot=  2097152000 MDV=  2096647053
 LenX=  2096647053 LenY=  2096398551
 Requested convergence on RMS density matrix=1.00D-08 within 128 cycles.
 Requested convergence on MAX density matrix=1.00D-06.
 Requested convergence on             energy=1.00D-06.
 No special actions if energy rises.
 Fock matrices will be formed incrementally for  20 cycles.
 Integral accuracy reduced to 1.0D-05 until final iterations.

 Cycle   1  Pass 0  IDiag  1:
 FoFJK:  IHMeth= 1 ICntrl=       0 DoSepK=F KAlg= 0 I1Cent=   0 FoldK=F
 IRaf= 940000000 NMat=   1 IRICut=       1 DoRegI=T DoRafI=F ISym2E= 0.
 FoFCou: FMM=F IPFlag=           0 FMFlag=      100000 FMFlg1=           0
         NFxFlg=           0 DoJE=F BraDBF=F KetDBF=F FulRan=T
         wScrn=  0.000000 ICntrl=       0 IOpCl=  0 I1Cent=           0 NGrid=           0
         NMat0=    1 NMatS0=      1 NMatT0=    0 NMatD0=    1 NMtDS0=    0 NMtDT0=    0
 Symmetry not used in FoFCou.
 E= -155.498869015356    
 DIIS: error= 2.72D-02 at cycle   1 NSaved=   1.
 NSaved= 1 IEnMin= 1 EnMin= -155.498869015356     IErMin= 1 ErrMin= 2.72D-02
 ErrMax= 2.72D-02  0.00D+00 EMaxC= 1.00D-01 BMatC= 2.42D-01 BMatP= 2.42D-01
 IDIUse=3 WtCom= 7.28D-01 WtEn= 2.72D-01
 Coeff-Com:  0.100D+01
 Coeff-En:   0.100D+01
 Coeff:      0.100D+01
 Gap=     0.289 Goal=   None    Shift=    0.000
 GapD=    0.289 DampG=1.000 DampE=0.500 DampFc=0.5000 IDamp=-1.
 Damping current iteration by 5.00D-01
 RMSDP=9.72D-04 MaxDP=5.07D-02              OVMax= 1.93D-01

 Cycle   2  Pass 0  IDiag  1:
 RMSU=  4.53D-04    CP:  9.53D-01
 E= -155.593124176868     Delta-E=       -0.094255161511 Rises=F Damp=T
 DIIS: error= 9.60D-03 at cycle   2 NSaved=   2.
 NSaved= 2 IEnMin= 2 EnMin= -155.593124176868     IErMin= 2 ErrMin= 9.60D-03
 ErrMax= 9.60D-03  0.00D+00 EMaxC= 1.00D-01 BMatC= 2.95D-02 BMatP= 2.42D-01
 IDIUse=3 WtCom= 9.04D-01 WtEn= 9.60D-02
 Coeff-Com: -0.309D+00 0.131D+01
 Coeff-En:   0.000D+00 0.100D+01
 Coeff:     -0.279D+00 0.128D+01
 Gap=     0.356 Goal=   None    Shift=    0.000
 RMSDP=3.05D-04 MaxDP=9.68D-03 DE=-9.43D-02 OVMax= 9.13D-02

 Cycle   3  Pass 0  IDiag  1:
 RMSU=  2.96D-04    CP:  9.36D-01  9.49D-01
 E= -155.674430954911     Delta-E=       -0.081306778043 Rises=F Damp=F
 DIIS: error= 3.20D-03 at cycle   3 NSaved=   3.
 NSaved= 3 IEnMin= 3 EnMin= -155.674430954911     IErMin= 3 ErrMin= 3.20D-03
 ErrMax= 3.20D-03  0.00D+00 EMaxC= 1.00D-01 BMatC= 1.62D-03 BMatP= 2.95D-02
 IDIUse=3 WtCom= 9.68D-01 WtEn= 3.20D-02
 Coeff-Com: -0.114D+00 0.215D+00 0.898D+00
 Coeff-En:   0.000D+00 0.000D+00 0.100D+01
 Coeff:     -0.110D+00 0.209D+00 0.902D+00
 Gap=     0.286 Goal=   None    Shift=    0.000
 RMSDP=6.34D-05 MaxDP=3.67D-03 DE=-8.13D-02 OVMax= 1.63D-02

 Cycle   4  Pass 0  IDiag  1:
 RMSU=  4.47D-05    CP:  9.32D-01  1.04D+00  9.77D-01
 E= -155.675921475236     Delta-E=       -0.001490520325 Rises=F Damp=F
 DIIS: error= 1.34D-03 at cycle   4 NSaved=   4.
 NSaved= 4 IEnMin= 4 EnMin= -155.675921475236     IErMin= 4 ErrMin= 1.34D-03
 ErrMax= 1.34D-03  0.00D+00 EMaxC= 1.00D-01 BMatC= 2.59D-04 BMatP= 1.62D-03
 IDIUse=3 WtCom= 9.87D-01 WtEn= 1.34D-02
 Coeff-Com: -0.493D-01 0.825D-01 0.435D+00 0.532D+00
 Coeff-En:   0.000D+00 0.000D+00 0.000D+00 0.100D+01
 Coeff:     -0.486D-01 0.814D-01 0.429D+00 0.538D+00
 Gap=     0.286 Goal=   None    Shift=    0.000
 RMSDP=2.25D-05 MaxDP=1.31D-03 DE=-1.49D-03 OVMax= 7.20D-03

 Cycle   5  Pass 0  IDiag  1:
 RMSU=  1.58D-05    CP:  9.32D-01  1.03D+00  1.01D+00  7.31D-01
 E= -155.676167801501     Delta-E=       -0.000246326265 Rises=F Damp=F
 DIIS: error= 2.27D-04 at cycle   5 NSaved=   5.
 NSaved= 5 IEnMin= 5 EnMin= -155.676167801501     IErMin= 5 ErrMin= 2.27D-04
 ErrMax= 2.27D-04  0.00D+00 EMaxC= 1.00D-01 BMatC= 8.52D-06 BMatP= 2.59D-04
 IDIUse=3 WtCom= 9.98D-01 WtEn= 2.27D-03
 Coeff-Com: -0.457D-02 0.508D-02 0.532D-01 0.174D+00 0.773D+00
 Coeff-En:   0.000D+00 0.000D+00 0.000D+00 0.000D+00 0.100D+01
 Coeff:     -0.456D-02 0.507D-02 0.530D-01 0.173D+00 0.773D+00
 Gap=     0.286 Goal=   None    Shift=    0.000
 RMSDP=5.21D-06 MaxDP=2.18D-04 DE=-2.46D-04 OVMax= 1.36D-03

 Initial convergence to 1.0D-05 achieved.  Increase integral accuracy.
 Cycle   6  Pass 1  IDiag  1:
 E= -155.676159308430     Delta-E=        0.000008493071 Rises=F Damp=F
 DIIS: error= 4.94D-05 at cycle   1 NSaved=   1.
 NSaved= 1 IEnMin= 1 EnMin= -155.676159308430     IErMin= 1 ErrMin= 4.94D-05
 ErrMax= 4.94D-05  0.00D+00 EMaxC= 1.00D-01 BMatC= 6.02D-07 BMatP= 6.02D-07
 IDIUse=1 WtCom= 1.00D+00 WtEn= 0.00D+00
 Coeff-Com:  0.100D+01
 Coeff:      0.100D+01
 Gap=     0.286 Goal=   None    Shift=    0.000
 RMSDP=5.21D-06 MaxDP=2.18D-04 DE= 8.49D-06 OVMax= 4.92D-04

 Cycle   7  Pass 1  IDiag  1:
 RMSU=  2.20D-05    CP:  1.00D+00
 E= -155.676159728012     Delta-E=       -0.000000419581 Rises=F Damp=F
 DIIS: error= 4.68D-05 at cycle   2 NSaved=   2.
 NSaved= 2 IEnMin= 2 EnMin= -155.676159728012     IErMin= 2 ErrMin= 4.68D-05
 ErrMax= 4.68D-05  0.00D+00 EMaxC= 1.00D-01 BMatC= 1.98D-07 BMatP= 6.02D-07
 IDIUse=1 WtCom= 1.00D+00 WtEn= 0.00D+00
 Coeff-Com:  0.319D+00 0.681D+00
 Coeff:      0.319D+00 0.681D+00
 Gap=     0.286 Goal=   None    Shift=    0.000
 RMSDP=1.00D-06 MaxDP=4.65D-05 DE=-4.20D-07 OVMax= 2.37D-04

 Cycle   8  Pass 1  IDiag  1:
 RMSU=  8.02D-07    CP:  1.00D+00  1.03D+00
 E= -155.676159900113     Delta-E=       -0.000000172102 Rises=F Damp=F
 DIIS: error= 1.51D-05 at cycle   3 NSaved=   3.
 NSaved= 3 IEnMin= 3 EnMin= -155.676159900113     IErMin= 3 ErrMin= 1.51D-05
 ErrMax= 1.51D-05  0.00D+00 EMaxC= 1.00D-01 BMatC= 3.98D-08 BMatP= 1.98D-07
 IDIUse=1 WtCom= 1.00D+00 WtEn= 0.00D+00
 Coeff-Com: -0.118D-01 0.294D+00 0.718D+00
 Coeff:     -0.118D-01 0.294D+00 0.718D+00
 Gap=     0.286 Goal=   None    Shift=    0.000
 RMSDP=6.42D-07 MaxDP=2.57D-05 DE=-1.72D-07 OVMax= 1.07D-04

 Cycle   9  Pass 1  IDiag  1:
 RMSU=  4.66D-07    CP:  1.00D+00  1.05D+00  1.01D+00
 E= -155.676159942879     Delta-E=       -0.000000042766 Rises=F Damp=F
 DIIS: error= 4.91D-06 at cycle   4 NSaved=   4.
 NSaved= 4 IEnMin= 4 EnMin= -155.676159942879     IErMin= 4 ErrMin= 4.91D-06
 ErrMax= 4.91D-06  0.00D+00 EMaxC= 1.00D-01 BMatC= 2.26D-09 BMatP= 3.98D-08
 IDIUse=1 WtCom= 1.00D+00 WtEn= 0.00D+00
 Coeff-Com: -0.216D-01 0.719D-01 0.267D+00 0.682D+00
 Coeff:     -0.216D-01 0.719D-01 0.267D+00 0.682D+00
 Gap=     0.286 Goal=   None    Shift=    0.000
 RMSDP=1.20D-07 MaxDP=5.89D-06 DE=-4.28D-08 OVMax= 2.88D-05

 Cycle  10  Pass 1  IDiag  1:
 RMSU=  8.49D-08    CP:  1.00D+00  1.05D+00  1.06D+00  1.11D+00
 E= -155.676159945671     Delta-E=       -0.000000002792 Rises=F Damp=F
 DIIS: error= 1.35D-06 at cycle   5 NSaved=   5.
 NSaved= 5 IEnMin= 5 EnMin= -155.676159945671     IErMin= 5 ErrMin= 1.35D-06
 ErrMax= 1.35D-06  0.00D+00 EMaxC= 1.00D-01 BMatC= 2.15D-10 BMatP= 2.26D-09
 IDIUse=1 WtCom= 1.00D+00 WtEn= 0.00D+00
 Coeff-Com: -0.226D-02-0.361D-01-0.672D-01 0.151D+00 0.955D+00
 Coeff:     -0.226D-02-0.361D-01-0.672D-01 0.151D+00 0.955D+00
 Gap=     0.286 Goal=   None    Shift=    0.000
 RMSDP=5.66D-08 MaxDP=2.38D-06 DE=-2.79D-09 OVMax= 1.69D-05

 Cycle  11  Pass 1  IDiag  1:
 RMSU=  3.10D-08    CP:  1.00D+00  1.05D+00  1.08D+00  1.20D+00  1.09D+00
 E= -155.676159946077     Delta-E=       -0.000000000406 Rises=F Damp=F
 DIIS: error= 2.75D-07 at cycle   6 NSaved=   6.
 NSaved= 6 IEnMin= 6 EnMin= -155.676159946077     IErMin= 6 ErrMin= 2.75D-07
 ErrMax= 2.75D-07  0.00D+00 EMaxC= 1.00D-01 BMatC= 2.05D-11 BMatP= 2.15D-10
 IDIUse=1 WtCom= 1.00D+00 WtEn= 0.00D+00
 Coeff-Com:  0.119D-02-0.194D-01-0.482D-01-0.117D-01 0.306D+00 0.772D+00
 Coeff:      0.119D-02-0.194D-01-0.482D-01-0.117D-01 0.306D+00 0.772D+00
 Gap=     0.286 Goal=   None    Shift=    0.000
 RMSDP=1.55D-08 MaxDP=6.01D-07 DE=-4.06D-10 OVMax= 1.92D-06

 Cycle  12  Pass 1  IDiag  1:
 RMSU=  1.25D-08    CP:  1.00D+00  1.05D+00  1.08D+00  1.20D+00  1.14D+00
                    CP:  1.19D+00
 E= -155.676159946106     Delta-E=       -0.000000000029 Rises=F Damp=F
 DIIS: error= 1.49D-07 at cycle   7 NSaved=   7.
 NSaved= 7 IEnMin= 7 EnMin= -155.676159946106     IErMin= 7 ErrMin= 1.49D-07
 ErrMax= 1.49D-07  0.00D+00 EMaxC= 1.00D-01 BMatC= 1.31D-12 BMatP= 2.05D-11
 IDIUse=1 WtCom= 1.00D+00 WtEn= 0.00D+00
 Coeff-Com:  0.411D-03-0.380D-02-0.101D-01-0.493D-02 0.558D-01 0.229D+00
 Coeff-Com:  0.734D+00
 Coeff:      0.411D-03-0.380D-02-0.101D-01-0.493D-02 0.558D-01 0.229D+00
 Coeff:      0.734D+00
 Gap=     0.286 Goal=   None    Shift=    0.000
 RMSDP=4.70D-09 MaxDP=1.91D-07 DE=-2.91D-11 OVMax= 1.24D-06

 SCF Done:  E(RB2PLYPD3) =  -155.676159946     A.U. after   12 cycles
            NFock= 12  Conv=0.47D-08     -V/T= 2.0047
 KE= 1.549555417047D+02 PE=-5.656774017582D+02 EE= 1.525663970538D+02
 Leave Link  502 at Wed Aug 26 11:34:41 2020, MaxMem=  2097152000 cpu:      1590.8
 (Enter /opt/cluster/programs/g09/g09_d.01/g09/l801.exe)
 DoSCS=T DFT=T ScalE2(SS,OS)=  0.270000  0.270000
 ExpMin= 7.60D-02 ExpMax= 6.70D+04 ExpMxC= 6.47D+02 IAcc=3 IRadAn=         5 AccDes= 0.00D+00
 HarFok:  IExCor=  205 AccDes= 0.00D+00 IRadAn=         5 IDoV=-2 UseB2=F ITyADJ=14
 ICtDFT= 12500011 ScaDFX=  1.000000  1.000000  1.000000  1.000000
 Largest valence mixing into a core orbital is  1.15D-04
 Largest core mixing into a valence orbital is  2.07D-05
 Range of M.O.s used for correlation:     5   408
 NBasis=   408 NAE=    15 NBE=    15 NFC=     4 NFV=     0
 NROrb=    404 NOA=    11 NOB=    11 NVA=   393 NVB=   393

 **** Warning!!: The largest alpha MO coefficient is  0.23754944D+02

 Leave Link  801 at Wed Aug 26 11:34:41 2020, MaxMem=  2097152000 cpu:         0.9
 (Enter /opt/cluster/programs/g09/g09_d.01/g09/l906.exe)
 DoSCS=T DFT=T ScalE2(SS,OS)=  0.270000  0.270000
 FulOut=F Deriv=F AODrv=F NAtomX=    10
   MMem=         881  MDisk=          11 MDiskD=          11
  W3Min=     2152854 MinDsk=     3857222 NBas6D=         498
 NBas2D=      125763    NTT=      124251    LW2=     4508827
    MDV=  2096386146 MDiskM=        9345 NBas2p=      116597
 Fully direct method using O(OVN) memory.
 IMap=   1   2   3   4   5   6   7   8   9  10  11
 JobTyp=1 Pass  1:  I=   1 to  11 NPSUse=  8 ParTrn=T ParDer=T DoDerP=F.
 Spin components of T(2) and E(2):
     alpha-alpha T2 =       0.4293505898D-01 E2=     -0.2550623311D-01
     alpha-beta  T2 =       0.2809591622D+00 E2=     -0.1763031947D+00
     beta-beta   T2 =       0.4293505898D-01 E2=     -0.2550623311D-01
 The integrals were generated   1 times.
 E2(B2PLYPD3) =    -0.2273156609D+00 E(B2PLYPD3) =    -0.15590347560705D+03
 Leave Link  906 at Wed Aug 26 11:37:24 2020, MaxMem=  2097152000 cpu:      1300.7
 (Enter /opt/cluster/programs/g09/g09_d.01/g09/l601.exe)
 Copying SCF densities to generalized density rwf, IOpCl= 0 IROHF=0.

 **********************************************************************

            Population analysis using the SCF density.

 **********************************************************************

 Orbital symmetries:
       Occupied  (A) (A) (A) (A) (A) (A) (A) (A) (A) (A) (A) (A)
                 (A) (A) (A)
       Virtual   (A) (A) (A) (A) (A) (A) (A) (A) (A) (A) (A) (A)
                 (A) (A) (A) (A) (A) (A) (A) (A) (A) (A) (A) (A)
                 (A) (A) (A) (A) (A) (A) (A) (A) (A) (A) (A) (A)
                 (A) (A) (A) (A) (A) (A) (A) (A) (A) (A) (A) (A)
                 (A) (A) (A) (A) (A) (A) (A) (A) (A) (A) (A) (A)
                 (A) (A) (A) (A) (A) (A) (A) (A) (A) (A) (A) (A)
                 (A) (A) (A) (A) (A) (A) (A) (A) (A) (A) (A) (A)
                 (A) (A) (A) (A) (A) (A) (A) (A) (A) (A) (A) (A)
                 (A) (A) (A) (A) (A) (A) (A) (A) (A) (A) (A) (A)
                 (A) (A) (A) (A) (A) (A) (A) (A) (A) (A) (A) (A)
                 (A) (A) (A) (A) (A) (A) (A) (A) (A) (A) (A) (A)
                 (A) (A) (A) (A) (A) (A) (A) (A) (A) (A) (A) (A)
                 (A) (A) (A) (A) (A) (A) (A) (A) (A) (A) (A) (A)
                 (A) (A) (A) (A) (A) (A) (A) (A) (A) (A) (A) (A)
                 (A) (A) (A) (A) (A) (A) (A) (A) (A) (A) (A) (A)
                 (A) (A) (A) (A) (A) (A) (A) (A) (A) (A) (A) (A)
                 (A) (A) (A) (A) (A) (A) (A) (A) (A) (A) (A) (A)
                 (A) (A) (A) (A) (A) (A) (A) (A) (A) (A) (A) (A)
                 (A) (A) (A) (A) (A) (A) (A) (A) (A) (A) (A) (A)
                 (A) (A) (A) (A) (A) (A) (A) (A) (A) (A) (A) (A)
                 (A) (A) (A) (A) (A) (A) (A) (A) (A) (A) (A) (A)
                 (A) (A) (A) (A) (A) (A) (A) (A) (A) (A) (A) (A)
                 (A) (A) (A) (A) (A) (A) (A) (A) (A) (A) (A) (A)
                 (A) (A) (A) (A) (A) (A) (A) (A) (A) (A) (A) (A)
                 (A) (A) (A) (A) (A) (A) (A) (A) (A) (A) (A) (A)
                 (A) (A) (A) (A) (A) (A) (A) (A) (A) (A) (A) (A)
                 (A) (A) (A) (A) (A) (A) (A) (A) (A) (A) (A) (A)
                 (A) (A) (A) (A) (A) (A) (A) (A) (A) (A) (A) (A)
                 (A) (A) (A) (A) (A) (A) (A) (A) (A) (A) (A) (A)
                 (A) (A) (A) (A) (A) (A) (A) (A) (A) (A) (A) (A)
                 (A) (A) (A) (A) (A) (A) (A) (A) (A) (A) (A) (A)
                 (A) (A) (A) (A) (A) (A) (A) (A) (A) (A) (A) (A)
                 (A) (A) (A) (A) (A) (A) (A) (A) (A)
 The electronic state is 1-A.
 Alpha  occ. eigenvalues --  -10.63607 -10.63195 -10.62833 -10.61301  -0.92050
 Alpha  occ. eigenvalues --   -0.84372  -0.70509  -0.64759  -0.54468  -0.53227
 Alpha  occ. eigenvalues --   -0.47467  -0.45121  -0.40793  -0.36985  -0.27584
 Alpha virt. eigenvalues --    0.01035   0.06854   0.07496   0.07986   0.08800
 Alpha virt. eigenvalues --    0.11516   0.12611   0.14511   0.15399   0.16555
 Alpha virt. eigenvalues --    0.19170   0.19923   0.21488   0.22848   0.23179
 Alpha virt. eigenvalues --    0.26392   0.26775   0.28409   0.31104   0.32785
 Alpha virt. eigenvalues --    0.33943   0.35084   0.36911   0.37213   0.38888
 Alpha virt. eigenvalues --    0.41982   0.42515   0.44382   0.45738   0.48288
 Alpha virt. eigenvalues --    0.49641   0.51581   0.52614   0.55513   0.57214
 Alpha virt. eigenvalues --    0.59089   0.61946   0.63864   0.66397   0.66845
 Alpha virt. eigenvalues --    0.69372   0.72312   0.75951   0.76226   0.78076
 Alpha virt. eigenvalues --    0.79513   0.79831   0.81703   0.82572   0.83208
 Alpha virt. eigenvalues --    0.84843   0.85733   0.86395   0.87184   0.89500
 Alpha virt. eigenvalues --    0.92217   0.93279   0.93869   0.94983   0.95935
 Alpha virt. eigenvalues --    0.97715   0.98278   1.00220   1.01731   1.02115
 Alpha virt. eigenvalues --    1.05100   1.05885   1.08075   1.11834   1.13288
 Alpha virt. eigenvalues --    1.15293   1.16646   1.18927   1.20191   1.21405
 Alpha virt. eigenvalues --    1.24030   1.26120   1.30417   1.33025   1.36152
 Alpha virt. eigenvalues --    1.36635   1.41206   1.45965   1.49372   1.56067
 Alpha virt. eigenvalues --    1.62194   1.64829   1.69411   1.70698   1.77036
 Alpha virt. eigenvalues --    1.79441   1.81520   1.84750   1.85837   1.89432
 Alpha virt. eigenvalues --    1.90234   1.91015   1.92171   1.93804   1.94667
 Alpha virt. eigenvalues --    1.96801   1.98259   2.00017   2.00844   2.01567
 Alpha virt. eigenvalues --    2.02737   2.04444   2.06537   2.07849   2.08225
 Alpha virt. eigenvalues --    2.09114   2.11792   2.15254   2.16611   2.17553
 Alpha virt. eigenvalues --    2.19777   2.21154   2.24484   2.25124   2.26259
 Alpha virt. eigenvalues --    2.28458   2.31366   2.31983   2.36061   2.40525
 Alpha virt. eigenvalues --    2.42304   2.42815   2.46518   2.46905   2.48380
 Alpha virt. eigenvalues --    2.51806   2.52998   2.53502   2.56264   2.58212
 Alpha virt. eigenvalues --    2.58437   2.61350   2.62138   2.62532   2.64340
 Alpha virt. eigenvalues --    2.67517   2.67752   2.69596   2.71936   2.74676
 Alpha virt. eigenvalues --    2.74872   2.75433   2.77080   2.78638   2.79391
 Alpha virt. eigenvalues --    2.82661   2.88035   2.88057   2.89549   2.92601
 Alpha virt. eigenvalues --    2.96325   2.96693   3.01780   3.04452   3.06204
 Alpha virt. eigenvalues --    3.09644   3.11459   3.17689   3.26731   3.28854
 Alpha virt. eigenvalues --    3.30709   3.36173   3.36834   3.39436   3.42957
 Alpha virt. eigenvalues --    3.47627   3.49156   3.52408   3.54660   3.56822
 Alpha virt. eigenvalues --    3.58718   3.61174   3.61431   3.66037   3.73956
 Alpha virt. eigenvalues --    3.74772   3.80367   3.84393   3.85431   3.90393
 Alpha virt. eigenvalues --    3.92209   3.99094   4.01895   4.03061   4.09228
 Alpha virt. eigenvalues --    4.11782   4.14672   4.17820   4.22048   4.44741
 Alpha virt. eigenvalues --    4.46264   4.56644   4.59143   4.75396   4.94802
 Alpha virt. eigenvalues --    4.97319   5.00747   5.04850   5.09977   5.10475
 Alpha virt. eigenvalues --    5.11800   5.17839   5.19295   5.25914   5.29857
 Alpha virt. eigenvalues --    5.34369   5.34994   5.37100   5.40422   5.43121
 Alpha virt. eigenvalues --    5.54387   5.55025   5.57437   5.63326   5.64827
 Alpha virt. eigenvalues --    5.65508   5.70637   5.71624   5.72440   5.76642
 Alpha virt. eigenvalues --    5.78398   5.79782   5.80515   5.84467   5.85479
 Alpha virt. eigenvalues --    5.90489   5.94210   5.95120   5.99231   6.03907
 Alpha virt. eigenvalues --    6.05067   6.06294   6.10083   6.10806   6.13115
 Alpha virt. eigenvalues --    6.13544   6.14379   6.16322   6.17209   6.19680
 Alpha virt. eigenvalues --    6.21411   6.23286   6.24658   6.25834   6.27408
 Alpha virt. eigenvalues --    6.29478   6.33017   6.34520   6.36618   6.37255
 Alpha virt. eigenvalues --    6.38173   6.40871   6.41593   6.42158   6.47330
 Alpha virt. eigenvalues --    6.49214   6.52490   6.55357   6.56882   6.57142
 Alpha virt. eigenvalues --    6.59054   6.62883   6.69515   6.71119   6.72942
 Alpha virt. eigenvalues --    6.77933   6.78575   6.83505   6.85882   6.87543
 Alpha virt. eigenvalues --    6.92596   6.96236   6.98029   7.00533   7.03721
 Alpha virt. eigenvalues --    7.08033   7.10035   7.11145   7.14218   7.19493
 Alpha virt. eigenvalues --    7.25355   7.26221   7.27703   7.31063   7.43033
 Alpha virt. eigenvalues --    7.44397   7.51729   7.52047   7.53182   7.58266
 Alpha virt. eigenvalues --    7.59738   7.61775   7.62902   7.63968   7.67824
 Alpha virt. eigenvalues --    7.69594   7.71324   7.72759   7.78673   7.79745
 Alpha virt. eigenvalues --    7.82055   7.85500   7.87315   7.88193   7.92570
 Alpha virt. eigenvalues --    7.93679   7.95881   7.99612   8.04837   8.07219
 Alpha virt. eigenvalues --    8.10238   8.11740   8.17419   8.18820   8.20684
 Alpha virt. eigenvalues --    8.23564   8.25956   8.27424   8.31270   8.31573
 Alpha virt. eigenvalues --    8.33729   8.34368   8.36029   8.38036   8.40223
 Alpha virt. eigenvalues --    8.40748   8.42740   8.47216   8.50624   8.51867
 Alpha virt. eigenvalues --    8.56302   8.58682   8.63457   8.63909   8.68947
 Alpha virt. eigenvalues --    8.70283   8.72676   8.75089   8.79214   8.82795
 Alpha virt. eigenvalues --    8.86606   8.90228   8.96876   9.01790   9.06702
 Alpha virt. eigenvalues --    9.17828   9.25506   9.26583   9.27666   9.40009
 Alpha virt. eigenvalues --    9.45337   9.58944   9.73200   9.73982   9.78677
 Alpha virt. eigenvalues --    9.79291   9.85201   9.88442   9.90684   9.96623
 Alpha virt. eigenvalues --   10.06144  10.13954  10.19670  10.23102  10.28907
 Alpha virt. eigenvalues --   10.34914  10.54847  10.66667  10.74368  10.76834
 Alpha virt. eigenvalues --   10.84099  11.07949  11.43221  11.58952  11.66239
 Alpha virt. eigenvalues --   12.09242  12.74554  12.79699  12.95490  12.98663
 Alpha virt. eigenvalues --   28.60851  28.84788  29.38228  29.53592 148.18329
 Alpha virt. eigenvalues --  148.45808 148.97027 149.15344
          Condensed to atoms (all electrons):
               1          2          3          4          5          6
     1  C    4.847856   0.606730  -0.083133  -0.000205   0.414810   0.415998
     2  C    0.606730   4.841058   0.411600  -0.083449  -0.036355  -0.045453
     3  C   -0.083133   0.411600   4.834683   0.616075   0.006721  -0.008804
     4  C   -0.000205  -0.083449   0.616075   4.831086  -0.000618   0.000684
     5  H    0.414810  -0.036355   0.006721  -0.000618   0.590804  -0.048740
     6  H    0.415998  -0.045453  -0.008804   0.000684  -0.048740   0.620153
     7  H   -0.048178   0.406210  -0.054717   0.000272  -0.007834   0.007806
     8  H    0.000387  -0.056332   0.406123  -0.041255  -0.000169   0.004820
     9  H    0.000069  -0.004067  -0.041124   0.432648  -0.000030   0.000061
    10  H   -0.000695   0.007509  -0.041433   0.416776   0.000029  -0.000065
               7          8          9         10
     1  C   -0.048178   0.000387   0.000069  -0.000695
     2  C    0.406210  -0.056332  -0.004067   0.007509
     3  C   -0.054717   0.406123  -0.041124  -0.041433
     4  C    0.000272  -0.041255   0.432648   0.416776
     5  H   -0.007834  -0.000169  -0.000030   0.000029
     6  H    0.007806   0.004820   0.000061  -0.000065
     7  H    0.618907   0.005846   0.002886  -0.000053
     8  H    0.005846   0.605033   0.005708  -0.008164
     9  H    0.002886   0.005708   0.584803  -0.055224
    10  H   -0.000053  -0.008164  -0.055224   0.618277
 Mulliken charges:
               1
     1  C   -0.153638
     2  C   -0.047452
     3  C   -0.045990
     4  C   -0.172014
     5  H    0.081383
     6  H    0.053539
     7  H    0.068856
     8  H    0.078003
     9  H    0.074269
    10  H    0.063044
 Sum of Mulliken charges =   0.00000
 Mulliken charges with hydrogens summed into heavy atoms:
               1
     1  C   -0.018716
     2  C    0.021404
     3  C    0.032013
     4  C   -0.034701
 Electronic spatial extent (au):  <R**2>=            344.6425
 Charge=              0.0000 electrons
 Dipole moment (field-independent basis, Debye):
    X=              0.1081    Y=             -0.0597    Z=             -0.0932  Tot=              0.1547
 Quadrupole moment (field-independent basis, Debye-Ang):
   XX=            -23.2252   YY=            -23.3165   ZZ=            -29.3881
   XY=              0.5748   XZ=              0.6542   YZ=             -0.2185
 Traceless Quadrupole moment (field-independent basis, Debye-Ang):
   XX=              2.0847   YY=              1.9934   ZZ=             -4.0782
   XY=              0.5748   XZ=              0.6542   YZ=             -0.2185
 Octapole moment (field-independent basis, Debye-Ang**2):
  XXX=              0.8314  YYY=             -0.1654  ZZZ=             -0.2447  XYY=             -0.4034
  XXY=             -1.4188  XXZ=             -0.4045  XZZ=             -0.0928  YZZ=             -0.0320
  YYZ=             -0.0501  XYZ=              1.1074
 Hexadecapole moment (field-independent basis, Debye-Ang**3):
 XXXX=           -350.8445 YYYY=            -64.8378 ZZZZ=            -38.8291 XXXY=             -0.9502
 XXXZ=              4.5516 YYYX=              2.5902 YYYZ=             -0.7255 ZZZX=              1.1674
 ZZZY=             -0.3443 XXYY=            -71.5730 XXZZ=            -80.0103 YYZZ=            -19.2832
 XXYZ=             -0.2671 YYXZ=              1.0108 ZZXY=              0.9737
 N-N= 1.024793030535D+02 E-N=-5.656774053733D+02  KE= 1.549555417047D+02
 Leave Link  601 at Wed Aug 26 11:37:25 2020, MaxMem=  2097152000 cpu:         0.7
 (Enter /opt/cluster/programs/g09/g09_d.01/g09/l9999.exe)
 1\1\GINC-NODE38\SP\RB2PLYPD3-FC\def2QZVP\C4H6\BOITTIER\26-Aug-2020\0\\
 #p B2PLYPD3/Def2QZVP\\butadiene\\0,1\C,0,-3.854539,0.213803,-0.053033\
 C,0,-2.745479,-0.511538,0.143476\C,0,-1.378185,0.092266,0.069362\C,0,-
 0.235479,-0.668897,-0.054962\H,0,-4.923213,-0.149629,-0.004819\H,0,-3.
 796813,1.32423,-0.234592\H,0,-2.81747,-1.595793,0.100666\H,0,-1.320277
 ,1.138852,0.190562\H,0,-0.134972,-1.642061,-0.061378\H,0,0.747539,-0.1
 90734,0.141255\\Version=ES64L-G09RevD.01\State=1-A\HF=-155.6761599\MP2
 =-155.9034756\RMSD=4.695e-09\PG=C01 [X(C4H6)]\\@


 THOSE WITH THE GOLD MAKE THE RULES.

             -- PETER'S GOLDEN RULE
 Job cpu time:       0 days  0 hours 48 minutes 26.5 seconds.
 File lengths (MBytes):  RWF=     92 Int=      0 D2E=      0 Chk=      9 Scr=      1
 Normal termination of Gaussian 09 at Wed Aug 26 11:37:25 2020.
