 Entering Gaussian System, Link 0=/opt/cluster/programs/g09/g09_d.01/g09//g09
 Input=/home/boittier/MDCM/nms_sampling/butadiene_geom.xyz.dir/energies/butadiene_470_energy.com
 Output=/scratch/boittier/butadiene_470_energy/butadiene_470_energy.out
 Initial command:
 /opt/cluster/programs/g09/g09_d.01/g09/l1.exe "/scratch/boittier/butadiene_470_energy/Gau-158949.inp" -scrdir="/scratch/boittier/butadiene_470_energy/"
 Entering Link 1 = /opt/cluster/programs/g09/g09_d.01/g09/l1.exe PID=    158950.
  
 Copyright (c) 1988,1990,1992,1993,1995,1998,2003,2009,2013,
            Gaussian, Inc.  All Rights Reserved.
  
 This is part of the Gaussian(R) 09 program.  It is based on
 the Gaussian(R) 03 system (copyright 2003, Gaussian, Inc.),
 the Gaussian(R) 98 system (copyright 1998, Gaussian, Inc.),
 the Gaussian(R) 94 system (copyright 1995, Gaussian, Inc.),
 the Gaussian 92(TM) system (copyright 1992, Gaussian, Inc.),
 the Gaussian 90(TM) system (copyright 1990, Gaussian, Inc.),
 the Gaussian 88(TM) system (copyright 1988, Gaussian, Inc.),
 the Gaussian 86(TM) system (copyright 1986, Carnegie Mellon
 University), and the Gaussian 82(TM) system (copyright 1983,
 Carnegie Mellon University). Gaussian is a federally registered
 trademark of Gaussian, Inc.
  
 This software contains proprietary and confidential information,
 including trade secrets, belonging to Gaussian, Inc.
  
 This software is provided under written license and may be
 used, copied, transmitted, or stored only in accord with that
 written license.
  
 The following legend is applicable only to US Government
 contracts under FAR:
  
                    RESTRICTED RIGHTS LEGEND
  
 Use, reproduction and disclosure by the US Government is
 subject to restrictions as set forth in subparagraphs (a)
 and (c) of the Commercial Computer Software - Restricted
 Rights clause in FAR 52.227-19.
  
 Gaussian, Inc.
 340 Quinnipiac St., Bldg. 40, Wallingford CT 06492
  
  
 ---------------------------------------------------------------
 Warning -- This program may not be used in any manner that
 competes with the business of Gaussian, Inc. or will provide
 assistance to any competitor of Gaussian, Inc.  The licensee
 of this program is prohibited from giving any competitor of
 Gaussian, Inc. access to this program.  By using this program,
 the user acknowledges that Gaussian, Inc. is engaged in the
 business of creating and licensing software in the field of
 computational chemistry and represents and warrants to the
 licensee that it is not a competitor of Gaussian, Inc. and that
 it will not use this program in any manner prohibited above.
 ---------------------------------------------------------------
  

 Cite this work as:
 Gaussian 09, Revision D.01,
 M. J. Frisch, G. W. Trucks, H. B. Schlegel, G. E. Scuseria, 
 M. A. Robb, J. R. Cheeseman, G. Scalmani, V. Barone, B. Mennucci, 
 G. A. Petersson, H. Nakatsuji, M. Caricato, X. Li, H. P. Hratchian, 
 A. F. Izmaylov, J. Bloino, G. Zheng, J. L. Sonnenberg, M. Hada, 
 M. Ehara, K. Toyota, R. Fukuda, J. Hasegawa, M. Ishida, T. Nakajima, 
 Y. Honda, O. Kitao, H. Nakai, T. Vreven, J. A. Montgomery, Jr., 
 J. E. Peralta, F. Ogliaro, M. Bearpark, J. J. Heyd, E. Brothers, 
 K. N. Kudin, V. N. Staroverov, T. Keith, R. Kobayashi, J. Normand, 
 K. Raghavachari, A. Rendell, J. C. Burant, S. S. Iyengar, J. Tomasi, 
 M. Cossi, N. Rega, J. M. Millam, M. Klene, J. E. Knox, J. B. Cross, 
 V. Bakken, C. Adamo, J. Jaramillo, R. Gomperts, R. E. Stratmann, 
 O. Yazyev, A. J. Austin, R. Cammi, C. Pomelli, J. W. Ochterski, 
 R. L. Martin, K. Morokuma, V. G. Zakrzewski, G. A. Voth, 
 P. Salvador, J. J. Dannenberg, S. Dapprich, A. D. Daniels, 
 O. Farkas, J. B. Foresman, J. V. Ortiz, J. Cioslowski, 
 and D. J. Fox, Gaussian, Inc., Wallingford CT, 2013.
 
 ******************************************
 Gaussian 09:  ES64L-G09RevD.01 24-Apr-2013
                26-Aug-2020 
 ******************************************
 %chk=/home/boittier/MDCM/nms_sampling/butadiene_geom.xyz.dir/butadiene_470.chk
 %nproc=8
 Will use up to    8 processors via shared memory.
 %mem=16000MB
 --------------------
 #p B2PLYPD3/Def2QZVP
 --------------------
 1/38=1/1;
 2/12=2,17=6,18=5,40=1/2;
 3/5=45,7=101,11=9,16=1,25=1,30=1,74=-60/1,2,3;
 4//1;
 5/5=2,38=5/2;
 8/10=1/1;
 9/16=-3/6;
 6/7=2,8=2,9=2,10=2/1;
 99/5=1,9=1/99;
 Leave Link    1 at Wed Aug 26 18:52:09 2020, MaxMem=  2097152000 cpu:         0.2
 (Enter /opt/cluster/programs/g09/g09_d.01/g09/l101.exe)
 ---------
 butadiene
 ---------
 Symbolic Z-matrix:
 Charge =  0 Multiplicity = 1
 C                    -3.83389   0.2274   -0.00224 
 C                    -2.7274   -0.51559   0.05469 
 C                    -1.38451   0.06501   0.05409 
 C                    -0.26659  -0.64643   0.00318 
 H                    -4.84504  -0.19657   0.0054 
 H                    -3.70383   1.3357   -0.05787 
 H                    -2.79865  -1.61973   0.08577 
 H                    -1.33302   1.15306  -0.04038 
 H                    -0.28263  -1.70425   0.05398 
 H                     0.70182  -0.15557  -0.0272 
 
 NAtoms=     10 NQM=       10 NQMF=       0 NMMI=      0 NMMIF=      0
                NMic=       0 NMicF=      0.
                    Isotopes and Nuclear Properties:
 (Nuclear quadrupole moments (NQMom) in fm**2, nuclear magnetic moments (NMagM)
  in nuclear magnetons)

  Atom         1           2           3           4           5           6           7           8           9          10
 IAtWgt=          12          12          12          12           1           1           1           1           1           1
 AtmWgt=  12.0000000  12.0000000  12.0000000  12.0000000   1.0078250   1.0078250   1.0078250   1.0078250   1.0078250   1.0078250
 NucSpn=           0           0           0           0           1           1           1           1           1           1
 AtZEff=   0.0000000   0.0000000   0.0000000   0.0000000   0.0000000   0.0000000   0.0000000   0.0000000   0.0000000   0.0000000
 NQMom=    0.0000000   0.0000000   0.0000000   0.0000000   0.0000000   0.0000000   0.0000000   0.0000000   0.0000000   0.0000000
 NMagM=    0.0000000   0.0000000   0.0000000   0.0000000   2.7928460   2.7928460   2.7928460   2.7928460   2.7928460   2.7928460
 AtZNuc=   6.0000000   6.0000000   6.0000000   6.0000000   1.0000000   1.0000000   1.0000000   1.0000000   1.0000000   1.0000000
 Leave Link  101 at Wed Aug 26 18:52:10 2020, MaxMem=  2097152000 cpu:         0.5
 (Enter /opt/cluster/programs/g09/g09_d.01/g09/l202.exe)
                          Input orientation:                          
 ---------------------------------------------------------------------
 Center     Atomic      Atomic             Coordinates (Angstroms)
 Number     Number       Type             X           Y           Z
 ---------------------------------------------------------------------
      1          6           0       -3.833888    0.227403   -0.002243
      2          6           0       -2.727399   -0.515588    0.054685
      3          6           0       -1.384506    0.065010    0.054093
      4          6           0       -0.266591   -0.646426    0.003184
      5          1           0       -4.845040   -0.196570    0.005401
      6          1           0       -3.703825    1.335703   -0.057867
      7          1           0       -2.798653   -1.619727    0.085767
      8          1           0       -1.333021    1.153060   -0.040383
      9          1           0       -0.282631   -1.704249    0.053982
     10          1           0        0.701821   -0.155570   -0.027202
 ---------------------------------------------------------------------
                    Distance matrix (angstroms):
                    1          2          3          4          5
     1  C    0.000000
     2  C    1.334014   0.000000
     3  C    2.455406   1.463030   0.000000
     4  C    3.672767   2.464822   1.326072   0.000000
     5  H    1.096467   2.142103   3.470748   4.600497   0.000000
     6  H    1.117291   2.096033   2.646967   3.968267   1.911605
     7  H    2.119280   1.106872   2.199808   2.713940   2.493899
     8  H    2.666952   2.176629   1.093357   2.092205   3.762695
     9  H    4.043002   2.718420   2.084324   1.059163   4.805313
    10  H    4.551917   3.449039   2.099530   1.086133   5.547108
                    6          7          8          9         10
     6  H    0.000000
     7  H    3.094274   0.000000
     8  H    2.377893   3.138844   0.000000
     9  H    4.578033   2.517642   3.045725   0.000000
    10  H    4.651296   3.796029   2.419353   1.836884   0.000000
 Stoichiometry    C4H6
 Framework group  C1[X(C4H6)]
 Deg. of freedom    24
 Full point group                 C1      NOp   1
 Largest Abelian subgroup         C1      NOp   1
 Largest concise Abelian subgroup C1      NOp   1
                         Standard orientation:                         
 ---------------------------------------------------------------------
 Center     Atomic      Atomic             Coordinates (Angstroms)
 Number     Number       Type             X           Y           Z
 ---------------------------------------------------------------------
      1          6           0       -1.832643    0.118959   -0.017233
      2          6           0       -0.611974   -0.417970    0.018364
      3          6           0        0.606889    0.390830    0.044297
      4          6           0        1.833017   -0.109206   -0.026708
      5          1           0       -2.752728   -0.477315   -0.029099
      6          1           0       -1.900986    1.234045   -0.033085
      7          1           0       -0.486534   -1.517681    0.010101
      8          1           0        0.464724    1.473470   -0.011450
      9          1           0        2.004634   -1.154288   -0.013385
     10          1           0        2.699152    0.546095   -0.035398
 ---------------------------------------------------------------------
 Rotational constants (GHZ):     41.4228882      4.4839454      4.0487509
 Leave Link  202 at Wed Aug 26 18:52:10 2020, MaxMem=  2097152000 cpu:         0.0
 (Enter /opt/cluster/programs/g09/g09_d.01/g09/l301.exe)
 Standard basis: def2QZVP (5D, 7F)
 Ernie: Thresh=  0.10000D-02 Tol=  0.10000D-05 Strict=F.
 There are   498 symmetry adapted cartesian basis functions of A   symmetry.
 There are   408 symmetry adapted basis functions of A   symmetry.
   408 basis functions,   596 primitive gaussians,   498 cartesian basis functions
    15 alpha electrons       15 beta electrons
       nuclear repulsion energy       103.9166118532 Hartrees.
 IExCor=  419 DFT=T Ex+Corr=B2PLYPD3 ExCW=0 ScaHFX=  0.530000
 ScaDFX=  0.470000  0.470000  0.730000  0.730000 ScalE2=  0.270000  0.270000
 IRadAn=      0 IRanWt=     -1 IRanGd=            0 ICorTp=0 IEmpDi=141
 NAtoms=   10 NActive=   10 NUniq=   10 SFac= 1.00D+00 NAtFMM=   60 NAOKFM=F Big=F
 Integral buffers will be    131072 words long.
 Regular integral format.
 Two-electron integral symmetry is turned on.
 R6Disp:  Grimme-D3(BJ) Dispersion energy=       -0.0048442911 Hartrees.
 Nuclear repulsion after empirical dispersion term =      103.9117675621 Hartrees.
 Leave Link  301 at Wed Aug 26 18:52:10 2020, MaxMem=  2097152000 cpu:         0.5
 (Enter /opt/cluster/programs/g09/g09_d.01/g09/l302.exe)
 NPDir=0 NMtPBC=     1 NCelOv=     1 NCel=       1 NClECP=     1 NCelD=      1
         NCelK=      1 NCelE2=     1 NClLst=     1 CellRange=     0.0.
 One-electron integrals computed using PRISM.
   1 Symmetry operations used in ECPInt.
 ECPInt:  NShTT=    8256 NPrTT=   19107 LenC2=    8061 LenP2D=   16127.
 LDataN:  DoStor=T MaxTD1= 8 Len=  415
 NBasis=   408 RedAO= T EigKep=  4.39D-05  NBF=   408
 NBsUse=   408 1.00D-06 EigRej= -1.00D+00 NBFU=   408
 Precomputing XC quadrature grid using
 IXCGrd= 4 IRadAn=           0 IRanWt=          -1 IRanGd=           0 AccXCQ= 0.00D+00.
 Generated NRdTot=       0 NPtTot=           0 NUsed=           0 NTot=          32
 NSgBfM=   498   498   498   498   498 MxSgAt=    10 MxSgA2=    10.
 Leave Link  302 at Wed Aug 26 18:52:10 2020, MaxMem=  2097152000 cpu:         3.2
 (Enter /opt/cluster/programs/g09/g09_d.01/g09/l303.exe)
 DipDrv:  MaxL=1.
 Leave Link  303 at Wed Aug 26 18:52:10 2020, MaxMem=  2097152000 cpu:         0.4
 (Enter /opt/cluster/programs/g09/g09_d.01/g09/l401.exe)
 ExpMin= 7.60D-02 ExpMax= 6.70D+04 ExpMxC= 6.47D+02 IAcc=2 IRadAn=         4 AccDes= 0.00D+00
 Harris functional with IExCor=  419 and IRadAn=       4 diagonalized for initial guess.
 HarFok:  IExCor=  419 AccDes= 0.00D+00 IRadAn=         4 IDoV= 1 UseB2=F ITyADJ=14
 ICtDFT=  3500011 ScaDFX=  1.000000  1.000000  1.000000  1.000000
 FoFCou: FMM=F IPFlag=           0 FMFlag=      100000 FMFlg1=           0
         NFxFlg=           0 DoJE=T BraDBF=F KetDBF=T FulRan=T
         wScrn=  0.000000 ICntrl=     500 IOpCl=  0 I1Cent=   200000004 NGrid=           0
         NMat0=    1 NMatS0=      1 NMatT0=    0 NMatD0=    1 NMtDS0=    0 NMtDT0=    0
 Petite list used in FoFCou.
 Harris En= -156.132724296174    
 JPrj=0 DoOrth=F DoCkMO=F.
 Leave Link  401 at Wed Aug 26 18:52:11 2020, MaxMem=  2097152000 cpu:         8.3
 (Enter /opt/cluster/programs/g09/g09_d.01/g09/l502.exe)
 Closed shell SCF:
 Using DIIS extrapolation, IDIIS=  1040.
 Integral symmetry usage will be decided dynamically.
 IVT=      770090 IEndB=      770090 NGot=  2097152000 MDV=  2096647053
 LenX=  2096647053 LenY=  2096398551
 Requested convergence on RMS density matrix=1.00D-08 within 128 cycles.
 Requested convergence on MAX density matrix=1.00D-06.
 Requested convergence on             energy=1.00D-06.
 No special actions if energy rises.
 Fock matrices will be formed incrementally for  20 cycles.
 Integral accuracy reduced to 1.0D-05 until final iterations.

 Cycle   1  Pass 0  IDiag  1:
 FoFJK:  IHMeth= 1 ICntrl=       0 DoSepK=F KAlg= 0 I1Cent=   0 FoldK=F
 IRaf= 940000000 NMat=   1 IRICut=       1 DoRegI=T DoRafI=F ISym2E= 0.
 FoFCou: FMM=F IPFlag=           0 FMFlag=      100000 FMFlg1=           0
         NFxFlg=           0 DoJE=F BraDBF=F KetDBF=F FulRan=T
         wScrn=  0.000000 ICntrl=       0 IOpCl=  0 I1Cent=           0 NGrid=           0
         NMat0=    1 NMatS0=      1 NMatT0=    0 NMatD0=    1 NMtDS0=    0 NMtDT0=    0
 Symmetry not used in FoFCou.
 E= -155.510631081029    
 DIIS: error= 3.79D-02 at cycle   1 NSaved=   1.
 NSaved= 1 IEnMin= 1 EnMin= -155.510631081029     IErMin= 1 ErrMin= 3.79D-02
 ErrMax= 3.79D-02  0.00D+00 EMaxC= 1.00D-01 BMatC= 2.54D-01 BMatP= 2.54D-01
 IDIUse=3 WtCom= 6.21D-01 WtEn= 3.79D-01
 Coeff-Com:  0.100D+01
 Coeff-En:   0.100D+01
 Coeff:      0.100D+01
 Gap=     0.303 Goal=   None    Shift=    0.000
 GapD=    0.303 DampG=1.000 DampE=0.500 DampFc=0.5000 IDamp=-1.
 Damping current iteration by 5.00D-01
 RMSDP=9.78D-04 MaxDP=5.28D-02              OVMax= 1.94D-01

 Cycle   2  Pass 0  IDiag  1:
 RMSU=  4.51D-04    CP:  9.50D-01
 E= -155.610278561732     Delta-E=       -0.099647480704 Rises=F Damp=T
 DIIS: error= 1.19D-02 at cycle   2 NSaved=   2.
 NSaved= 2 IEnMin= 2 EnMin= -155.610278561732     IErMin= 2 ErrMin= 1.19D-02
 ErrMax= 1.19D-02  0.00D+00 EMaxC= 1.00D-01 BMatC= 2.95D-02 BMatP= 2.54D-01
 IDIUse=3 WtCom= 8.81D-01 WtEn= 1.19D-01
 Coeff-Com: -0.293D+00 0.129D+01
 Coeff-En:   0.000D+00 0.100D+01
 Coeff:     -0.258D+00 0.126D+01
 Gap=     0.359 Goal=   None    Shift=    0.000
 RMSDP=2.87D-04 MaxDP=8.90D-03 DE=-9.96D-02 OVMax= 9.44D-02

 Cycle   3  Pass 0  IDiag  1:
 RMSU=  2.79D-04    CP:  9.32D-01  1.03D+00
 E= -155.696774084758     Delta-E=       -0.086495523026 Rises=F Damp=F
 DIIS: error= 4.38D-03 at cycle   3 NSaved=   3.
 NSaved= 3 IEnMin= 3 EnMin= -155.696774084758     IErMin= 3 ErrMin= 4.38D-03
 ErrMax= 4.38D-03  0.00D+00 EMaxC= 1.00D-01 BMatC= 1.80D-03 BMatP= 2.95D-02
 IDIUse=3 WtCom= 9.56D-01 WtEn= 4.38D-02
 Coeff-Com: -0.109D+00 0.215D+00 0.894D+00
 Coeff-En:   0.000D+00 0.000D+00 0.100D+01
 Coeff:     -0.104D+00 0.205D+00 0.898D+00
 Gap=     0.298 Goal=   None    Shift=    0.000
 RMSDP=6.93D-05 MaxDP=4.09D-03 DE=-8.65D-02 OVMax= 2.20D-02

 Cycle   4  Pass 0  IDiag  1:
 RMSU=  5.07D-05    CP:  9.28D-01  1.12D+00  9.48D-01
 E= -155.698171629107     Delta-E=       -0.001397544349 Rises=F Damp=F
 DIIS: error= 2.22D-03 at cycle   4 NSaved=   4.
 NSaved= 4 IEnMin= 4 EnMin= -155.698171629107     IErMin= 4 ErrMin= 2.22D-03
 ErrMax= 2.22D-03  0.00D+00 EMaxC= 1.00D-01 BMatC= 5.70D-04 BMatP= 1.80D-03
 IDIUse=3 WtCom= 9.78D-01 WtEn= 2.22D-02
 Coeff-Com: -0.496D-01 0.803D-01 0.475D+00 0.494D+00
 Coeff-En:   0.000D+00 0.000D+00 0.126D+00 0.874D+00
 Coeff:     -0.485D-01 0.785D-01 0.467D+00 0.503D+00
 Gap=     0.298 Goal=   None    Shift=    0.000
 RMSDP=2.87D-05 MaxDP=1.40D-03 DE=-1.40D-03 OVMax= 8.57D-03

 Cycle   5  Pass 0  IDiag  1:
 RMSU=  1.58D-05    CP:  9.29D-01  1.11D+00  9.92D-01  6.04D-01
 E= -155.698720977227     Delta-E=       -0.000549348120 Rises=F Damp=F
 DIIS: error= 2.05D-04 at cycle   5 NSaved=   5.
 NSaved= 5 IEnMin= 5 EnMin= -155.698720977227     IErMin= 5 ErrMin= 2.05D-04
 ErrMax= 2.05D-04  0.00D+00 EMaxC= 1.00D-01 BMatC= 4.31D-06 BMatP= 5.70D-04
 IDIUse=3 WtCom= 9.98D-01 WtEn= 2.05D-03
 Coeff-Com: -0.264D-02 0.207D-02 0.353D-01 0.966D-01 0.869D+00
 Coeff-En:   0.000D+00 0.000D+00 0.000D+00 0.000D+00 0.100D+01
 Coeff:     -0.263D-02 0.206D-02 0.352D-01 0.964D-01 0.869D+00
 Gap=     0.298 Goal=   None    Shift=    0.000
 RMSDP=4.33D-06 MaxDP=1.28D-04 DE=-5.49D-04 OVMax= 1.12D-03

 Initial convergence to 1.0D-05 achieved.  Increase integral accuracy.
 Cycle   6  Pass 1  IDiag  1:
 E= -155.698734477263     Delta-E=       -0.000013500036 Rises=F Damp=F
 DIIS: error= 4.31D-05 at cycle   1 NSaved=   1.
 NSaved= 1 IEnMin= 1 EnMin= -155.698734477263     IErMin= 1 ErrMin= 4.31D-05
 ErrMax= 4.31D-05  0.00D+00 EMaxC= 1.00D-01 BMatC= 4.75D-07 BMatP= 4.75D-07
 IDIUse=1 WtCom= 1.00D+00 WtEn= 0.00D+00
 Coeff-Com:  0.100D+01
 Coeff:      0.100D+01
 Gap=     0.298 Goal=   None    Shift=    0.000
 RMSDP=4.33D-06 MaxDP=1.28D-04 DE=-1.35D-05 OVMax= 2.67D-04

 Cycle   7  Pass 1  IDiag  1:
 RMSU=  1.55D-05    CP:  1.00D+00
 E= -155.698734808204     Delta-E=       -0.000000330940 Rises=F Damp=F
 DIIS: error= 1.19D-05 at cycle   2 NSaved=   2.
 NSaved= 2 IEnMin= 2 EnMin= -155.698734808204     IErMin= 2 ErrMin= 1.19D-05
 ErrMax= 1.19D-05  0.00D+00 EMaxC= 1.00D-01 BMatC= 1.56D-08 BMatP= 4.75D-07
 IDIUse=1 WtCom= 1.00D+00 WtEn= 0.00D+00
 Coeff-Com:  0.321D-01 0.968D+00
 Coeff:      0.321D-01 0.968D+00
 Gap=     0.298 Goal=   None    Shift=    0.000
 RMSDP=8.45D-07 MaxDP=2.89D-05 DE=-3.31D-07 OVMax= 1.10D-04

 Cycle   8  Pass 1  IDiag  1:
 RMSU=  5.67D-07    CP:  1.00D+00  1.04D+00
 E= -155.698734823233     Delta-E=       -0.000000015029 Rises=F Damp=F
 DIIS: error= 1.06D-05 at cycle   3 NSaved=   3.
 NSaved= 3 IEnMin= 3 EnMin= -155.698734823233     IErMin= 3 ErrMin= 1.06D-05
 ErrMax= 1.06D-05  0.00D+00 EMaxC= 1.00D-01 BMatC= 1.11D-08 BMatP= 1.56D-08
 IDIUse=1 WtCom= 1.00D+00 WtEn= 0.00D+00
 Coeff-Com: -0.157D-01 0.450D+00 0.566D+00
 Coeff:     -0.157D-01 0.450D+00 0.566D+00
 Gap=     0.298 Goal=   None    Shift=    0.000
 RMSDP=1.89D-07 MaxDP=9.67D-06 DE=-1.50D-08 OVMax= 5.42D-05

 Cycle   9  Pass 1  IDiag  1:
 RMSU=  1.68D-07    CP:  1.00D+00  1.04D+00  1.08D+00
 E= -155.698734834248     Delta-E=       -0.000000011015 Rises=F Damp=F
 DIIS: error= 3.34D-06 at cycle   4 NSaved=   4.
 NSaved= 4 IEnMin= 4 EnMin= -155.698734834248     IErMin= 4 ErrMin= 3.34D-06
 ErrMax= 3.34D-06  0.00D+00 EMaxC= 1.00D-01 BMatC= 4.83D-10 BMatP= 1.11D-08
 IDIUse=1 WtCom= 1.00D+00 WtEn= 0.00D+00
 Coeff-Com: -0.832D-02 0.231D-01 0.157D+00 0.828D+00
 Coeff:     -0.832D-02 0.231D-01 0.157D+00 0.828D+00
 Gap=     0.298 Goal=   None    Shift=    0.000
 RMSDP=6.11D-08 MaxDP=2.11D-06 DE=-1.10D-08 OVMax= 1.86D-05

 Cycle  10  Pass 1  IDiag  1:
 RMSU=  3.92D-08    CP:  1.00D+00  1.05D+00  1.15D+00  1.05D+00
 E= -155.698734835058     Delta-E=       -0.000000000810 Rises=F Damp=F
 DIIS: error= 7.83D-07 at cycle   5 NSaved=   5.
 NSaved= 5 IEnMin= 5 EnMin= -155.698734835058     IErMin= 5 ErrMin= 7.83D-07
 ErrMax= 7.83D-07  0.00D+00 EMaxC= 1.00D-01 BMatC= 4.97D-11 BMatP= 4.83D-10
 IDIUse=1 WtCom= 1.00D+00 WtEn= 0.00D+00
 Coeff-Com:  0.662D-03-0.511D-01-0.566D-01 0.152D+00 0.955D+00
 Coeff:      0.662D-03-0.511D-01-0.566D-01 0.152D+00 0.955D+00
 Gap=     0.298 Goal=   None    Shift=    0.000
 RMSDP=2.52D-08 MaxDP=1.32D-06 DE=-8.10D-10 OVMax= 6.24D-06

 Cycle  11  Pass 1  IDiag  1:
 RMSU=  1.41D-08    CP:  1.00D+00  1.05D+00  1.18D+00  1.13D+00  1.15D+00
 E= -155.698734835144     Delta-E=       -0.000000000086 Rises=F Damp=F
 DIIS: error= 1.36D-07 at cycle   6 NSaved=   6.
 NSaved= 6 IEnMin= 6 EnMin= -155.698734835144     IErMin= 6 ErrMin= 1.36D-07
 ErrMax= 1.36D-07  0.00D+00 EMaxC= 1.00D-01 BMatC= 3.71D-12 BMatP= 4.97D-11
 IDIUse=1 WtCom= 1.00D+00 WtEn= 0.00D+00
 Coeff-Com:  0.617D-03-0.204D-01-0.297D-01 0.309D-01 0.353D+00 0.665D+00
 Coeff:      0.617D-03-0.204D-01-0.297D-01 0.309D-01 0.353D+00 0.665D+00
 Gap=     0.298 Goal=   None    Shift=    0.000
 RMSDP=3.96D-09 MaxDP=2.00D-07 DE=-8.61D-11 OVMax= 8.96D-07

 SCF Done:  E(RB2PLYPD3) =  -155.698734835     A.U. after   11 cycles
            NFock= 11  Conv=0.40D-08     -V/T= 2.0041
 KE= 1.550610411102D+02 PE=-5.687103405136D+02 EE= 1.540387970061D+02
 Leave Link  502 at Wed Aug 26 18:54:50 2020, MaxMem=  2097152000 cpu:      1267.4
 (Enter /opt/cluster/programs/g09/g09_d.01/g09/l801.exe)
 DoSCS=T DFT=T ScalE2(SS,OS)=  0.270000  0.270000
 ExpMin= 7.60D-02 ExpMax= 6.70D+04 ExpMxC= 6.47D+02 IAcc=3 IRadAn=         5 AccDes= 0.00D+00
 HarFok:  IExCor=  205 AccDes= 0.00D+00 IRadAn=         5 IDoV=-2 UseB2=F ITyADJ=14
 ICtDFT= 12500011 ScaDFX=  1.000000  1.000000  1.000000  1.000000
 Largest valence mixing into a core orbital is  1.12D-04
 Largest core mixing into a valence orbital is  2.01D-05
 Range of M.O.s used for correlation:     5   408
 NBasis=   408 NAE=    15 NBE=    15 NFC=     4 NFV=     0
 NROrb=    404 NOA=    11 NOB=    11 NVA=   393 NVB=   393

 **** Warning!!: The largest alpha MO coefficient is  0.28602322D+02

 Leave Link  801 at Wed Aug 26 18:54:50 2020, MaxMem=  2097152000 cpu:         0.8
 (Enter /opt/cluster/programs/g09/g09_d.01/g09/l906.exe)
 DoSCS=T DFT=T ScalE2(SS,OS)=  0.270000  0.270000
 FulOut=F Deriv=F AODrv=F NAtomX=    10
   MMem=         881  MDisk=          11 MDiskD=          11
  W3Min=     2152854 MinDsk=     3857222 NBas6D=         498
 NBas2D=      125763    NTT=      124251    LW2=     4508827
    MDV=  2096382192 MDiskM=        9345 NBas2p=      117641
 Fully direct method using O(OVN) memory.
 IMap=   1   2   3   4   5   6   7   8   9  10  11
 JobTyp=1 Pass  1:  I=   1 to  11 NPSUse=  8 ParTrn=T ParDer=T DoDerP=F.
 Spin components of T(2) and E(2):
     alpha-alpha T2 =       0.4207641539D-01 E2=     -0.2542346865D-01
     alpha-beta  T2 =       0.2723702954D+00 E2=     -0.1750385293D+00
     beta-beta   T2 =       0.4207641539D-01 E2=     -0.2542346865D-01
 The integrals were generated   1 times.
 E2(B2PLYPD3) =    -0.2258854666D+00 E(B2PLYPD3) =    -0.15592462030177D+03
 Leave Link  906 at Wed Aug 26 18:56:23 2020, MaxMem=  2097152000 cpu:       738.3
 (Enter /opt/cluster/programs/g09/g09_d.01/g09/l601.exe)
 Copying SCF densities to generalized density rwf, IOpCl= 0 IROHF=0.

 **********************************************************************

            Population analysis using the SCF density.

 **********************************************************************

 Orbital symmetries:
       Occupied  (A) (A) (A) (A) (A) (A) (A) (A) (A) (A) (A) (A)
                 (A) (A) (A)
       Virtual   (A) (A) (A) (A) (A) (A) (A) (A) (A) (A) (A) (A)
                 (A) (A) (A) (A) (A) (A) (A) (A) (A) (A) (A) (A)
                 (A) (A) (A) (A) (A) (A) (A) (A) (A) (A) (A) (A)
                 (A) (A) (A) (A) (A) (A) (A) (A) (A) (A) (A) (A)
                 (A) (A) (A) (A) (A) (A) (A) (A) (A) (A) (A) (A)
                 (A) (A) (A) (A) (A) (A) (A) (A) (A) (A) (A) (A)
                 (A) (A) (A) (A) (A) (A) (A) (A) (A) (A) (A) (A)
                 (A) (A) (A) (A) (A) (A) (A) (A) (A) (A) (A) (A)
                 (A) (A) (A) (A) (A) (A) (A) (A) (A) (A) (A) (A)
                 (A) (A) (A) (A) (A) (A) (A) (A) (A) (A) (A) (A)
                 (A) (A) (A) (A) (A) (A) (A) (A) (A) (A) (A) (A)
                 (A) (A) (A) (A) (A) (A) (A) (A) (A) (A) (A) (A)
                 (A) (A) (A) (A) (A) (A) (A) (A) (A) (A) (A) (A)
                 (A) (A) (A) (A) (A) (A) (A) (A) (A) (A) (A) (A)
                 (A) (A) (A) (A) (A) (A) (A) (A) (A) (A) (A) (A)
                 (A) (A) (A) (A) (A) (A) (A) (A) (A) (A) (A) (A)
                 (A) (A) (A) (A) (A) (A) (A) (A) (A) (A) (A) (A)
                 (A) (A) (A) (A) (A) (A) (A) (A) (A) (A) (A) (A)
                 (A) (A) (A) (A) (A) (A) (A) (A) (A) (A) (A) (A)
                 (A) (A) (A) (A) (A) (A) (A) (A) (A) (A) (A) (A)
                 (A) (A) (A) (A) (A) (A) (A) (A) (A) (A) (A) (A)
                 (A) (A) (A) (A) (A) (A) (A) (A) (A) (A) (A) (A)
                 (A) (A) (A) (A) (A) (A) (A) (A) (A) (A) (A) (A)
                 (A) (A) (A) (A) (A) (A) (A) (A) (A) (A) (A) (A)
                 (A) (A) (A) (A) (A) (A) (A) (A) (A) (A) (A) (A)
                 (A) (A) (A) (A) (A) (A) (A) (A) (A) (A) (A) (A)
                 (A) (A) (A) (A) (A) (A) (A) (A) (A) (A) (A) (A)
                 (A) (A) (A) (A) (A) (A) (A) (A) (A) (A) (A) (A)
                 (A) (A) (A) (A) (A) (A) (A) (A) (A) (A) (A) (A)
                 (A) (A) (A) (A) (A) (A) (A) (A) (A) (A) (A) (A)
                 (A) (A) (A) (A) (A) (A) (A) (A) (A) (A) (A) (A)
                 (A) (A) (A) (A) (A) (A) (A) (A) (A) (A) (A) (A)
                 (A) (A) (A) (A) (A) (A) (A) (A) (A)
 The electronic state is 1-A.
 Alpha  occ. eigenvalues --  -10.62799 -10.62514 -10.62027 -10.61146  -0.92953
 Alpha  occ. eigenvalues --   -0.84989  -0.69657  -0.63776  -0.54454  -0.53792
 Alpha  occ. eigenvalues --   -0.46666  -0.45249  -0.40965  -0.38142  -0.27855
 Alpha virt. eigenvalues --    0.01955   0.07011   0.07288   0.08008   0.09500
 Alpha virt. eigenvalues --    0.11702   0.12444   0.14538   0.15755   0.16108
 Alpha virt. eigenvalues --    0.18689   0.20227   0.21553   0.22950   0.23988
 Alpha virt. eigenvalues --    0.26827   0.26947   0.29296   0.31456   0.34632
 Alpha virt. eigenvalues --    0.35916   0.36845   0.37298   0.38151   0.40159
 Alpha virt. eigenvalues --    0.42256   0.43278   0.45597   0.46685   0.48161
 Alpha virt. eigenvalues --    0.48961   0.49837   0.52526   0.55331   0.57041
 Alpha virt. eigenvalues --    0.58353   0.60031   0.64441   0.66535   0.68379
 Alpha virt. eigenvalues --    0.68732   0.71300   0.76768   0.77409   0.79295
 Alpha virt. eigenvalues --    0.79616   0.80563   0.81243   0.82460   0.84288
 Alpha virt. eigenvalues --    0.84897   0.85654   0.86260   0.87065   0.90710
 Alpha virt. eigenvalues --    0.92392   0.93631   0.94445   0.95269   0.96268
 Alpha virt. eigenvalues --    0.98625   0.99005   1.00542   1.03364   1.05241
 Alpha virt. eigenvalues --    1.05746   1.08601   1.10412   1.11990   1.12625
 Alpha virt. eigenvalues --    1.14286   1.17395   1.18916   1.21133   1.22634
 Alpha virt. eigenvalues --    1.24867   1.26481   1.33838   1.34853   1.36744
 Alpha virt. eigenvalues --    1.36917   1.40345   1.46892   1.60524   1.63326
 Alpha virt. eigenvalues --    1.65369   1.67809   1.71562   1.72057   1.73149
 Alpha virt. eigenvalues --    1.75301   1.80487   1.82846   1.84323   1.87745
 Alpha virt. eigenvalues --    1.90296   1.90750   1.91966   1.93690   1.94369
 Alpha virt. eigenvalues --    1.95161   1.99360   1.99834   2.00587   2.02387
 Alpha virt. eigenvalues --    2.03884   2.05819   2.07088   2.08310   2.09826
 Alpha virt. eigenvalues --    2.10494   2.12396   2.14855   2.17013   2.17710
 Alpha virt. eigenvalues --    2.18667   2.21703   2.23303   2.26195   2.28107
 Alpha virt. eigenvalues --    2.30302   2.31852   2.33257   2.39032   2.42893
 Alpha virt. eigenvalues --    2.43614   2.45042   2.46197   2.47854   2.49750
 Alpha virt. eigenvalues --    2.52826   2.54011   2.55712   2.57472   2.58899
 Alpha virt. eigenvalues --    2.59640   2.60690   2.62786   2.63940   2.64766
 Alpha virt. eigenvalues --    2.66027   2.68254   2.70270   2.71159   2.72170
 Alpha virt. eigenvalues --    2.72325   2.76245   2.76448   2.77425   2.78918
 Alpha virt. eigenvalues --    2.81302   2.88362   2.88867   2.92280   2.93313
 Alpha virt. eigenvalues --    2.94288   3.03155   3.06055   3.07687   3.08336
 Alpha virt. eigenvalues --    3.13044   3.14534   3.24473   3.33718   3.34221
 Alpha virt. eigenvalues --    3.38937   3.39857   3.41171   3.43822   3.46349
 Alpha virt. eigenvalues --    3.47932   3.49492   3.51795   3.53593   3.57528
 Alpha virt. eigenvalues --    3.60925   3.61220   3.62389   3.68095   3.75324
 Alpha virt. eigenvalues --    3.78371   3.82242   3.85940   3.88867   3.91567
 Alpha virt. eigenvalues --    3.95765   3.96079   4.00008   4.03885   4.14018
 Alpha virt. eigenvalues --    4.16163   4.16871   4.19831   4.25701   4.45509
 Alpha virt. eigenvalues --    4.52535   4.55691   4.57065   4.86625   4.99862
 Alpha virt. eigenvalues --    5.00542   5.03101   5.05236   5.06597   5.08554
 Alpha virt. eigenvalues --    5.12447   5.17668   5.20819   5.28150   5.30880
 Alpha virt. eigenvalues --    5.32522   5.38635   5.39682   5.45305   5.49227
 Alpha virt. eigenvalues --    5.52806   5.54854   5.57410   5.59547   5.62891
 Alpha virt. eigenvalues --    5.65109   5.70146   5.74993   5.76633   5.77594
 Alpha virt. eigenvalues --    5.78910   5.80610   5.82155   5.85328   5.86465
 Alpha virt. eigenvalues --    5.89750   5.90085   5.99236   6.00669   6.02723
 Alpha virt. eigenvalues --    6.04223   6.06054   6.08046   6.08537   6.10833
 Alpha virt. eigenvalues --    6.13852   6.14895   6.16783   6.17668   6.19388
 Alpha virt. eigenvalues --    6.22507   6.23315   6.27101   6.30302   6.32002
 Alpha virt. eigenvalues --    6.34819   6.35792   6.36331   6.37912   6.38371
 Alpha virt. eigenvalues --    6.39705   6.40114   6.41934   6.45918   6.50255
 Alpha virt. eigenvalues --    6.51148   6.51937   6.53313   6.55779   6.60498
 Alpha virt. eigenvalues --    6.63600   6.63885   6.67010   6.71882   6.78461
 Alpha virt. eigenvalues --    6.79645   6.85444   6.87311   6.88207   6.91043
 Alpha virt. eigenvalues --    6.92335   6.94537   6.97245   7.03383   7.08378
 Alpha virt. eigenvalues --    7.12104   7.15218   7.17129   7.19081   7.21595
 Alpha virt. eigenvalues --    7.23928   7.26632   7.35515   7.36445   7.37185
 Alpha virt. eigenvalues --    7.47488   7.48979   7.53797   7.55358   7.58276
 Alpha virt. eigenvalues --    7.60046   7.63880   7.65117   7.65628   7.67236
 Alpha virt. eigenvalues --    7.69476   7.72418   7.73761   7.75296   7.76344
 Alpha virt. eigenvalues --    7.79820   7.81668   7.83773   7.90299   7.92627
 Alpha virt. eigenvalues --    7.93565   7.96021   8.05348   8.08512   8.11977
 Alpha virt. eigenvalues --    8.14164   8.15090   8.16904   8.18574   8.20004
 Alpha virt. eigenvalues --    8.26649   8.30055   8.31463   8.32777   8.34780
 Alpha virt. eigenvalues --    8.35413   8.37023   8.37864   8.40830   8.43408
 Alpha virt. eigenvalues --    8.46329   8.47486   8.53027   8.53818   8.57311
 Alpha virt. eigenvalues --    8.58895   8.59990   8.62427   8.66681   8.69507
 Alpha virt. eigenvalues --    8.72765   8.74715   8.75433   8.79205   8.86145
 Alpha virt. eigenvalues --    8.87772   8.90209   8.93756   9.03048   9.11298
 Alpha virt. eigenvalues --    9.18902   9.20704   9.28680   9.31865   9.43010
 Alpha virt. eigenvalues --    9.51912   9.61292   9.71193   9.73237   9.80308
 Alpha virt. eigenvalues --    9.84488   9.84898   9.90112   9.93173   9.96341
 Alpha virt. eigenvalues --   10.02839  10.15180  10.17898  10.24561  10.28238
 Alpha virt. eigenvalues --   10.31885  10.36267  10.50976  10.72811  10.78631
 Alpha virt. eigenvalues --   10.86397  11.13949  11.45895  11.61835  11.85735
 Alpha virt. eigenvalues --   11.96411  12.81810  12.98413  13.07989  13.23477
 Alpha virt. eigenvalues --   28.59465  28.76318  29.45981  29.64121 148.18119
 Alpha virt. eigenvalues --  148.33997 149.05115 149.24960
          Condensed to atoms (all electrons):
               1          2          3          4          5          6
     1  C    4.846548   0.614472  -0.079123  -0.002135   0.421907   0.422054
     2  C    0.614472   4.837220   0.405289  -0.080991  -0.042717  -0.048432
     3  C   -0.079123   0.405289   4.831944   0.614170   0.007318  -0.010448
     4  C   -0.002135  -0.080991   0.614170   4.840822  -0.000640   0.000505
     5  H    0.421907  -0.042717   0.007318  -0.000640   0.574547  -0.042060
     6  H    0.422054  -0.048432  -0.010448   0.000505  -0.042060   0.605610
     7  H   -0.049023   0.407786  -0.058880  -0.000713  -0.008461   0.008109
     8  H   -0.002506  -0.059585   0.409327  -0.048072  -0.000076   0.005212
     9  H    0.000226  -0.008015  -0.048825   0.426839  -0.000031   0.000047
    10  H   -0.000643   0.007655  -0.046429   0.426738   0.000027  -0.000049
               7          8          9         10
     1  C   -0.049023  -0.002506   0.000226  -0.000643
     2  C    0.407786  -0.059585  -0.008015   0.007655
     3  C   -0.058880   0.409327  -0.048825  -0.046429
     4  C   -0.000713  -0.048072   0.426839   0.426738
     5  H   -0.008461  -0.000076  -0.000031   0.000027
     6  H    0.008109   0.005212   0.000047  -0.000049
     7  H    0.639296   0.006817   0.004466  -0.000139
     8  H    0.006817   0.638748   0.007945  -0.010033
     9  H    0.004466   0.007945   0.593236  -0.044489
    10  H   -0.000139  -0.010033  -0.044489   0.583243
 Mulliken charges:
               1
     1  C   -0.171777
     2  C   -0.032682
     3  C   -0.024342
     4  C   -0.176524
     5  H    0.090185
     6  H    0.059451
     7  H    0.050743
     8  H    0.052223
     9  H    0.068601
    10  H    0.084121
 Sum of Mulliken charges =   0.00000
 Mulliken charges with hydrogens summed into heavy atoms:
               1
     1  C   -0.022141
     2  C    0.018060
     3  C    0.027882
     4  C   -0.023801
 Electronic spatial extent (au):  <R**2>=            334.0268
 Charge=              0.0000 electrons
 Dipole moment (field-independent basis, Debye):
    X=              0.0123    Y=             -0.0360    Z=             -0.0566  Tot=              0.0682
 Quadrupole moment (field-independent basis, Debye-Ang):
   XX=            -23.5632   YY=            -23.1112   ZZ=            -29.3150
   XY=              0.0027   XZ=             -0.0064   YZ=             -0.0704
 Traceless Quadrupole moment (field-independent basis, Debye-Ang):
   XX=              1.7666   YY=              2.2186   ZZ=             -3.9852
   XY=              0.0027   XZ=             -0.0064   YZ=             -0.0704
 Octapole moment (field-independent basis, Debye-Ang**2):
  XXX=             -0.0200  YYY=             -0.0853  ZZZ=             -0.0751  XYY=              0.2961
  XXY=             -0.5844  XXZ=             -0.3950  XZZ=              0.2176  YZZ=             -0.0533
  YYZ=             -0.1742  XYZ=             -0.0218
 Hexadecapole moment (field-independent basis, Debye-Ang**3):
 XXXX=           -341.6701 YYYY=            -66.3115 ZZZZ=            -36.8547 XXXY=              7.5910
 XXXZ=             -0.0586 YYYX=             -1.7726 YYYZ=             -0.2524 ZZZX=             -0.0835
 ZZZY=             -0.0576 XXYY=            -68.6681 XXZZ=            -76.7874 YYZZ=            -19.5063
 XXYZ=             -0.1303 YYXZ=              0.0232 ZZXY=             -0.4355
 N-N= 1.039117675621D+02 E-N=-5.687103310467D+02  KE= 1.550610411102D+02
 Leave Link  601 at Wed Aug 26 18:56:23 2020, MaxMem=  2097152000 cpu:         0.8
 (Enter /opt/cluster/programs/g09/g09_d.01/g09/l9999.exe)
 1\1\GINC-NODE30\SP\RB2PLYPD3-FC\def2QZVP\C4H6\BOITTIER\26-Aug-2020\0\\
 #p B2PLYPD3/Def2QZVP\\butadiene\\0,1\C,0,-3.833888,0.227403,-0.002243\
 C,0,-2.727399,-0.515588,0.054685\C,0,-1.384506,0.06501,0.054093\C,0,-0
 .266591,-0.646426,0.003184\H,0,-4.84504,-0.19657,0.005401\H,0,-3.70382
 5,1.335703,-0.057867\H,0,-2.798653,-1.619727,0.085767\H,0,-1.333021,1.
 15306,-0.040383\H,0,-0.282631,-1.704249,0.053982\H,0,0.701821,-0.15557
 ,-0.027202\\Version=ES64L-G09RevD.01\State=1-A\HF=-155.6987348\MP2=-15
 5.9246203\RMSD=3.964e-09\PG=C01 [X(C4H6)]\\@


 DIATOMIC MOLECULES ARE PECULIAR BECAUSE THEY ONLY HAVE TWO ENDS,
 AND THESE ENDS ARE VERY CLOSE TOGETHER.
 KLAUS RUEDENBERG, REV.MOD.PHYS. PG 176, 32, (1960)
 Job cpu time:       0 days  0 hours 33 minutes 41.1 seconds.
 File lengths (MBytes):  RWF=     92 Int=      0 D2E=      0 Chk=      9 Scr=      1
 Normal termination of Gaussian 09 at Wed Aug 26 18:56:23 2020.
