 Entering Gaussian System, Link 0=/opt/cluster/programs/g09/g09_d.01/g09//g09
 Input=/home/boittier/MDCM/nms_sampling/butadiene_geom.xyz.dir/energies/butadiene_2047_energy.com
 Output=/scratch/boittier/butadiene_2047_energy/butadiene_2047_energy.out
 Initial command:
 /opt/cluster/programs/g09/g09_d.01/g09/l1.exe "/scratch/boittier/butadiene_2047_energy/Gau-108469.inp" -scrdir="/scratch/boittier/butadiene_2047_energy/"
 Entering Link 1 = /opt/cluster/programs/g09/g09_d.01/g09/l1.exe PID=    108470.
  
 Copyright (c) 1988,1990,1992,1993,1995,1998,2003,2009,2013,
            Gaussian, Inc.  All Rights Reserved.
  
 This is part of the Gaussian(R) 09 program.  It is based on
 the Gaussian(R) 03 system (copyright 2003, Gaussian, Inc.),
 the Gaussian(R) 98 system (copyright 1998, Gaussian, Inc.),
 the Gaussian(R) 94 system (copyright 1995, Gaussian, Inc.),
 the Gaussian 92(TM) system (copyright 1992, Gaussian, Inc.),
 the Gaussian 90(TM) system (copyright 1990, Gaussian, Inc.),
 the Gaussian 88(TM) system (copyright 1988, Gaussian, Inc.),
 the Gaussian 86(TM) system (copyright 1986, Carnegie Mellon
 University), and the Gaussian 82(TM) system (copyright 1983,
 Carnegie Mellon University). Gaussian is a federally registered
 trademark of Gaussian, Inc.
  
 This software contains proprietary and confidential information,
 including trade secrets, belonging to Gaussian, Inc.
  
 This software is provided under written license and may be
 used, copied, transmitted, or stored only in accord with that
 written license.
  
 The following legend is applicable only to US Government
 contracts under FAR:
  
                    RESTRICTED RIGHTS LEGEND
  
 Use, reproduction and disclosure by the US Government is
 subject to restrictions as set forth in subparagraphs (a)
 and (c) of the Commercial Computer Software - Restricted
 Rights clause in FAR 52.227-19.
  
 Gaussian, Inc.
 340 Quinnipiac St., Bldg. 40, Wallingford CT 06492
  
  
 ---------------------------------------------------------------
 Warning -- This program may not be used in any manner that
 competes with the business of Gaussian, Inc. or will provide
 assistance to any competitor of Gaussian, Inc.  The licensee
 of this program is prohibited from giving any competitor of
 Gaussian, Inc. access to this program.  By using this program,
 the user acknowledges that Gaussian, Inc. is engaged in the
 business of creating and licensing software in the field of
 computational chemistry and represents and warrants to the
 licensee that it is not a competitor of Gaussian, Inc. and that
 it will not use this program in any manner prohibited above.
 ---------------------------------------------------------------
  

 Cite this work as:
 Gaussian 09, Revision D.01,
 M. J. Frisch, G. W. Trucks, H. B. Schlegel, G. E. Scuseria, 
 M. A. Robb, J. R. Cheeseman, G. Scalmani, V. Barone, B. Mennucci, 
 G. A. Petersson, H. Nakatsuji, M. Caricato, X. Li, H. P. Hratchian, 
 A. F. Izmaylov, J. Bloino, G. Zheng, J. L. Sonnenberg, M. Hada, 
 M. Ehara, K. Toyota, R. Fukuda, J. Hasegawa, M. Ishida, T. Nakajima, 
 Y. Honda, O. Kitao, H. Nakai, T. Vreven, J. A. Montgomery, Jr., 
 J. E. Peralta, F. Ogliaro, M. Bearpark, J. J. Heyd, E. Brothers, 
 K. N. Kudin, V. N. Staroverov, T. Keith, R. Kobayashi, J. Normand, 
 K. Raghavachari, A. Rendell, J. C. Burant, S. S. Iyengar, J. Tomasi, 
 M. Cossi, N. Rega, J. M. Millam, M. Klene, J. E. Knox, J. B. Cross, 
 V. Bakken, C. Adamo, J. Jaramillo, R. Gomperts, R. E. Stratmann, 
 O. Yazyev, A. J. Austin, R. Cammi, C. Pomelli, J. W. Ochterski, 
 R. L. Martin, K. Morokuma, V. G. Zakrzewski, G. A. Voth, 
 P. Salvador, J. J. Dannenberg, S. Dapprich, A. D. Daniels, 
 O. Farkas, J. B. Foresman, J. V. Ortiz, J. Cioslowski, 
 and D. J. Fox, Gaussian, Inc., Wallingford CT, 2013.
 
 ******************************************
 Gaussian 09:  ES64L-G09RevD.01 24-Apr-2013
                26-Aug-2020 
 ******************************************
 %chk=/home/boittier/MDCM/nms_sampling/butadiene_geom.xyz.dir/butadiene_2047.chk
 %nproc=8
 Will use up to    8 processors via shared memory.
 %mem=16000MB
 --------------------
 #p B2PLYPD3/Def2QZVP
 --------------------
 1/38=1/1;
 2/12=2,17=6,18=5,40=1/2;
 3/5=45,7=101,11=9,16=1,25=1,30=1,74=-60/1,2,3;
 4//1;
 5/5=2,38=5/2;
 8/10=1/1;
 9/16=-3/6;
 6/7=2,8=2,9=2,10=2/1;
 99/5=1,9=1/99;
 Leave Link    1 at Wed Aug 26 11:55:17 2020, MaxMem=  2097152000 cpu:         0.2
 (Enter /opt/cluster/programs/g09/g09_d.01/g09/l101.exe)
 ---------
 butadiene
 ---------
 Symbolic Z-matrix:
 Charge =  0 Multiplicity = 1
 C                    -3.86107   0.20487   0.04196 
 C                    -2.69213  -0.50603   0.04037 
 C                    -1.37537   0.10619  -0.03835 
 C                    -0.2779   -0.67802   0.05174 
 H                    -4.94833  -0.13764   0.00509 
 H                    -3.81621   1.32054   0.1587 
 H                    -2.7186   -1.60356  -0.27573 
 H                    -1.31342   1.21003  -0.16398 
 H                    -0.30578  -1.70094   0.29862 
 H                     0.74749  -0.22549   0.08663 
 
 NAtoms=     10 NQM=       10 NQMF=       0 NMMI=      0 NMMIF=      0
                NMic=       0 NMicF=      0.
                    Isotopes and Nuclear Properties:
 (Nuclear quadrupole moments (NQMom) in fm**2, nuclear magnetic moments (NMagM)
  in nuclear magnetons)

  Atom         1           2           3           4           5           6           7           8           9          10
 IAtWgt=          12          12          12          12           1           1           1           1           1           1
 AtmWgt=  12.0000000  12.0000000  12.0000000  12.0000000   1.0078250   1.0078250   1.0078250   1.0078250   1.0078250   1.0078250
 NucSpn=           0           0           0           0           1           1           1           1           1           1
 AtZEff=   0.0000000   0.0000000   0.0000000   0.0000000   0.0000000   0.0000000   0.0000000   0.0000000   0.0000000   0.0000000
 NQMom=    0.0000000   0.0000000   0.0000000   0.0000000   0.0000000   0.0000000   0.0000000   0.0000000   0.0000000   0.0000000
 NMagM=    0.0000000   0.0000000   0.0000000   0.0000000   2.7928460   2.7928460   2.7928460   2.7928460   2.7928460   2.7928460
 AtZNuc=   6.0000000   6.0000000   6.0000000   6.0000000   1.0000000   1.0000000   1.0000000   1.0000000   1.0000000   1.0000000
 Leave Link  101 at Wed Aug 26 11:55:17 2020, MaxMem=  2097152000 cpu:         0.5
 (Enter /opt/cluster/programs/g09/g09_d.01/g09/l202.exe)
                          Input orientation:                          
 ---------------------------------------------------------------------
 Center     Atomic      Atomic             Coordinates (Angstroms)
 Number     Number       Type             X           Y           Z
 ---------------------------------------------------------------------
      1          6           0       -3.861074    0.204867    0.041955
      2          6           0       -2.692132   -0.506033    0.040366
      3          6           0       -1.375372    0.106188   -0.038352
      4          6           0       -0.277900   -0.678023    0.051739
      5          1           0       -4.948329   -0.137641    0.005087
      6          1           0       -3.816214    1.320538    0.158695
      7          1           0       -2.718601   -1.603555   -0.275727
      8          1           0       -1.313416    1.210033   -0.163983
      9          1           0       -0.305783   -1.700935    0.298617
     10          1           0        0.747490   -0.225492    0.086628
 ---------------------------------------------------------------------
                    Distance matrix (angstroms):
                    1          2          3          4          5
     1  C    0.000000
     2  C    1.368140   0.000000
     3  C    2.488956   1.454259   0.000000
     4  C    3.690356   2.420377   1.351868   0.000000
     5  H    1.140524   2.286347   3.581531   4.701818   0.000000
     6  H    1.122659   2.148005   2.733347   4.065139   1.852449
     7  H    2.162535   1.142440   2.187197   2.630754   2.683179
     8  H    2.746512   2.210769   1.112697   2.164159   3.880387
     9  H    4.042035   2.681258   2.126796   1.052651   4.907472
    10  H    4.628830   3.451354   2.152249   1.121350   5.697080
                    6          7          8          9         10
     6  H    0.000000
     7  H    3.153379   0.000000
     8  H    2.525932   3.146952   0.000000
     9  H    4.633789   2.482145   3.114973   0.000000
    10  H    4.819004   3.747552   2.524059   1.825173   0.000000
 Stoichiometry    C4H6
 Framework group  C1[X(C4H6)]
 Deg. of freedom    24
 Full point group                 C1      NOp   1
 Largest Abelian subgroup         C1      NOp   1
 Largest concise Abelian subgroup C1      NOp   1
                         Standard orientation:                         
 ---------------------------------------------------------------------
 Center     Atomic      Atomic             Coordinates (Angstroms)
 Number     Number       Type             X           Y           Z
 ---------------------------------------------------------------------
      1          6           0        1.853698    0.078379   -0.030128
      2          6           0        0.574279   -0.405988   -0.013341
      3          6           0       -0.607530    0.438594    0.056498
      4          6           0       -1.830601   -0.132562   -0.017160
      5          1           0        2.859927   -0.456972    0.011056
      6          1           0        2.013495    1.181110   -0.167286
      7          1           0        0.400758   -1.483971    0.322835
      8          1           0       -0.465456    1.537137    0.161919
      9          1           0       -1.991961   -1.147461   -0.245234
     10          1           0       -2.755837    0.499621   -0.058502
 ---------------------------------------------------------------------
 Rotational constants (GHZ):     39.9851257      4.4146794      3.9929876
 Leave Link  202 at Wed Aug 26 11:55:17 2020, MaxMem=  2097152000 cpu:         0.0
 (Enter /opt/cluster/programs/g09/g09_d.01/g09/l301.exe)
 Standard basis: def2QZVP (5D, 7F)
 Ernie: Thresh=  0.10000D-02 Tol=  0.10000D-05 Strict=F.
 There are   498 symmetry adapted cartesian basis functions of A   symmetry.
 There are   408 symmetry adapted basis functions of A   symmetry.
   408 basis functions,   596 primitive gaussians,   498 cartesian basis functions
    15 alpha electrons       15 beta electrons
       nuclear repulsion energy       102.6097150081 Hartrees.
 IExCor=  419 DFT=T Ex+Corr=B2PLYPD3 ExCW=0 ScaHFX=  0.530000
 ScaDFX=  0.470000  0.470000  0.730000  0.730000 ScalE2=  0.270000  0.270000
 IRadAn=      0 IRanWt=     -1 IRanGd=            0 ICorTp=0 IEmpDi=141
 NAtoms=   10 NActive=   10 NUniq=   10 SFac= 1.00D+00 NAtFMM=   60 NAOKFM=F Big=F
 Integral buffers will be    131072 words long.
 Regular integral format.
 Two-electron integral symmetry is turned on.
 R6Disp:  Grimme-D3(BJ) Dispersion energy=       -0.0048053870 Hartrees.
 Nuclear repulsion after empirical dispersion term =      102.6049096211 Hartrees.
 Leave Link  301 at Wed Aug 26 11:55:17 2020, MaxMem=  2097152000 cpu:         0.4
 (Enter /opt/cluster/programs/g09/g09_d.01/g09/l302.exe)
 NPDir=0 NMtPBC=     1 NCelOv=     1 NCel=       1 NClECP=     1 NCelD=      1
         NCelK=      1 NCelE2=     1 NClLst=     1 CellRange=     0.0.
 One-electron integrals computed using PRISM.
   1 Symmetry operations used in ECPInt.
 ECPInt:  NShTT=    8256 NPrTT=   19107 LenC2=    8050 LenP2D=   16086.
 LDataN:  DoStor=T MaxTD1= 8 Len=  415
 NBasis=   408 RedAO= T EigKep=  4.89D-05  NBF=   408
 NBsUse=   408 1.00D-06 EigRej= -1.00D+00 NBFU=   408
 Precomputing XC quadrature grid using
 IXCGrd= 4 IRadAn=           0 IRanWt=          -1 IRanGd=           0 AccXCQ= 0.00D+00.
 Generated NRdTot=       0 NPtTot=           0 NUsed=           0 NTot=          32
 NSgBfM=   498   498   498   498   498 MxSgAt=    10 MxSgA2=    10.
 Leave Link  302 at Wed Aug 26 11:55:17 2020, MaxMem=  2097152000 cpu:         3.9
 (Enter /opt/cluster/programs/g09/g09_d.01/g09/l303.exe)
 DipDrv:  MaxL=1.
 Leave Link  303 at Wed Aug 26 11:55:18 2020, MaxMem=  2097152000 cpu:         0.4
 (Enter /opt/cluster/programs/g09/g09_d.01/g09/l401.exe)
 ExpMin= 7.60D-02 ExpMax= 6.70D+04 ExpMxC= 6.47D+02 IAcc=2 IRadAn=         4 AccDes= 0.00D+00
 Harris functional with IExCor=  419 and IRadAn=       4 diagonalized for initial guess.
 HarFok:  IExCor=  419 AccDes= 0.00D+00 IRadAn=         4 IDoV= 1 UseB2=F ITyADJ=14
 ICtDFT=  3500011 ScaDFX=  1.000000  1.000000  1.000000  1.000000
 FoFCou: FMM=F IPFlag=           0 FMFlag=      100000 FMFlg1=           0
         NFxFlg=           0 DoJE=T BraDBF=F KetDBF=T FulRan=T
         wScrn=  0.000000 ICntrl=     500 IOpCl=  0 I1Cent=   200000004 NGrid=           0
         NMat0=    1 NMatS0=      1 NMatT0=    0 NMatD0=    1 NMtDS0=    0 NMtDT0=    0
 Petite list used in FoFCou.
 Harris En= -156.101228705471    
 JPrj=0 DoOrth=F DoCkMO=F.
 Leave Link  401 at Wed Aug 26 11:55:19 2020, MaxMem=  2097152000 cpu:         9.8
 (Enter /opt/cluster/programs/g09/g09_d.01/g09/l502.exe)
 Closed shell SCF:
 Using DIIS extrapolation, IDIIS=  1040.
 Integral symmetry usage will be decided dynamically.
 IVT=      770090 IEndB=      770090 NGot=  2097152000 MDV=  2096647053
 LenX=  2096647053 LenY=  2096398551
 Requested convergence on RMS density matrix=1.00D-08 within 128 cycles.
 Requested convergence on MAX density matrix=1.00D-06.
 Requested convergence on             energy=1.00D-06.
 No special actions if energy rises.
 Fock matrices will be formed incrementally for  20 cycles.
 Integral accuracy reduced to 1.0D-05 until final iterations.

 Cycle   1  Pass 0  IDiag  1:
 FoFJK:  IHMeth= 1 ICntrl=       0 DoSepK=F KAlg= 0 I1Cent=   0 FoldK=F
 IRaf= 940000000 NMat=   1 IRICut=       1 DoRegI=T DoRafI=F ISym2E= 0.
 FoFCou: FMM=F IPFlag=           0 FMFlag=      100000 FMFlg1=           0
         NFxFlg=           0 DoJE=F BraDBF=F KetDBF=F FulRan=T
         wScrn=  0.000000 ICntrl=       0 IOpCl=  0 I1Cent=           0 NGrid=           0
         NMat0=    1 NMatS0=      1 NMatT0=    0 NMatD0=    1 NMtDS0=    0 NMtDT0=    0
 Symmetry not used in FoFCou.
 E= -155.508906278383    
 DIIS: error= 2.81D-02 at cycle   1 NSaved=   1.
 NSaved= 1 IEnMin= 1 EnMin= -155.508906278383     IErMin= 1 ErrMin= 2.81D-02
 ErrMax= 2.81D-02  0.00D+00 EMaxC= 1.00D-01 BMatC= 2.35D-01 BMatP= 2.35D-01
 IDIUse=3 WtCom= 7.19D-01 WtEn= 2.81D-01
 Coeff-Com:  0.100D+01
 Coeff-En:   0.100D+01
 Coeff:      0.100D+01
 Gap=     0.289 Goal=   None    Shift=    0.000
 GapD=    0.289 DampG=1.000 DampE=0.500 DampFc=0.5000 IDamp=-1.
 Damping current iteration by 5.00D-01
 RMSDP=9.38D-04 MaxDP=5.22D-02              OVMax= 1.89D-01

 Cycle   2  Pass 0  IDiag  1:
 RMSU=  4.33D-04    CP:  9.52D-01
 E= -155.599385147311     Delta-E=       -0.090478868928 Rises=F Damp=T
 DIIS: error= 9.13D-03 at cycle   2 NSaved=   2.
 NSaved= 2 IEnMin= 2 EnMin= -155.599385147311     IErMin= 2 ErrMin= 9.13D-03
 ErrMax= 9.13D-03  0.00D+00 EMaxC= 1.00D-01 BMatC= 2.86D-02 BMatP= 2.35D-01
 IDIUse=3 WtCom= 9.09D-01 WtEn= 9.13D-02
 Coeff-Com: -0.293D+00 0.129D+01
 Coeff-En:   0.000D+00 0.100D+01
 Coeff:     -0.266D+00 0.127D+01
 Gap=     0.346 Goal=   None    Shift=    0.000
 RMSDP=2.73D-04 MaxDP=1.00D-02 DE=-9.05D-02 OVMax= 9.49D-02

 Cycle   3  Pass 0  IDiag  1:
 RMSU=  2.65D-04    CP:  9.36D-01  1.02D+00
 E= -155.678151255528     Delta-E=       -0.078766108217 Rises=F Damp=F
 DIIS: error= 4.50D-03 at cycle   3 NSaved=   3.
 NSaved= 3 IEnMin= 3 EnMin= -155.678151255528     IErMin= 3 ErrMin= 4.50D-03
 ErrMax= 4.50D-03  0.00D+00 EMaxC= 1.00D-01 BMatC= 2.34D-03 BMatP= 2.86D-02
 IDIUse=3 WtCom= 9.55D-01 WtEn= 4.50D-02
 Coeff-Com: -0.127D+00 0.258D+00 0.870D+00
 Coeff-En:   0.000D+00 0.000D+00 0.100D+01
 Coeff:     -0.122D+00 0.246D+00 0.875D+00
 Gap=     0.284 Goal=   None    Shift=    0.000
 RMSDP=7.85D-05 MaxDP=4.97D-03 DE=-7.88D-02 OVMax= 2.39D-02

 Cycle   4  Pass 0  IDiag  1:
 RMSU=  5.64D-05    CP:  9.31D-01  1.13D+00  9.23D-01
 E= -155.679984364727     Delta-E=       -0.001833109200 Rises=F Damp=F
 DIIS: error= 2.23D-03 at cycle   4 NSaved=   4.
 NSaved= 4 IEnMin= 4 EnMin= -155.679984364727     IErMin= 4 ErrMin= 2.23D-03
 ErrMax= 2.23D-03  0.00D+00 EMaxC= 1.00D-01 BMatC= 7.41D-04 BMatP= 2.34D-03
 IDIUse=3 WtCom= 9.78D-01 WtEn= 2.23D-02
 Coeff-Com: -0.596D-01 0.998D-01 0.476D+00 0.484D+00
 Coeff-En:   0.000D+00 0.000D+00 0.138D+00 0.862D+00
 Coeff:     -0.583D-01 0.975D-01 0.468D+00 0.492D+00
 Gap=     0.284 Goal=   None    Shift=    0.000
 RMSDP=3.18D-05 MaxDP=1.81D-03 DE=-1.83D-03 OVMax= 1.06D-02

 Cycle   5  Pass 0  IDiag  1:
 RMSU=  1.62D-05    CP:  9.32D-01  1.12D+00  9.69D-01  5.72D-01
 E= -155.680711333952     Delta-E=       -0.000726969225 Rises=F Damp=F
 DIIS: error= 1.95D-04 at cycle   5 NSaved=   5.
 NSaved= 5 IEnMin= 5 EnMin= -155.680711333952     IErMin= 5 ErrMin= 1.95D-04
 ErrMax= 1.95D-04  0.00D+00 EMaxC= 1.00D-01 BMatC= 4.86D-06 BMatP= 7.41D-04
 IDIUse=3 WtCom= 9.98D-01 WtEn= 1.95D-03
 Coeff-Com: -0.331D-02 0.320D-02 0.358D-01 0.922D-01 0.872D+00
 Coeff-En:   0.000D+00 0.000D+00 0.000D+00 0.000D+00 0.100D+01
 Coeff:     -0.330D-02 0.319D-02 0.357D-01 0.920D-01 0.872D+00
 Gap=     0.284 Goal=   None    Shift=    0.000
 RMSDP=4.67D-06 MaxDP=1.59D-04 DE=-7.27D-04 OVMax= 1.11D-03

 Initial convergence to 1.0D-05 achieved.  Increase integral accuracy.
 Cycle   6  Pass 1  IDiag  1:
 E= -155.680692932365     Delta-E=        0.000018401587 Rises=F Damp=F
 DIIS: error= 4.47D-05 at cycle   1 NSaved=   1.
 NSaved= 1 IEnMin= 1 EnMin= -155.680692932365     IErMin= 1 ErrMin= 4.47D-05
 ErrMax= 4.47D-05  0.00D+00 EMaxC= 1.00D-01 BMatC= 5.54D-07 BMatP= 5.54D-07
 IDIUse=1 WtCom= 1.00D+00 WtEn= 0.00D+00
 Coeff-Com:  0.100D+01
 Coeff:      0.100D+01
 Gap=     0.284 Goal=   None    Shift=    0.000
 RMSDP=4.67D-06 MaxDP=1.59D-04 DE= 1.84D-05 OVMax= 3.65D-04

 Cycle   7  Pass 1  IDiag  1:
 RMSU=  1.90D-05    CP:  1.00D+00
 E= -155.680693318628     Delta-E=       -0.000000386264 Rises=F Damp=F
 DIIS: error= 3.15D-05 at cycle   2 NSaved=   2.
 NSaved= 2 IEnMin= 2 EnMin= -155.680693318628     IErMin= 2 ErrMin= 3.15D-05
 ErrMax= 3.15D-05  0.00D+00 EMaxC= 1.00D-01 BMatC= 1.17D-07 BMatP= 5.54D-07
 IDIUse=1 WtCom= 1.00D+00 WtEn= 0.00D+00
 Coeff-Com:  0.242D+00 0.758D+00
 Coeff:      0.242D+00 0.758D+00
 Gap=     0.284 Goal=   None    Shift=    0.000
 RMSDP=9.54D-07 MaxDP=3.31D-05 DE=-3.86D-07 OVMax= 3.09D-04

 Cycle   8  Pass 1  IDiag  1:
 RMSU=  7.68D-07    CP:  1.00D+00  1.03D+00
 E= -155.680693410525     Delta-E=       -0.000000091896 Rises=F Damp=F
 DIIS: error= 1.73D-05 at cycle   3 NSaved=   3.
 NSaved= 3 IEnMin= 3 EnMin= -155.680693410525     IErMin= 3 ErrMin= 1.73D-05
 ErrMax= 1.73D-05  0.00D+00 EMaxC= 1.00D-01 BMatC= 4.88D-08 BMatP= 1.17D-07
 IDIUse=1 WtCom= 1.00D+00 WtEn= 0.00D+00
 Coeff-Com: -0.169D-01 0.383D+00 0.633D+00
 Coeff:     -0.169D-01 0.383D+00 0.633D+00
 Gap=     0.284 Goal=   None    Shift=    0.000
 RMSDP=4.36D-07 MaxDP=1.76D-05 DE=-9.19D-08 OVMax= 1.14D-04

 Cycle   9  Pass 1  IDiag  1:
 RMSU=  3.27D-07    CP:  1.00D+00  1.04D+00  8.50D-01
 E= -155.680693463423     Delta-E=       -0.000000052898 Rises=F Damp=F
 DIIS: error= 2.89D-06 at cycle   4 NSaved=   4.
 NSaved= 4 IEnMin= 4 EnMin= -155.680693463423     IErMin= 4 ErrMin= 2.89D-06
 ErrMax= 2.89D-06  0.00D+00 EMaxC= 1.00D-01 BMatC= 1.15D-09 BMatP= 4.88D-08
 IDIUse=1 WtCom= 1.00D+00 WtEn= 0.00D+00
 Coeff-Com: -0.156D-01 0.944D-01 0.191D+00 0.730D+00
 Coeff:     -0.156D-01 0.944D-01 0.191D+00 0.730D+00
 Gap=     0.284 Goal=   None    Shift=    0.000
 RMSDP=8.28D-08 MaxDP=3.18D-06 DE=-5.29D-08 OVMax= 2.49D-05

 Cycle  10  Pass 1  IDiag  1:
 RMSU=  6.49D-08    CP:  1.00D+00  1.05D+00  8.86D-01  1.10D+00
 E= -155.680693465086     Delta-E=       -0.000000001663 Rises=F Damp=F
 DIIS: error= 9.16D-07 at cycle   5 NSaved=   5.
 NSaved= 5 IEnMin= 5 EnMin= -155.680693465086     IErMin= 5 ErrMin= 9.16D-07
 ErrMax= 9.16D-07  0.00D+00 EMaxC= 1.00D-01 BMatC= 2.56D-10 BMatP= 1.15D-09
 IDIUse=1 WtCom= 1.00D+00 WtEn= 0.00D+00
 Coeff-Com: -0.119D-02-0.463D-01-0.795D-01 0.237D+00 0.890D+00
 Coeff:     -0.119D-02-0.463D-01-0.795D-01 0.237D+00 0.890D+00
 Gap=     0.284 Goal=   None    Shift=    0.000
 RMSDP=4.49D-08 MaxDP=2.50D-06 DE=-1.66D-09 OVMax= 1.12D-05

 Cycle  11  Pass 1  IDiag  1:
 RMSU=  2.79D-08    CP:  1.00D+00  1.05D+00  9.00D-01  1.20D+00  1.08D+00
 E= -155.680693465463     Delta-E=       -0.000000000377 Rises=F Damp=F
 DIIS: error= 2.18D-07 at cycle   6 NSaved=   6.
 NSaved= 6 IEnMin= 6 EnMin= -155.680693465463     IErMin= 6 ErrMin= 2.18D-07
 ErrMax= 2.18D-07  0.00D+00 EMaxC= 1.00D-01 BMatC= 8.82D-12 BMatP= 2.56D-10
 IDIUse=1 WtCom= 1.00D+00 WtEn= 0.00D+00
 Coeff-Com:  0.879D-03-0.187D-01-0.376D-01 0.254D-01 0.208D+00 0.822D+00
 Coeff:      0.879D-03-0.187D-01-0.376D-01 0.254D-01 0.208D+00 0.822D+00
 Gap=     0.284 Goal=   None    Shift=    0.000
 RMSDP=9.50D-09 MaxDP=2.56D-07 DE=-3.77D-10 OVMax= 2.46D-06

 SCF Done:  E(RB2PLYPD3) =  -155.680693465     A.U. after   11 cycles
            NFock= 11  Conv=0.95D-08     -V/T= 2.0061
 KE= 1.547297531123D+02 PE=-5.657819417969D+02 EE= 1.527665855981D+02
 Leave Link  502 at Wed Aug 26 11:58:25 2020, MaxMem=  2097152000 cpu:      1487.0
 (Enter /opt/cluster/programs/g09/g09_d.01/g09/l801.exe)
 DoSCS=T DFT=T ScalE2(SS,OS)=  0.270000  0.270000
 ExpMin= 7.60D-02 ExpMax= 6.70D+04 ExpMxC= 6.47D+02 IAcc=3 IRadAn=         5 AccDes= 0.00D+00
 HarFok:  IExCor=  205 AccDes= 0.00D+00 IRadAn=         5 IDoV=-2 UseB2=F ITyADJ=14
 ICtDFT= 12500011 ScaDFX=  1.000000  1.000000  1.000000  1.000000
 Largest valence mixing into a core orbital is  1.16D-04
 Largest core mixing into a valence orbital is  2.10D-05
 Range of M.O.s used for correlation:     5   408
 NBasis=   408 NAE=    15 NBE=    15 NFC=     4 NFV=     0
 NROrb=    404 NOA=    11 NOB=    11 NVA=   393 NVB=   393

 **** Warning!!: The largest alpha MO coefficient is  0.25735146D+02

 Leave Link  801 at Wed Aug 26 11:58:26 2020, MaxMem=  2097152000 cpu:         1.0
 (Enter /opt/cluster/programs/g09/g09_d.01/g09/l906.exe)
 DoSCS=T DFT=T ScalE2(SS,OS)=  0.270000  0.270000
 FulOut=F Deriv=F AODrv=F NAtomX=    10
   MMem=         881  MDisk=          11 MDiskD=          11
  W3Min=     2152854 MinDsk=     3857222 NBas6D=         498
 NBas2D=      125763    NTT=      124251    LW2=     4508827
    MDV=  2096384774 MDiskM=        9345 NBas2p=      117151
 Fully direct method using O(OVN) memory.
 IMap=   1   2   3   4   5   6   7   8   9  10  11
 JobTyp=1 Pass  1:  I=   1 to  11 NPSUse=  8 ParTrn=T ParDer=T DoDerP=F.
 Spin components of T(2) and E(2):
     alpha-alpha T2 =       0.4372355138D-01 E2=     -0.2570932941D-01
     alpha-beta  T2 =       0.2861034716D+00 E2=     -0.1771961368D+00
     beta-beta   T2 =       0.4372355138D-01 E2=     -0.2570932941D-01
 The integrals were generated   1 times.
 E2(B2PLYPD3) =    -0.2286147956D+00 E(B2PLYPD3) =    -0.15590930826108D+03
 Leave Link  906 at Wed Aug 26 12:00:16 2020, MaxMem=  2097152000 cpu:       883.1
 (Enter /opt/cluster/programs/g09/g09_d.01/g09/l601.exe)
 Copying SCF densities to generalized density rwf, IOpCl= 0 IROHF=0.

 **********************************************************************

            Population analysis using the SCF density.

 **********************************************************************

 Orbital symmetries:
       Occupied  (A) (A) (A) (A) (A) (A) (A) (A) (A) (A) (A) (A)
                 (A) (A) (A)
       Virtual   (A) (A) (A) (A) (A) (A) (A) (A) (A) (A) (A) (A)
                 (A) (A) (A) (A) (A) (A) (A) (A) (A) (A) (A) (A)
                 (A) (A) (A) (A) (A) (A) (A) (A) (A) (A) (A) (A)
                 (A) (A) (A) (A) (A) (A) (A) (A) (A) (A) (A) (A)
                 (A) (A) (A) (A) (A) (A) (A) (A) (A) (A) (A) (A)
                 (A) (A) (A) (A) (A) (A) (A) (A) (A) (A) (A) (A)
                 (A) (A) (A) (A) (A) (A) (A) (A) (A) (A) (A) (A)
                 (A) (A) (A) (A) (A) (A) (A) (A) (A) (A) (A) (A)
                 (A) (A) (A) (A) (A) (A) (A) (A) (A) (A) (A) (A)
                 (A) (A) (A) (A) (A) (A) (A) (A) (A) (A) (A) (A)
                 (A) (A) (A) (A) (A) (A) (A) (A) (A) (A) (A) (A)
                 (A) (A) (A) (A) (A) (A) (A) (A) (A) (A) (A) (A)
                 (A) (A) (A) (A) (A) (A) (A) (A) (A) (A) (A) (A)
                 (A) (A) (A) (A) (A) (A) (A) (A) (A) (A) (A) (A)
                 (A) (A) (A) (A) (A) (A) (A) (A) (A) (A) (A) (A)
                 (A) (A) (A) (A) (A) (A) (A) (A) (A) (A) (A) (A)
                 (A) (A) (A) (A) (A) (A) (A) (A) (A) (A) (A) (A)
                 (A) (A) (A) (A) (A) (A) (A) (A) (A) (A) (A) (A)
                 (A) (A) (A) (A) (A) (A) (A) (A) (A) (A) (A) (A)
                 (A) (A) (A) (A) (A) (A) (A) (A) (A) (A) (A) (A)
                 (A) (A) (A) (A) (A) (A) (A) (A) (A) (A) (A) (A)
                 (A) (A) (A) (A) (A) (A) (A) (A) (A) (A) (A) (A)
                 (A) (A) (A) (A) (A) (A) (A) (A) (A) (A) (A) (A)
                 (A) (A) (A) (A) (A) (A) (A) (A) (A) (A) (A) (A)
                 (A) (A) (A) (A) (A) (A) (A) (A) (A) (A) (A) (A)
                 (A) (A) (A) (A) (A) (A) (A) (A) (A) (A) (A) (A)
                 (A) (A) (A) (A) (A) (A) (A) (A) (A) (A) (A) (A)
                 (A) (A) (A) (A) (A) (A) (A) (A) (A) (A) (A) (A)
                 (A) (A) (A) (A) (A) (A) (A) (A) (A) (A) (A) (A)
                 (A) (A) (A) (A) (A) (A) (A) (A) (A) (A) (A) (A)
                 (A) (A) (A) (A) (A) (A) (A) (A) (A) (A) (A) (A)
                 (A) (A) (A) (A) (A) (A) (A) (A) (A) (A) (A) (A)
                 (A) (A) (A) (A) (A) (A) (A) (A) (A)
 The electronic state is 1-A.
 Alpha  occ. eigenvalues --  -10.63816 -10.63502 -10.63210 -10.61990  -0.92558
 Alpha  occ. eigenvalues --   -0.83823  -0.69745  -0.63517  -0.54075  -0.52903
 Alpha  occ. eigenvalues --   -0.46650  -0.44417  -0.40835  -0.37352  -0.27380
 Alpha virt. eigenvalues --    0.01052   0.06980   0.07212   0.07495   0.08718
 Alpha virt. eigenvalues --    0.11396   0.12471   0.14353   0.15206   0.16473
 Alpha virt. eigenvalues --    0.18751   0.19583   0.21837   0.22660   0.22942
 Alpha virt. eigenvalues --    0.26021   0.26537   0.29507   0.31035   0.33449
 Alpha virt. eigenvalues --    0.33863   0.35906   0.36273   0.37421   0.38044
 Alpha virt. eigenvalues --    0.40416   0.42021   0.44637   0.46204   0.48218
 Alpha virt. eigenvalues --    0.49410   0.50246   0.52173   0.52544   0.55808
 Alpha virt. eigenvalues --    0.59510   0.63900   0.64481   0.66946   0.67017
 Alpha virt. eigenvalues --    0.70333   0.71984   0.75819   0.76758   0.77651
 Alpha virt. eigenvalues --    0.78035   0.80307   0.82507   0.82662   0.83824
 Alpha virt. eigenvalues --    0.84295   0.85664   0.85974   0.86673   0.89163
 Alpha virt. eigenvalues --    0.91777   0.93003   0.93707   0.95049   0.95612
 Alpha virt. eigenvalues --    0.97952   0.99683   1.00152   1.02257   1.04066
 Alpha virt. eigenvalues --    1.05287   1.05721   1.07395   1.10023   1.12427
 Alpha virt. eigenvalues --    1.13831   1.16360   1.18968   1.20734   1.22904
 Alpha virt. eigenvalues --    1.23963   1.26602   1.29874   1.32467   1.34207
 Alpha virt. eigenvalues --    1.35690   1.41592   1.45088   1.49346   1.58926
 Alpha virt. eigenvalues --    1.59615   1.63838   1.65241   1.70376   1.74993
 Alpha virt. eigenvalues --    1.78614   1.80037   1.83284   1.86458   1.88707
 Alpha virt. eigenvalues --    1.90312   1.91466   1.92885   1.94791   1.95324
 Alpha virt. eigenvalues --    1.98064   1.98841   1.99635   2.01014   2.02556
 Alpha virt. eigenvalues --    2.04292   2.05275   2.06715   2.08666   2.08953
 Alpha virt. eigenvalues --    2.10488   2.13009   2.15286   2.16807   2.19110
 Alpha virt. eigenvalues --    2.20004   2.21303   2.23257   2.24265   2.25345
 Alpha virt. eigenvalues --    2.28136   2.31081   2.35650   2.35852   2.40128
 Alpha virt. eigenvalues --    2.40905   2.44236   2.44956   2.47119   2.47461
 Alpha virt. eigenvalues --    2.50498   2.53395   2.54186   2.55547   2.56210
 Alpha virt. eigenvalues --    2.57867   2.60153   2.61347   2.62253   2.64016
 Alpha virt. eigenvalues --    2.67016   2.67029   2.69646   2.71162   2.72291
 Alpha virt. eigenvalues --    2.72680   2.75561   2.77460   2.78229   2.79690
 Alpha virt. eigenvalues --    2.81177   2.85684   2.87986   2.89698   2.90804
 Alpha virt. eigenvalues --    2.93323   2.95250   2.99950   3.00452   3.04248
 Alpha virt. eigenvalues --    3.07446   3.09250   3.22113   3.25676   3.28441
 Alpha virt. eigenvalues --    3.30849   3.31742   3.35253   3.38430   3.43383
 Alpha virt. eigenvalues --    3.44067   3.45513   3.49209   3.50330   3.52783
 Alpha virt. eigenvalues --    3.55146   3.56291   3.57748   3.63653   3.65825
 Alpha virt. eigenvalues --    3.69577   3.79710   3.82321   3.82990   3.83742
 Alpha virt. eigenvalues --    3.88972   3.91781   3.98335   4.01703   4.06036
 Alpha virt. eigenvalues --    4.10133   4.12679   4.17108   4.23787   4.35302
 Alpha virt. eigenvalues --    4.43215   4.52206   4.55650   4.85426   4.96236
 Alpha virt. eigenvalues --    4.97964   5.00651   5.05748   5.07601   5.10695
 Alpha virt. eigenvalues --    5.13531   5.15633   5.22886   5.25961   5.30257
 Alpha virt. eigenvalues --    5.32545   5.34540   5.38789   5.40630   5.43274
 Alpha virt. eigenvalues --    5.52812   5.55478   5.57585   5.61636   5.64644
 Alpha virt. eigenvalues --    5.66316   5.68602   5.71409   5.72839   5.76387
 Alpha virt. eigenvalues --    5.77938   5.79954   5.81414   5.82547   5.86988
 Alpha virt. eigenvalues --    5.89217   5.91600   5.92687   5.98704   6.01263
 Alpha virt. eigenvalues --    6.03813   6.04752   6.05987   6.09067   6.10873
 Alpha virt. eigenvalues --    6.11681   6.13491   6.14565   6.15631   6.18404
 Alpha virt. eigenvalues --    6.19171   6.20045   6.20923   6.23412   6.25138
 Alpha virt. eigenvalues --    6.27108   6.28818   6.32070   6.33057   6.34946
 Alpha virt. eigenvalues --    6.35628   6.36380   6.38739   6.39215   6.43111
 Alpha virt. eigenvalues --    6.45449   6.46096   6.50022   6.53494   6.55276
 Alpha virt. eigenvalues --    6.56752   6.57746   6.61535   6.65406   6.72318
 Alpha virt. eigenvalues --    6.74310   6.77699   6.79102   6.83551   6.85693
 Alpha virt. eigenvalues --    6.86330   6.89412   6.91424   6.97458   7.01599
 Alpha virt. eigenvalues --    7.02401   7.07570   7.11572   7.13680   7.19447
 Alpha virt. eigenvalues --    7.21201   7.24420   7.29352   7.30099   7.36463
 Alpha virt. eigenvalues --    7.39880   7.47488   7.49593   7.50756   7.53087
 Alpha virt. eigenvalues --    7.55070   7.57559   7.58524   7.61851   7.63095
 Alpha virt. eigenvalues --    7.65705   7.68206   7.69958   7.72801   7.73508
 Alpha virt. eigenvalues --    7.75591   7.79669   7.81479   7.85627   7.85734
 Alpha virt. eigenvalues --    7.90625   7.92416   7.93904   8.04245   8.07771
 Alpha virt. eigenvalues --    8.09728   8.11216   8.15165   8.17704   8.20488
 Alpha virt. eigenvalues --    8.24113   8.25372   8.26816   8.28804   8.29904
 Alpha virt. eigenvalues --    8.31751   8.34524   8.35392   8.36532   8.37072
 Alpha virt. eigenvalues --    8.39012   8.40090   8.43724   8.46259   8.46817
 Alpha virt. eigenvalues --    8.51414   8.52668   8.57267   8.59370   8.61709
 Alpha virt. eigenvalues --    8.64751   8.68158   8.72441   8.72990   8.74889
 Alpha virt. eigenvalues --    8.80831   8.81650   8.86275   8.89116   8.95589
 Alpha virt. eigenvalues --    9.03940   9.12040   9.19569   9.21217   9.29439
 Alpha virt. eigenvalues --    9.41929   9.54475   9.57541   9.64290   9.70969
 Alpha virt. eigenvalues --    9.74675   9.76224   9.79378   9.81636   9.85219
 Alpha virt. eigenvalues --    9.92787   9.99133  10.01494  10.07023  10.07894
 Alpha virt. eigenvalues --   10.15437  10.24066  10.32138  10.51337  10.61740
 Alpha virt. eigenvalues --   10.82404  10.90494  11.16457  11.37712  11.91799
 Alpha virt. eigenvalues --   12.09583  12.59207  12.74035  12.85105  13.02269
 Alpha virt. eigenvalues --   28.51088  28.73008  29.30175  29.49090 148.10034
 Alpha virt. eigenvalues --  148.30797 148.86594 149.07269
          Condensed to atoms (all electrons):
               1          2          3          4          5          6
     1  C    4.863522   0.615176  -0.079331  -0.002102   0.415179   0.410320
     2  C    0.615176   4.852880   0.390847  -0.089013  -0.033226  -0.048263
     3  C   -0.079331   0.390847   4.840221   0.618725   0.005906  -0.007799
     4  C   -0.002102  -0.089013   0.618725   4.842689  -0.000558   0.000451
     5  H    0.415179  -0.033226   0.005906  -0.000558   0.585562  -0.050113
     6  H    0.410320  -0.048263  -0.007799   0.000451  -0.050113   0.631121
     7  H   -0.045995   0.400942  -0.056332  -0.002270  -0.006685   0.007834
     8  H   -0.000471  -0.055717   0.412686  -0.042436  -0.000090   0.004604
     9  H    0.000389  -0.006143  -0.045570   0.424559  -0.000029   0.000053
    10  H   -0.000604   0.007495  -0.042649   0.418615   0.000023  -0.000034
               7          8          9         10
     1  C   -0.045995  -0.000471   0.000389  -0.000604
     2  C    0.400942  -0.055717  -0.006143   0.007495
     3  C   -0.056332   0.412686  -0.045570  -0.042649
     4  C   -0.002270  -0.042436   0.424559   0.418615
     5  H   -0.006685  -0.000090  -0.000029   0.000023
     6  H    0.007834   0.004604   0.000053  -0.000034
     7  H    0.625072   0.006124   0.004063  -0.000004
     8  H    0.006124   0.612629   0.006188  -0.007482
     9  H    0.004063   0.006188   0.587949  -0.046767
    10  H   -0.000004  -0.007482  -0.046767   0.597356
 Mulliken charges:
               1
     1  C   -0.176084
     2  C   -0.034978
     3  C   -0.036705
     4  C   -0.168661
     5  H    0.084029
     6  H    0.051828
     7  H    0.067251
     8  H    0.063963
     9  H    0.075307
    10  H    0.074051
 Sum of Mulliken charges =   0.00000
 Mulliken charges with hydrogens summed into heavy atoms:
               1
     1  C   -0.040227
     2  C    0.032273
     3  C    0.027258
     4  C   -0.019304
 Electronic spatial extent (au):  <R**2>=            340.1206
 Charge=              0.0000 electrons
 Dipole moment (field-independent basis, Debye):
    X=              0.0049    Y=              0.0791    Z=              0.0381  Tot=              0.0880
 Quadrupole moment (field-independent basis, Debye-Ang):
   XX=            -23.3031   YY=            -23.5551   ZZ=            -29.4316
   XY=              0.4261   XZ=              0.5241   YZ=             -0.1342
 Traceless Quadrupole moment (field-independent basis, Debye-Ang):
   XX=              2.1268   YY=              1.8749   ZZ=             -4.0017
   XY=              0.4261   XZ=              0.5241   YZ=             -0.1342
 Octapole moment (field-independent basis, Debye-Ang**2):
  XXX=              2.1422  YYY=              0.6714  ZZZ=              0.0876  XYY=             -0.8570
  XXY=             -0.2979  XXZ=             -1.2981  XZZ=             -0.4253  YZZ=             -0.1549
  YYZ=              0.6084  XYZ=             -1.1259
 Hexadecapole moment (field-independent basis, Debye-Ang**3):
 XXXX=           -342.0903 YYYY=            -68.1904 ZZZZ=            -38.5509 XXXY=             -4.4647
 XXXZ=              3.6594 YYYX=              2.7493 YYYZ=             -0.5255 ZZZX=              1.1293
 ZZZY=             -0.0877 XXYY=            -71.7251 XXZZ=            -78.9646 YYZZ=            -19.5757
 XXYZ=              0.3107 YYXZ=              0.8035 ZZXY=              0.8684
 N-N= 1.026049096211D+02 E-N=-5.657819279070D+02  KE= 1.547297531123D+02
 Leave Link  601 at Wed Aug 26 12:00:16 2020, MaxMem=  2097152000 cpu:         0.7
 (Enter /opt/cluster/programs/g09/g09_d.01/g09/l9999.exe)
 1\1\GINC-NODE15\SP\RB2PLYPD3-FC\def2QZVP\C4H6\BOITTIER\26-Aug-2020\0\\
 #p B2PLYPD3/Def2QZVP\\butadiene\\0,1\C,0,-3.861074,0.204867,0.041955\C
 ,0,-2.692132,-0.506033,0.040366\C,0,-1.375372,0.106188,-0.038352\C,0,-
 0.2779,-0.678023,0.051739\H,0,-4.948329,-0.137641,0.005087\H,0,-3.8162
 14,1.320538,0.158695\H,0,-2.718601,-1.603555,-0.275727\H,0,-1.313416,1
 .210033,-0.163983\H,0,-0.305783,-1.700935,0.298617\H,0,0.74749,-0.2254
 92,0.086628\\Version=ES64L-G09RevD.01\State=1-A\HF=-155.6806935\MP2=-1
 55.9093083\RMSD=9.501e-09\PG=C01 [X(C4H6)]\\@


 KEEP CLOSE TO NATURES HEART, YOURSELF;
 AND BREAK CLEAR AWAY, ONCE IN A WHILE, AND
 CLIMB A MOUNTAIN OR SPEND A WEEK IN THE
 WOODS.  WASH YOUR SPIRIT CLEAN...
                                         -- JOHN MUIR
 Job cpu time:       0 days  0 hours 39 minutes 47.8 seconds.
 File lengths (MBytes):  RWF=     92 Int=      0 D2E=      0 Chk=      9 Scr=      1
 Normal termination of Gaussian 09 at Wed Aug 26 12:00:18 2020.
