 Entering Gaussian System, Link 0=/opt/cluster/programs/g09/g09_d.01/g09//g09
 Input=/home/boittier/MDCM/nms_sampling/butadiene_geom.xyz.dir/energies/butadiene_995_energy.com
 Output=/scratch/boittier/butadiene_995_energy/butadiene_995_energy.out
 Initial command:
 /opt/cluster/programs/g09/g09_d.01/g09/l1.exe "/scratch/boittier/butadiene_995_energy/Gau-160346.inp" -scrdir="/scratch/boittier/butadiene_995_energy/"
 Entering Link 1 = /opt/cluster/programs/g09/g09_d.01/g09/l1.exe PID=    160347.
  
 Copyright (c) 1988,1990,1992,1993,1995,1998,2003,2009,2013,
            Gaussian, Inc.  All Rights Reserved.
  
 This is part of the Gaussian(R) 09 program.  It is based on
 the Gaussian(R) 03 system (copyright 2003, Gaussian, Inc.),
 the Gaussian(R) 98 system (copyright 1998, Gaussian, Inc.),
 the Gaussian(R) 94 system (copyright 1995, Gaussian, Inc.),
 the Gaussian 92(TM) system (copyright 1992, Gaussian, Inc.),
 the Gaussian 90(TM) system (copyright 1990, Gaussian, Inc.),
 the Gaussian 88(TM) system (copyright 1988, Gaussian, Inc.),
 the Gaussian 86(TM) system (copyright 1986, Carnegie Mellon
 University), and the Gaussian 82(TM) system (copyright 1983,
 Carnegie Mellon University). Gaussian is a federally registered
 trademark of Gaussian, Inc.
  
 This software contains proprietary and confidential information,
 including trade secrets, belonging to Gaussian, Inc.
  
 This software is provided under written license and may be
 used, copied, transmitted, or stored only in accord with that
 written license.
  
 The following legend is applicable only to US Government
 contracts under FAR:
  
                    RESTRICTED RIGHTS LEGEND
  
 Use, reproduction and disclosure by the US Government is
 subject to restrictions as set forth in subparagraphs (a)
 and (c) of the Commercial Computer Software - Restricted
 Rights clause in FAR 52.227-19.
  
 Gaussian, Inc.
 340 Quinnipiac St., Bldg. 40, Wallingford CT 06492
  
  
 ---------------------------------------------------------------
 Warning -- This program may not be used in any manner that
 competes with the business of Gaussian, Inc. or will provide
 assistance to any competitor of Gaussian, Inc.  The licensee
 of this program is prohibited from giving any competitor of
 Gaussian, Inc. access to this program.  By using this program,
 the user acknowledges that Gaussian, Inc. is engaged in the
 business of creating and licensing software in the field of
 computational chemistry and represents and warrants to the
 licensee that it is not a competitor of Gaussian, Inc. and that
 it will not use this program in any manner prohibited above.
 ---------------------------------------------------------------
  

 Cite this work as:
 Gaussian 09, Revision D.01,
 M. J. Frisch, G. W. Trucks, H. B. Schlegel, G. E. Scuseria, 
 M. A. Robb, J. R. Cheeseman, G. Scalmani, V. Barone, B. Mennucci, 
 G. A. Petersson, H. Nakatsuji, M. Caricato, X. Li, H. P. Hratchian, 
 A. F. Izmaylov, J. Bloino, G. Zheng, J. L. Sonnenberg, M. Hada, 
 M. Ehara, K. Toyota, R. Fukuda, J. Hasegawa, M. Ishida, T. Nakajima, 
 Y. Honda, O. Kitao, H. Nakai, T. Vreven, J. A. Montgomery, Jr., 
 J. E. Peralta, F. Ogliaro, M. Bearpark, J. J. Heyd, E. Brothers, 
 K. N. Kudin, V. N. Staroverov, T. Keith, R. Kobayashi, J. Normand, 
 K. Raghavachari, A. Rendell, J. C. Burant, S. S. Iyengar, J. Tomasi, 
 M. Cossi, N. Rega, J. M. Millam, M. Klene, J. E. Knox, J. B. Cross, 
 V. Bakken, C. Adamo, J. Jaramillo, R. Gomperts, R. E. Stratmann, 
 O. Yazyev, A. J. Austin, R. Cammi, C. Pomelli, J. W. Ochterski, 
 R. L. Martin, K. Morokuma, V. G. Zakrzewski, G. A. Voth, 
 P. Salvador, J. J. Dannenberg, S. Dapprich, A. D. Daniels, 
 O. Farkas, J. B. Foresman, J. V. Ortiz, J. Cioslowski, 
 and D. J. Fox, Gaussian, Inc., Wallingford CT, 2013.
 
 ******************************************
 Gaussian 09:  ES64L-G09RevD.01 24-Apr-2013
                26-Aug-2020 
 ******************************************
 %chk=/home/boittier/MDCM/nms_sampling/butadiene_geom.xyz.dir/butadiene_995.chk
 %nproc=8
 Will use up to    8 processors via shared memory.
 %mem=16000MB
 --------------------
 #p B2PLYPD3/Def2QZVP
 --------------------
 1/38=1/1;
 2/12=2,17=6,18=5,40=1/2;
 3/5=45,7=101,11=9,16=1,25=1,30=1,74=-60/1,2,3;
 4//1;
 5/5=2,38=5/2;
 8/10=1/1;
 9/16=-3/6;
 6/7=2,8=2,9=2,10=2/1;
 99/5=1,9=1/99;
 Leave Link    1 at Wed Aug 26 22:17:20 2020, MaxMem=  2097152000 cpu:         0.2
 (Enter /opt/cluster/programs/g09/g09_d.01/g09/l101.exe)
 ---------
 butadiene
 ---------
 Symbolic Z-matrix:
 Charge =  0 Multiplicity = 1
 C                    -3.83457   0.22363  -0.02389 
 C                    -2.70149  -0.49065   0.09471 
 C                    -1.39823   0.08493   0.04226 
 C                    -0.28252  -0.67639   0.00837 
 H                    -4.75161  -0.27041  -0.0511 
 H                    -3.75233   1.27515  -0.04732 
 H                    -2.73984  -1.56227   0.07695 
 H                    -1.3896    1.18332   0.06069 
 H                    -0.29205  -1.73656  -0.04695 
 H                     0.70747  -0.18477  -0.10347 
 
 NAtoms=     10 NQM=       10 NQMF=       0 NMMI=      0 NMMIF=      0
                NMic=       0 NMicF=      0.
                    Isotopes and Nuclear Properties:
 (Nuclear quadrupole moments (NQMom) in fm**2, nuclear magnetic moments (NMagM)
  in nuclear magnetons)

  Atom         1           2           3           4           5           6           7           8           9          10
 IAtWgt=          12          12          12          12           1           1           1           1           1           1
 AtmWgt=  12.0000000  12.0000000  12.0000000  12.0000000   1.0078250   1.0078250   1.0078250   1.0078250   1.0078250   1.0078250
 NucSpn=           0           0           0           0           1           1           1           1           1           1
 AtZEff=   0.0000000   0.0000000   0.0000000   0.0000000   0.0000000   0.0000000   0.0000000   0.0000000   0.0000000   0.0000000
 NQMom=    0.0000000   0.0000000   0.0000000   0.0000000   0.0000000   0.0000000   0.0000000   0.0000000   0.0000000   0.0000000
 NMagM=    0.0000000   0.0000000   0.0000000   0.0000000   2.7928460   2.7928460   2.7928460   2.7928460   2.7928460   2.7928460
 AtZNuc=   6.0000000   6.0000000   6.0000000   6.0000000   1.0000000   1.0000000   1.0000000   1.0000000   1.0000000   1.0000000
 Leave Link  101 at Wed Aug 26 22:17:21 2020, MaxMem=  2097152000 cpu:         0.5
 (Enter /opt/cluster/programs/g09/g09_d.01/g09/l202.exe)
                          Input orientation:                          
 ---------------------------------------------------------------------
 Center     Atomic      Atomic             Coordinates (Angstroms)
 Number     Number       Type             X           Y           Z
 ---------------------------------------------------------------------
      1          6           0       -3.834571    0.223633   -0.023888
      2          6           0       -2.701487   -0.490652    0.094712
      3          6           0       -1.398227    0.084928    0.042260
      4          6           0       -0.282517   -0.676390    0.008370
      5          1           0       -4.751606   -0.270409   -0.051095
      6          1           0       -3.752333    1.275152   -0.047318
      7          1           0       -2.739840   -1.562269    0.076947
      8          1           0       -1.389600    1.183317    0.060688
      9          1           0       -0.292046   -1.736557   -0.046950
     10          1           0        0.707472   -0.184769   -0.103469
 ---------------------------------------------------------------------
                    Distance matrix (angstroms):
                    1          2          3          4          5
     1  C    0.000000
     2  C    1.344674   0.000000
     3  C    2.441186   1.425668   0.000000
     4  C    3.664447   2.427626   1.351134   0.000000
     5  H    1.042003   2.067064   3.373445   4.487885   0.000000
     6  H    1.054990   2.059736   2.639408   3.981362   1.840467
     7  H    2.097153   1.072450   2.124709   2.613029   2.394264
     8  H    2.627933   2.127058   1.098577   2.164920   3.664546
     9  H    4.048748   2.716202   2.132933   1.061652   4.694388
    10  H    4.561061   3.428388   2.127896   1.110980   5.460001
                    6          7          8          9         10
     6  H    0.000000
     7  H    3.015218   0.000000
     8  H    2.366983   3.059682   0.000000
     9  H    4.587372   2.457117   3.121198   0.000000
    10  H    4.693014   3.716721   2.509246   1.846693   0.000000
 Stoichiometry    C4H6
 Framework group  C1[X(C4H6)]
 Deg. of freedom    24
 Full point group                 C1      NOp   1
 Largest Abelian subgroup         C1      NOp   1
 Largest concise Abelian subgroup C1      NOp   1
                         Standard orientation:                         
 ---------------------------------------------------------------------
 Center     Atomic      Atomic             Coordinates (Angstroms)
 Number     Number       Type             X           Y           Z
 ---------------------------------------------------------------------
      1          6           0        1.834478    0.098188    0.042245
      2          6           0        0.587835   -0.393915   -0.066682
      3          6           0       -0.584870    0.415971   -0.029563
      4          6           0       -1.823207   -0.122644    0.014920
      5          1           0        2.643019   -0.557905    0.081913
      6          1           0        1.950227    1.146804    0.045503
      7          1           0        0.425225   -1.453279   -0.028522
      8          1           0       -0.388054    1.496062   -0.068791
      9          1           0       -2.011986   -1.164654    0.090313
     10          1           0       -2.703843    0.547376    0.114069
 ---------------------------------------------------------------------
 Rotational constants (GHZ):     41.9483905      4.5405762      4.1051947
 Leave Link  202 at Wed Aug 26 22:17:21 2020, MaxMem=  2097152000 cpu:         0.0
 (Enter /opt/cluster/programs/g09/g09_d.01/g09/l301.exe)
 Standard basis: def2QZVP (5D, 7F)
 Ernie: Thresh=  0.10000D-02 Tol=  0.10000D-05 Strict=F.
 There are   498 symmetry adapted cartesian basis functions of A   symmetry.
 There are   408 symmetry adapted basis functions of A   symmetry.
   408 basis functions,   596 primitive gaussians,   498 cartesian basis functions
    15 alpha electrons       15 beta electrons
       nuclear repulsion energy       104.5960464857 Hartrees.
 IExCor=  419 DFT=T Ex+Corr=B2PLYPD3 ExCW=0 ScaHFX=  0.530000
 ScaDFX=  0.470000  0.470000  0.730000  0.730000 ScalE2=  0.270000  0.270000
 IRadAn=      0 IRanWt=     -1 IRanGd=            0 ICorTp=0 IEmpDi=141
 NAtoms=   10 NActive=   10 NUniq=   10 SFac= 1.00D+00 NAtFMM=   60 NAOKFM=F Big=F
 Integral buffers will be    131072 words long.
 Regular integral format.
 Two-electron integral symmetry is turned on.
 R6Disp:  Grimme-D3(BJ) Dispersion energy=       -0.0048718156 Hartrees.
 Nuclear repulsion after empirical dispersion term =      104.5911746701 Hartrees.
 Leave Link  301 at Wed Aug 26 22:17:21 2020, MaxMem=  2097152000 cpu:         0.5
 (Enter /opt/cluster/programs/g09/g09_d.01/g09/l302.exe)
 NPDir=0 NMtPBC=     1 NCelOv=     1 NCel=       1 NClECP=     1 NCelD=      1
         NCelK=      1 NCelE2=     1 NClLst=     1 CellRange=     0.0.
 One-electron integrals computed using PRISM.
   1 Symmetry operations used in ECPInt.
 ECPInt:  NShTT=    8256 NPrTT=   19107 LenC2=    8065 LenP2D=   16153.
 LDataN:  DoStor=T MaxTD1= 8 Len=  415
 NBasis=   408 RedAO= T EigKep=  4.60D-05  NBF=   408
 NBsUse=   408 1.00D-06 EigRej= -1.00D+00 NBFU=   408
 Precomputing XC quadrature grid using
 IXCGrd= 4 IRadAn=           0 IRanWt=          -1 IRanGd=           0 AccXCQ= 0.00D+00.
 Generated NRdTot=       0 NPtTot=           0 NUsed=           0 NTot=          32
 NSgBfM=   498   498   498   498   498 MxSgAt=    10 MxSgA2=    10.
 Leave Link  302 at Wed Aug 26 22:17:21 2020, MaxMem=  2097152000 cpu:         3.5
 (Enter /opt/cluster/programs/g09/g09_d.01/g09/l303.exe)
 DipDrv:  MaxL=1.
 Leave Link  303 at Wed Aug 26 22:17:21 2020, MaxMem=  2097152000 cpu:         0.4
 (Enter /opt/cluster/programs/g09/g09_d.01/g09/l401.exe)
 ExpMin= 7.60D-02 ExpMax= 6.70D+04 ExpMxC= 6.47D+02 IAcc=2 IRadAn=         4 AccDes= 0.00D+00
 Harris functional with IExCor=  419 and IRadAn=       4 diagonalized for initial guess.
 HarFok:  IExCor=  419 AccDes= 0.00D+00 IRadAn=         4 IDoV= 1 UseB2=F ITyADJ=14
 ICtDFT=  3500011 ScaDFX=  1.000000  1.000000  1.000000  1.000000
 FoFCou: FMM=F IPFlag=           0 FMFlag=      100000 FMFlg1=           0
         NFxFlg=           0 DoJE=T BraDBF=F KetDBF=T FulRan=T
         wScrn=  0.000000 ICntrl=     500 IOpCl=  0 I1Cent=   200000004 NGrid=           0
         NMat0=    1 NMatS0=      1 NMatT0=    0 NMatD0=    1 NMtDS0=    0 NMtDT0=    0
 Petite list used in FoFCou.
 Harris En= -156.134507480587    
 JPrj=0 DoOrth=F DoCkMO=F.
 Leave Link  401 at Wed Aug 26 22:17:22 2020, MaxMem=  2097152000 cpu:         9.2
 (Enter /opt/cluster/programs/g09/g09_d.01/g09/l502.exe)
 Closed shell SCF:
 Using DIIS extrapolation, IDIIS=  1040.
 Integral symmetry usage will be decided dynamically.
 IVT=      770090 IEndB=      770090 NGot=  2097152000 MDV=  2096647053
 LenX=  2096647053 LenY=  2096398551
 Requested convergence on RMS density matrix=1.00D-08 within 128 cycles.
 Requested convergence on MAX density matrix=1.00D-06.
 Requested convergence on             energy=1.00D-06.
 No special actions if energy rises.
 Fock matrices will be formed incrementally for  20 cycles.
 Integral accuracy reduced to 1.0D-05 until final iterations.

 Cycle   1  Pass 0  IDiag  1:
 FoFJK:  IHMeth= 1 ICntrl=       0 DoSepK=F KAlg= 0 I1Cent=   0 FoldK=F
 IRaf= 940000000 NMat=   1 IRICut=       1 DoRegI=T DoRafI=F ISym2E= 0.
 FoFCou: FMM=F IPFlag=           0 FMFlag=      100000 FMFlg1=           0
         NFxFlg=           0 DoJE=F BraDBF=F KetDBF=F FulRan=T
         wScrn=  0.000000 ICntrl=       0 IOpCl=  0 I1Cent=           0 NGrid=           0
         NMat0=    1 NMatS0=      1 NMatT0=    0 NMatD0=    1 NMtDS0=    0 NMtDT0=    0
 Symmetry not used in FoFCou.
 E= -155.505849899820    
 DIIS: error= 3.81D-02 at cycle   1 NSaved=   1.
 NSaved= 1 IEnMin= 1 EnMin= -155.505849899820     IErMin= 1 ErrMin= 3.81D-02
 ErrMax= 3.81D-02  0.00D+00 EMaxC= 1.00D-01 BMatC= 2.55D-01 BMatP= 2.55D-01
 IDIUse=3 WtCom= 6.19D-01 WtEn= 3.81D-01
 Coeff-Com:  0.100D+01
 Coeff-En:   0.100D+01
 Coeff:      0.100D+01
 Gap=     0.291 Goal=   None    Shift=    0.000
 GapD=    0.291 DampG=1.000 DampE=0.500 DampFc=0.5000 IDamp=-1.
 Damping current iteration by 5.00D-01
 RMSDP=9.66D-04 MaxDP=4.92D-02              OVMax= 1.99D-01

 Cycle   2  Pass 0  IDiag  1:
 RMSU=  4.45D-04    CP:  9.51D-01
 E= -155.606269369858     Delta-E=       -0.100419470038 Rises=F Damp=T
 DIIS: error= 1.04D-02 at cycle   2 NSaved=   2.
 NSaved= 2 IEnMin= 2 EnMin= -155.606269369858     IErMin= 2 ErrMin= 1.04D-02
 ErrMax= 1.04D-02  0.00D+00 EMaxC= 1.00D-01 BMatC= 3.00D-02 BMatP= 2.55D-01
 IDIUse=3 WtCom= 8.96D-01 WtEn= 1.04D-01
 Coeff-Com: -0.301D+00 0.130D+01
 Coeff-En:   0.000D+00 0.100D+01
 Coeff:     -0.270D+00 0.127D+01
 Gap=     0.353 Goal=   None    Shift=    0.000
 RMSDP=2.82D-04 MaxDP=8.56D-03 DE=-1.00D-01 OVMax= 9.63D-02

 Cycle   3  Pass 0  IDiag  1:
 RMSU=  2.74D-04    CP:  9.33D-01  1.05D+00
 E= -155.693048971257     Delta-E=       -0.086779601400 Rises=F Damp=F
 DIIS: error= 4.58D-03 at cycle   3 NSaved=   3.
 NSaved= 3 IEnMin= 3 EnMin= -155.693048971257     IErMin= 3 ErrMin= 4.58D-03
 ErrMax= 4.58D-03  0.00D+00 EMaxC= 1.00D-01 BMatC= 2.04D-03 BMatP= 3.00D-02
 IDIUse=3 WtCom= 9.54D-01 WtEn= 4.58D-02
 Coeff-Com: -0.115D+00 0.236D+00 0.879D+00
 Coeff-En:   0.000D+00 0.000D+00 0.100D+01
 Coeff:     -0.110D+00 0.225D+00 0.885D+00
 Gap=     0.285 Goal=   None    Shift=    0.000
 RMSDP=7.37D-05 MaxDP=4.26D-03 DE=-8.68D-02 OVMax= 2.48D-02

 Cycle   4  Pass 0  IDiag  1:
 RMSU=  5.49D-05    CP:  9.29D-01  1.14D+00  9.35D-01
 E= -155.694567177692     Delta-E=       -0.001518206435 Rises=F Damp=F
 DIIS: error= 3.11D-03 at cycle   4 NSaved=   4.
 NSaved= 4 IEnMin= 4 EnMin= -155.694567177692     IErMin= 4 ErrMin= 3.11D-03
 ErrMax= 3.11D-03  0.00D+00 EMaxC= 1.00D-01 BMatC= 6.91D-04 BMatP= 2.04D-03
 IDIUse=3 WtCom= 9.69D-01 WtEn= 3.11D-02
 Coeff-Com: -0.517D-01 0.850D-01 0.472D+00 0.494D+00
 Coeff-En:   0.000D+00 0.000D+00 0.157D+00 0.843D+00
 Coeff:     -0.501D-01 0.824D-01 0.463D+00 0.505D+00
 Gap=     0.285 Goal=   None    Shift=    0.000
 RMSDP=3.12D-05 MaxDP=1.52D-03 DE=-1.52D-03 OVMax= 9.47D-03

 Cycle   5  Pass 0  IDiag  1:
 RMSU=  1.68D-05    CP:  9.30D-01  1.14D+00  9.84D-01  5.95D-01
 E= -155.695232190026     Delta-E=       -0.000665012334 Rises=F Damp=F
 DIIS: error= 2.98D-04 at cycle   5 NSaved=   5.
 NSaved= 5 IEnMin= 5 EnMin= -155.695232190026     IErMin= 5 ErrMin= 2.98D-04
 ErrMax= 2.98D-04  0.00D+00 EMaxC= 1.00D-01 BMatC= 4.70D-06 BMatP= 6.91D-04
 IDIUse=3 WtCom= 9.97D-01 WtEn= 2.98D-03
 Coeff-Com: -0.283D-02 0.236D-02 0.358D-01 0.950D-01 0.870D+00
 Coeff-En:   0.000D+00 0.000D+00 0.000D+00 0.000D+00 0.100D+01
 Coeff:     -0.282D-02 0.236D-02 0.357D-01 0.947D-01 0.870D+00
 Gap=     0.285 Goal=   None    Shift=    0.000
 RMSDP=4.41D-06 MaxDP=1.37D-04 DE=-6.65D-04 OVMax= 1.28D-03

 Initial convergence to 1.0D-05 achieved.  Increase integral accuracy.
 Cycle   6  Pass 1  IDiag  1:
 E= -155.695248201726     Delta-E=       -0.000016011700 Rises=F Damp=F
 DIIS: error= 5.52D-05 at cycle   1 NSaved=   1.
 NSaved= 1 IEnMin= 1 EnMin= -155.695248201726     IErMin= 1 ErrMin= 5.52D-05
 ErrMax= 5.52D-05  0.00D+00 EMaxC= 1.00D-01 BMatC= 4.56D-07 BMatP= 4.56D-07
 IDIUse=1 WtCom= 1.00D+00 WtEn= 0.00D+00
 Coeff-Com:  0.100D+01
 Coeff:      0.100D+01
 Gap=     0.285 Goal=   None    Shift=    0.000
 RMSDP=4.41D-06 MaxDP=1.37D-04 DE=-1.60D-05 OVMax= 3.15D-04

 Cycle   7  Pass 1  IDiag  1:
 RMSU=  1.55D-05    CP:  1.00D+00
 E= -155.695248559769     Delta-E=       -0.000000358043 Rises=F Damp=F
 DIIS: error= 2.03D-05 at cycle   2 NSaved=   2.
 NSaved= 2 IEnMin= 2 EnMin= -155.695248559769     IErMin= 2 ErrMin= 2.03D-05
 ErrMax= 2.03D-05  0.00D+00 EMaxC= 1.00D-01 BMatC= 2.74D-08 BMatP= 4.56D-07
 IDIUse=1 WtCom= 1.00D+00 WtEn= 0.00D+00
 Coeff-Com:  0.712D-01 0.929D+00
 Coeff:      0.712D-01 0.929D+00
 Gap=     0.285 Goal=   None    Shift=    0.000
 RMSDP=9.28D-07 MaxDP=3.53D-05 DE=-3.58D-07 OVMax= 1.46D-04

 Cycle   8  Pass 1  IDiag  1:
 RMSU=  6.05D-07    CP:  1.00D+00  1.05D+00
 E= -155.695248577669     Delta-E=       -0.000000017900 Rises=F Damp=F
 DIIS: error= 1.39D-05 at cycle   3 NSaved=   3.
 NSaved= 3 IEnMin= 3 EnMin= -155.695248577669     IErMin= 3 ErrMin= 1.39D-05
 ErrMax= 1.39D-05  0.00D+00 EMaxC= 1.00D-01 BMatC= 2.50D-08 BMatP= 2.74D-08
 IDIUse=1 WtCom= 1.00D+00 WtEn= 0.00D+00
 Coeff-Com: -0.207D-01 0.489D+00 0.532D+00
 Coeff:     -0.207D-01 0.489D+00 0.532D+00
 Gap=     0.285 Goal=   None    Shift=    0.000
 RMSDP=2.76D-07 MaxDP=1.33D-05 DE=-1.79D-08 OVMax= 8.03D-05

 Cycle   9  Pass 1  IDiag  1:
 RMSU=  2.38D-07    CP:  1.00D+00  1.05D+00  1.06D+00
 E= -155.695248602663     Delta-E=       -0.000000024994 Rises=F Damp=F
 DIIS: error= 3.57D-06 at cycle   4 NSaved=   4.
 NSaved= 4 IEnMin= 4 EnMin= -155.695248602663     IErMin= 4 ErrMin= 3.57D-06
 ErrMax= 3.57D-06  0.00D+00 EMaxC= 1.00D-01 BMatC= 3.46D-10 BMatP= 2.50D-08
 IDIUse=1 WtCom= 1.00D+00 WtEn= 0.00D+00
 Coeff-Com: -0.956D-02 0.988D-02 0.679D-01 0.932D+00
 Coeff:     -0.956D-02 0.988D-02 0.679D-01 0.932D+00
 Gap=     0.285 Goal=   None    Shift=    0.000
 RMSDP=8.81D-08 MaxDP=3.11D-06 DE=-2.50D-08 OVMax= 2.01D-05

 Cycle  10  Pass 1  IDiag  1:
 RMSU=  4.77D-08    CP:  1.00D+00  1.06D+00  1.15D+00  1.12D+00
 E= -155.695248603530     Delta-E=       -0.000000000867 Rises=F Damp=F
 DIIS: error= 7.16D-07 at cycle   5 NSaved=   5.
 NSaved= 5 IEnMin= 5 EnMin= -155.695248603530     IErMin= 5 ErrMin= 7.16D-07
 ErrMax= 7.16D-07  0.00D+00 EMaxC= 1.00D-01 BMatC= 6.20D-11 BMatP= 3.46D-10
 IDIUse=1 WtCom= 1.00D+00 WtEn= 0.00D+00
 Coeff-Com:  0.625D-03-0.515D-01-0.609D-01 0.192D+00 0.920D+00
 Coeff:      0.625D-03-0.515D-01-0.609D-01 0.192D+00 0.920D+00
 Gap=     0.285 Goal=   None    Shift=    0.000
 RMSDP=2.74D-08 MaxDP=1.08D-06 DE=-8.67D-10 OVMax= 6.36D-06

 Cycle  11  Pass 1  IDiag  1:
 RMSU=  1.76D-08    CP:  1.00D+00  1.06D+00  1.17D+00  1.19D+00  1.16D+00
 E= -155.695248603639     Delta-E=       -0.000000000109 Rises=F Damp=F
 DIIS: error= 1.10D-07 at cycle   6 NSaved=   6.
 NSaved= 6 IEnMin= 6 EnMin= -155.695248603639     IErMin= 6 ErrMin= 1.10D-07
 ErrMax= 1.10D-07  0.00D+00 EMaxC= 1.00D-01 BMatC= 4.44D-12 BMatP= 6.20D-11
 IDIUse=1 WtCom= 1.00D+00 WtEn= 0.00D+00
 Coeff-Com:  0.696D-03-0.200D-01-0.284D-01 0.329D-01 0.336D+00 0.679D+00
 Coeff:      0.696D-03-0.200D-01-0.284D-01 0.329D-01 0.336D+00 0.679D+00
 Gap=     0.285 Goal=   None    Shift=    0.000
 RMSDP=4.29D-09 MaxDP=2.12D-07 DE=-1.09D-10 OVMax= 9.39D-07

 SCF Done:  E(RB2PLYPD3) =  -155.695248604     A.U. after   11 cycles
            NFock= 11  Conv=0.43D-08     -V/T= 2.0031
 KE= 1.552146379740D+02 PE=-5.701610153019D+02 EE= 1.546599540542D+02
 Leave Link  502 at Wed Aug 26 22:20:09 2020, MaxMem=  2097152000 cpu:      1324.1
 (Enter /opt/cluster/programs/g09/g09_d.01/g09/l801.exe)
 DoSCS=T DFT=T ScalE2(SS,OS)=  0.270000  0.270000
 ExpMin= 7.60D-02 ExpMax= 6.70D+04 ExpMxC= 6.47D+02 IAcc=3 IRadAn=         5 AccDes= 0.00D+00
 HarFok:  IExCor=  205 AccDes= 0.00D+00 IRadAn=         5 IDoV=-2 UseB2=F ITyADJ=14
 ICtDFT= 12500011 ScaDFX=  1.000000  1.000000  1.000000  1.000000
 Largest valence mixing into a core orbital is  1.11D-04
 Largest core mixing into a valence orbital is  1.97D-05
 Range of M.O.s used for correlation:     5   408
 NBasis=   408 NAE=    15 NBE=    15 NFC=     4 NFV=     0
 NROrb=    404 NOA=    11 NOB=    11 NVA=   393 NVB=   393

 **** Warning!!: The largest alpha MO coefficient is  0.26881020D+02

 Leave Link  801 at Wed Aug 26 22:20:09 2020, MaxMem=  2097152000 cpu:         0.9
 (Enter /opt/cluster/programs/g09/g09_d.01/g09/l906.exe)
 DoSCS=T DFT=T ScalE2(SS,OS)=  0.270000  0.270000
 FulOut=F Deriv=F AODrv=F NAtomX=    10
   MMem=         881  MDisk=          11 MDiskD=          11
  W3Min=     2152854 MinDsk=     3857222 NBas6D=         498
 NBas2D=      125763    NTT=      124251    LW2=     4508827
    MDV=  2096380680 MDiskM=        9345 NBas2p=      117831
 Fully direct method using O(OVN) memory.
 IMap=   1   2   3   4   5   6   7   8   9  10  11
 JobTyp=1 Pass  1:  I=   1 to  11 NPSUse=  8 ParTrn=T ParDer=T DoDerP=F.
 Spin components of T(2) and E(2):
     alpha-alpha T2 =       0.4228036384D-01 E2=     -0.2554117858D-01
     alpha-beta  T2 =       0.2734515195D+00 E2=     -0.1751735867D+00
     beta-beta   T2 =       0.4228036384D-01 E2=     -0.2554117858D-01
 The integrals were generated   1 times.
 E2(B2PLYPD3) =    -0.2262559438D+00 E(B2PLYPD3) =    -0.15592150454748D+03
 Leave Link  906 at Wed Aug 26 22:21:39 2020, MaxMem=  2097152000 cpu:       720.7
 (Enter /opt/cluster/programs/g09/g09_d.01/g09/l601.exe)
 Copying SCF densities to generalized density rwf, IOpCl= 0 IROHF=0.

 **********************************************************************

            Population analysis using the SCF density.

 **********************************************************************

 Orbital symmetries:
       Occupied  (A) (A) (A) (A) (A) (A) (A) (A) (A) (A) (A) (A)
                 (A) (A) (A)
       Virtual   (A) (A) (A) (A) (A) (A) (A) (A) (A) (A) (A) (A)
                 (A) (A) (A) (A) (A) (A) (A) (A) (A) (A) (A) (A)
                 (A) (A) (A) (A) (A) (A) (A) (A) (A) (A) (A) (A)
                 (A) (A) (A) (A) (A) (A) (A) (A) (A) (A) (A) (A)
                 (A) (A) (A) (A) (A) (A) (A) (A) (A) (A) (A) (A)
                 (A) (A) (A) (A) (A) (A) (A) (A) (A) (A) (A) (A)
                 (A) (A) (A) (A) (A) (A) (A) (A) (A) (A) (A) (A)
                 (A) (A) (A) (A) (A) (A) (A) (A) (A) (A) (A) (A)
                 (A) (A) (A) (A) (A) (A) (A) (A) (A) (A) (A) (A)
                 (A) (A) (A) (A) (A) (A) (A) (A) (A) (A) (A) (A)
                 (A) (A) (A) (A) (A) (A) (A) (A) (A) (A) (A) (A)
                 (A) (A) (A) (A) (A) (A) (A) (A) (A) (A) (A) (A)
                 (A) (A) (A) (A) (A) (A) (A) (A) (A) (A) (A) (A)
                 (A) (A) (A) (A) (A) (A) (A) (A) (A) (A) (A) (A)
                 (A) (A) (A) (A) (A) (A) (A) (A) (A) (A) (A) (A)
                 (A) (A) (A) (A) (A) (A) (A) (A) (A) (A) (A) (A)
                 (A) (A) (A) (A) (A) (A) (A) (A) (A) (A) (A) (A)
                 (A) (A) (A) (A) (A) (A) (A) (A) (A) (A) (A) (A)
                 (A) (A) (A) (A) (A) (A) (A) (A) (A) (A) (A) (A)
                 (A) (A) (A) (A) (A) (A) (A) (A) (A) (A) (A) (A)
                 (A) (A) (A) (A) (A) (A) (A) (A) (A) (A) (A) (A)
                 (A) (A) (A) (A) (A) (A) (A) (A) (A) (A) (A) (A)
                 (A) (A) (A) (A) (A) (A) (A) (A) (A) (A) (A) (A)
                 (A) (A) (A) (A) (A) (A) (A) (A) (A) (A) (A) (A)
                 (A) (A) (A) (A) (A) (A) (A) (A) (A) (A) (A) (A)
                 (A) (A) (A) (A) (A) (A) (A) (A) (A) (A) (A) (A)
                 (A) (A) (A) (A) (A) (A) (A) (A) (A) (A) (A) (A)
                 (A) (A) (A) (A) (A) (A) (A) (A) (A) (A) (A) (A)
                 (A) (A) (A) (A) (A) (A) (A) (A) (A) (A) (A) (A)
                 (A) (A) (A) (A) (A) (A) (A) (A) (A) (A) (A) (A)
                 (A) (A) (A) (A) (A) (A) (A) (A) (A) (A) (A) (A)
                 (A) (A) (A) (A) (A) (A) (A) (A) (A) (A) (A) (A)
                 (A) (A) (A) (A) (A) (A) (A) (A) (A)
 The electronic state is 1-A.
 Alpha  occ. eigenvalues --  -10.62717 -10.61979 -10.61882 -10.60840  -0.93403
 Alpha  occ. eigenvalues --   -0.84641  -0.70709  -0.64420  -0.55104  -0.53635
 Alpha  occ. eigenvalues --   -0.47146  -0.45512  -0.41576  -0.38277  -0.27205
 Alpha virt. eigenvalues --    0.01343   0.07040   0.07391   0.08150   0.09499
 Alpha virt. eigenvalues --    0.11825   0.12438   0.14966   0.15637   0.16208
 Alpha virt. eigenvalues --    0.18623   0.20095   0.22005   0.23241   0.23798
 Alpha virt. eigenvalues --    0.26729   0.26818   0.29517   0.32183   0.34738
 Alpha virt. eigenvalues --    0.35926   0.36322   0.36968   0.38867   0.40758
 Alpha virt. eigenvalues --    0.42440   0.43149   0.45743   0.46846   0.47691
 Alpha virt. eigenvalues --    0.48777   0.50659   0.52080   0.56423   0.56656
 Alpha virt. eigenvalues --    0.58940   0.60606   0.64360   0.66137   0.68760
 Alpha virt. eigenvalues --    0.69774   0.72241   0.76910   0.77467   0.78955
 Alpha virt. eigenvalues --    0.80177   0.81392   0.81748   0.82296   0.84116
 Alpha virt. eigenvalues --    0.85043   0.86168   0.86592   0.87072   0.90237
 Alpha virt. eigenvalues --    0.91798   0.93464   0.94629   0.95353   0.96212
 Alpha virt. eigenvalues --    0.98234   0.99474   1.01044   1.02618   1.05726
 Alpha virt. eigenvalues --    1.06677   1.08063   1.11470   1.11614   1.12340
 Alpha virt. eigenvalues --    1.15259   1.18515   1.19947   1.20887   1.22967
 Alpha virt. eigenvalues --    1.24163   1.26009   1.34005   1.34977   1.36807
 Alpha virt. eigenvalues --    1.38346   1.41721   1.46504   1.61816   1.63342
 Alpha virt. eigenvalues --    1.66944   1.67966   1.71024   1.72656   1.74983
 Alpha virt. eigenvalues --    1.76011   1.80332   1.82290   1.84966   1.86434
 Alpha virt. eigenvalues --    1.90528   1.91427   1.92174   1.93486   1.94086
 Alpha virt. eigenvalues --    1.94861   1.98585   1.99451   2.01645   2.03027
 Alpha virt. eigenvalues --    2.03881   2.05420   2.07478   2.07638   2.09458
 Alpha virt. eigenvalues --    2.11004   2.12267   2.14368   2.16127   2.17455
 Alpha virt. eigenvalues --    2.18796   2.20488   2.25122   2.26517   2.28444
 Alpha virt. eigenvalues --    2.29315   2.32460   2.33291   2.39570   2.43762
 Alpha virt. eigenvalues --    2.44357   2.46233   2.47478   2.49668   2.51507
 Alpha virt. eigenvalues --    2.52928   2.54032   2.54717   2.57463   2.58710
 Alpha virt. eigenvalues --    2.59891   2.63176   2.64584   2.64945   2.65790
 Alpha virt. eigenvalues --    2.68461   2.69683   2.70465   2.71703   2.72885
 Alpha virt. eigenvalues --    2.73321   2.75225   2.78119   2.79040   2.80273
 Alpha virt. eigenvalues --    2.82383   2.88670   2.90013   2.93218   2.94861
 Alpha virt. eigenvalues --    2.96119   3.03939   3.08181   3.09410   3.11029
 Alpha virt. eigenvalues --    3.14274   3.15933   3.25512   3.34899   3.37527
 Alpha virt. eigenvalues --    3.39594   3.40757   3.44399   3.46703   3.49357
 Alpha virt. eigenvalues --    3.51004   3.53452   3.53900   3.57090   3.60541
 Alpha virt. eigenvalues --    3.60913   3.64564   3.65460   3.71271   3.79200
 Alpha virt. eigenvalues --    3.81693   3.84590   3.86292   3.89095   3.93100
 Alpha virt. eigenvalues --    3.96089   3.99646   4.02457   4.04737   4.15416
 Alpha virt. eigenvalues --    4.17198   4.18930   4.21098   4.28614   4.42286
 Alpha virt. eigenvalues --    4.52692   4.57749   4.61970   4.87074   4.97885
 Alpha virt. eigenvalues --    5.00211   5.03310   5.05511   5.08242   5.10209
 Alpha virt. eigenvalues --    5.13776   5.18688   5.21330   5.28650   5.32294
 Alpha virt. eigenvalues --    5.33928   5.37963   5.44680   5.47772   5.50195
 Alpha virt. eigenvalues --    5.53314   5.54263   5.58253   5.59619   5.63960
 Alpha virt. eigenvalues --    5.65326   5.67839   5.75122   5.76237   5.78147
 Alpha virt. eigenvalues --    5.78947   5.80903   5.82555   5.85922   5.88183
 Alpha virt. eigenvalues --    5.92755   5.92991   5.97809   6.00903   6.04459
 Alpha virt. eigenvalues --    6.06131   6.08784   6.08860   6.10494   6.12626
 Alpha virt. eigenvalues --    6.13759   6.16930   6.18610   6.18901   6.20788
 Alpha virt. eigenvalues --    6.23951   6.24825   6.27759   6.31587   6.32200
 Alpha virt. eigenvalues --    6.35519   6.37740   6.38416   6.39244   6.40451
 Alpha virt. eigenvalues --    6.42806   6.44212   6.45294   6.49158   6.53059
 Alpha virt. eigenvalues --    6.56192   6.57488   6.59188   6.61291   6.66218
 Alpha virt. eigenvalues --    6.66400   6.69658   6.74026   6.78849   6.82707
 Alpha virt. eigenvalues --    6.84002   6.88534   6.90592   6.91602   6.92342
 Alpha virt. eigenvalues --    6.93883   6.97949   7.01652   7.10629   7.12993
 Alpha virt. eigenvalues --    7.13734   7.16787   7.18122   7.20273   7.25166
 Alpha virt. eigenvalues --    7.26822   7.29200   7.32269   7.39672   7.45445
 Alpha virt. eigenvalues --    7.46183   7.50451   7.53591   7.55656   7.61905
 Alpha virt. eigenvalues --    7.63058   7.64436   7.67298   7.67362   7.68516
 Alpha virt. eigenvalues --    7.69243   7.74200   7.75036   7.76358   7.79426
 Alpha virt. eigenvalues --    7.81219   7.84460   7.90130   7.91043   7.92248
 Alpha virt. eigenvalues --    7.97256   7.99499   8.08371   8.11773   8.11940
 Alpha virt. eigenvalues --    8.13507   8.15969   8.19337   8.19991   8.24667
 Alpha virt. eigenvalues --    8.26718   8.31692   8.34248   8.36007   8.38061
 Alpha virt. eigenvalues --    8.39945   8.42220   8.44012   8.45186   8.46836
 Alpha virt. eigenvalues --    8.50088   8.51314   8.56933   8.60125   8.60916
 Alpha virt. eigenvalues --    8.61589   8.63515   8.68683   8.71777   8.72904
 Alpha virt. eigenvalues --    8.76188   8.77234   8.79253   8.80959   8.85714
 Alpha virt. eigenvalues --    8.89573   8.95206   8.96034   9.08752   9.18403
 Alpha virt. eigenvalues --    9.22954   9.27699   9.35813   9.38638   9.48678
 Alpha virt. eigenvalues --    9.58608   9.66453   9.79349   9.82223   9.89956
 Alpha virt. eigenvalues --    9.91790   9.97371  10.06490  10.08307  10.10889
 Alpha virt. eigenvalues --   10.15775  10.23895  10.26138  10.28630  10.44507
 Alpha virt. eigenvalues --   10.47961  10.55099  10.61586  10.67281  10.77458
 Alpha virt. eigenvalues --   11.09715  11.22192  11.49632  11.67236  11.87672
 Alpha virt. eigenvalues --   11.91906  12.87506  13.08706  13.09854  13.37525
 Alpha virt. eigenvalues --   28.65927  28.86860  29.46538  29.67326 148.25344
 Alpha virt. eigenvalues --  148.46336 149.06123 149.28625
          Condensed to atoms (all electrons):
               1          2          3          4          5          6
     1  C    4.846224   0.616807  -0.080855  -0.003627   0.431292   0.430290
     2  C    0.616807   4.837208   0.401062  -0.085195  -0.049286  -0.051049
     3  C   -0.080855   0.401062   4.831003   0.619929   0.007789  -0.008091
     4  C   -0.003627  -0.085195   0.619929   4.848538  -0.000699   0.000198
     5  H    0.431292  -0.049286   0.007789  -0.000699   0.569630  -0.041251
     6  H    0.430290  -0.051049  -0.008091   0.000198  -0.041251   0.589707
     7  H   -0.048072   0.410071  -0.063877  -0.002451  -0.008728   0.007914
     8  H   -0.003242  -0.062657   0.412178  -0.042986  -0.000104   0.005263
     9  H    0.000191  -0.007274  -0.043861   0.426343  -0.000026   0.000024
    10  H   -0.000681   0.008165  -0.046115   0.420226   0.000030  -0.000020
               7          8          9         10
     1  C   -0.048072  -0.003242   0.000191  -0.000681
     2  C    0.410071  -0.062657  -0.007274   0.008165
     3  C   -0.063877   0.412178  -0.043861  -0.046115
     4  C   -0.002451  -0.042986   0.426343   0.420226
     5  H   -0.008728  -0.000104  -0.000026   0.000030
     6  H    0.007914   0.005263   0.000024  -0.000020
     7  H    0.641367   0.007668   0.004001   0.000040
     8  H    0.007668   0.632429   0.006392  -0.008029
     9  H    0.004001   0.006392   0.585443  -0.044885
    10  H    0.000040  -0.008029  -0.044885   0.592822
 Mulliken charges:
               1
     1  C   -0.188329
     2  C   -0.017852
     3  C   -0.029163
     4  C   -0.180277
     5  H    0.091353
     6  H    0.067014
     7  H    0.052067
     8  H    0.053088
     9  H    0.073652
    10  H    0.078446
 Sum of Mulliken charges =   0.00000
 Mulliken charges with hydrogens summed into heavy atoms:
               1
     1  C   -0.029961
     2  C    0.034214
     3  C    0.023926
     4  C   -0.028179
 Electronic spatial extent (au):  <R**2>=            329.9966
 Charge=              0.0000 electrons
 Dipole moment (field-independent basis, Debye):
    X=              0.0140    Y=             -0.0400    Z=              0.1536  Tot=              0.1593
 Quadrupole moment (field-independent basis, Debye-Ang):
   XX=            -23.8632   YY=            -22.9746   ZZ=            -29.2341
   XY=              0.2834   XZ=             -0.1507   YZ=             -0.1171
 Traceless Quadrupole moment (field-independent basis, Debye-Ang):
   XX=              1.4941   YY=              2.3827   ZZ=             -3.8768
   XY=              0.2834   XZ=             -0.1507   YZ=             -0.1171
 Octapole moment (field-independent basis, Debye-Ang**2):
  XXX=              0.1264  YYY=             -0.0709  ZZZ=              0.2452  XYY=              0.1384
  XXY=             -0.9070  XXZ=              1.5899  XZZ=              0.2099  YZZ=             -0.0745
  YYZ=              0.1781  XYZ=             -0.0026
 Hexadecapole moment (field-independent basis, Debye-Ang**3):
 XXXX=           -342.1006 YYYY=            -64.8456 ZZZZ=            -37.2506 XXXY=             -5.5581
 XXXZ=             -1.2641 YYYX=              2.4728 YYYZ=             -0.4691 ZZZX=             -0.0992
 ZZZY=             -0.1042 XXYY=            -66.6282 XXZZ=            -75.7864 YYZZ=            -19.1391
 XXYZ=             -0.1452 YYXZ=             -0.2253 ZZXY=              0.5661
 N-N= 1.045911746701D+02 E-N=-5.701610088372D+02  KE= 1.552146379740D+02
 Leave Link  601 at Wed Aug 26 22:21:39 2020, MaxMem=  2097152000 cpu:         0.6
 (Enter /opt/cluster/programs/g09/g09_d.01/g09/l9999.exe)
 1\1\GINC-NODE22\SP\RB2PLYPD3-FC\def2QZVP\C4H6\BOITTIER\26-Aug-2020\0\\
 #p B2PLYPD3/Def2QZVP\\butadiene\\0,1\C,0,-3.834571,0.223633,-0.023888\
 C,0,-2.701487,-0.490652,0.094712\C,0,-1.398227,0.084928,0.04226\C,0,-0
 .282517,-0.67639,0.00837\H,0,-4.751606,-0.270409,-0.051095\H,0,-3.7523
 33,1.275152,-0.047318\H,0,-2.73984,-1.562269,0.076947\H,0,-1.3896,1.18
 3317,0.060688\H,0,-0.292046,-1.736557,-0.04695\H,0,0.707472,-0.184769,
 -0.103469\\Version=ES64L-G09RevD.01\State=1-A\HF=-155.6952486\MP2=-155
 .9215045\RMSD=4.290e-09\PG=C01 [X(C4H6)]\\@


 FORGIVE MY NONSENSE AS I ALSO FORGIVE THOSE WHO THINK THEY TALK SENSE

                                                       -- ROBERT FROST
 Job cpu time:       0 days  0 hours 34 minutes 21.3 seconds.
 File lengths (MBytes):  RWF=     92 Int=      0 D2E=      0 Chk=      9 Scr=      1
 Normal termination of Gaussian 09 at Wed Aug 26 22:21:40 2020.
