 Entering Gaussian System, Link 0=/opt/cluster/programs/g09/g09_d.01/g09//g09
 Input=/home/boittier/MDCM/nms_sampling/butadiene_geom.xyz.dir/energies/butadiene_2486_energy.com
 Output=/scratch/boittier/butadiene_2486_energy/butadiene_2486_energy.out
 Initial command:
 /opt/cluster/programs/g09/g09_d.01/g09/l1.exe "/scratch/boittier/butadiene_2486_energy/Gau-51406.inp" -scrdir="/scratch/boittier/butadiene_2486_energy/"
 Entering Link 1 = /opt/cluster/programs/g09/g09_d.01/g09/l1.exe PID=     51407.
  
 Copyright (c) 1988,1990,1992,1993,1995,1998,2003,2009,2013,
            Gaussian, Inc.  All Rights Reserved.
  
 This is part of the Gaussian(R) 09 program.  It is based on
 the Gaussian(R) 03 system (copyright 2003, Gaussian, Inc.),
 the Gaussian(R) 98 system (copyright 1998, Gaussian, Inc.),
 the Gaussian(R) 94 system (copyright 1995, Gaussian, Inc.),
 the Gaussian 92(TM) system (copyright 1992, Gaussian, Inc.),
 the Gaussian 90(TM) system (copyright 1990, Gaussian, Inc.),
 the Gaussian 88(TM) system (copyright 1988, Gaussian, Inc.),
 the Gaussian 86(TM) system (copyright 1986, Carnegie Mellon
 University), and the Gaussian 82(TM) system (copyright 1983,
 Carnegie Mellon University). Gaussian is a federally registered
 trademark of Gaussian, Inc.
  
 This software contains proprietary and confidential information,
 including trade secrets, belonging to Gaussian, Inc.
  
 This software is provided under written license and may be
 used, copied, transmitted, or stored only in accord with that
 written license.
  
 The following legend is applicable only to US Government
 contracts under FAR:
  
                    RESTRICTED RIGHTS LEGEND
  
 Use, reproduction and disclosure by the US Government is
 subject to restrictions as set forth in subparagraphs (a)
 and (c) of the Commercial Computer Software - Restricted
 Rights clause in FAR 52.227-19.
  
 Gaussian, Inc.
 340 Quinnipiac St., Bldg. 40, Wallingford CT 06492
  
  
 ---------------------------------------------------------------
 Warning -- This program may not be used in any manner that
 competes with the business of Gaussian, Inc. or will provide
 assistance to any competitor of Gaussian, Inc.  The licensee
 of this program is prohibited from giving any competitor of
 Gaussian, Inc. access to this program.  By using this program,
 the user acknowledges that Gaussian, Inc. is engaged in the
 business of creating and licensing software in the field of
 computational chemistry and represents and warrants to the
 licensee that it is not a competitor of Gaussian, Inc. and that
 it will not use this program in any manner prohibited above.
 ---------------------------------------------------------------
  

 Cite this work as:
 Gaussian 09, Revision D.01,
 M. J. Frisch, G. W. Trucks, H. B. Schlegel, G. E. Scuseria, 
 M. A. Robb, J. R. Cheeseman, G. Scalmani, V. Barone, B. Mennucci, 
 G. A. Petersson, H. Nakatsuji, M. Caricato, X. Li, H. P. Hratchian, 
 A. F. Izmaylov, J. Bloino, G. Zheng, J. L. Sonnenberg, M. Hada, 
 M. Ehara, K. Toyota, R. Fukuda, J. Hasegawa, M. Ishida, T. Nakajima, 
 Y. Honda, O. Kitao, H. Nakai, T. Vreven, J. A. Montgomery, Jr., 
 J. E. Peralta, F. Ogliaro, M. Bearpark, J. J. Heyd, E. Brothers, 
 K. N. Kudin, V. N. Staroverov, T. Keith, R. Kobayashi, J. Normand, 
 K. Raghavachari, A. Rendell, J. C. Burant, S. S. Iyengar, J. Tomasi, 
 M. Cossi, N. Rega, J. M. Millam, M. Klene, J. E. Knox, J. B. Cross, 
 V. Bakken, C. Adamo, J. Jaramillo, R. Gomperts, R. E. Stratmann, 
 O. Yazyev, A. J. Austin, R. Cammi, C. Pomelli, J. W. Ochterski, 
 R. L. Martin, K. Morokuma, V. G. Zakrzewski, G. A. Voth, 
 P. Salvador, J. J. Dannenberg, S. Dapprich, A. D. Daniels, 
 O. Farkas, J. B. Foresman, J. V. Ortiz, J. Cioslowski, 
 and D. J. Fox, Gaussian, Inc., Wallingford CT, 2013.
 
 ******************************************
 Gaussian 09:  ES64L-G09RevD.01 24-Apr-2013
                26-Aug-2020 
 ******************************************
 %chk=/home/boittier/MDCM/nms_sampling/butadiene_geom.xyz.dir/butadiene_2486.chk
 %nproc=8
 Will use up to    8 processors via shared memory.
 %mem=16000MB
 --------------------
 #p B2PLYPD3/Def2QZVP
 --------------------
 1/38=1/1;
 2/12=2,17=6,18=5,40=1/2;
 3/5=45,7=101,11=9,16=1,25=1,30=1,74=-60/1,2,3;
 4//1;
 5/5=2,38=5/2;
 8/10=1/1;
 9/16=-3/6;
 6/7=2,8=2,9=2,10=2/1;
 99/5=1,9=1/99;
 Leave Link    1 at Wed Aug 26 14:13:45 2020, MaxMem=  2097152000 cpu:         0.2
 (Enter /opt/cluster/programs/g09/g09_d.01/g09/l101.exe)
 ---------
 butadiene
 ---------
 Symbolic Z-matrix:
 Charge =  0 Multiplicity = 1
 C                    -3.8359    0.27651  -0.0407 
 C                    -2.73799  -0.53553   0.05021 
 C                    -1.39299   0.01422   0.05572 
 C                    -0.24583  -0.62349   0.00243 
 H                    -4.75621  -0.33418   0.27244 
 H                    -3.79232   1.37486  -0.05151 
 H                    -2.8486   -1.67573   0.25545 
 H                    -1.27624   1.14429   0.18507 
 H                    -0.17898  -1.67413  -0.01503 
 H                     0.62236  -0.06169  -0.04583 
 
 NAtoms=     10 NQM=       10 NQMF=       0 NMMI=      0 NMMIF=      0
                NMic=       0 NMicF=      0.
                    Isotopes and Nuclear Properties:
 (Nuclear quadrupole moments (NQMom) in fm**2, nuclear magnetic moments (NMagM)
  in nuclear magnetons)

  Atom         1           2           3           4           5           6           7           8           9          10
 IAtWgt=          12          12          12          12           1           1           1           1           1           1
 AtmWgt=  12.0000000  12.0000000  12.0000000  12.0000000   1.0078250   1.0078250   1.0078250   1.0078250   1.0078250   1.0078250
 NucSpn=           0           0           0           0           1           1           1           1           1           1
 AtZEff=   0.0000000   0.0000000   0.0000000   0.0000000   0.0000000   0.0000000   0.0000000   0.0000000   0.0000000   0.0000000
 NQMom=    0.0000000   0.0000000   0.0000000   0.0000000   0.0000000   0.0000000   0.0000000   0.0000000   0.0000000   0.0000000
 NMagM=    0.0000000   0.0000000   0.0000000   0.0000000   2.7928460   2.7928460   2.7928460   2.7928460   2.7928460   2.7928460
 AtZNuc=   6.0000000   6.0000000   6.0000000   6.0000000   1.0000000   1.0000000   1.0000000   1.0000000   1.0000000   1.0000000
 Leave Link  101 at Wed Aug 26 14:13:45 2020, MaxMem=  2097152000 cpu:         0.5
 (Enter /opt/cluster/programs/g09/g09_d.01/g09/l202.exe)
                          Input orientation:                          
 ---------------------------------------------------------------------
 Center     Atomic      Atomic             Coordinates (Angstroms)
 Number     Number       Type             X           Y           Z
 ---------------------------------------------------------------------
      1          6           0       -3.835904    0.276505   -0.040702
      2          6           0       -2.737991   -0.535534    0.050214
      3          6           0       -1.392992    0.014221    0.055724
      4          6           0       -0.245827   -0.623493    0.002427
      5          1           0       -4.756208   -0.334179    0.272436
      6          1           0       -3.792324    1.374857   -0.051512
      7          1           0       -2.848597   -1.675731    0.255445
      8          1           0       -1.276242    1.144287    0.185073
      9          1           0       -0.178983   -1.674132   -0.015032
     10          1           0        0.622358   -0.061692   -0.045828
 ---------------------------------------------------------------------
                    Distance matrix (angstroms):
                    1          2          3          4          5
     1  C    0.000000
     2  C    1.368607   0.000000
     3  C    2.458843   1.453026   0.000000
     4  C    3.701420   2.494174   1.313586   0.000000
     5  H    1.148020   2.040374   3.388151   4.527708   0.000000
     6  H    1.099269   2.184390   2.760367   4.071112   1.988673
     7  H    2.207647   1.163788   2.239333   2.818800   2.332173
     8  H    2.712174   2.230851   1.143421   2.054303   3.782018
     9  H    4.144721   2.801640   2.080711   1.052908   4.777981
    10  H    4.471074   3.394952   2.019334   1.035227   5.394860
                    6          7          8          9         10
     6  H    0.000000
     7  H    3.207948   0.000000
     8  H    2.537677   3.229513   0.000000
     9  H    4.727991   2.683281   3.031090   0.000000
    10  H    4.642534   3.839716   2.261058   1.800849   0.000000
 Stoichiometry    C4H6
 Framework group  C1[X(C4H6)]
 Deg. of freedom    24
 Full point group                 C1      NOp   1
 Largest Abelian subgroup         C1      NOp   1
 Largest concise Abelian subgroup C1      NOp   1
                         Standard orientation:                         
 ---------------------------------------------------------------------
 Center     Atomic      Atomic             Coordinates (Angstroms)
 Number     Number       Type             X           Y           Z
 ---------------------------------------------------------------------
      1          6           0        1.843841   -0.172920   -0.075488
      2          6           0        0.620730    0.437065   -0.004757
      3          6           0       -0.606671   -0.339350    0.039410
      4          6           0       -1.848294    0.084412   -0.026207
      5          1           0        2.643924    0.602455    0.201301
      6          1           0        1.993931   -1.261341   -0.040759
      7          1           0        0.530165    1.586653    0.152240
      8          1           0       -0.522391   -1.465849    0.216347
      9          1           0       -2.098832    1.105335   -0.085898
     10          1           0       -2.604438   -0.622497   -0.040982
 ---------------------------------------------------------------------
 Rotational constants (GHZ):     40.0373305      4.4357899      4.0066816
 Leave Link  202 at Wed Aug 26 14:13:45 2020, MaxMem=  2097152000 cpu:         0.0
 (Enter /opt/cluster/programs/g09/g09_d.01/g09/l301.exe)
 Standard basis: def2QZVP (5D, 7F)
 Ernie: Thresh=  0.10000D-02 Tol=  0.10000D-05 Strict=F.
 There are   498 symmetry adapted cartesian basis functions of A   symmetry.
 There are   408 symmetry adapted basis functions of A   symmetry.
   408 basis functions,   596 primitive gaussians,   498 cartesian basis functions
    15 alpha electrons       15 beta electrons
       nuclear repulsion energy       103.2925565706 Hartrees.
 IExCor=  419 DFT=T Ex+Corr=B2PLYPD3 ExCW=0 ScaHFX=  0.530000
 ScaDFX=  0.470000  0.470000  0.730000  0.730000 ScalE2=  0.270000  0.270000
 IRadAn=      0 IRanWt=     -1 IRanGd=            0 ICorTp=0 IEmpDi=141
 NAtoms=   10 NActive=   10 NUniq=   10 SFac= 1.00D+00 NAtFMM=   60 NAOKFM=F Big=F
 Integral buffers will be    131072 words long.
 Regular integral format.
 Two-electron integral symmetry is turned on.
 R6Disp:  Grimme-D3(BJ) Dispersion energy=       -0.0048177151 Hartrees.
 Nuclear repulsion after empirical dispersion term =      103.2877388555 Hartrees.
 Leave Link  301 at Wed Aug 26 14:13:45 2020, MaxMem=  2097152000 cpu:         0.5
 (Enter /opt/cluster/programs/g09/g09_d.01/g09/l302.exe)
 NPDir=0 NMtPBC=     1 NCelOv=     1 NCel=       1 NClECP=     1 NCelD=      1
         NCelK=      1 NCelE2=     1 NClLst=     1 CellRange=     0.0.
 One-electron integrals computed using PRISM.
   1 Symmetry operations used in ECPInt.
 ECPInt:  NShTT=    8256 NPrTT=   19107 LenC2=    8062 LenP2D=   16095.
 LDataN:  DoStor=T MaxTD1= 8 Len=  415
 NBasis=   408 RedAO= T EigKep=  4.90D-05  NBF=   408
 NBsUse=   408 1.00D-06 EigRej= -1.00D+00 NBFU=   408
 Precomputing XC quadrature grid using
 IXCGrd= 4 IRadAn=           0 IRanWt=          -1 IRanGd=           0 AccXCQ= 0.00D+00.
 Generated NRdTot=       0 NPtTot=           0 NUsed=           0 NTot=          32
 NSgBfM=   498   498   498   498   498 MxSgAt=    10 MxSgA2=    10.
 Leave Link  302 at Wed Aug 26 14:13:46 2020, MaxMem=  2097152000 cpu:         3.3
 (Enter /opt/cluster/programs/g09/g09_d.01/g09/l303.exe)
 DipDrv:  MaxL=1.
 Leave Link  303 at Wed Aug 26 14:13:46 2020, MaxMem=  2097152000 cpu:         0.4
 (Enter /opt/cluster/programs/g09/g09_d.01/g09/l401.exe)
 ExpMin= 7.60D-02 ExpMax= 6.70D+04 ExpMxC= 6.47D+02 IAcc=2 IRadAn=         4 AccDes= 0.00D+00
 Harris functional with IExCor=  419 and IRadAn=       4 diagonalized for initial guess.
 HarFok:  IExCor=  419 AccDes= 0.00D+00 IRadAn=         4 IDoV= 1 UseB2=F ITyADJ=14
 ICtDFT=  3500011 ScaDFX=  1.000000  1.000000  1.000000  1.000000
 FoFCou: FMM=F IPFlag=           0 FMFlag=      100000 FMFlg1=           0
         NFxFlg=           0 DoJE=T BraDBF=F KetDBF=T FulRan=T
         wScrn=  0.000000 ICntrl=     500 IOpCl=  0 I1Cent=   200000004 NGrid=           0
         NMat0=    1 NMatS0=      1 NMatT0=    0 NMatD0=    1 NMtDS0=    0 NMtDT0=    0
 Petite list used in FoFCou.
 Harris En= -156.110323654655    
 JPrj=0 DoOrth=F DoCkMO=F.
 Leave Link  401 at Wed Aug 26 14:13:47 2020, MaxMem=  2097152000 cpu:         8.3
 (Enter /opt/cluster/programs/g09/g09_d.01/g09/l502.exe)
 Closed shell SCF:
 Using DIIS extrapolation, IDIIS=  1040.
 Integral symmetry usage will be decided dynamically.
 IVT=      770090 IEndB=      770090 NGot=  2097152000 MDV=  2096647053
 LenX=  2096647053 LenY=  2096398551
 Requested convergence on RMS density matrix=1.00D-08 within 128 cycles.
 Requested convergence on MAX density matrix=1.00D-06.
 Requested convergence on             energy=1.00D-06.
 No special actions if energy rises.
 Fock matrices will be formed incrementally for  20 cycles.
 Integral accuracy reduced to 1.0D-05 until final iterations.

 Cycle   1  Pass 0  IDiag  1:
 FoFJK:  IHMeth= 1 ICntrl=       0 DoSepK=F KAlg= 0 I1Cent=   0 FoldK=F
 IRaf= 940000000 NMat=   1 IRICut=       1 DoRegI=T DoRafI=F ISym2E= 0.
 FoFCou: FMM=F IPFlag=           0 FMFlag=      100000 FMFlg1=           0
         NFxFlg=           0 DoJE=F BraDBF=F KetDBF=F FulRan=T
         wScrn=  0.000000 ICntrl=       0 IOpCl=  0 I1Cent=           0 NGrid=           0
         NMat0=    1 NMatS0=      1 NMatT0=    0 NMatD0=    1 NMtDS0=    0 NMtDT0=    0
 Symmetry not used in FoFCou.
 E= -155.488397413284    
 DIIS: error= 2.77D-02 at cycle   1 NSaved=   1.
 NSaved= 1 IEnMin= 1 EnMin= -155.488397413284     IErMin= 1 ErrMin= 2.77D-02
 ErrMax= 2.77D-02  0.00D+00 EMaxC= 1.00D-01 BMatC= 2.54D-01 BMatP= 2.54D-01
 IDIUse=3 WtCom= 7.23D-01 WtEn= 2.77D-01
 Coeff-Com:  0.100D+01
 Coeff-En:   0.100D+01
 Coeff:      0.100D+01
 Gap=     0.298 Goal=   None    Shift=    0.000
 GapD=    0.298 DampG=1.000 DampE=0.500 DampFc=0.5000 IDamp=-1.
 Damping current iteration by 5.00D-01
 RMSDP=9.85D-04 MaxDP=5.66D-02              OVMax= 2.03D-01

 Cycle   2  Pass 0  IDiag  1:
 RMSU=  4.52D-04    CP:  9.49D-01
 E= -155.588117000657     Delta-E=       -0.099719587374 Rises=F Damp=T
 DIIS: error= 9.31D-03 at cycle   2 NSaved=   2.
 NSaved= 2 IEnMin= 2 EnMin= -155.588117000657     IErMin= 2 ErrMin= 9.31D-03
 ErrMax= 9.31D-03  0.00D+00 EMaxC= 1.00D-01 BMatC= 2.92D-02 BMatP= 2.54D-01
 IDIUse=3 WtCom= 9.07D-01 WtEn= 9.31D-02
 Coeff-Com: -0.288D+00 0.129D+01
 Coeff-En:   0.000D+00 0.100D+01
 Coeff:     -0.261D+00 0.126D+01
 Gap=     0.353 Goal=   None    Shift=    0.000
 RMSDP=2.66D-04 MaxDP=1.10D-02 DE=-9.97D-02 OVMax= 9.81D-02

 Cycle   3  Pass 0  IDiag  1:
 RMSU=  2.57D-04    CP:  9.32D-01  1.06D+00
 E= -155.674492409635     Delta-E=       -0.086375408977 Rises=F Damp=F
 DIIS: error= 3.51D-03 at cycle   3 NSaved=   3.
 NSaved= 3 IEnMin= 3 EnMin= -155.674492409635     IErMin= 3 ErrMin= 3.51D-03
 ErrMax= 3.51D-03  0.00D+00 EMaxC= 1.00D-01 BMatC= 1.93D-03 BMatP= 2.92D-02
 IDIUse=3 WtCom= 9.65D-01 WtEn= 3.51D-02
 Coeff-Com: -0.112D+00 0.221D+00 0.891D+00
 Coeff-En:   0.000D+00 0.000D+00 0.100D+01
 Coeff:     -0.108D+00 0.214D+00 0.894D+00
 Gap=     0.290 Goal=   None    Shift=    0.000
 RMSDP=7.45D-05 MaxDP=4.26D-03 DE=-8.64D-02 OVMax= 2.18D-02

 Cycle   4  Pass 0  IDiag  1:
 RMSU=  5.46D-05    CP:  9.27D-01  1.16D+00  9.33D-01
 E= -155.675969440333     Delta-E=       -0.001477030698 Rises=F Damp=F
 DIIS: error= 2.36D-03 at cycle   4 NSaved=   4.
 NSaved= 4 IEnMin= 4 EnMin= -155.675969440333     IErMin= 4 ErrMin= 2.36D-03
 ErrMax= 2.36D-03  0.00D+00 EMaxC= 1.00D-01 BMatC= 6.44D-04 BMatP= 1.93D-03
 IDIUse=3 WtCom= 9.76D-01 WtEn= 2.36D-02
 Coeff-Com: -0.529D-01 0.858D-01 0.485D+00 0.482D+00
 Coeff-En:   0.000D+00 0.000D+00 0.146D+00 0.854D+00
 Coeff:     -0.516D-01 0.838D-01 0.477D+00 0.491D+00
 Gap=     0.290 Goal=   None    Shift=    0.000
 RMSDP=3.04D-05 MaxDP=1.86D-03 DE=-1.48D-03 OVMax= 1.05D-02

 Cycle   5  Pass 0  IDiag  1:
 RMSU=  1.64D-05    CP:  9.28D-01  1.15D+00  9.76D-01  5.83D-01
 E= -155.676604980185     Delta-E=       -0.000635539853 Rises=F Damp=F
 DIIS: error= 2.04D-04 at cycle   5 NSaved=   5.
 NSaved= 5 IEnMin= 5 EnMin= -155.676604980185     IErMin= 5 ErrMin= 2.04D-04
 ErrMax= 2.04D-04  0.00D+00 EMaxC= 1.00D-01 BMatC= 5.40D-06 BMatP= 6.44D-04
 IDIUse=3 WtCom= 9.98D-01 WtEn= 2.04D-03
 Coeff-Com: -0.442D-02 0.486D-02 0.509D-01 0.106D+00 0.842D+00
 Coeff-En:   0.000D+00 0.000D+00 0.000D+00 0.000D+00 0.100D+01
 Coeff:     -0.441D-02 0.485D-02 0.508D-01 0.106D+00 0.843D+00
 Gap=     0.290 Goal=   None    Shift=    0.000
 RMSDP=4.66D-06 MaxDP=1.79D-04 DE=-6.36D-04 OVMax= 1.15D-03

 Initial convergence to 1.0D-05 achieved.  Increase integral accuracy.
 Cycle   6  Pass 1  IDiag  1:
 E= -155.676614073694     Delta-E=       -0.000009093509 Rises=F Damp=F
 DIIS: error= 3.75D-05 at cycle   1 NSaved=   1.
 NSaved= 1 IEnMin= 1 EnMin= -155.676614073694     IErMin= 1 ErrMin= 3.75D-05
 ErrMax= 3.75D-05  0.00D+00 EMaxC= 1.00D-01 BMatC= 7.03D-07 BMatP= 7.03D-07
 IDIUse=1 WtCom= 1.00D+00 WtEn= 0.00D+00
 Coeff-Com:  0.100D+01
 Coeff:      0.100D+01
 Gap=     0.290 Goal=   None    Shift=    0.000
 RMSDP=4.66D-06 MaxDP=1.79D-04 DE=-9.09D-06 OVMax= 4.02D-04

 Cycle   7  Pass 1  IDiag  1:
 RMSU=  1.59D-05    CP:  1.00D+00
 E= -155.676614510103     Delta-E=       -0.000000436409 Rises=F Damp=F
 DIIS: error= 3.73D-05 at cycle   2 NSaved=   2.
 NSaved= 2 IEnMin= 2 EnMin= -155.676614510103     IErMin= 2 ErrMin= 3.73D-05
 ErrMax= 3.73D-05  0.00D+00 EMaxC= 1.00D-01 BMatC= 2.44D-07 BMatP= 7.03D-07
 IDIUse=1 WtCom= 1.00D+00 WtEn= 0.00D+00
 Coeff-Com:  0.342D+00 0.658D+00
 Coeff:      0.342D+00 0.658D+00
 Gap=     0.290 Goal=   None    Shift=    0.000
 RMSDP=9.19D-07 MaxDP=4.80D-05 DE=-4.36D-07 OVMax= 2.37D-04

 Cycle   8  Pass 1  IDiag  1:
 RMSU=  8.10D-07    CP:  1.00D+00  1.03D+00
 E= -155.676614732486     Delta-E=       -0.000000222383 Rises=F Damp=F
 DIIS: error= 1.02D-05 at cycle   3 NSaved=   3.
 NSaved= 3 IEnMin= 3 EnMin= -155.676614732486     IErMin= 3 ErrMin= 1.02D-05
 ErrMax= 1.02D-05  0.00D+00 EMaxC= 1.00D-01 BMatC= 3.49D-08 BMatP= 2.44D-07
 IDIUse=1 WtCom= 1.00D+00 WtEn= 0.00D+00
 Coeff-Com: -0.481D-02 0.255D+00 0.750D+00
 Coeff:     -0.481D-02 0.255D+00 0.750D+00
 Gap=     0.290 Goal=   None    Shift=    0.000
 RMSDP=4.80D-07 MaxDP=1.88D-05 DE=-2.22D-07 OVMax= 8.76D-05

 Cycle   9  Pass 1  IDiag  1:
 RMSU=  3.65D-07    CP:  1.00D+00  1.05D+00  9.79D-01
 E= -155.676614765200     Delta-E=       -0.000000032714 Rises=F Damp=F
 DIIS: error= 5.95D-06 at cycle   4 NSaved=   4.
 NSaved= 4 IEnMin= 4 EnMin= -155.676614765200     IErMin= 4 ErrMin= 5.95D-06
 ErrMax= 5.95D-06  0.00D+00 EMaxC= 1.00D-01 BMatC= 2.74D-09 BMatP= 3.49D-08
 IDIUse=1 WtCom= 1.00D+00 WtEn= 0.00D+00
 Coeff-Com: -0.243D-01 0.730D-01 0.292D+00 0.659D+00
 Coeff:     -0.243D-01 0.730D-01 0.292D+00 0.659D+00
 Gap=     0.290 Goal=   None    Shift=    0.000
 RMSDP=1.12D-07 MaxDP=5.14D-06 DE=-3.27D-08 OVMax= 3.79D-05

 Cycle  10  Pass 1  IDiag  1:
 RMSU=  9.30D-08    CP:  1.00D+00  1.05D+00  1.02D+00  1.08D+00
 E= -155.676614768640     Delta-E=       -0.000000003440 Rises=F Damp=F
 DIIS: error= 1.39D-06 at cycle   5 NSaved=   5.
 NSaved= 5 IEnMin= 5 EnMin= -155.676614768640     IErMin= 5 ErrMin= 1.39D-06
 ErrMax= 1.39D-06  0.00D+00 EMaxC= 1.00D-01 BMatC= 3.86D-10 BMatP= 2.74D-09
 IDIUse=1 WtCom= 1.00D+00 WtEn= 0.00D+00
 Coeff-Com: -0.407D-02-0.172D-01-0.796D-01 0.182D+00 0.919D+00
 Coeff:     -0.407D-02-0.172D-01-0.796D-01 0.182D+00 0.919D+00
 Gap=     0.290 Goal=   None    Shift=    0.000
 RMSDP=6.01D-08 MaxDP=2.53D-06 DE=-3.44D-09 OVMax= 1.39D-05

 Cycle  11  Pass 1  IDiag  1:
 RMSU=  3.22D-08    CP:  1.00D+00  1.05D+00  1.02D+00  1.21D+00  1.08D+00
 E= -155.676614769196     Delta-E=       -0.000000000556 Rises=F Damp=F
 DIIS: error= 3.40D-07 at cycle   6 NSaved=   6.
 NSaved= 6 IEnMin= 6 EnMin= -155.676614769196     IErMin= 6 ErrMin= 3.40D-07
 ErrMax= 3.40D-07  0.00D+00 EMaxC= 1.00D-01 BMatC= 2.60D-11 BMatP= 3.86D-10
 IDIUse=1 WtCom= 1.00D+00 WtEn= 0.00D+00
 Coeff-Com:  0.111D-02-0.117D-01-0.605D-01 0.113D-02 0.276D+00 0.794D+00
 Coeff:      0.111D-02-0.117D-01-0.605D-01 0.113D-02 0.276D+00 0.794D+00
 Gap=     0.290 Goal=   None    Shift=    0.000
 RMSDP=1.58D-08 MaxDP=5.13D-07 DE=-5.56D-10 OVMax= 2.60D-06

 Cycle  12  Pass 1  IDiag  1:
 RMSU=  1.12D-08    CP:  1.00D+00  1.05D+00  1.02D+00  1.23D+00  1.12D+00
                    CP:  1.19D+00
 E= -155.676614769225     Delta-E=       -0.000000000028 Rises=F Damp=F
 DIIS: error= 1.85D-07 at cycle   7 NSaved=   7.
 NSaved= 7 IEnMin= 7 EnMin= -155.676614769225     IErMin= 7 ErrMin= 1.85D-07
 ErrMax= 1.85D-07  0.00D+00 EMaxC= 1.00D-01 BMatC= 2.20D-12 BMatP= 2.60D-11
 IDIUse=1 WtCom= 1.00D+00 WtEn= 0.00D+00
 Coeff-Com:  0.570D-03-0.304D-02-0.193D-01-0.235D-02 0.635D-01 0.291D+00
 Coeff-Com:  0.670D+00
 Coeff:      0.570D-03-0.304D-02-0.193D-01-0.235D-02 0.635D-01 0.291D+00
 Coeff:      0.670D+00
 Gap=     0.290 Goal=   None    Shift=    0.000
 RMSDP=3.27D-09 MaxDP=1.43D-07 DE=-2.84D-11 OVMax= 9.01D-07

 SCF Done:  E(RB2PLYPD3) =  -155.676614769     A.U. after   12 cycles
            NFock= 12  Conv=0.33D-08     -V/T= 2.0047
 KE= 1.549431125715D+02 PE=-5.673413504430D+02 EE= 1.534338842467D+02
 Leave Link  502 at Wed Aug 26 14:16:51 2020, MaxMem=  2097152000 cpu:      1466.8
 (Enter /opt/cluster/programs/g09/g09_d.01/g09/l801.exe)
 DoSCS=T DFT=T ScalE2(SS,OS)=  0.270000  0.270000
 ExpMin= 7.60D-02 ExpMax= 6.70D+04 ExpMxC= 6.47D+02 IAcc=3 IRadAn=         5 AccDes= 0.00D+00
 HarFok:  IExCor=  205 AccDes= 0.00D+00 IRadAn=         5 IDoV=-2 UseB2=F ITyADJ=14
 ICtDFT= 12500011 ScaDFX=  1.000000  1.000000  1.000000  1.000000
 Largest valence mixing into a core orbital is  1.15D-04
 Largest core mixing into a valence orbital is  2.04D-05
 Range of M.O.s used for correlation:     5   408
 NBasis=   408 NAE=    15 NBE=    15 NFC=     4 NFV=     0
 NROrb=    404 NOA=    11 NOB=    11 NVA=   393 NVB=   393

 **** Warning!!: The largest alpha MO coefficient is  0.34456744D+02

 Leave Link  801 at Wed Aug 26 14:16:51 2020, MaxMem=  2097152000 cpu:         0.9
 (Enter /opt/cluster/programs/g09/g09_d.01/g09/l906.exe)
 DoSCS=T DFT=T ScalE2(SS,OS)=  0.270000  0.270000
 FulOut=F Deriv=F AODrv=F NAtomX=    10
   MMem=         881  MDisk=          11 MDiskD=          11
  W3Min=     2152854 MinDsk=     3857222 NBas6D=         498
 NBas2D=      125763    NTT=      124251    LW2=     4508827
    MDV=  2096383478 MDiskM=        9345 NBas2p=      117335
 Fully direct method using O(OVN) memory.
 IMap=   1   2   3   4   5   6   7   8   9  10  11
 JobTyp=1 Pass  1:  I=   1 to  11 NPSUse=  8 ParTrn=T ParDer=T DoDerP=F.
 Spin components of T(2) and E(2):
     alpha-alpha T2 =       0.4299852563D-01 E2=     -0.2562648966D-01
     alpha-beta  T2 =       0.2797500787D+00 E2=     -0.1762970308D+00
     beta-beta   T2 =       0.4299852563D-01 E2=     -0.2562648966D-01
 The integrals were generated   1 times.
 E2(B2PLYPD3) =    -0.2275500101D+00 E(B2PLYPD3) =    -0.15590416477933D+03
 Leave Link  906 at Wed Aug 26 14:18:25 2020, MaxMem=  2097152000 cpu:       753.5
 (Enter /opt/cluster/programs/g09/g09_d.01/g09/l601.exe)
 Copying SCF densities to generalized density rwf, IOpCl= 0 IROHF=0.

 **********************************************************************

            Population analysis using the SCF density.

 **********************************************************************

 Orbital symmetries:
       Occupied  (A) (A) (A) (A) (A) (A) (A) (A) (A) (A) (A) (A)
                 (A) (A) (A)
       Virtual   (A) (A) (A) (A) (A) (A) (A) (A) (A) (A) (A) (A)
                 (A) (A) (A) (A) (A) (A) (A) (A) (A) (A) (A) (A)
                 (A) (A) (A) (A) (A) (A) (A) (A) (A) (A) (A) (A)
                 (A) (A) (A) (A) (A) (A) (A) (A) (A) (A) (A) (A)
                 (A) (A) (A) (A) (A) (A) (A) (A) (A) (A) (A) (A)
                 (A) (A) (A) (A) (A) (A) (A) (A) (A) (A) (A) (A)
                 (A) (A) (A) (A) (A) (A) (A) (A) (A) (A) (A) (A)
                 (A) (A) (A) (A) (A) (A) (A) (A) (A) (A) (A) (A)
                 (A) (A) (A) (A) (A) (A) (A) (A) (A) (A) (A) (A)
                 (A) (A) (A) (A) (A) (A) (A) (A) (A) (A) (A) (A)
                 (A) (A) (A) (A) (A) (A) (A) (A) (A) (A) (A) (A)
                 (A) (A) (A) (A) (A) (A) (A) (A) (A) (A) (A) (A)
                 (A) (A) (A) (A) (A) (A) (A) (A) (A) (A) (A) (A)
                 (A) (A) (A) (A) (A) (A) (A) (A) (A) (A) (A) (A)
                 (A) (A) (A) (A) (A) (A) (A) (A) (A) (A) (A) (A)
                 (A) (A) (A) (A) (A) (A) (A) (A) (A) (A) (A) (A)
                 (A) (A) (A) (A) (A) (A) (A) (A) (A) (A) (A) (A)
                 (A) (A) (A) (A) (A) (A) (A) (A) (A) (A) (A) (A)
                 (A) (A) (A) (A) (A) (A) (A) (A) (A) (A) (A) (A)
                 (A) (A) (A) (A) (A) (A) (A) (A) (A) (A) (A) (A)
                 (A) (A) (A) (A) (A) (A) (A) (A) (A) (A) (A) (A)
                 (A) (A) (A) (A) (A) (A) (A) (A) (A) (A) (A) (A)
                 (A) (A) (A) (A) (A) (A) (A) (A) (A) (A) (A) (A)
                 (A) (A) (A) (A) (A) (A) (A) (A) (A) (A) (A) (A)
                 (A) (A) (A) (A) (A) (A) (A) (A) (A) (A) (A) (A)
                 (A) (A) (A) (A) (A) (A) (A) (A) (A) (A) (A) (A)
                 (A) (A) (A) (A) (A) (A) (A) (A) (A) (A) (A) (A)
                 (A) (A) (A) (A) (A) (A) (A) (A) (A) (A) (A) (A)
                 (A) (A) (A) (A) (A) (A) (A) (A) (A) (A) (A) (A)
                 (A) (A) (A) (A) (A) (A) (A) (A) (A) (A) (A) (A)
                 (A) (A) (A) (A) (A) (A) (A) (A) (A) (A) (A) (A)
                 (A) (A) (A) (A) (A) (A) (A) (A) (A) (A) (A) (A)
                 (A) (A) (A) (A) (A) (A) (A) (A) (A)
 The electronic state is 1-A.
 Alpha  occ. eigenvalues --  -10.64060 -10.62947 -10.62562 -10.60308  -0.92722
 Alpha  occ. eigenvalues --   -0.85025  -0.69880  -0.62675  -0.54649  -0.53497
 Alpha  occ. eigenvalues --   -0.46723  -0.44600  -0.40678  -0.37429  -0.27777
 Alpha virt. eigenvalues --    0.01236   0.06779   0.06964   0.07790   0.09602
 Alpha virt. eigenvalues --    0.11495   0.12302   0.14877   0.15621   0.15766
 Alpha virt. eigenvalues --    0.18775   0.19415   0.21320   0.22458   0.24336
 Alpha virt. eigenvalues --    0.26018   0.26899   0.29314   0.30741   0.31279
 Alpha virt. eigenvalues --    0.34154   0.35794   0.36057   0.37580   0.38841
 Alpha virt. eigenvalues --    0.42095   0.42513   0.44730   0.46836   0.47613
 Alpha virt. eigenvalues --    0.48231   0.50068   0.51711   0.55317   0.57146
 Alpha virt. eigenvalues --    0.59458   0.63251   0.64261   0.66243   0.68064
 Alpha virt. eigenvalues --    0.69699   0.71479   0.74960   0.76239   0.77960
 Alpha virt. eigenvalues --    0.78613   0.80123   0.81770   0.82694   0.83383
 Alpha virt. eigenvalues --    0.84852   0.85878   0.86434   0.88410   0.89830
 Alpha virt. eigenvalues --    0.91431   0.92910   0.93431   0.96151   0.97362
 Alpha virt. eigenvalues --    0.98071   0.98737   1.00454   1.02574   1.04993
 Alpha virt. eigenvalues --    1.06552   1.07232   1.08677   1.10428   1.11538
 Alpha virt. eigenvalues --    1.12558   1.14696   1.19125   1.19824   1.22472
 Alpha virt. eigenvalues --    1.24631   1.27037   1.31570   1.33980   1.36182
 Alpha virt. eigenvalues --    1.37387   1.39497   1.46482   1.50371   1.57589
 Alpha virt. eigenvalues --    1.62917   1.65629   1.66517   1.69324   1.73102
 Alpha virt. eigenvalues --    1.77104   1.82295   1.83751   1.86058   1.87545
 Alpha virt. eigenvalues --    1.88290   1.88541   1.91157   1.92709   1.95892
 Alpha virt. eigenvalues --    1.97106   1.97890   2.00437   2.01878   2.02917
 Alpha virt. eigenvalues --    2.03607   2.04273   2.06482   2.08685   2.09790
 Alpha virt. eigenvalues --    2.11437   2.12499   2.13991   2.17193   2.19573
 Alpha virt. eigenvalues --    2.20253   2.21748   2.23271   2.29124   2.29977
 Alpha virt. eigenvalues --    2.32550   2.33127   2.35086   2.36398   2.41153
 Alpha virt. eigenvalues --    2.42135   2.43030   2.43694   2.46679   2.50840
 Alpha virt. eigenvalues --    2.51721   2.52088   2.54203   2.56031   2.57489
 Alpha virt. eigenvalues --    2.57933   2.59198   2.60770   2.61974   2.64334
 Alpha virt. eigenvalues --    2.65855   2.66182   2.68647   2.70528   2.72186
 Alpha virt. eigenvalues --    2.73156   2.74778   2.75197   2.77691   2.79629
 Alpha virt. eigenvalues --    2.82694   2.83674   2.88465   2.91194   2.93113
 Alpha virt. eigenvalues --    2.95395   2.98320   3.02078   3.04308   3.06999
 Alpha virt. eigenvalues --    3.11813   3.12643   3.21802   3.29217   3.30576
 Alpha virt. eigenvalues --    3.33358   3.34193   3.37194   3.42087   3.45175
 Alpha virt. eigenvalues --    3.46495   3.47249   3.50454   3.51960   3.52019
 Alpha virt. eigenvalues --    3.57524   3.59286   3.64183   3.65674   3.68052
 Alpha virt. eigenvalues --    3.74866   3.76958   3.83726   3.87855   3.88932
 Alpha virt. eigenvalues --    3.89407   3.96770   3.98680   4.05961   4.11297
 Alpha virt. eigenvalues --    4.14551   4.18046   4.24414   4.25955   4.30393
 Alpha virt. eigenvalues --    4.46883   4.47862   4.58487   4.74518   4.98700
 Alpha virt. eigenvalues --    5.00278   5.03418   5.06428   5.06768   5.12020
 Alpha virt. eigenvalues --    5.16014   5.21728   5.22855   5.25956   5.29950
 Alpha virt. eigenvalues --    5.32974   5.36169   5.37532   5.42879   5.48764
 Alpha virt. eigenvalues --    5.51105   5.55437   5.59134   5.60358   5.65124
 Alpha virt. eigenvalues --    5.66934   5.70312   5.71283   5.74748   5.77398
 Alpha virt. eigenvalues --    5.78275   5.78636   5.81892   5.83050   5.88635
 Alpha virt. eigenvalues --    5.89678   5.92078   5.93075   5.95303   5.97283
 Alpha virt. eigenvalues --    6.01254   6.03146   6.05376   6.07387   6.10505
 Alpha virt. eigenvalues --    6.12442   6.13350   6.14152   6.15265   6.18085
 Alpha virt. eigenvalues --    6.20607   6.22524   6.23236   6.25305   6.26174
 Alpha virt. eigenvalues --    6.29769   6.32291   6.35318   6.36190   6.37971
 Alpha virt. eigenvalues --    6.39254   6.40188   6.41782   6.43688   6.44559
 Alpha virt. eigenvalues --    6.47567   6.49343   6.53847   6.55196   6.56329
 Alpha virt. eigenvalues --    6.60477   6.63203   6.66226   6.70725   6.72557
 Alpha virt. eigenvalues --    6.79558   6.83284   6.84117   6.85458   6.88145
 Alpha virt. eigenvalues --    6.92957   6.95132   6.98844   7.02689   7.07177
 Alpha virt. eigenvalues --    7.07735   7.12120   7.15849   7.18144   7.20909
 Alpha virt. eigenvalues --    7.23519   7.25011   7.29561   7.33818   7.36354
 Alpha virt. eigenvalues --    7.38533   7.44363   7.47115   7.51192   7.55479
 Alpha virt. eigenvalues --    7.57382   7.59080   7.61718   7.64216   7.66345
 Alpha virt. eigenvalues --    7.67823   7.70623   7.71259   7.73625   7.75561
 Alpha virt. eigenvalues --    7.78285   7.80297   7.83239   7.88115   7.90260
 Alpha virt. eigenvalues --    7.93923   7.94674   7.99089   8.02295   8.06003
 Alpha virt. eigenvalues --    8.09044   8.10095   8.12369   8.14368   8.19775
 Alpha virt. eigenvalues --    8.22059   8.27742   8.29008   8.30534   8.32423
 Alpha virt. eigenvalues --    8.34453   8.35936   8.39082   8.40852   8.42038
 Alpha virt. eigenvalues --    8.42582   8.44139   8.48018   8.49736   8.55324
 Alpha virt. eigenvalues --    8.56155   8.58493   8.62082   8.65078   8.66964
 Alpha virt. eigenvalues --    8.71192   8.73981   8.75659   8.77387   8.78633
 Alpha virt. eigenvalues --    8.88672   8.91899   8.95789   9.00794   9.04600
 Alpha virt. eigenvalues --    9.10778   9.13305   9.22410   9.26418   9.41922
 Alpha virt. eigenvalues --    9.51074   9.55426   9.60101   9.61447   9.65713
 Alpha virt. eigenvalues --    9.69311   9.70891   9.80798   9.82804   9.85455
 Alpha virt. eigenvalues --    9.99009  10.07057  10.08719  10.14887  10.29977
 Alpha virt. eigenvalues --   10.32240  10.39613  10.48147  10.58459  10.63600
 Alpha virt. eigenvalues --   10.93902  11.13253  11.41284  11.55974  11.67104
 Alpha virt. eigenvalues --   11.96923  12.43396  12.68725  12.84346  13.37750
 Alpha virt. eigenvalues --   28.51676  28.78720  29.26663  29.69992 148.10660
 Alpha virt. eigenvalues --  148.36724 148.83560 149.33018
          Condensed to atoms (all electrons):
               1          2          3          4          5          6
     1  C    4.868246   0.599106  -0.084552  -0.001026   0.416083   0.418932
     2  C    0.599106   4.886684   0.378156  -0.078267  -0.055144  -0.040641
     3  C   -0.084552   0.378156   4.857890   0.601138   0.009208  -0.005586
     4  C   -0.001026  -0.078267   0.601138   4.847536  -0.000871   0.000454
     5  H    0.416083  -0.055144   0.009208  -0.000871   0.605358  -0.037697
     6  H    0.418932  -0.040641  -0.005586   0.000454  -0.037697   0.573046
     7  H   -0.041387   0.408705  -0.056125   0.000527  -0.011096   0.006127
     8  H   -0.003069  -0.058692   0.411986  -0.051487  -0.000008   0.004045
     9  H    0.000104  -0.006109  -0.050349   0.428089  -0.000029   0.000055
    10  H   -0.000744   0.007537  -0.053748   0.435160   0.000045  -0.000056
               7          8          9         10
     1  C   -0.041387  -0.003069   0.000104  -0.000744
     2  C    0.408705  -0.058692  -0.006109   0.007537
     3  C   -0.056125   0.411986  -0.050349  -0.053748
     4  C    0.000527  -0.051487   0.428089   0.435160
     5  H   -0.011096  -0.000008  -0.000029   0.000045
     6  H    0.006127   0.004045   0.000055  -0.000056
     7  H    0.629490   0.006436   0.004406  -0.000350
     8  H    0.006436   0.657279   0.009207  -0.014206
     9  H    0.004406   0.009207   0.593022  -0.044540
    10  H   -0.000350  -0.014206  -0.044540   0.581999
 Mulliken charges:
               1
     1  C   -0.171692
     2  C   -0.041335
     3  C   -0.008017
     4  C   -0.181252
     5  H    0.074151
     6  H    0.081321
     7  H    0.053267
     8  H    0.038510
     9  H    0.066145
    10  H    0.088902
 Sum of Mulliken charges =   0.00000
 Mulliken charges with hydrogens summed into heavy atoms:
               1
     1  C   -0.016219
     2  C    0.011932
     3  C    0.030493
     4  C   -0.026205
 Electronic spatial extent (au):  <R**2>=            337.5915
 Charge=              0.0000 electrons
 Dipole moment (field-independent basis, Debye):
    X=             -0.1566    Y=             -0.0055    Z=              0.3618  Tot=              0.3943
 Quadrupole moment (field-independent basis, Debye-Ang):
   XX=            -24.4746   YY=            -22.8056   ZZ=            -29.3482
   XY=             -0.1867   XZ=              0.8099   YZ=              0.1416
 Traceless Quadrupole moment (field-independent basis, Debye-Ang):
   XX=              1.0682   YY=              2.7372   ZZ=             -3.8054
   XY=             -0.1867   XZ=              0.8099   YZ=              0.1416
 Octapole moment (field-independent basis, Debye-Ang**2):
  XXX=             -4.2221  YYY=             -0.0631  ZZZ=              0.6061  XYY=              0.2769
  XXY=             -0.5562  XXZ=              1.3647  XZZ=             -0.6859  YZZ=             -0.0582
  YYZ=              0.9745  XYZ=              0.8153
 Hexadecapole moment (field-independent basis, Debye-Ang**3):
 XXXX=           -362.8217 YYYY=            -67.4403 ZZZZ=            -37.8981 XXXY=              3.7589
 XXXZ=              6.8795 YYYX=             -2.1389 YYYZ=              0.1724 ZZZX=              1.3584
 ZZZY=              0.1432 XXYY=            -66.4881 XXZZ=            -77.3335 YYZZ=            -19.9021
 XXYZ=              1.2424 YYXZ=              0.7951 ZZXY=             -0.4570
 N-N= 1.032877388555D+02 E-N=-5.673413578966D+02  KE= 1.549431125715D+02
 Leave Link  601 at Wed Aug 26 14:18:26 2020, MaxMem=  2097152000 cpu:         0.7
 (Enter /opt/cluster/programs/g09/g09_d.01/g09/l9999.exe)
 1\1\GINC-NODE23\SP\RB2PLYPD3-FC\def2QZVP\C4H6\BOITTIER\26-Aug-2020\0\\
 #p B2PLYPD3/Def2QZVP\\butadiene\\0,1\C,0,-3.835904,0.276505,-0.040702\
 C,0,-2.737991,-0.535534,0.050214\C,0,-1.392992,0.014221,0.055724\C,0,-
 0.245827,-0.623493,0.002427\H,0,-4.756208,-0.334179,0.272436\H,0,-3.79
 2324,1.374857,-0.051512\H,0,-2.848597,-1.675731,0.255445\H,0,-1.276242
 ,1.144287,0.185073\H,0,-0.178983,-1.674132,-0.015032\H,0,0.622358,-0.0
 61692,-0.045828\\Version=ES64L-G09RevD.01\State=1-A\HF=-155.6766148\MP
 2=-155.9041648\RMSD=3.271e-09\PG=C01 [X(C4H6)]\\@


 FAULTILY FAULTLESS, ICILY REGULAR, SPLENDIDLY NULL...
           MAUDE BY TENNYSON
 Job cpu time:       0 days  0 hours 37 minutes 15.9 seconds.
 File lengths (MBytes):  RWF=     92 Int=      0 D2E=      0 Chk=      9 Scr=      1
 Normal termination of Gaussian 09 at Wed Aug 26 14:18:26 2020.
