 Entering Gaussian System, Link 0=/opt/cluster/programs/g09/g09_d.01/g09//g09
 Input=/home/boittier/MDCM/nms_sampling/butadiene_geom.xyz.dir/energies/butadiene_298_energy.com
 Output=/scratch/boittier/butadiene_298_energy/butadiene_298_energy.out
 Initial command:
 /opt/cluster/programs/g09/g09_d.01/g09/l1.exe "/scratch/boittier/butadiene_298_energy/Gau-143702.inp" -scrdir="/scratch/boittier/butadiene_298_energy/"
 Entering Link 1 = /opt/cluster/programs/g09/g09_d.01/g09/l1.exe PID=    143703.
  
 Copyright (c) 1988,1990,1992,1993,1995,1998,2003,2009,2013,
            Gaussian, Inc.  All Rights Reserved.
  
 This is part of the Gaussian(R) 09 program.  It is based on
 the Gaussian(R) 03 system (copyright 2003, Gaussian, Inc.),
 the Gaussian(R) 98 system (copyright 1998, Gaussian, Inc.),
 the Gaussian(R) 94 system (copyright 1995, Gaussian, Inc.),
 the Gaussian 92(TM) system (copyright 1992, Gaussian, Inc.),
 the Gaussian 90(TM) system (copyright 1990, Gaussian, Inc.),
 the Gaussian 88(TM) system (copyright 1988, Gaussian, Inc.),
 the Gaussian 86(TM) system (copyright 1986, Carnegie Mellon
 University), and the Gaussian 82(TM) system (copyright 1983,
 Carnegie Mellon University). Gaussian is a federally registered
 trademark of Gaussian, Inc.
  
 This software contains proprietary and confidential information,
 including trade secrets, belonging to Gaussian, Inc.
  
 This software is provided under written license and may be
 used, copied, transmitted, or stored only in accord with that
 written license.
  
 The following legend is applicable only to US Government
 contracts under FAR:
  
                    RESTRICTED RIGHTS LEGEND
  
 Use, reproduction and disclosure by the US Government is
 subject to restrictions as set forth in subparagraphs (a)
 and (c) of the Commercial Computer Software - Restricted
 Rights clause in FAR 52.227-19.
  
 Gaussian, Inc.
 340 Quinnipiac St., Bldg. 40, Wallingford CT 06492
  
  
 ---------------------------------------------------------------
 Warning -- This program may not be used in any manner that
 competes with the business of Gaussian, Inc. or will provide
 assistance to any competitor of Gaussian, Inc.  The licensee
 of this program is prohibited from giving any competitor of
 Gaussian, Inc. access to this program.  By using this program,
 the user acknowledges that Gaussian, Inc. is engaged in the
 business of creating and licensing software in the field of
 computational chemistry and represents and warrants to the
 licensee that it is not a competitor of Gaussian, Inc. and that
 it will not use this program in any manner prohibited above.
 ---------------------------------------------------------------
  

 Cite this work as:
 Gaussian 09, Revision D.01,
 M. J. Frisch, G. W. Trucks, H. B. Schlegel, G. E. Scuseria, 
 M. A. Robb, J. R. Cheeseman, G. Scalmani, V. Barone, B. Mennucci, 
 G. A. Petersson, H. Nakatsuji, M. Caricato, X. Li, H. P. Hratchian, 
 A. F. Izmaylov, J. Bloino, G. Zheng, J. L. Sonnenberg, M. Hada, 
 M. Ehara, K. Toyota, R. Fukuda, J. Hasegawa, M. Ishida, T. Nakajima, 
 Y. Honda, O. Kitao, H. Nakai, T. Vreven, J. A. Montgomery, Jr., 
 J. E. Peralta, F. Ogliaro, M. Bearpark, J. J. Heyd, E. Brothers, 
 K. N. Kudin, V. N. Staroverov, T. Keith, R. Kobayashi, J. Normand, 
 K. Raghavachari, A. Rendell, J. C. Burant, S. S. Iyengar, J. Tomasi, 
 M. Cossi, N. Rega, J. M. Millam, M. Klene, J. E. Knox, J. B. Cross, 
 V. Bakken, C. Adamo, J. Jaramillo, R. Gomperts, R. E. Stratmann, 
 O. Yazyev, A. J. Austin, R. Cammi, C. Pomelli, J. W. Ochterski, 
 R. L. Martin, K. Morokuma, V. G. Zakrzewski, G. A. Voth, 
 P. Salvador, J. J. Dannenberg, S. Dapprich, A. D. Daniels, 
 O. Farkas, J. B. Foresman, J. V. Ortiz, J. Cioslowski, 
 and D. J. Fox, Gaussian, Inc., Wallingford CT, 2013.
 
 ******************************************
 Gaussian 09:  ES64L-G09RevD.01 24-Apr-2013
                26-Aug-2020 
 ******************************************
 %chk=/home/boittier/MDCM/nms_sampling/butadiene_geom.xyz.dir/butadiene_298.chk
 %nproc=8
 Will use up to    8 processors via shared memory.
 %mem=16000MB
 --------------------
 #p B2PLYPD3/Def2QZVP
 --------------------
 1/38=1/1;
 2/12=2,17=6,18=5,40=1/2;
 3/5=45,7=101,11=9,16=1,25=1,30=1,74=-60/1,2,3;
 4//1;
 5/5=2,38=5/2;
 8/10=1/1;
 9/16=-3/6;
 6/7=2,8=2,9=2,10=2/1;
 99/5=1,9=1/99;
 Leave Link    1 at Wed Aug 26 16:10:29 2020, MaxMem=  2097152000 cpu:         0.2
 (Enter /opt/cluster/programs/g09/g09_d.01/g09/l101.exe)
 ---------
 butadiene
 ---------
 Symbolic Z-matrix:
 Charge =  0 Multiplicity = 1
 C                    -3.83555   0.22875   0.0041 
 C                    -2.72078  -0.51379   0.04545 
 C                    -1.38711   0.06949   0.04188 
 C                    -0.26652  -0.64836   0.00656 
 H                    -4.84131  -0.20794  -0.01055 
 H                    -3.77766   1.31553  -0.01843 
 H                    -2.7945   -1.57184   0.1061 
 H                    -1.33363   1.14689   0.00369 
 H                    -0.24468  -1.73031   0.11896 
 H                     0.69957  -0.20257  -0.03325 
 
 NAtoms=     10 NQM=       10 NQMF=       0 NMMI=      0 NMMIF=      0
                NMic=       0 NMicF=      0.
                    Isotopes and Nuclear Properties:
 (Nuclear quadrupole moments (NQMom) in fm**2, nuclear magnetic moments (NMagM)
  in nuclear magnetons)

  Atom         1           2           3           4           5           6           7           8           9          10
 IAtWgt=          12          12          12          12           1           1           1           1           1           1
 AtmWgt=  12.0000000  12.0000000  12.0000000  12.0000000   1.0078250   1.0078250   1.0078250   1.0078250   1.0078250   1.0078250
 NucSpn=           0           0           0           0           1           1           1           1           1           1
 AtZEff=   0.0000000   0.0000000   0.0000000   0.0000000   0.0000000   0.0000000   0.0000000   0.0000000   0.0000000   0.0000000
 NQMom=    0.0000000   0.0000000   0.0000000   0.0000000   0.0000000   0.0000000   0.0000000   0.0000000   0.0000000   0.0000000
 NMagM=    0.0000000   0.0000000   0.0000000   0.0000000   2.7928460   2.7928460   2.7928460   2.7928460   2.7928460   2.7928460
 AtZNuc=   6.0000000   6.0000000   6.0000000   6.0000000   1.0000000   1.0000000   1.0000000   1.0000000   1.0000000   1.0000000
 Leave Link  101 at Wed Aug 26 16:10:29 2020, MaxMem=  2097152000 cpu:         0.5
 (Enter /opt/cluster/programs/g09/g09_d.01/g09/l202.exe)
                          Input orientation:                          
 ---------------------------------------------------------------------
 Center     Atomic      Atomic             Coordinates (Angstroms)
 Number     Number       Type             X           Y           Z
 ---------------------------------------------------------------------
      1          6           0       -3.835552    0.228750    0.004096
      2          6           0       -2.720777   -0.513787    0.045451
      3          6           0       -1.387105    0.069494    0.041883
      4          6           0       -0.266518   -0.648357    0.006556
      5          1           0       -4.841313   -0.207942   -0.010546
      6          1           0       -3.777658    1.315534   -0.018428
      7          1           0       -2.794504   -1.571835    0.106101
      8          1           0       -1.333632    1.146887    0.003692
      9          1           0       -0.244678   -1.730307    0.118964
     10          1           0        0.699568   -0.202565   -0.033254
 ---------------------------------------------------------------------
                    Distance matrix (angstroms):
                    1          2          3          4          5
     1  C    0.000000
     2  C    1.340073   0.000000
     3  C    2.453912   1.455648   0.000000
     4  C    3.675231   2.458253   1.331268   0.000000
     5  H    1.096572   2.143210   3.465728   4.595977   0.000000
     6  H    1.088558   2.113645   2.696479   4.023133   1.858064
     7  H    2.082377   1.062346   2.163067   2.693220   2.462364
     8  H    2.665066   2.164198   1.079395   2.088454   3.760265
     9  H    4.092124   2.759781   2.133158   1.087993   4.843906
    10  H    4.555737   3.435377   2.105675   1.064724   5.540930
                    6          7          8          9         10
     6  H    0.000000
     7  H    3.052704   0.000000
     8  H    2.449938   3.088055   0.000000
     9  H    4.666687   2.554778   3.078531   0.000000
    10  H    4.727621   3.755377   2.440551   1.802433   0.000000
 Stoichiometry    C4H6
 Framework group  C1[X(C4H6)]
 Deg. of freedom    24
 Full point group                 C1      NOp   1
 Largest Abelian subgroup         C1      NOp   1
 Largest concise Abelian subgroup C1      NOp   1
                         Standard orientation:                         
 ---------------------------------------------------------------------
 Center     Atomic      Atomic             Coordinates (Angstroms)
 Number     Number       Type             X           Y           Z
 ---------------------------------------------------------------------
      1          6           0        1.834712    0.112133    0.012227
      2          6           0        0.603449   -0.416447   -0.007515
      3          6           0       -0.601998    0.399242   -0.028953
      4          6           0       -1.834283   -0.101366    0.027067
      5          1           0        2.744399   -0.499279    0.045607
      6          1           0        1.975348    1.191460   -0.003011
      7          1           0        0.483501   -1.471731   -0.031315
      8          1           0       -0.458679    1.469080   -0.028193
      9          1           0       -2.052689   -1.164567   -0.047982
     10          1           0       -2.703155    0.513665    0.047937
 ---------------------------------------------------------------------
 Rotational constants (GHZ):     42.2310765      4.4683316      4.0426957
 Leave Link  202 at Wed Aug 26 16:10:29 2020, MaxMem=  2097152000 cpu:         0.1
 (Enter /opt/cluster/programs/g09/g09_d.01/g09/l301.exe)
 Standard basis: def2QZVP (5D, 7F)
 Ernie: Thresh=  0.10000D-02 Tol=  0.10000D-05 Strict=F.
 There are   498 symmetry adapted cartesian basis functions of A   symmetry.
 There are   408 symmetry adapted basis functions of A   symmetry.
   408 basis functions,   596 primitive gaussians,   498 cartesian basis functions
    15 alpha electrons       15 beta electrons
       nuclear repulsion energy       104.0650830687 Hartrees.
 IExCor=  419 DFT=T Ex+Corr=B2PLYPD3 ExCW=0 ScaHFX=  0.530000
 ScaDFX=  0.470000  0.470000  0.730000  0.730000 ScalE2=  0.270000  0.270000
 IRadAn=      0 IRanWt=     -1 IRanGd=            0 ICorTp=0 IEmpDi=141
 NAtoms=   10 NActive=   10 NUniq=   10 SFac= 1.00D+00 NAtFMM=   60 NAOKFM=F Big=F
 Integral buffers will be    131072 words long.
 Regular integral format.
 Two-electron integral symmetry is turned on.
 R6Disp:  Grimme-D3(BJ) Dispersion energy=       -0.0048368897 Hartrees.
 Nuclear repulsion after empirical dispersion term =      104.0602461790 Hartrees.
 Leave Link  301 at Wed Aug 26 16:10:30 2020, MaxMem=  2097152000 cpu:         7.1
 (Enter /opt/cluster/programs/g09/g09_d.01/g09/l302.exe)
 NPDir=0 NMtPBC=     1 NCelOv=     1 NCel=       1 NClECP=     1 NCelD=      1
         NCelK=      1 NCelE2=     1 NClLst=     1 CellRange=     0.0.
 One-electron integrals computed using PRISM.
   1 Symmetry operations used in ECPInt.
 ECPInt:  NShTT=    8256 NPrTT=   19107 LenC2=    8057 LenP2D=   16118.
 LDataN:  DoStor=T MaxTD1= 8 Len=  415
 NBasis=   408 RedAO= T EigKep=  4.26D-05  NBF=   408
 NBsUse=   408 1.00D-06 EigRej= -1.00D+00 NBFU=   408
 Precomputing XC quadrature grid using
 IXCGrd= 4 IRadAn=           0 IRanWt=          -1 IRanGd=           0 AccXCQ= 0.00D+00.
 Generated NRdTot=       0 NPtTot=           0 NUsed=           0 NTot=          32
 NSgBfM=   498   498   498   498   498 MxSgAt=    10 MxSgA2=    10.
 Leave Link  302 at Wed Aug 26 16:10:30 2020, MaxMem=  2097152000 cpu:         3.1
 (Enter /opt/cluster/programs/g09/g09_d.01/g09/l303.exe)
 DipDrv:  MaxL=1.
 Leave Link  303 at Wed Aug 26 16:10:30 2020, MaxMem=  2097152000 cpu:         0.3
 (Enter /opt/cluster/programs/g09/g09_d.01/g09/l401.exe)
 ExpMin= 7.60D-02 ExpMax= 6.70D+04 ExpMxC= 6.47D+02 IAcc=2 IRadAn=         4 AccDes= 0.00D+00
 Harris functional with IExCor=  419 and IRadAn=       4 diagonalized for initial guess.
 HarFok:  IExCor=  419 AccDes= 0.00D+00 IRadAn=         4 IDoV= 1 UseB2=F ITyADJ=14
 ICtDFT=  3500011 ScaDFX=  1.000000  1.000000  1.000000  1.000000
 FoFCou: FMM=F IPFlag=           0 FMFlag=      100000 FMFlg1=           0
         NFxFlg=           0 DoJE=T BraDBF=F KetDBF=T FulRan=T
         wScrn=  0.000000 ICntrl=     500 IOpCl=  0 I1Cent=   200000004 NGrid=           0
         NMat0=    1 NMatS0=      1 NMatT0=    0 NMatD0=    1 NMtDS0=    0 NMtDT0=    0
 Petite list used in FoFCou.
 Harris En= -156.136674531360    
 JPrj=0 DoOrth=F DoCkMO=F.
 Leave Link  401 at Wed Aug 26 16:10:32 2020, MaxMem=  2097152000 cpu:         7.9
 (Enter /opt/cluster/programs/g09/g09_d.01/g09/l502.exe)
 Closed shell SCF:
 Using DIIS extrapolation, IDIIS=  1040.
 Integral symmetry usage will be decided dynamically.
 IVT=      770090 IEndB=      770090 NGot=  2097152000 MDV=  2096647053
 LenX=  2096647053 LenY=  2096398551
 Requested convergence on RMS density matrix=1.00D-08 within 128 cycles.
 Requested convergence on MAX density matrix=1.00D-06.
 Requested convergence on             energy=1.00D-06.
 No special actions if energy rises.
 Fock matrices will be formed incrementally for  20 cycles.
 Integral accuracy reduced to 1.0D-05 until final iterations.

 Cycle   1  Pass 0  IDiag  1:
 FoFJK:  IHMeth= 1 ICntrl=       0 DoSepK=F KAlg= 0 I1Cent=   0 FoldK=F
 IRaf= 940000000 NMat=   1 IRICut=       1 DoRegI=T DoRafI=F ISym2E= 0.
 FoFCou: FMM=F IPFlag=           0 FMFlag=      100000 FMFlg1=           0
         NFxFlg=           0 DoJE=F BraDBF=F KetDBF=F FulRan=T
         wScrn=  0.000000 ICntrl=       0 IOpCl=  0 I1Cent=           0 NGrid=           0
         NMat0=    1 NMatS0=      1 NMatT0=    0 NMatD0=    1 NMtDS0=    0 NMtDT0=    0
 Symmetry not used in FoFCou.
 E= -155.512437129589    
 DIIS: error= 3.76D-02 at cycle   1 NSaved=   1.
 NSaved= 1 IEnMin= 1 EnMin= -155.512437129589     IErMin= 1 ErrMin= 3.76D-02
 ErrMax= 3.76D-02  0.00D+00 EMaxC= 1.00D-01 BMatC= 2.53D-01 BMatP= 2.53D-01
 IDIUse=3 WtCom= 6.24D-01 WtEn= 3.76D-01
 Coeff-Com:  0.100D+01
 Coeff-En:   0.100D+01
 Coeff:      0.100D+01
 Gap=     0.299 Goal=   None    Shift=    0.000
 GapD=    0.299 DampG=1.000 DampE=0.500 DampFc=0.5000 IDamp=-1.
 Damping current iteration by 5.00D-01
 RMSDP=9.47D-04 MaxDP=5.11D-02              OVMax= 1.94D-01

 Cycle   2  Pass 0  IDiag  1:
 RMSU=  4.35D-04    CP:  9.51D-01
 E= -155.611935991684     Delta-E=       -0.099498862095 Rises=F Damp=T
 DIIS: error= 1.03D-02 at cycle   2 NSaved=   2.
 NSaved= 2 IEnMin= 2 EnMin= -155.611935991684     IErMin= 2 ErrMin= 1.03D-02
 ErrMax= 1.03D-02  0.00D+00 EMaxC= 1.00D-01 BMatC= 2.98D-02 BMatP= 2.53D-01
 IDIUse=3 WtCom= 8.97D-01 WtEn= 1.03D-01
 Coeff-Com: -0.299D+00 0.130D+01
 Coeff-En:   0.000D+00 0.100D+01
 Coeff:     -0.268D+00 0.127D+01
 Gap=     0.357 Goal=   None    Shift=    0.000
 RMSDP=2.65D-04 MaxDP=8.36D-03 DE=-9.95D-02 OVMax= 9.50D-02

 Cycle   3  Pass 0  IDiag  1:
 RMSU=  2.54D-04    CP:  9.34D-01  1.09D+00
 E= -155.698051664402     Delta-E=       -0.086115672719 Rises=F Damp=F
 DIIS: error= 4.48D-03 at cycle   3 NSaved=   3.
 NSaved= 3 IEnMin= 3 EnMin= -155.698051664402     IErMin= 3 ErrMin= 4.48D-03
 ErrMax= 4.48D-03  0.00D+00 EMaxC= 1.00D-01 BMatC= 1.98D-03 BMatP= 2.98D-02
 IDIUse=3 WtCom= 9.55D-01 WtEn= 4.48D-02
 Coeff-Com: -0.115D+00 0.231D+00 0.884D+00
 Coeff-En:   0.000D+00 0.000D+00 0.100D+01
 Coeff:     -0.110D+00 0.221D+00 0.889D+00
 Gap=     0.294 Goal=   None    Shift=    0.000
 RMSDP=7.06D-05 MaxDP=3.94D-03 DE=-8.61D-02 OVMax= 2.32D-02

 Cycle   4  Pass 0  IDiag  1:
 RMSU=  5.16D-05    CP:  9.30D-01  1.18D+00  9.29D-01
 E= -155.699598235877     Delta-E=       -0.001546571474 Rises=F Damp=F
 DIIS: error= 2.93D-03 at cycle   4 NSaved=   4.
 NSaved= 4 IEnMin= 4 EnMin= -155.699598235877     IErMin= 4 ErrMin= 2.93D-03
 ErrMax= 2.93D-03  0.00D+00 EMaxC= 1.00D-01 BMatC= 6.01D-04 BMatP= 1.98D-03
 IDIUse=3 WtCom= 9.71D-01 WtEn= 2.93D-02
 Coeff-Com: -0.517D-01 0.854D-01 0.468D+00 0.498D+00
 Coeff-En:   0.000D+00 0.000D+00 0.118D+00 0.882D+00
 Coeff:     -0.502D-01 0.829D-01 0.458D+00 0.509D+00
 Gap=     0.294 Goal=   None    Shift=    0.000
 RMSDP=2.86D-05 MaxDP=1.42D-03 DE=-1.55D-03 OVMax= 8.83D-03

 Cycle   5  Pass 0  IDiag  1:
 RMSU=  1.59D-05    CP:  9.30D-01  1.18D+00  9.73D-01  5.96D-01
 E= -155.700176581337     Delta-E=       -0.000578345461 Rises=F Damp=F
 DIIS: error= 3.06D-04 at cycle   5 NSaved=   5.
 NSaved= 5 IEnMin= 5 EnMin= -155.700176581337     IErMin= 5 ErrMin= 3.06D-04
 ErrMax= 3.06D-04  0.00D+00 EMaxC= 1.00D-01 BMatC= 5.38D-06 BMatP= 6.01D-04
 IDIUse=3 WtCom= 9.97D-01 WtEn= 3.06D-03
 Coeff-Com: -0.337D-02 0.321D-02 0.405D-01 0.108D+00 0.851D+00
 Coeff-En:   0.000D+00 0.000D+00 0.000D+00 0.000D+00 0.100D+01
 Coeff:     -0.336D-02 0.320D-02 0.404D-01 0.108D+00 0.852D+00
 Gap=     0.294 Goal=   None    Shift=    0.000
 RMSDP=3.99D-06 MaxDP=1.43D-04 DE=-5.78D-04 OVMax= 1.26D-03

 Initial convergence to 1.0D-05 achieved.  Increase integral accuracy.
 Cycle   6  Pass 1  IDiag  1:
 E= -155.700204992522     Delta-E=       -0.000028411185 Rises=F Damp=F
 DIIS: error= 4.63D-05 at cycle   1 NSaved=   1.
 NSaved= 1 IEnMin= 1 EnMin= -155.700204992522     IErMin= 1 ErrMin= 4.63D-05
 ErrMax= 4.63D-05  0.00D+00 EMaxC= 1.00D-01 BMatC= 4.70D-07 BMatP= 4.70D-07
 IDIUse=1 WtCom= 1.00D+00 WtEn= 0.00D+00
 Coeff-Com:  0.100D+01
 Coeff:      0.100D+01
 Gap=     0.294 Goal=   None    Shift=    0.000
 RMSDP=3.99D-06 MaxDP=1.43D-04 DE=-2.84D-05 OVMax= 2.83D-04

 Cycle   7  Pass 1  IDiag  1:
 RMSU=  1.55D-05    CP:  1.00D+00
 E= -155.700205329743     Delta-E=       -0.000000337220 Rises=F Damp=F
 DIIS: error= 1.94D-05 at cycle   2 NSaved=   2.
 NSaved= 2 IEnMin= 2 EnMin= -155.700205329743     IErMin= 2 ErrMin= 1.94D-05
 ErrMax= 1.94D-05  0.00D+00 EMaxC= 1.00D-01 BMatC= 2.31D-08 BMatP= 4.70D-07
 IDIUse=1 WtCom= 1.00D+00 WtEn= 0.00D+00
 Coeff-Com:  0.585D-01 0.942D+00
 Coeff:      0.585D-01 0.942D+00
 Gap=     0.294 Goal=   None    Shift=    0.000
 RMSDP=7.20D-07 MaxDP=2.03D-05 DE=-3.37D-07 OVMax= 1.35D-04

 Cycle   8  Pass 1  IDiag  1:
 RMSU=  4.94D-07    CP:  1.00D+00  1.03D+00
 E= -155.700205346257     Delta-E=       -0.000000016514 Rises=F Damp=F
 DIIS: error= 1.07D-05 at cycle   3 NSaved=   3.
 NSaved= 3 IEnMin= 3 EnMin= -155.700205346257     IErMin= 3 ErrMin= 1.07D-05
 ErrMax= 1.07D-05  0.00D+00 EMaxC= 1.00D-01 BMatC= 1.91D-08 BMatP= 2.31D-08
 IDIUse=1 WtCom= 1.00D+00 WtEn= 0.00D+00
 Coeff-Com: -0.177D-01 0.474D+00 0.543D+00
 Coeff:     -0.177D-01 0.474D+00 0.543D+00
 Gap=     0.294 Goal=   None    Shift=    0.000
 RMSDP=2.09D-07 MaxDP=1.15D-05 DE=-1.65D-08 OVMax= 6.72D-05

 Cycle   9  Pass 1  IDiag  1:
 RMSU=  1.94D-07    CP:  1.00D+00  1.04D+00  1.00D+00
 E= -155.700205364831     Delta-E=       -0.000000018575 Rises=F Damp=F
 DIIS: error= 3.70D-06 at cycle   4 NSaved=   4.
 NSaved= 4 IEnMin= 4 EnMin= -155.700205364831     IErMin= 4 ErrMin= 3.70D-06
 ErrMax= 3.70D-06  0.00D+00 EMaxC= 1.00D-01 BMatC= 3.83D-10 BMatP= 1.91D-08
 IDIUse=1 WtCom= 1.00D+00 WtEn= 0.00D+00
 Coeff-Com: -0.912D-02 0.277D-01 0.103D+00 0.878D+00
 Coeff:     -0.912D-02 0.277D-01 0.103D+00 0.878D+00
 Gap=     0.294 Goal=   None    Shift=    0.000
 RMSDP=6.31D-08 MaxDP=1.95D-06 DE=-1.86D-08 OVMax= 1.90D-05

 Cycle  10  Pass 1  IDiag  1:
 RMSU=  4.40D-08    CP:  1.00D+00  1.04D+00  1.07D+00  1.10D+00
 E= -155.700205365598     Delta-E=       -0.000000000766 Rises=F Damp=F
 DIIS: error= 6.29D-07 at cycle   5 NSaved=   5.
 NSaved= 5 IEnMin= 5 EnMin= -155.700205365598     IErMin= 5 ErrMin= 6.29D-07
 ErrMax= 6.29D-07  0.00D+00 EMaxC= 1.00D-01 BMatC= 6.58D-11 BMatP= 3.83D-10
 IDIUse=1 WtCom= 1.00D+00 WtEn= 0.00D+00
 Coeff-Com:  0.235D-03-0.498D-01-0.558D-01 0.212D+00 0.894D+00
 Coeff:      0.235D-03-0.498D-01-0.558D-01 0.212D+00 0.894D+00
 Gap=     0.294 Goal=   None    Shift=    0.000
 RMSDP=2.49D-08 MaxDP=1.04D-06 DE=-7.66D-10 OVMax= 6.27D-06

 Cycle  11  Pass 1  IDiag  1:
 RMSU=  1.61D-08    CP:  1.00D+00  1.04D+00  1.09D+00  1.17D+00  1.11D+00
 E= -155.700205365699     Delta-E=       -0.000000000102 Rises=F Damp=F
 DIIS: error= 1.46D-07 at cycle   6 NSaved=   6.
 NSaved= 6 IEnMin= 6 EnMin= -155.700205365699     IErMin= 6 ErrMin= 1.46D-07
 ErrMax= 1.46D-07  0.00D+00 EMaxC= 1.00D-01 BMatC= 5.69D-12 BMatP= 6.58D-11
 IDIUse=1 WtCom= 1.00D+00 WtEn= 0.00D+00
 Coeff-Com:  0.652D-03-0.216D-01-0.308D-01 0.358D-01 0.347D+00 0.669D+00
 Coeff:      0.652D-03-0.216D-01-0.308D-01 0.358D-01 0.347D+00 0.669D+00
 Gap=     0.294 Goal=   None    Shift=    0.000
 RMSDP=4.05D-09 MaxDP=2.12D-07 DE=-1.02D-10 OVMax= 1.13D-06

 SCF Done:  E(RB2PLYPD3) =  -155.700205366     A.U. after   11 cycles
            NFock= 11  Conv=0.40D-08     -V/T= 2.0036
 KE= 1.551481797689D+02 PE=-5.690637289420D+02 EE= 1.541550976284D+02
 Leave Link  502 at Wed Aug 26 16:13:14 2020, MaxMem=  2097152000 cpu:      1294.3
 (Enter /opt/cluster/programs/g09/g09_d.01/g09/l801.exe)
 DoSCS=T DFT=T ScalE2(SS,OS)=  0.270000  0.270000
 ExpMin= 7.60D-02 ExpMax= 6.70D+04 ExpMxC= 6.47D+02 IAcc=3 IRadAn=         5 AccDes= 0.00D+00
 HarFok:  IExCor=  205 AccDes= 0.00D+00 IRadAn=         5 IDoV=-2 UseB2=F ITyADJ=14
 ICtDFT= 12500011 ScaDFX=  1.000000  1.000000  1.000000  1.000000
 Largest valence mixing into a core orbital is  1.12D-04
 Largest core mixing into a valence orbital is  1.99D-05
 Range of M.O.s used for correlation:     5   408
 NBasis=   408 NAE=    15 NBE=    15 NFC=     4 NFV=     0
 NROrb=    404 NOA=    11 NOB=    11 NVA=   393 NVB=   393

 **** Warning!!: The largest alpha MO coefficient is  0.26869300D+02

 Leave Link  801 at Wed Aug 26 16:13:14 2020, MaxMem=  2097152000 cpu:         0.9
 (Enter /opt/cluster/programs/g09/g09_d.01/g09/l906.exe)
 DoSCS=T DFT=T ScalE2(SS,OS)=  0.270000  0.270000
 FulOut=F Deriv=F AODrv=F NAtomX=    10
   MMem=         881  MDisk=          11 MDiskD=          11
  W3Min=     2152854 MinDsk=     3857222 NBas6D=         498
 NBas2D=      125763    NTT=      124251    LW2=     4508827
    MDV=  2096382952 MDiskM=        9345 NBas2p=      117339
 Fully direct method using O(OVN) memory.
 IMap=   1   2   3   4   5   6   7   8   9  10  11
 JobTyp=1 Pass  1:  I=   1 to  11 NPSUse=  8 ParTrn=T ParDer=T DoDerP=F.
 Spin components of T(2) and E(2):
     alpha-alpha T2 =       0.4191013378D-01 E2=     -0.2539275396D-01
     alpha-beta  T2 =       0.2713352598D+00 E2=     -0.1748136144D+00
     beta-beta   T2 =       0.4191013378D-01 E2=     -0.2539275396D-01
 The integrals were generated   1 times.
 E2(B2PLYPD3) =    -0.2255991223D+00 E(B2PLYPD3) =    -0.15592580448801D+03
 Leave Link  906 at Wed Aug 26 16:14:43 2020, MaxMem=  2097152000 cpu:       705.3
 (Enter /opt/cluster/programs/g09/g09_d.01/g09/l601.exe)
 Copying SCF densities to generalized density rwf, IOpCl= 0 IROHF=0.

 **********************************************************************

            Population analysis using the SCF density.

 **********************************************************************

 Orbital symmetries:
       Occupied  (A) (A) (A) (A) (A) (A) (A) (A) (A) (A) (A) (A)
                 (A) (A) (A)
       Virtual   (A) (A) (A) (A) (A) (A) (A) (A) (A) (A) (A) (A)
                 (A) (A) (A) (A) (A) (A) (A) (A) (A) (A) (A) (A)
                 (A) (A) (A) (A) (A) (A) (A) (A) (A) (A) (A) (A)
                 (A) (A) (A) (A) (A) (A) (A) (A) (A) (A) (A) (A)
                 (A) (A) (A) (A) (A) (A) (A) (A) (A) (A) (A) (A)
                 (A) (A) (A) (A) (A) (A) (A) (A) (A) (A) (A) (A)
                 (A) (A) (A) (A) (A) (A) (A) (A) (A) (A) (A) (A)
                 (A) (A) (A) (A) (A) (A) (A) (A) (A) (A) (A) (A)
                 (A) (A) (A) (A) (A) (A) (A) (A) (A) (A) (A) (A)
                 (A) (A) (A) (A) (A) (A) (A) (A) (A) (A) (A) (A)
                 (A) (A) (A) (A) (A) (A) (A) (A) (A) (A) (A) (A)
                 (A) (A) (A) (A) (A) (A) (A) (A) (A) (A) (A) (A)
                 (A) (A) (A) (A) (A) (A) (A) (A) (A) (A) (A) (A)
                 (A) (A) (A) (A) (A) (A) (A) (A) (A) (A) (A) (A)
                 (A) (A) (A) (A) (A) (A) (A) (A) (A) (A) (A) (A)
                 (A) (A) (A) (A) (A) (A) (A) (A) (A) (A) (A) (A)
                 (A) (A) (A) (A) (A) (A) (A) (A) (A) (A) (A) (A)
                 (A) (A) (A) (A) (A) (A) (A) (A) (A) (A) (A) (A)
                 (A) (A) (A) (A) (A) (A) (A) (A) (A) (A) (A) (A)
                 (A) (A) (A) (A) (A) (A) (A) (A) (A) (A) (A) (A)
                 (A) (A) (A) (A) (A) (A) (A) (A) (A) (A) (A) (A)
                 (A) (A) (A) (A) (A) (A) (A) (A) (A) (A) (A) (A)
                 (A) (A) (A) (A) (A) (A) (A) (A) (A) (A) (A) (A)
                 (A) (A) (A) (A) (A) (A) (A) (A) (A) (A) (A) (A)
                 (A) (A) (A) (A) (A) (A) (A) (A) (A) (A) (A) (A)
                 (A) (A) (A) (A) (A) (A) (A) (A) (A) (A) (A) (A)
                 (A) (A) (A) (A) (A) (A) (A) (A) (A) (A) (A) (A)
                 (A) (A) (A) (A) (A) (A) (A) (A) (A) (A) (A) (A)
                 (A) (A) (A) (A) (A) (A) (A) (A) (A) (A) (A) (A)
                 (A) (A) (A) (A) (A) (A) (A) (A) (A) (A) (A) (A)
                 (A) (A) (A) (A) (A) (A) (A) (A) (A) (A) (A) (A)
                 (A) (A) (A) (A) (A) (A) (A) (A) (A) (A) (A) (A)
                 (A) (A) (A) (A) (A) (A) (A) (A) (A)
 The electronic state is 1-A.
 Alpha  occ. eigenvalues --  -10.62486 -10.62371 -10.61779 -10.61288  -0.93013
 Alpha  occ. eigenvalues --   -0.84834  -0.70134  -0.64476  -0.54766  -0.53821
 Alpha  occ. eigenvalues --   -0.46864  -0.45424  -0.41279  -0.38070  -0.27649
 Alpha virt. eigenvalues --    0.01769   0.07015   0.07444   0.08125   0.09472
 Alpha virt. eigenvalues --    0.11652   0.12521   0.14690   0.15896   0.16254
 Alpha virt. eigenvalues --    0.18830   0.20442   0.21801   0.22932   0.23693
 Alpha virt. eigenvalues --    0.26831   0.26905   0.29185   0.31914   0.34755
 Alpha virt. eigenvalues --    0.36028   0.36662   0.37729   0.38174   0.40309
 Alpha virt. eigenvalues --    0.42454   0.43511   0.46064   0.47532   0.48538
 Alpha virt. eigenvalues --    0.49385   0.50085   0.52389   0.55682   0.57258
 Alpha virt. eigenvalues --    0.58090   0.59776   0.64293   0.66693   0.68338
 Alpha virt. eigenvalues --    0.69110   0.72645   0.77074   0.77531   0.79107
 Alpha virt. eigenvalues --    0.79517   0.80980   0.81827   0.82378   0.84223
 Alpha virt. eigenvalues --    0.84680   0.85972   0.86135   0.86878   0.90145
 Alpha virt. eigenvalues --    0.92438   0.93495   0.94253   0.95512   0.96252
 Alpha virt. eigenvalues --    0.99028   0.99280   1.00310   1.03228   1.05089
 Alpha virt. eigenvalues --    1.05689   1.08514   1.10342   1.12135   1.13096
 Alpha virt. eigenvalues --    1.14410   1.18921   1.19812   1.20492   1.23815
 Alpha virt. eigenvalues --    1.24594   1.25303   1.34092   1.34720   1.35720
 Alpha virt. eigenvalues --    1.37737   1.41533   1.47560   1.62051   1.64371
 Alpha virt. eigenvalues --    1.65872   1.67837   1.71087   1.72630   1.73711
 Alpha virt. eigenvalues --    1.75292   1.80560   1.82622   1.84344   1.87908
 Alpha virt. eigenvalues --    1.89877   1.91109   1.91334   1.93748   1.94172
 Alpha virt. eigenvalues --    1.94341   1.99344   2.00392   2.01341   2.02047
 Alpha virt. eigenvalues --    2.02946   2.06561   2.06900   2.08461   2.09519
 Alpha virt. eigenvalues --    2.09879   2.11311   2.14269   2.17380   2.19247
 Alpha virt. eigenvalues --    2.19805   2.21512   2.23990   2.26084   2.28891
 Alpha virt. eigenvalues --    2.30274   2.32391   2.33948   2.37711   2.42776
 Alpha virt. eigenvalues --    2.44807   2.46047   2.46850   2.48247   2.50668
 Alpha virt. eigenvalues --    2.52580   2.53744   2.55423   2.56779   2.57991
 Alpha virt. eigenvalues --    2.59481   2.63036   2.63597   2.65188   2.65370
 Alpha virt. eigenvalues --    2.67320   2.69622   2.70424   2.71573   2.72739
 Alpha virt. eigenvalues --    2.73472   2.75897   2.77517   2.78670   2.79409
 Alpha virt. eigenvalues --    2.81127   2.88002   2.91080   2.92606   2.94027
 Alpha virt. eigenvalues --    2.95453   3.03098   3.06649   3.07712   3.10922
 Alpha virt. eigenvalues --    3.12195   3.13806   3.25710   3.34912   3.36365
 Alpha virt. eigenvalues --    3.38862   3.39650   3.43635   3.44703   3.47617
 Alpha virt. eigenvalues --    3.49021   3.49652   3.52998   3.56312   3.60286
 Alpha virt. eigenvalues --    3.61337   3.62832   3.64446   3.70863   3.79018
 Alpha virt. eigenvalues --    3.81563   3.83224   3.87341   3.88545   3.92647
 Alpha virt. eigenvalues --    3.93555   3.97143   3.99600   4.06286   4.14034
 Alpha virt. eigenvalues --    4.17490   4.18328   4.21611   4.24457   4.47448
 Alpha virt. eigenvalues --    4.56414   4.58183   4.60200   4.87707   4.99843
 Alpha virt. eigenvalues --    5.00668   5.03508   5.04972   5.05789   5.08195
 Alpha virt. eigenvalues --    5.11984   5.17945   5.20182   5.28458   5.31174
 Alpha virt. eigenvalues --    5.33139   5.39989   5.42285   5.46135   5.49782
 Alpha virt. eigenvalues --    5.52045   5.55243   5.56618   5.60367   5.62858
 Alpha virt. eigenvalues --    5.65250   5.70045   5.75898   5.76572   5.77741
 Alpha virt. eigenvalues --    5.79694   5.79974   5.83053   5.85555   5.86625
 Alpha virt. eigenvalues --    5.88826   5.91223   6.00454   6.02124   6.05300
 Alpha virt. eigenvalues --    6.07239   6.07719   6.09254   6.10134   6.12342
 Alpha virt. eigenvalues --    6.13410   6.16143   6.17054   6.19925   6.20209
 Alpha virt. eigenvalues --    6.22249   6.24343   6.28059   6.30231   6.33935
 Alpha virt. eigenvalues --    6.35261   6.36068   6.37273   6.38324   6.39196
 Alpha virt. eigenvalues --    6.39338   6.40954   6.44264   6.52075   6.53273
 Alpha virt. eigenvalues --    6.54126   6.55105   6.55761   6.57604   6.63141
 Alpha virt. eigenvalues --    6.64902   6.67085   6.69422   6.71594   6.79052
 Alpha virt. eigenvalues --    6.82575   6.86051   6.87263   6.91007   6.92575
 Alpha virt. eigenvalues --    6.93596   6.96416   7.00334   7.05643   7.10344
 Alpha virt. eigenvalues --    7.13134   7.16163   7.19964   7.20377   7.21304
 Alpha virt. eigenvalues --    7.26487   7.27996   7.34298   7.37625   7.44011
 Alpha virt. eigenvalues --    7.47616   7.51498   7.57532   7.59572   7.60264
 Alpha virt. eigenvalues --    7.63431   7.63948   7.66416   7.67493   7.68264
 Alpha virt. eigenvalues --    7.70688   7.72373   7.76015   7.76215   7.78522
 Alpha virt. eigenvalues --    7.78884   7.83581   7.88725   7.93206   7.93815
 Alpha virt. eigenvalues --    7.95826   7.96807   8.08105   8.10897   8.14161
 Alpha virt. eigenvalues --    8.16237   8.17059   8.19028   8.20404   8.26594
 Alpha virt. eigenvalues --    8.31726   8.32169   8.33122   8.34677   8.36273
 Alpha virt. eigenvalues --    8.36825   8.37408   8.38602   8.41937   8.43123
 Alpha virt. eigenvalues --    8.44299   8.49260   8.53588   8.56185   8.57463
 Alpha virt. eigenvalues --    8.60014   8.60866   8.62121   8.68220   8.70786
 Alpha virt. eigenvalues --    8.75156   8.77205   8.82312   8.82648   8.84198
 Alpha virt. eigenvalues --    8.86743   8.90594   8.94107   9.03997   9.16445
 Alpha virt. eigenvalues --    9.21270   9.24161   9.30064   9.35096   9.46708
 Alpha virt. eigenvalues --    9.59602   9.67863   9.77050   9.86037   9.90892
 Alpha virt. eigenvalues --    9.92320   9.97094   9.98787  10.01890  10.03765
 Alpha virt. eigenvalues --   10.07880  10.12585  10.31104  10.32207  10.35170
 Alpha virt. eigenvalues --   10.38774  10.44860  10.49527  10.69313  10.81600
 Alpha virt. eigenvalues --   11.02802  11.22191  11.47816  11.72507  11.90137
 Alpha virt. eigenvalues --   11.94435  12.91371  13.07684  13.14965  13.21594
 Alpha virt. eigenvalues --   28.66496  28.78305  29.48826  29.67914 148.25869
 Alpha virt. eigenvalues --  148.36530 149.08317 149.28686
          Condensed to atoms (all electrons):
               1          2          3          4          5          6
     1  C    4.841417   0.619495  -0.081583  -0.002235   0.422925   0.424192
     2  C    0.619495   4.831701   0.404961  -0.082529  -0.043336  -0.047081
     3  C   -0.081583   0.404961   4.830875   0.618509   0.007347  -0.008120
     4  C   -0.002235  -0.082529   0.618509   4.837100  -0.000636   0.000360
     5  H    0.422925  -0.043336   0.007347  -0.000636   0.583257  -0.044859
     6  H    0.424192  -0.047081  -0.008120   0.000360  -0.044859   0.599893
     7  H   -0.048641   0.410363  -0.060409  -0.000076  -0.008318   0.007561
     8  H   -0.001612  -0.060270   0.412478  -0.049155  -0.000056   0.004597
     9  H    0.000296  -0.007742  -0.044742   0.424515  -0.000033   0.000040
    10  H   -0.000658   0.007772  -0.046415   0.425867   0.000025  -0.000038
               7          8          9         10
     1  C   -0.048641  -0.001612   0.000296  -0.000658
     2  C    0.410363  -0.060270  -0.007742   0.007772
     3  C   -0.060409   0.412478  -0.044742  -0.046415
     4  C   -0.000076  -0.049155   0.424515   0.425867
     5  H   -0.008318  -0.000056  -0.000033   0.000025
     6  H    0.007561   0.004597   0.000040  -0.000038
     7  H    0.626785   0.006648   0.004134  -0.000096
     8  H    0.006648   0.631726   0.007598  -0.009569
     9  H    0.004134   0.007598   0.601583  -0.048785
    10  H   -0.000096  -0.009569  -0.048785   0.590286
 Mulliken charges:
               1
     1  C   -0.173596
     2  C   -0.033333
     3  C   -0.032902
     4  C   -0.171721
     5  H    0.083684
     6  H    0.063456
     7  H    0.062049
     8  H    0.057616
     9  H    0.063137
    10  H    0.081610
 Sum of Mulliken charges =   0.00000
 Mulliken charges with hydrogens summed into heavy atoms:
               1
     1  C   -0.026456
     2  C    0.028716
     3  C    0.024715
     4  C   -0.026975
 Electronic spatial extent (au):  <R**2>=            334.5277
 Charge=              0.0000 electrons
 Dipole moment (field-independent basis, Debye):
    X=             -0.0129    Y=             -0.0107    Z=             -0.0457  Tot=              0.0487
 Quadrupole moment (field-independent basis, Debye-Ang):
   XX=            -23.3669   YY=            -23.1232   ZZ=            -29.2501
   XY=              0.2074   XZ=              0.0788   YZ=              0.0718
 Traceless Quadrupole moment (field-independent basis, Debye-Ang):
   XX=              1.8798   YY=              2.1235   ZZ=             -4.0034
   XY=              0.2074   XZ=              0.0788   YZ=              0.0718
 Octapole moment (field-independent basis, Debye-Ang**2):
  XXX=             -0.3652  YYY=              0.0287  ZZZ=             -0.0963  XYY=             -0.0287
  XXY=             -0.4152  XXZ=              0.2602  XZZ=             -0.1464  YZZ=             -0.0161
  YYZ=             -0.2303  XYZ=             -0.3020
 Hexadecapole moment (field-independent basis, Debye-Ang**3):
 XXXX=           -341.3612 YYYY=            -64.9824 ZZZZ=            -36.8075 XXXY=             -4.9875
 XXXZ=              0.4920 YYYX=              1.9021 YYYZ=              0.2291 ZZZX=              0.0693
 ZZZY=              0.0688 XXYY=            -68.4537 XXZZ=            -77.0097 YYZZ=            -19.1342
 XXYZ=              0.2860 YYXZ=              0.1877 ZZXY=              0.4333
 N-N= 1.040602461790D+02 E-N=-5.690637210307D+02  KE= 1.551481797689D+02
 Leave Link  601 at Wed Aug 26 16:14:43 2020, MaxMem=  2097152000 cpu:         0.7
 (Enter /opt/cluster/programs/g09/g09_d.01/g09/l9999.exe)
 1\1\GINC-NODE31\SP\RB2PLYPD3-FC\def2QZVP\C4H6\BOITTIER\26-Aug-2020\0\\
 #p B2PLYPD3/Def2QZVP\\butadiene\\0,1\C,0,-3.835552,0.22875,0.004096\C,
 0,-2.720777,-0.513787,0.045451\C,0,-1.387105,0.069494,0.041883\C,0,-0.
 266518,-0.648357,0.006556\H,0,-4.841313,-0.207942,-0.010546\H,0,-3.777
 658,1.315534,-0.018428\H,0,-2.794504,-1.571835,0.106101\H,0,-1.333632,
 1.146887,0.003692\H,0,-0.244678,-1.730307,0.118964\H,0,0.699568,-0.202
 565,-0.033254\\Version=ES64L-G09RevD.01\State=1-A\HF=-155.7002054\MP2=
 -155.9258045\RMSD=4.045e-09\PG=C01 [X(C4H6)]\\@


 LIFE CAN ONLY BE UNDERSTOOD BACKWARD, BUT MUST
 BE LIVED FORWARD. -- KIRKEGAARD
 Job cpu time:       0 days  0 hours 33 minutes 41.0 seconds.
 File lengths (MBytes):  RWF=     92 Int=      0 D2E=      0 Chk=      9 Scr=      1
 Normal termination of Gaussian 09 at Wed Aug 26 16:14:43 2020.
