 Entering Gaussian System, Link 0=/opt/cluster/programs/g09/g09_d.01/g09//g09
 Input=/home/boittier/MDCM/nms_sampling/butadiene_geom.xyz.dir/energies/butadiene_265_energy.com
 Output=/scratch/boittier/butadiene_265_energy/butadiene_265_energy.out
 Initial command:
 /opt/cluster/programs/g09/g09_d.01/g09/l1.exe "/scratch/boittier/butadiene_265_energy/Gau-73936.inp" -scrdir="/scratch/boittier/butadiene_265_energy/"
 Entering Link 1 = /opt/cluster/programs/g09/g09_d.01/g09/l1.exe PID=     73937.
  
 Copyright (c) 1988,1990,1992,1993,1995,1998,2003,2009,2013,
            Gaussian, Inc.  All Rights Reserved.
  
 This is part of the Gaussian(R) 09 program.  It is based on
 the Gaussian(R) 03 system (copyright 2003, Gaussian, Inc.),
 the Gaussian(R) 98 system (copyright 1998, Gaussian, Inc.),
 the Gaussian(R) 94 system (copyright 1995, Gaussian, Inc.),
 the Gaussian 92(TM) system (copyright 1992, Gaussian, Inc.),
 the Gaussian 90(TM) system (copyright 1990, Gaussian, Inc.),
 the Gaussian 88(TM) system (copyright 1988, Gaussian, Inc.),
 the Gaussian 86(TM) system (copyright 1986, Carnegie Mellon
 University), and the Gaussian 82(TM) system (copyright 1983,
 Carnegie Mellon University). Gaussian is a federally registered
 trademark of Gaussian, Inc.
  
 This software contains proprietary and confidential information,
 including trade secrets, belonging to Gaussian, Inc.
  
 This software is provided under written license and may be
 used, copied, transmitted, or stored only in accord with that
 written license.
  
 The following legend is applicable only to US Government
 contracts under FAR:
  
                    RESTRICTED RIGHTS LEGEND
  
 Use, reproduction and disclosure by the US Government is
 subject to restrictions as set forth in subparagraphs (a)
 and (c) of the Commercial Computer Software - Restricted
 Rights clause in FAR 52.227-19.
  
 Gaussian, Inc.
 340 Quinnipiac St., Bldg. 40, Wallingford CT 06492
  
  
 ---------------------------------------------------------------
 Warning -- This program may not be used in any manner that
 competes with the business of Gaussian, Inc. or will provide
 assistance to any competitor of Gaussian, Inc.  The licensee
 of this program is prohibited from giving any competitor of
 Gaussian, Inc. access to this program.  By using this program,
 the user acknowledges that Gaussian, Inc. is engaged in the
 business of creating and licensing software in the field of
 computational chemistry and represents and warrants to the
 licensee that it is not a competitor of Gaussian, Inc. and that
 it will not use this program in any manner prohibited above.
 ---------------------------------------------------------------
  

 Cite this work as:
 Gaussian 09, Revision D.01,
 M. J. Frisch, G. W. Trucks, H. B. Schlegel, G. E. Scuseria, 
 M. A. Robb, J. R. Cheeseman, G. Scalmani, V. Barone, B. Mennucci, 
 G. A. Petersson, H. Nakatsuji, M. Caricato, X. Li, H. P. Hratchian, 
 A. F. Izmaylov, J. Bloino, G. Zheng, J. L. Sonnenberg, M. Hada, 
 M. Ehara, K. Toyota, R. Fukuda, J. Hasegawa, M. Ishida, T. Nakajima, 
 Y. Honda, O. Kitao, H. Nakai, T. Vreven, J. A. Montgomery, Jr., 
 J. E. Peralta, F. Ogliaro, M. Bearpark, J. J. Heyd, E. Brothers, 
 K. N. Kudin, V. N. Staroverov, T. Keith, R. Kobayashi, J. Normand, 
 K. Raghavachari, A. Rendell, J. C. Burant, S. S. Iyengar, J. Tomasi, 
 M. Cossi, N. Rega, J. M. Millam, M. Klene, J. E. Knox, J. B. Cross, 
 V. Bakken, C. Adamo, J. Jaramillo, R. Gomperts, R. E. Stratmann, 
 O. Yazyev, A. J. Austin, R. Cammi, C. Pomelli, J. W. Ochterski, 
 R. L. Martin, K. Morokuma, V. G. Zakrzewski, G. A. Voth, 
 P. Salvador, J. J. Dannenberg, S. Dapprich, A. D. Daniels, 
 O. Farkas, J. B. Foresman, J. V. Ortiz, J. Cioslowski, 
 and D. J. Fox, Gaussian, Inc., Wallingford CT, 2013.
 
 ******************************************
 Gaussian 09:  ES64L-G09RevD.01 24-Apr-2013
                26-Aug-2020 
 ******************************************
 %chk=/home/boittier/MDCM/nms_sampling/butadiene_geom.xyz.dir/butadiene_265.chk
 %nproc=8
 Will use up to    8 processors via shared memory.
 %mem=16000MB
 --------------------
 #p B2PLYPD3/Def2QZVP
 --------------------
 1/38=1/1;
 2/12=2,17=6,18=5,40=1/2;
 3/5=45,7=101,11=9,16=1,25=1,30=1,74=-60/1,2,3;
 4//1;
 5/5=2,38=5/2;
 8/10=1/1;
 9/16=-3/6;
 6/7=2,8=2,9=2,10=2/1;
 99/5=1,9=1/99;
 Leave Link    1 at Wed Aug 26 15:05:32 2020, MaxMem=  2097152000 cpu:         0.2
 (Enter /opt/cluster/programs/g09/g09_d.01/g09/l101.exe)
 ---------
 butadiene
 ---------
 Symbolic Z-matrix:
 Charge =  0 Multiplicity = 1
 C                    -3.84415   0.22336   0.00644 
 C                    -2.71767  -0.50603   0.05284 
 C                    -1.38487   0.06244   0.02106 
 C                    -0.25935  -0.64721   0.02848 
 H                    -4.8608   -0.16949   0.02609 
 H                    -3.74996   1.29557  -0.03492 
 H                    -2.80869  -1.58901   0.08623 
 H                    -1.33655   1.1448   -0.02435 
 H                    -0.28143  -1.72345  -0.03668 
 H                     0.68909  -0.17262   0.02075 
 
 NAtoms=     10 NQM=       10 NQMF=       0 NMMI=      0 NMMIF=      0
                NMic=       0 NMicF=      0.
                    Isotopes and Nuclear Properties:
 (Nuclear quadrupole moments (NQMom) in fm**2, nuclear magnetic moments (NMagM)
  in nuclear magnetons)

  Atom         1           2           3           4           5           6           7           8           9          10
 IAtWgt=          12          12          12          12           1           1           1           1           1           1
 AtmWgt=  12.0000000  12.0000000  12.0000000  12.0000000   1.0078250   1.0078250   1.0078250   1.0078250   1.0078250   1.0078250
 NucSpn=           0           0           0           0           1           1           1           1           1           1
 AtZEff=   0.0000000   0.0000000   0.0000000   0.0000000   0.0000000   0.0000000   0.0000000   0.0000000   0.0000000   0.0000000
 NQMom=    0.0000000   0.0000000   0.0000000   0.0000000   0.0000000   0.0000000   0.0000000   0.0000000   0.0000000   0.0000000
 NMagM=    0.0000000   0.0000000   0.0000000   0.0000000   2.7928460   2.7928460   2.7928460   2.7928460   2.7928460   2.7928460
 AtZNuc=   6.0000000   6.0000000   6.0000000   6.0000000   1.0000000   1.0000000   1.0000000   1.0000000   1.0000000   1.0000000
 Leave Link  101 at Wed Aug 26 15:05:32 2020, MaxMem=  2097152000 cpu:         0.5
 (Enter /opt/cluster/programs/g09/g09_d.01/g09/l202.exe)
                          Input orientation:                          
 ---------------------------------------------------------------------
 Center     Atomic      Atomic             Coordinates (Angstroms)
 Number     Number       Type             X           Y           Z
 ---------------------------------------------------------------------
      1          6           0       -3.844148    0.223359    0.006436
      2          6           0       -2.717667   -0.506026    0.052841
      3          6           0       -1.384868    0.062440    0.021059
      4          6           0       -0.259354   -0.647206    0.028484
      5          1           0       -4.860797   -0.169489    0.026090
      6          1           0       -3.749963    1.295572   -0.034919
      7          1           0       -2.808688   -1.589010    0.086227
      8          1           0       -1.336545    1.144797   -0.024347
      9          1           0       -0.281427   -1.723449   -0.036676
     10          1           0        0.689094   -0.172623    0.020747
 ---------------------------------------------------------------------
                    Distance matrix (angstroms):
                    1          2          3          4          5
     1  C    0.000000
     2  C    1.342801   0.000000
     3  C    2.464582   1.449316   0.000000
     4  C    3.689054   2.462484   1.330577   0.000000
     5  H    1.090088   2.169557   3.483662   4.626175   0.000000
     6  H    1.077136   2.078243   2.667850   3.995342   1.839586
     7  H    2.088834   1.087315   2.181467   2.718351   2.495958
     8  H    2.671716   2.153758   1.084386   2.091508   3.761681
     9  H    4.060160   2.724958   2.100075   1.078440   4.836255
    10  H    4.550526   3.423187   2.087241   1.060586   5.549894
                    6          7          8          9         10
     6  H    0.000000
     7  H    3.036690   0.000000
     8  H    2.418146   3.106949   0.000000
     9  H    4.598395   2.533817   3.056184   0.000000
    10  H    4.675887   3.774244   2.416783   1.830374   0.000000
 Stoichiometry    C4H6
 Framework group  C1[X(C4H6)]
 Deg. of freedom    24
 Full point group                 C1      NOp   1
 Largest Abelian subgroup         C1      NOp   1
 Largest concise Abelian subgroup C1      NOp   1
                         Standard orientation:                         
 ---------------------------------------------------------------------
 Center     Atomic      Atomic             Coordinates (Angstroms)
 Number     Number       Type             X           Y           Z
 ---------------------------------------------------------------------
      1          6           0       -1.840698   -0.109839    0.012221
      2          6           0       -0.601779    0.407062   -0.019499
      3          6           0        0.607657   -0.391468   -0.007989
      4          6           0        1.842060    0.105157   -0.001258
      5          1           0       -2.770551    0.459051    0.006957
      6          1           0       -1.940070   -1.182306    0.025009
      7          1           0       -0.497372    1.489343   -0.024051
      8          1           0        0.461345   -1.465808    0.008765
      9          1           0        2.013017    1.165847    0.092249
     10          1           0        2.690188   -0.531592   -0.009782
 ---------------------------------------------------------------------
 Rotational constants (GHZ):     42.8443511      4.4509845      4.0331785
 Leave Link  202 at Wed Aug 26 15:05:32 2020, MaxMem=  2097152000 cpu:         0.0
 (Enter /opt/cluster/programs/g09/g09_d.01/g09/l301.exe)
 Standard basis: def2QZVP (5D, 7F)
 Ernie: Thresh=  0.10000D-02 Tol=  0.10000D-05 Strict=F.
 There are   498 symmetry adapted cartesian basis functions of A   symmetry.
 There are   408 symmetry adapted basis functions of A   symmetry.
   408 basis functions,   596 primitive gaussians,   498 cartesian basis functions
    15 alpha electrons       15 beta electrons
       nuclear repulsion energy       104.0955009536 Hartrees.
 IExCor=  419 DFT=T Ex+Corr=B2PLYPD3 ExCW=0 ScaHFX=  0.530000
 ScaDFX=  0.470000  0.470000  0.730000  0.730000 ScalE2=  0.270000  0.270000
 IRadAn=      0 IRanWt=     -1 IRanGd=            0 ICorTp=0 IEmpDi=141
 NAtoms=   10 NActive=   10 NUniq=   10 SFac= 1.00D+00 NAtFMM=   60 NAOKFM=F Big=F
 Integral buffers will be    131072 words long.
 Regular integral format.
 Two-electron integral symmetry is turned on.
 R6Disp:  Grimme-D3(BJ) Dispersion energy=       -0.0048395105 Hartrees.
 Nuclear repulsion after empirical dispersion term =      104.0906614431 Hartrees.
 Leave Link  301 at Wed Aug 26 15:05:32 2020, MaxMem=  2097152000 cpu:         0.5
 (Enter /opt/cluster/programs/g09/g09_d.01/g09/l302.exe)
 NPDir=0 NMtPBC=     1 NCelOv=     1 NCel=       1 NClECP=     1 NCelD=      1
         NCelK=      1 NCelE2=     1 NClLst=     1 CellRange=     0.0.
 One-electron integrals computed using PRISM.
   1 Symmetry operations used in ECPInt.
 ECPInt:  NShTT=    8256 NPrTT=   19107 LenC2=    8058 LenP2D=   16126.
 LDataN:  DoStor=T MaxTD1= 8 Len=  415
 NBasis=   408 RedAO= T EigKep=  4.15D-05  NBF=   408
 NBsUse=   408 1.00D-06 EigRej= -1.00D+00 NBFU=   408
 Precomputing XC quadrature grid using
 IXCGrd= 4 IRadAn=           0 IRanWt=          -1 IRanGd=           0 AccXCQ= 0.00D+00.
 Generated NRdTot=       0 NPtTot=           0 NUsed=           0 NTot=          32
 NSgBfM=   498   498   498   498   498 MxSgAt=    10 MxSgA2=    10.
 Leave Link  302 at Wed Aug 26 15:05:33 2020, MaxMem=  2097152000 cpu:         3.2
 (Enter /opt/cluster/programs/g09/g09_d.01/g09/l303.exe)
 DipDrv:  MaxL=1.
 Leave Link  303 at Wed Aug 26 15:05:33 2020, MaxMem=  2097152000 cpu:         0.4
 (Enter /opt/cluster/programs/g09/g09_d.01/g09/l401.exe)
 ExpMin= 7.60D-02 ExpMax= 6.70D+04 ExpMxC= 6.47D+02 IAcc=2 IRadAn=         4 AccDes= 0.00D+00
 Harris functional with IExCor=  419 and IRadAn=       4 diagonalized for initial guess.
 HarFok:  IExCor=  419 AccDes= 0.00D+00 IRadAn=         4 IDoV= 1 UseB2=F ITyADJ=14
 ICtDFT=  3500011 ScaDFX=  1.000000  1.000000  1.000000  1.000000
 FoFCou: FMM=F IPFlag=           0 FMFlag=      100000 FMFlg1=           0
         NFxFlg=           0 DoJE=T BraDBF=F KetDBF=T FulRan=T
         wScrn=  0.000000 ICntrl=     500 IOpCl=  0 I1Cent=   200000004 NGrid=           0
         NMat0=    1 NMatS0=      1 NMatT0=    0 NMatD0=    1 NMtDS0=    0 NMtDT0=    0
 Petite list used in FoFCou.
 Harris En= -156.137262380881    
 JPrj=0 DoOrth=F DoCkMO=F.
 Leave Link  401 at Wed Aug 26 15:05:34 2020, MaxMem=  2097152000 cpu:         8.1
 (Enter /opt/cluster/programs/g09/g09_d.01/g09/l502.exe)
 Closed shell SCF:
 Using DIIS extrapolation, IDIIS=  1040.
 Integral symmetry usage will be decided dynamically.
 IVT=      770090 IEndB=      770090 NGot=  2097152000 MDV=  2096647053
 LenX=  2096647053 LenY=  2096398551
 Requested convergence on RMS density matrix=1.00D-08 within 128 cycles.
 Requested convergence on MAX density matrix=1.00D-06.
 Requested convergence on             energy=1.00D-06.
 No special actions if energy rises.
 Fock matrices will be formed incrementally for  20 cycles.
 Integral accuracy reduced to 1.0D-05 until final iterations.

 Cycle   1  Pass 0  IDiag  1:
 FoFJK:  IHMeth= 1 ICntrl=       0 DoSepK=F KAlg= 0 I1Cent=   0 FoldK=F
 IRaf= 940000000 NMat=   1 IRICut=       1 DoRegI=T DoRafI=F ISym2E= 0.
 FoFCou: FMM=F IPFlag=           0 FMFlag=      100000 FMFlg1=           0
         NFxFlg=           0 DoJE=F BraDBF=F KetDBF=F FulRan=T
         wScrn=  0.000000 ICntrl=       0 IOpCl=  0 I1Cent=           0 NGrid=           0
         NMat0=    1 NMatS0=      1 NMatT0=    0 NMatD0=    1 NMtDS0=    0 NMtDT0=    0
 Symmetry not used in FoFCou.
 E= -155.512094569292    
 DIIS: error= 3.84D-02 at cycle   1 NSaved=   1.
 NSaved= 1 IEnMin= 1 EnMin= -155.512094569292     IErMin= 1 ErrMin= 3.84D-02
 ErrMax= 3.84D-02  0.00D+00 EMaxC= 1.00D-01 BMatC= 2.54D-01 BMatP= 2.54D-01
 IDIUse=3 WtCom= 6.16D-01 WtEn= 3.84D-01
 Coeff-Com:  0.100D+01
 Coeff-En:   0.100D+01
 Coeff:      0.100D+01
 Gap=     0.297 Goal=   None    Shift=    0.000
 GapD=    0.297 DampG=1.000 DampE=0.500 DampFc=0.5000 IDamp=-1.
 Damping current iteration by 5.00D-01
 RMSDP=9.45D-04 MaxDP=5.10D-02              OVMax= 1.94D-01

 Cycle   2  Pass 0  IDiag  1:
 RMSU=  4.34D-04    CP:  9.51D-01
 E= -155.611989532963     Delta-E=       -0.099894963671 Rises=F Damp=T
 DIIS: error= 1.14D-02 at cycle   2 NSaved=   2.
 NSaved= 2 IEnMin= 2 EnMin= -155.611989532963     IErMin= 2 ErrMin= 1.14D-02
 ErrMax= 1.14D-02  0.00D+00 EMaxC= 1.00D-01 BMatC= 2.98D-02 BMatP= 2.54D-01
 IDIUse=3 WtCom= 8.86D-01 WtEn= 1.14D-01
 Coeff-Com: -0.301D+00 0.130D+01
 Coeff-En:   0.000D+00 0.100D+01
 Coeff:     -0.266D+00 0.127D+01
 Gap=     0.357 Goal=   None    Shift=    0.000
 RMSDP=2.59D-04 MaxDP=7.97D-03 DE=-9.99D-02 OVMax= 9.36D-02

 Cycle   3  Pass 0  IDiag  1:
 RMSU=  2.47D-04    CP:  9.33D-01  1.11D+00
 E= -155.698345664987     Delta-E=       -0.086356132024 Rises=F Damp=F
 DIIS: error= 4.36D-03 at cycle   3 NSaved=   3.
 NSaved= 3 IEnMin= 3 EnMin= -155.698345664987     IErMin= 3 ErrMin= 4.36D-03
 ErrMax= 4.36D-03  0.00D+00 EMaxC= 1.00D-01 BMatC= 1.79D-03 BMatP= 2.98D-02
 IDIUse=3 WtCom= 9.56D-01 WtEn= 4.36D-02
 Coeff-Com: -0.109D+00 0.217D+00 0.892D+00
 Coeff-En:   0.000D+00 0.000D+00 0.100D+01
 Coeff:     -0.105D+00 0.208D+00 0.897D+00
 Gap=     0.292 Goal=   None    Shift=    0.000
 RMSDP=6.75D-05 MaxDP=3.85D-03 DE=-8.64D-02 OVMax= 2.23D-02

 Cycle   4  Pass 0  IDiag  1:
 RMSU=  4.98D-05    CP:  9.29D-01  1.20D+00  9.36D-01
 E= -155.699718583049     Delta-E=       -0.001372918062 Rises=F Damp=F
 DIIS: error= 2.88D-03 at cycle   4 NSaved=   4.
 NSaved= 4 IEnMin= 4 EnMin= -155.699718583049     IErMin= 4 ErrMin= 2.88D-03
 ErrMax= 2.88D-03  0.00D+00 EMaxC= 1.00D-01 BMatC= 5.73D-04 BMatP= 1.79D-03
 IDIUse=3 WtCom= 9.71D-01 WtEn= 2.88D-02
 Coeff-Com: -0.499D-01 0.814D-01 0.475D+00 0.494D+00
 Coeff-En:   0.000D+00 0.000D+00 0.131D+00 0.869D+00
 Coeff:     -0.485D-01 0.791D-01 0.465D+00 0.505D+00
 Gap=     0.292 Goal=   None    Shift=    0.000
 RMSDP=2.75D-05 MaxDP=1.36D-03 DE=-1.37D-03 OVMax= 8.70D-03

 Cycle   5  Pass 0  IDiag  1:
 RMSU=  1.52D-05    CP:  9.30D-01  1.19D+00  9.76D-01  5.89D-01
 E= -155.700270845141     Delta-E=       -0.000552262092 Rises=F Damp=F
 DIIS: error= 3.01D-04 at cycle   5 NSaved=   5.
 NSaved= 5 IEnMin= 5 EnMin= -155.700270845141     IErMin= 5 ErrMin= 3.01D-04
 ErrMax= 3.01D-04  0.00D+00 EMaxC= 1.00D-01 BMatC= 4.94D-06 BMatP= 5.73D-04
 IDIUse=3 WtCom= 9.97D-01 WtEn= 3.01D-03
 Coeff-Com: -0.269D-02 0.215D-02 0.361D-01 0.103D+00 0.861D+00
 Coeff-En:   0.000D+00 0.000D+00 0.000D+00 0.000D+00 0.100D+01
 Coeff:     -0.268D-02 0.214D-02 0.360D-01 0.103D+00 0.862D+00
 Gap=     0.293 Goal=   None    Shift=    0.000
 RMSDP=3.74D-06 MaxDP=1.32D-04 DE=-5.52D-04 OVMax= 1.21D-03

 Initial convergence to 1.0D-05 achieved.  Increase integral accuracy.
 Cycle   6  Pass 1  IDiag  1:
 E= -155.700293827514     Delta-E=       -0.000022982373 Rises=F Damp=F
 DIIS: error= 5.53D-05 at cycle   1 NSaved=   1.
 NSaved= 1 IEnMin= 1 EnMin= -155.700293827514     IErMin= 1 ErrMin= 5.53D-05
 ErrMax= 5.53D-05  0.00D+00 EMaxC= 1.00D-01 BMatC= 4.73D-07 BMatP= 4.73D-07
 IDIUse=1 WtCom= 1.00D+00 WtEn= 0.00D+00
 Coeff-Com:  0.100D+01
 Coeff:      0.100D+01
 Gap=     0.293 Goal=   None    Shift=    0.000
 RMSDP=3.74D-06 MaxDP=1.32D-04 DE=-2.30D-05 OVMax= 2.77D-04

 Cycle   7  Pass 1  IDiag  1:
 RMSU=  1.62D-05    CP:  1.00D+00
 E= -155.700294153398     Delta-E=       -0.000000325884 Rises=F Damp=F
 DIIS: error= 1.70D-05 at cycle   2 NSaved=   2.
 NSaved= 2 IEnMin= 2 EnMin= -155.700294153398     IErMin= 2 ErrMin= 1.70D-05
 ErrMax= 1.70D-05  0.00D+00 EMaxC= 1.00D-01 BMatC= 2.01D-08 BMatP= 4.73D-07
 IDIUse=1 WtCom= 1.00D+00 WtEn= 0.00D+00
 Coeff-Com:  0.449D-01 0.955D+00
 Coeff:      0.449D-01 0.955D+00
 Gap=     0.293 Goal=   None    Shift=    0.000
 RMSDP=6.79D-07 MaxDP=1.91D-05 DE=-3.26D-07 OVMax= 1.27D-04

 Cycle   8  Pass 1  IDiag  1:
 RMSU=  4.45D-07    CP:  1.00D+00  1.03D+00
 E= -155.700294166334     Delta-E=       -0.000000012936 Rises=F Damp=F
 DIIS: error= 1.40D-05 at cycle   3 NSaved=   3.
 NSaved= 3 IEnMin= 3 EnMin= -155.700294166334     IErMin= 3 ErrMin= 1.40D-05
 ErrMax= 1.40D-05  0.00D+00 EMaxC= 1.00D-01 BMatC= 1.81D-08 BMatP= 2.01D-08
 IDIUse=1 WtCom= 1.00D+00 WtEn= 0.00D+00
 Coeff-Com: -0.175D-01 0.488D+00 0.530D+00
 Coeff:     -0.175D-01 0.488D+00 0.530D+00
 Gap=     0.293 Goal=   None    Shift=    0.000
 RMSDP=1.82D-07 MaxDP=1.09D-05 DE=-1.29D-08 OVMax= 7.13D-05

 Cycle   9  Pass 1  IDiag  1:
 RMSU=  1.69D-07    CP:  1.00D+00  1.03D+00  9.09D-01
 E= -155.700294184450     Delta-E=       -0.000000018116 Rises=F Damp=F
 DIIS: error= 3.21D-06 at cycle   4 NSaved=   4.
 NSaved= 4 IEnMin= 4 EnMin= -155.700294184450     IErMin= 4 ErrMin= 3.21D-06
 ErrMax= 3.21D-06  0.00D+00 EMaxC= 1.00D-01 BMatC= 2.94D-10 BMatP= 1.81D-08
 IDIUse=1 WtCom= 1.00D+00 WtEn= 0.00D+00
 Coeff-Com: -0.705D-02 0.213D-02 0.789D-01 0.926D+00
 Coeff:     -0.705D-02 0.213D-02 0.789D-01 0.926D+00
 Gap=     0.293 Goal=   None    Shift=    0.000
 RMSDP=5.44D-08 MaxDP=1.82D-06 DE=-1.81D-08 OVMax= 1.74D-05

 Cycle  10  Pass 1  IDiag  1:
 RMSU=  3.71D-08    CP:  1.00D+00  1.04D+00  9.83D-01  1.10D+00
 E= -155.700294185109     Delta-E=       -0.000000000659 Rises=F Damp=F
 DIIS: error= 6.26D-07 at cycle   5 NSaved=   5.
 NSaved= 5 IEnMin= 5 EnMin= -155.700294185109     IErMin= 5 ErrMin= 6.26D-07
 ErrMax= 6.26D-07  0.00D+00 EMaxC= 1.00D-01 BMatC= 3.88D-11 BMatP= 2.94D-10
 IDIUse=1 WtCom= 1.00D+00 WtEn= 0.00D+00
 Coeff-Com:  0.567D-03-0.496D-01-0.492D-01 0.188D+00 0.910D+00
 Coeff:      0.567D-03-0.496D-01-0.492D-01 0.188D+00 0.910D+00
 Gap=     0.293 Goal=   None    Shift=    0.000
 RMSDP=2.05D-08 MaxDP=9.07D-07 DE=-6.59D-10 OVMax= 5.74D-06

 Cycle  11  Pass 1  IDiag  1:
 RMSU=  1.15D-08    CP:  1.00D+00  1.04D+00  1.00D+00  1.18D+00  1.19D+00
 E= -155.700294185171     Delta-E=       -0.000000000063 Rises=F Damp=F
 DIIS: error= 1.82D-07 at cycle   6 NSaved=   6.
 NSaved= 6 IEnMin= 6 EnMin= -155.700294185171     IErMin= 6 ErrMin= 1.82D-07
 ErrMax= 1.82D-07  0.00D+00 EMaxC= 1.00D-01 BMatC= 4.36D-12 BMatP= 3.88D-11
 IDIUse=1 WtCom= 1.00D+00 WtEn= 0.00D+00
 Coeff-Com:  0.602D-03-0.216D-01-0.266D-01 0.384D-01 0.383D+00 0.626D+00
 Coeff:      0.602D-03-0.216D-01-0.266D-01 0.384D-01 0.383D+00 0.626D+00
 Gap=     0.293 Goal=   None    Shift=    0.000
 RMSDP=3.32D-09 MaxDP=1.92D-07 DE=-6.26D-11 OVMax= 1.09D-06

 SCF Done:  E(RB2PLYPD3) =  -155.700294185     A.U. after   11 cycles
            NFock= 11  Conv=0.33D-08     -V/T= 2.0035
 KE= 1.551552521523D+02 PE=-5.691229214398D+02 EE= 1.541767136592D+02
 Leave Link  502 at Wed Aug 26 15:08:15 2020, MaxMem=  2097152000 cpu:      1281.3
 (Enter /opt/cluster/programs/g09/g09_d.01/g09/l801.exe)
 DoSCS=T DFT=T ScalE2(SS,OS)=  0.270000  0.270000
 ExpMin= 7.60D-02 ExpMax= 6.70D+04 ExpMxC= 6.47D+02 IAcc=3 IRadAn=         5 AccDes= 0.00D+00
 HarFok:  IExCor=  205 AccDes= 0.00D+00 IRadAn=         5 IDoV=-2 UseB2=F ITyADJ=14
 ICtDFT= 12500011 ScaDFX=  1.000000  1.000000  1.000000  1.000000
 Largest valence mixing into a core orbital is  1.11D-04
 Largest core mixing into a valence orbital is  1.99D-05
 Range of M.O.s used for correlation:     5   408
 NBasis=   408 NAE=    15 NBE=    15 NFC=     4 NFV=     0
 NROrb=    404 NOA=    11 NOB=    11 NVA=   393 NVB=   393

 **** Warning!!: The largest alpha MO coefficient is  0.29499162D+02

 Leave Link  801 at Wed Aug 26 15:08:15 2020, MaxMem=  2097152000 cpu:         0.9
 (Enter /opt/cluster/programs/g09/g09_d.01/g09/l906.exe)
 DoSCS=T DFT=T ScalE2(SS,OS)=  0.270000  0.270000
 FulOut=F Deriv=F AODrv=F NAtomX=    10
   MMem=         881  MDisk=          11 MDiskD=          11
  W3Min=     2152854 MinDsk=     3857222 NBas6D=         498
 NBas2D=      125763    NTT=      124251    LW2=     4508827
    MDV=  2096382352 MDiskM=        9345 NBas2p=      117558
 Fully direct method using O(OVN) memory.
 IMap=   1   2   3   4   5   6   7   8   9  10  11
 JobTyp=1 Pass  1:  I=   1 to  11 NPSUse=  8 ParTrn=T ParDer=T DoDerP=F.
 Spin components of T(2) and E(2):
     alpha-alpha T2 =       0.4198378107D-01 E2=     -0.2542327947D-01
     alpha-beta  T2 =       0.2715001721D+00 E2=     -0.1748446222D+00
     beta-beta   T2 =       0.4198378107D-01 E2=     -0.2542327947D-01
 The integrals were generated   1 times.
 E2(B2PLYPD3) =    -0.2256911811D+00 E(B2PLYPD3) =    -0.15592598536630D+03
 Leave Link  906 at Wed Aug 26 15:10:14 2020, MaxMem=  2097152000 cpu:       947.5
 (Enter /opt/cluster/programs/g09/g09_d.01/g09/l601.exe)
 Copying SCF densities to generalized density rwf, IOpCl= 0 IROHF=0.

 **********************************************************************

            Population analysis using the SCF density.

 **********************************************************************

 Orbital symmetries:
       Occupied  (A) (A) (A) (A) (A) (A) (A) (A) (A) (A) (A) (A)
                 (A) (A) (A)
       Virtual   (A) (A) (A) (A) (A) (A) (A) (A) (A) (A) (A) (A)
                 (A) (A) (A) (A) (A) (A) (A) (A) (A) (A) (A) (A)
                 (A) (A) (A) (A) (A) (A) (A) (A) (A) (A) (A) (A)
                 (A) (A) (A) (A) (A) (A) (A) (A) (A) (A) (A) (A)
                 (A) (A) (A) (A) (A) (A) (A) (A) (A) (A) (A) (A)
                 (A) (A) (A) (A) (A) (A) (A) (A) (A) (A) (A) (A)
                 (A) (A) (A) (A) (A) (A) (A) (A) (A) (A) (A) (A)
                 (A) (A) (A) (A) (A) (A) (A) (A) (A) (A) (A) (A)
                 (A) (A) (A) (A) (A) (A) (A) (A) (A) (A) (A) (A)
                 (A) (A) (A) (A) (A) (A) (A) (A) (A) (A) (A) (A)
                 (A) (A) (A) (A) (A) (A) (A) (A) (A) (A) (A) (A)
                 (A) (A) (A) (A) (A) (A) (A) (A) (A) (A) (A) (A)
                 (A) (A) (A) (A) (A) (A) (A) (A) (A) (A) (A) (A)
                 (A) (A) (A) (A) (A) (A) (A) (A) (A) (A) (A) (A)
                 (A) (A) (A) (A) (A) (A) (A) (A) (A) (A) (A) (A)
                 (A) (A) (A) (A) (A) (A) (A) (A) (A) (A) (A) (A)
                 (A) (A) (A) (A) (A) (A) (A) (A) (A) (A) (A) (A)
                 (A) (A) (A) (A) (A) (A) (A) (A) (A) (A) (A) (A)
                 (A) (A) (A) (A) (A) (A) (A) (A) (A) (A) (A) (A)
                 (A) (A) (A) (A) (A) (A) (A) (A) (A) (A) (A) (A)
                 (A) (A) (A) (A) (A) (A) (A) (A) (A) (A) (A) (A)
                 (A) (A) (A) (A) (A) (A) (A) (A) (A) (A) (A) (A)
                 (A) (A) (A) (A) (A) (A) (A) (A) (A) (A) (A) (A)
                 (A) (A) (A) (A) (A) (A) (A) (A) (A) (A) (A) (A)
                 (A) (A) (A) (A) (A) (A) (A) (A) (A) (A) (A) (A)
                 (A) (A) (A) (A) (A) (A) (A) (A) (A) (A) (A) (A)
                 (A) (A) (A) (A) (A) (A) (A) (A) (A) (A) (A) (A)
                 (A) (A) (A) (A) (A) (A) (A) (A) (A) (A) (A) (A)
                 (A) (A) (A) (A) (A) (A) (A) (A) (A) (A) (A) (A)
                 (A) (A) (A) (A) (A) (A) (A) (A) (A) (A) (A) (A)
                 (A) (A) (A) (A) (A) (A) (A) (A) (A) (A) (A) (A)
                 (A) (A) (A) (A) (A) (A) (A) (A) (A) (A) (A) (A)
                 (A) (A) (A) (A) (A) (A) (A) (A) (A)
 The electronic state is 1-A.
 Alpha  occ. eigenvalues --  -10.62628 -10.62468 -10.61669 -10.61197  -0.93055
 Alpha  occ. eigenvalues --   -0.84957  -0.70311  -0.64165  -0.54835  -0.53986
 Alpha  occ. eigenvalues --   -0.46884  -0.45456  -0.41287  -0.38131  -0.27639
 Alpha virt. eigenvalues --    0.01633   0.07030   0.07461   0.08077   0.09622
 Alpha virt. eigenvalues --    0.11642   0.12595   0.14627   0.15927   0.16236
 Alpha virt. eigenvalues --    0.18798   0.20594   0.21656   0.22816   0.23753
 Alpha virt. eigenvalues --    0.26864   0.27007   0.29174   0.31838   0.35045
 Alpha virt. eigenvalues --    0.36301   0.36660   0.37704   0.38217   0.40697
 Alpha virt. eigenvalues --    0.42670   0.43610   0.45875   0.47498   0.48476
 Alpha virt. eigenvalues --    0.48914   0.49492   0.51695   0.55719   0.57370
 Alpha virt. eigenvalues --    0.58650   0.60298   0.64556   0.66689   0.67940
 Alpha virt. eigenvalues --    0.68834   0.72438   0.77087   0.77387   0.79210
 Alpha virt. eigenvalues --    0.79475   0.80819   0.81552   0.82502   0.84318
 Alpha virt. eigenvalues --    0.84938   0.85851   0.86401   0.86917   0.91046
 Alpha virt. eigenvalues --    0.92670   0.93496   0.94379   0.95235   0.96322
 Alpha virt. eigenvalues --    0.98769   0.99146   1.00179   1.03229   1.05068
 Alpha virt. eigenvalues --    1.05641   1.08910   1.10522   1.12016   1.13184
 Alpha virt. eigenvalues --    1.14282   1.18739   1.19397   1.20790   1.23322
 Alpha virt. eigenvalues --    1.24583   1.27021   1.34323   1.34861   1.36371
 Alpha virt. eigenvalues --    1.37468   1.41534   1.47829   1.63472   1.64887
 Alpha virt. eigenvalues --    1.65884   1.68154   1.69928   1.71517   1.72641
 Alpha virt. eigenvalues --    1.74021   1.80204   1.82960   1.84323   1.86983
 Alpha virt. eigenvalues --    1.89656   1.90928   1.91475   1.93730   1.94121
 Alpha virt. eigenvalues --    1.94395   1.99487   2.00516   2.01094   2.01676
 Alpha virt. eigenvalues --    2.03569   2.06059   2.07185   2.08180   2.09662
 Alpha virt. eigenvalues --    2.10577   2.11287   2.14946   2.17731   2.19156
 Alpha virt. eigenvalues --    2.19840   2.21747   2.23280   2.26222   2.28577
 Alpha virt. eigenvalues --    2.29947   2.33440   2.33935   2.38853   2.42907
 Alpha virt. eigenvalues --    2.44395   2.45553   2.46817   2.48059   2.50420
 Alpha virt. eigenvalues --    2.52629   2.53980   2.56332   2.57082   2.58621
 Alpha virt. eigenvalues --    2.59976   2.62772   2.64196   2.64807   2.65280
 Alpha virt. eigenvalues --    2.67091   2.70165   2.71023   2.71306   2.72084
 Alpha virt. eigenvalues --    2.73124   2.75972   2.76843   2.78278   2.79117
 Alpha virt. eigenvalues --    2.81791   2.88694   2.91531   2.92850   2.93827
 Alpha virt. eigenvalues --    2.94878   3.03770   3.06804   3.07617   3.10258
 Alpha virt. eigenvalues --    3.13440   3.14960   3.25792   3.34692   3.37545
 Alpha virt. eigenvalues --    3.39123   3.40485   3.42084   3.46477   3.48369
 Alpha virt. eigenvalues --    3.48884   3.50612   3.53302   3.57235   3.59882
 Alpha virt. eigenvalues --    3.61277   3.61560   3.63628   3.70375   3.77754
 Alpha virt. eigenvalues --    3.78357   3.83580   3.88339   3.91235   3.92427
 Alpha virt. eigenvalues --    3.95187   3.97167   4.01132   4.06416   4.15054
 Alpha virt. eigenvalues --    4.17417   4.18123   4.22045   4.26851   4.46240
 Alpha virt. eigenvalues --    4.55070   4.58249   4.59284   4.87888   5.00032
 Alpha virt. eigenvalues --    5.01152   5.04044   5.05787   5.06798   5.08093
 Alpha virt. eigenvalues --    5.12032   5.17678   5.20714   5.28344   5.31268
 Alpha virt. eigenvalues --    5.33330   5.40220   5.42670   5.44593   5.49319
 Alpha virt. eigenvalues --    5.52756   5.55120   5.56502   5.59475   5.62448
 Alpha virt. eigenvalues --    5.65797   5.68930   5.74670   5.76280   5.77771
 Alpha virt. eigenvalues --    5.78647   5.80122   5.83113   5.85389   5.86759
 Alpha virt. eigenvalues --    5.89641   5.91045   6.00577   6.02261   6.04657
 Alpha virt. eigenvalues --    6.05988   6.07192   6.08197   6.09131   6.12155
 Alpha virt. eigenvalues --    6.13483   6.15616   6.17084   6.19590   6.21272
 Alpha virt. eigenvalues --    6.21766   6.23574   6.29201   6.31507   6.34113
 Alpha virt. eigenvalues --    6.35376   6.37785   6.38271   6.38577   6.39636
 Alpha virt. eigenvalues --    6.40135   6.41094   6.44161   6.51564   6.52779
 Alpha virt. eigenvalues --    6.54762   6.55602   6.56580   6.57767   6.64114
 Alpha virt. eigenvalues --    6.65324   6.66686   6.71464   6.72680   6.81613
 Alpha virt. eigenvalues --    6.81874   6.86039   6.88463   6.91463   6.92938
 Alpha virt. eigenvalues --    6.93909   6.97769   7.01291   7.04485   7.11235
 Alpha virt. eigenvalues --    7.14275   7.16240   7.17591   7.20820   7.21890
 Alpha virt. eigenvalues --    7.25726   7.27263   7.34797   7.37239   7.43621
 Alpha virt. eigenvalues --    7.48296   7.50637   7.57128   7.59236   7.60471
 Alpha virt. eigenvalues --    7.63349   7.64631   7.66208   7.67357   7.68913
 Alpha virt. eigenvalues --    7.70816   7.72837   7.76452   7.77238   7.77726
 Alpha virt. eigenvalues --    7.79944   7.82714   7.86366   7.92306   7.94287
 Alpha virt. eigenvalues --    7.95614   7.96440   8.05918   8.10059   8.14498
 Alpha virt. eigenvalues --    8.15557   8.17786   8.18838   8.19478   8.24804
 Alpha virt. eigenvalues --    8.28419   8.32179   8.33551   8.35698   8.36180
 Alpha virt. eigenvalues --    8.37517   8.38176   8.39036   8.42522   8.45460
 Alpha virt. eigenvalues --    8.47300   8.51968   8.55844   8.56810   8.58675
 Alpha virt. eigenvalues --    8.59820   8.61182   8.62974   8.68846   8.71348
 Alpha virt. eigenvalues --    8.74339   8.77440   8.80591   8.81030   8.87183
 Alpha virt. eigenvalues --    8.87876   8.91382   8.94823   9.04350   9.16151
 Alpha virt. eigenvalues --    9.24723   9.25324   9.31759   9.37318   9.48136
 Alpha virt. eigenvalues --    9.57994   9.66954   9.75462   9.86497   9.88660
 Alpha virt. eigenvalues --    9.90953   9.95590   9.98318  10.02808  10.08215
 Alpha virt. eigenvalues --   10.10064  10.12624  10.24346  10.32240  10.35683
 Alpha virt. eigenvalues --   10.37148  10.44120  10.56223  10.68000  10.84458
 Alpha virt. eigenvalues --   11.09792  11.16743  11.44994  11.71091  11.82909
 Alpha virt. eigenvalues --   11.94812  12.88194  13.06851  13.17744  13.27532
 Alpha virt. eigenvalues --   28.64561  28.80610  29.48323  29.68236 148.24131
 Alpha virt. eigenvalues --  148.38853 149.07802 149.29152
          Condensed to atoms (all electrons):
               1          2          3          4          5          6
     1  C    4.840126   0.619574  -0.078577  -0.002362   0.424922   0.423505
     2  C    0.619574   4.833533   0.399557  -0.080498  -0.040172  -0.051111
     3  C   -0.078577   0.399557   4.837171   0.616493   0.006752  -0.008371
     4  C   -0.002362  -0.080498   0.616493   4.838641  -0.000562   0.000338
     5  H    0.424922  -0.040172   0.006752  -0.000562   0.575318  -0.045834
     6  H    0.423505  -0.051111  -0.008371   0.000338  -0.045834   0.609036
     7  H   -0.051117   0.408570  -0.060203  -0.001004  -0.008207   0.008398
     8  H   -0.001981  -0.061369   0.412496  -0.049713  -0.000052   0.005007
     9  H    0.000199  -0.007380  -0.047341   0.426214  -0.000025   0.000047
    10  H   -0.000633   0.007573  -0.048662   0.428848   0.000021  -0.000038
               7          8          9         10
     1  C   -0.051117  -0.001981   0.000199  -0.000633
     2  C    0.408570  -0.061369  -0.007380   0.007573
     3  C   -0.060203   0.412496  -0.047341  -0.048662
     4  C   -0.001004  -0.049713   0.426214   0.428848
     5  H   -0.008207  -0.000052  -0.000025   0.000021
     6  H    0.008398   0.005007   0.000047  -0.000038
     7  H    0.639005   0.007024   0.004439  -0.000105
     8  H    0.007024   0.637523   0.007779  -0.009500
     9  H    0.004439   0.007779   0.593007  -0.044230
    10  H   -0.000105  -0.009500  -0.044230   0.579223
 Mulliken charges:
               1
     1  C   -0.173654
     2  C   -0.028277
     3  C   -0.029314
     4  C   -0.176394
     5  H    0.087839
     6  H    0.059024
     7  H    0.053199
     8  H    0.052786
     9  H    0.067290
    10  H    0.087501
 Sum of Mulliken charges =   0.00000
 Mulliken charges with hydrogens summed into heavy atoms:
               1
     1  C   -0.026791
     2  C    0.024922
     3  C    0.023472
     4  C   -0.021603
 Electronic spatial extent (au):  <R**2>=            334.6732
 Charge=              0.0000 electrons
 Dipole moment (field-independent basis, Debye):
    X=             -0.0051    Y=             -0.0060    Z=              0.0753  Tot=              0.0757
 Quadrupole moment (field-independent basis, Debye-Ang):
   XX=            -23.2730   YY=            -23.2250   ZZ=            -29.2447
   XY=              0.0376   XZ=              0.1057   YZ=              0.0611
 Traceless Quadrupole moment (field-independent basis, Debye-Ang):
   XX=              1.9746   YY=              2.0225   ZZ=             -3.9971
   XY=              0.0376   XZ=              0.1057   YZ=              0.0611
 Octapole moment (field-independent basis, Debye-Ang**2):
  XXX=             -0.7292  YYY=             -0.0156  ZZZ=              0.1230  XYY=              0.3411
  XXY=              0.2207  XXZ=              0.3260  XZZ=              0.1719  YZZ=             -0.0167
  YYZ=              0.2178  XYZ=              0.3169
 Hexadecapole moment (field-independent basis, Debye-Ang**3):
 XXXX=           -339.8070 YYYY=            -65.0877 ZZZZ=            -36.7718 XXXY=             -6.7128
 XXXZ=              0.3699 YYYX=              1.6227 YYYZ=              0.1161 ZZZX=              0.1724
 ZZZY=              0.0578 XXYY=            -68.9581 XXZZ=            -76.9476 YYZZ=            -19.1216
 XXYZ=              0.5000 YYXZ=              0.3281 ZZXY=              0.4516
 N-N= 1.040906614431D+02 E-N=-5.691229112735D+02  KE= 1.551552521523D+02
 Leave Link  601 at Wed Aug 26 15:10:14 2020, MaxMem=  2097152000 cpu:         0.6
 (Enter /opt/cluster/programs/g09/g09_d.01/g09/l9999.exe)
 1\1\GINC-NODE26\SP\RB2PLYPD3-FC\def2QZVP\C4H6\BOITTIER\26-Aug-2020\0\\
 #p B2PLYPD3/Def2QZVP\\butadiene\\0,1\C,0,-3.844148,0.223359,0.006436\C
 ,0,-2.717667,-0.506026,0.052841\C,0,-1.384868,0.06244,0.021059\C,0,-0.
 259354,-0.647206,0.028484\H,0,-4.860797,-0.169489,0.02609\H,0,-3.74996
 3,1.295572,-0.034919\H,0,-2.808688,-1.58901,0.086227\H,0,-1.336545,1.1
 44797,-0.024347\H,0,-0.281427,-1.723449,-0.036676\H,0,0.689094,-0.1726
 23,0.020747\\Version=ES64L-G09RevD.01\State=1-A\HF=-155.7002942\MP2=-1
 55.9259854\RMSD=3.321e-09\PG=C01 [X(C4H6)]\\@


 IF YOU GIVE EVERYONE A PIECE OF YOUR MIND,
 PRETTY SOON IT WILL BE ALL GONE.
 Job cpu time:       0 days  0 hours 37 minutes 23.8 seconds.
 File lengths (MBytes):  RWF=     92 Int=      0 D2E=      0 Chk=      9 Scr=      1
 Normal termination of Gaussian 09 at Wed Aug 26 15:10:14 2020.
