 Entering Gaussian System, Link 0=/opt/cluster/programs/g09/g09_d.01/g09//g09
 Input=/home/boittier/MDCM/nms_sampling/butadiene_geom.xyz.dir/energies/butadiene_2430_energy.com
 Output=/scratch/boittier/butadiene_2430_energy/butadiene_2430_energy.out
 Initial command:
 /opt/cluster/programs/g09/g09_d.01/g09/l1.exe "/scratch/boittier/butadiene_2430_energy/Gau-42305.inp" -scrdir="/scratch/boittier/butadiene_2430_energy/"
 Entering Link 1 = /opt/cluster/programs/g09/g09_d.01/g09/l1.exe PID=     42306.
  
 Copyright (c) 1988,1990,1992,1993,1995,1998,2003,2009,2013,
            Gaussian, Inc.  All Rights Reserved.
  
 This is part of the Gaussian(R) 09 program.  It is based on
 the Gaussian(R) 03 system (copyright 2003, Gaussian, Inc.),
 the Gaussian(R) 98 system (copyright 1998, Gaussian, Inc.),
 the Gaussian(R) 94 system (copyright 1995, Gaussian, Inc.),
 the Gaussian 92(TM) system (copyright 1992, Gaussian, Inc.),
 the Gaussian 90(TM) system (copyright 1990, Gaussian, Inc.),
 the Gaussian 88(TM) system (copyright 1988, Gaussian, Inc.),
 the Gaussian 86(TM) system (copyright 1986, Carnegie Mellon
 University), and the Gaussian 82(TM) system (copyright 1983,
 Carnegie Mellon University). Gaussian is a federally registered
 trademark of Gaussian, Inc.
  
 This software contains proprietary and confidential information,
 including trade secrets, belonging to Gaussian, Inc.
  
 This software is provided under written license and may be
 used, copied, transmitted, or stored only in accord with that
 written license.
  
 The following legend is applicable only to US Government
 contracts under FAR:
  
                    RESTRICTED RIGHTS LEGEND
  
 Use, reproduction and disclosure by the US Government is
 subject to restrictions as set forth in subparagraphs (a)
 and (c) of the Commercial Computer Software - Restricted
 Rights clause in FAR 52.227-19.
  
 Gaussian, Inc.
 340 Quinnipiac St., Bldg. 40, Wallingford CT 06492
  
  
 ---------------------------------------------------------------
 Warning -- This program may not be used in any manner that
 competes with the business of Gaussian, Inc. or will provide
 assistance to any competitor of Gaussian, Inc.  The licensee
 of this program is prohibited from giving any competitor of
 Gaussian, Inc. access to this program.  By using this program,
 the user acknowledges that Gaussian, Inc. is engaged in the
 business of creating and licensing software in the field of
 computational chemistry and represents and warrants to the
 licensee that it is not a competitor of Gaussian, Inc. and that
 it will not use this program in any manner prohibited above.
 ---------------------------------------------------------------
  

 Cite this work as:
 Gaussian 09, Revision D.01,
 M. J. Frisch, G. W. Trucks, H. B. Schlegel, G. E. Scuseria, 
 M. A. Robb, J. R. Cheeseman, G. Scalmani, V. Barone, B. Mennucci, 
 G. A. Petersson, H. Nakatsuji, M. Caricato, X. Li, H. P. Hratchian, 
 A. F. Izmaylov, J. Bloino, G. Zheng, J. L. Sonnenberg, M. Hada, 
 M. Ehara, K. Toyota, R. Fukuda, J. Hasegawa, M. Ishida, T. Nakajima, 
 Y. Honda, O. Kitao, H. Nakai, T. Vreven, J. A. Montgomery, Jr., 
 J. E. Peralta, F. Ogliaro, M. Bearpark, J. J. Heyd, E. Brothers, 
 K. N. Kudin, V. N. Staroverov, T. Keith, R. Kobayashi, J. Normand, 
 K. Raghavachari, A. Rendell, J. C. Burant, S. S. Iyengar, J. Tomasi, 
 M. Cossi, N. Rega, J. M. Millam, M. Klene, J. E. Knox, J. B. Cross, 
 V. Bakken, C. Adamo, J. Jaramillo, R. Gomperts, R. E. Stratmann, 
 O. Yazyev, A. J. Austin, R. Cammi, C. Pomelli, J. W. Ochterski, 
 R. L. Martin, K. Morokuma, V. G. Zakrzewski, G. A. Voth, 
 P. Salvador, J. J. Dannenberg, S. Dapprich, A. D. Daniels, 
 O. Farkas, J. B. Foresman, J. V. Ortiz, J. Cioslowski, 
 and D. J. Fox, Gaussian, Inc., Wallingford CT, 2013.
 
 ******************************************
 Gaussian 09:  ES64L-G09RevD.01 24-Apr-2013
                26-Aug-2020 
 ******************************************
 %chk=/home/boittier/MDCM/nms_sampling/butadiene_geom.xyz.dir/butadiene_2430.chk
 %nproc=8
 Will use up to    8 processors via shared memory.
 %mem=16000MB
 --------------------
 #p B2PLYPD3/Def2QZVP
 --------------------
 1/38=1/1;
 2/12=2,17=6,18=5,40=1/2;
 3/5=45,7=101,11=9,16=1,25=1,30=1,74=-60/1,2,3;
 4//1;
 5/5=2,38=5/2;
 8/10=1/1;
 9/16=-3/6;
 6/7=2,8=2,9=2,10=2/1;
 99/5=1,9=1/99;
 Leave Link    1 at Wed Aug 26 13:56:24 2020, MaxMem=  2097152000 cpu:         0.3
 (Enter /opt/cluster/programs/g09/g09_d.01/g09/l101.exe)
 ---------
 butadiene
 ---------
 Symbolic Z-matrix:
 Charge =  0 Multiplicity = 1
 C                    -3.87244   0.19507  -0.05163 
 C                    -2.69066  -0.46703   0.15238 
 C                    -1.35834   0.12349   0.08104 
 C                    -0.26181  -0.6868   -0.05253 
 H                    -4.87827  -0.3493   -0.19145 
 H                    -3.86766   1.31616  -0.07387 
 H                    -2.71517  -1.57069  -0.03484 
 H                    -1.44195   1.15392   0.03295 
 H                    -0.50077  -1.81689   0.0819 
 H                     0.755    -0.30055  -0.0448 
 
 NAtoms=     10 NQM=       10 NQMF=       0 NMMI=      0 NMMIF=      0
                NMic=       0 NMicF=      0.
                    Isotopes and Nuclear Properties:
 (Nuclear quadrupole moments (NQMom) in fm**2, nuclear magnetic moments (NMagM)
  in nuclear magnetons)

  Atom         1           2           3           4           5           6           7           8           9          10
 IAtWgt=          12          12          12          12           1           1           1           1           1           1
 AtmWgt=  12.0000000  12.0000000  12.0000000  12.0000000   1.0078250   1.0078250   1.0078250   1.0078250   1.0078250   1.0078250
 NucSpn=           0           0           0           0           1           1           1           1           1           1
 AtZEff=   0.0000000   0.0000000   0.0000000   0.0000000   0.0000000   0.0000000   0.0000000   0.0000000   0.0000000   0.0000000
 NQMom=    0.0000000   0.0000000   0.0000000   0.0000000   0.0000000   0.0000000   0.0000000   0.0000000   0.0000000   0.0000000
 NMagM=    0.0000000   0.0000000   0.0000000   0.0000000   2.7928460   2.7928460   2.7928460   2.7928460   2.7928460   2.7928460
 AtZNuc=   6.0000000   6.0000000   6.0000000   6.0000000   1.0000000   1.0000000   1.0000000   1.0000000   1.0000000   1.0000000
 Leave Link  101 at Wed Aug 26 13:56:24 2020, MaxMem=  2097152000 cpu:         0.5
 (Enter /opt/cluster/programs/g09/g09_d.01/g09/l202.exe)
                          Input orientation:                          
 ---------------------------------------------------------------------
 Center     Atomic      Atomic             Coordinates (Angstroms)
 Number     Number       Type             X           Y           Z
 ---------------------------------------------------------------------
      1          6           0       -3.872439    0.195065   -0.051632
      2          6           0       -2.690661   -0.467028    0.152384
      3          6           0       -1.358335    0.123487    0.081042
      4          6           0       -0.261807   -0.686799   -0.052530
      5          1           0       -4.878272   -0.349300   -0.191454
      6          1           0       -3.867662    1.316156   -0.073870
      7          1           0       -2.715173   -1.570687   -0.034842
      8          1           0       -1.441954    1.153919    0.032946
      9          1           0       -0.500771   -1.816892    0.081895
     10          1           0        0.755004   -0.300551   -0.044798
 ---------------------------------------------------------------------
                    Distance matrix (angstroms):
                    1          2          3          4          5
     1  C    0.000000
     2  C    1.369886   0.000000
     3  C    2.518620   1.459072   0.000000
     4  C    3.716766   2.447370   1.369956   0.000000
     5  H    1.152208   2.217595   3.561985   4.630870   0.000000
     6  H    1.121322   2.148550   2.782657   4.124861   1.951641
     7  H    2.111262   1.119695   2.173629   2.607791   2.489038
     8  H    2.614156   2.049635   1.034937   2.188218   3.757433
     9  H    3.928606   2.573465   2.121435   1.162877   4.625047
    10  H    4.653913   3.455315   2.159131   1.087728   5.635396
                    6          7          8          9         10
     6  H    0.000000
     7  H    3.108636   0.000000
     8  H    2.433473   3.008182   0.000000
     9  H    4.601761   2.231103   3.116719   0.000000
    10  H    4.897308   3.695331   2.635935   1.972894   0.000000
 Stoichiometry    C4H6
 Framework group  C1[X(C4H6)]
 Deg. of freedom    24
 Full point group                 C1      NOp   1
 Largest Abelian subgroup         C1      NOp   1
 Largest concise Abelian subgroup C1      NOp   1
                         Standard orientation:                         
 ---------------------------------------------------------------------
 Center     Atomic      Atomic             Coordinates (Angstroms)
 Number     Number       Type             X           Y           Z
 ---------------------------------------------------------------------
      1          6           0        1.859819   -0.075671   -0.055727
      2          6           0        0.575356    0.360345    0.135672
      3          6           0       -0.625800   -0.464677    0.061821
      4          6           0       -1.851130    0.130084   -0.085154
      5          1           0        2.749992    0.642603   -0.194507
      6          1           0        2.060515   -1.178816   -0.068182
      7          1           0        0.398776    1.448386   -0.061059
      8          1           0       -0.354613   -1.462707    0.023226
      9          1           0       -1.824066    1.285809    0.040753
     10          1           0       -2.780080   -0.435758   -0.079904
 ---------------------------------------------------------------------
 Rotational constants (GHZ):     39.4799405      4.3916749      3.9794983
 Leave Link  202 at Wed Aug 26 13:56:24 2020, MaxMem=  2097152000 cpu:         0.0
 (Enter /opt/cluster/programs/g09/g09_d.01/g09/l301.exe)
 Standard basis: def2QZVP (5D, 7F)
 Ernie: Thresh=  0.10000D-02 Tol=  0.10000D-05 Strict=F.
 There are   498 symmetry adapted cartesian basis functions of A   symmetry.
 There are   408 symmetry adapted basis functions of A   symmetry.
   408 basis functions,   596 primitive gaussians,   498 cartesian basis functions
    15 alpha electrons       15 beta electrons
       nuclear repulsion energy       102.5252995089 Hartrees.
 IExCor=  419 DFT=T Ex+Corr=B2PLYPD3 ExCW=0 ScaHFX=  0.530000
 ScaDFX=  0.470000  0.470000  0.730000  0.730000 ScalE2=  0.270000  0.270000
 IRadAn=      0 IRanWt=     -1 IRanGd=            0 ICorTp=0 IEmpDi=141
 NAtoms=   10 NActive=   10 NUniq=   10 SFac= 1.00D+00 NAtFMM=   60 NAOKFM=F Big=F
 Integral buffers will be    131072 words long.
 Regular integral format.
 Two-electron integral symmetry is turned on.
 R6Disp:  Grimme-D3(BJ) Dispersion energy=       -0.0048336294 Hartrees.
 Nuclear repulsion after empirical dispersion term =      102.5204658795 Hartrees.
 Leave Link  301 at Wed Aug 26 13:56:24 2020, MaxMem=  2097152000 cpu:         0.4
 (Enter /opt/cluster/programs/g09/g09_d.01/g09/l302.exe)
 NPDir=0 NMtPBC=     1 NCelOv=     1 NCel=       1 NClECP=     1 NCelD=      1
         NCelK=      1 NCelE2=     1 NClLst=     1 CellRange=     0.0.
 One-electron integrals computed using PRISM.
   1 Symmetry operations used in ECPInt.
 ECPInt:  NShTT=    8256 NPrTT=   19107 LenC2=    8053 LenP2D=   16106.
 LDataN:  DoStor=T MaxTD1= 8 Len=  415
 NBasis=   408 RedAO= T EigKep=  5.45D-05  NBF=   408
 NBsUse=   408 1.00D-06 EigRej= -1.00D+00 NBFU=   408
 Precomputing XC quadrature grid using
 IXCGrd= 4 IRadAn=           0 IRanWt=          -1 IRanGd=           0 AccXCQ= 0.00D+00.
 Generated NRdTot=       0 NPtTot=           0 NUsed=           0 NTot=          32
 NSgBfM=   498   498   498   498   498 MxSgAt=    10 MxSgA2=    10.
 Leave Link  302 at Wed Aug 26 13:56:25 2020, MaxMem=  2097152000 cpu:         3.1
 (Enter /opt/cluster/programs/g09/g09_d.01/g09/l303.exe)
 DipDrv:  MaxL=1.
 Leave Link  303 at Wed Aug 26 13:56:25 2020, MaxMem=  2097152000 cpu:         0.3
 (Enter /opt/cluster/programs/g09/g09_d.01/g09/l401.exe)
 ExpMin= 7.60D-02 ExpMax= 6.70D+04 ExpMxC= 6.47D+02 IAcc=2 IRadAn=         4 AccDes= 0.00D+00
 Harris functional with IExCor=  419 and IRadAn=       4 diagonalized for initial guess.
 HarFok:  IExCor=  419 AccDes= 0.00D+00 IRadAn=         4 IDoV= 1 UseB2=F ITyADJ=14
 ICtDFT=  3500011 ScaDFX=  1.000000  1.000000  1.000000  1.000000
 FoFCou: FMM=F IPFlag=           0 FMFlag=      100000 FMFlg1=           0
         NFxFlg=           0 DoJE=T BraDBF=F KetDBF=T FulRan=T
         wScrn=  0.000000 ICntrl=     500 IOpCl=  0 I1Cent=   200000004 NGrid=           0
         NMat0=    1 NMatS0=      1 NMatT0=    0 NMatD0=    1 NMtDS0=    0 NMtDT0=    0
 Petite list used in FoFCou.
 Harris En= -156.092672581989    
 JPrj=0 DoOrth=F DoCkMO=F.
 Leave Link  401 at Wed Aug 26 13:56:26 2020, MaxMem=  2097152000 cpu:         8.2
 (Enter /opt/cluster/programs/g09/g09_d.01/g09/l502.exe)
 Closed shell SCF:
 Using DIIS extrapolation, IDIIS=  1040.
 Integral symmetry usage will be decided dynamically.
 IVT=      770090 IEndB=      770090 NGot=  2097152000 MDV=  2096647053
 LenX=  2096647053 LenY=  2096398551
 Requested convergence on RMS density matrix=1.00D-08 within 128 cycles.
 Requested convergence on MAX density matrix=1.00D-06.
 Requested convergence on             energy=1.00D-06.
 No special actions if energy rises.
 Fock matrices will be formed incrementally for  20 cycles.
 Integral accuracy reduced to 1.0D-05 until final iterations.

 Cycle   1  Pass 0  IDiag  1:
 FoFJK:  IHMeth= 1 ICntrl=       0 DoSepK=F KAlg= 0 I1Cent=   0 FoldK=F
 IRaf= 940000000 NMat=   1 IRICut=       1 DoRegI=T DoRafI=F ISym2E= 0.
 FoFCou: FMM=F IPFlag=           0 FMFlag=      100000 FMFlg1=           0
         NFxFlg=           0 DoJE=F BraDBF=F KetDBF=F FulRan=T
         wScrn=  0.000000 ICntrl=       0 IOpCl=  0 I1Cent=           0 NGrid=           0
         NMat0=    1 NMatS0=      1 NMatT0=    0 NMatD0=    1 NMtDS0=    0 NMtDT0=    0
 Symmetry not used in FoFCou.
 E= -155.506520421407    
 DIIS: error= 3.15D-02 at cycle   1 NSaved=   1.
 NSaved= 1 IEnMin= 1 EnMin= -155.506520421407     IErMin= 1 ErrMin= 3.15D-02
 ErrMax= 3.15D-02  0.00D+00 EMaxC= 1.00D-01 BMatC= 2.29D-01 BMatP= 2.29D-01
 IDIUse=3 WtCom= 6.85D-01 WtEn= 3.15D-01
 Coeff-Com:  0.100D+01
 Coeff-En:   0.100D+01
 Coeff:      0.100D+01
 Gap=     0.283 Goal=   None    Shift=    0.000
 GapD=    0.283 DampG=1.000 DampE=0.500 DampFc=0.5000 IDamp=-1.
 Damping current iteration by 5.00D-01
 RMSDP=9.80D-04 MaxDP=4.98D-02              OVMax= 1.86D-01

 Cycle   2  Pass 0  IDiag  1:
 RMSU=  4.57D-04    CP:  9.53D-01
 E= -155.594436451243     Delta-E=       -0.087916029836 Rises=F Damp=T
 DIIS: error= 1.02D-02 at cycle   2 NSaved=   2.
 NSaved= 2 IEnMin= 2 EnMin= -155.594436451243     IErMin= 2 ErrMin= 1.02D-02
 ErrMax= 1.02D-02  0.00D+00 EMaxC= 1.00D-01 BMatC= 2.86D-02 BMatP= 2.29D-01
 IDIUse=3 WtCom= 8.98D-01 WtEn= 1.02D-01
 Coeff-Com: -0.296D+00 0.130D+01
 Coeff-En:   0.000D+00 0.100D+01
 Coeff:     -0.266D+00 0.127D+01
 Gap=     0.340 Goal=   None    Shift=    0.000
 RMSDP=3.37D-04 MaxDP=9.65D-03 DE=-8.79D-02 OVMax= 9.65D-02

 Cycle   3  Pass 0  IDiag  1:
 RMSU=  3.25D-04    CP:  9.37D-01  8.59D-01
 E= -155.671001918075     Delta-E=       -0.076565466832 Rises=F Damp=F
 DIIS: error= 4.76D-03 at cycle   3 NSaved=   3.
 NSaved= 3 IEnMin= 3 EnMin= -155.671001918075     IErMin= 3 ErrMin= 4.76D-03
 ErrMax= 4.76D-03  0.00D+00 EMaxC= 1.00D-01 BMatC= 2.80D-03 BMatP= 2.86D-02
 IDIUse=3 WtCom= 9.52D-01 WtEn= 4.76D-02
 Coeff-Com: -0.137D+00 0.292D+00 0.845D+00
 Coeff-En:   0.000D+00 0.000D+00 0.100D+01
 Coeff:     -0.130D+00 0.278D+00 0.853D+00
 Gap=     0.279 Goal=   None    Shift=    0.000
 RMSDP=8.93D-05 MaxDP=5.25D-03 DE=-7.66D-02 OVMax= 3.05D-02

 Cycle   4  Pass 0  IDiag  1:
 RMSU=  6.57D-05    CP:  9.32D-01  9.77D-01  9.30D-01
 E= -155.673091063603     Delta-E=       -0.002089145529 Rises=F Damp=F
 DIIS: error= 2.97D-03 at cycle   4 NSaved=   4.
 NSaved= 4 IEnMin= 4 EnMin= -155.673091063603     IErMin= 4 ErrMin= 2.97D-03
 ErrMax= 2.97D-03  0.00D+00 EMaxC= 1.00D-01 BMatC= 9.91D-04 BMatP= 2.80D-03
 IDIUse=3 WtCom= 9.70D-01 WtEn= 2.97D-02
 Coeff-Com: -0.619D-01 0.104D+00 0.470D+00 0.488D+00
 Coeff-En:   0.000D+00 0.000D+00 0.183D+00 0.817D+00
 Coeff:     -0.600D-01 0.101D+00 0.461D+00 0.498D+00
 Gap=     0.279 Goal=   None    Shift=    0.000
 RMSDP=3.94D-05 MaxDP=1.76D-03 DE=-2.09D-03 OVMax= 1.09D-02

 Cycle   5  Pass 0  IDiag  1:
 RMSU=  1.91D-05    CP:  9.32D-01  9.58D-01  9.89D-01  5.86D-01
 E= -155.674050465926     Delta-E=       -0.000959402322 Rises=F Damp=F
 DIIS: error= 2.21D-04 at cycle   5 NSaved=   5.
 NSaved= 5 IEnMin= 5 EnMin= -155.674050465926     IErMin= 5 ErrMin= 2.21D-04
 ErrMax= 2.21D-04  0.00D+00 EMaxC= 1.00D-01 BMatC= 3.90D-06 BMatP= 9.91D-04
 IDIUse=3 WtCom= 9.98D-01 WtEn= 2.21D-03
 Coeff-Com: -0.314D-02 0.290D-02 0.337D-01 0.759D-01 0.891D+00
 Coeff-En:   0.000D+00 0.000D+00 0.000D+00 0.000D+00 0.100D+01
 Coeff:     -0.313D-02 0.289D-02 0.336D-01 0.757D-01 0.891D+00
 Gap=     0.279 Goal=   None    Shift=    0.000
 RMSDP=6.77D-06 MaxDP=2.23D-04 DE=-9.59D-04 OVMax= 1.34D-03

 Initial convergence to 1.0D-05 achieved.  Increase integral accuracy.
 Cycle   6  Pass 1  IDiag  1:
 E= -155.674044029358     Delta-E=        0.000006436567 Rises=F Damp=F
 DIIS: error= 4.47D-05 at cycle   1 NSaved=   1.
 NSaved= 1 IEnMin= 1 EnMin= -155.674044029358     IErMin= 1 ErrMin= 4.47D-05
 ErrMax= 4.47D-05  0.00D+00 EMaxC= 1.00D-01 BMatC= 4.80D-07 BMatP= 4.80D-07
 IDIUse=1 WtCom= 1.00D+00 WtEn= 0.00D+00
 Coeff-Com:  0.100D+01
 Coeff:      0.100D+01
 Gap=     0.279 Goal=   None    Shift=    0.000
 RMSDP=6.77D-06 MaxDP=2.23D-04 DE= 6.44D-06 OVMax= 3.36D-04

 Cycle   7  Pass 1  IDiag  1:
 RMSU=  1.65D-05    CP:  1.00D+00
 E= -155.674044448865     Delta-E=       -0.000000419507 Rises=F Damp=F
 DIIS: error= 2.72D-05 at cycle   2 NSaved=   2.
 NSaved= 2 IEnMin= 2 EnMin= -155.674044448865     IErMin= 2 ErrMin= 2.72D-05
 ErrMax= 2.72D-05  0.00D+00 EMaxC= 1.00D-01 BMatC= 6.22D-08 BMatP= 4.80D-07
 IDIUse=1 WtCom= 1.00D+00 WtEn= 0.00D+00
 Coeff-Com:  0.167D+00 0.833D+00
 Coeff:      0.167D+00 0.833D+00
 Gap=     0.280 Goal=   None    Shift=    0.000
 RMSDP=8.30D-07 MaxDP=2.64D-05 DE=-4.20D-07 OVMax= 2.18D-04

 Cycle   8  Pass 1  IDiag  1:
 RMSU=  6.39D-07    CP:  1.00D+00  1.03D+00
 E= -155.674044496765     Delta-E=       -0.000000047899 Rises=F Damp=F
 DIIS: error= 1.15D-05 at cycle   3 NSaved=   3.
 NSaved= 3 IEnMin= 3 EnMin= -155.674044496765     IErMin= 3 ErrMin= 1.15D-05
 ErrMax= 1.15D-05  0.00D+00 EMaxC= 1.00D-01 BMatC= 3.63D-08 BMatP= 6.22D-08
 IDIUse=1 WtCom= 1.00D+00 WtEn= 0.00D+00
 Coeff-Com: -0.207D-01 0.424D+00 0.597D+00
 Coeff:     -0.207D-01 0.424D+00 0.597D+00
 Gap=     0.280 Goal=   None    Shift=    0.000
 RMSDP=4.10D-07 MaxDP=1.87D-05 DE=-4.79D-08 OVMax= 8.15D-05

 Cycle   9  Pass 1  IDiag  1:
 RMSU=  3.57D-07    CP:  1.00D+00  1.04D+00  1.06D+00
 E= -155.674044533047     Delta-E=       -0.000000036283 Rises=F Damp=F
 DIIS: error= 5.64D-06 at cycle   4 NSaved=   4.
 NSaved= 4 IEnMin= 4 EnMin= -155.674044533047     IErMin= 4 ErrMin= 5.64D-06
 ErrMax= 5.64D-06  0.00D+00 EMaxC= 1.00D-01 BMatC= 1.03D-09 BMatP= 3.63D-08
 IDIUse=1 WtCom= 1.00D+00 WtEn= 0.00D+00
 Coeff-Com: -0.183D-01 0.723D-01 0.158D+00 0.788D+00
 Coeff:     -0.183D-01 0.723D-01 0.158D+00 0.788D+00
 Gap=     0.280 Goal=   None    Shift=    0.000
 RMSDP=1.00D-07 MaxDP=4.11D-06 DE=-3.63D-08 OVMax= 3.17D-05

 Cycle  10  Pass 1  IDiag  1:
 RMSU=  6.30D-08    CP:  1.00D+00  1.05D+00  1.14D+00  1.13D+00
 E= -155.674044534694     Delta-E=       -0.000000001647 Rises=F Damp=F
 DIIS: error= 8.73D-07 at cycle   5 NSaved=   5.
 NSaved= 5 IEnMin= 5 EnMin= -155.674044534694     IErMin= 5 ErrMin= 8.73D-07
 ErrMax= 8.73D-07  0.00D+00 EMaxC= 1.00D-01 BMatC= 2.50D-10 BMatP= 1.03D-09
 IDIUse=1 WtCom= 1.00D+00 WtEn= 0.00D+00
 Coeff-Com: -0.202D-02-0.460D-01-0.658D-01 0.262D+00 0.852D+00
 Coeff:     -0.202D-02-0.460D-01-0.658D-01 0.262D+00 0.852D+00
 Gap=     0.280 Goal=   None    Shift=    0.000
 RMSDP=5.05D-08 MaxDP=2.74D-06 DE=-1.65D-09 OVMax= 9.03D-06

 Cycle  11  Pass 1  IDiag  1:
 RMSU=  2.47D-08    CP:  1.00D+00  1.05D+00  1.18D+00  1.24D+00  9.93D-01
 E= -155.674044535056     Delta-E=       -0.000000000362 Rises=F Damp=F
 DIIS: error= 2.20D-07 at cycle   6 NSaved=   6.
 NSaved= 6 IEnMin= 6 EnMin= -155.674044535056     IErMin= 6 ErrMin= 2.20D-07
 ErrMax= 2.20D-07  0.00D+00 EMaxC= 1.00D-01 BMatC= 1.45D-11 BMatP= 2.50D-10
 IDIUse=1 WtCom= 1.00D+00 WtEn= 0.00D+00
 Coeff-Com:  0.989D-03-0.218D-01-0.398D-01 0.237D-01 0.276D+00 0.760D+00
 Coeff:      0.989D-03-0.218D-01-0.398D-01 0.237D-01 0.276D+00 0.760D+00
 Gap=     0.280 Goal=   None    Shift=    0.000
 RMSDP=8.54D-09 MaxDP=5.21D-07 DE=-3.62D-10 OVMax= 2.28D-06

 SCF Done:  E(RB2PLYPD3) =  -155.674044535     A.U. after   11 cycles
            NFock= 11  Conv=0.85D-08     -V/T= 2.0063
 KE= 1.547050078406D+02 PE=-5.655682131616D+02 EE= 1.526686949065D+02
 Leave Link  502 at Wed Aug 26 13:59:02 2020, MaxMem=  2097152000 cpu:      1247.1
 (Enter /opt/cluster/programs/g09/g09_d.01/g09/l801.exe)
 DoSCS=T DFT=T ScalE2(SS,OS)=  0.270000  0.270000
 ExpMin= 7.60D-02 ExpMax= 6.70D+04 ExpMxC= 6.47D+02 IAcc=3 IRadAn=         5 AccDes= 0.00D+00
 HarFok:  IExCor=  205 AccDes= 0.00D+00 IRadAn=         5 IDoV=-2 UseB2=F ITyADJ=14
 ICtDFT= 12500011 ScaDFX=  1.000000  1.000000  1.000000  1.000000
 Largest valence mixing into a core orbital is  1.14D-04
 Largest core mixing into a valence orbital is  2.07D-05
 Range of M.O.s used for correlation:     5   408
 NBasis=   408 NAE=    15 NBE=    15 NFC=     4 NFV=     0
 NROrb=    404 NOA=    11 NOB=    11 NVA=   393 NVB=   393

 **** Warning!!: The largest alpha MO coefficient is  0.25601034D+02

 Leave Link  801 at Wed Aug 26 13:59:02 2020, MaxMem=  2097152000 cpu:         0.9
 (Enter /opt/cluster/programs/g09/g09_d.01/g09/l906.exe)
 DoSCS=T DFT=T ScalE2(SS,OS)=  0.270000  0.270000
 FulOut=F Deriv=F AODrv=F NAtomX=    10
   MMem=         881  MDisk=          11 MDiskD=          11
  W3Min=     2152854 MinDsk=     3857222 NBas6D=         498
 NBas2D=      125763    NTT=      124251    LW2=     4508827
    MDV=  2096383344 MDiskM=        9345 NBas2p=      117437
 Fully direct method using O(OVN) memory.
 IMap=   1   2   3   4   5   6   7   8   9  10  11
 JobTyp=1 Pass  1:  I=   1 to  11 NPSUse=  8 ParTrn=T ParDer=T DoDerP=F.
 Spin components of T(2) and E(2):
     alpha-alpha T2 =       0.4425714312D-01 E2=     -0.2583911799D-01
     alpha-beta  T2 =       0.2893018553D+00 E2=     -0.1777350778D+00
     beta-beta   T2 =       0.4425714312D-01 E2=     -0.2583911799D-01
 The integrals were generated   1 times.
 E2(B2PLYPD3) =    -0.2294133137D+00 E(B2PLYPD3) =    -0.15590345784879D+03
 Leave Link  906 at Wed Aug 26 14:00:32 2020, MaxMem=  2097152000 cpu:       711.5
 (Enter /opt/cluster/programs/g09/g09_d.01/g09/l601.exe)
 Copying SCF densities to generalized density rwf, IOpCl= 0 IROHF=0.

 **********************************************************************

            Population analysis using the SCF density.

 **********************************************************************

 Orbital symmetries:
       Occupied  (A) (A) (A) (A) (A) (A) (A) (A) (A) (A) (A) (A)
                 (A) (A) (A)
       Virtual   (A) (A) (A) (A) (A) (A) (A) (A) (A) (A) (A) (A)
                 (A) (A) (A) (A) (A) (A) (A) (A) (A) (A) (A) (A)
                 (A) (A) (A) (A) (A) (A) (A) (A) (A) (A) (A) (A)
                 (A) (A) (A) (A) (A) (A) (A) (A) (A) (A) (A) (A)
                 (A) (A) (A) (A) (A) (A) (A) (A) (A) (A) (A) (A)
                 (A) (A) (A) (A) (A) (A) (A) (A) (A) (A) (A) (A)
                 (A) (A) (A) (A) (A) (A) (A) (A) (A) (A) (A) (A)
                 (A) (A) (A) (A) (A) (A) (A) (A) (A) (A) (A) (A)
                 (A) (A) (A) (A) (A) (A) (A) (A) (A) (A) (A) (A)
                 (A) (A) (A) (A) (A) (A) (A) (A) (A) (A) (A) (A)
                 (A) (A) (A) (A) (A) (A) (A) (A) (A) (A) (A) (A)
                 (A) (A) (A) (A) (A) (A) (A) (A) (A) (A) (A) (A)
                 (A) (A) (A) (A) (A) (A) (A) (A) (A) (A) (A) (A)
                 (A) (A) (A) (A) (A) (A) (A) (A) (A) (A) (A) (A)
                 (A) (A) (A) (A) (A) (A) (A) (A) (A) (A) (A) (A)
                 (A) (A) (A) (A) (A) (A) (A) (A) (A) (A) (A) (A)
                 (A) (A) (A) (A) (A) (A) (A) (A) (A) (A) (A) (A)
                 (A) (A) (A) (A) (A) (A) (A) (A) (A) (A) (A) (A)
                 (A) (A) (A) (A) (A) (A) (A) (A) (A) (A) (A) (A)
                 (A) (A) (A) (A) (A) (A) (A) (A) (A) (A) (A) (A)
                 (A) (A) (A) (A) (A) (A) (A) (A) (A) (A) (A) (A)
                 (A) (A) (A) (A) (A) (A) (A) (A) (A) (A) (A) (A)
                 (A) (A) (A) (A) (A) (A) (A) (A) (A) (A) (A) (A)
                 (A) (A) (A) (A) (A) (A) (A) (A) (A) (A) (A) (A)
                 (A) (A) (A) (A) (A) (A) (A) (A) (A) (A) (A) (A)
                 (A) (A) (A) (A) (A) (A) (A) (A) (A) (A) (A) (A)
                 (A) (A) (A) (A) (A) (A) (A) (A) (A) (A) (A) (A)
                 (A) (A) (A) (A) (A) (A) (A) (A) (A) (A) (A) (A)
                 (A) (A) (A) (A) (A) (A) (A) (A) (A) (A) (A) (A)
                 (A) (A) (A) (A) (A) (A) (A) (A) (A) (A) (A) (A)
                 (A) (A) (A) (A) (A) (A) (A) (A) (A) (A) (A) (A)
                 (A) (A) (A) (A) (A) (A) (A) (A) (A) (A) (A) (A)
                 (A) (A) (A) (A) (A) (A) (A) (A) (A)
 The electronic state is 1-A.
 Alpha  occ. eigenvalues --  -10.63419 -10.63313 -10.63223 -10.63023  -0.92592
 Alpha  occ. eigenvalues --   -0.83590  -0.69825  -0.63968  -0.54289  -0.51988
 Alpha  occ. eigenvalues --   -0.46555  -0.44667  -0.40914  -0.37632  -0.27231
 Alpha virt. eigenvalues --    0.00722   0.06839   0.07118   0.08029   0.08589
 Alpha virt. eigenvalues --    0.11686   0.12343   0.14176   0.15329   0.15865
 Alpha virt. eigenvalues --    0.18502   0.19373   0.21382   0.22699   0.24426
 Alpha virt. eigenvalues --    0.24950   0.26329   0.29721   0.30918   0.32609
 Alpha virt. eigenvalues --    0.33916   0.35798   0.37135   0.38267   0.38338
 Alpha virt. eigenvalues --    0.40057   0.41540   0.43673   0.44889   0.46992
 Alpha virt. eigenvalues --    0.48266   0.50871   0.52386   0.54517   0.56983
 Alpha virt. eigenvalues --    0.57740   0.63201   0.63676   0.65019   0.68514
 Alpha virt. eigenvalues --    0.69474   0.70292   0.75076   0.76532   0.76971
 Alpha virt. eigenvalues --    0.79605   0.80197   0.81812   0.83154   0.83698
 Alpha virt. eigenvalues --    0.84805   0.85876   0.86887   0.87835   0.89966
 Alpha virt. eigenvalues --    0.92251   0.92390   0.93065   0.94799   0.96272
 Alpha virt. eigenvalues --    0.97408   0.98719   1.00979   1.01477   1.04369
 Alpha virt. eigenvalues --    1.05364   1.06418   1.08317   1.09172   1.10733
 Alpha virt. eigenvalues --    1.12941   1.15151   1.19061   1.20997   1.23859
 Alpha virt. eigenvalues --    1.24772   1.28059   1.30443   1.32862   1.33933
 Alpha virt. eigenvalues --    1.37379   1.40370   1.43801   1.48365   1.55947
 Alpha virt. eigenvalues --    1.60523   1.62491   1.64331   1.70779   1.77527
 Alpha virt. eigenvalues --    1.79028   1.80223   1.82801   1.84578   1.90207
 Alpha virt. eigenvalues --    1.91559   1.91869   1.93270   1.93792   1.95650
 Alpha virt. eigenvalues --    1.97514   1.98176   1.99170   2.00603   2.01129
 Alpha virt. eigenvalues --    2.03867   2.04969   2.06274   2.07677   2.10765
 Alpha virt. eigenvalues --    2.12408   2.13496   2.14192   2.15827   2.17232
 Alpha virt. eigenvalues --    2.17763   2.21431   2.22705   2.23375   2.26079
 Alpha virt. eigenvalues --    2.27788   2.29405   2.29976   2.38550   2.39892
 Alpha virt. eigenvalues --    2.42422   2.43170   2.44872   2.46021   2.50249
 Alpha virt. eigenvalues --    2.50785   2.51752   2.53190   2.56925   2.57384
 Alpha virt. eigenvalues --    2.59420   2.60276   2.61110   2.63186   2.65054
 Alpha virt. eigenvalues --    2.66166   2.67598   2.68377   2.70579   2.71858
 Alpha virt. eigenvalues --    2.72849   2.73771   2.74668   2.78696   2.80106
 Alpha virt. eigenvalues --    2.81028   2.84600   2.85335   2.88033   2.88956
 Alpha virt. eigenvalues --    2.89678   2.97184   3.02321   3.03339   3.07055
 Alpha virt. eigenvalues --    3.09983   3.13835   3.17325   3.24941   3.26785
 Alpha virt. eigenvalues --    3.30587   3.31638   3.35442   3.38061   3.40917
 Alpha virt. eigenvalues --    3.42938   3.46159   3.48691   3.51568   3.52630
 Alpha virt. eigenvalues --    3.54057   3.55725   3.59851   3.65674   3.68440
 Alpha virt. eigenvalues --    3.73545   3.75191   3.77842   3.79677   3.84415
 Alpha virt. eigenvalues --    3.90594   3.95745   3.98299   4.01217   4.05471
 Alpha virt. eigenvalues --    4.12350   4.15680   4.17597   4.24617   4.34906
 Alpha virt. eigenvalues --    4.40816   4.46591   4.59497   4.77465   4.94908
 Alpha virt. eigenvalues --    4.96400   5.00452   5.05746   5.08066   5.13008
 Alpha virt. eigenvalues --    5.15015   5.16272   5.20186   5.26794   5.29113
 Alpha virt. eigenvalues --    5.32540   5.35550   5.37208   5.43013   5.43882
 Alpha virt. eigenvalues --    5.53174   5.55607   5.58630   5.60730   5.63211
 Alpha virt. eigenvalues --    5.65654   5.68811   5.71592   5.74266   5.76170
 Alpha virt. eigenvalues --    5.76995   5.78539   5.81578   5.81940   5.84734
 Alpha virt. eigenvalues --    5.88403   5.90204   5.91457   5.92837   5.97058
 Alpha virt. eigenvalues --    5.98970   6.03776   6.04409   6.06491   6.09266
 Alpha virt. eigenvalues --    6.11124   6.12349   6.15109   6.16536   6.19541
 Alpha virt. eigenvalues --    6.19559   6.20591   6.22171   6.25648   6.26241
 Alpha virt. eigenvalues --    6.27700   6.30788   6.32367   6.33601   6.35141
 Alpha virt. eigenvalues --    6.37228   6.37823   6.38954   6.41677   6.43625
 Alpha virt. eigenvalues --    6.45379   6.47169   6.49381   6.50647   6.52820
 Alpha virt. eigenvalues --    6.58414   6.59010   6.63195   6.67523   6.67948
 Alpha virt. eigenvalues --    6.72701   6.75078   6.78484   6.83329   6.85446
 Alpha virt. eigenvalues --    6.87844   6.89707   6.92861   6.96025   6.97691
 Alpha virt. eigenvalues --    7.03787   7.08620   7.10706   7.12664   7.19734
 Alpha virt. eigenvalues --    7.22091   7.22546   7.25569   7.30191   7.31385
 Alpha virt. eigenvalues --    7.36078   7.42974   7.46873   7.50017   7.52303
 Alpha virt. eigenvalues --    7.56509   7.58255   7.60242   7.62368   7.64892
 Alpha virt. eigenvalues --    7.67032   7.69030   7.70911   7.72738   7.74148
 Alpha virt. eigenvalues --    7.77887   7.79955   7.83386   7.84335   7.85996
 Alpha virt. eigenvalues --    7.90343   7.94662   7.96998   8.01103   8.04480
 Alpha virt. eigenvalues --    8.07418   8.08569   8.10473   8.14208   8.15032
 Alpha virt. eigenvalues --    8.17446   8.21341   8.23127   8.27589   8.30824
 Alpha virt. eigenvalues --    8.32626   8.33949   8.34787   8.36830   8.38668
 Alpha virt. eigenvalues --    8.40152   8.42145   8.43695   8.46981   8.48057
 Alpha virt. eigenvalues --    8.53364   8.54943   8.59529   8.60980   8.62871
 Alpha virt. eigenvalues --    8.63908   8.70760   8.70844   8.73080   8.76161
 Alpha virt. eigenvalues --    8.82475   8.83426   8.87194   8.96369   9.02272
 Alpha virt. eigenvalues --    9.09438   9.12691   9.15100   9.23339   9.25639
 Alpha virt. eigenvalues --    9.28707   9.50704   9.57569   9.58911   9.62663
 Alpha virt. eigenvalues --    9.64084   9.67881   9.79738   9.79861   9.89416
 Alpha virt. eigenvalues --    9.90309   9.97822  10.01593  10.06821  10.18622
 Alpha virt. eigenvalues --   10.28800  10.46818  10.50674  10.55202  10.58519
 Alpha virt. eigenvalues --   10.61000  10.78007  10.99986  11.52779  11.91493
 Alpha virt. eigenvalues --   11.97662  12.62193  12.73418  12.78363  13.07522
 Alpha virt. eigenvalues --   28.58038  28.74075  29.23909  29.47094 148.16060
 Alpha virt. eigenvalues --  148.32821 148.80394 149.05755
          Condensed to atoms (all electrons):
               1          2          3          4          5          6
     1  C    4.875741   0.601746  -0.074407  -0.003296   0.414144   0.413538
     2  C    0.601746   4.847764   0.410708  -0.083548  -0.035602  -0.047613
     3  C   -0.074407   0.410708   4.835004   0.615646   0.006002  -0.007147
     4  C   -0.003296  -0.083548   0.615646   4.844220  -0.000477   0.000182
     5  H    0.414144  -0.035602   0.006002  -0.000477   0.581044  -0.042188
     6  H    0.413538  -0.047613  -0.007147   0.000182  -0.042188   0.611367
     7  H   -0.046722   0.395733  -0.055862  -0.005981  -0.009023   0.008331
     8  H   -0.000563  -0.067031   0.407574  -0.042082  -0.000215   0.005226
     9  H    0.000644  -0.012224  -0.047426   0.422207  -0.000056   0.000023
    10  H   -0.000537   0.007316  -0.042949   0.415437   0.000023  -0.000008
               7          8          9         10
     1  C   -0.046722  -0.000563   0.000644  -0.000537
     2  C    0.395733  -0.067031  -0.012224   0.007316
     3  C   -0.055862   0.407574  -0.047426  -0.042949
     4  C   -0.005981  -0.042082   0.422207   0.415437
     5  H   -0.009023  -0.000215  -0.000056   0.000023
     6  H    0.008331   0.005226   0.000023  -0.000008
     7  H    0.651802   0.008497   0.005348   0.000058
     8  H    0.008497   0.627447   0.006580  -0.005408
     9  H    0.005348   0.006580   0.602084  -0.039123
    10  H    0.000058  -0.005408  -0.039123   0.572579
 Mulliken charges:
               1
     1  C   -0.180288
     2  C   -0.017248
     3  C   -0.047142
     4  C   -0.162308
     5  H    0.086349
     6  H    0.058288
     7  H    0.047819
     8  H    0.059975
     9  H    0.061943
    10  H    0.092613
 Sum of Mulliken charges =   0.00000
 Mulliken charges with hydrogens summed into heavy atoms:
               1
     1  C   -0.035652
     2  C    0.030572
     3  C    0.012833
     4  C   -0.007752
 Electronic spatial extent (au):  <R**2>=            339.7121
 Charge=              0.0000 electrons
 Dipole moment (field-independent basis, Debye):
    X=              0.0159    Y=             -0.1169    Z=             -0.1762  Tot=              0.2121
 Quadrupole moment (field-independent basis, Debye-Ang):
   XX=            -23.7156   YY=            -23.4041   ZZ=            -29.6669
   XY=              0.0018   XZ=             -0.6435   YZ=             -0.1100
 Traceless Quadrupole moment (field-independent basis, Debye-Ang):
   XX=              1.8799   YY=              2.1914   ZZ=             -4.0713
   XY=              0.0018   XZ=             -0.6435   YZ=             -0.1100
 Octapole moment (field-independent basis, Debye-Ang**2):
  XXX=             -0.5448  YYY=             -0.4514  ZZZ=             -0.2187  XYY=              0.4550
  XXY=             -0.2549  XXZ=             -1.6141  XZZ=             -0.0655  YZZ=             -0.2433
  YYZ=             -0.4345  XYZ=             -0.5837
 Hexadecapole moment (field-independent basis, Debye-Ang**3):
 XXXX=           -349.3126 YYYY=            -68.4175 ZZZZ=            -39.1690 XXXY=             11.1327
 XXXZ=             -4.6913 YYYX=             -2.5845 YYYZ=             -0.3096 ZZZX=             -1.1421
 ZZZY=             -0.1253 XXYY=            -70.7108 XXZZ=            -79.5644 YYZZ=            -20.1145
 XXYZ=             -0.1687 YYXZ=             -0.9676 ZZXY=             -0.2201
 N-N= 1.025204658795D+02 E-N=-5.655682083720D+02  KE= 1.547050078406D+02
 Leave Link  601 at Wed Aug 26 14:00:32 2020, MaxMem=  2097152000 cpu:         0.7
 (Enter /opt/cluster/programs/g09/g09_d.01/g09/l9999.exe)
 1\1\GINC-NODE32\SP\RB2PLYPD3-FC\def2QZVP\C4H6\BOITTIER\26-Aug-2020\0\\
 #p B2PLYPD3/Def2QZVP\\butadiene\\0,1\C,0,-3.872439,0.195065,-0.051632\
 C,0,-2.690661,-0.467028,0.152384\C,0,-1.358335,0.123487,0.081042\C,0,-
 0.261807,-0.686799,-0.05253\H,0,-4.878272,-0.3493,-0.191454\H,0,-3.867
 662,1.316156,-0.07387\H,0,-2.715173,-1.570687,-0.034842\H,0,-1.441954,
 1.153919,0.032946\H,0,-0.500771,-1.816892,0.081895\H,0,0.755004,-0.300
 551,-0.044798\\Version=ES64L-G09RevD.01\State=1-A\HF=-155.6740445\MP2=
 -155.9034578\RMSD=8.535e-09\PG=C01 [X(C4H6)]\\@


 The arm of the moral universe is long, but it bends toward justice.
 -- Martin Luther King, Jr.
 Job cpu time:       0 days  0 hours 32 minutes 53.9 seconds.
 File lengths (MBytes):  RWF=     92 Int=      0 D2E=      0 Chk=      9 Scr=      1
 Normal termination of Gaussian 09 at Wed Aug 26 14:00:32 2020.
