 Entering Gaussian System, Link 0=/opt/cluster/programs/g09/g09_d.01/g09//g09
 Input=/home/boittier/MDCM/nms_sampling/butadiene_geom.xyz.dir/energies/butadiene_1029_energy.com
 Output=/scratch/boittier/butadiene_1029_energy/butadiene_1029_energy.out
 Initial command:
 /opt/cluster/programs/g09/g09_d.01/g09/l1.exe "/scratch/boittier/butadiene_1029_energy/Gau-204763.inp" -scrdir="/scratch/boittier/butadiene_1029_energy/"
 Entering Link 1 = /opt/cluster/programs/g09/g09_d.01/g09/l1.exe PID=    204764.
  
 Copyright (c) 1988,1990,1992,1993,1995,1998,2003,2009,2013,
            Gaussian, Inc.  All Rights Reserved.
  
 This is part of the Gaussian(R) 09 program.  It is based on
 the Gaussian(R) 03 system (copyright 2003, Gaussian, Inc.),
 the Gaussian(R) 98 system (copyright 1998, Gaussian, Inc.),
 the Gaussian(R) 94 system (copyright 1995, Gaussian, Inc.),
 the Gaussian 92(TM) system (copyright 1992, Gaussian, Inc.),
 the Gaussian 90(TM) system (copyright 1990, Gaussian, Inc.),
 the Gaussian 88(TM) system (copyright 1988, Gaussian, Inc.),
 the Gaussian 86(TM) system (copyright 1986, Carnegie Mellon
 University), and the Gaussian 82(TM) system (copyright 1983,
 Carnegie Mellon University). Gaussian is a federally registered
 trademark of Gaussian, Inc.
  
 This software contains proprietary and confidential information,
 including trade secrets, belonging to Gaussian, Inc.
  
 This software is provided under written license and may be
 used, copied, transmitted, or stored only in accord with that
 written license.
  
 The following legend is applicable only to US Government
 contracts under FAR:
  
                    RESTRICTED RIGHTS LEGEND
  
 Use, reproduction and disclosure by the US Government is
 subject to restrictions as set forth in subparagraphs (a)
 and (c) of the Commercial Computer Software - Restricted
 Rights clause in FAR 52.227-19.
  
 Gaussian, Inc.
 340 Quinnipiac St., Bldg. 40, Wallingford CT 06492
  
  
 ---------------------------------------------------------------
 Warning -- This program may not be used in any manner that
 competes with the business of Gaussian, Inc. or will provide
 assistance to any competitor of Gaussian, Inc.  The licensee
 of this program is prohibited from giving any competitor of
 Gaussian, Inc. access to this program.  By using this program,
 the user acknowledges that Gaussian, Inc. is engaged in the
 business of creating and licensing software in the field of
 computational chemistry and represents and warrants to the
 licensee that it is not a competitor of Gaussian, Inc. and that
 it will not use this program in any manner prohibited above.
 ---------------------------------------------------------------
  

 Cite this work as:
 Gaussian 09, Revision D.01,
 M. J. Frisch, G. W. Trucks, H. B. Schlegel, G. E. Scuseria, 
 M. A. Robb, J. R. Cheeseman, G. Scalmani, V. Barone, B. Mennucci, 
 G. A. Petersson, H. Nakatsuji, M. Caricato, X. Li, H. P. Hratchian, 
 A. F. Izmaylov, J. Bloino, G. Zheng, J. L. Sonnenberg, M. Hada, 
 M. Ehara, K. Toyota, R. Fukuda, J. Hasegawa, M. Ishida, T. Nakajima, 
 Y. Honda, O. Kitao, H. Nakai, T. Vreven, J. A. Montgomery, Jr., 
 J. E. Peralta, F. Ogliaro, M. Bearpark, J. J. Heyd, E. Brothers, 
 K. N. Kudin, V. N. Staroverov, T. Keith, R. Kobayashi, J. Normand, 
 K. Raghavachari, A. Rendell, J. C. Burant, S. S. Iyengar, J. Tomasi, 
 M. Cossi, N. Rega, J. M. Millam, M. Klene, J. E. Knox, J. B. Cross, 
 V. Bakken, C. Adamo, J. Jaramillo, R. Gomperts, R. E. Stratmann, 
 O. Yazyev, A. J. Austin, R. Cammi, C. Pomelli, J. W. Ochterski, 
 R. L. Martin, K. Morokuma, V. G. Zakrzewski, G. A. Voth, 
 P. Salvador, J. J. Dannenberg, S. Dapprich, A. D. Daniels, 
 O. Farkas, J. B. Foresman, J. V. Ortiz, J. Cioslowski, 
 and D. J. Fox, Gaussian, Inc., Wallingford CT, 2013.
 
 ******************************************
 Gaussian 09:  ES64L-G09RevD.01 24-Apr-2013
                26-Aug-2020 
 ******************************************
 %chk=/home/boittier/MDCM/nms_sampling/butadiene_geom.xyz.dir/butadiene_1029.chk
 %nproc=8
 Will use up to    8 processors via shared memory.
 %mem=16000MB
 --------------------
 #p B2PLYPD3/Def2QZVP
 --------------------
 1/38=1/1;
 2/12=2,17=6,18=5,40=1/2;
 3/5=45,7=101,11=9,16=1,25=1,30=1,74=-60/1,2,3;
 4//1;
 5/5=2,38=5/2;
 8/10=1/1;
 9/16=-3/6;
 6/7=2,8=2,9=2,10=2/1;
 99/5=1,9=1/99;
 Leave Link    1 at Wed Aug 26 08:35:53 2020, MaxMem=  2097152000 cpu:         0.2
 (Enter /opt/cluster/programs/g09/g09_d.01/g09/l101.exe)
 ---------
 butadiene
 ---------
 Symbolic Z-matrix:
 Charge =  0 Multiplicity = 1
 C                    -3.80944   0.24312   0.04791 
 C                    -2.73349  -0.53283   0.00796 
 C                    -1.40151   0.06602  -0.0287 
 C                    -0.2658   -0.64756   0.04697 
 H                    -4.79906  -0.20857   0.02326 
 H                    -3.71424   1.3448    0.11068 
 H                    -2.80576  -1.6048    0.01111 
 H                    -1.37718   1.11317  -0.06693 
 H                    -0.27177  -1.67735   0.21141 
 H                     0.69205  -0.13715   0.14188 
 
 NAtoms=     10 NQM=       10 NQMF=       0 NMMI=      0 NMMIF=      0
                NMic=       0 NMicF=      0.
                    Isotopes and Nuclear Properties:
 (Nuclear quadrupole moments (NQMom) in fm**2, nuclear magnetic moments (NMagM)
  in nuclear magnetons)

  Atom         1           2           3           4           5           6           7           8           9          10
 IAtWgt=          12          12          12          12           1           1           1           1           1           1
 AtmWgt=  12.0000000  12.0000000  12.0000000  12.0000000   1.0078250   1.0078250   1.0078250   1.0078250   1.0078250   1.0078250
 NucSpn=           0           0           0           0           1           1           1           1           1           1
 AtZEff=   0.0000000   0.0000000   0.0000000   0.0000000   0.0000000   0.0000000   0.0000000   0.0000000   0.0000000   0.0000000
 NQMom=    0.0000000   0.0000000   0.0000000   0.0000000   0.0000000   0.0000000   0.0000000   0.0000000   0.0000000   0.0000000
 NMagM=    0.0000000   0.0000000   0.0000000   0.0000000   2.7928460   2.7928460   2.7928460   2.7928460   2.7928460   2.7928460
 AtZNuc=   6.0000000   6.0000000   6.0000000   6.0000000   1.0000000   1.0000000   1.0000000   1.0000000   1.0000000   1.0000000
 Leave Link  101 at Wed Aug 26 08:35:53 2020, MaxMem=  2097152000 cpu:         0.5
 (Enter /opt/cluster/programs/g09/g09_d.01/g09/l202.exe)
                          Input orientation:                          
 ---------------------------------------------------------------------
 Center     Atomic      Atomic             Coordinates (Angstroms)
 Number     Number       Type             X           Y           Z
 ---------------------------------------------------------------------
      1          6           0       -3.809442    0.243120    0.047911
      2          6           0       -2.733493   -0.532829    0.007963
      3          6           0       -1.401507    0.066016   -0.028695
      4          6           0       -0.265800   -0.647559    0.046972
      5          1           0       -4.799057   -0.208574    0.023257
      6          1           0       -3.714243    1.344796    0.110684
      7          1           0       -2.805755   -1.604796    0.011114
      8          1           0       -1.377176    1.113167   -0.066927
      9          1           0       -0.271770   -1.677351    0.211410
     10          1           0        0.692052   -0.137148    0.141881
 ---------------------------------------------------------------------
                    Distance matrix (angstroms):
                    1          2          3          4          5
     1  C    0.000000
     2  C    1.327162   0.000000
     3  C    2.415654   1.460872   0.000000
     4  C    3.653862   2.470667   1.343408   0.000000
     5  H    1.088105   2.090916   3.409024   4.554524   0.000000
     6  H    1.107562   2.120825   2.646404   3.983127   1.896687
     7  H    2.103220   1.074404   2.182913   2.714583   2.433688
     8  H    2.585747   2.134129   1.048131   2.085254   3.669387
     9  H    4.028655   2.722389   2.091240   1.042855   4.763301
    10  H    4.518504   3.450921   2.110299   1.089499   5.492855
                    6          7          8          9         10
     6  H    0.000000
     7  H    3.087937   0.000000
     8  H    2.355224   3.071523   0.000000
     9  H    4.581936   2.542924   3.014363   0.000000
    10  H    4.648932   3.795490   2.426642   1.818244   0.000000
 Stoichiometry    C4H6
 Framework group  C1[X(C4H6)]
 Deg. of freedom    24
 Full point group                 C1      NOp   1
 Largest Abelian subgroup         C1      NOp   1
 Largest concise Abelian subgroup C1      NOp   1
                         Standard orientation:                         
 ---------------------------------------------------------------------
 Center     Atomic      Atomic             Coordinates (Angstroms)
 Number     Number       Type             X           Y           Z
 ---------------------------------------------------------------------
      1          6           0        1.811576   -0.130653    0.031540
      2          6           0        0.613419    0.437018   -0.027865
      3          6           0       -0.588298   -0.393302   -0.052169
      4          6           0       -1.834594    0.104872    0.005393
      5          1           0        2.703464    0.491724   -0.002437
      6          1           0        1.916559   -1.229679    0.119925
      7          1           0        0.490882    1.504189   -0.049679
      8          1           0       -0.422910   -1.428211   -0.065947
      9          1           0       -2.015593    1.122268    0.145726
     10          1           0       -2.685021   -0.567902    0.111017
 ---------------------------------------------------------------------
 Rotational constants (GHZ):     41.1278526      4.5366128      4.0929967
 Leave Link  202 at Wed Aug 26 08:35:53 2020, MaxMem=  2097152000 cpu:         0.0
 (Enter /opt/cluster/programs/g09/g09_d.01/g09/l301.exe)
 Standard basis: def2QZVP (5D, 7F)
 Ernie: Thresh=  0.10000D-02 Tol=  0.10000D-05 Strict=F.
 There are   498 symmetry adapted cartesian basis functions of A   symmetry.
 There are   408 symmetry adapted basis functions of A   symmetry.
   408 basis functions,   596 primitive gaussians,   498 cartesian basis functions
    15 alpha electrons       15 beta electrons
       nuclear repulsion energy       104.4047686180 Hartrees.
 IExCor=  419 DFT=T Ex+Corr=B2PLYPD3 ExCW=0 ScaHFX=  0.530000
 ScaDFX=  0.470000  0.470000  0.730000  0.730000 ScalE2=  0.270000  0.270000
 IRadAn=      0 IRanWt=     -1 IRanGd=            0 ICorTp=0 IEmpDi=141
 NAtoms=   10 NActive=   10 NUniq=   10 SFac= 1.00D+00 NAtFMM=   60 NAOKFM=F Big=F
 Integral buffers will be    131072 words long.
 Regular integral format.
 Two-electron integral symmetry is turned on.
 R6Disp:  Grimme-D3(BJ) Dispersion energy=       -0.0048633589 Hartrees.
 Nuclear repulsion after empirical dispersion term =      104.3999052591 Hartrees.
 Leave Link  301 at Wed Aug 26 08:35:53 2020, MaxMem=  2097152000 cpu:         0.5
 (Enter /opt/cluster/programs/g09/g09_d.01/g09/l302.exe)
 NPDir=0 NMtPBC=     1 NCelOv=     1 NCel=       1 NClECP=     1 NCelD=      1
         NCelK=      1 NCelE2=     1 NClLst=     1 CellRange=     0.0.
 One-electron integrals computed using PRISM.
   1 Symmetry operations used in ECPInt.
 ECPInt:  NShTT=    8256 NPrTT=   19107 LenC2=    8064 LenP2D=   16146.
 LDataN:  DoStor=T MaxTD1= 8 Len=  415
 NBasis=   408 RedAO= T EigKep=  4.31D-05  NBF=   408
 NBsUse=   408 1.00D-06 EigRej= -1.00D+00 NBFU=   408
 Precomputing XC quadrature grid using
 IXCGrd= 4 IRadAn=           0 IRanWt=          -1 IRanGd=           0 AccXCQ= 0.00D+00.
 Generated NRdTot=       0 NPtTot=           0 NUsed=           0 NTot=          32
 NSgBfM=   498   498   498   498   498 MxSgAt=    10 MxSgA2=    10.
 Leave Link  302 at Wed Aug 26 08:35:53 2020, MaxMem=  2097152000 cpu:         3.2
 (Enter /opt/cluster/programs/g09/g09_d.01/g09/l303.exe)
 DipDrv:  MaxL=1.
 Leave Link  303 at Wed Aug 26 08:35:53 2020, MaxMem=  2097152000 cpu:         0.3
 (Enter /opt/cluster/programs/g09/g09_d.01/g09/l401.exe)
 ExpMin= 7.60D-02 ExpMax= 6.70D+04 ExpMxC= 6.47D+02 IAcc=2 IRadAn=         4 AccDes= 0.00D+00
 Harris functional with IExCor=  419 and IRadAn=       4 diagonalized for initial guess.
 HarFok:  IExCor=  419 AccDes= 0.00D+00 IRadAn=         4 IDoV= 1 UseB2=F ITyADJ=14
 ICtDFT=  3500011 ScaDFX=  1.000000  1.000000  1.000000  1.000000
 FoFCou: FMM=F IPFlag=           0 FMFlag=      100000 FMFlg1=           0
         NFxFlg=           0 DoJE=T BraDBF=F KetDBF=T FulRan=T
         wScrn=  0.000000 ICntrl=     500 IOpCl=  0 I1Cent=   200000004 NGrid=           0
         NMat0=    1 NMatS0=      1 NMatT0=    0 NMatD0=    1 NMtDS0=    0 NMtDT0=    0
 Petite list used in FoFCou.
 Harris En= -156.136368369853    
 JPrj=0 DoOrth=F DoCkMO=F.
 Leave Link  401 at Wed Aug 26 08:35:54 2020, MaxMem=  2097152000 cpu:         8.3
 (Enter /opt/cluster/programs/g09/g09_d.01/g09/l502.exe)
 Closed shell SCF:
 Using DIIS extrapolation, IDIIS=  1040.
 Integral symmetry usage will be decided dynamically.
 IVT=      770090 IEndB=      770090 NGot=  2097152000 MDV=  2096647053
 LenX=  2096647053 LenY=  2096398551
 Requested convergence on RMS density matrix=1.00D-08 within 128 cycles.
 Requested convergence on MAX density matrix=1.00D-06.
 Requested convergence on             energy=1.00D-06.
 No special actions if energy rises.
 Fock matrices will be formed incrementally for  20 cycles.
 Integral accuracy reduced to 1.0D-05 until final iterations.

 Cycle   1  Pass 0  IDiag  1:
 FoFJK:  IHMeth= 1 ICntrl=       0 DoSepK=F KAlg= 0 I1Cent=   0 FoldK=F
 IRaf= 940000000 NMat=   1 IRICut=       1 DoRegI=T DoRafI=F ISym2E= 0.
 FoFCou: FMM=F IPFlag=           0 FMFlag=      100000 FMFlg1=           0
         NFxFlg=           0 DoJE=F BraDBF=F KetDBF=F FulRan=T
         wScrn=  0.000000 ICntrl=       0 IOpCl=  0 I1Cent=           0 NGrid=           0
         NMat0=    1 NMatS0=      1 NMatT0=    0 NMatD0=    1 NMtDS0=    0 NMtDT0=    0
 Symmetry not used in FoFCou.
 E= -155.506861197143    
 DIIS: error= 3.68D-02 at cycle   1 NSaved=   1.
 NSaved= 1 IEnMin= 1 EnMin= -155.506861197143     IErMin= 1 ErrMin= 3.68D-02
 ErrMax= 3.68D-02  0.00D+00 EMaxC= 1.00D-01 BMatC= 2.56D-01 BMatP= 2.56D-01
 IDIUse=3 WtCom= 6.32D-01 WtEn= 3.68D-01
 Coeff-Com:  0.100D+01
 Coeff-En:   0.100D+01
 Coeff:      0.100D+01
 Gap=     0.300 Goal=   None    Shift=    0.000
 GapD=    0.300 DampG=1.000 DampE=0.500 DampFc=0.5000 IDamp=-1.
 Damping current iteration by 5.00D-01
 RMSDP=9.55D-04 MaxDP=5.13D-02              OVMax= 1.96D-01

 Cycle   2  Pass 0  IDiag  1:
 RMSU=  4.39D-04    CP:  9.50D-01
 E= -155.607698678540     Delta-E=       -0.100837481397 Rises=F Damp=T
 DIIS: error= 1.03D-02 at cycle   2 NSaved=   2.
 NSaved= 2 IEnMin= 2 EnMin= -155.607698678540     IErMin= 2 ErrMin= 1.03D-02
 ErrMax= 1.03D-02  0.00D+00 EMaxC= 1.00D-01 BMatC= 3.00D-02 BMatP= 2.56D-01
 IDIUse=3 WtCom= 8.97D-01 WtEn= 1.03D-01
 Coeff-Com: -0.299D+00 0.130D+01
 Coeff-En:   0.000D+00 0.100D+01
 Coeff:     -0.268D+00 0.127D+01
 Gap=     0.356 Goal=   None    Shift=    0.000
 RMSDP=2.69D-04 MaxDP=8.47D-03 DE=-1.01D-01 OVMax= 9.49D-02

 Cycle   3  Pass 0  IDiag  1:
 RMSU=  2.57D-04    CP:  9.33D-01  1.09D+00
 E= -155.694966009329     Delta-E=       -0.087267330789 Rises=F Damp=F
 DIIS: error= 4.36D-03 at cycle   3 NSaved=   3.
 NSaved= 3 IEnMin= 3 EnMin= -155.694966009329     IErMin= 3 ErrMin= 4.36D-03
 ErrMax= 4.36D-03  0.00D+00 EMaxC= 1.00D-01 BMatC= 1.91D-03 BMatP= 3.00D-02
 IDIUse=3 WtCom= 9.56D-01 WtEn= 4.36D-02
 Coeff-Com: -0.113D+00 0.226D+00 0.887D+00
 Coeff-En:   0.000D+00 0.000D+00 0.100D+01
 Coeff:     -0.108D+00 0.216D+00 0.892D+00
 Gap=     0.294 Goal=   None    Shift=    0.000
 RMSDP=6.89D-05 MaxDP=4.11D-03 DE=-8.73D-02 OVMax= 2.28D-02

 Cycle   4  Pass 0  IDiag  1:
 RMSU=  5.00D-05    CP:  9.29D-01  1.19D+00  9.31D-01
 E= -155.696480913921     Delta-E=       -0.001514904592 Rises=F Damp=F
 DIIS: error= 1.94D-03 at cycle   4 NSaved=   4.
 NSaved= 4 IEnMin= 4 EnMin= -155.696480913921     IErMin= 4 ErrMin= 1.94D-03
 ErrMax= 1.94D-03  0.00D+00 EMaxC= 1.00D-01 BMatC= 5.57D-04 BMatP= 1.91D-03
 IDIUse=3 WtCom= 9.81D-01 WtEn= 1.94D-02
 Coeff-Com: -0.508D-01 0.838D-01 0.466D+00 0.501D+00
 Coeff-En:   0.000D+00 0.000D+00 0.101D+00 0.899D+00
 Coeff:     -0.498D-01 0.822D-01 0.459D+00 0.509D+00
 Gap=     0.294 Goal=   None    Shift=    0.000
 RMSDP=2.73D-05 MaxDP=1.35D-03 DE=-1.51D-03 OVMax= 8.58D-03

 Cycle   5  Pass 0  IDiag  1:
 RMSU=  1.54D-05    CP:  9.29D-01  1.18D+00  9.71D-01  6.03D-01
 E= -155.697014281983     Delta-E=       -0.000533368062 Rises=F Damp=F
 DIIS: error= 2.05D-04 at cycle   5 NSaved=   5.
 NSaved= 5 IEnMin= 5 EnMin= -155.697014281983     IErMin= 5 ErrMin= 2.05D-04
 ErrMax= 2.05D-04  0.00D+00 EMaxC= 1.00D-01 BMatC= 4.93D-06 BMatP= 5.57D-04
 IDIUse=3 WtCom= 9.98D-01 WtEn= 2.05D-03
 Coeff-Com: -0.363D-02 0.369D-02 0.423D-01 0.108D+00 0.850D+00
 Coeff-En:   0.000D+00 0.000D+00 0.000D+00 0.000D+00 0.100D+01
 Coeff:     -0.362D-02 0.368D-02 0.422D-01 0.108D+00 0.850D+00
 Gap=     0.295 Goal=   None    Shift=    0.000
 RMSDP=3.77D-06 MaxDP=1.27D-04 DE=-5.33D-04 OVMax= 1.23D-03

 Initial convergence to 1.0D-05 achieved.  Increase integral accuracy.
 Cycle   6  Pass 1  IDiag  1:
 E= -155.697021559801     Delta-E=       -0.000007277818 Rises=F Damp=F
 DIIS: error= 5.62D-05 at cycle   1 NSaved=   1.
 NSaved= 1 IEnMin= 1 EnMin= -155.697021559801     IErMin= 1 ErrMin= 5.62D-05
 ErrMax= 5.62D-05  0.00D+00 EMaxC= 1.00D-01 BMatC= 5.06D-07 BMatP= 5.06D-07
 IDIUse=1 WtCom= 1.00D+00 WtEn= 0.00D+00
 Coeff-Com:  0.100D+01
 Coeff:      0.100D+01
 Gap=     0.295 Goal=   None    Shift=    0.000
 RMSDP=3.77D-06 MaxDP=1.27D-04 DE=-7.28D-06 OVMax= 3.40D-04

 Cycle   7  Pass 1  IDiag  1:
 RMSU=  1.68D-05    CP:  1.00D+00
 E= -155.697021900952     Delta-E=       -0.000000341151 Rises=F Damp=F
 DIIS: error= 2.62D-05 at cycle   2 NSaved=   2.
 NSaved= 2 IEnMin= 2 EnMin= -155.697021900952     IErMin= 2 ErrMin= 2.62D-05
 ErrMax= 2.62D-05  0.00D+00 EMaxC= 1.00D-01 BMatC= 5.22D-08 BMatP= 5.06D-07
 IDIUse=1 WtCom= 1.00D+00 WtEn= 0.00D+00
 Coeff-Com:  0.130D+00 0.870D+00
 Coeff:      0.130D+00 0.870D+00
 Gap=     0.295 Goal=   None    Shift=    0.000
 RMSDP=8.82D-07 MaxDP=2.76D-05 DE=-3.41D-07 OVMax= 1.52D-04

 Cycle   8  Pass 1  IDiag  1:
 RMSU=  6.33D-07    CP:  1.00D+00  1.04D+00
 E= -155.697021925908     Delta-E=       -0.000000024955 Rises=F Damp=F
 DIIS: error= 1.86D-05 at cycle   3 NSaved=   3.
 NSaved= 3 IEnMin= 3 EnMin= -155.697021925908     IErMin= 3 ErrMin= 1.86D-05
 ErrMax= 1.86D-05  0.00D+00 EMaxC= 1.00D-01 BMatC= 3.48D-08 BMatP= 5.22D-08
 IDIUse=1 WtCom= 1.00D+00 WtEn= 0.00D+00
 Coeff-Com: -0.159D-01 0.447D+00 0.569D+00
 Coeff:     -0.159D-01 0.447D+00 0.569D+00
 Gap=     0.295 Goal=   None    Shift=    0.000
 RMSDP=2.93D-07 MaxDP=1.42D-05 DE=-2.50D-08 OVMax= 1.02D-04

 Cycle   9  Pass 1  IDiag  1:
 RMSU=  2.51D-07    CP:  1.00D+00  1.05D+00  9.34D-01
 E= -155.697021961092     Delta-E=       -0.000000035185 Rises=F Damp=F
 DIIS: error= 2.59D-06 at cycle   4 NSaved=   4.
 NSaved= 4 IEnMin= 4 EnMin= -155.697021961092     IErMin= 4 ErrMin= 2.59D-06
 ErrMax= 2.59D-06  0.00D+00 EMaxC= 1.00D-01 BMatC= 5.12D-10 BMatP= 3.48D-08
 IDIUse=1 WtCom= 1.00D+00 WtEn= 0.00D+00
 Coeff-Com: -0.949D-02 0.396D-01 0.118D+00 0.852D+00
 Coeff:     -0.949D-02 0.396D-01 0.118D+00 0.852D+00
 Gap=     0.295 Goal=   None    Shift=    0.000
 RMSDP=7.46D-08 MaxDP=2.39D-06 DE=-3.52D-08 OVMax= 1.80D-05

 Cycle  10  Pass 1  IDiag  1:
 RMSU=  4.45D-08    CP:  1.00D+00  1.05D+00  1.01D+00  1.10D+00
 E= -155.697021961925     Delta-E=       -0.000000000832 Rises=F Damp=F
 DIIS: error= 6.65D-07 at cycle   5 NSaved=   5.
 NSaved= 5 IEnMin= 5 EnMin= -155.697021961925     IErMin= 5 ErrMin= 6.65D-07
 ErrMax= 6.65D-07  0.00D+00 EMaxC= 1.00D-01 BMatC= 7.23D-11 BMatP= 5.12D-10
 IDIUse=1 WtCom= 1.00D+00 WtEn= 0.00D+00
 Coeff-Com: -0.533D-03-0.458D-01-0.363D-01 0.232D+00 0.851D+00
 Coeff:     -0.533D-03-0.458D-01-0.363D-01 0.232D+00 0.851D+00
 Gap=     0.295 Goal=   None    Shift=    0.000
 RMSDP=2.60D-08 MaxDP=1.60D-06 DE=-8.32D-10 OVMax= 6.83D-06

 Cycle  11  Pass 1  IDiag  1:
 RMSU=  1.73D-08    CP:  1.00D+00  1.05D+00  1.02D+00  1.16D+00  1.11D+00
 E= -155.697021962046     Delta-E=       -0.000000000122 Rises=F Damp=F
 DIIS: error= 2.08D-07 at cycle   6 NSaved=   6.
 NSaved= 6 IEnMin= 6 EnMin= -155.697021962046     IErMin= 6 ErrMin= 2.08D-07
 ErrMax= 2.08D-07  0.00D+00 EMaxC= 1.00D-01 BMatC= 6.90D-12 BMatP= 7.23D-11
 IDIUse=1 WtCom= 1.00D+00 WtEn= 0.00D+00
 Coeff-Com:  0.666D-03-0.206D-01-0.227D-01 0.990D-02 0.301D+00 0.731D+00
 Coeff:      0.666D-03-0.206D-01-0.227D-01 0.990D-02 0.301D+00 0.731D+00
 Gap=     0.295 Goal=   None    Shift=    0.000
 RMSDP=5.64D-09 MaxDP=2.25D-07 DE=-1.22D-10 OVMax= 1.73D-06

 SCF Done:  E(RB2PLYPD3) =  -155.697021962     A.U. after   11 cycles
            NFock= 11  Conv=0.56D-08     -V/T= 2.0032
 KE= 1.552010411930D+02 PE=-5.697927610722D+02 EE= 1.544947926581D+02
 Leave Link  502 at Wed Aug 26 08:38:46 2020, MaxMem=  2097152000 cpu:      1370.3
 (Enter /opt/cluster/programs/g09/g09_d.01/g09/l801.exe)
 DoSCS=T DFT=T ScalE2(SS,OS)=  0.270000  0.270000
 ExpMin= 7.60D-02 ExpMax= 6.70D+04 ExpMxC= 6.47D+02 IAcc=3 IRadAn=         5 AccDes= 0.00D+00
 HarFok:  IExCor=  205 AccDes= 0.00D+00 IRadAn=         5 IDoV=-2 UseB2=F ITyADJ=14
 ICtDFT= 12500011 ScaDFX=  1.000000  1.000000  1.000000  1.000000
 Largest valence mixing into a core orbital is  1.11D-04
 Largest core mixing into a valence orbital is  1.97D-05
 Range of M.O.s used for correlation:     5   408
 NBasis=   408 NAE=    15 NBE=    15 NFC=     4 NFV=     0
 NROrb=    404 NOA=    11 NOB=    11 NVA=   393 NVB=   393

 **** Warning!!: The largest alpha MO coefficient is  0.27388057D+02

 Leave Link  801 at Wed Aug 26 08:38:47 2020, MaxMem=  2097152000 cpu:         0.9
 (Enter /opt/cluster/programs/g09/g09_d.01/g09/l906.exe)
 DoSCS=T DFT=T ScalE2(SS,OS)=  0.270000  0.270000
 FulOut=F Deriv=F AODrv=F NAtomX=    10
   MMem=         881  MDisk=          11 MDiskD=          11
  W3Min=     2152854 MinDsk=     3857222 NBas6D=         498
 NBas2D=      125763    NTT=      124251    LW2=     4508827
    MDV=  2096380994 MDiskM=        9345 NBas2p=      117803
 Fully direct method using O(OVN) memory.
 IMap=   1   2   3   4   5   6   7   8   9  10  11
 JobTyp=1 Pass  1:  I=   1 to  11 NPSUse=  8 ParTrn=T ParDer=T DoDerP=F.
 Spin components of T(2) and E(2):
     alpha-alpha T2 =       0.4182434670D-01 E2=     -0.2540093336D-01
     alpha-beta  T2 =       0.2706649857D+00 E2=     -0.1747703464D+00
     beta-beta   T2 =       0.4182434670D-01 E2=     -0.2540093336D-01
 The integrals were generated   1 times.
 E2(B2PLYPD3) =    -0.2255722131D+00 E(B2PLYPD3) =    -0.15592259417519D+03
 Leave Link  906 at Wed Aug 26 08:40:42 2020, MaxMem=  2097152000 cpu:       917.1
 (Enter /opt/cluster/programs/g09/g09_d.01/g09/l601.exe)
 Copying SCF densities to generalized density rwf, IOpCl= 0 IROHF=0.

 **********************************************************************

            Population analysis using the SCF density.

 **********************************************************************

 Orbital symmetries:
       Occupied  (A) (A) (A) (A) (A) (A) (A) (A) (A) (A) (A) (A)
                 (A) (A) (A)
       Virtual   (A) (A) (A) (A) (A) (A) (A) (A) (A) (A) (A) (A)
                 (A) (A) (A) (A) (A) (A) (A) (A) (A) (A) (A) (A)
                 (A) (A) (A) (A) (A) (A) (A) (A) (A) (A) (A) (A)
                 (A) (A) (A) (A) (A) (A) (A) (A) (A) (A) (A) (A)
                 (A) (A) (A) (A) (A) (A) (A) (A) (A) (A) (A) (A)
                 (A) (A) (A) (A) (A) (A) (A) (A) (A) (A) (A) (A)
                 (A) (A) (A) (A) (A) (A) (A) (A) (A) (A) (A) (A)
                 (A) (A) (A) (A) (A) (A) (A) (A) (A) (A) (A) (A)
                 (A) (A) (A) (A) (A) (A) (A) (A) (A) (A) (A) (A)
                 (A) (A) (A) (A) (A) (A) (A) (A) (A) (A) (A) (A)
                 (A) (A) (A) (A) (A) (A) (A) (A) (A) (A) (A) (A)
                 (A) (A) (A) (A) (A) (A) (A) (A) (A) (A) (A) (A)
                 (A) (A) (A) (A) (A) (A) (A) (A) (A) (A) (A) (A)
                 (A) (A) (A) (A) (A) (A) (A) (A) (A) (A) (A) (A)
                 (A) (A) (A) (A) (A) (A) (A) (A) (A) (A) (A) (A)
                 (A) (A) (A) (A) (A) (A) (A) (A) (A) (A) (A) (A)
                 (A) (A) (A) (A) (A) (A) (A) (A) (A) (A) (A) (A)
                 (A) (A) (A) (A) (A) (A) (A) (A) (A) (A) (A) (A)
                 (A) (A) (A) (A) (A) (A) (A) (A) (A) (A) (A) (A)
                 (A) (A) (A) (A) (A) (A) (A) (A) (A) (A) (A) (A)
                 (A) (A) (A) (A) (A) (A) (A) (A) (A) (A) (A) (A)
                 (A) (A) (A) (A) (A) (A) (A) (A) (A) (A) (A) (A)
                 (A) (A) (A) (A) (A) (A) (A) (A) (A) (A) (A) (A)
                 (A) (A) (A) (A) (A) (A) (A) (A) (A) (A) (A) (A)
                 (A) (A) (A) (A) (A) (A) (A) (A) (A) (A) (A) (A)
                 (A) (A) (A) (A) (A) (A) (A) (A) (A) (A) (A) (A)
                 (A) (A) (A) (A) (A) (A) (A) (A) (A) (A) (A) (A)
                 (A) (A) (A) (A) (A) (A) (A) (A) (A) (A) (A) (A)
                 (A) (A) (A) (A) (A) (A) (A) (A) (A) (A) (A) (A)
                 (A) (A) (A) (A) (A) (A) (A) (A) (A) (A) (A) (A)
                 (A) (A) (A) (A) (A) (A) (A) (A) (A) (A) (A) (A)
                 (A) (A) (A) (A) (A) (A) (A) (A) (A) (A) (A) (A)
                 (A) (A) (A) (A) (A) (A) (A) (A) (A)
 The electronic state is 1-A.
 Alpha  occ. eigenvalues --  -10.62283 -10.62155 -10.61699 -10.61037  -0.93140
 Alpha  occ. eigenvalues --   -0.84849  -0.69892  -0.64801  -0.54554  -0.53882
 Alpha  occ. eigenvalues --   -0.46577  -0.46043  -0.41342  -0.38033  -0.27601
 Alpha virt. eigenvalues --    0.01890   0.07007   0.07443   0.08134   0.09301
 Alpha virt. eigenvalues --    0.11835   0.12458   0.14823   0.15898   0.16033
 Alpha virt. eigenvalues --    0.18671   0.20330   0.21594   0.23074   0.24009
 Alpha virt. eigenvalues --    0.26833   0.26994   0.29282   0.32146   0.34038
 Alpha virt. eigenvalues --    0.34876   0.36846   0.37725   0.38020   0.40736
 Alpha virt. eigenvalues --    0.43049   0.43487   0.45987   0.46646   0.48267
 Alpha virt. eigenvalues --    0.48721   0.50230   0.51846   0.56058   0.56223
 Alpha virt. eigenvalues --    0.59186   0.61381   0.64479   0.66781   0.68772
 Alpha virt. eigenvalues --    0.69493   0.71801   0.76906   0.77111   0.79313
 Alpha virt. eigenvalues --    0.80058   0.80623   0.81981   0.82304   0.84311
 Alpha virt. eigenvalues --    0.84745   0.85814   0.86594   0.87253   0.90258
 Alpha virt. eigenvalues --    0.92268   0.93490   0.94459   0.95568   0.96501
 Alpha virt. eigenvalues --    0.98456   0.99613   1.00966   1.02721   1.05435
 Alpha virt. eigenvalues --    1.05500   1.08350   1.11449   1.11962   1.12584
 Alpha virt. eigenvalues --    1.15257   1.17398   1.19852   1.20306   1.23106
 Alpha virt. eigenvalues --    1.24936   1.27101   1.33319   1.34798   1.36414
 Alpha virt. eigenvalues --    1.38127   1.41916   1.47776   1.60384   1.63197
 Alpha virt. eigenvalues --    1.67175   1.69006   1.69948   1.72990   1.74759
 Alpha virt. eigenvalues --    1.75814   1.81177   1.82818   1.84017   1.86529
 Alpha virt. eigenvalues --    1.89847   1.90787   1.91922   1.93711   1.94015
 Alpha virt. eigenvalues --    1.95419   1.98953   1.99570   2.02161   2.02287
 Alpha virt. eigenvalues --    2.03387   2.06041   2.06951   2.07976   2.09893
 Alpha virt. eigenvalues --    2.10381   2.10813   2.15002   2.16551   2.17042
 Alpha virt. eigenvalues --    2.18899   2.21009   2.24236   2.26446   2.28953
 Alpha virt. eigenvalues --    2.30656   2.32739   2.33405   2.38806   2.43320
 Alpha virt. eigenvalues --    2.44208   2.45818   2.47470   2.48358   2.50770
 Alpha virt. eigenvalues --    2.53246   2.54090   2.55862   2.56848   2.59537
 Alpha virt. eigenvalues --    2.60649   2.61353   2.63969   2.64716   2.65968
 Alpha virt. eigenvalues --    2.67812   2.69080   2.71061   2.71848   2.72413
 Alpha virt. eigenvalues --    2.73833   2.76176   2.77958   2.78873   2.80767
 Alpha virt. eigenvalues --    2.82202   2.88392   2.88934   2.92178   2.94943
 Alpha virt. eigenvalues --    2.95638   3.03762   3.07306   3.09708   3.10662
 Alpha virt. eigenvalues --    3.12681   3.15816   3.25300   3.34265   3.34863
 Alpha virt. eigenvalues --    3.40150   3.41517   3.43477   3.45042   3.47333
 Alpha virt. eigenvalues --    3.49684   3.51256   3.53621   3.56010   3.60969
 Alpha virt. eigenvalues --    3.62941   3.64147   3.67223   3.70633   3.78432
 Alpha virt. eigenvalues --    3.82263   3.84839   3.89413   3.91630   3.92272
 Alpha virt. eigenvalues --    3.96467   3.98791   4.00758   4.05410   4.14798
 Alpha virt. eigenvalues --    4.17691   4.18342   4.23110   4.23991   4.43572
 Alpha virt. eigenvalues --    4.51899   4.56585   4.60851   4.88569   4.98492
 Alpha virt. eigenvalues --    4.99892   5.03322   5.05867   5.06941   5.07893
 Alpha virt. eigenvalues --    5.12109   5.18150   5.19692   5.29096   5.31108
 Alpha virt. eigenvalues --    5.32836   5.39777   5.40566   5.47288   5.50842
 Alpha virt. eigenvalues --    5.52379   5.54431   5.58563   5.60591   5.62243
 Alpha virt. eigenvalues --    5.68171   5.68952   5.75128   5.76279   5.77672
 Alpha virt. eigenvalues --    5.79223   5.81093   5.83957   5.85515   5.88782
 Alpha virt. eigenvalues --    5.89424   5.92267   5.99107   6.01517   6.02702
 Alpha virt. eigenvalues --    6.06603   6.06973   6.09507   6.11233   6.13690
 Alpha virt. eigenvalues --    6.15721   6.16058   6.17182   6.19638   6.21383
 Alpha virt. eigenvalues --    6.23135   6.24858   6.29341   6.30358   6.32069
 Alpha virt. eigenvalues --    6.34746   6.36879   6.38675   6.39191   6.40021
 Alpha virt. eigenvalues --    6.41729   6.43693   6.43879   6.52490   6.54048
 Alpha virt. eigenvalues --    6.55596   6.56102   6.57631   6.60616   6.62321
 Alpha virt. eigenvalues --    6.64782   6.67694   6.70105   6.76061   6.80766
 Alpha virt. eigenvalues --    6.82290   6.86373   6.88530   6.91622   6.93237
 Alpha virt. eigenvalues --    6.93896   6.98920   7.01915   7.06601   7.12764
 Alpha virt. eigenvalues --    7.14209   7.18740   7.19556   7.20501   7.23281
 Alpha virt. eigenvalues --    7.27176   7.28406   7.34521   7.38075   7.42615
 Alpha virt. eigenvalues --    7.47696   7.52161   7.55532   7.57746   7.62066
 Alpha virt. eigenvalues --    7.63381   7.64505   7.66237   7.67847   7.69285
 Alpha virt. eigenvalues --    7.71378   7.73589   7.77685   7.78177   7.80593
 Alpha virt. eigenvalues --    7.80977   7.87454   7.88988   7.90190   7.93506
 Alpha virt. eigenvalues --    7.95073   7.99705   8.08831   8.09731   8.12951
 Alpha virt. eigenvalues --    8.14661   8.16425   8.18053   8.20295   8.24358
 Alpha virt. eigenvalues --    8.29091   8.31596   8.32518   8.32934   8.36157
 Alpha virt. eigenvalues --    8.36611   8.37477   8.38428   8.43337   8.46124
 Alpha virt. eigenvalues --    8.48472   8.49447   8.54920   8.56997   8.59099
 Alpha virt. eigenvalues --    8.60364   8.64037   8.65753   8.69806   8.72300
 Alpha virt. eigenvalues --    8.76200   8.79623   8.81881   8.83541   8.85678
 Alpha virt. eigenvalues --    8.90135   8.92341   8.97741   9.07234   9.17612
 Alpha virt. eigenvalues --    9.22183   9.27280   9.33897   9.36619   9.49352
 Alpha virt. eigenvalues --    9.57620   9.66867   9.81293   9.83700   9.91342
 Alpha virt. eigenvalues --    9.93053   9.93955   9.96775   9.98110  10.03508
 Alpha virt. eigenvalues --   10.08697  10.27843  10.30607  10.32892  10.44832
 Alpha virt. eigenvalues --   10.47344  10.51795  10.62431  10.69034  10.79355
 Alpha virt. eigenvalues --   10.91376  11.20331  11.60376  11.71790  11.85503
 Alpha virt. eigenvalues --   11.92970  12.90920  13.07636  13.15908  13.20598
 Alpha virt. eigenvalues --   28.69823  28.81765  29.48609  29.65085 148.28353
 Alpha virt. eigenvalues --  148.41307 149.08804 149.26265
          Condensed to atoms (all electrons):
               1          2          3          4          5          6
     1  C    4.847458   0.615627  -0.085648  -0.002108   0.422927   0.425629
     2  C    0.615627   4.837534   0.407872  -0.082814  -0.048349  -0.044657
     3  C   -0.085648   0.407872   4.834722   0.616509   0.008398  -0.010209
     4  C   -0.002108  -0.082814   0.616509   4.838350  -0.000772   0.000568
     5  H    0.422927  -0.048349   0.008398  -0.000772   0.584912  -0.042036
     6  H    0.425629  -0.044657  -0.010209   0.000568  -0.042036   0.592817
     7  H   -0.047127   0.411592  -0.057315   0.000261  -0.008591   0.007118
     8  H   -0.002414  -0.062207   0.412932  -0.046004  -0.000011   0.004693
     9  H    0.000249  -0.007149  -0.048994   0.428964  -0.000036   0.000043
    10  H   -0.000729   0.007939  -0.045675   0.424444   0.000035  -0.000060
               7          8          9         10
     1  C   -0.047127  -0.002414   0.000249  -0.000729
     2  C    0.411592  -0.062207  -0.007149   0.007939
     3  C   -0.057315   0.412932  -0.048994  -0.045675
     4  C    0.000261  -0.046004   0.428964   0.424444
     5  H   -0.008591  -0.000011  -0.000036   0.000035
     6  H    0.007118   0.004693   0.000043  -0.000060
     7  H    0.622348   0.006402   0.003966  -0.000100
     8  H    0.006402   0.625842   0.007323  -0.009014
     9  H    0.003966   0.007323   0.593653  -0.046209
    10  H   -0.000100  -0.009014  -0.046209   0.591831
 Mulliken charges:
               1
     1  C   -0.173863
     2  C   -0.035391
     3  C   -0.032594
     4  C   -0.177398
     5  H    0.083523
     6  H    0.066094
     7  H    0.061445
     8  H    0.062458
     9  H    0.068189
    10  H    0.077538
 Sum of Mulliken charges =   0.00000
 Mulliken charges with hydrogens summed into heavy atoms:
               1
     1  C   -0.024247
     2  C    0.026054
     3  C    0.029864
     4  C   -0.031672
 Electronic spatial extent (au):  <R**2>=            330.9854
 Charge=              0.0000 electrons
 Dipole moment (field-independent basis, Debye):
    X=              0.0804    Y=              0.0211    Z=              0.1899  Tot=              0.2073
 Quadrupole moment (field-independent basis, Debye-Ang):
   XX=            -23.9585   YY=            -22.8884   ZZ=            -29.1856
   XY=             -0.1547   XZ=             -0.4485   YZ=             -0.0450
 Traceless Quadrupole moment (field-independent basis, Debye-Ang):
   XX=              1.3856   YY=              2.4558   ZZ=             -3.8414
   XY=             -0.1547   XZ=             -0.4485   YZ=             -0.0450
 Octapole moment (field-independent basis, Debye-Ang**2):
  XXX=             -0.0425  YYY=              0.1064  ZZZ=              0.3119  XYY=              0.1227
  XXY=              0.2707  XXZ=              1.4556  XZZ=             -0.0369  YZZ=              0.0516
  YYZ=              0.3357  XYZ=             -0.5223
 Hexadecapole moment (field-independent basis, Debye-Ang**3):
 XXXX=           -343.8563 YYYY=            -64.7753 ZZZZ=            -37.0714 XXXY=              5.9000
 XXXZ=             -3.8866 YYYX=             -1.9417 YYYZ=             -0.0397 ZZZX=             -0.8026
 ZZZY=             -0.0184 XXYY=            -67.2928 XXZZ=            -75.9149 YYZZ=            -19.0971
 XXYZ=             -0.4270 YYXZ=             -0.4073 ZZXY=             -0.5514
 N-N= 1.043999052591D+02 E-N=-5.697927546349D+02  KE= 1.552010411930D+02
 Leave Link  601 at Wed Aug 26 08:40:42 2020, MaxMem=  2097152000 cpu:         0.6
 (Enter /opt/cluster/programs/g09/g09_d.01/g09/l9999.exe)
 1\1\GINC-NODE39\SP\RB2PLYPD3-FC\def2QZVP\C4H6\BOITTIER\26-Aug-2020\0\\
 #p B2PLYPD3/Def2QZVP\\butadiene\\0,1\C,0,-3.809442,0.24312,0.047911\C,
 0,-2.733493,-0.532829,0.007963\C,0,-1.401507,0.066016,-0.028695\C,0,-0
 .2658,-0.647559,0.046972\H,0,-4.799057,-0.208574,0.023257\H,0,-3.71424
 3,1.344796,0.110684\H,0,-2.805755,-1.604796,0.011114\H,0,-1.377176,1.1
 13167,-0.066927\H,0,-0.27177,-1.677351,0.21141\H,0,0.692052,-0.137148,
 0.141881\\Version=ES64L-G09RevD.01\State=1-A\HF=-155.697022\MP2=-155.9
 225942\RMSD=5.637e-09\PG=C01 [X(C4H6)]\\@


 EDUCATION DOESN'T COST 
           ... IT PAYS!

 -- POSTMARK, UNIV. OF MISSISSIPPI, DEC 78
 Job cpu time:       0 days  0 hours 38 minutes 22.4 seconds.
 File lengths (MBytes):  RWF=     92 Int=      0 D2E=      0 Chk=      9 Scr=      1
 Normal termination of Gaussian 09 at Wed Aug 26 08:40:42 2020.
