 Entering Gaussian System, Link 0=/opt/cluster/programs/g09/g09_d.01/g09//g09
 Input=/home/boittier/MDCM/nms_sampling/butadiene_geom.xyz.dir/energies/butadiene_1517_energy.com
 Output=/scratch/boittier/butadiene_1517_energy/butadiene_1517_energy.out
 Initial command:
 /opt/cluster/programs/g09/g09_d.01/g09/l1.exe "/scratch/boittier/butadiene_1517_energy/Gau-59047.inp" -scrdir="/scratch/boittier/butadiene_1517_energy/"
 Entering Link 1 = /opt/cluster/programs/g09/g09_d.01/g09/l1.exe PID=     59048.
  
 Copyright (c) 1988,1990,1992,1993,1995,1998,2003,2009,2013,
            Gaussian, Inc.  All Rights Reserved.
  
 This is part of the Gaussian(R) 09 program.  It is based on
 the Gaussian(R) 03 system (copyright 2003, Gaussian, Inc.),
 the Gaussian(R) 98 system (copyright 1998, Gaussian, Inc.),
 the Gaussian(R) 94 system (copyright 1995, Gaussian, Inc.),
 the Gaussian 92(TM) system (copyright 1992, Gaussian, Inc.),
 the Gaussian 90(TM) system (copyright 1990, Gaussian, Inc.),
 the Gaussian 88(TM) system (copyright 1988, Gaussian, Inc.),
 the Gaussian 86(TM) system (copyright 1986, Carnegie Mellon
 University), and the Gaussian 82(TM) system (copyright 1983,
 Carnegie Mellon University). Gaussian is a federally registered
 trademark of Gaussian, Inc.
  
 This software contains proprietary and confidential information,
 including trade secrets, belonging to Gaussian, Inc.
  
 This software is provided under written license and may be
 used, copied, transmitted, or stored only in accord with that
 written license.
  
 The following legend is applicable only to US Government
 contracts under FAR:
  
                    RESTRICTED RIGHTS LEGEND
  
 Use, reproduction and disclosure by the US Government is
 subject to restrictions as set forth in subparagraphs (a)
 and (c) of the Commercial Computer Software - Restricted
 Rights clause in FAR 52.227-19.
  
 Gaussian, Inc.
 340 Quinnipiac St., Bldg. 40, Wallingford CT 06492
  
  
 ---------------------------------------------------------------
 Warning -- This program may not be used in any manner that
 competes with the business of Gaussian, Inc. or will provide
 assistance to any competitor of Gaussian, Inc.  The licensee
 of this program is prohibited from giving any competitor of
 Gaussian, Inc. access to this program.  By using this program,
 the user acknowledges that Gaussian, Inc. is engaged in the
 business of creating and licensing software in the field of
 computational chemistry and represents and warrants to the
 licensee that it is not a competitor of Gaussian, Inc. and that
 it will not use this program in any manner prohibited above.
 ---------------------------------------------------------------
  

 Cite this work as:
 Gaussian 09, Revision D.01,
 M. J. Frisch, G. W. Trucks, H. B. Schlegel, G. E. Scuseria, 
 M. A. Robb, J. R. Cheeseman, G. Scalmani, V. Barone, B. Mennucci, 
 G. A. Petersson, H. Nakatsuji, M. Caricato, X. Li, H. P. Hratchian, 
 A. F. Izmaylov, J. Bloino, G. Zheng, J. L. Sonnenberg, M. Hada, 
 M. Ehara, K. Toyota, R. Fukuda, J. Hasegawa, M. Ishida, T. Nakajima, 
 Y. Honda, O. Kitao, H. Nakai, T. Vreven, J. A. Montgomery, Jr., 
 J. E. Peralta, F. Ogliaro, M. Bearpark, J. J. Heyd, E. Brothers, 
 K. N. Kudin, V. N. Staroverov, T. Keith, R. Kobayashi, J. Normand, 
 K. Raghavachari, A. Rendell, J. C. Burant, S. S. Iyengar, J. Tomasi, 
 M. Cossi, N. Rega, J. M. Millam, M. Klene, J. E. Knox, J. B. Cross, 
 V. Bakken, C. Adamo, J. Jaramillo, R. Gomperts, R. E. Stratmann, 
 O. Yazyev, A. J. Austin, R. Cammi, C. Pomelli, J. W. Ochterski, 
 R. L. Martin, K. Morokuma, V. G. Zakrzewski, G. A. Voth, 
 P. Salvador, J. J. Dannenberg, S. Dapprich, A. D. Daniels, 
 O. Farkas, J. B. Foresman, J. V. Ortiz, J. Cioslowski, 
 and D. J. Fox, Gaussian, Inc., Wallingford CT, 2013.
 
 ******************************************
 Gaussian 09:  ES64L-G09RevD.01 24-Apr-2013
                26-Aug-2020 
 ******************************************
 %chk=/home/boittier/MDCM/nms_sampling/butadiene_geom.xyz.dir/butadiene_1517.chk
 %nproc=8
 Will use up to    8 processors via shared memory.
 %mem=16000MB
 --------------------
 #p B2PLYPD3/Def2QZVP
 --------------------
 1/38=1/1;
 2/12=2,17=6,18=5,40=1/2;
 3/5=45,7=101,11=9,16=1,25=1,30=1,74=-60/1,2,3;
 4//1;
 5/5=2,38=5/2;
 8/10=1/1;
 9/16=-3/6;
 6/7=2,8=2,9=2,10=2/1;
 99/5=1,9=1/99;
 Leave Link    1 at Wed Aug 26 09:26:31 2020, MaxMem=  2097152000 cpu:         0.2
 (Enter /opt/cluster/programs/g09/g09_d.01/g09/l101.exe)
 ---------
 butadiene
 ---------
 Symbolic Z-matrix:
 Charge =  0 Multiplicity = 1
 C                    -3.85016   0.22236   0.04995 
 C                    -2.73559  -0.49514   0.00522 
 C                    -1.3932    0.04962  -0.03594 
 C                    -0.23526  -0.6442    0.06273 
 H                    -4.84699  -0.19207   0.15056 
 H                    -3.72763   1.30695   0.01477 
 H                    -2.83796  -1.58263  -0.03509 
 H                    -1.3127    1.13376  -0.05653 
 H                    -0.1884   -1.70283   0.1059 
 H                     0.67752  -0.16882   0.16401 
 
 NAtoms=     10 NQM=       10 NQMF=       0 NMMI=      0 NMMIF=      0
                NMic=       0 NMicF=      0.
                    Isotopes and Nuclear Properties:
 (Nuclear quadrupole moments (NQMom) in fm**2, nuclear magnetic moments (NMagM)
  in nuclear magnetons)

  Atom         1           2           3           4           5           6           7           8           9          10
 IAtWgt=          12          12          12          12           1           1           1           1           1           1
 AtmWgt=  12.0000000  12.0000000  12.0000000  12.0000000   1.0078250   1.0078250   1.0078250   1.0078250   1.0078250   1.0078250
 NucSpn=           0           0           0           0           1           1           1           1           1           1
 AtZEff=   0.0000000   0.0000000   0.0000000   0.0000000   0.0000000   0.0000000   0.0000000   0.0000000   0.0000000   0.0000000
 NQMom=    0.0000000   0.0000000   0.0000000   0.0000000   0.0000000   0.0000000   0.0000000   0.0000000   0.0000000   0.0000000
 NMagM=    0.0000000   0.0000000   0.0000000   0.0000000   2.7928460   2.7928460   2.7928460   2.7928460   2.7928460   2.7928460
 AtZNuc=   6.0000000   6.0000000   6.0000000   6.0000000   1.0000000   1.0000000   1.0000000   1.0000000   1.0000000   1.0000000
 Leave Link  101 at Wed Aug 26 09:26:31 2020, MaxMem=  2097152000 cpu:         0.5
 (Enter /opt/cluster/programs/g09/g09_d.01/g09/l202.exe)
                          Input orientation:                          
 ---------------------------------------------------------------------
 Center     Atomic      Atomic             Coordinates (Angstroms)
 Number     Number       Type             X           Y           Z
 ---------------------------------------------------------------------
      1          6           0       -3.850160    0.222361    0.049949
      2          6           0       -2.735594   -0.495136    0.005216
      3          6           0       -1.393196    0.049615   -0.035937
      4          6           0       -0.235261   -0.644196    0.062731
      5          1           0       -4.846993   -0.192073    0.150558
      6          1           0       -3.727632    1.306947    0.014771
      7          1           0       -2.837955   -1.582627   -0.035086
      8          1           0       -1.312702    1.133758   -0.056531
      9          1           0       -0.188400   -1.702827    0.105900
     10          1           0        0.677522   -0.168817    0.164007
 ---------------------------------------------------------------------
                    Distance matrix (angstroms):
                    1          2          3          4          5
     1  C    0.000000
     2  C    1.326296   0.000000
     3  C    2.464526   1.449303   0.000000
     4  C    3.717335   2.505432   1.353485   0.000000
     5  H    1.084230   2.137984   3.467262   4.634674   0.000000
     6  H    1.092052   2.057118   2.651989   4.000739   1.875758
     7  H    2.071176   1.093041   2.179803   2.768436   2.450375
     8  H    2.698273   2.163731   1.087322   2.082360   3.780466
     9  H    4.137386   2.820789   2.131362   1.060547   4.897638
    10  H    4.545980   3.432355   2.091785   1.034125   5.524580
                    6          7          8          9         10
     6  H    0.000000
     7  H    3.023847   0.000000
     8  H    2.422182   3.115382   0.000000
     9  H    4.646849   2.656025   3.055594   0.000000
    10  H    4.648175   3.794348   2.388793   1.762494   0.000000
 Stoichiometry    C4H6
 Framework group  C1[X(C4H6)]
 Deg. of freedom    24
 Full point group                 C1      NOp   1
 Largest Abelian subgroup         C1      NOp   1
 Largest concise Abelian subgroup C1      NOp   1
                         Standard orientation:                         
 ---------------------------------------------------------------------
 Center     Atomic      Atomic             Coordinates (Angstroms)
 Number     Number       Type             X           Y           Z
 ---------------------------------------------------------------------
      1          6           0       -1.848123    0.110173    0.030185
      2          6           0       -0.624354   -0.397605   -0.029906
      3          6           0        0.600384    0.376840   -0.056936
      4          6           0        1.863079   -0.103256    0.026933
      5          1           0       -2.755621   -0.476278    0.120058
      6          1           0       -1.919486    1.199846    0.020267
      7          1           0       -0.532854   -1.484833   -0.095492
      8          1           0        0.487772    1.458305   -0.052331
      9          1           0        2.096592   -1.137606    0.045630
     10          1           0        2.677677    0.523652    0.140208
 ---------------------------------------------------------------------
 Rotational constants (GHZ):     43.5096992      4.3827742      3.9890550
 Leave Link  202 at Wed Aug 26 09:26:31 2020, MaxMem=  2097152000 cpu:         0.1
 (Enter /opt/cluster/programs/g09/g09_d.01/g09/l301.exe)
 Standard basis: def2QZVP (5D, 7F)
 Ernie: Thresh=  0.10000D-02 Tol=  0.10000D-05 Strict=F.
 There are   498 symmetry adapted cartesian basis functions of A   symmetry.
 There are   408 symmetry adapted basis functions of A   symmetry.
   408 basis functions,   596 primitive gaussians,   498 cartesian basis functions
    15 alpha electrons       15 beta electrons
       nuclear repulsion energy       103.8822508594 Hartrees.
 IExCor=  419 DFT=T Ex+Corr=B2PLYPD3 ExCW=0 ScaHFX=  0.530000
 ScaDFX=  0.470000  0.470000  0.730000  0.730000 ScalE2=  0.270000  0.270000
 IRadAn=      0 IRanWt=     -1 IRanGd=            0 ICorTp=0 IEmpDi=141
 NAtoms=   10 NActive=   10 NUniq=   10 SFac= 1.00D+00 NAtFMM=   60 NAOKFM=F Big=F
 Integral buffers will be    131072 words long.
 Regular integral format.
 Two-electron integral symmetry is turned on.
 R6Disp:  Grimme-D3(BJ) Dispersion energy=       -0.0048202408 Hartrees.
 Nuclear repulsion after empirical dispersion term =      103.8774306186 Hartrees.
 Leave Link  301 at Wed Aug 26 09:26:31 2020, MaxMem=  2097152000 cpu:         0.5
 (Enter /opt/cluster/programs/g09/g09_d.01/g09/l302.exe)
 NPDir=0 NMtPBC=     1 NCelOv=     1 NCel=       1 NClECP=     1 NCelD=      1
         NCelK=      1 NCelE2=     1 NClLst=     1 CellRange=     0.0.
 One-electron integrals computed using PRISM.
   1 Symmetry operations used in ECPInt.
 ECPInt:  NShTT=    8256 NPrTT=   19107 LenC2=    8058 LenP2D=   16096.
 LDataN:  DoStor=T MaxTD1= 8 Len=  415
 NBasis=   408 RedAO= T EigKep=  4.23D-05  NBF=   408
 NBsUse=   408 1.00D-06 EigRej= -1.00D+00 NBFU=   408
 Precomputing XC quadrature grid using
 IXCGrd= 4 IRadAn=           0 IRanWt=          -1 IRanGd=           0 AccXCQ= 0.00D+00.
 Generated NRdTot=       0 NPtTot=           0 NUsed=           0 NTot=          32
 NSgBfM=   498   498   498   498   498 MxSgAt=    10 MxSgA2=    10.
 Leave Link  302 at Wed Aug 26 09:26:32 2020, MaxMem=  2097152000 cpu:         3.2
 (Enter /opt/cluster/programs/g09/g09_d.01/g09/l303.exe)
 DipDrv:  MaxL=1.
 Leave Link  303 at Wed Aug 26 09:26:32 2020, MaxMem=  2097152000 cpu:         0.4
 (Enter /opt/cluster/programs/g09/g09_d.01/g09/l401.exe)
 ExpMin= 7.60D-02 ExpMax= 6.70D+04 ExpMxC= 6.47D+02 IAcc=2 IRadAn=         4 AccDes= 0.00D+00
 Harris functional with IExCor=  419 and IRadAn=       4 diagonalized for initial guess.
 HarFok:  IExCor=  419 AccDes= 0.00D+00 IRadAn=         4 IDoV= 1 UseB2=F ITyADJ=14
 ICtDFT=  3500011 ScaDFX=  1.000000  1.000000  1.000000  1.000000
 FoFCou: FMM=F IPFlag=           0 FMFlag=      100000 FMFlg1=           0
         NFxFlg=           0 DoJE=T BraDBF=F KetDBF=T FulRan=T
         wScrn=  0.000000 ICntrl=     500 IOpCl=  0 I1Cent=   200000004 NGrid=           0
         NMat0=    1 NMatS0=      1 NMatT0=    0 NMatD0=    1 NMtDS0=    0 NMtDT0=    0
 Petite list used in FoFCou.
 Harris En= -156.135249831163    
 JPrj=0 DoOrth=F DoCkMO=F.
 Leave Link  401 at Wed Aug 26 09:26:33 2020, MaxMem=  2097152000 cpu:         8.3
 (Enter /opt/cluster/programs/g09/g09_d.01/g09/l502.exe)
 Closed shell SCF:
 Using DIIS extrapolation, IDIIS=  1040.
 Integral symmetry usage will be decided dynamically.
 IVT=      770090 IEndB=      770090 NGot=  2097152000 MDV=  2096647053
 LenX=  2096647053 LenY=  2096398551
 Requested convergence on RMS density matrix=1.00D-08 within 128 cycles.
 Requested convergence on MAX density matrix=1.00D-06.
 Requested convergence on             energy=1.00D-06.
 No special actions if energy rises.
 Fock matrices will be formed incrementally for  20 cycles.
 Integral accuracy reduced to 1.0D-05 until final iterations.

 Cycle   1  Pass 0  IDiag  1:
 FoFJK:  IHMeth= 1 ICntrl=       0 DoSepK=F KAlg= 0 I1Cent=   0 FoldK=F
 IRaf= 940000000 NMat=   1 IRICut=       1 DoRegI=T DoRafI=F ISym2E= 0.
 FoFCou: FMM=F IPFlag=           0 FMFlag=      100000 FMFlg1=           0
         NFxFlg=           0 DoJE=F BraDBF=F KetDBF=F FulRan=T
         wScrn=  0.000000 ICntrl=       0 IOpCl=  0 I1Cent=           0 NGrid=           0
         NMat0=    1 NMatS0=      1 NMatT0=    0 NMatD0=    1 NMtDS0=    0 NMtDT0=    0
 Symmetry not used in FoFCou.
 E= -155.508798111438    
 DIIS: error= 3.69D-02 at cycle   1 NSaved=   1.
 NSaved= 1 IEnMin= 1 EnMin= -155.508798111438     IErMin= 1 ErrMin= 3.69D-02
 ErrMax= 3.69D-02  0.00D+00 EMaxC= 1.00D-01 BMatC= 2.54D-01 BMatP= 2.54D-01
 IDIUse=3 WtCom= 6.31D-01 WtEn= 3.69D-01
 Coeff-Com:  0.100D+01
 Coeff-En:   0.100D+01
 Coeff:      0.100D+01
 Gap=     0.295 Goal=   None    Shift=    0.000
 GapD=    0.295 DampG=1.000 DampE=0.500 DampFc=0.5000 IDamp=-1.
 Damping current iteration by 5.00D-01
 RMSDP=9.42D-04 MaxDP=5.07D-02              OVMax= 1.94D-01

 Cycle   2  Pass 0  IDiag  1:
 RMSU=  4.32D-04    CP:  9.51D-01
 E= -155.608919764400     Delta-E=       -0.100121652962 Rises=F Damp=T
 DIIS: error= 1.04D-02 at cycle   2 NSaved=   2.
 NSaved= 2 IEnMin= 2 EnMin= -155.608919764400     IErMin= 2 ErrMin= 1.04D-02
 ErrMax= 1.04D-02  0.00D+00 EMaxC= 1.00D-01 BMatC= 3.00D-02 BMatP= 2.54D-01
 IDIUse=3 WtCom= 8.96D-01 WtEn= 1.04D-01
 Coeff-Com: -0.306D+00 0.131D+01
 Coeff-En:   0.000D+00 0.100D+01
 Coeff:     -0.274D+00 0.127D+01
 Gap=     0.357 Goal=   None    Shift=    0.000
 RMSDP=2.61D-04 MaxDP=8.07D-03 DE=-1.00D-01 OVMax= 9.17D-02

 Cycle   3  Pass 0  IDiag  1:
 RMSU=  2.48D-04    CP:  9.33D-01  1.11D+00
 E= -155.695123290808     Delta-E=       -0.086203526408 Rises=F Damp=F
 DIIS: error= 4.17D-03 at cycle   3 NSaved=   3.
 NSaved= 3 IEnMin= 3 EnMin= -155.695123290808     IErMin= 3 ErrMin= 4.17D-03
 ErrMax= 4.17D-03  0.00D+00 EMaxC= 1.00D-01 BMatC= 1.60D-03 BMatP= 3.00D-02
 IDIUse=3 WtCom= 9.58D-01 WtEn= 4.17D-02
 Coeff-Com: -0.107D+00 0.205D+00 0.902D+00
 Coeff-En:   0.000D+00 0.000D+00 0.100D+01
 Coeff:     -0.102D+00 0.197D+00 0.906D+00
 Gap=     0.290 Goal=   None    Shift=    0.000
 RMSDP=6.36D-05 MaxDP=3.83D-03 DE=-8.62D-02 OVMax= 1.96D-02

 Cycle   4  Pass 0  IDiag  1:
 RMSU=  4.47D-05    CP:  9.29D-01  1.20D+00  9.42D-01
 E= -155.696423584263     Delta-E=       -0.001300293455 Rises=F Damp=F
 DIIS: error= 2.39D-03 at cycle   4 NSaved=   4.
 NSaved= 4 IEnMin= 4 EnMin= -155.696423584263     IErMin= 4 ErrMin= 2.39D-03
 ErrMax= 2.39D-03  0.00D+00 EMaxC= 1.00D-01 BMatC= 4.33D-04 BMatP= 1.60D-03
 IDIUse=3 WtCom= 9.76D-01 WtEn= 2.39D-02
 Coeff-Com: -0.491D-01 0.803D-01 0.471D+00 0.498D+00
 Coeff-En:   0.000D+00 0.000D+00 0.663D-01 0.934D+00
 Coeff:     -0.479D-01 0.784D-01 0.461D+00 0.508D+00
 Gap=     0.290 Goal=   None    Shift=    0.000
 RMSDP=2.49D-05 MaxDP=1.31D-03 DE=-1.30D-03 OVMax= 7.70D-03

 Cycle   5  Pass 0  IDiag  1:
 RMSU=  1.50D-05    CP:  9.30D-01  1.20D+00  9.79D-01  6.13D-01
 E= -155.696840867934     Delta-E=       -0.000417283671 Rises=F Damp=F
 DIIS: error= 3.27D-04 at cycle   5 NSaved=   5.
 NSaved= 5 IEnMin= 5 EnMin= -155.696840867934     IErMin= 5 ErrMin= 3.27D-04
 ErrMax= 3.27D-04  0.00D+00 EMaxC= 1.00D-01 BMatC= 5.93D-06 BMatP= 4.33D-04
 IDIUse=3 WtCom= 9.97D-01 WtEn= 3.27D-03
 Coeff-Com: -0.320D-02 0.297D-02 0.412D-01 0.123D+00 0.836D+00
 Coeff-En:   0.000D+00 0.000D+00 0.000D+00 0.000D+00 0.100D+01
 Coeff:     -0.319D-02 0.296D-02 0.410D-01 0.123D+00 0.836D+00
 Gap=     0.291 Goal=   None    Shift=    0.000
 RMSDP=3.77D-06 MaxDP=1.30D-04 DE=-4.17D-04 OVMax= 1.29D-03

 Initial convergence to 1.0D-05 achieved.  Increase integral accuracy.
 Cycle   6  Pass 1  IDiag  1:
 E= -155.696868894492     Delta-E=       -0.000028026557 Rises=F Damp=F
 DIIS: error= 4.28D-05 at cycle   1 NSaved=   1.
 NSaved= 1 IEnMin= 1 EnMin= -155.696868894492     IErMin= 1 ErrMin= 4.28D-05
 ErrMax= 4.28D-05  0.00D+00 EMaxC= 1.00D-01 BMatC= 5.20D-07 BMatP= 5.20D-07
 IDIUse=1 WtCom= 1.00D+00 WtEn= 0.00D+00
 Coeff-Com:  0.100D+01
 Coeff:      0.100D+01
 Gap=     0.291 Goal=   None    Shift=    0.000
 RMSDP=3.77D-06 MaxDP=1.30D-04 DE=-2.80D-05 OVMax= 4.17D-04

 Cycle   7  Pass 1  IDiag  1:
 RMSU=  1.92D-05    CP:  1.00D+00
 E= -155.696869228794     Delta-E=       -0.000000334302 Rises=F Damp=F
 DIIS: error= 2.90D-05 at cycle   2 NSaved=   2.
 NSaved= 2 IEnMin= 2 EnMin= -155.696869228794     IErMin= 2 ErrMin= 2.90D-05
 ErrMax= 2.90D-05  0.00D+00 EMaxC= 1.00D-01 BMatC= 1.05D-07 BMatP= 5.20D-07
 IDIUse=1 WtCom= 1.00D+00 WtEn= 0.00D+00
 Coeff-Com:  0.230D+00 0.770D+00
 Coeff:      0.230D+00 0.770D+00
 Gap=     0.291 Goal=   None    Shift=    0.000
 RMSDP=9.37D-07 MaxDP=3.40D-05 DE=-3.34D-07 OVMax= 1.74D-04

 Cycle   8  Pass 1  IDiag  1:
 RMSU=  7.10D-07    CP:  1.00D+00  1.03D+00
 E= -155.696869297177     Delta-E=       -0.000000068383 Rises=F Damp=F
 DIIS: error= 2.20D-05 at cycle   3 NSaved=   3.
 NSaved= 3 IEnMin= 3 EnMin= -155.696869297177     IErMin= 3 ErrMin= 2.20D-05
 ErrMax= 2.20D-05  0.00D+00 EMaxC= 1.00D-01 BMatC= 3.67D-08 BMatP= 1.05D-07
 IDIUse=1 WtCom= 1.00D+00 WtEn= 0.00D+00
 Coeff-Com: -0.150D-01 0.364D+00 0.651D+00
 Coeff:     -0.150D-01 0.364D+00 0.651D+00
 Gap=     0.291 Goal=   None    Shift=    0.000
 RMSDP=3.63D-07 MaxDP=1.42D-05 DE=-6.84D-08 OVMax= 1.18D-04

 Cycle   9  Pass 1  IDiag  1:
 RMSU=  2.78D-07    CP:  1.00D+00  1.04D+00  9.34D-01
 E= -155.696869335108     Delta-E=       -0.000000037930 Rises=F Damp=F
 DIIS: error= 4.11D-06 at cycle   4 NSaved=   4.
 NSaved= 4 IEnMin= 4 EnMin= -155.696869335108     IErMin= 4 ErrMin= 4.11D-06
 ErrMax= 4.11D-06  0.00D+00 EMaxC= 1.00D-01 BMatC= 1.16D-09 BMatP= 3.67D-08
 IDIUse=1 WtCom= 1.00D+00 WtEn= 0.00D+00
 Coeff-Com: -0.131D-01 0.858D-01 0.229D+00 0.698D+00
 Coeff:     -0.131D-01 0.858D-01 0.229D+00 0.698D+00
 Gap=     0.291 Goal=   None    Shift=    0.000
 RMSDP=7.29D-08 MaxDP=2.60D-06 DE=-3.79D-08 OVMax= 1.86D-05

 Cycle  10  Pass 1  IDiag  1:
 RMSU=  5.41D-08    CP:  1.00D+00  1.04D+00  9.89D-01  1.06D+00
 E= -155.696869336531     Delta-E=       -0.000000001423 Rises=F Damp=F
 DIIS: error= 8.77D-07 at cycle   5 NSaved=   5.
 NSaved= 5 IEnMin= 5 EnMin= -155.696869336531     IErMin= 5 ErrMin= 8.77D-07
 ErrMax= 8.77D-07  0.00D+00 EMaxC= 1.00D-01 BMatC= 1.21D-10 BMatP= 1.16D-09
 IDIUse=1 WtCom= 1.00D+00 WtEn= 0.00D+00
 Coeff-Com: -0.713D-03-0.488D-01-0.501D-01 0.180D+00 0.920D+00
 Coeff:     -0.713D-03-0.488D-01-0.501D-01 0.180D+00 0.920D+00
 Gap=     0.291 Goal=   None    Shift=    0.000
 RMSDP=3.72D-08 MaxDP=1.92D-06 DE=-1.42D-09 OVMax= 1.11D-05

 Cycle  11  Pass 1  IDiag  1:
 RMSU=  2.34D-08    CP:  1.00D+00  1.05D+00  1.01D+00  1.14D+00  1.12D+00
 E= -155.696869336746     Delta-E=       -0.000000000215 Rises=F Damp=F
 DIIS: error= 3.12D-07 at cycle   6 NSaved=   6.
 NSaved= 6 IEnMin= 6 EnMin= -155.696869336746     IErMin= 6 ErrMin= 3.12D-07
 ErrMax= 3.12D-07  0.00D+00 EMaxC= 1.00D-01 BMatC= 7.23D-12 BMatP= 1.21D-10
 IDIUse=1 WtCom= 1.00D+00 WtEn= 0.00D+00
 Coeff-Com:  0.693D-03-0.202D-01-0.266D-01 0.220D-02 0.258D+00 0.785D+00
 Coeff:      0.693D-03-0.202D-01-0.266D-01 0.220D-02 0.258D+00 0.785D+00
 Gap=     0.291 Goal=   None    Shift=    0.000
 RMSDP=6.84D-09 MaxDP=2.20D-07 DE=-2.15D-10 OVMax= 2.12D-06

 SCF Done:  E(RB2PLYPD3) =  -155.696869337     A.U. after   11 cycles
            NFock= 11  Conv=0.68D-08     -V/T= 2.0034
 KE= 1.551751882865D+02 PE=-5.686913561422D+02 EE= 1.539418679004D+02
 Leave Link  502 at Wed Aug 26 09:29:16 2020, MaxMem=  2097152000 cpu:      1304.1
 (Enter /opt/cluster/programs/g09/g09_d.01/g09/l801.exe)
 DoSCS=T DFT=T ScalE2(SS,OS)=  0.270000  0.270000
 ExpMin= 7.60D-02 ExpMax= 6.70D+04 ExpMxC= 6.47D+02 IAcc=3 IRadAn=         5 AccDes= 0.00D+00
 HarFok:  IExCor=  205 AccDes= 0.00D+00 IRadAn=         5 IDoV=-2 UseB2=F ITyADJ=14
 ICtDFT= 12500011 ScaDFX=  1.000000  1.000000  1.000000  1.000000
 Largest valence mixing into a core orbital is  1.10D-04
 Largest core mixing into a valence orbital is  2.00D-05
 Range of M.O.s used for correlation:     5   408
 NBasis=   408 NAE=    15 NBE=    15 NFC=     4 NFV=     0
 NROrb=    404 NOA=    11 NOB=    11 NVA=   393 NVB=   393

 **** Warning!!: The largest alpha MO coefficient is  0.29598316D+02

 Leave Link  801 at Wed Aug 26 09:29:17 2020, MaxMem=  2097152000 cpu:         0.8
 (Enter /opt/cluster/programs/g09/g09_d.01/g09/l906.exe)
 DoSCS=T DFT=T ScalE2(SS,OS)=  0.270000  0.270000
 FulOut=F Deriv=F AODrv=F NAtomX=    10
   MMem=         881  MDisk=          11 MDiskD=          11
  W3Min=     2152854 MinDsk=     3857222 NBas6D=         498
 NBas2D=      125763    NTT=      124251    LW2=     4508827
    MDV=  2096382724 MDiskM=        9345 NBas2p=      117473
 Fully direct method using O(OVN) memory.
 IMap=   1   2   3   4   5   6   7   8   9  10  11
 JobTyp=1 Pass  1:  I=   1 to  11 NPSUse=  8 ParTrn=T ParDer=T DoDerP=F.
 Spin components of T(2) and E(2):
     alpha-alpha T2 =       0.4204081921D-01 E2=     -0.2543104016D-01
     alpha-beta  T2 =       0.2719420868D+00 E2=     -0.1748988776D+00
     beta-beta   T2 =       0.4204081921D-01 E2=     -0.2543104016D-01
 The integrals were generated   1 times.
 E2(B2PLYPD3) =    -0.2257609579D+00 E(B2PLYPD3) =    -0.15592263029465D+03
 Leave Link  906 at Wed Aug 26 09:30:57 2020, MaxMem=  2097152000 cpu:       799.0
 (Enter /opt/cluster/programs/g09/g09_d.01/g09/l601.exe)
 Copying SCF densities to generalized density rwf, IOpCl= 0 IROHF=0.

 **********************************************************************

            Population analysis using the SCF density.

 **********************************************************************

 Orbital symmetries:
       Occupied  (A) (A) (A) (A) (A) (A) (A) (A) (A) (A) (A) (A)
                 (A) (A) (A)
       Virtual   (A) (A) (A) (A) (A) (A) (A) (A) (A) (A) (A) (A)
                 (A) (A) (A) (A) (A) (A) (A) (A) (A) (A) (A) (A)
                 (A) (A) (A) (A) (A) (A) (A) (A) (A) (A) (A) (A)
                 (A) (A) (A) (A) (A) (A) (A) (A) (A) (A) (A) (A)
                 (A) (A) (A) (A) (A) (A) (A) (A) (A) (A) (A) (A)
                 (A) (A) (A) (A) (A) (A) (A) (A) (A) (A) (A) (A)
                 (A) (A) (A) (A) (A) (A) (A) (A) (A) (A) (A) (A)
                 (A) (A) (A) (A) (A) (A) (A) (A) (A) (A) (A) (A)
                 (A) (A) (A) (A) (A) (A) (A) (A) (A) (A) (A) (A)
                 (A) (A) (A) (A) (A) (A) (A) (A) (A) (A) (A) (A)
                 (A) (A) (A) (A) (A) (A) (A) (A) (A) (A) (A) (A)
                 (A) (A) (A) (A) (A) (A) (A) (A) (A) (A) (A) (A)
                 (A) (A) (A) (A) (A) (A) (A) (A) (A) (A) (A) (A)
                 (A) (A) (A) (A) (A) (A) (A) (A) (A) (A) (A) (A)
                 (A) (A) (A) (A) (A) (A) (A) (A) (A) (A) (A) (A)
                 (A) (A) (A) (A) (A) (A) (A) (A) (A) (A) (A) (A)
                 (A) (A) (A) (A) (A) (A) (A) (A) (A) (A) (A) (A)
                 (A) (A) (A) (A) (A) (A) (A) (A) (A) (A) (A) (A)
                 (A) (A) (A) (A) (A) (A) (A) (A) (A) (A) (A) (A)
                 (A) (A) (A) (A) (A) (A) (A) (A) (A) (A) (A) (A)
                 (A) (A) (A) (A) (A) (A) (A) (A) (A) (A) (A) (A)
                 (A) (A) (A) (A) (A) (A) (A) (A) (A) (A) (A) (A)
                 (A) (A) (A) (A) (A) (A) (A) (A) (A) (A) (A) (A)
                 (A) (A) (A) (A) (A) (A) (A) (A) (A) (A) (A) (A)
                 (A) (A) (A) (A) (A) (A) (A) (A) (A) (A) (A) (A)
                 (A) (A) (A) (A) (A) (A) (A) (A) (A) (A) (A) (A)
                 (A) (A) (A) (A) (A) (A) (A) (A) (A) (A) (A) (A)
                 (A) (A) (A) (A) (A) (A) (A) (A) (A) (A) (A) (A)
                 (A) (A) (A) (A) (A) (A) (A) (A) (A) (A) (A) (A)
                 (A) (A) (A) (A) (A) (A) (A) (A) (A) (A) (A) (A)
                 (A) (A) (A) (A) (A) (A) (A) (A) (A) (A) (A) (A)
                 (A) (A) (A) (A) (A) (A) (A) (A) (A) (A) (A) (A)
                 (A) (A) (A) (A) (A) (A) (A) (A) (A)
 The electronic state is 1-A.
 Alpha  occ. eigenvalues --  -10.62918 -10.62495 -10.61611 -10.61116  -0.92931
 Alpha  occ. eigenvalues --   -0.85096  -0.70771  -0.63964  -0.55110  -0.54018
 Alpha  occ. eigenvalues --   -0.47128  -0.45517  -0.41219  -0.37953  -0.27641
 Alpha virt. eigenvalues --    0.01440   0.07018   0.07548   0.08035   0.09731
 Alpha virt. eigenvalues --    0.11573   0.12614   0.14666   0.15824   0.16326
 Alpha virt. eigenvalues --    0.18918   0.20483   0.21728   0.22562   0.23803
 Alpha virt. eigenvalues --    0.26508   0.26831   0.29194   0.31966   0.35239
 Alpha virt. eigenvalues --    0.35827   0.36772   0.37895   0.38399   0.40884
 Alpha virt. eigenvalues --    0.42791   0.43542   0.45600   0.47150   0.48053
 Alpha virt. eigenvalues --    0.49390   0.49717   0.51302   0.55546   0.57469
 Alpha virt. eigenvalues --    0.58651   0.60646   0.64693   0.65246   0.68881
 Alpha virt. eigenvalues --    0.69247   0.72191   0.77033   0.77412   0.78575
 Alpha virt. eigenvalues --    0.79759   0.81249   0.81516   0.82585   0.84215
 Alpha virt. eigenvalues --    0.85132   0.85964   0.86530   0.86872   0.90623
 Alpha virt. eigenvalues --    0.92539   0.93259   0.94307   0.95506   0.96373
 Alpha virt. eigenvalues --    0.98129   0.98976   1.01041   1.02679   1.04580
 Alpha virt. eigenvalues --    1.05818   1.08601   1.09596   1.12058   1.12231
 Alpha virt. eigenvalues --    1.14854   1.18388   1.20258   1.21123   1.23732
 Alpha virt. eigenvalues --    1.24498   1.27564   1.33355   1.34738   1.36143
 Alpha virt. eigenvalues --    1.37358   1.41871   1.48153   1.61534   1.64497
 Alpha virt. eigenvalues --    1.65522   1.65995   1.69678   1.71092   1.72406
 Alpha virt. eigenvalues --    1.74431   1.80646   1.83367   1.85006   1.87491
 Alpha virt. eigenvalues --    1.90266   1.90562   1.91595   1.93260   1.93866
 Alpha virt. eigenvalues --    1.94576   1.97850   2.00251   2.01383   2.02240
 Alpha virt. eigenvalues --    2.04427   2.05442   2.07197   2.07894   2.09991
 Alpha virt. eigenvalues --    2.10334   2.12705   2.14571   2.17351   2.18928
 Alpha virt. eigenvalues --    2.21619   2.22148   2.23542   2.25489   2.29332
 Alpha virt. eigenvalues --    2.30513   2.32709   2.33873   2.37848   2.42618
 Alpha virt. eigenvalues --    2.44073   2.44535   2.46353   2.48717   2.49695
 Alpha virt. eigenvalues --    2.53059   2.54171   2.55286   2.57400   2.58678
 Alpha virt. eigenvalues --    2.59641   2.61261   2.63813   2.64729   2.66079
 Alpha virt. eigenvalues --    2.66526   2.68512   2.71168   2.71503   2.72903
 Alpha virt. eigenvalues --    2.73386   2.75339   2.77425   2.79305   2.79749
 Alpha virt. eigenvalues --    2.83114   2.88616   2.89381   2.92731   2.94486
 Alpha virt. eigenvalues --    2.96757   3.02697   3.05932   3.08335   3.10914
 Alpha virt. eigenvalues --    3.13453   3.14306   3.25326   3.32483   3.36266
 Alpha virt. eigenvalues --    3.38398   3.41389   3.42790   3.46816   3.48464
 Alpha virt. eigenvalues --    3.49820   3.50339   3.53801   3.57368   3.58164
 Alpha virt. eigenvalues --    3.60895   3.62886   3.64427   3.71816   3.76368
 Alpha virt. eigenvalues --    3.77438   3.84389   3.87531   3.91542   3.92314
 Alpha virt. eigenvalues --    3.95152   3.99768   4.01308   4.08492   4.14303
 Alpha virt. eigenvalues --    4.16432   4.18664   4.22700   4.26662   4.45671
 Alpha virt. eigenvalues --    4.56222   4.56871   4.59556   4.83113   5.00348
 Alpha virt. eigenvalues --    5.01950   5.04538   5.06258   5.07623   5.09402
 Alpha virt. eigenvalues --    5.12999   5.19319   5.21157   5.28234   5.31471
 Alpha virt. eigenvalues --    5.34242   5.40239   5.42788   5.44170   5.49009
 Alpha virt. eigenvalues --    5.52305   5.53841   5.57698   5.59846   5.62563
 Alpha virt. eigenvalues --    5.67766   5.68550   5.74416   5.75566   5.76561
 Alpha virt. eigenvalues --    5.78168   5.81557   5.82370   5.84495   5.87073
 Alpha virt. eigenvalues --    5.89691   5.91870   5.98860   6.01198   6.03829
 Alpha virt. eigenvalues --    6.04626   6.07044   6.08272   6.08712   6.12456
 Alpha virt. eigenvalues --    6.13947   6.15971   6.17624   6.19493   6.20331
 Alpha virt. eigenvalues --    6.23217   6.23949   6.28795   6.32684   6.34814
 Alpha virt. eigenvalues --    6.36742   6.36789   6.37688   6.38205   6.40354
 Alpha virt. eigenvalues --    6.41502   6.42715   6.45618   6.50548   6.53179
 Alpha virt. eigenvalues --    6.53898   6.55380   6.58564   6.58979   6.63073
 Alpha virt. eigenvalues --    6.65865   6.68485   6.70082   6.74979   6.79278
 Alpha virt. eigenvalues --    6.82438   6.86497   6.89207   6.92971   6.94350
 Alpha virt. eigenvalues --    6.95755   6.97833   7.02727   7.04698   7.10757
 Alpha virt. eigenvalues --    7.13547   7.15744   7.17288   7.19499   7.22420
 Alpha virt. eigenvalues --    7.26681   7.31877   7.34501   7.37043   7.41782
 Alpha virt. eigenvalues --    7.47815   7.52330   7.55775   7.59362   7.60956
 Alpha virt. eigenvalues --    7.62397   7.64476   7.67882   7.68725   7.69275
 Alpha virt. eigenvalues --    7.73626   7.74505   7.75776   7.78141   7.78755
 Alpha virt. eigenvalues --    7.79201   7.82612   7.83840   7.91963   7.94115
 Alpha virt. eigenvalues --    7.95803   7.98128   8.05556   8.09543   8.11717
 Alpha virt. eigenvalues --    8.14553   8.16732   8.17507   8.19846   8.22823
 Alpha virt. eigenvalues --    8.31011   8.32767   8.34388   8.35435   8.37192
 Alpha virt. eigenvalues --    8.38001   8.38346   8.40579   8.42149   8.47685
 Alpha virt. eigenvalues --    8.48542   8.54668   8.56291   8.56690   8.58432
 Alpha virt. eigenvalues --    8.61240   8.64299   8.65499   8.69102   8.70993
 Alpha virt. eigenvalues --    8.73975   8.76521   8.79965   8.83087   8.87373
 Alpha virt. eigenvalues --    8.91496   8.93180   8.96533   9.05061   9.19842
 Alpha virt. eigenvalues --    9.23503   9.24981   9.31802   9.37194   9.48867
 Alpha virt. eigenvalues --    9.61031   9.68853   9.77946   9.79498   9.89330
 Alpha virt. eigenvalues --    9.90200   9.99214  10.01624  10.02044  10.06256
 Alpha virt. eigenvalues --   10.15220  10.23151  10.26671  10.30528  10.34487
 Alpha virt. eigenvalues --   10.44679  10.46388  10.57902  10.67840  10.87078
 Alpha virt. eigenvalues --   10.97982  11.32035  11.52960  11.66832  11.71796
 Alpha virt. eigenvalues --   11.96087  12.82924  13.04838  13.19419  13.28449
 Alpha virt. eigenvalues --   28.64731  28.83056  29.48763  29.68685 148.24398
 Alpha virt. eigenvalues --  148.41920 149.08994 149.29856
          Condensed to atoms (all electrons):
               1          2          3          4          5          6
     1  C    4.841408   0.616487  -0.076913  -0.002543   0.426903   0.423432
     2  C    0.616487   4.837797   0.394869  -0.078505  -0.042788  -0.053150
     3  C   -0.076913   0.394869   4.840982   0.622299   0.006849  -0.008890
     4  C   -0.002543  -0.078505   0.622299   4.829231  -0.000536   0.000258
     5  H    0.426903  -0.042788   0.006849  -0.000536   0.569206  -0.042666
     6  H    0.423432  -0.053150  -0.008890   0.000258  -0.042666   0.607758
     7  H   -0.053990   0.408841  -0.060974  -0.000436  -0.009166   0.009078
     8  H   -0.002597  -0.061033   0.410174  -0.049729  -0.000103   0.005618
     9  H    0.000029  -0.005008  -0.045200   0.425329  -0.000018   0.000052
    10  H   -0.000539   0.007043  -0.047629   0.430003   0.000018  -0.000038
               7          8          9         10
     1  C   -0.053990  -0.002597   0.000029  -0.000539
     2  C    0.408841  -0.061033  -0.005008   0.007043
     3  C   -0.060974   0.410174  -0.045200  -0.047629
     4  C   -0.000436  -0.049729   0.425329   0.430003
     5  H   -0.009166  -0.000103  -0.000018   0.000018
     6  H    0.009078   0.005618   0.000052  -0.000038
     7  H    0.643458   0.007185   0.003852  -0.000118
     8  H    0.007185   0.641452   0.007724  -0.009687
     9  H    0.003852   0.007724   0.595617  -0.048678
    10  H   -0.000118  -0.009687  -0.048678   0.582879
 Mulliken charges:
               1
     1  C   -0.171676
     2  C   -0.024553
     3  C   -0.035566
     4  C   -0.175370
     5  H    0.092301
     6  H    0.058549
     7  H    0.052270
     8  H    0.050998
     9  H    0.066302
    10  H    0.086747
 Sum of Mulliken charges =   0.00000
 Mulliken charges with hydrogens summed into heavy atoms:
               1
     1  C   -0.020827
     2  C    0.027716
     3  C    0.015432
     4  C   -0.022321
 Electronic spatial extent (au):  <R**2>=            337.5339
 Charge=              0.0000 electrons
 Dipole moment (field-independent basis, Debye):
    X=             -0.0051    Y=             -0.0302    Z=              0.1106  Tot=              0.1148
 Quadrupole moment (field-independent basis, Debye-Ang):
   XX=            -23.1101   YY=            -23.3161   ZZ=            -29.2035
   XY=              0.0292   XZ=              0.1650   YZ=              0.0533
 Traceless Quadrupole moment (field-independent basis, Debye-Ang):
   XX=              2.0998   YY=              1.8938   ZZ=             -3.9936
   XY=              0.0292   XZ=              0.1650   YZ=              0.0533
 Octapole moment (field-independent basis, Debye-Ang**2):
  XXX=              0.2673  YYY=              0.0286  ZZZ=              0.1926  XYY=              0.2624
  XXY=             -1.0498  XXZ=              1.8882  XZZ=              0.0655  YZZ=             -0.0436
  YYZ=             -0.1037  XYZ=              0.2759
 Hexadecapole moment (field-independent basis, Debye-Ang**3):
 XXXX=           -343.0280 YYYY=            -64.7480 ZZZZ=            -37.1095 XXXY=              6.4304
 XXXZ=              0.9556 YYYX=             -1.3283 YYYZ=              0.2314 ZZZX=              0.4126
 ZZZY=              0.0664 XXYY=            -69.2178 XXZZ=            -77.3669 YYZZ=            -19.0508
 XXYZ=             -0.0652 YYXZ=              0.3076 ZZXY=             -0.2991
 N-N= 1.038774306186D+02 E-N=-5.686913454457D+02  KE= 1.551751882865D+02
 Leave Link  601 at Wed Aug 26 09:30:57 2020, MaxMem=  2097152000 cpu:         0.7
 (Enter /opt/cluster/programs/g09/g09_d.01/g09/l9999.exe)
 1\1\GINC-NODE38\SP\RB2PLYPD3-FC\def2QZVP\C4H6\BOITTIER\26-Aug-2020\0\\
 #p B2PLYPD3/Def2QZVP\\butadiene\\0,1\C,0,-3.85016,0.222361,0.049949\C,
 0,-2.735594,-0.495136,0.005216\C,0,-1.393196,0.049615,-0.035937\C,0,-0
 .235261,-0.644196,0.062731\H,0,-4.846993,-0.192073,0.150558\H,0,-3.727
 632,1.306947,0.014771\H,0,-2.837955,-1.582627,-0.035086\H,0,-1.312702,
 1.133758,-0.056531\H,0,-0.1884,-1.702827,0.1059\H,0,0.677522,-0.168817
 ,0.164007\\Version=ES64L-G09RevD.01\State=1-A\HF=-155.6968693\MP2=-155
 .9226303\RMSD=6.842e-09\PG=C01 [X(C4H6)]\\@


 THE PROBLEM WITH THE LADDER OF SUCCESS IS YOU CAN'T
 CLIMB IT WHILE YOU'RE TWIDDLING YOUR THUMBS.
 Job cpu time:       0 days  0 hours 35 minutes 18.3 seconds.
 File lengths (MBytes):  RWF=     92 Int=      0 D2E=      0 Chk=      9 Scr=      1
 Normal termination of Gaussian 09 at Wed Aug 26 09:30:57 2020.
