 Entering Gaussian System, Link 0=/opt/cluster/programs/g09/g09_d.01/g09//g09
 Input=/home/boittier/MDCM/nms_sampling/butadiene_geom.xyz.dir/energies/butadiene_1049_energy.com
 Output=/scratch/boittier/butadiene_1049_energy/butadiene_1049_energy.out
 Initial command:
 /opt/cluster/programs/g09/g09_d.01/g09/l1.exe "/scratch/boittier/butadiene_1049_energy/Gau-26812.inp" -scrdir="/scratch/boittier/butadiene_1049_energy/"
 Entering Link 1 = /opt/cluster/programs/g09/g09_d.01/g09/l1.exe PID=     26813.
  
 Copyright (c) 1988,1990,1992,1993,1995,1998,2003,2009,2013,
            Gaussian, Inc.  All Rights Reserved.
  
 This is part of the Gaussian(R) 09 program.  It is based on
 the Gaussian(R) 03 system (copyright 2003, Gaussian, Inc.),
 the Gaussian(R) 98 system (copyright 1998, Gaussian, Inc.),
 the Gaussian(R) 94 system (copyright 1995, Gaussian, Inc.),
 the Gaussian 92(TM) system (copyright 1992, Gaussian, Inc.),
 the Gaussian 90(TM) system (copyright 1990, Gaussian, Inc.),
 the Gaussian 88(TM) system (copyright 1988, Gaussian, Inc.),
 the Gaussian 86(TM) system (copyright 1986, Carnegie Mellon
 University), and the Gaussian 82(TM) system (copyright 1983,
 Carnegie Mellon University). Gaussian is a federally registered
 trademark of Gaussian, Inc.
  
 This software contains proprietary and confidential information,
 including trade secrets, belonging to Gaussian, Inc.
  
 This software is provided under written license and may be
 used, copied, transmitted, or stored only in accord with that
 written license.
  
 The following legend is applicable only to US Government
 contracts under FAR:
  
                    RESTRICTED RIGHTS LEGEND
  
 Use, reproduction and disclosure by the US Government is
 subject to restrictions as set forth in subparagraphs (a)
 and (c) of the Commercial Computer Software - Restricted
 Rights clause in FAR 52.227-19.
  
 Gaussian, Inc.
 340 Quinnipiac St., Bldg. 40, Wallingford CT 06492
  
  
 ---------------------------------------------------------------
 Warning -- This program may not be used in any manner that
 competes with the business of Gaussian, Inc. or will provide
 assistance to any competitor of Gaussian, Inc.  The licensee
 of this program is prohibited from giving any competitor of
 Gaussian, Inc. access to this program.  By using this program,
 the user acknowledges that Gaussian, Inc. is engaged in the
 business of creating and licensing software in the field of
 computational chemistry and represents and warrants to the
 licensee that it is not a competitor of Gaussian, Inc. and that
 it will not use this program in any manner prohibited above.
 ---------------------------------------------------------------
  

 Cite this work as:
 Gaussian 09, Revision D.01,
 M. J. Frisch, G. W. Trucks, H. B. Schlegel, G. E. Scuseria, 
 M. A. Robb, J. R. Cheeseman, G. Scalmani, V. Barone, B. Mennucci, 
 G. A. Petersson, H. Nakatsuji, M. Caricato, X. Li, H. P. Hratchian, 
 A. F. Izmaylov, J. Bloino, G. Zheng, J. L. Sonnenberg, M. Hada, 
 M. Ehara, K. Toyota, R. Fukuda, J. Hasegawa, M. Ishida, T. Nakajima, 
 Y. Honda, O. Kitao, H. Nakai, T. Vreven, J. A. Montgomery, Jr., 
 J. E. Peralta, F. Ogliaro, M. Bearpark, J. J. Heyd, E. Brothers, 
 K. N. Kudin, V. N. Staroverov, T. Keith, R. Kobayashi, J. Normand, 
 K. Raghavachari, A. Rendell, J. C. Burant, S. S. Iyengar, J. Tomasi, 
 M. Cossi, N. Rega, J. M. Millam, M. Klene, J. E. Knox, J. B. Cross, 
 V. Bakken, C. Adamo, J. Jaramillo, R. Gomperts, R. E. Stratmann, 
 O. Yazyev, A. J. Austin, R. Cammi, C. Pomelli, J. W. Ochterski, 
 R. L. Martin, K. Morokuma, V. G. Zakrzewski, G. A. Voth, 
 P. Salvador, J. J. Dannenberg, S. Dapprich, A. D. Daniels, 
 O. Farkas, J. B. Foresman, J. V. Ortiz, J. Cioslowski, 
 and D. J. Fox, Gaussian, Inc., Wallingford CT, 2013.
 
 ******************************************
 Gaussian 09:  ES64L-G09RevD.01 24-Apr-2013
                26-Aug-2020 
 ******************************************
 %chk=/home/boittier/MDCM/nms_sampling/butadiene_geom.xyz.dir/butadiene_1049.chk
 %nproc=8
 Will use up to    8 processors via shared memory.
 %mem=16000MB
 --------------------
 #p B2PLYPD3/Def2QZVP
 --------------------
 1/38=1/1;
 2/12=2,17=6,18=5,40=1/2;
 3/5=45,7=101,11=9,16=1,25=1,30=1,74=-60/1,2,3;
 4//1;
 5/5=2,38=5/2;
 8/10=1/1;
 9/16=-3/6;
 6/7=2,8=2,9=2,10=2/1;
 99/5=1,9=1/99;
 Leave Link    1 at Wed Aug 26 08:38:07 2020, MaxMem=  2097152000 cpu:         0.2
 (Enter /opt/cluster/programs/g09/g09_d.01/g09/l101.exe)
 ---------
 butadiene
 ---------
 Symbolic Z-matrix:
 Charge =  0 Multiplicity = 1
 C                    -3.86048   0.2294    0.04701 
 C                    -2.72602  -0.50691   0.00311 
 C                    -1.37051   0.07723  -0.02156 
 C                    -0.24851  -0.64814   0.04716 
 H                    -4.80409  -0.28656  -0.01821 
 H                    -3.87455   1.31329   0.16171 
 H                    -2.79329  -1.6196    0.04541 
 H                    -1.29129   1.1627   -0.1045 
 H                    -0.31742  -1.75539   0.22035 
 H                     0.73478  -0.24391   0.10229 
 
 NAtoms=     10 NQM=       10 NQMF=       0 NMMI=      0 NMMIF=      0
                NMic=       0 NMicF=      0.
                    Isotopes and Nuclear Properties:
 (Nuclear quadrupole moments (NQMom) in fm**2, nuclear magnetic moments (NMagM)
  in nuclear magnetons)

  Atom         1           2           3           4           5           6           7           8           9          10
 IAtWgt=          12          12          12          12           1           1           1           1           1           1
 AtmWgt=  12.0000000  12.0000000  12.0000000  12.0000000   1.0078250   1.0078250   1.0078250   1.0078250   1.0078250   1.0078250
 NucSpn=           0           0           0           0           1           1           1           1           1           1
 AtZEff=   0.0000000   0.0000000   0.0000000   0.0000000   0.0000000   0.0000000   0.0000000   0.0000000   0.0000000   0.0000000
 NQMom=    0.0000000   0.0000000   0.0000000   0.0000000   0.0000000   0.0000000   0.0000000   0.0000000   0.0000000   0.0000000
 NMagM=    0.0000000   0.0000000   0.0000000   0.0000000   2.7928460   2.7928460   2.7928460   2.7928460   2.7928460   2.7928460
 AtZNuc=   6.0000000   6.0000000   6.0000000   6.0000000   1.0000000   1.0000000   1.0000000   1.0000000   1.0000000   1.0000000
 Leave Link  101 at Wed Aug 26 08:38:07 2020, MaxMem=  2097152000 cpu:         0.5
 (Enter /opt/cluster/programs/g09/g09_d.01/g09/l202.exe)
                          Input orientation:                          
 ---------------------------------------------------------------------
 Center     Atomic      Atomic             Coordinates (Angstroms)
 Number     Number       Type             X           Y           Z
 ---------------------------------------------------------------------
      1          6           0       -3.860480    0.229402    0.047007
      2          6           0       -2.726024   -0.506911    0.003113
      3          6           0       -1.370505    0.077225   -0.021557
      4          6           0       -0.248508   -0.648135    0.047155
      5          1           0       -4.804088   -0.286564   -0.018211
      6          1           0       -3.874554    1.313288    0.161709
      7          1           0       -2.793294   -1.619599    0.045409
      8          1           0       -1.291285    1.162699   -0.104501
      9          1           0       -0.317417   -1.755391    0.220349
     10          1           0        0.734783   -0.243912    0.102291
 ---------------------------------------------------------------------
                    Distance matrix (angstroms):
                    1          2          3          4          5
     1  C    0.000000
     2  C    1.353172   0.000000
     3  C    2.495563   1.476230   0.000000
     4  C    3.717044   2.481929   1.337814   0.000000
     5  H    1.077437   2.089822   3.452803   4.570374   0.000000
     6  H    1.090029   2.158101   2.798517   4.124138   1.859013
     7  H    2.134875   1.115522   2.215406   2.723909   2.413363
     8  H    2.737656   2.204009   1.091517   2.095114   3.800999
     9  H    4.064818   2.721632   2.127438   1.122836   4.727005
    10  H    4.619905   3.472202   2.133238   1.064564   5.540346
                    6          7          8          9         10
     6  H    0.000000
     7  H    3.128015   0.000000
     8  H    2.601312   3.165389   0.000000
     9  H    4.698239   2.485762   3.093412   0.000000
    10  H    4.865634   3.787226   2.475130   1.845435   0.000000
 Stoichiometry    C4H6
 Framework group  C1[X(C4H6)]
 Deg. of freedom    24
 Full point group                 C1      NOp   1
 Largest Abelian subgroup         C1      NOp   1
 Largest concise Abelian subgroup C1      NOp   1
                         Standard orientation:                         
 ---------------------------------------------------------------------
 Center     Atomic      Atomic             Coordinates (Angstroms)
 Number     Number       Type             X           Y           Z
 ---------------------------------------------------------------------
      1          6           0        1.858416   -0.116935    0.028963
      2          6           0        0.611175    0.403960   -0.035332
      3          6           0       -0.618592   -0.412681   -0.040338
      4          6           0       -1.852056    0.103025    0.008232
      5          1           0        2.695338    0.556624   -0.053196
      6          1           0        2.064785   -1.177074    0.176208
      7          1           0        0.479118    1.511604   -0.026642
      8          1           0       -0.502981   -1.496900   -0.090458
      9          1           0       -1.982038    1.209529    0.147922
     10          1           0       -2.747881   -0.467995    0.077013
 ---------------------------------------------------------------------
 Rotational constants (GHZ):     40.8559677      4.3766142      3.9602672
 Leave Link  202 at Wed Aug 26 08:38:07 2020, MaxMem=  2097152000 cpu:         0.0
 (Enter /opt/cluster/programs/g09/g09_d.01/g09/l301.exe)
 Standard basis: def2QZVP (5D, 7F)
 Ernie: Thresh=  0.10000D-02 Tol=  0.10000D-05 Strict=F.
 There are   498 symmetry adapted cartesian basis functions of A   symmetry.
 There are   408 symmetry adapted basis functions of A   symmetry.
   408 basis functions,   596 primitive gaussians,   498 cartesian basis functions
    15 alpha electrons       15 beta electrons
       nuclear repulsion energy       102.9597780833 Hartrees.
 IExCor=  419 DFT=T Ex+Corr=B2PLYPD3 ExCW=0 ScaHFX=  0.530000
 ScaDFX=  0.470000  0.470000  0.730000  0.730000 ScalE2=  0.270000  0.270000
 IRadAn=      0 IRanWt=     -1 IRanGd=            0 ICorTp=0 IEmpDi=141
 NAtoms=   10 NActive=   10 NUniq=   10 SFac= 1.00D+00 NAtFMM=   60 NAOKFM=F Big=F
 Integral buffers will be    131072 words long.
 Regular integral format.
 Two-electron integral symmetry is turned on.
 R6Disp:  Grimme-D3(BJ) Dispersion energy=       -0.0048045963 Hartrees.
 Nuclear repulsion after empirical dispersion term =      102.9549734870 Hartrees.
 Leave Link  301 at Wed Aug 26 08:38:07 2020, MaxMem=  2097152000 cpu:         0.4
 (Enter /opt/cluster/programs/g09/g09_d.01/g09/l302.exe)
 NPDir=0 NMtPBC=     1 NCelOv=     1 NCel=       1 NClECP=     1 NCelD=      1
         NCelK=      1 NCelE2=     1 NClLst=     1 CellRange=     0.0.
 One-electron integrals computed using PRISM.
   1 Symmetry operations used in ECPInt.
 ECPInt:  NShTT=    8256 NPrTT=   19107 LenC2=    8054 LenP2D=   16076.
 LDataN:  DoStor=T MaxTD1= 8 Len=  415
 NBasis=   408 RedAO= T EigKep=  4.68D-05  NBF=   408
 NBsUse=   408 1.00D-06 EigRej= -1.00D+00 NBFU=   408
 Precomputing XC quadrature grid using
 IXCGrd= 4 IRadAn=           0 IRanWt=          -1 IRanGd=           0 AccXCQ= 0.00D+00.
 Generated NRdTot=       0 NPtTot=           0 NUsed=           0 NTot=          32
 NSgBfM=   498   498   498   498   498 MxSgAt=    10 MxSgA2=    10.
 Leave Link  302 at Wed Aug 26 08:38:08 2020, MaxMem=  2097152000 cpu:         3.1
 (Enter /opt/cluster/programs/g09/g09_d.01/g09/l303.exe)
 DipDrv:  MaxL=1.
 Leave Link  303 at Wed Aug 26 08:38:08 2020, MaxMem=  2097152000 cpu:         0.3
 (Enter /opt/cluster/programs/g09/g09_d.01/g09/l401.exe)
 ExpMin= 7.60D-02 ExpMax= 6.70D+04 ExpMxC= 6.47D+02 IAcc=2 IRadAn=         4 AccDes= 0.00D+00
 Harris functional with IExCor=  419 and IRadAn=       4 diagonalized for initial guess.
 HarFok:  IExCor=  419 AccDes= 0.00D+00 IRadAn=         4 IDoV= 1 UseB2=F ITyADJ=14
 ICtDFT=  3500011 ScaDFX=  1.000000  1.000000  1.000000  1.000000
 FoFCou: FMM=F IPFlag=           0 FMFlag=      100000 FMFlg1=           0
         NFxFlg=           0 DoJE=T BraDBF=F KetDBF=T FulRan=T
         wScrn=  0.000000 ICntrl=     500 IOpCl=  0 I1Cent=   200000004 NGrid=           0
         NMat0=    1 NMatS0=      1 NMatT0=    0 NMatD0=    1 NMtDS0=    0 NMtDT0=    0
 Petite list used in FoFCou.
 Harris En= -156.124690019444    
 JPrj=0 DoOrth=F DoCkMO=F.
 Leave Link  401 at Wed Aug 26 08:38:09 2020, MaxMem=  2097152000 cpu:         8.2
 (Enter /opt/cluster/programs/g09/g09_d.01/g09/l502.exe)
 Closed shell SCF:
 Using DIIS extrapolation, IDIIS=  1040.
 Integral symmetry usage will be decided dynamically.
 IVT=      770090 IEndB=      770090 NGot=  2097152000 MDV=  2096647053
 LenX=  2096647053 LenY=  2096398551
 Requested convergence on RMS density matrix=1.00D-08 within 128 cycles.
 Requested convergence on MAX density matrix=1.00D-06.
 Requested convergence on             energy=1.00D-06.
 No special actions if energy rises.
 Fock matrices will be formed incrementally for  20 cycles.
 Integral accuracy reduced to 1.0D-05 until final iterations.

 Cycle   1  Pass 0  IDiag  1:
 FoFJK:  IHMeth= 1 ICntrl=       0 DoSepK=F KAlg= 0 I1Cent=   0 FoldK=F
 IRaf= 940000000 NMat=   1 IRICut=       1 DoRegI=T DoRafI=F ISym2E= 0.
 FoFCou: FMM=F IPFlag=           0 FMFlag=      100000 FMFlg1=           0
         NFxFlg=           0 DoJE=F BraDBF=F KetDBF=F FulRan=T
         wScrn=  0.000000 ICntrl=       0 IOpCl=  0 I1Cent=           0 NGrid=           0
         NMat0=    1 NMatS0=      1 NMatT0=    0 NMatD0=    1 NMtDS0=    0 NMtDT0=    0
 Symmetry not used in FoFCou.
 E= -155.516320151781    
 DIIS: error= 3.07D-02 at cycle   1 NSaved=   1.
 NSaved= 1 IEnMin= 1 EnMin= -155.516320151781     IErMin= 1 ErrMin= 3.07D-02
 ErrMax= 3.07D-02  0.00D+00 EMaxC= 1.00D-01 BMatC= 2.44D-01 BMatP= 2.44D-01
 IDIUse=3 WtCom= 6.93D-01 WtEn= 3.07D-01
 Coeff-Com:  0.100D+01
 Coeff-En:   0.100D+01
 Coeff:      0.100D+01
 Gap=     0.295 Goal=   None    Shift=    0.000
 GapD=    0.295 DampG=1.000 DampE=0.500 DampFc=0.5000 IDamp=-1.
 Damping current iteration by 5.00D-01
 RMSDP=9.29D-04 MaxDP=5.18D-02              OVMax= 1.89D-01

 Cycle   2  Pass 0  IDiag  1:
 RMSU=  4.26D-04    CP:  9.52D-01
 E= -155.611725674660     Delta-E=       -0.095405522879 Rises=F Damp=T
 DIIS: error= 1.19D-02 at cycle   2 NSaved=   2.
 NSaved= 2 IEnMin= 2 EnMin= -155.611725674660     IErMin= 2 ErrMin= 1.19D-02
 ErrMax= 1.19D-02  0.00D+00 EMaxC= 1.00D-01 BMatC= 2.93D-02 BMatP= 2.44D-01
 IDIUse=3 WtCom= 8.81D-01 WtEn= 1.19D-01
 Coeff-Com: -0.304D+00 0.130D+01
 Coeff-En:   0.000D+00 0.100D+01
 Coeff:     -0.268D+00 0.127D+01
 Gap=     0.356 Goal=   None    Shift=    0.000
 RMSDP=2.58D-04 MaxDP=7.66D-03 DE=-9.54D-02 OVMax= 8.94D-02

 Cycle   3  Pass 0  IDiag  1:
 RMSU=  2.47D-04    CP:  9.34D-01  1.09D+00
 E= -155.694229989489     Delta-E=       -0.082504314829 Rises=F Damp=F
 DIIS: error= 4.09D-03 at cycle   3 NSaved=   3.
 NSaved= 3 IEnMin= 3 EnMin= -155.694229989489     IErMin= 3 ErrMin= 4.09D-03
 ErrMax= 4.09D-03  0.00D+00 EMaxC= 1.00D-01 BMatC= 1.52D-03 BMatP= 2.93D-02
 IDIUse=3 WtCom= 9.59D-01 WtEn= 4.09D-02
 Coeff-Com: -0.107D+00 0.201D+00 0.906D+00
 Coeff-En:   0.000D+00 0.000D+00 0.100D+01
 Coeff:     -0.102D+00 0.192D+00 0.910D+00
 Gap=     0.291 Goal=   None    Shift=    0.000
 RMSDP=6.16D-05 MaxDP=3.59D-03 DE=-8.25D-02 OVMax= 1.87D-02

 Cycle   4  Pass 0  IDiag  1:
 RMSU=  4.28D-05    CP:  9.30D-01  1.19D+00  9.48D-01
 E= -155.695519243346     Delta-E=       -0.001289253858 Rises=F Damp=F
 DIIS: error= 2.23D-03 at cycle   4 NSaved=   4.
 NSaved= 4 IEnMin= 4 EnMin= -155.695519243346     IErMin= 4 ErrMin= 2.23D-03
 ErrMax= 2.23D-03  0.00D+00 EMaxC= 1.00D-01 BMatC= 3.69D-04 BMatP= 1.52D-03
 IDIUse=3 WtCom= 9.78D-01 WtEn= 2.23D-02
 Coeff-Com: -0.493D-01 0.805D-01 0.469D+00 0.499D+00
 Coeff-En:   0.000D+00 0.000D+00 0.270D-01 0.973D+00
 Coeff:     -0.482D-01 0.787D-01 0.460D+00 0.510D+00
 Gap=     0.291 Goal=   None    Shift=    0.000
 RMSDP=2.34D-05 MaxDP=1.22D-03 DE=-1.29D-03 OVMax= 7.30D-03

 Cycle   5  Pass 0  IDiag  1:
 RMSU=  1.47D-05    CP:  9.31D-01  1.18D+00  9.82D-01  6.30D-01
 E= -155.695877999010     Delta-E=       -0.000358755663 Rises=F Damp=F
 DIIS: error= 3.17D-04 at cycle   5 NSaved=   5.
 NSaved= 5 IEnMin= 5 EnMin= -155.695877999010     IErMin= 5 ErrMin= 3.17D-04
 ErrMax= 3.17D-04  0.00D+00 EMaxC= 1.00D-01 BMatC= 6.39D-06 BMatP= 3.69D-04
 IDIUse=3 WtCom= 9.97D-01 WtEn= 3.17D-03
 Coeff-Com: -0.334D-02 0.321D-02 0.425D-01 0.135D+00 0.823D+00
 Coeff-En:   0.000D+00 0.000D+00 0.000D+00 0.000D+00 0.100D+01
 Coeff:     -0.333D-02 0.320D-02 0.424D-01 0.134D+00 0.824D+00
 Gap=     0.291 Goal=   None    Shift=    0.000
 RMSDP=3.79D-06 MaxDP=1.33D-04 DE=-3.59D-04 OVMax= 1.31D-03

 Initial convergence to 1.0D-05 achieved.  Increase integral accuracy.
 Cycle   6  Pass 1  IDiag  1:
 E= -155.695892294479     Delta-E=       -0.000014295469 Rises=F Damp=F
 DIIS: error= 3.62D-05 at cycle   1 NSaved=   1.
 NSaved= 1 IEnMin= 1 EnMin= -155.695892294479     IErMin= 1 ErrMin= 3.62D-05
 ErrMax= 3.62D-05  0.00D+00 EMaxC= 1.00D-01 BMatC= 4.47D-07 BMatP= 4.47D-07
 IDIUse=1 WtCom= 1.00D+00 WtEn= 0.00D+00
 Coeff-Com:  0.100D+01
 Coeff:      0.100D+01
 Gap=     0.291 Goal=   None    Shift=    0.000
 RMSDP=3.79D-06 MaxDP=1.33D-04 DE=-1.43D-05 OVMax= 3.30D-04

 Cycle   7  Pass 1  IDiag  1:
 RMSU=  1.77D-05    CP:  1.00D+00
 E= -155.695892615977     Delta-E=       -0.000000321498 Rises=F Damp=F
 DIIS: error= 1.79D-05 at cycle   2 NSaved=   2.
 NSaved= 2 IEnMin= 2 EnMin= -155.695892615977     IErMin= 2 ErrMin= 1.79D-05
 ErrMax= 1.79D-05  0.00D+00 EMaxC= 1.00D-01 BMatC= 4.52D-08 BMatP= 4.47D-07
 IDIUse=1 WtCom= 1.00D+00 WtEn= 0.00D+00
 Coeff-Com:  0.131D+00 0.869D+00
 Coeff:      0.131D+00 0.869D+00
 Gap=     0.291 Goal=   None    Shift=    0.000
 RMSDP=8.58D-07 MaxDP=3.03D-05 DE=-3.21D-07 OVMax= 1.43D-04

 Cycle   8  Pass 1  IDiag  1:
 RMSU=  5.84D-07    CP:  1.00D+00  1.04D+00
 E= -155.695892644277     Delta-E=       -0.000000028300 Rises=F Damp=F
 DIIS: error= 1.18D-05 at cycle   3 NSaved=   3.
 NSaved= 3 IEnMin= 3 EnMin= -155.695892644277     IErMin= 3 ErrMin= 1.18D-05
 ErrMax= 1.18D-05  0.00D+00 EMaxC= 1.00D-01 BMatC= 2.44D-08 BMatP= 4.52D-08
 IDIUse=1 WtCom= 1.00D+00 WtEn= 0.00D+00
 Coeff-Com: -0.160D-01 0.417D+00 0.599D+00
 Coeff:     -0.160D-01 0.417D+00 0.599D+00
 Gap=     0.291 Goal=   None    Shift=    0.000
 RMSDP=2.62D-07 MaxDP=1.51D-05 DE=-2.83D-08 OVMax= 7.92D-05

 Cycle   9  Pass 1  IDiag  1:
 RMSU=  2.20D-07    CP:  1.00D+00  1.04D+00  9.80D-01
 E= -155.695892668391     Delta-E=       -0.000000024115 Rises=F Damp=F
 DIIS: error= 3.85D-06 at cycle   4 NSaved=   4.
 NSaved= 4 IEnMin= 4 EnMin= -155.695892668391     IErMin= 4 ErrMin= 3.85D-06
 ErrMax= 3.85D-06  0.00D+00 EMaxC= 1.00D-01 BMatC= 7.05D-10 BMatP= 2.44D-08
 IDIUse=1 WtCom= 1.00D+00 WtEn= 0.00D+00
 Coeff-Com: -0.113D-01 0.734D-01 0.181D+00 0.757D+00
 Coeff:     -0.113D-01 0.734D-01 0.181D+00 0.757D+00
 Gap=     0.291 Goal=   None    Shift=    0.000
 RMSDP=6.47D-08 MaxDP=1.92D-06 DE=-2.41D-08 OVMax= 1.85D-05

 Cycle  10  Pass 1  IDiag  1:
 RMSU=  4.57D-08    CP:  1.00D+00  1.04D+00  1.04D+00  1.06D+00
 E= -155.695892669324     Delta-E=       -0.000000000933 Rises=F Damp=F
 DIIS: error= 9.90D-07 at cycle   5 NSaved=   5.
 NSaved= 5 IEnMin= 5 EnMin= -155.695892669324     IErMin= 5 ErrMin= 9.90D-07
 ErrMax= 9.90D-07  0.00D+00 EMaxC= 1.00D-01 BMatC= 1.14D-10 BMatP= 7.05D-10
 IDIUse=1 WtCom= 1.00D+00 WtEn= 0.00D+00
 Coeff-Com: -0.131D-02-0.439D-01-0.314D-01 0.270D+00 0.806D+00
 Coeff:     -0.131D-02-0.439D-01-0.314D-01 0.270D+00 0.806D+00
 Gap=     0.291 Goal=   None    Shift=    0.000
 RMSDP=2.95D-08 MaxDP=1.49D-06 DE=-9.33D-10 OVMax= 9.64D-06

 Cycle  11  Pass 1  IDiag  1:
 RMSU=  1.95D-08    CP:  1.00D+00  1.04D+00  1.07D+00  1.14D+00  1.04D+00
 E= -155.695892669504     Delta-E=       -0.000000000180 Rises=F Damp=F
 DIIS: error= 2.84D-07 at cycle   6 NSaved=   6.
 NSaved= 6 IEnMin= 6 EnMin= -155.695892669504     IErMin= 6 ErrMin= 2.84D-07
 ErrMax= 2.84D-07  0.00D+00 EMaxC= 1.00D-01 BMatC= 6.06D-12 BMatP= 1.14D-10
 IDIUse=1 WtCom= 1.00D+00 WtEn= 0.00D+00
 Coeff-Com:  0.666D-03-0.206D-01-0.251D-01 0.109D-01 0.235D+00 0.799D+00
 Coeff:      0.666D-03-0.206D-01-0.251D-01 0.109D-01 0.235D+00 0.799D+00
 Gap=     0.291 Goal=   None    Shift=    0.000
 RMSDP=6.39D-09 MaxDP=1.92D-07 DE=-1.80D-10 OVMax= 1.94D-06

 SCF Done:  E(RB2PLYPD3) =  -155.695892670     A.U. after   11 cycles
            NFock= 11  Conv=0.64D-08     -V/T= 2.0049
 KE= 1.549328487540D+02 PE=-5.666757582738D+02 EE= 1.530920433633D+02
 Leave Link  502 at Wed Aug 26 08:40:55 2020, MaxMem=  2097152000 cpu:      1325.9
 (Enter /opt/cluster/programs/g09/g09_d.01/g09/l801.exe)
 DoSCS=T DFT=T ScalE2(SS,OS)=  0.270000  0.270000
 ExpMin= 7.60D-02 ExpMax= 6.70D+04 ExpMxC= 6.47D+02 IAcc=3 IRadAn=         5 AccDes= 0.00D+00
 HarFok:  IExCor=  205 AccDes= 0.00D+00 IRadAn=         5 IDoV=-2 UseB2=F ITyADJ=14
 ICtDFT= 12500011 ScaDFX=  1.000000  1.000000  1.000000  1.000000
 Largest valence mixing into a core orbital is  1.12D-04
 Largest core mixing into a valence orbital is  2.06D-05
 Range of M.O.s used for correlation:     5   408
 NBasis=   408 NAE=    15 NBE=    15 NFC=     4 NFV=     0
 NROrb=    404 NOA=    11 NOB=    11 NVA=   393 NVB=   393

 **** Warning!!: The largest alpha MO coefficient is  0.29308363D+02

 Leave Link  801 at Wed Aug 26 08:40:55 2020, MaxMem=  2097152000 cpu:         0.9
 (Enter /opt/cluster/programs/g09/g09_d.01/g09/l906.exe)
 DoSCS=T DFT=T ScalE2(SS,OS)=  0.270000  0.270000
 FulOut=F Deriv=F AODrv=F NAtomX=    10
   MMem=         881  MDisk=          11 MDiskD=          11
  W3Min=     2152854 MinDsk=     3857222 NBas6D=         498
 NBas2D=      125763    NTT=      124251    LW2=     4508827
    MDV=  2096384620 MDiskM=        9345 NBas2p=      116993
 Fully direct method using O(OVN) memory.
 IMap=   1   2   3   4   5   6   7   8   9  10  11
 JobTyp=1 Pass  1:  I=   1 to  11 NPSUse=  8 ParTrn=T ParDer=T DoDerP=F.
 Spin components of T(2) and E(2):
     alpha-alpha T2 =       0.4260721722D-01 E2=     -0.2547013186D-01
     alpha-beta  T2 =       0.2770410168D+00 E2=     -0.1756767702D+00
     beta-beta   T2 =       0.4260721722D-01 E2=     -0.2547013186D-01
 The integrals were generated   1 times.
 E2(B2PLYPD3) =    -0.2266170339D+00 E(B2PLYPD3) =    -0.15592250970341D+03
 Leave Link  906 at Wed Aug 26 08:42:43 2020, MaxMem=  2097152000 cpu:       863.1
 (Enter /opt/cluster/programs/g09/g09_d.01/g09/l601.exe)
 Copying SCF densities to generalized density rwf, IOpCl= 0 IROHF=0.

 **********************************************************************

            Population analysis using the SCF density.

 **********************************************************************

 Orbital symmetries:
       Occupied  (A) (A) (A) (A) (A) (A) (A) (A) (A) (A) (A) (A)
                 (A) (A) (A)
       Virtual   (A) (A) (A) (A) (A) (A) (A) (A) (A) (A) (A) (A)
                 (A) (A) (A) (A) (A) (A) (A) (A) (A) (A) (A) (A)
                 (A) (A) (A) (A) (A) (A) (A) (A) (A) (A) (A) (A)
                 (A) (A) (A) (A) (A) (A) (A) (A) (A) (A) (A) (A)
                 (A) (A) (A) (A) (A) (A) (A) (A) (A) (A) (A) (A)
                 (A) (A) (A) (A) (A) (A) (A) (A) (A) (A) (A) (A)
                 (A) (A) (A) (A) (A) (A) (A) (A) (A) (A) (A) (A)
                 (A) (A) (A) (A) (A) (A) (A) (A) (A) (A) (A) (A)
                 (A) (A) (A) (A) (A) (A) (A) (A) (A) (A) (A) (A)
                 (A) (A) (A) (A) (A) (A) (A) (A) (A) (A) (A) (A)
                 (A) (A) (A) (A) (A) (A) (A) (A) (A) (A) (A) (A)
                 (A) (A) (A) (A) (A) (A) (A) (A) (A) (A) (A) (A)
                 (A) (A) (A) (A) (A) (A) (A) (A) (A) (A) (A) (A)
                 (A) (A) (A) (A) (A) (A) (A) (A) (A) (A) (A) (A)
                 (A) (A) (A) (A) (A) (A) (A) (A) (A) (A) (A) (A)
                 (A) (A) (A) (A) (A) (A) (A) (A) (A) (A) (A) (A)
                 (A) (A) (A) (A) (A) (A) (A) (A) (A) (A) (A) (A)
                 (A) (A) (A) (A) (A) (A) (A) (A) (A) (A) (A) (A)
                 (A) (A) (A) (A) (A) (A) (A) (A) (A) (A) (A) (A)
                 (A) (A) (A) (A) (A) (A) (A) (A) (A) (A) (A) (A)
                 (A) (A) (A) (A) (A) (A) (A) (A) (A) (A) (A) (A)
                 (A) (A) (A) (A) (A) (A) (A) (A) (A) (A) (A) (A)
                 (A) (A) (A) (A) (A) (A) (A) (A) (A) (A) (A) (A)
                 (A) (A) (A) (A) (A) (A) (A) (A) (A) (A) (A) (A)
                 (A) (A) (A) (A) (A) (A) (A) (A) (A) (A) (A) (A)
                 (A) (A) (A) (A) (A) (A) (A) (A) (A) (A) (A) (A)
                 (A) (A) (A) (A) (A) (A) (A) (A) (A) (A) (A) (A)
                 (A) (A) (A) (A) (A) (A) (A) (A) (A) (A) (A) (A)
                 (A) (A) (A) (A) (A) (A) (A) (A) (A) (A) (A) (A)
                 (A) (A) (A) (A) (A) (A) (A) (A) (A) (A) (A) (A)
                 (A) (A) (A) (A) (A) (A) (A) (A) (A) (A) (A) (A)
                 (A) (A) (A) (A) (A) (A) (A) (A) (A) (A) (A) (A)
                 (A) (A) (A) (A) (A) (A) (A) (A) (A)
 The electronic state is 1-A.
 Alpha  occ. eigenvalues --  -10.63426 -10.62943 -10.61900 -10.61827  -0.92340
 Alpha  occ. eigenvalues --   -0.84653  -0.69916  -0.63563  -0.54558  -0.53487
 Alpha  occ. eigenvalues --   -0.46633  -0.45288  -0.41027  -0.37637  -0.27634
 Alpha virt. eigenvalues --    0.01503   0.06997   0.07289   0.07997   0.09284
 Alpha virt. eigenvalues --    0.11567   0.12352   0.14561   0.15797   0.16304
 Alpha virt. eigenvalues --    0.18890   0.20068   0.21660   0.22680   0.23446
 Alpha virt. eigenvalues --    0.26667   0.26962   0.29095   0.31348   0.34384
 Alpha virt. eigenvalues --    0.35083   0.36244   0.37107   0.37557   0.39888
 Alpha virt. eigenvalues --    0.42376   0.43085   0.45475   0.46716   0.48204
 Alpha virt. eigenvalues --    0.48778   0.49730   0.51668   0.54936   0.55807
 Alpha virt. eigenvalues --    0.59298   0.60011   0.64445   0.66486   0.68430
 Alpha virt. eigenvalues --    0.68999   0.71442   0.76366   0.76791   0.78567
 Alpha virt. eigenvalues --    0.79169   0.81013   0.81308   0.82474   0.83260
 Alpha virt. eigenvalues --    0.84537   0.85601   0.86064   0.87099   0.89534
 Alpha virt. eigenvalues --    0.92046   0.93216   0.94106   0.95707   0.96237
 Alpha virt. eigenvalues --    0.98125   0.98665   1.00215   1.02271   1.05208
 Alpha virt. eigenvalues --    1.05462   1.07021   1.10487   1.11277   1.12203
 Alpha virt. eigenvalues --    1.14688   1.17529   1.18621   1.19216   1.21921
 Alpha virt. eigenvalues --    1.23861   1.27360   1.32655   1.33915   1.35262
 Alpha virt. eigenvalues --    1.37580   1.39544   1.46773   1.59721   1.61792
 Alpha virt. eigenvalues --    1.65348   1.67868   1.69863   1.70525   1.71372
 Alpha virt. eigenvalues --    1.74175   1.81923   1.83447   1.84745   1.88256
 Alpha virt. eigenvalues --    1.88557   1.90702   1.92332   1.93182   1.94207
 Alpha virt. eigenvalues --    1.95552   1.98327   1.99634   2.01955   2.02218
 Alpha virt. eigenvalues --    2.02584   2.06137   2.06676   2.07828   2.08555
 Alpha virt. eigenvalues --    2.10276   2.11005   2.13762   2.16838   2.18284
 Alpha virt. eigenvalues --    2.19258   2.22009   2.22842   2.25551   2.28686
 Alpha virt. eigenvalues --    2.29050   2.33079   2.33325   2.36286   2.41490
 Alpha virt. eigenvalues --    2.43434   2.44860   2.46021   2.47412   2.50746
 Alpha virt. eigenvalues --    2.51766   2.52839   2.54107   2.56073   2.57535
 Alpha virt. eigenvalues --    2.59208   2.59526   2.62155   2.63078   2.65964
 Alpha virt. eigenvalues --    2.66782   2.68341   2.69667   2.70341   2.72149
 Alpha virt. eigenvalues --    2.73755   2.75266   2.76570   2.77212   2.79111
 Alpha virt. eigenvalues --    2.79642   2.86950   2.88390   2.91519   2.93067
 Alpha virt. eigenvalues --    2.93751   3.00952   3.04317   3.05461   3.06502
 Alpha virt. eigenvalues --    3.08680   3.10337   3.23796   3.30404   3.32233
 Alpha virt. eigenvalues --    3.35170   3.37651   3.40214   3.44851   3.46149
 Alpha virt. eigenvalues --    3.46240   3.48471   3.52746   3.53593   3.55781
 Alpha virt. eigenvalues --    3.57015   3.58138   3.61570   3.66789   3.75481
 Alpha virt. eigenvalues --    3.77259   3.81929   3.84330   3.86049   3.87815
 Alpha virt. eigenvalues --    3.91969   3.93464   3.97501   4.06343   4.12052
 Alpha virt. eigenvalues --    4.13321   4.14693   4.19701   4.23851   4.43085
 Alpha virt. eigenvalues --    4.52043   4.54825   4.57562   4.81929   4.97844
 Alpha virt. eigenvalues --    5.00746   5.02499   5.03758   5.06053   5.07770
 Alpha virt. eigenvalues --    5.11221   5.17486   5.19257   5.28144   5.31400
 Alpha virt. eigenvalues --    5.33409   5.37372   5.37656   5.43218   5.49369
 Alpha virt. eigenvalues --    5.52371   5.53336   5.58347   5.61003   5.63766
 Alpha virt. eigenvalues --    5.66249   5.71445   5.74462   5.75398   5.76015
 Alpha virt. eigenvalues --    5.77315   5.79805   5.81141   5.84269   5.85963
 Alpha virt. eigenvalues --    5.86892   5.91232   5.98577   6.00792   6.01341
 Alpha virt. eigenvalues --    6.02567   6.04069   6.07742   6.09227   6.10980
 Alpha virt. eigenvalues --    6.11904   6.13435   6.16740   6.17656   6.20150
 Alpha virt. eigenvalues --    6.21105   6.22376   6.24472   6.28370   6.30393
 Alpha virt. eigenvalues --    6.32695   6.34118   6.34447   6.36577   6.37446
 Alpha virt. eigenvalues --    6.39370   6.40235   6.40663   6.44494   6.45316
 Alpha virt. eigenvalues --    6.50600   6.51348   6.53875   6.54438   6.58408
 Alpha virt. eigenvalues --    6.62166   6.62713   6.66749   6.68659   6.74885
 Alpha virt. eigenvalues --    6.75866   6.83467   6.83907   6.85640   6.87808
 Alpha virt. eigenvalues --    6.91022   6.93490   6.96975   7.02176   7.04372
 Alpha virt. eigenvalues --    7.07565   7.10537   7.16509   7.18716   7.21819
 Alpha virt. eigenvalues --    7.23197   7.26416   7.32592   7.35374   7.42383
 Alpha virt. eigenvalues --    7.43918   7.47270   7.50664   7.53637   7.54211
 Alpha virt. eigenvalues --    7.58891   7.60142   7.61137   7.65756   7.67036
 Alpha virt. eigenvalues --    7.67562   7.68673   7.71873   7.72803   7.74228
 Alpha virt. eigenvalues --    7.75238   7.79312   7.86010   7.88133   7.91431
 Alpha virt. eigenvalues --    7.93630   7.96913   8.03394   8.08353   8.10148
 Alpha virt. eigenvalues --    8.11893   8.13270   8.14546   8.18605   8.23195
 Alpha virt. eigenvalues --    8.25411   8.27750   8.29246   8.31033   8.33570
 Alpha virt. eigenvalues --    8.34392   8.36071   8.37139   8.40426   8.42839
 Alpha virt. eigenvalues --    8.44504   8.45727   8.49746   8.51712   8.56036
 Alpha virt. eigenvalues --    8.57042   8.57514   8.59734   8.62266   8.66565
 Alpha virt. eigenvalues --    8.71228   8.72902   8.73970   8.74519   8.79551
 Alpha virt. eigenvalues --    8.85657   8.88709   8.91061   9.00036   9.05239
 Alpha virt. eigenvalues --    9.14224   9.17963   9.27165   9.28726   9.39782
 Alpha virt. eigenvalues --    9.54040   9.60407   9.71371   9.75477   9.79083
 Alpha virt. eigenvalues --    9.79968   9.83032   9.88331   9.92042   9.95878
 Alpha virt. eigenvalues --   10.02840  10.03306  10.17478  10.19109  10.23405
 Alpha virt. eigenvalues --   10.26882  10.33469  10.39615  10.64236  10.77811
 Alpha virt. eigenvalues --   11.00956  11.03350  11.39920  11.51012  11.86494
 Alpha virt. eigenvalues --   11.93143  12.75575  12.91886  13.12330  13.15661
 Alpha virt. eigenvalues --   28.57710  28.73522  29.41736  29.58680 148.16978
 Alpha virt. eigenvalues --  148.31297 149.00045 149.17992
          Condensed to atoms (all electrons):
               1          2          3          4          5          6
     1  C    4.849248   0.608890  -0.079339  -0.001780   0.424467   0.422921
     2  C    0.608890   4.850550   0.401412  -0.078834  -0.049598  -0.042536
     3  C   -0.079339   0.401412   4.831547   0.617296   0.007598  -0.005979
     4  C   -0.001780  -0.078834   0.617296   4.836501  -0.000635   0.000219
     5  H    0.424467  -0.049598   0.007598  -0.000635   0.583995  -0.042899
     6  H    0.422921  -0.042536  -0.005979   0.000219  -0.042899   0.584280
     7  H   -0.045633   0.407864  -0.056267  -0.001280  -0.009242   0.006815
     8  H   -0.000058  -0.058579   0.406487  -0.050392  -0.000156   0.003987
     9  H    0.000419  -0.009520  -0.045685   0.419832  -0.000050   0.000047
    10  H   -0.000589   0.007197  -0.042557   0.423839   0.000026  -0.000024
               7          8          9         10
     1  C   -0.045633  -0.000058   0.000419  -0.000589
     2  C    0.407864  -0.058579  -0.009520   0.007197
     3  C   -0.056267   0.406487  -0.045685  -0.042557
     4  C   -0.001280  -0.050392   0.419832   0.423839
     5  H   -0.009242  -0.000156  -0.000050   0.000026
     6  H    0.006815   0.003987   0.000047  -0.000024
     7  H    0.630591   0.006446   0.005087  -0.000158
     8  H    0.006446   0.635432   0.008298  -0.009029
     9  H    0.005087   0.008298   0.614826  -0.047286
    10  H   -0.000158  -0.009029  -0.047286   0.580947
 Mulliken charges:
               1
     1  C   -0.178546
     2  C   -0.036846
     3  C   -0.034512
     4  C   -0.164767
     5  H    0.086495
     6  H    0.073170
     7  H    0.055775
     8  H    0.057567
     9  H    0.054031
    10  H    0.087634
 Sum of Mulliken charges =   0.00000
 Mulliken charges with hydrogens summed into heavy atoms:
               1
     1  C   -0.018882
     2  C    0.018929
     3  C    0.023055
     4  C   -0.023102
 Electronic spatial extent (au):  <R**2>=            340.3092
 Charge=              0.0000 electrons
 Dipole moment (field-independent basis, Debye):
    X=             -0.0060    Y=             -0.0430    Z=              0.1689  Tot=              0.1744
 Quadrupole moment (field-independent basis, Debye-Ang):
   XX=            -23.4714   YY=            -23.1304   ZZ=            -29.4005
   XY=             -0.0948   XZ=             -0.2780   YZ=             -0.0519
 Traceless Quadrupole moment (field-independent basis, Debye-Ang):
   XX=              1.8627   YY=              2.2037   ZZ=             -4.0664
   XY=             -0.0948   XZ=             -0.2780   YZ=             -0.0519
 Octapole moment (field-independent basis, Debye-Ang**2):
  XXX=             -0.9152  YYY=             -0.1289  ZZZ=              0.2682  XYY=              0.4459
  XXY=             -0.5356  XXZ=              1.1056  XZZ=             -0.0629  YZZ=             -0.1304
  YYZ=              0.3908  XYZ=             -0.8758
 Hexadecapole moment (field-independent basis, Debye-Ang**3):
 XXXX=           -349.1383 YYYY=            -66.6443 ZZZZ=            -37.5885 XXXY=              5.8412
 XXXZ=             -3.0838 YYYX=             -1.5637 YYYZ=              0.1002 ZZZX=             -0.3963
 ZZZY=             -0.0907 XXYY=            -69.6892 XXZZ=            -78.2031 YYZZ=            -19.6578
 XXYZ=             -0.9773 YYXZ=             -0.0298 ZZXY=             -0.4650
 N-N= 1.029549734870D+02 E-N=-5.666757520079D+02  KE= 1.549328487540D+02
 Leave Link  601 at Wed Aug 26 08:42:44 2020, MaxMem=  2097152000 cpu:         0.7
 (Enter /opt/cluster/programs/g09/g09_d.01/g09/l9999.exe)
 1\1\GINC-NODE29\SP\RB2PLYPD3-FC\def2QZVP\C4H6\BOITTIER\26-Aug-2020\0\\
 #p B2PLYPD3/Def2QZVP\\butadiene\\0,1\C,0,-3.86048,0.229402,0.047007\C,
 0,-2.726024,-0.506911,0.003113\C,0,-1.370505,0.077225,-0.021557\C,0,-0
 .248508,-0.648135,0.047155\H,0,-4.804088,-0.286564,-0.018211\H,0,-3.87
 4554,1.313288,0.161709\H,0,-2.793294,-1.619599,0.045409\H,0,-1.291285,
 1.162699,-0.104501\H,0,-0.317417,-1.755391,0.220349\H,0,0.734783,-0.24
 3912,0.102291\\Version=ES64L-G09RevD.01\State=1-A\HF=-155.6958927\MP2=
 -155.9225097\RMSD=6.389e-09\PG=C01 [X(C4H6)]\\@


 ALL OUR THINKING ABOUT NATURE MUST NECESSARILY MOVE IN CIRCLES OR SPIRALS;
 FOR WE CAN ONLY UNDERSTAND NATURE IF WE THINK ABOUT HER, AND WE CAN ONLY
 THINK BECAUSE OUR BRAIN IS BUILT IN ACCORDANCE WITH NATURE'S LAWS.

                                             -- TIMOTHY FERRIS, "GALAXIES"
 Job cpu time:       0 days  0 hours 36 minutes 43.9 seconds.
 File lengths (MBytes):  RWF=     92 Int=      0 D2E=      0 Chk=      9 Scr=      1
 Normal termination of Gaussian 09 at Wed Aug 26 08:42:44 2020.
