 Entering Gaussian System, Link 0=/opt/cluster/programs/g09/g09_d.01/g09//g09
 Input=/home/boittier/MDCM/nms_sampling/butadiene_geom.xyz.dir/energies/butadiene_960_energy.com
 Output=/scratch/boittier/butadiene_960_energy/butadiene_960_energy.out
 Initial command:
 /opt/cluster/programs/g09/g09_d.01/g09/l1.exe "/scratch/boittier/butadiene_960_energy/Gau-163264.inp" -scrdir="/scratch/boittier/butadiene_960_energy/"
 Entering Link 1 = /opt/cluster/programs/g09/g09_d.01/g09/l1.exe PID=    163265.
  
 Copyright (c) 1988,1990,1992,1993,1995,1998,2003,2009,2013,
            Gaussian, Inc.  All Rights Reserved.
  
 This is part of the Gaussian(R) 09 program.  It is based on
 the Gaussian(R) 03 system (copyright 2003, Gaussian, Inc.),
 the Gaussian(R) 98 system (copyright 1998, Gaussian, Inc.),
 the Gaussian(R) 94 system (copyright 1995, Gaussian, Inc.),
 the Gaussian 92(TM) system (copyright 1992, Gaussian, Inc.),
 the Gaussian 90(TM) system (copyright 1990, Gaussian, Inc.),
 the Gaussian 88(TM) system (copyright 1988, Gaussian, Inc.),
 the Gaussian 86(TM) system (copyright 1986, Carnegie Mellon
 University), and the Gaussian 82(TM) system (copyright 1983,
 Carnegie Mellon University). Gaussian is a federally registered
 trademark of Gaussian, Inc.
  
 This software contains proprietary and confidential information,
 including trade secrets, belonging to Gaussian, Inc.
  
 This software is provided under written license and may be
 used, copied, transmitted, or stored only in accord with that
 written license.
  
 The following legend is applicable only to US Government
 contracts under FAR:
  
                    RESTRICTED RIGHTS LEGEND
  
 Use, reproduction and disclosure by the US Government is
 subject to restrictions as set forth in subparagraphs (a)
 and (c) of the Commercial Computer Software - Restricted
 Rights clause in FAR 52.227-19.
  
 Gaussian, Inc.
 340 Quinnipiac St., Bldg. 40, Wallingford CT 06492
  
  
 ---------------------------------------------------------------
 Warning -- This program may not be used in any manner that
 competes with the business of Gaussian, Inc. or will provide
 assistance to any competitor of Gaussian, Inc.  The licensee
 of this program is prohibited from giving any competitor of
 Gaussian, Inc. access to this program.  By using this program,
 the user acknowledges that Gaussian, Inc. is engaged in the
 business of creating and licensing software in the field of
 computational chemistry and represents and warrants to the
 licensee that it is not a competitor of Gaussian, Inc. and that
 it will not use this program in any manner prohibited above.
 ---------------------------------------------------------------
  

 Cite this work as:
 Gaussian 09, Revision D.01,
 M. J. Frisch, G. W. Trucks, H. B. Schlegel, G. E. Scuseria, 
 M. A. Robb, J. R. Cheeseman, G. Scalmani, V. Barone, B. Mennucci, 
 G. A. Petersson, H. Nakatsuji, M. Caricato, X. Li, H. P. Hratchian, 
 A. F. Izmaylov, J. Bloino, G. Zheng, J. L. Sonnenberg, M. Hada, 
 M. Ehara, K. Toyota, R. Fukuda, J. Hasegawa, M. Ishida, T. Nakajima, 
 Y. Honda, O. Kitao, H. Nakai, T. Vreven, J. A. Montgomery, Jr., 
 J. E. Peralta, F. Ogliaro, M. Bearpark, J. J. Heyd, E. Brothers, 
 K. N. Kudin, V. N. Staroverov, T. Keith, R. Kobayashi, J. Normand, 
 K. Raghavachari, A. Rendell, J. C. Burant, S. S. Iyengar, J. Tomasi, 
 M. Cossi, N. Rega, J. M. Millam, M. Klene, J. E. Knox, J. B. Cross, 
 V. Bakken, C. Adamo, J. Jaramillo, R. Gomperts, R. E. Stratmann, 
 O. Yazyev, A. J. Austin, R. Cammi, C. Pomelli, J. W. Ochterski, 
 R. L. Martin, K. Morokuma, V. G. Zakrzewski, G. A. Voth, 
 P. Salvador, J. J. Dannenberg, S. Dapprich, A. D. Daniels, 
 O. Farkas, J. B. Foresman, J. V. Ortiz, J. Cioslowski, 
 and D. J. Fox, Gaussian, Inc., Wallingford CT, 2013.
 
 ******************************************
 Gaussian 09:  ES64L-G09RevD.01 24-Apr-2013
                26-Aug-2020 
 ******************************************
 %chk=/home/boittier/MDCM/nms_sampling/butadiene_geom.xyz.dir/butadiene_960.chk
 %nproc=8
 Will use up to    8 processors via shared memory.
 %mem=16000MB
 --------------------
 #p B2PLYPD3/Def2QZVP
 --------------------
 1/38=1/1;
 2/12=2,17=6,18=5,40=1/2;
 3/5=45,7=101,11=9,16=1,25=1,30=1,74=-60/1,2,3;
 4//1;
 5/5=2,38=5/2;
 8/10=1/1;
 9/16=-3/6;
 6/7=2,8=2,9=2,10=2/1;
 99/5=1,9=1/99;
 Leave Link    1 at Wed Aug 26 22:08:14 2020, MaxMem=  2097152000 cpu:         0.2
 (Enter /opt/cluster/programs/g09/g09_d.01/g09/l101.exe)
 ---------
 butadiene
 ---------
 Symbolic Z-matrix:
 Charge =  0 Multiplicity = 1
 C                    -3.82126   0.24147  -0.02589 
 C                    -2.72035  -0.5366    0.07876 
 C                    -1.38941   0.06584   0.05244 
 C                    -0.26987  -0.64182   0.00304 
 H                    -4.84537  -0.1568    0.03685 
 H                    -3.83132   1.31792  -0.00503 
 H                    -2.7971   -1.63184   0.03853 
 H                    -1.35704   1.17775   0.01147 
 H                    -0.31059  -1.71825   0.05377 
 H                     0.73915  -0.17006  -0.10012 
 
 NAtoms=     10 NQM=       10 NQMF=       0 NMMI=      0 NMMIF=      0
                NMic=       0 NMicF=      0.
                    Isotopes and Nuclear Properties:
 (Nuclear quadrupole moments (NQMom) in fm**2, nuclear magnetic moments (NMagM)
  in nuclear magnetons)

  Atom         1           2           3           4           5           6           7           8           9          10
 IAtWgt=          12          12          12          12           1           1           1           1           1           1
 AtmWgt=  12.0000000  12.0000000  12.0000000  12.0000000   1.0078250   1.0078250   1.0078250   1.0078250   1.0078250   1.0078250
 NucSpn=           0           0           0           0           1           1           1           1           1           1
 AtZEff=   0.0000000   0.0000000   0.0000000   0.0000000   0.0000000   0.0000000   0.0000000   0.0000000   0.0000000   0.0000000
 NQMom=    0.0000000   0.0000000   0.0000000   0.0000000   0.0000000   0.0000000   0.0000000   0.0000000   0.0000000   0.0000000
 NMagM=    0.0000000   0.0000000   0.0000000   0.0000000   2.7928460   2.7928460   2.7928460   2.7928460   2.7928460   2.7928460
 AtZNuc=   6.0000000   6.0000000   6.0000000   6.0000000   1.0000000   1.0000000   1.0000000   1.0000000   1.0000000   1.0000000
 Leave Link  101 at Wed Aug 26 22:08:14 2020, MaxMem=  2097152000 cpu:         0.6
 (Enter /opt/cluster/programs/g09/g09_d.01/g09/l202.exe)
                          Input orientation:                          
 ---------------------------------------------------------------------
 Center     Atomic      Atomic             Coordinates (Angstroms)
 Number     Number       Type             X           Y           Z
 ---------------------------------------------------------------------
      1          6           0       -3.821257    0.241473   -0.025890
      2          6           0       -2.720345   -0.536601    0.078761
      3          6           0       -1.389414    0.065842    0.052439
      4          6           0       -0.269869   -0.641824    0.003037
      5          1           0       -4.845374   -0.156800    0.036853
      6          1           0       -3.831315    1.317919   -0.005032
      7          1           0       -2.797095   -1.631835    0.038525
      8          1           0       -1.357037    1.177749    0.011473
      9          1           0       -0.310585   -1.718254    0.053772
     10          1           0        0.739147   -0.170059   -0.100123
 ---------------------------------------------------------------------
                    Distance matrix (angstroms):
                    1          2          3          4          5
     1  C    0.000000
     2  C    1.352168   0.000000
     3  C    2.439435   1.461167   0.000000
     4  C    3.659700   2.453903   1.325373   0.000000
     5  H    1.100624   2.159109   3.463159   4.601265   0.000000
     6  H    1.076695   2.163451   2.744791   4.065041   1.790214
     7  H    2.135963   1.098657   2.205418   2.714453   2.524119
     8  H    2.636359   2.191377   1.113132   2.119635   3.734991
     9  H    4.021404   2.684003   2.084915   1.078394   4.796117
    10  H    4.579536   3.483452   2.147020   1.118623   5.586216
                    6          7          8          9         10
     6  H    0.000000
     7  H    3.126109   0.000000
     8  H    2.478300   3.157255   0.000000
     9  H    4.649446   2.488058   3.079559   0.000000
    10  H    4.807519   3.828971   2.494600   1.876840   0.000000
 Stoichiometry    C4H6
 Framework group  C1[X(C4H6)]
 Deg. of freedom    24
 Full point group                 C1      NOp   1
 Largest Abelian subgroup         C1      NOp   1
 Largest concise Abelian subgroup C1      NOp   1
                         Standard orientation:                         
 ---------------------------------------------------------------------
 Center     Atomic      Atomic             Coordinates (Angstroms)
 Number     Number       Type             X           Y           Z
 ---------------------------------------------------------------------
      1          6           0       -1.820969   -0.126662    0.046437
      2          6           0       -0.596763    0.440517   -0.042931
      3          6           0        0.602098   -0.394790   -0.041299
      4          6           0        1.831901    0.095398    0.021246
      5          1           0       -2.755391    0.453126    0.000886
      6          1           0       -2.027059   -1.182225   -0.004421
      7          1           0       -0.472589    1.529805    0.028335
      8          1           0        0.431313   -1.494700   -0.031599
      9          1           0        1.988014    1.162237    0.000840
     10          1           0        2.738110   -0.555024    0.105235
 ---------------------------------------------------------------------
 Rotational constants (GHZ):     40.4919102      4.4914913      4.0485926
 Leave Link  202 at Wed Aug 26 22:08:14 2020, MaxMem=  2097152000 cpu:         0.1
 (Enter /opt/cluster/programs/g09/g09_d.01/g09/l301.exe)
 Standard basis: def2QZVP (5D, 7F)
 Ernie: Thresh=  0.10000D-02 Tol=  0.10000D-05 Strict=F.
 There are   498 symmetry adapted cartesian basis functions of A   symmetry.
 There are   408 symmetry adapted basis functions of A   symmetry.
   408 basis functions,   596 primitive gaussians,   498 cartesian basis functions
    15 alpha electrons       15 beta electrons
       nuclear repulsion energy       103.5887341897 Hartrees.
 IExCor=  419 DFT=T Ex+Corr=B2PLYPD3 ExCW=0 ScaHFX=  0.530000
 ScaDFX=  0.470000  0.470000  0.730000  0.730000 ScalE2=  0.270000  0.270000
 IRadAn=      0 IRanWt=     -1 IRanGd=            0 ICorTp=0 IEmpDi=141
 NAtoms=   10 NActive=   10 NUniq=   10 SFac= 1.00D+00 NAtFMM=   60 NAOKFM=F Big=F
 Integral buffers will be    131072 words long.
 Regular integral format.
 Two-electron integral symmetry is turned on.
 R6Disp:  Grimme-D3(BJ) Dispersion energy=       -0.0048308470 Hartrees.
 Nuclear repulsion after empirical dispersion term =      103.5839033427 Hartrees.
 Leave Link  301 at Wed Aug 26 22:08:14 2020, MaxMem=  2097152000 cpu:         0.5
 (Enter /opt/cluster/programs/g09/g09_d.01/g09/l302.exe)
 NPDir=0 NMtPBC=     1 NCelOv=     1 NCel=       1 NClECP=     1 NCelD=      1
         NCelK=      1 NCelE2=     1 NClLst=     1 CellRange=     0.0.
 One-electron integrals computed using PRISM.
   1 Symmetry operations used in ECPInt.
 ECPInt:  NShTT=    8256 NPrTT=   19107 LenC2=    8054 LenP2D=   16111.
 LDataN:  DoStor=T MaxTD1= 8 Len=  415
 NBasis=   408 RedAO= T EigKep=  4.58D-05  NBF=   408
 NBsUse=   408 1.00D-06 EigRej= -1.00D+00 NBFU=   408
 Precomputing XC quadrature grid using
 IXCGrd= 4 IRadAn=           0 IRanWt=          -1 IRanGd=           0 AccXCQ= 0.00D+00.
 Generated NRdTot=       0 NPtTot=           0 NUsed=           0 NTot=          32
 NSgBfM=   498   498   498   498   498 MxSgAt=    10 MxSgA2=    10.
 Leave Link  302 at Wed Aug 26 22:08:14 2020, MaxMem=  2097152000 cpu:         3.4
 (Enter /opt/cluster/programs/g09/g09_d.01/g09/l303.exe)
 DipDrv:  MaxL=1.
 Leave Link  303 at Wed Aug 26 22:08:15 2020, MaxMem=  2097152000 cpu:         0.4
 (Enter /opt/cluster/programs/g09/g09_d.01/g09/l401.exe)
 ExpMin= 7.60D-02 ExpMax= 6.70D+04 ExpMxC= 6.47D+02 IAcc=2 IRadAn=         4 AccDes= 0.00D+00
 Harris functional with IExCor=  419 and IRadAn=       4 diagonalized for initial guess.
 HarFok:  IExCor=  419 AccDes= 0.00D+00 IRadAn=         4 IDoV= 1 UseB2=F ITyADJ=14
 ICtDFT=  3500011 ScaDFX=  1.000000  1.000000  1.000000  1.000000
 FoFCou: FMM=F IPFlag=           0 FMFlag=      100000 FMFlg1=           0
         NFxFlg=           0 DoJE=T BraDBF=F KetDBF=T FulRan=T
         wScrn=  0.000000 ICntrl=     500 IOpCl=  0 I1Cent=   200000004 NGrid=           0
         NMat0=    1 NMatS0=      1 NMatT0=    0 NMatD0=    1 NMtDS0=    0 NMtDT0=    0
 Petite list used in FoFCou.
 Harris En= -156.125626559749    
 JPrj=0 DoOrth=F DoCkMO=F.
 Leave Link  401 at Wed Aug 26 22:08:16 2020, MaxMem=  2097152000 cpu:         9.1
 (Enter /opt/cluster/programs/g09/g09_d.01/g09/l502.exe)
 Closed shell SCF:
 Using DIIS extrapolation, IDIIS=  1040.
 Integral symmetry usage will be decided dynamically.
 IVT=      770090 IEndB=      770090 NGot=  2097152000 MDV=  2096647053
 LenX=  2096647053 LenY=  2096398551
 Requested convergence on RMS density matrix=1.00D-08 within 128 cycles.
 Requested convergence on MAX density matrix=1.00D-06.
 Requested convergence on             energy=1.00D-06.
 No special actions if energy rises.
 Fock matrices will be formed incrementally for  20 cycles.
 Integral accuracy reduced to 1.0D-05 until final iterations.

 Cycle   1  Pass 0  IDiag  1:
 FoFJK:  IHMeth= 1 ICntrl=       0 DoSepK=F KAlg= 0 I1Cent=   0 FoldK=F
 IRaf= 940000000 NMat=   1 IRICut=       1 DoRegI=T DoRafI=F ISym2E= 0.
 FoFCou: FMM=F IPFlag=           0 FMFlag=      100000 FMFlg1=           0
         NFxFlg=           0 DoJE=F BraDBF=F KetDBF=F FulRan=T
         wScrn=  0.000000 ICntrl=       0 IOpCl=  0 I1Cent=           0 NGrid=           0
         NMat0=    1 NMatS0=      1 NMatT0=    0 NMatD0=    1 NMtDS0=    0 NMtDT0=    0
 Symmetry not used in FoFCou.
 E= -155.512094971528    
 DIIS: error= 3.44D-02 at cycle   1 NSaved=   1.
 NSaved= 1 IEnMin= 1 EnMin= -155.512094971528     IErMin= 1 ErrMin= 3.44D-02
 ErrMax= 3.44D-02  0.00D+00 EMaxC= 1.00D-01 BMatC= 2.48D-01 BMatP= 2.48D-01
 IDIUse=3 WtCom= 6.56D-01 WtEn= 3.44D-01
 Coeff-Com:  0.100D+01
 Coeff-En:   0.100D+01
 Coeff:      0.100D+01
 Gap=     0.298 Goal=   None    Shift=    0.000
 GapD=    0.298 DampG=1.000 DampE=0.500 DampFc=0.5000 IDamp=-1.
 Damping current iteration by 5.00D-01
 RMSDP=9.75D-04 MaxDP=5.34D-02              OVMax= 1.92D-01

 Cycle   2  Pass 0  IDiag  1:
 RMSU=  4.51D-04    CP:  9.51D-01
 E= -155.609089787889     Delta-E=       -0.096994816361 Rises=F Damp=T
 DIIS: error= 1.18D-02 at cycle   2 NSaved=   2.
 NSaved= 2 IEnMin= 2 EnMin= -155.609089787889     IErMin= 2 ErrMin= 1.18D-02
 ErrMax= 1.18D-02  0.00D+00 EMaxC= 1.00D-01 BMatC= 2.93D-02 BMatP= 2.48D-01
 IDIUse=3 WtCom= 8.82D-01 WtEn= 1.18D-01
 Coeff-Com: -0.292D+00 0.129D+01
 Coeff-En:   0.000D+00 0.100D+01
 Coeff:     -0.258D+00 0.126D+01
 Gap=     0.355 Goal=   None    Shift=    0.000
 RMSDP=2.93D-04 MaxDP=7.88D-03 DE=-9.70D-02 OVMax= 9.36D-02

 Cycle   3  Pass 0  IDiag  1:
 RMSU=  2.85D-04    CP:  9.34D-01  9.96D-01
 E= -155.693491957588     Delta-E=       -0.084402169699 Rises=F Damp=F
 DIIS: error= 4.33D-03 at cycle   3 NSaved=   3.
 NSaved= 3 IEnMin= 3 EnMin= -155.693491957588     IErMin= 3 ErrMin= 4.33D-03
 ErrMax= 4.33D-03  0.00D+00 EMaxC= 1.00D-01 BMatC= 1.86D-03 BMatP= 2.93D-02
 IDIUse=3 WtCom= 9.57D-01 WtEn= 4.33D-02
 Coeff-Com: -0.112D+00 0.220D+00 0.891D+00
 Coeff-En:   0.000D+00 0.000D+00 0.100D+01
 Coeff:     -0.107D+00 0.211D+00 0.896D+00
 Gap=     0.293 Goal=   None    Shift=    0.000
 RMSDP=6.99D-05 MaxDP=4.30D-03 DE=-8.44D-02 OVMax= 2.20D-02

 Cycle   4  Pass 0  IDiag  1:
 RMSU=  5.06D-05    CP:  9.30D-01  1.09D+00  9.48D-01
 E= -155.694978858546     Delta-E=       -0.001486900958 Rises=F Damp=F
 DIIS: error= 2.70D-03 at cycle   4 NSaved=   4.
 NSaved= 4 IEnMin= 4 EnMin= -155.694978858546     IErMin= 4 ErrMin= 2.70D-03
 ErrMax= 2.70D-03  0.00D+00 EMaxC= 1.00D-01 BMatC= 5.46D-04 BMatP= 1.86D-03
 IDIUse=3 WtCom= 9.73D-01 WtEn= 2.70D-02
 Coeff-Com: -0.511D-01 0.838D-01 0.471D+00 0.497D+00
 Coeff-En:   0.000D+00 0.000D+00 0.103D+00 0.897D+00
 Coeff:     -0.497D-01 0.815D-01 0.461D+00 0.508D+00
 Gap=     0.293 Goal=   None    Shift=    0.000
 RMSDP=2.89D-05 MaxDP=1.40D-03 DE=-1.49D-03 OVMax= 8.61D-03

 Cycle   5  Pass 0  IDiag  1:
 RMSU=  1.65D-05    CP:  9.30D-01  1.08D+00  9.92D-01  6.15D-01
 E= -155.695507274947     Delta-E=       -0.000528416401 Rises=F Damp=F
 DIIS: error= 3.06D-04 at cycle   5 NSaved=   5.
 NSaved= 5 IEnMin= 5 EnMin= -155.695507274947     IErMin= 5 ErrMin= 3.06D-04
 ErrMax= 3.06D-04  0.00D+00 EMaxC= 1.00D-01 BMatC= 5.89D-06 BMatP= 5.46D-04
 IDIUse=3 WtCom= 9.97D-01 WtEn= 3.06D-03
 Coeff-Com: -0.348D-02 0.338D-02 0.424D-01 0.115D+00 0.842D+00
 Coeff-En:   0.000D+00 0.000D+00 0.000D+00 0.000D+00 0.100D+01
 Coeff:     -0.347D-02 0.337D-02 0.422D-01 0.115D+00 0.843D+00
 Gap=     0.293 Goal=   None    Shift=    0.000
 RMSDP=4.66D-06 MaxDP=1.49D-04 DE=-5.28D-04 OVMax= 1.26D-03

 Initial convergence to 1.0D-05 achieved.  Increase integral accuracy.
 Cycle   6  Pass 1  IDiag  1:
 E= -155.695526311221     Delta-E=       -0.000019036274 Rises=F Damp=F
 DIIS: error= 4.16D-05 at cycle   1 NSaved=   1.
 NSaved= 1 IEnMin= 1 EnMin= -155.695526311221     IErMin= 1 ErrMin= 4.16D-05
 ErrMax= 4.16D-05  0.00D+00 EMaxC= 1.00D-01 BMatC= 5.34D-07 BMatP= 5.34D-07
 IDIUse=1 WtCom= 1.00D+00 WtEn= 0.00D+00
 Coeff-Com:  0.100D+01
 Coeff:      0.100D+01
 Gap=     0.293 Goal=   None    Shift=    0.000
 RMSDP=4.66D-06 MaxDP=1.49D-04 DE=-1.90D-05 OVMax= 3.78D-04

 Cycle   7  Pass 1  IDiag  1:
 RMSU=  1.50D-05    CP:  1.00D+00
 E= -155.695526643855     Delta-E=       -0.000000332634 Rises=F Damp=F
 DIIS: error= 2.62D-05 at cycle   2 NSaved=   2.
 NSaved= 2 IEnMin= 2 EnMin= -155.695526643855     IErMin= 2 ErrMin= 2.62D-05
 ErrMax= 2.62D-05  0.00D+00 EMaxC= 1.00D-01 BMatC= 1.18D-07 BMatP= 5.34D-07
 IDIUse=1 WtCom= 1.00D+00 WtEn= 0.00D+00
 Coeff-Com:  0.252D+00 0.748D+00
 Coeff:      0.252D+00 0.748D+00
 Gap=     0.293 Goal=   None    Shift=    0.000
 RMSDP=9.39D-07 MaxDP=3.12D-05 DE=-3.33D-07 OVMax= 2.01D-04

 Cycle   8  Pass 1  IDiag  1:
 RMSU=  7.74D-07    CP:  1.00D+00  1.04D+00
 E= -155.695526727114     Delta-E=       -0.000000083259 Rises=F Damp=F
 DIIS: error= 2.06D-05 at cycle   3 NSaved=   3.
 NSaved= 3 IEnMin= 3 EnMin= -155.695526727114     IErMin= 3 ErrMin= 2.06D-05
 ErrMax= 2.06D-05  0.00D+00 EMaxC= 1.00D-01 BMatC= 3.71D-08 BMatP= 1.18D-07
 IDIUse=1 WtCom= 1.00D+00 WtEn= 0.00D+00
 Coeff-Com: -0.126D-01 0.350D+00 0.662D+00
 Coeff:     -0.126D-01 0.350D+00 0.662D+00
 Gap=     0.293 Goal=   None    Shift=    0.000
 RMSDP=4.10D-07 MaxDP=1.61D-05 DE=-8.33D-08 OVMax= 1.09D-04

 Cycle   9  Pass 1  IDiag  1:
 RMSU=  3.26D-07    CP:  1.00D+00  1.05D+00  1.00D+00
 E= -155.695526764334     Delta-E=       -0.000000037220 Rises=F Damp=F
 DIIS: error= 3.49D-06 at cycle   4 NSaved=   4.
 NSaved= 4 IEnMin= 4 EnMin= -155.695526764334     IErMin= 4 ErrMin= 3.49D-06
 ErrMax= 3.49D-06  0.00D+00 EMaxC= 1.00D-01 BMatC= 1.15D-09 BMatP= 3.71D-08
 IDIUse=1 WtCom= 1.00D+00 WtEn= 0.00D+00
 Coeff-Com: -0.140D-01 0.905D-01 0.234D+00 0.690D+00
 Coeff:     -0.140D-01 0.905D-01 0.234D+00 0.690D+00
 Gap=     0.293 Goal=   None    Shift=    0.000
 RMSDP=8.60D-08 MaxDP=4.09D-06 DE=-3.72D-08 OVMax= 1.83D-05

 Cycle  10  Pass 1  IDiag  1:
 RMSU=  5.98D-08    CP:  1.00D+00  1.05D+00  1.06D+00  1.07D+00
 E= -155.695526765775     Delta-E=       -0.000000001441 Rises=F Damp=F
 DIIS: error= 9.08D-07 at cycle   5 NSaved=   5.
 NSaved= 5 IEnMin= 5 EnMin= -155.695526765775     IErMin= 5 ErrMin= 9.08D-07
 ErrMax= 9.08D-07  0.00D+00 EMaxC= 1.00D-01 BMatC= 1.15D-10 BMatP= 1.15D-09
 IDIUse=1 WtCom= 1.00D+00 WtEn= 0.00D+00
 Coeff-Com: -0.152D-02-0.351D-01-0.469D-01 0.180D+00 0.903D+00
 Coeff:     -0.152D-02-0.351D-01-0.469D-01 0.180D+00 0.903D+00
 Gap=     0.293 Goal=   None    Shift=    0.000
 RMSDP=4.14D-08 MaxDP=1.71D-06 DE=-1.44D-09 OVMax= 1.02D-05

 Cycle  11  Pass 1  IDiag  1:
 RMSU=  2.09D-08    CP:  1.00D+00  1.06D+00  1.08D+00  1.16D+00  1.06D+00
 E= -155.695526765985     Delta-E=       -0.000000000211 Rises=F Damp=F
 DIIS: error= 2.77D-07 at cycle   6 NSaved=   6.
 NSaved= 6 IEnMin= 6 EnMin= -155.695526765985     IErMin= 6 ErrMin= 2.77D-07
 ErrMax= 2.77D-07  0.00D+00 EMaxC= 1.00D-01 BMatC= 7.16D-12 BMatP= 1.15D-10
 IDIUse=1 WtCom= 1.00D+00 WtEn= 0.00D+00
 Coeff-Com:  0.680D-03-0.176D-01-0.314D-01-0.226D-02 0.258D+00 0.792D+00
 Coeff:      0.680D-03-0.176D-01-0.314D-01-0.226D-02 0.258D+00 0.792D+00
 Gap=     0.293 Goal=   None    Shift=    0.000
 RMSDP=6.80D-09 MaxDP=1.96D-07 DE=-2.11D-10 OVMax= 2.07D-06

 SCF Done:  E(RB2PLYPD3) =  -155.695526766     A.U. after   11 cycles
            NFock= 11  Conv=0.68D-08     -V/T= 2.0047
 KE= 1.549735825258D+02 PE=-5.679736134169D+02 EE= 1.537206007824D+02
 Leave Link  502 at Wed Aug 26 22:11:20 2020, MaxMem=  2097152000 cpu:      1467.9
 (Enter /opt/cluster/programs/g09/g09_d.01/g09/l801.exe)
 DoSCS=T DFT=T ScalE2(SS,OS)=  0.270000  0.270000
 ExpMin= 7.60D-02 ExpMax= 6.70D+04 ExpMxC= 6.47D+02 IAcc=3 IRadAn=         5 AccDes= 0.00D+00
 HarFok:  IExCor=  205 AccDes= 0.00D+00 IRadAn=         5 IDoV=-2 UseB2=F ITyADJ=14
 ICtDFT= 12500011 ScaDFX=  1.000000  1.000000  1.000000  1.000000
 Largest valence mixing into a core orbital is  1.12D-04
 Largest core mixing into a valence orbital is  2.04D-05
 Range of M.O.s used for correlation:     5   408
 NBasis=   408 NAE=    15 NBE=    15 NFC=     4 NFV=     0
 NROrb=    404 NOA=    11 NOB=    11 NVA=   393 NVB=   393

 **** Warning!!: The largest alpha MO coefficient is  0.24797123D+02

 Leave Link  801 at Wed Aug 26 22:11:20 2020, MaxMem=  2097152000 cpu:         0.9
 (Enter /opt/cluster/programs/g09/g09_d.01/g09/l906.exe)
 DoSCS=T DFT=T ScalE2(SS,OS)=  0.270000  0.270000
 FulOut=F Deriv=F AODrv=F NAtomX=    10
   MMem=         881  MDisk=          11 MDiskD=          11
  W3Min=     2152854 MinDsk=     3857222 NBas6D=         498
 NBas2D=      125763    NTT=      124251    LW2=     4508827
    MDV=  2096383564 MDiskM=        9345 NBas2p=      117342
 Fully direct method using O(OVN) memory.
 IMap=   1   2   3   4   5   6   7   8   9  10  11
 JobTyp=1 Pass  1:  I=   1 to  11 NPSUse=  8 ParTrn=T ParDer=T DoDerP=F.
 Spin components of T(2) and E(2):
     alpha-alpha T2 =       0.4246895033D-01 E2=     -0.2548251522D-01
     alpha-beta  T2 =       0.2758532857D+00 E2=     -0.1755651650D+00
     beta-beta   T2 =       0.4246895033D-01 E2=     -0.2548251522D-01
 The integrals were generated   1 times.
 E2(B2PLYPD3) =    -0.2265301954D+00 E(B2PLYPD3) =    -0.15592205696140D+03
 Leave Link  906 at Wed Aug 26 22:12:51 2020, MaxMem=  2097152000 cpu:       726.6
 (Enter /opt/cluster/programs/g09/g09_d.01/g09/l601.exe)
 Copying SCF densities to generalized density rwf, IOpCl= 0 IROHF=0.

 **********************************************************************

            Population analysis using the SCF density.

 **********************************************************************

 Orbital symmetries:
       Occupied  (A) (A) (A) (A) (A) (A) (A) (A) (A) (A) (A) (A)
                 (A) (A) (A)
       Virtual   (A) (A) (A) (A) (A) (A) (A) (A) (A) (A) (A) (A)
                 (A) (A) (A) (A) (A) (A) (A) (A) (A) (A) (A) (A)
                 (A) (A) (A) (A) (A) (A) (A) (A) (A) (A) (A) (A)
                 (A) (A) (A) (A) (A) (A) (A) (A) (A) (A) (A) (A)
                 (A) (A) (A) (A) (A) (A) (A) (A) (A) (A) (A) (A)
                 (A) (A) (A) (A) (A) (A) (A) (A) (A) (A) (A) (A)
                 (A) (A) (A) (A) (A) (A) (A) (A) (A) (A) (A) (A)
                 (A) (A) (A) (A) (A) (A) (A) (A) (A) (A) (A) (A)
                 (A) (A) (A) (A) (A) (A) (A) (A) (A) (A) (A) (A)
                 (A) (A) (A) (A) (A) (A) (A) (A) (A) (A) (A) (A)
                 (A) (A) (A) (A) (A) (A) (A) (A) (A) (A) (A) (A)
                 (A) (A) (A) (A) (A) (A) (A) (A) (A) (A) (A) (A)
                 (A) (A) (A) (A) (A) (A) (A) (A) (A) (A) (A) (A)
                 (A) (A) (A) (A) (A) (A) (A) (A) (A) (A) (A) (A)
                 (A) (A) (A) (A) (A) (A) (A) (A) (A) (A) (A) (A)
                 (A) (A) (A) (A) (A) (A) (A) (A) (A) (A) (A) (A)
                 (A) (A) (A) (A) (A) (A) (A) (A) (A) (A) (A) (A)
                 (A) (A) (A) (A) (A) (A) (A) (A) (A) (A) (A) (A)
                 (A) (A) (A) (A) (A) (A) (A) (A) (A) (A) (A) (A)
                 (A) (A) (A) (A) (A) (A) (A) (A) (A) (A) (A) (A)
                 (A) (A) (A) (A) (A) (A) (A) (A) (A) (A) (A) (A)
                 (A) (A) (A) (A) (A) (A) (A) (A) (A) (A) (A) (A)
                 (A) (A) (A) (A) (A) (A) (A) (A) (A) (A) (A) (A)
                 (A) (A) (A) (A) (A) (A) (A) (A) (A) (A) (A) (A)
                 (A) (A) (A) (A) (A) (A) (A) (A) (A) (A) (A) (A)
                 (A) (A) (A) (A) (A) (A) (A) (A) (A) (A) (A) (A)
                 (A) (A) (A) (A) (A) (A) (A) (A) (A) (A) (A) (A)
                 (A) (A) (A) (A) (A) (A) (A) (A) (A) (A) (A) (A)
                 (A) (A) (A) (A) (A) (A) (A) (A) (A) (A) (A) (A)
                 (A) (A) (A) (A) (A) (A) (A) (A) (A) (A) (A) (A)
                 (A) (A) (A) (A) (A) (A) (A) (A) (A) (A) (A) (A)
                 (A) (A) (A) (A) (A) (A) (A) (A) (A) (A) (A) (A)
                 (A) (A) (A) (A) (A) (A) (A) (A) (A)
 The electronic state is 1-A.
 Alpha  occ. eigenvalues --  -10.63256 -10.62721 -10.61945 -10.61632  -0.92837
 Alpha  occ. eigenvalues --   -0.84556  -0.69747  -0.63938  -0.54329  -0.53513
 Alpha  occ. eigenvalues --   -0.46643  -0.44963  -0.40903  -0.38094  -0.27624
 Alpha virt. eigenvalues --    0.01720   0.06991   0.07252   0.07965   0.09208
 Alpha virt. eigenvalues --    0.11646   0.12497   0.14593   0.15712   0.16247
 Alpha virt. eigenvalues --    0.18741   0.19903   0.22165   0.23137   0.23453
 Alpha virt. eigenvalues --    0.26379   0.26975   0.29333   0.31236   0.33963
 Alpha virt. eigenvalues --    0.35265   0.36479   0.36964   0.37353   0.39604
 Alpha virt. eigenvalues --    0.42261   0.43186   0.45616   0.46942   0.48087
 Alpha virt. eigenvalues --    0.49727   0.50055   0.53683   0.54487   0.57295
 Alpha virt. eigenvalues --    0.58115   0.59678   0.64100   0.66264   0.68338
 Alpha virt. eigenvalues --    0.69071   0.72012   0.76452   0.77772   0.78506
 Alpha virt. eigenvalues --    0.79956   0.80953   0.81595   0.82380   0.84139
 Alpha virt. eigenvalues --    0.84685   0.85426   0.85706   0.87052   0.89533
 Alpha virt. eigenvalues --    0.92292   0.93723   0.94024   0.95140   0.95491
 Alpha virt. eigenvalues --    0.98639   0.98935   1.00557   1.03032   1.04668
 Alpha virt. eigenvalues --    1.05807   1.07853   1.09938   1.12065   1.13728
 Alpha virt. eigenvalues --    1.14353   1.16716   1.19167   1.21103   1.22199
 Alpha virt. eigenvalues --    1.24284   1.25139   1.33064   1.34149   1.35972
 Alpha virt. eigenvalues --    1.37139   1.40468   1.45952   1.57044   1.62335
 Alpha virt. eigenvalues --    1.63557   1.66981   1.70477   1.71370   1.73982
 Alpha virt. eigenvalues --    1.78468   1.82173   1.82382   1.84537   1.88399
 Alpha virt. eigenvalues --    1.90620   1.90940   1.92355   1.94028   1.94520
 Alpha virt. eigenvalues --    1.95646   1.99672   2.00060   2.00540   2.02470
 Alpha virt. eigenvalues --    2.03187   2.06142   2.07181   2.08543   2.09299
 Alpha virt. eigenvalues --    2.09658   2.11702   2.13881   2.17109   2.17540
 Alpha virt. eigenvalues --    2.19462   2.21506   2.23607   2.26583   2.27357
 Alpha virt. eigenvalues --    2.29902   2.31998   2.33162   2.37541   2.42107
 Alpha virt. eigenvalues --    2.43801   2.45612   2.46533   2.48713   2.49555
 Alpha virt. eigenvalues --    2.51750   2.53069   2.54527   2.57037   2.57780
 Alpha virt. eigenvalues --    2.59395   2.59668   2.62803   2.63509   2.64847
 Alpha virt. eigenvalues --    2.66716   2.68906   2.68987   2.71312   2.72977
 Alpha virt. eigenvalues --    2.73466   2.75432   2.77356   2.77717   2.78230
 Alpha virt. eigenvalues --    2.81471   2.86674   2.90100   2.92210   2.93290
 Alpha virt. eigenvalues --    2.93792   3.01699   3.02241   3.06030   3.07909
 Alpha virt. eigenvalues --    3.10834   3.12034   3.23542   3.31329   3.33945
 Alpha virt. eigenvalues --    3.35904   3.38777   3.40425   3.41121   3.45496
 Alpha virt. eigenvalues --    3.46617   3.48677   3.51249   3.52023   3.56275
 Alpha virt. eigenvalues --    3.58152   3.60316   3.63405   3.66481   3.76431
 Alpha virt. eigenvalues --    3.78936   3.81293   3.82103   3.87398   3.89859
 Alpha virt. eigenvalues --    3.91258   3.94325   3.94628   4.03594   4.11462
 Alpha virt. eigenvalues --    4.13940   4.15532   4.17714   4.23833   4.46565
 Alpha virt. eigenvalues --    4.52738   4.56014   4.58709   4.86422   4.97361
 Alpha virt. eigenvalues --    4.99471   5.03093   5.04957   5.05793   5.08616
 Alpha virt. eigenvalues --    5.11578   5.17410   5.20585   5.26744   5.31120
 Alpha virt. eigenvalues --    5.34357   5.36564   5.40794   5.44722   5.47850
 Alpha virt. eigenvalues --    5.53042   5.53946   5.57998   5.61879   5.64925
 Alpha virt. eigenvalues --    5.66637   5.70958   5.73361   5.75811   5.77285
 Alpha virt. eigenvalues --    5.78716   5.81331   5.81982   5.85577   5.86080
 Alpha virt. eigenvalues --    5.88815   5.91253   5.98456   6.01349   6.02702
 Alpha virt. eigenvalues --    6.04646   6.05868   6.08037   6.10675   6.11923
 Alpha virt. eigenvalues --    6.13563   6.14418   6.16981   6.18536   6.18880
 Alpha virt. eigenvalues --    6.20818   6.22478   6.25564   6.27004   6.28040
 Alpha virt. eigenvalues --    6.32232   6.33198   6.34025   6.36935   6.38001
 Alpha virt. eigenvalues --    6.38572   6.39234   6.42538   6.44280   6.45261
 Alpha virt. eigenvalues --    6.48392   6.49274   6.53534   6.56044   6.60337
 Alpha virt. eigenvalues --    6.61965   6.63237   6.66818   6.69787   6.75778
 Alpha virt. eigenvalues --    6.77492   6.82897   6.86487   6.86988   6.89258
 Alpha virt. eigenvalues --    6.90902   6.91997   6.95194   7.02016   7.05516
 Alpha virt. eigenvalues --    7.09707   7.12746   7.14051   7.18476   7.21062
 Alpha virt. eigenvalues --    7.22013   7.25347   7.32060   7.33577   7.41205
 Alpha virt. eigenvalues --    7.47292   7.51506   7.52411   7.54490   7.55866
 Alpha virt. eigenvalues --    7.58519   7.61460   7.64289   7.64674   7.67498
 Alpha virt. eigenvalues --    7.69339   7.70524   7.72372   7.73378   7.76199
 Alpha virt. eigenvalues --    7.77523   7.81295   7.85268   7.90389   7.92967
 Alpha virt. eigenvalues --    7.93537   7.95100   8.03425   8.09416   8.11645
 Alpha virt. eigenvalues --    8.13785   8.14786   8.17195   8.20251   8.24040
 Alpha virt. eigenvalues --    8.27695   8.28625   8.30327   8.31230   8.33047
 Alpha virt. eigenvalues --    8.34169   8.36709   8.38772   8.39939   8.40122
 Alpha virt. eigenvalues --    8.42414   8.46630   8.48281   8.50505   8.55592
 Alpha virt. eigenvalues --    8.56733   8.57917   8.60355   8.62042   8.66473
 Alpha virt. eigenvalues --    8.70372   8.72169   8.75320   8.77273   8.80447
 Alpha virt. eigenvalues --    8.84816   8.89436   8.90383   8.99896   9.04513
 Alpha virt. eigenvalues --    9.11470   9.16979   9.23481   9.26994   9.38638
 Alpha virt. eigenvalues --    9.50197   9.59341   9.68220   9.72123   9.80624
 Alpha virt. eigenvalues --    9.84354   9.86116   9.93146   9.97199  10.01128
 Alpha virt. eigenvalues --   10.03952  10.09211  10.13846  10.16915  10.20217
 Alpha virt. eigenvalues --   10.23529  10.27860  10.39603  10.63623  10.80570
 Alpha virt. eigenvalues --   10.93495  11.15106  11.33805  11.52717  11.94816
 Alpha virt. eigenvalues --   12.02943  12.82922  12.96981  13.03503  13.07178
 Alpha virt. eigenvalues --   28.57961  28.73868  29.43490  29.59450 148.16646
 Alpha virt. eigenvalues --  148.31383 149.02141 149.19019
          Condensed to atoms (all electrons):
               1          2          3          4          5          6
     1  C    4.838857   0.621972  -0.087196  -0.002115   0.418133   0.423051
     2  C    0.621972   4.830751   0.406333  -0.081092  -0.041231  -0.041868
     3  C   -0.087196   0.406333   4.831081   0.609694   0.007637  -0.007914
     4  C   -0.002115  -0.081092   0.609694   4.851046  -0.000648   0.000446
     5  H    0.418133  -0.041231   0.007637  -0.000648   0.602601  -0.052115
     6  H    0.423051  -0.041868  -0.007914   0.000446  -0.052115   0.602593
     7  H   -0.044012   0.407423  -0.054893  -0.000939  -0.008034   0.006642
     8  H   -0.002054  -0.059196   0.410188  -0.047844   0.000010   0.003951
     9  H    0.000351  -0.008888  -0.050155   0.424379  -0.000034   0.000042
    10  H   -0.000692   0.007453  -0.042564   0.422106   0.000030  -0.000048
               7          8          9         10
     1  C   -0.044012  -0.002054   0.000351  -0.000692
     2  C    0.407423  -0.059196  -0.008888   0.007453
     3  C   -0.054893   0.410188  -0.050155  -0.042564
     4  C   -0.000939  -0.047844   0.424379   0.422106
     5  H   -0.008034   0.000010  -0.000034   0.000030
     6  H    0.006642   0.003951   0.000042  -0.000048
     7  H    0.619754   0.006415   0.004716  -0.000157
     8  H    0.006415   0.635331   0.007840  -0.009119
     9  H    0.004716   0.007840   0.600613  -0.043826
    10  H   -0.000157  -0.009119  -0.043826   0.583014
 Mulliken charges:
               1
     1  C   -0.166297
     2  C   -0.041656
     3  C   -0.022212
     4  C   -0.175034
     5  H    0.073650
     6  H    0.065221
     7  H    0.063085
     8  H    0.054477
     9  H    0.064962
    10  H    0.083803
 Sum of Mulliken charges =   0.00000
 Mulliken charges with hydrogens summed into heavy atoms:
               1
     1  C   -0.027426
     2  C    0.021429
     3  C    0.032265
     4  C   -0.026268
 Electronic spatial extent (au):  <R**2>=            335.2036
 Charge=              0.0000 electrons
 Dipole moment (field-independent basis, Debye):
    X=             -0.0440    Y=             -0.0088    Z=              0.0252  Tot=              0.0514
 Quadrupole moment (field-independent basis, Debye-Ang):
   XX=            -23.5372   YY=            -23.0982   ZZ=            -29.3874
   XY=              0.3890   XZ=              0.3068   YZ=              0.0117
 Traceless Quadrupole moment (field-independent basis, Debye-Ang):
   XX=              1.8037   YY=              2.2427   ZZ=             -4.0464
   XY=              0.3890   XZ=              0.3068   YZ=              0.0117
 Octapole moment (field-independent basis, Debye-Ang**2):
  XXX=             -0.7659  YYY=              0.2315  ZZZ=              0.0031  XYY=              0.0277
  XXY=             -1.0118  XXZ=              0.3884  XZZ=              0.0606  YZZ=              0.0042
  YYZ=              0.0893  XYZ=             -0.2484
 Hexadecapole moment (field-independent basis, Debye-Ang**3):
 XXXX=           -341.7616 YYYY=            -66.4430 ZZZZ=            -37.2014 XXXY=             -3.7043
 XXXZ=              3.0758 YYYX=              2.4718 YYYZ=              0.2629 ZZZX=              0.4298
 ZZZY=             -0.0074 XXYY=            -68.9420 XXZZ=            -77.2645 YYZZ=            -19.6386
 XXYZ=             -0.5489 YYXZ=              0.1931 ZZXY=              0.6649
 N-N= 1.035839033427D+02 E-N=-5.679736042643D+02  KE= 1.549735825258D+02
 Leave Link  601 at Wed Aug 26 22:12:51 2020, MaxMem=  2097152000 cpu:         0.7
 (Enter /opt/cluster/programs/g09/g09_d.01/g09/l9999.exe)
 1\1\GINC-NODE31\SP\RB2PLYPD3-FC\def2QZVP\C4H6\BOITTIER\26-Aug-2020\0\\
 #p B2PLYPD3/Def2QZVP\\butadiene\\0,1\C,0,-3.821257,0.241473,-0.02589\C
 ,0,-2.720345,-0.536601,0.078761\C,0,-1.389414,0.065842,0.052439\C,0,-0
 .269869,-0.641824,0.003037\H,0,-4.845374,-0.1568,0.036853\H,0,-3.83131
 5,1.317919,-0.005032\H,0,-2.797095,-1.631835,0.038525\H,0,-1.357037,1.
 177749,0.011473\H,0,-0.310585,-1.718254,0.053772\H,0,0.739147,-0.17005
 9,-0.100123\\Version=ES64L-G09RevD.01\State=1-A\HF=-155.6955268\MP2=-1
 55.922057\RMSD=6.803e-09\PG=C01 [X(C4H6)]\\@


 MORNING PEOPLE ARE USUALLY ADMIRED AS EARLY BIRDS.
 RECALL BEN FRANKLIN'S APHORISM THAT THE EARLY BIRD GETS THE WORM.
 I IDENTIFY WITH THE WORM. --  CRAIG JAGGER, MINNEAPOLIS, KS.
 Job cpu time:       0 days  0 hours 36 minutes 50.9 seconds.
 File lengths (MBytes):  RWF=     92 Int=      0 D2E=      0 Chk=      9 Scr=      1
 Normal termination of Gaussian 09 at Wed Aug 26 22:12:51 2020.
