 Entering Gaussian System, Link 0=/opt/cluster/programs/g09/g09_d.01/g09//g09
 Input=/home/boittier/MDCM/nms_sampling/butadiene_geom.xyz.dir/energies/butadiene_688_energy.com
 Output=/scratch/boittier/butadiene_688_energy/butadiene_688_energy.out
 Initial command:
 /opt/cluster/programs/g09/g09_d.01/g09/l1.exe "/scratch/boittier/butadiene_688_energy/Gau-99877.inp" -scrdir="/scratch/boittier/butadiene_688_energy/"
 Entering Link 1 = /opt/cluster/programs/g09/g09_d.01/g09/l1.exe PID=     99878.
  
 Copyright (c) 1988,1990,1992,1993,1995,1998,2003,2009,2013,
            Gaussian, Inc.  All Rights Reserved.
  
 This is part of the Gaussian(R) 09 program.  It is based on
 the Gaussian(R) 03 system (copyright 2003, Gaussian, Inc.),
 the Gaussian(R) 98 system (copyright 1998, Gaussian, Inc.),
 the Gaussian(R) 94 system (copyright 1995, Gaussian, Inc.),
 the Gaussian 92(TM) system (copyright 1992, Gaussian, Inc.),
 the Gaussian 90(TM) system (copyright 1990, Gaussian, Inc.),
 the Gaussian 88(TM) system (copyright 1988, Gaussian, Inc.),
 the Gaussian 86(TM) system (copyright 1986, Carnegie Mellon
 University), and the Gaussian 82(TM) system (copyright 1983,
 Carnegie Mellon University). Gaussian is a federally registered
 trademark of Gaussian, Inc.
  
 This software contains proprietary and confidential information,
 including trade secrets, belonging to Gaussian, Inc.
  
 This software is provided under written license and may be
 used, copied, transmitted, or stored only in accord with that
 written license.
  
 The following legend is applicable only to US Government
 contracts under FAR:
  
                    RESTRICTED RIGHTS LEGEND
  
 Use, reproduction and disclosure by the US Government is
 subject to restrictions as set forth in subparagraphs (a)
 and (c) of the Commercial Computer Software - Restricted
 Rights clause in FAR 52.227-19.
  
 Gaussian, Inc.
 340 Quinnipiac St., Bldg. 40, Wallingford CT 06492
  
  
 ---------------------------------------------------------------
 Warning -- This program may not be used in any manner that
 competes with the business of Gaussian, Inc. or will provide
 assistance to any competitor of Gaussian, Inc.  The licensee
 of this program is prohibited from giving any competitor of
 Gaussian, Inc. access to this program.  By using this program,
 the user acknowledges that Gaussian, Inc. is engaged in the
 business of creating and licensing software in the field of
 computational chemistry and represents and warrants to the
 licensee that it is not a competitor of Gaussian, Inc. and that
 it will not use this program in any manner prohibited above.
 ---------------------------------------------------------------
  

 Cite this work as:
 Gaussian 09, Revision D.01,
 M. J. Frisch, G. W. Trucks, H. B. Schlegel, G. E. Scuseria, 
 M. A. Robb, J. R. Cheeseman, G. Scalmani, V. Barone, B. Mennucci, 
 G. A. Petersson, H. Nakatsuji, M. Caricato, X. Li, H. P. Hratchian, 
 A. F. Izmaylov, J. Bloino, G. Zheng, J. L. Sonnenberg, M. Hada, 
 M. Ehara, K. Toyota, R. Fukuda, J. Hasegawa, M. Ishida, T. Nakajima, 
 Y. Honda, O. Kitao, H. Nakai, T. Vreven, J. A. Montgomery, Jr., 
 J. E. Peralta, F. Ogliaro, M. Bearpark, J. J. Heyd, E. Brothers, 
 K. N. Kudin, V. N. Staroverov, T. Keith, R. Kobayashi, J. Normand, 
 K. Raghavachari, A. Rendell, J. C. Burant, S. S. Iyengar, J. Tomasi, 
 M. Cossi, N. Rega, J. M. Millam, M. Klene, J. E. Knox, J. B. Cross, 
 V. Bakken, C. Adamo, J. Jaramillo, R. Gomperts, R. E. Stratmann, 
 O. Yazyev, A. J. Austin, R. Cammi, C. Pomelli, J. W. Ochterski, 
 R. L. Martin, K. Morokuma, V. G. Zakrzewski, G. A. Voth, 
 P. Salvador, J. J. Dannenberg, S. Dapprich, A. D. Daniels, 
 O. Farkas, J. B. Foresman, J. V. Ortiz, J. Cioslowski, 
 and D. J. Fox, Gaussian, Inc., Wallingford CT, 2013.
 
 ******************************************
 Gaussian 09:  ES64L-G09RevD.01 24-Apr-2013
                26-Aug-2020 
 ******************************************
 %chk=/home/boittier/MDCM/nms_sampling/butadiene_geom.xyz.dir/butadiene_688.chk
 %nproc=8
 Will use up to    8 processors via shared memory.
 %mem=16000MB
 --------------------
 #p B2PLYPD3/Def2QZVP
 --------------------
 1/38=1/1;
 2/12=2,17=6,18=5,40=1/2;
 3/5=45,7=101,11=9,16=1,25=1,30=1,74=-60/1,2,3;
 4//1;
 5/5=2,38=5/2;
 8/10=1/1;
 9/16=-3/6;
 6/7=2,8=2,9=2,10=2/1;
 99/5=1,9=1/99;
 Leave Link    1 at Wed Aug 26 20:09:14 2020, MaxMem=  2097152000 cpu:         0.4
 (Enter /opt/cluster/programs/g09/g09_d.01/g09/l101.exe)
 ---------
 butadiene
 ---------
 Symbolic Z-matrix:
 Charge =  0 Multiplicity = 1
 C                    -3.83355   0.22002   0.01037 
 C                    -2.70429  -0.49252   0.05436 
 C                    -1.39399   0.07617   0.03133 
 C                    -0.27417  -0.65981   0.01785 
 H                    -4.79503  -0.24727  -0.02707 
 H                    -3.86517   1.31072  -0.06033 
 H                    -2.74667  -1.58603   0.02375 
 H                    -1.3154    1.16228  -0.00262 
 H                    -0.34867  -1.74525   0.08459 
 H                     0.72706  -0.22634  -0.05749 
 
 NAtoms=     10 NQM=       10 NQMF=       0 NMMI=      0 NMMIF=      0
                NMic=       0 NMicF=      0.
                    Isotopes and Nuclear Properties:
 (Nuclear quadrupole moments (NQMom) in fm**2, nuclear magnetic moments (NMagM)
  in nuclear magnetons)

  Atom         1           2           3           4           5           6           7           8           9          10
 IAtWgt=          12          12          12          12           1           1           1           1           1           1
 AtmWgt=  12.0000000  12.0000000  12.0000000  12.0000000   1.0078250   1.0078250   1.0078250   1.0078250   1.0078250   1.0078250
 NucSpn=           0           0           0           0           1           1           1           1           1           1
 AtZEff=   0.0000000   0.0000000   0.0000000   0.0000000   0.0000000   0.0000000   0.0000000   0.0000000   0.0000000   0.0000000
 NQMom=    0.0000000   0.0000000   0.0000000   0.0000000   0.0000000   0.0000000   0.0000000   0.0000000   0.0000000   0.0000000
 NMagM=    0.0000000   0.0000000   0.0000000   0.0000000   2.7928460   2.7928460   2.7928460   2.7928460   2.7928460   2.7928460
 AtZNuc=   6.0000000   6.0000000   6.0000000   6.0000000   1.0000000   1.0000000   1.0000000   1.0000000   1.0000000   1.0000000
 Leave Link  101 at Wed Aug 26 20:09:40 2020, MaxMem=  2097152000 cpu:         0.7
 (Enter /opt/cluster/programs/g09/g09_d.01/g09/l202.exe)
                          Input orientation:                          
 ---------------------------------------------------------------------
 Center     Atomic      Atomic             Coordinates (Angstroms)
 Number     Number       Type             X           Y           Z
 ---------------------------------------------------------------------
      1          6           0       -3.833554    0.220018    0.010373
      2          6           0       -2.704288   -0.492521    0.054357
      3          6           0       -1.393990    0.076173    0.031334
      4          6           0       -0.274172   -0.659812    0.017845
      5          1           0       -4.795026   -0.247273   -0.027067
      6          1           0       -3.865171    1.310716   -0.060332
      7          1           0       -2.746673   -1.586027    0.023746
      8          1           0       -1.315398    1.162278   -0.002621
      9          1           0       -0.348670   -1.745253    0.084587
     10          1           0        0.727063   -0.226343   -0.057492
 ---------------------------------------------------------------------
                    Distance matrix (angstroms):
                    1          2          3          4          5
     1  C    0.000000
     2  C    1.335997   0.000000
     3  C    2.443891   1.428574   0.000000
     4  C    3.666518   2.436141   1.340093   0.000000
     5  H    1.069669   2.106647   3.416881   4.539860   0.000000
     6  H    1.093445   2.147665   2.763917   4.096873   1.814681
     7  H    2.107911   1.094755   2.143063   2.640297   2.447569
     8  H    2.688705   2.161162   1.089474   2.098710   3.754363
     9  H    4.001526   2.668181   2.100743   1.090040   4.693239
    10  H    4.582911   3.443477   2.144358   1.093637   5.522212
                    6          7          8          9         10
     6  H    0.000000
     7  H    3.106320   0.000000
     8  H    2.554742   3.098778   0.000000
     9  H    4.661086   2.404053   3.065274   0.000000
    10  H    4.842641   3.731244   2.470410   1.866675   0.000000
 Stoichiometry    C4H6
 Framework group  C1[X(C4H6)]
 Deg. of freedom    24
 Full point group                 C1      NOp   1
 Largest Abelian subgroup         C1      NOp   1
 Largest concise Abelian subgroup C1      NOp   1
                         Standard orientation:                         
 ---------------------------------------------------------------------
 Center     Atomic      Atomic             Coordinates (Angstroms)
 Number     Number       Type             X           Y           Z
 ---------------------------------------------------------------------
      1          6           0        1.830758    0.098972    0.002953
      2          6           0        0.589094   -0.393440   -0.023268
      3          6           0       -0.593389    0.408151   -0.019901
      4          6           0       -1.829937   -0.107385    0.012027
      5          1           0        2.689355   -0.536766    0.056235
      6          1           0        2.063703    1.166592    0.042258
      7          1           0        0.428649   -1.474584    0.038965
      8          1           0       -0.469708    1.490579   -0.017471
      9          1           0       -1.957614   -1.189348   -0.023205
     10          1           0       -2.733538    0.505729    0.072351
 ---------------------------------------------------------------------
 Rotational constants (GHZ):     42.4321818      4.5040997      4.0735250
 Leave Link  202 at Wed Aug 26 20:09:48 2020, MaxMem=  2097152000 cpu:         0.1
 (Enter /opt/cluster/programs/g09/g09_d.01/g09/l301.exe)
 Standard basis: def2QZVP (5D, 7F)
 Ernie: Thresh=  0.10000D-02 Tol=  0.10000D-05 Strict=F.
 There are   498 symmetry adapted cartesian basis functions of A   symmetry.
 There are   408 symmetry adapted basis functions of A   symmetry.
   408 basis functions,   596 primitive gaussians,   498 cartesian basis functions
    15 alpha electrons       15 beta electrons
       nuclear repulsion energy       104.2657752839 Hartrees.
 IExCor=  419 DFT=T Ex+Corr=B2PLYPD3 ExCW=0 ScaHFX=  0.530000
 ScaDFX=  0.470000  0.470000  0.730000  0.730000 ScalE2=  0.270000  0.270000
 IRadAn=      0 IRanWt=     -1 IRanGd=            0 ICorTp=0 IEmpDi=141
 NAtoms=   10 NActive=   10 NUniq=   10 SFac= 1.00D+00 NAtFMM=   60 NAOKFM=F Big=F
 Integral buffers will be    131072 words long.
 Regular integral format.
 Two-electron integral symmetry is turned on.
 R6Disp:  Grimme-D3(BJ) Dispersion energy=       -0.0048461338 Hartrees.
 Nuclear repulsion after empirical dispersion term =      104.2609291502 Hartrees.
 Leave Link  301 at Wed Aug 26 20:09:51 2020, MaxMem=  2097152000 cpu:         0.5
 (Enter /opt/cluster/programs/g09/g09_d.01/g09/l302.exe)
 NPDir=0 NMtPBC=     1 NCelOv=     1 NCel=       1 NClECP=     1 NCelD=      1
         NCelK=      1 NCelE2=     1 NClLst=     1 CellRange=     0.0.
 One-electron integrals computed using PRISM.
   1 Symmetry operations used in ECPInt.
 ECPInt:  NShTT=    8256 NPrTT=   19107 LenC2=    8059 LenP2D=   16130.
 LDataN:  DoStor=T MaxTD1= 8 Len=  415
 NBasis=   408 RedAO= T EigKep=  4.25D-05  NBF=   408
 NBsUse=   408 1.00D-06 EigRej= -1.00D+00 NBFU=   408
 Precomputing XC quadrature grid using
 IXCGrd= 4 IRadAn=           0 IRanWt=          -1 IRanGd=           0 AccXCQ= 0.00D+00.
 Generated NRdTot=       0 NPtTot=           0 NUsed=           0 NTot=          32
 NSgBfM=   498   498   498   498   498 MxSgAt=    10 MxSgA2=    10.
 Leave Link  302 at Wed Aug 26 20:09:54 2020, MaxMem=  2097152000 cpu:         4.3
 (Enter /opt/cluster/programs/g09/g09_d.01/g09/l303.exe)
 DipDrv:  MaxL=1.
 Leave Link  303 at Wed Aug 26 20:10:28 2020, MaxMem=  2097152000 cpu:         0.5
 (Enter /opt/cluster/programs/g09/g09_d.01/g09/l401.exe)
 ExpMin= 7.60D-02 ExpMax= 6.70D+04 ExpMxC= 6.47D+02 IAcc=2 IRadAn=         4 AccDes= 0.00D+00
 Harris functional with IExCor=  419 and IRadAn=       4 diagonalized for initial guess.
 HarFok:  IExCor=  419 AccDes= 0.00D+00 IRadAn=         4 IDoV= 1 UseB2=F ITyADJ=14
 ICtDFT=  3500011 ScaDFX=  1.000000  1.000000  1.000000  1.000000
 FoFCou: FMM=F IPFlag=           0 FMFlag=      100000 FMFlg1=           0
         NFxFlg=           0 DoJE=T BraDBF=F KetDBF=T FulRan=T
         wScrn=  0.000000 ICntrl=     500 IOpCl=  0 I1Cent=   200000004 NGrid=           0
         NMat0=    1 NMatS0=      1 NMatT0=    0 NMatD0=    1 NMtDS0=    0 NMtDT0=    0
 Petite list used in FoFCou.
 Harris En= -156.134561823601    
 JPrj=0 DoOrth=F DoCkMO=F.
 Leave Link  401 at Wed Aug 26 20:10:55 2020, MaxMem=  2097152000 cpu:        10.8
 (Enter /opt/cluster/programs/g09/g09_d.01/g09/l502.exe)
 Closed shell SCF:
 Using DIIS extrapolation, IDIIS=  1040.
 Integral symmetry usage will be decided dynamically.
 IVT=      770090 IEndB=      770090 NGot=  2097152000 MDV=  2096647053
 LenX=  2096647053 LenY=  2096398551
 Requested convergence on RMS density matrix=1.00D-08 within 128 cycles.
 Requested convergence on MAX density matrix=1.00D-06.
 Requested convergence on             energy=1.00D-06.
 No special actions if energy rises.
 Fock matrices will be formed incrementally for  20 cycles.
 Integral accuracy reduced to 1.0D-05 until final iterations.

 Cycle   1  Pass 0  IDiag  1:
 FoFJK:  IHMeth= 1 ICntrl=       0 DoSepK=F KAlg= 0 I1Cent=   0 FoldK=F
 IRaf= 940000000 NMat=   1 IRICut=       1 DoRegI=T DoRafI=F ISym2E= 0.
 FoFCou: FMM=F IPFlag=           0 FMFlag=      100000 FMFlg1=           0
         NFxFlg=           0 DoJE=F BraDBF=F KetDBF=F FulRan=T
         wScrn=  0.000000 ICntrl=       0 IOpCl=  0 I1Cent=           0 NGrid=           0
         NMat0=    1 NMatS0=      1 NMatT0=    0 NMatD0=    1 NMtDS0=    0 NMtDT0=    0
 Symmetry not used in FoFCou.
 E= -155.511717200870    
 DIIS: error= 3.88D-02 at cycle   1 NSaved=   1.
 NSaved= 1 IEnMin= 1 EnMin= -155.511717200870     IErMin= 1 ErrMin= 3.88D-02
 ErrMax= 3.88D-02  0.00D+00 EMaxC= 1.00D-01 BMatC= 2.53D-01 BMatP= 2.53D-01
 IDIUse=3 WtCom= 6.12D-01 WtEn= 3.88D-01
 Coeff-Com:  0.100D+01
 Coeff-En:   0.100D+01
 Coeff:      0.100D+01
 Gap=     0.294 Goal=   None    Shift=    0.000
 GapD=    0.294 DampG=1.000 DampE=0.500 DampFc=0.5000 IDamp=-1.
 Damping current iteration by 5.00D-01
 RMSDP=9.54D-04 MaxDP=5.01D-02              OVMax= 1.96D-01

 Cycle   2  Pass 0  IDiag  1:
 RMSU=  4.38D-04    CP:  9.51D-01
 E= -155.611027987155     Delta-E=       -0.099310786284 Rises=F Damp=T
 DIIS: error= 1.11D-02 at cycle   2 NSaved=   2.
 NSaved= 2 IEnMin= 2 EnMin= -155.611027987155     IErMin= 2 ErrMin= 1.11D-02
 ErrMax= 1.11D-02  0.00D+00 EMaxC= 1.00D-01 BMatC= 2.97D-02 BMatP= 2.53D-01
 IDIUse=3 WtCom= 8.89D-01 WtEn= 1.11D-01
 Coeff-Com: -0.292D+00 0.129D+01
 Coeff-En:   0.000D+00 0.100D+01
 Coeff:     -0.259D+00 0.126D+01
 Gap=     0.354 Goal=   None    Shift=    0.000
 RMSDP=2.67D-04 MaxDP=8.39D-03 DE=-9.93D-02 OVMax= 9.72D-02

 Cycle   3  Pass 0  IDiag  1:
 RMSU=  2.57D-04    CP:  9.34D-01  1.08D+00
 E= -155.697289362379     Delta-E=       -0.086261375224 Rises=F Damp=F
 DIIS: error= 4.99D-03 at cycle   3 NSaved=   3.
 NSaved= 3 IEnMin= 3 EnMin= -155.697289362379     IErMin= 3 ErrMin= 4.99D-03
 ErrMax= 4.99D-03  0.00D+00 EMaxC= 1.00D-01 BMatC= 2.23D-03 BMatP= 2.97D-02
 IDIUse=3 WtCom= 9.50D-01 WtEn= 4.99D-02
 Coeff-Com: -0.118D+00 0.245D+00 0.872D+00
 Coeff-En:   0.000D+00 0.000D+00 0.100D+01
 Coeff:     -0.112D+00 0.233D+00 0.879D+00
 Gap=     0.289 Goal=   None    Shift=    0.000
 RMSDP=7.52D-05 MaxDP=4.39D-03 DE=-8.63D-02 OVMax= 2.63D-02

 Cycle   4  Pass 0  IDiag  1:
 RMSU=  5.67D-05    CP:  9.30D-01  1.18D+00  9.20D-01
 E= -155.698938919748     Delta-E=       -0.001649557369 Rises=F Damp=F
 DIIS: error= 3.32D-03 at cycle   4 NSaved=   4.
 NSaved= 4 IEnMin= 4 EnMin= -155.698938919748     IErMin= 4 ErrMin= 3.32D-03
 ErrMax= 3.32D-03  0.00D+00 EMaxC= 1.00D-01 BMatC= 7.76D-04 BMatP= 2.23D-03
 IDIUse=3 WtCom= 9.67D-01 WtEn= 3.32D-02
 Coeff-Com: -0.522D-01 0.855D-01 0.470D+00 0.496D+00
 Coeff-En:   0.000D+00 0.000D+00 0.169D+00 0.831D+00
 Coeff:     -0.504D-01 0.826D-01 0.460D+00 0.507D+00
 Gap=     0.289 Goal=   None    Shift=    0.000
 RMSDP=3.14D-05 MaxDP=1.51D-03 DE=-1.65D-03 OVMax= 9.97D-03

 Cycle   5  Pass 0  IDiag  1:
 RMSU=  1.58D-05    CP:  9.30D-01  1.17D+00  9.68D-01  5.74D-01
 E= -155.699682775736     Delta-E=       -0.000743855988 Rises=F Damp=F
 DIIS: error= 2.82D-04 at cycle   5 NSaved=   5.
 NSaved= 5 IEnMin= 5 EnMin= -155.699682775736     IErMin= 5 ErrMin= 2.82D-04
 ErrMax= 2.82D-04  0.00D+00 EMaxC= 1.00D-01 BMatC= 4.46D-06 BMatP= 7.76D-04
 IDIUse=3 WtCom= 9.97D-01 WtEn= 2.82D-03
 Coeff-Com: -0.269D-02 0.206D-02 0.349D-01 0.897D-01 0.876D+00
 Coeff-En:   0.000D+00 0.000D+00 0.000D+00 0.000D+00 0.100D+01
 Coeff:     -0.268D-02 0.206D-02 0.348D-01 0.894D-01 0.876D+00
 Gap=     0.290 Goal=   None    Shift=    0.000
 RMSDP=3.95D-06 MaxDP=1.28D-04 DE=-7.44D-04 OVMax= 1.22D-03

 Initial convergence to 1.0D-05 achieved.  Increase integral accuracy.
 Cycle   6  Pass 1  IDiag  1:
 E= -155.699712472381     Delta-E=       -0.000029696646 Rises=F Damp=F
 DIIS: error= 4.44D-05 at cycle   1 NSaved=   1.
 NSaved= 1 IEnMin= 1 EnMin= -155.699712472381     IErMin= 1 ErrMin= 4.44D-05
 ErrMax= 4.44D-05  0.00D+00 EMaxC= 1.00D-01 BMatC= 4.45D-07 BMatP= 4.45D-07
 IDIUse=1 WtCom= 1.00D+00 WtEn= 0.00D+00
 Coeff-Com:  0.100D+01
 Coeff:      0.100D+01
 Gap=     0.290 Goal=   None    Shift=    0.000
 RMSDP=3.95D-06 MaxDP=1.28D-04 DE=-2.97D-05 OVMax= 2.85D-04

 Cycle   7  Pass 1  IDiag  1:
 RMSU=  1.49D-05    CP:  1.00D+00
 E= -155.699712807501     Delta-E=       -0.000000335120 Rises=F Damp=F
 DIIS: error= 1.93D-05 at cycle   2 NSaved=   2.
 NSaved= 2 IEnMin= 2 EnMin= -155.699712807501     IErMin= 2 ErrMin= 1.93D-05
 ErrMax= 1.93D-05  0.00D+00 EMaxC= 1.00D-01 BMatC= 1.91D-08 BMatP= 4.45D-07
 IDIUse=1 WtCom= 1.00D+00 WtEn= 0.00D+00
 Coeff-Com:  0.421D-01 0.958D+00
 Coeff:      0.421D-01 0.958D+00
 Gap=     0.290 Goal=   None    Shift=    0.000
 RMSDP=6.99D-07 MaxDP=2.06D-05 DE=-3.35D-07 OVMax= 1.34D-04

 Cycle   8  Pass 1  IDiag  1:
 RMSU=  4.73D-07    CP:  1.00D+00  1.03D+00
 E= -155.699712822528     Delta-E=       -0.000000015027 Rises=F Damp=F
 DIIS: error= 1.01D-05 at cycle   3 NSaved=   3.
 NSaved= 3 IEnMin= 3 EnMin= -155.699712822528     IErMin= 3 ErrMin= 1.01D-05
 ErrMax= 1.01D-05  0.00D+00 EMaxC= 1.00D-01 BMatC= 1.70D-08 BMatP= 1.91D-08
 IDIUse=1 WtCom= 1.00D+00 WtEn= 0.00D+00
 Coeff-Com: -0.198D-01 0.487D+00 0.533D+00
 Coeff:     -0.198D-01 0.487D+00 0.533D+00
 Gap=     0.290 Goal=   None    Shift=    0.000
 RMSDP=1.88D-07 MaxDP=1.13D-05 DE=-1.50D-08 OVMax= 6.71D-05

 Cycle   9  Pass 1  IDiag  1:
 RMSU=  1.79D-07    CP:  1.00D+00  1.04D+00  9.87D-01
 E= -155.699712839468     Delta-E=       -0.000000016940 Rises=F Damp=F
 DIIS: error= 3.68D-06 at cycle   4 NSaved=   4.
 NSaved= 4 IEnMin= 4 EnMin= -155.699712839468     IErMin= 4 ErrMin= 3.68D-06
 ErrMax= 3.68D-06  0.00D+00 EMaxC= 1.00D-01 BMatC= 3.33D-10 BMatP= 1.70D-08
 IDIUse=1 WtCom= 1.00D+00 WtEn= 0.00D+00
 Coeff-Com: -0.810D-02-0.528D-02 0.823D-01 0.931D+00
 Coeff:     -0.810D-02-0.528D-02 0.823D-01 0.931D+00
 Gap=     0.290 Goal=   None    Shift=    0.000
 RMSDP=6.06D-08 MaxDP=1.88D-06 DE=-1.69D-08 OVMax= 2.01D-05

 Cycle  10  Pass 1  IDiag  1:
 RMSU=  3.83D-08    CP:  1.00D+00  1.04D+00  1.07D+00  1.10D+00
 E= -155.699712840243     Delta-E=       -0.000000000775 Rises=F Damp=F
 DIIS: error= 7.12D-07 at cycle   5 NSaved=   5.
 NSaved= 5 IEnMin= 5 EnMin= -155.699712840243     IErMin= 5 ErrMin= 7.12D-07
 ErrMax= 7.12D-07  0.00D+00 EMaxC= 1.00D-01 BMatC= 4.21D-11 BMatP= 3.33D-10
 IDIUse=1 WtCom= 1.00D+00 WtEn= 0.00D+00
 Coeff-Com:  0.715D-03-0.504D-01-0.519D-01 0.179D+00 0.922D+00
 Coeff:      0.715D-03-0.504D-01-0.519D-01 0.179D+00 0.922D+00
 Gap=     0.290 Goal=   None    Shift=    0.000
 RMSDP=2.16D-08 MaxDP=9.30D-07 DE=-7.75D-10 OVMax= 5.43D-06

 Cycle  11  Pass 1  IDiag  1:
 RMSU=  1.17D-08    CP:  1.00D+00  1.04D+00  1.09D+00  1.18D+00  1.18D+00
 E= -155.699712840312     Delta-E=       -0.000000000069 Rises=F Damp=F
 DIIS: error= 1.01D-07 at cycle   6 NSaved=   6.
 NSaved= 6 IEnMin= 6 EnMin= -155.699712840312     IErMin= 6 ErrMin= 1.01D-07
 ErrMax= 1.01D-07  0.00D+00 EMaxC= 1.00D-01 BMatC= 3.18D-12 BMatP= 4.21D-11
 IDIUse=1 WtCom= 1.00D+00 WtEn= 0.00D+00
 Coeff-Com:  0.612D-03-0.196D-01-0.252D-01 0.362D-01 0.351D+00 0.656D+00
 Coeff:      0.612D-03-0.196D-01-0.252D-01 0.362D-01 0.351D+00 0.656D+00
 Gap=     0.290 Goal=   None    Shift=    0.000
 RMSDP=3.25D-09 MaxDP=1.47D-07 DE=-6.88D-11 OVMax= 7.31D-07

 SCF Done:  E(RB2PLYPD3) =  -155.699712840     A.U. after   11 cycles
            NFock= 11  Conv=0.32D-08     -V/T= 2.0038
 KE= 1.551168785643D+02 PE=-5.694371873342D+02 EE= 1.543596667795D+02
 Leave Link  502 at Wed Aug 26 20:15:36 2020, MaxMem=  2097152000 cpu:      1930.4
 (Enter /opt/cluster/programs/g09/g09_d.01/g09/l801.exe)
 DoSCS=T DFT=T ScalE2(SS,OS)=  0.270000  0.270000
 ExpMin= 7.60D-02 ExpMax= 6.70D+04 ExpMxC= 6.47D+02 IAcc=3 IRadAn=         5 AccDes= 0.00D+00
 HarFok:  IExCor=  205 AccDes= 0.00D+00 IRadAn=         5 IDoV=-2 UseB2=F ITyADJ=14
 ICtDFT= 12500011 ScaDFX=  1.000000  1.000000  1.000000  1.000000
 Largest valence mixing into a core orbital is  1.12D-04
 Largest core mixing into a valence orbital is  1.99D-05
 Range of M.O.s used for correlation:     5   408
 NBasis=   408 NAE=    15 NBE=    15 NFC=     4 NFV=     0
 NROrb=    404 NOA=    11 NOB=    11 NVA=   393 NVB=   393

 **** Warning!!: The largest alpha MO coefficient is  0.28467270D+02

 Leave Link  801 at Wed Aug 26 20:15:43 2020, MaxMem=  2097152000 cpu:         0.9
 (Enter /opt/cluster/programs/g09/g09_d.01/g09/l906.exe)
 DoSCS=T DFT=T ScalE2(SS,OS)=  0.270000  0.270000
 FulOut=F Deriv=F AODrv=F NAtomX=    10
   MMem=         881  MDisk=          11 MDiskD=          11
  W3Min=     2152854 MinDsk=     3857222 NBas6D=         498
 NBas2D=      125763    NTT=      124251    LW2=     4508827
    MDV=  2096382696 MDiskM=        9345 NBas2p=      117367
 Fully direct method using O(OVN) memory.
 IMap=   1   2   3   4   5   6   7   8   9  10  11
 JobTyp=1 Pass  1:  I=   1 to  11 NPSUse=  8 ParTrn=T ParDer=T DoDerP=F.
 Spin components of T(2) and E(2):
     alpha-alpha T2 =       0.4220785353D-01 E2=     -0.2548722249D-01
     alpha-beta  T2 =       0.2731218055D+00 E2=     -0.1750962621D+00
     beta-beta   T2 =       0.4220785353D-01 E2=     -0.2548722249D-01
 The integrals were generated   1 times.
 E2(B2PLYPD3) =    -0.2260707071D+00 E(B2PLYPD3) =    -0.15592578354744D+03
 Leave Link  906 at Wed Aug 26 20:17:28 2020, MaxMem=  2097152000 cpu:       826.2
 (Enter /opt/cluster/programs/g09/g09_d.01/g09/l601.exe)
 Copying SCF densities to generalized density rwf, IOpCl= 0 IROHF=0.

 **********************************************************************

            Population analysis using the SCF density.

 **********************************************************************

 Orbital symmetries:
       Occupied  (A) (A) (A) (A) (A) (A) (A) (A) (A) (A) (A) (A)
                 (A) (A) (A)
       Virtual   (A) (A) (A) (A) (A) (A) (A) (A) (A) (A) (A) (A)
                 (A) (A) (A) (A) (A) (A) (A) (A) (A) (A) (A) (A)
                 (A) (A) (A) (A) (A) (A) (A) (A) (A) (A) (A) (A)
                 (A) (A) (A) (A) (A) (A) (A) (A) (A) (A) (A) (A)
                 (A) (A) (A) (A) (A) (A) (A) (A) (A) (A) (A) (A)
                 (A) (A) (A) (A) (A) (A) (A) (A) (A) (A) (A) (A)
                 (A) (A) (A) (A) (A) (A) (A) (A) (A) (A) (A) (A)
                 (A) (A) (A) (A) (A) (A) (A) (A) (A) (A) (A) (A)
                 (A) (A) (A) (A) (A) (A) (A) (A) (A) (A) (A) (A)
                 (A) (A) (A) (A) (A) (A) (A) (A) (A) (A) (A) (A)
                 (A) (A) (A) (A) (A) (A) (A) (A) (A) (A) (A) (A)
                 (A) (A) (A) (A) (A) (A) (A) (A) (A) (A) (A) (A)
                 (A) (A) (A) (A) (A) (A) (A) (A) (A) (A) (A) (A)
                 (A) (A) (A) (A) (A) (A) (A) (A) (A) (A) (A) (A)
                 (A) (A) (A) (A) (A) (A) (A) (A) (A) (A) (A) (A)
                 (A) (A) (A) (A) (A) (A) (A) (A) (A) (A) (A) (A)
                 (A) (A) (A) (A) (A) (A) (A) (A) (A) (A) (A) (A)
                 (A) (A) (A) (A) (A) (A) (A) (A) (A) (A) (A) (A)
                 (A) (A) (A) (A) (A) (A) (A) (A) (A) (A) (A) (A)
                 (A) (A) (A) (A) (A) (A) (A) (A) (A) (A) (A) (A)
                 (A) (A) (A) (A) (A) (A) (A) (A) (A) (A) (A) (A)
                 (A) (A) (A) (A) (A) (A) (A) (A) (A) (A) (A) (A)
                 (A) (A) (A) (A) (A) (A) (A) (A) (A) (A) (A) (A)
                 (A) (A) (A) (A) (A) (A) (A) (A) (A) (A) (A) (A)
                 (A) (A) (A) (A) (A) (A) (A) (A) (A) (A) (A) (A)
                 (A) (A) (A) (A) (A) (A) (A) (A) (A) (A) (A) (A)
                 (A) (A) (A) (A) (A) (A) (A) (A) (A) (A) (A) (A)
                 (A) (A) (A) (A) (A) (A) (A) (A) (A) (A) (A) (A)
                 (A) (A) (A) (A) (A) (A) (A) (A) (A) (A) (A) (A)
                 (A) (A) (A) (A) (A) (A) (A) (A) (A) (A) (A) (A)
                 (A) (A) (A) (A) (A) (A) (A) (A) (A) (A) (A) (A)
                 (A) (A) (A) (A) (A) (A) (A) (A) (A) (A) (A) (A)
                 (A) (A) (A) (A) (A) (A) (A) (A) (A)
 The electronic state is 1-A.
 Alpha  occ. eigenvalues --  -10.62526 -10.62394 -10.61782 -10.61525  -0.93321
 Alpha  occ. eigenvalues --   -0.84705  -0.70370  -0.63978  -0.54831  -0.53713
 Alpha  occ. eigenvalues --   -0.46652  -0.45267  -0.41273  -0.38402  -0.27458
 Alpha virt. eigenvalues --    0.01522   0.07030   0.07333   0.08039   0.09658
 Alpha virt. eigenvalues --    0.11661   0.12476   0.14747   0.15812   0.16224
 Alpha virt. eigenvalues --    0.18746   0.20433   0.21787   0.22796   0.23672
 Alpha virt. eigenvalues --    0.26799   0.27015   0.29325   0.31714   0.35155
 Alpha virt. eigenvalues --    0.36178   0.36505   0.37771   0.38440   0.40315
 Alpha virt. eigenvalues --    0.43065   0.43494   0.45434   0.47847   0.48457
 Alpha virt. eigenvalues --    0.49026   0.49577   0.51084   0.55095   0.57260
 Alpha virt. eigenvalues --    0.58454   0.60541   0.64499   0.66312   0.68785
 Alpha virt. eigenvalues --    0.68947   0.72988   0.77016   0.77396   0.79290
 Alpha virt. eigenvalues --    0.80036   0.80734   0.81867   0.82429   0.84299
 Alpha virt. eigenvalues --    0.84434   0.85686   0.86414   0.86964   0.90404
 Alpha virt. eigenvalues --    0.92429   0.93435   0.94151   0.95609   0.96426
 Alpha virt. eigenvalues --    0.98741   0.99147   1.00700   1.03103   1.05270
 Alpha virt. eigenvalues --    1.06219   1.08870   1.10906   1.11676   1.13093
 Alpha virt. eigenvalues --    1.14059   1.18078   1.19714   1.21355   1.23328
 Alpha virt. eigenvalues --    1.24491   1.25410   1.34088   1.35046   1.36151
 Alpha virt. eigenvalues --    1.37665   1.40660   1.46937   1.63423   1.66056
 Alpha virt. eigenvalues --    1.66532   1.67527   1.69196   1.71089   1.72801
 Alpha virt. eigenvalues --    1.74325   1.80716   1.82334   1.84311   1.87818
 Alpha virt. eigenvalues --    1.90543   1.90819   1.91456   1.93793   1.94369
 Alpha virt. eigenvalues --    1.95345   1.99290   2.00168   2.01453   2.02350
 Alpha virt. eigenvalues --    2.03658   2.06375   2.07434   2.07990   2.09832
 Alpha virt. eigenvalues --    2.10719   2.11434   2.13984   2.17065   2.18751
 Alpha virt. eigenvalues --    2.19913   2.22157   2.24220   2.26767   2.28876
 Alpha virt. eigenvalues --    2.30207   2.32575   2.33596   2.38115   2.43033
 Alpha virt. eigenvalues --    2.44780   2.45931   2.47136   2.48105   2.49656
 Alpha virt. eigenvalues --    2.52953   2.53678   2.55536   2.56287   2.57827
 Alpha virt. eigenvalues --    2.58944   2.62874   2.63768   2.65034   2.65434
 Alpha virt. eigenvalues --    2.67189   2.70129   2.70514   2.71571   2.72376
 Alpha virt. eigenvalues --    2.73500   2.75446   2.76974   2.78330   2.79660
 Alpha virt. eigenvalues --    2.81118   2.88112   2.90464   2.92510   2.93598
 Alpha virt. eigenvalues --    2.95089   3.03852   3.06719   3.07586   3.09877
 Alpha virt. eigenvalues --    3.12307   3.13772   3.26128   3.34263   3.36100
 Alpha virt. eigenvalues --    3.39919   3.40845   3.42698   3.44800   3.47786
 Alpha virt. eigenvalues --    3.47898   3.49183   3.52104   3.57562   3.59116
 Alpha virt. eigenvalues --    3.59640   3.60724   3.62640   3.70632   3.78789
 Alpha virt. eigenvalues --    3.79525   3.83011   3.87727   3.88210   3.91420
 Alpha virt. eigenvalues --    3.94384   3.95898   3.98930   4.05562   4.15150
 Alpha virt. eigenvalues --    4.16943   4.18354   4.20661   4.25160   4.46643
 Alpha virt. eigenvalues --    4.56464   4.57028   4.60582   4.87922   4.99818
 Alpha virt. eigenvalues --    5.00457   5.03131   5.06082   5.07169   5.07957
 Alpha virt. eigenvalues --    5.12132   5.18864   5.20874   5.28433   5.31113
 Alpha virt. eigenvalues --    5.33382   5.40004   5.45008   5.46023   5.49532
 Alpha virt. eigenvalues --    5.52125   5.54914   5.57077   5.60263   5.62877
 Alpha virt. eigenvalues --    5.65548   5.70573   5.75427   5.76856   5.77169
 Alpha virt. eigenvalues --    5.79148   5.81107   5.82492   5.85635   5.86288
 Alpha virt. eigenvalues --    5.87826   5.91135   6.00641   6.02084   6.04091
 Alpha virt. eigenvalues --    6.05807   6.07025   6.08233   6.10119   6.12010
 Alpha virt. eigenvalues --    6.12525   6.15984   6.16756   6.18324   6.20990
 Alpha virt. eigenvalues --    6.22337   6.23791   6.27534   6.29426   6.32084
 Alpha virt. eigenvalues --    6.34927   6.35702   6.36703   6.37819   6.39145
 Alpha virt. eigenvalues --    6.39498   6.40605   6.42672   6.50083   6.51991
 Alpha virt. eigenvalues --    6.52828   6.55026   6.55357   6.56553   6.62489
 Alpha virt. eigenvalues --    6.64041   6.64912   6.69215   6.69758   6.81166
 Alpha virt. eigenvalues --    6.81434   6.86425   6.88414   6.91021   6.91926
 Alpha virt. eigenvalues --    6.92802   6.93509   6.99454   7.02592   7.08904
 Alpha virt. eigenvalues --    7.13647   7.16897   7.19395   7.20845   7.21930
 Alpha virt. eigenvalues --    7.27403   7.28581   7.34863   7.37621   7.42796
 Alpha virt. eigenvalues --    7.47776   7.50268   7.53757   7.56516   7.60319
 Alpha virt. eigenvalues --    7.62447   7.63696   7.64957   7.66891   7.67252
 Alpha virt. eigenvalues --    7.69060   7.72463   7.75203   7.75376   7.77264
 Alpha virt. eigenvalues --    7.78138   7.81831   7.88325   7.92098   7.93980
 Alpha virt. eigenvalues --    7.95875   7.97682   8.07543   8.11772   8.14409
 Alpha virt. eigenvalues --    8.15602   8.16043   8.19014   8.20560   8.24091
 Alpha virt. eigenvalues --    8.32236   8.32679   8.33878   8.34589   8.35639
 Alpha virt. eigenvalues --    8.36600   8.38616   8.39903   8.42798   8.44148
 Alpha virt. eigenvalues --    8.46570   8.49162   8.52742   8.55806   8.57301
 Alpha virt. eigenvalues --    8.59171   8.59476   8.60107   8.66569   8.69596
 Alpha virt. eigenvalues --    8.74055   8.75291   8.78892   8.80801   8.83746
 Alpha virt. eigenvalues --    8.87168   8.88708   8.92994   9.03304   9.13382
 Alpha virt. eigenvalues --    9.19944   9.22379   9.29345   9.33078   9.44188
 Alpha virt. eigenvalues --    9.58229   9.67222   9.73088   9.83264   9.87359
 Alpha virt. eigenvalues --    9.88991   9.91510   9.94932  10.01273  10.02186
 Alpha virt. eigenvalues --   10.05848  10.16656  10.22546  10.25647  10.29939
 Alpha virt. eigenvalues --   10.36383  10.38453  10.46051  10.70762  10.80215
 Alpha virt. eigenvalues --   10.99341  11.17291  11.45190  11.69090  11.92934
 Alpha virt. eigenvalues --   11.94456  12.87425  13.05428  13.14310  13.17819
 Alpha virt. eigenvalues --   28.60347  28.79955  29.46854  29.68683 148.19593
 Alpha virt. eigenvalues --  148.38089 149.05972 149.29048
          Condensed to atoms (all electrons):
               1          2          3          4          5          6
     1  C    4.843587   0.619650  -0.084733  -0.002885   0.425169   0.423808
     2  C    0.619650   4.832668   0.397389  -0.082627  -0.047314  -0.043167
     3  C   -0.084733   0.397389   4.833981   0.619644   0.007676  -0.007223
     4  C   -0.002885  -0.082627   0.619644   4.847597  -0.000649   0.000210
     5  H    0.425169  -0.047314   0.007676  -0.000649   0.588919  -0.047610
     6  H    0.423808  -0.043167  -0.007223   0.000210  -0.047610   0.597957
     7  H   -0.047948   0.413159  -0.061348  -0.003065  -0.009362   0.007354
     8  H   -0.001297  -0.061079   0.411072  -0.049542  -0.000082   0.004218
     9  H    0.000330  -0.008258  -0.048462   0.423647  -0.000034   0.000038
    10  H   -0.000629   0.007251  -0.043281   0.424154   0.000024  -0.000025
               7          8          9         10
     1  C   -0.047948  -0.001297   0.000330  -0.000629
     2  C    0.413159  -0.061079  -0.008258   0.007251
     3  C   -0.061348   0.411072  -0.048462  -0.043281
     4  C   -0.003065  -0.049542   0.423647   0.424154
     5  H   -0.009362  -0.000082  -0.000034   0.000024
     6  H    0.007354   0.004218   0.000038  -0.000025
     7  H    0.635820   0.007286   0.005092  -0.000039
     8  H    0.007286   0.635658   0.007862  -0.008419
     9  H    0.005092   0.007862   0.601596  -0.043883
    10  H   -0.000039  -0.008419  -0.043883   0.578072
 Mulliken charges:
               1
     1  C   -0.175051
     2  C   -0.027672
     3  C   -0.024714
     4  C   -0.176485
     5  H    0.083262
     6  H    0.064440
     7  H    0.053052
     8  H    0.054323
     9  H    0.062071
    10  H    0.086774
 Sum of Mulliken charges =   0.00000
 Mulliken charges with hydrogens summed into heavy atoms:
               1
     1  C   -0.027348
     2  C    0.025379
     3  C    0.029609
     4  C   -0.027640
 Electronic spatial extent (au):  <R**2>=            332.7680
 Charge=              0.0000 electrons
 Dipole moment (field-independent basis, Debye):
    X=              0.0075    Y=              0.0177    Z=              0.1237  Tot=              0.1252
 Quadrupole moment (field-independent basis, Debye-Ang):
   XX=            -23.4235   YY=            -23.1765   ZZ=            -29.2730
   XY=              0.2010   XZ=              0.1152   YZ=              0.0191
 Traceless Quadrupole moment (field-independent basis, Debye-Ang):
   XX=              1.8675   YY=              2.1145   ZZ=             -3.9820
   XY=              0.2010   XZ=              0.1152   YZ=              0.0191
 Octapole moment (field-independent basis, Debye-Ang**2):
  XXX=              0.2115  YYY=             -0.0022  ZZZ=              0.2029  XYY=              0.0928
  XXY=              0.6211  XXZ=              0.9976  XZZ=              0.0813  YZZ=              0.0002
  YYZ=              0.2126  XYZ=             -0.1948
 Hexadecapole moment (field-independent basis, Debye-Ang**3):
 XXXX=           -339.7480 YYYY=            -65.5866 ZZZZ=            -36.8233 XXXY=             -5.4024
 XXXZ=              0.3475 YYYX=              2.0087 YYYZ=             -0.0528 ZZZX=              0.2350
 ZZZY=              0.0150 XXYY=            -68.0493 XXZZ=            -76.5821 YYZZ=            -19.2817
 XXYZ=              0.4923 YYXZ=              0.3600 ZZXY=              0.4186
 N-N= 1.042609291502D+02 E-N=-5.694371771110D+02  KE= 1.551168785643D+02
 Leave Link  601 at Wed Aug 26 20:17:32 2020, MaxMem=  2097152000 cpu:         0.7
 (Enter /opt/cluster/programs/g09/g09_d.01/g09/l9999.exe)
 1\1\GINC-NODE12\SP\RB2PLYPD3-FC\def2QZVP\C4H6\BOITTIER\26-Aug-2020\0\\
 #p B2PLYPD3/Def2QZVP\\butadiene\\0,1\C,0,-3.833554,0.220018,0.010373\C
 ,0,-2.704288,-0.492521,0.054357\C,0,-1.39399,0.076173,0.031334\C,0,-0.
 274172,-0.659812,0.017845\H,0,-4.795026,-0.247273,-0.027067\H,0,-3.865
 171,1.310716,-0.060332\H,0,-2.746673,-1.586027,0.023746\H,0,-1.315398,
 1.162278,-0.002621\H,0,-0.34867,-1.745253,0.084587\H,0,0.727063,-0.226
 343,-0.057492\\Version=ES64L-G09RevD.01\State=1-A\HF=-155.6997128\MP2=
 -155.9257835\RMSD=3.246e-09\PG=C01 [X(C4H6)]\\@


 IT TAKES GREATER CHARACTER TO CARRY OFF GOOD FORTUNE THAN BAD.
                     FRENCH PROVERB.
 Job cpu time:       0 days  0 hours 46 minutes 24.1 seconds.
 File lengths (MBytes):  RWF=     92 Int=      0 D2E=      0 Chk=      9 Scr=      1
 Normal termination of Gaussian 09 at Wed Aug 26 20:17:44 2020.
