 Entering Gaussian System, Link 0=/opt/cluster/programs/g09/g09_d.01/g09//g09
 Input=/home/boittier/MDCM/nms_sampling/butadiene_geom.xyz.dir/energies/butadiene_2155_energy.com
 Output=/scratch/boittier/butadiene_2155_energy/butadiene_2155_energy.out
 Initial command:
 /opt/cluster/programs/g09/g09_d.01/g09/l1.exe "/scratch/boittier/butadiene_2155_energy/Gau-58243.inp" -scrdir="/scratch/boittier/butadiene_2155_energy/"
 Entering Link 1 = /opt/cluster/programs/g09/g09_d.01/g09/l1.exe PID=     58244.
  
 Copyright (c) 1988,1990,1992,1993,1995,1998,2003,2009,2013,
            Gaussian, Inc.  All Rights Reserved.
  
 This is part of the Gaussian(R) 09 program.  It is based on
 the Gaussian(R) 03 system (copyright 2003, Gaussian, Inc.),
 the Gaussian(R) 98 system (copyright 1998, Gaussian, Inc.),
 the Gaussian(R) 94 system (copyright 1995, Gaussian, Inc.),
 the Gaussian 92(TM) system (copyright 1992, Gaussian, Inc.),
 the Gaussian 90(TM) system (copyright 1990, Gaussian, Inc.),
 the Gaussian 88(TM) system (copyright 1988, Gaussian, Inc.),
 the Gaussian 86(TM) system (copyright 1986, Carnegie Mellon
 University), and the Gaussian 82(TM) system (copyright 1983,
 Carnegie Mellon University). Gaussian is a federally registered
 trademark of Gaussian, Inc.
  
 This software contains proprietary and confidential information,
 including trade secrets, belonging to Gaussian, Inc.
  
 This software is provided under written license and may be
 used, copied, transmitted, or stored only in accord with that
 written license.
  
 The following legend is applicable only to US Government
 contracts under FAR:
  
                    RESTRICTED RIGHTS LEGEND
  
 Use, reproduction and disclosure by the US Government is
 subject to restrictions as set forth in subparagraphs (a)
 and (c) of the Commercial Computer Software - Restricted
 Rights clause in FAR 52.227-19.
  
 Gaussian, Inc.
 340 Quinnipiac St., Bldg. 40, Wallingford CT 06492
  
  
 ---------------------------------------------------------------
 Warning -- This program may not be used in any manner that
 competes with the business of Gaussian, Inc. or will provide
 assistance to any competitor of Gaussian, Inc.  The licensee
 of this program is prohibited from giving any competitor of
 Gaussian, Inc. access to this program.  By using this program,
 the user acknowledges that Gaussian, Inc. is engaged in the
 business of creating and licensing software in the field of
 computational chemistry and represents and warrants to the
 licensee that it is not a competitor of Gaussian, Inc. and that
 it will not use this program in any manner prohibited above.
 ---------------------------------------------------------------
  

 Cite this work as:
 Gaussian 09, Revision D.01,
 M. J. Frisch, G. W. Trucks, H. B. Schlegel, G. E. Scuseria, 
 M. A. Robb, J. R. Cheeseman, G. Scalmani, V. Barone, B. Mennucci, 
 G. A. Petersson, H. Nakatsuji, M. Caricato, X. Li, H. P. Hratchian, 
 A. F. Izmaylov, J. Bloino, G. Zheng, J. L. Sonnenberg, M. Hada, 
 M. Ehara, K. Toyota, R. Fukuda, J. Hasegawa, M. Ishida, T. Nakajima, 
 Y. Honda, O. Kitao, H. Nakai, T. Vreven, J. A. Montgomery, Jr., 
 J. E. Peralta, F. Ogliaro, M. Bearpark, J. J. Heyd, E. Brothers, 
 K. N. Kudin, V. N. Staroverov, T. Keith, R. Kobayashi, J. Normand, 
 K. Raghavachari, A. Rendell, J. C. Burant, S. S. Iyengar, J. Tomasi, 
 M. Cossi, N. Rega, J. M. Millam, M. Klene, J. E. Knox, J. B. Cross, 
 V. Bakken, C. Adamo, J. Jaramillo, R. Gomperts, R. E. Stratmann, 
 O. Yazyev, A. J. Austin, R. Cammi, C. Pomelli, J. W. Ochterski, 
 R. L. Martin, K. Morokuma, V. G. Zakrzewski, G. A. Voth, 
 P. Salvador, J. J. Dannenberg, S. Dapprich, A. D. Daniels, 
 O. Farkas, J. B. Foresman, J. V. Ortiz, J. Cioslowski, 
 and D. J. Fox, Gaussian, Inc., Wallingford CT, 2013.
 
 ******************************************
 Gaussian 09:  ES64L-G09RevD.01 24-Apr-2013
                26-Aug-2020 
 ******************************************
 %chk=/home/boittier/MDCM/nms_sampling/butadiene_geom.xyz.dir/butadiene_2155.chk
 %nproc=8
 Will use up to    8 processors via shared memory.
 %mem=16000MB
 --------------------
 #p B2PLYPD3/Def2QZVP
 --------------------
 1/38=1/1;
 2/12=2,17=6,18=5,40=1/2;
 3/5=45,7=101,11=9,16=1,25=1,30=1,74=-60/1,2,3;
 4//1;
 5/5=2,38=5/2;
 8/10=1/1;
 9/16=-3/6;
 6/7=2,8=2,9=2,10=2/1;
 99/5=1,9=1/99;
 Leave Link    1 at Wed Aug 26 12:29:22 2020, MaxMem=  2097152000 cpu:         0.2
 (Enter /opt/cluster/programs/g09/g09_d.01/g09/l101.exe)
 ---------
 butadiene
 ---------
 Symbolic Z-matrix:
 Charge =  0 Multiplicity = 1
 C                    -3.89063   0.19606   0.02755 
 C                    -2.73338  -0.4781    0.056 
 C                    -1.34865   0.1217   -0.00883 
 C                    -0.24947  -0.69959   0.02301 
 H                    -4.76163  -0.25506  -0.06512 
 H                    -3.91054   1.23848  -0.21361 
 H                    -2.63972  -1.53027   0.22834 
 H                    -1.20159   1.25174   0.24333 
 H                    -0.33073  -1.77682  -0.07742 
 H                     0.67885  -0.18265   0.11787 
 
 NAtoms=     10 NQM=       10 NQMF=       0 NMMI=      0 NMMIF=      0
                NMic=       0 NMicF=      0.
                    Isotopes and Nuclear Properties:
 (Nuclear quadrupole moments (NQMom) in fm**2, nuclear magnetic moments (NMagM)
  in nuclear magnetons)

  Atom         1           2           3           4           5           6           7           8           9          10
 IAtWgt=          12          12          12          12           1           1           1           1           1           1
 AtmWgt=  12.0000000  12.0000000  12.0000000  12.0000000   1.0078250   1.0078250   1.0078250   1.0078250   1.0078250   1.0078250
 NucSpn=           0           0           0           0           1           1           1           1           1           1
 AtZEff=   0.0000000   0.0000000   0.0000000   0.0000000   0.0000000   0.0000000   0.0000000   0.0000000   0.0000000   0.0000000
 NQMom=    0.0000000   0.0000000   0.0000000   0.0000000   0.0000000   0.0000000   0.0000000   0.0000000   0.0000000   0.0000000
 NMagM=    0.0000000   0.0000000   0.0000000   0.0000000   2.7928460   2.7928460   2.7928460   2.7928460   2.7928460   2.7928460
 AtZNuc=   6.0000000   6.0000000   6.0000000   6.0000000   1.0000000   1.0000000   1.0000000   1.0000000   1.0000000   1.0000000
 Leave Link  101 at Wed Aug 26 12:29:22 2020, MaxMem=  2097152000 cpu:         0.5
 (Enter /opt/cluster/programs/g09/g09_d.01/g09/l202.exe)
                          Input orientation:                          
 ---------------------------------------------------------------------
 Center     Atomic      Atomic             Coordinates (Angstroms)
 Number     Number       Type             X           Y           Z
 ---------------------------------------------------------------------
      1          6           0       -3.890632    0.196055    0.027548
      2          6           0       -2.733382   -0.478096    0.056001
      3          6           0       -1.348651    0.121699   -0.008825
      4          6           0       -0.249469   -0.699594    0.023009
      5          1           0       -4.761628   -0.255061   -0.065115
      6          1           0       -3.910536    1.238480   -0.213611
      7          1           0       -2.639721   -1.530274    0.228341
      8          1           0       -1.201586    1.251739    0.243331
      9          1           0       -0.330728   -1.776820   -0.077420
     10          1           0        0.678854   -0.182651    0.117873
 ---------------------------------------------------------------------
                    Distance matrix (angstroms):
                    1          2          3          4          5
     1  C    0.000000
     2  C    1.339596   0.000000
     3  C    2.543328   1.510442   0.000000
     4  C    3.749703   2.493987   1.372493   0.000000
     5  H    0.985254   2.044063   3.434171   4.534860   0.000000
     6  H    1.070142   2.098813   2.802212   4.149160   1.725420
     7  H    2.141333   1.070305   2.110006   2.538798   2.492945
     8  H    2.896895   2.318150   1.167134   2.182377   3.878077
     9  H    4.071384   2.734453   2.155283   1.084945   4.684952
    10  H    4.586042   3.425561   2.054132   1.066777   5.444040
                    6          7          8          9         10
     6  H    0.000000
     7  H    3.078358   0.000000
     8  H    2.747250   3.131781   0.000000
     9  H    4.682479   2.342162   3.167561   0.000000
    10  H    4.815807   3.583466   2.368390   1.897042   0.000000
 Stoichiometry    C4H6
 Framework group  C1[X(C4H6)]
 Deg. of freedom    24
 Full point group                 C1      NOp   1
 Largest Abelian subgroup         C1      NOp   1
 Largest concise Abelian subgroup C1      NOp   1
                         Standard orientation:                         
 ---------------------------------------------------------------------
 Center     Atomic      Atomic             Coordinates (Angstroms)
 Number     Number       Type             X           Y           Z
 ---------------------------------------------------------------------
      1          6           0       -1.884202    0.075280    0.016046
      2          6           0       -0.625206   -0.382211    0.028249
      3          6           0        0.630023    0.455565   -0.034742
      4          6           0        1.858111   -0.157093   -0.021080
      5          1           0       -2.661636   -0.522476   -0.078871
      6          1           0       -2.091320    1.100737   -0.209216
      7          1           0       -0.344315   -1.403163    0.184167
      8          1           0        0.575464    1.590097    0.233700
      9          1           0        1.969205   -1.230052   -0.137359
     10          1           0        2.680248    0.515614    0.076734
 ---------------------------------------------------------------------
 Rotational constants (GHZ):     40.0473677      4.3256050      3.9155465
 Leave Link  202 at Wed Aug 26 12:29:22 2020, MaxMem=  2097152000 cpu:         0.0
 (Enter /opt/cluster/programs/g09/g09_d.01/g09/l301.exe)
 Standard basis: def2QZVP (5D, 7F)
 Ernie: Thresh=  0.10000D-02 Tol=  0.10000D-05 Strict=F.
 There are   498 symmetry adapted cartesian basis functions of A   symmetry.
 There are   408 symmetry adapted basis functions of A   symmetry.
   408 basis functions,   596 primitive gaussians,   498 cartesian basis functions
    15 alpha electrons       15 beta electrons
       nuclear repulsion energy       102.6939618400 Hartrees.
 IExCor=  419 DFT=T Ex+Corr=B2PLYPD3 ExCW=0 ScaHFX=  0.530000
 ScaDFX=  0.470000  0.470000  0.730000  0.730000 ScalE2=  0.270000  0.270000
 IRadAn=      0 IRanWt=     -1 IRanGd=            0 ICorTp=0 IEmpDi=141
 NAtoms=   10 NActive=   10 NUniq=   10 SFac= 1.00D+00 NAtFMM=   60 NAOKFM=F Big=F
 Integral buffers will be    131072 words long.
 Regular integral format.
 Two-electron integral symmetry is turned on.
 R6Disp:  Grimme-D3(BJ) Dispersion energy=       -0.0048034582 Hartrees.
 Nuclear repulsion after empirical dispersion term =      102.6891583818 Hartrees.
 Leave Link  301 at Wed Aug 26 12:29:22 2020, MaxMem=  2097152000 cpu:         0.4
 (Enter /opt/cluster/programs/g09/g09_d.01/g09/l302.exe)
 NPDir=0 NMtPBC=     1 NCelOv=     1 NCel=       1 NClECP=     1 NCelD=      1
         NCelK=      1 NCelE2=     1 NClLst=     1 CellRange=     0.0.
 One-electron integrals computed using PRISM.
   1 Symmetry operations used in ECPInt.
 ECPInt:  NShTT=    8256 NPrTT=   19107 LenC2=    8054 LenP2D=   16067.
 LDataN:  DoStor=T MaxTD1= 8 Len=  415
 NBasis=   408 RedAO= T EigKep=  5.05D-05  NBF=   408
 NBsUse=   408 1.00D-06 EigRej= -1.00D+00 NBFU=   408
 Precomputing XC quadrature grid using
 IXCGrd= 4 IRadAn=           0 IRanWt=          -1 IRanGd=           0 AccXCQ= 0.00D+00.
 Generated NRdTot=       0 NPtTot=           0 NUsed=           0 NTot=          32
 NSgBfM=   498   498   498   498   498 MxSgAt=    10 MxSgA2=    10.
 Leave Link  302 at Wed Aug 26 12:29:23 2020, MaxMem=  2097152000 cpu:         3.7
 (Enter /opt/cluster/programs/g09/g09_d.01/g09/l303.exe)
 DipDrv:  MaxL=1.
 Leave Link  303 at Wed Aug 26 12:29:23 2020, MaxMem=  2097152000 cpu:         0.4
 (Enter /opt/cluster/programs/g09/g09_d.01/g09/l401.exe)
 ExpMin= 7.60D-02 ExpMax= 6.70D+04 ExpMxC= 6.47D+02 IAcc=2 IRadAn=         4 AccDes= 0.00D+00
 Harris functional with IExCor=  419 and IRadAn=       4 diagonalized for initial guess.
 HarFok:  IExCor=  419 AccDes= 0.00D+00 IRadAn=         4 IDoV= 1 UseB2=F ITyADJ=14
 ICtDFT=  3500011 ScaDFX=  1.000000  1.000000  1.000000  1.000000
 FoFCou: FMM=F IPFlag=           0 FMFlag=      100000 FMFlg1=           0
         NFxFlg=           0 DoJE=T BraDBF=F KetDBF=T FulRan=T
         wScrn=  0.000000 ICntrl=     500 IOpCl=  0 I1Cent=   200000004 NGrid=           0
         NMat0=    1 NMatS0=      1 NMatT0=    0 NMatD0=    1 NMtDS0=    0 NMtDT0=    0
 Petite list used in FoFCou.
 Harris En= -156.112852154494    
 JPrj=0 DoOrth=F DoCkMO=F.
 Leave Link  401 at Wed Aug 26 12:29:24 2020, MaxMem=  2097152000 cpu:        10.0
 (Enter /opt/cluster/programs/g09/g09_d.01/g09/l502.exe)
 Closed shell SCF:
 Using DIIS extrapolation, IDIIS=  1040.
 Integral symmetry usage will be decided dynamically.
 IVT=      770090 IEndB=      770090 NGot=  2097152000 MDV=  2096647053
 LenX=  2096647053 LenY=  2096398551
 Requested convergence on RMS density matrix=1.00D-08 within 128 cycles.
 Requested convergence on MAX density matrix=1.00D-06.
 Requested convergence on             energy=1.00D-06.
 No special actions if energy rises.
 Fock matrices will be formed incrementally for  20 cycles.
 Integral accuracy reduced to 1.0D-05 until final iterations.

 Cycle   1  Pass 0  IDiag  1:
 FoFJK:  IHMeth= 1 ICntrl=       0 DoSepK=F KAlg= 0 I1Cent=   0 FoldK=F
 IRaf= 940000000 NMat=   1 IRICut=       1 DoRegI=T DoRafI=F ISym2E= 0.
 FoFCou: FMM=F IPFlag=           0 FMFlag=      100000 FMFlg1=           0
         NFxFlg=           0 DoJE=F BraDBF=F KetDBF=F FulRan=T
         wScrn=  0.000000 ICntrl=       0 IOpCl=  0 I1Cent=           0 NGrid=           0
         NMat0=    1 NMatS0=      1 NMatT0=    0 NMatD0=    1 NMtDS0=    0 NMtDT0=    0
 Symmetry not used in FoFCou.
 E= -155.492436851102    
 DIIS: error= 2.42D-02 at cycle   1 NSaved=   1.
 NSaved= 1 IEnMin= 1 EnMin= -155.492436851102     IErMin= 1 ErrMin= 2.42D-02
 ErrMax= 2.42D-02  0.00D+00 EMaxC= 1.00D-01 BMatC= 2.50D-01 BMatP= 2.50D-01
 IDIUse=3 WtCom= 7.58D-01 WtEn= 2.42D-01
 Coeff-Com:  0.100D+01
 Coeff-En:   0.100D+01
 Coeff:      0.100D+01
 Gap=     0.298 Goal=   None    Shift=    0.000
 GapD=    0.298 DampG=1.000 DampE=0.500 DampFc=0.5000 IDamp=-1.
 Damping current iteration by 5.00D-01
 RMSDP=9.48D-04 MaxDP=5.52D-02              OVMax= 1.94D-01

 Cycle   2  Pass 0  IDiag  1:
 RMSU=  4.37D-04    CP:  9.52D-01
 E= -155.590911986835     Delta-E=       -0.098475135733 Rises=F Damp=T
 DIIS: error= 7.35D-03 at cycle   2 NSaved=   2.
 NSaved= 2 IEnMin= 2 EnMin= -155.590911986835     IErMin= 2 ErrMin= 7.35D-03
 ErrMax= 7.35D-03  0.00D+00 EMaxC= 1.00D-01 BMatC= 2.98D-02 BMatP= 2.50D-01
 IDIUse=3 WtCom= 9.26D-01 WtEn= 7.35D-02
 Coeff-Com: -0.313D+00 0.131D+01
 Coeff-En:   0.000D+00 0.100D+01
 Coeff:     -0.290D+00 0.129D+01
 Gap=     0.344 Goal=   None    Shift=    0.000
 RMSDP=2.57D-04 MaxDP=1.08D-02 DE=-9.85D-02 OVMax= 8.55D-02

 Cycle   3  Pass 0  IDiag  1:
 RMSU=  2.45D-04    CP:  9.34D-01  1.08D+00
 E= -155.674978350412     Delta-E=       -0.084066363577 Rises=F Damp=F
 DIIS: error= 2.59D-03 at cycle   3 NSaved=   3.
 NSaved= 3 IEnMin= 3 EnMin= -155.674978350412     IErMin= 3 ErrMin= 2.59D-03
 ErrMax= 2.59D-03  0.00D+00 EMaxC= 1.00D-01 BMatC= 1.24D-03 BMatP= 2.98D-02
 IDIUse=3 WtCom= 9.74D-01 WtEn= 2.59D-02
 Coeff-Com: -0.103D+00 0.181D+00 0.922D+00
 Coeff-En:   0.000D+00 0.000D+00 0.100D+01
 Coeff:     -0.101D+00 0.176D+00 0.924D+00
 Gap=     0.291 Goal=   None    Shift=    0.000
 RMSDP=4.94D-05 MaxDP=3.18D-03 DE=-8.41D-02 OVMax= 1.19D-02

 Cycle   4  Pass 0  IDiag  1:
 RMSU=  2.91D-05    CP:  9.30D-01  1.16D+00  9.88D-01
 E= -155.676224986168     Delta-E=       -0.001246635755 Rises=F Damp=F
 DIIS: error= 4.14D-04 at cycle   4 NSaved=   4.
 NSaved= 4 IEnMin= 4 EnMin= -155.676224986168     IErMin= 4 ErrMin= 4.14D-04
 ErrMax= 4.14D-04  0.00D+00 EMaxC= 1.00D-01 BMatC= 2.75D-05 BMatP= 1.24D-03
 IDIUse=3 WtCom= 9.96D-01 WtEn= 4.14D-03
 Coeff-Com: -0.239D-01 0.366D-01 0.247D+00 0.741D+00
 Coeff-En:   0.000D+00 0.000D+00 0.000D+00 0.100D+01
 Coeff:     -0.238D-01 0.364D-01 0.246D+00 0.742D+00
 Gap=     0.291 Goal=   None    Shift=    0.000
 RMSDP=1.08D-05 MaxDP=5.22D-04 DE=-1.25D-03 OVMax= 3.70D-03

 Cycle   5  Pass 0  IDiag  1:
 RMSU=  9.83D-06    CP:  9.30D-01  1.16D+00  1.00D+00  9.41D-01
 E= -155.676246722026     Delta-E=       -0.000021735859 Rises=F Damp=F
 DIIS: error= 2.98D-04 at cycle   5 NSaved=   5.
 NSaved= 5 IEnMin= 5 EnMin= -155.676246722026     IErMin= 5 ErrMin= 2.98D-04
 ErrMax= 2.98D-04  0.00D+00 EMaxC= 1.00D-01 BMatC= 7.13D-06 BMatP= 2.75D-05
 IDIUse=3 WtCom= 9.97D-01 WtEn= 2.98D-03
 Coeff-Com: -0.247D-02 0.181D-02 0.390D-01 0.348D+00 0.614D+00
 Coeff-En:   0.000D+00 0.000D+00 0.000D+00 0.126D+00 0.874D+00
 Coeff:     -0.246D-02 0.180D-02 0.389D-01 0.347D+00 0.615D+00
 Gap=     0.291 Goal=   None    Shift=    0.000
 RMSDP=4.01D-06 MaxDP=2.20D-04 DE=-2.17D-05 OVMax= 1.67D-03

 Initial convergence to 1.0D-05 achieved.  Increase integral accuracy.
 Cycle   6  Pass 1  IDiag  1:
 E= -155.676248248220     Delta-E=       -0.000001526194 Rises=F Damp=F
 DIIS: error= 4.74D-05 at cycle   1 NSaved=   1.
 NSaved= 1 IEnMin= 1 EnMin= -155.676248248220     IErMin= 1 ErrMin= 4.74D-05
 ErrMax= 4.74D-05  0.00D+00 EMaxC= 1.00D-01 BMatC= 5.77D-07 BMatP= 5.77D-07
 IDIUse=1 WtCom= 1.00D+00 WtEn= 0.00D+00
 Coeff-Com:  0.100D+01
 Coeff:      0.100D+01
 Gap=     0.291 Goal=   None    Shift=    0.000
 RMSDP=4.01D-06 MaxDP=2.20D-04 DE=-1.53D-06 OVMax= 5.00D-04

 Cycle   7  Pass 1  IDiag  1:
 RMSU=  1.91D-05    CP:  1.00D+00
 E= -155.676248473626     Delta-E=       -0.000000225405 Rises=F Damp=F
 DIIS: error= 4.68D-05 at cycle   2 NSaved=   2.
 NSaved= 2 IEnMin= 2 EnMin= -155.676248473626     IErMin= 2 ErrMin= 4.68D-05
 ErrMax= 4.68D-05  0.00D+00 EMaxC= 1.00D-01 BMatC= 2.54D-07 BMatP= 5.77D-07
 IDIUse=1 WtCom= 1.00D+00 WtEn= 0.00D+00
 Coeff-Com:  0.369D+00 0.631D+00
 Coeff:      0.369D+00 0.631D+00
 Gap=     0.291 Goal=   None    Shift=    0.000
 RMSDP=9.27D-07 MaxDP=4.65D-05 DE=-2.25D-07 OVMax= 3.42D-04

 Cycle   8  Pass 1  IDiag  1:
 RMSU=  8.45D-07    CP:  1.00D+00  1.02D+00
 E= -155.676248695364     Delta-E=       -0.000000221738 Rises=F Damp=F
 DIIS: error= 1.44D-05 at cycle   3 NSaved=   3.
 NSaved= 3 IEnMin= 3 EnMin= -155.676248695364     IErMin= 3 ErrMin= 1.44D-05
 ErrMax= 1.44D-05  0.00D+00 EMaxC= 1.00D-01 BMatC= 4.30D-08 BMatP= 2.54D-07
 IDIUse=1 WtCom= 1.00D+00 WtEn= 0.00D+00
 Coeff-Com: -0.186D-01 0.281D+00 0.738D+00
 Coeff:     -0.186D-01 0.281D+00 0.738D+00
 Gap=     0.291 Goal=   None    Shift=    0.000
 RMSDP=4.35D-07 MaxDP=1.51D-05 DE=-2.22D-07 OVMax= 1.08D-04

 Cycle   9  Pass 1  IDiag  1:
 RMSU=  2.87D-07    CP:  1.00D+00  1.04D+00  8.51D-01
 E= -155.676248740277     Delta-E=       -0.000000044913 Rises=F Damp=F
 DIIS: error= 2.60D-06 at cycle   4 NSaved=   4.
 NSaved= 4 IEnMin= 4 EnMin= -155.676248740277     IErMin= 4 ErrMin= 2.60D-06
 ErrMax= 2.60D-06  0.00D+00 EMaxC= 1.00D-01 BMatC= 5.75D-10 BMatP= 4.30D-08
 IDIUse=1 WtCom= 1.00D+00 WtEn= 0.00D+00
 Coeff-Com: -0.125D-01 0.474D-01 0.142D+00 0.823D+00
 Coeff:     -0.125D-01 0.474D-01 0.142D+00 0.823D+00
 Gap=     0.291 Goal=   None    Shift=    0.000
 RMSDP=6.73D-08 MaxDP=2.79D-06 DE=-4.49D-08 OVMax= 1.46D-05

 Cycle  10  Pass 1  IDiag  1:
 RMSU=  5.04D-08    CP:  1.00D+00  1.04D+00  8.72D-01  1.13D+00
 E= -155.676248741097     Delta-E=       -0.000000000820 Rises=F Damp=F
 DIIS: error= 1.10D-06 at cycle   5 NSaved=   5.
 NSaved= 5 IEnMin= 5 EnMin= -155.676248741097     IErMin= 5 ErrMin= 1.10D-06
 ErrMax= 1.10D-06  0.00D+00 EMaxC= 1.00D-01 BMatC= 1.56D-10 BMatP= 5.75D-10
 IDIUse=1 WtCom= 1.00D+00 WtEn= 0.00D+00
 Coeff-Com: -0.115D-02-0.287D-01-0.802D-01 0.311D+00 0.799D+00
 Coeff:     -0.115D-02-0.287D-01-0.802D-01 0.311D+00 0.799D+00
 Gap=     0.291 Goal=   None    Shift=    0.000
 RMSDP=3.39D-08 MaxDP=1.44D-06 DE=-8.20D-10 OVMax= 1.26D-05

 Cycle  11  Pass 1  IDiag  1:
 RMSU=  2.39D-08    CP:  1.00D+00  1.04D+00  8.76D-01  1.21D+00  1.09D+00
 E= -155.676248741353     Delta-E=       -0.000000000256 Rises=F Damp=F
 DIIS: error= 3.99D-07 at cycle   6 NSaved=   6.
 NSaved= 6 IEnMin= 6 EnMin= -155.676248741353     IErMin= 6 ErrMin= 3.99D-07
 ErrMax= 3.99D-07  0.00D+00 EMaxC= 1.00D-01 BMatC= 2.10D-11 BMatP= 1.56D-10
 IDIUse=1 WtCom= 1.00D+00 WtEn= 0.00D+00
 Coeff-Com:  0.815D-03-0.174D-01-0.518D-01 0.301D-01 0.331D+00 0.707D+00
 Coeff:      0.815D-03-0.174D-01-0.518D-01 0.301D-01 0.331D+00 0.707D+00
 Gap=     0.291 Goal=   None    Shift=    0.000
 RMSDP=9.96D-09 MaxDP=4.10D-07 DE=-2.56D-10 OVMax= 2.05D-06

 SCF Done:  E(RB2PLYPD3) =  -155.676248741     A.U. after   11 cycles
            NFock= 11  Conv=0.10D-07     -V/T= 2.0042
 KE= 1.550255427326D+02 PE=-5.661748100910D+02 EE= 1.527838602352D+02
 Leave Link  502 at Wed Aug 26 12:32:32 2020, MaxMem=  2097152000 cpu:      1495.1
 (Enter /opt/cluster/programs/g09/g09_d.01/g09/l801.exe)
 DoSCS=T DFT=T ScalE2(SS,OS)=  0.270000  0.270000
 ExpMin= 7.60D-02 ExpMax= 6.70D+04 ExpMxC= 6.47D+02 IAcc=3 IRadAn=         5 AccDes= 0.00D+00
 HarFok:  IExCor=  205 AccDes= 0.00D+00 IRadAn=         5 IDoV=-2 UseB2=F ITyADJ=14
 ICtDFT= 12500011 ScaDFX=  1.000000  1.000000  1.000000  1.000000
 Largest valence mixing into a core orbital is  1.16D-04
 Largest core mixing into a valence orbital is  2.06D-05
 Range of M.O.s used for correlation:     5   408
 NBasis=   408 NAE=    15 NBE=    15 NFC=     4 NFV=     0
 NROrb=    404 NOA=    11 NOB=    11 NVA=   393 NVB=   393

 **** Warning!!: The largest alpha MO coefficient is  0.27710833D+02

 Leave Link  801 at Wed Aug 26 12:32:32 2020, MaxMem=  2097152000 cpu:         1.2
 (Enter /opt/cluster/programs/g09/g09_d.01/g09/l906.exe)
 DoSCS=T DFT=T ScalE2(SS,OS)=  0.270000  0.270000
 FulOut=F Deriv=F AODrv=F NAtomX=    10
   MMem=         881  MDisk=          11 MDiskD=          11
  W3Min=     2152854 MinDsk=     3857222 NBas6D=         498
 NBas2D=      125763    NTT=      124251    LW2=     4508827
    MDV=  2096384136 MDiskM=        9345 NBas2p=      117135
 Fully direct method using O(OVN) memory.
 IMap=   1   2   3   4   5   6   7   8   9  10  11
 JobTyp=1 Pass  1:  I=   1 to  11 NPSUse=  8 ParTrn=T ParDer=T DoDerP=F.
 Spin components of T(2) and E(2):
     alpha-alpha T2 =       0.4281562278D-01 E2=     -0.2552358225D-01
     alpha-beta  T2 =       0.2790714604D+00 E2=     -0.1761220743D+00
     beta-beta   T2 =       0.4281562278D-01 E2=     -0.2552358225D-01
 The integrals were generated   1 times.
 E2(B2PLYPD3) =    -0.2271692388D+00 E(B2PLYPD3) =    -0.15590341798016D+03
 Leave Link  906 at Wed Aug 26 12:34:58 2020, MaxMem=  2097152000 cpu:      1167.4
 (Enter /opt/cluster/programs/g09/g09_d.01/g09/l601.exe)
 Copying SCF densities to generalized density rwf, IOpCl= 0 IROHF=0.

 **********************************************************************

            Population analysis using the SCF density.

 **********************************************************************

 Orbital symmetries:
       Occupied  (A) (A) (A) (A) (A) (A) (A) (A) (A) (A) (A) (A)
                 (A) (A) (A)
       Virtual   (A) (A) (A) (A) (A) (A) (A) (A) (A) (A) (A) (A)
                 (A) (A) (A) (A) (A) (A) (A) (A) (A) (A) (A) (A)
                 (A) (A) (A) (A) (A) (A) (A) (A) (A) (A) (A) (A)
                 (A) (A) (A) (A) (A) (A) (A) (A) (A) (A) (A) (A)
                 (A) (A) (A) (A) (A) (A) (A) (A) (A) (A) (A) (A)
                 (A) (A) (A) (A) (A) (A) (A) (A) (A) (A) (A) (A)
                 (A) (A) (A) (A) (A) (A) (A) (A) (A) (A) (A) (A)
                 (A) (A) (A) (A) (A) (A) (A) (A) (A) (A) (A) (A)
                 (A) (A) (A) (A) (A) (A) (A) (A) (A) (A) (A) (A)
                 (A) (A) (A) (A) (A) (A) (A) (A) (A) (A) (A) (A)
                 (A) (A) (A) (A) (A) (A) (A) (A) (A) (A) (A) (A)
                 (A) (A) (A) (A) (A) (A) (A) (A) (A) (A) (A) (A)
                 (A) (A) (A) (A) (A) (A) (A) (A) (A) (A) (A) (A)
                 (A) (A) (A) (A) (A) (A) (A) (A) (A) (A) (A) (A)
                 (A) (A) (A) (A) (A) (A) (A) (A) (A) (A) (A) (A)
                 (A) (A) (A) (A) (A) (A) (A) (A) (A) (A) (A) (A)
                 (A) (A) (A) (A) (A) (A) (A) (A) (A) (A) (A) (A)
                 (A) (A) (A) (A) (A) (A) (A) (A) (A) (A) (A) (A)
                 (A) (A) (A) (A) (A) (A) (A) (A) (A) (A) (A) (A)
                 (A) (A) (A) (A) (A) (A) (A) (A) (A) (A) (A) (A)
                 (A) (A) (A) (A) (A) (A) (A) (A) (A) (A) (A) (A)
                 (A) (A) (A) (A) (A) (A) (A) (A) (A) (A) (A) (A)
                 (A) (A) (A) (A) (A) (A) (A) (A) (A) (A) (A) (A)
                 (A) (A) (A) (A) (A) (A) (A) (A) (A) (A) (A) (A)
                 (A) (A) (A) (A) (A) (A) (A) (A) (A) (A) (A) (A)
                 (A) (A) (A) (A) (A) (A) (A) (A) (A) (A) (A) (A)
                 (A) (A) (A) (A) (A) (A) (A) (A) (A) (A) (A) (A)
                 (A) (A) (A) (A) (A) (A) (A) (A) (A) (A) (A) (A)
                 (A) (A) (A) (A) (A) (A) (A) (A) (A) (A) (A) (A)
                 (A) (A) (A) (A) (A) (A) (A) (A) (A) (A) (A) (A)
                 (A) (A) (A) (A) (A) (A) (A) (A) (A) (A) (A) (A)
                 (A) (A) (A) (A) (A) (A) (A) (A) (A) (A) (A) (A)
                 (A) (A) (A) (A) (A) (A) (A) (A) (A)
 The electronic state is 1-A.
 Alpha  occ. eigenvalues --  -10.64188 -10.63092 -10.62199 -10.60352  -0.91895
 Alpha  occ. eigenvalues --   -0.84898  -0.70666  -0.63324  -0.55046  -0.53779
 Alpha  occ. eigenvalues --   -0.46590  -0.46149  -0.40835  -0.36798  -0.27802
 Alpha virt. eigenvalues --    0.01329   0.07151   0.07270   0.07838   0.08718
 Alpha virt. eigenvalues --    0.11614   0.12564   0.14792   0.15271   0.15946
 Alpha virt. eigenvalues --    0.18924   0.19570   0.21742   0.23178   0.23597
 Alpha virt. eigenvalues --    0.25573   0.26988   0.29693   0.31232   0.31869
 Alpha virt. eigenvalues --    0.33830   0.35092   0.37365   0.37934   0.38957
 Alpha virt. eigenvalues --    0.41676   0.42129   0.45210   0.47047   0.47790
 Alpha virt. eigenvalues --    0.48463   0.49703   0.51873   0.53376   0.56062
 Alpha virt. eigenvalues --    0.59893   0.64070   0.64395   0.67312   0.68609
 Alpha virt. eigenvalues --    0.69546   0.70313   0.76062   0.77104   0.78043
 Alpha virt. eigenvalues --    0.78825   0.80748   0.81586   0.82796   0.83548
 Alpha virt. eigenvalues --    0.84793   0.85370   0.86066   0.87622   0.89589
 Alpha virt. eigenvalues --    0.91362   0.91714   0.94143   0.95539   0.97059
 Alpha virt. eigenvalues --    0.97896   0.99730   1.00765   1.02026   1.04920
 Alpha virt. eigenvalues --    1.05261   1.05474   1.08156   1.10858   1.11591
 Alpha virt. eigenvalues --    1.13289   1.15059   1.18983   1.21926   1.23794
 Alpha virt. eigenvalues --    1.24914   1.27497   1.30471   1.31146   1.35144
 Alpha virt. eigenvalues --    1.39796   1.40772   1.46140   1.52561   1.59109
 Alpha virt. eigenvalues --    1.62289   1.64275   1.68042   1.68934   1.75727
 Alpha virt. eigenvalues --    1.78196   1.80655   1.84066   1.85469   1.88689
 Alpha virt. eigenvalues --    1.89249   1.91151   1.91820   1.94243   1.95302
 Alpha virt. eigenvalues --    1.96371   1.98241   1.98635   2.00419   2.02671
 Alpha virt. eigenvalues --    2.03726   2.04673   2.06287   2.07159   2.09138
 Alpha virt. eigenvalues --    2.10915   2.11710   2.13904   2.15228   2.17462
 Alpha virt. eigenvalues --    2.18589   2.20457   2.22287   2.25243   2.27890
 Alpha virt. eigenvalues --    2.29557   2.32667   2.35918   2.38003   2.39641
 Alpha virt. eigenvalues --    2.42605   2.43970   2.45293   2.47462   2.49066
 Alpha virt. eigenvalues --    2.51580   2.53572   2.54771   2.56238   2.57361
 Alpha virt. eigenvalues --    2.57898   2.60895   2.61977   2.63401   2.65017
 Alpha virt. eigenvalues --    2.66585   2.68302   2.69931   2.71362   2.72125
 Alpha virt. eigenvalues --    2.75898   2.78168   2.79538   2.79964   2.80985
 Alpha virt. eigenvalues --    2.81507   2.87125   2.89403   2.90003   2.93252
 Alpha virt. eigenvalues --    2.94336   2.96668   2.99098   3.03758   3.07233
 Alpha virt. eigenvalues --    3.10267   3.13372   3.23925   3.28489   3.29995
 Alpha virt. eigenvalues --    3.35487   3.37816   3.41202   3.42602   3.45988
 Alpha virt. eigenvalues --    3.46686   3.49695   3.51886   3.54646   3.58053
 Alpha virt. eigenvalues --    3.60799   3.61077   3.64898   3.67093   3.67576
 Alpha virt. eigenvalues --    3.75157   3.82167   3.85815   3.87008   3.88620
 Alpha virt. eigenvalues --    3.92234   3.97926   4.00652   4.06317   4.11728
 Alpha virt. eigenvalues --    4.12989   4.15738   4.21121   4.26525   4.35038
 Alpha virt. eigenvalues --    4.42103   4.47910   4.60873   4.79003   4.96329
 Alpha virt. eigenvalues --    4.98512   5.01642   5.05691   5.07829   5.09010
 Alpha virt. eigenvalues --    5.13462   5.16152   5.21530   5.27751   5.31301
 Alpha virt. eigenvalues --    5.31559   5.35313   5.37624   5.43802   5.48241
 Alpha virt. eigenvalues --    5.52133   5.58938   5.60651   5.62748   5.63802
 Alpha virt. eigenvalues --    5.68792   5.69026   5.70629   5.76253   5.76477
 Alpha virt. eigenvalues --    5.79228   5.80511   5.82436   5.85117   5.87993
 Alpha virt. eigenvalues --    5.88219   5.92187   5.93968   5.98670   5.99249
 Alpha virt. eigenvalues --    6.04237   6.05273   6.08262   6.10271   6.11706
 Alpha virt. eigenvalues --    6.12677   6.16079   6.17397   6.18282   6.19302
 Alpha virt. eigenvalues --    6.23334   6.24068   6.24775   6.27580   6.29283
 Alpha virt. eigenvalues --    6.32413   6.32997   6.34107   6.35279   6.37471
 Alpha virt. eigenvalues --    6.40714   6.41007   6.44515   6.46474   6.50635
 Alpha virt. eigenvalues --    6.52294   6.55158   6.57785   6.60493   6.63521
 Alpha virt. eigenvalues --    6.64195   6.67446   6.72678   6.72808   6.74227
 Alpha virt. eigenvalues --    6.79068   6.81970   6.85234   6.88119   6.88394
 Alpha virt. eigenvalues --    6.91970   6.93919   7.01528   7.02346   7.05878
 Alpha virt. eigenvalues --    7.10576   7.11759   7.13145   7.20235   7.20604
 Alpha virt. eigenvalues --    7.24120   7.30693   7.35644   7.37593   7.39868
 Alpha virt. eigenvalues --    7.41152   7.47155   7.50617   7.56324   7.57065
 Alpha virt. eigenvalues --    7.58799   7.61837   7.63106   7.64564   7.67100
 Alpha virt. eigenvalues --    7.69138   7.72131   7.73464   7.73998   7.76496
 Alpha virt. eigenvalues --    7.80135   7.83902   7.85638   7.86649   7.93397
 Alpha virt. eigenvalues --    7.94394   7.95591   7.97589   7.99521   8.04900
 Alpha virt. eigenvalues --    8.08366   8.09676   8.14889   8.15939   8.19063
 Alpha virt. eigenvalues --    8.21737   8.26017   8.31125   8.31588   8.32907
 Alpha virt. eigenvalues --    8.36126   8.37260   8.40060   8.41887   8.43762
 Alpha virt. eigenvalues --    8.45964   8.48197   8.54196   8.57623   8.58107
 Alpha virt. eigenvalues --    8.60054   8.63967   8.64910   8.65734   8.66596
 Alpha virt. eigenvalues --    8.70640   8.73565   8.79484   8.81569   8.87157
 Alpha virt. eigenvalues --    8.90573   8.97009   9.00128   9.08173   9.08728
 Alpha virt. eigenvalues --    9.14384   9.20972   9.25152   9.32791   9.40608
 Alpha virt. eigenvalues --    9.52390   9.55871   9.62022   9.63841   9.70367
 Alpha virt. eigenvalues --    9.83723   9.96097  10.01052  10.03869  10.07111
 Alpha virt. eigenvalues --   10.13120  10.20615  10.23887  10.28438  10.32676
 Alpha virt. eigenvalues --   10.38656  10.55853  10.67046  10.71222  10.83287
 Alpha virt. eigenvalues --   10.90461  11.34719  11.42176  11.53923  11.66352
 Alpha virt. eigenvalues --   11.77527  12.42871  12.96466  13.13227  13.18476
 Alpha virt. eigenvalues --   28.58837  28.79219  29.33873  29.64699 148.17383
 Alpha virt. eigenvalues --  148.39488 148.92010 149.28612
          Condensed to atoms (all electrons):
               1          2          3          4          5          6
     1  C    4.808138   0.614342  -0.074110  -0.001898   0.432006   0.429469
     2  C    0.614342   4.845404   0.392050  -0.077390  -0.048502  -0.048090
     3  C   -0.074110   0.392050   4.881242   0.610172   0.007931  -0.008072
     4  C   -0.001898  -0.077390   0.610172   4.853867  -0.000686   0.000310
     5  H    0.432006  -0.048502   0.007931  -0.000686   0.585291  -0.051854
     6  H    0.429469  -0.048090  -0.008072   0.000310  -0.051854   0.603730
     7  H   -0.044080   0.407593  -0.065909  -0.001546  -0.008996   0.007465
     8  H    0.001383  -0.049047   0.395545  -0.041318  -0.000298   0.003850
     9  H    0.000289  -0.006896  -0.042147   0.421250  -0.000038   0.000052
    10  H   -0.000561   0.007897  -0.051565   0.425214   0.000035  -0.000044
               7          8          9         10
     1  C   -0.044080   0.001383   0.000289  -0.000561
     2  C    0.407593  -0.049047  -0.006896   0.007897
     3  C   -0.065909   0.395545  -0.042147  -0.051565
     4  C   -0.001546  -0.041318   0.421250   0.425214
     5  H   -0.008996  -0.000298  -0.000038   0.000035
     6  H    0.007465   0.003850   0.000052  -0.000044
     7  H    0.634654   0.006368   0.005017  -0.000289
     8  H    0.006368   0.627241   0.006607  -0.009300
     9  H    0.005017   0.006607   0.576321  -0.038903
    10  H   -0.000289  -0.009300  -0.038903   0.577500
 Mulliken charges:
               1
     1  C   -0.164978
     2  C   -0.037362
     3  C   -0.045135
     4  C   -0.187975
     5  H    0.085110
     6  H    0.063183
     7  H    0.059723
     8  H    0.058969
     9  H    0.078447
    10  H    0.090018
 Sum of Mulliken charges =   0.00000
 Mulliken charges with hydrogens summed into heavy atoms:
               1
     1  C   -0.016684
     2  C    0.022361
     3  C    0.013833
     4  C   -0.019510
 Electronic spatial extent (au):  <R**2>=            342.0679
 Charge=              0.0000 electrons
 Dipole moment (field-independent basis, Debye):
    X=              0.1004    Y=             -0.0776    Z=              0.0343  Tot=              0.1315
 Quadrupole moment (field-independent basis, Debye-Ang):
   XX=            -23.6205   YY=            -23.1402   ZZ=            -29.2832
   XY=             -0.2823   XZ=              0.7721   YZ=              0.1693
 Traceless Quadrupole moment (field-independent basis, Debye-Ang):
   XX=              1.7274   YY=              2.2077   ZZ=             -3.9352
   XY=             -0.2823   XZ=              0.7721   YZ=              0.1693
 Octapole moment (field-independent basis, Debye-Ang**2):
  XXX=             -2.0213  YYY=             -0.2955  ZZZ=              0.0387  XYY=              0.8379
  XXY=              0.1427  XXZ=             -1.0309  XZZ=             -0.4733  YZZ=             -0.1434
  YYZ=              0.5668  XYZ=              1.0981
 Hexadecapole moment (field-independent basis, Debye-Ang**3):
 XXXX=           -353.2658 YYYY=            -67.4187 ZZZZ=            -38.1123 XXXY=              4.8948
 XXXZ=              5.9791 YYYX=             -2.1823 YYYZ=              0.6986 ZZZX=              1.4308
 ZZZY=              0.1136 XXYY=            -69.2333 XXZZ=            -77.8846 YYZZ=            -19.4852
 XXYZ=              0.5264 YYXZ=              0.9955 ZZXY=             -0.5317
 N-N= 1.026891583818D+02 E-N=-5.661747890231D+02  KE= 1.550255427326D+02
 Leave Link  601 at Wed Aug 26 12:34:59 2020, MaxMem=  2097152000 cpu:         2.2
 (Enter /opt/cluster/programs/g09/g09_d.01/g09/l9999.exe)
 1\1\GINC-NODE10\SP\RB2PLYPD3-FC\def2QZVP\C4H6\BOITTIER\26-Aug-2020\0\\
 #p B2PLYPD3/Def2QZVP\\butadiene\\0,1\C,0,-3.890632,0.196055,0.027548\C
 ,0,-2.733382,-0.478096,0.056001\C,0,-1.348651,0.121699,-0.008825\C,0,-
 0.249469,-0.699594,0.023009\H,0,-4.761628,-0.255061,-0.065115\H,0,-3.9
 10536,1.23848,-0.213611\H,0,-2.639721,-1.530274,0.228341\H,0,-1.201586
 ,1.251739,0.243331\H,0,-0.330728,-1.77682,-0.07742\H,0,0.678854,-0.182
 651,0.117873\\Version=ES64L-G09RevD.01\State=1-A\HF=-155.6762487\MP2=-
 155.903418\RMSD=9.955e-09\PG=C01 [X(C4H6)]\\@


 THESE ARE THE TIMES THAT TRY MENS SOULS.
 THE SUMMER SOLDIER AND THE SUNSHINE PATRIOT WILL IN THIS CRISIS,
 SHRINK FROM THE SERVICE OF HIS COUNTRY.  BUT HE THAT STANDS NOW,
 DESERVES THE LOVE AND THANKS OF MAN AND WOMAN.
 TYRANNY, LIKE HELL, IS NOT EASILY CONQUERED,
 YET WE HAVE THIS CONSOLATION WITH US,
 THAT THE HARDER THE CONFLICT, THE MORE GLORIOUS THE TRIUMPH.
 WHAT WE OBTAIN TOO CHEAP, WE ESTEEM TOO LIGHTLY, 
 'TIS DEARNESS ONLY THAT GIVES EVERYTHING ITS VALUE.

                                              -- TOM PAINE
 Job cpu time:       0 days  0 hours 44 minutes 41.6 seconds.
 File lengths (MBytes):  RWF=     92 Int=      0 D2E=      0 Chk=      9 Scr=      1
 Normal termination of Gaussian 09 at Wed Aug 26 12:34:59 2020.
