 Entering Gaussian System, Link 0=/opt/cluster/programs/g09/g09_d.01/g09//g09
 Input=/home/boittier/MDCM/nms_sampling/butadiene_geom.xyz.dir/energies/butadiene_2335_energy.com
 Output=/scratch/boittier/butadiene_2335_energy/butadiene_2335_energy.out
 Initial command:
 /opt/cluster/programs/g09/g09_d.01/g09/l1.exe "/scratch/boittier/butadiene_2335_energy/Gau-105579.inp" -scrdir="/scratch/boittier/butadiene_2335_energy/"
 Entering Link 1 = /opt/cluster/programs/g09/g09_d.01/g09/l1.exe PID=    105580.
  
 Copyright (c) 1988,1990,1992,1993,1995,1998,2003,2009,2013,
            Gaussian, Inc.  All Rights Reserved.
  
 This is part of the Gaussian(R) 09 program.  It is based on
 the Gaussian(R) 03 system (copyright 2003, Gaussian, Inc.),
 the Gaussian(R) 98 system (copyright 1998, Gaussian, Inc.),
 the Gaussian(R) 94 system (copyright 1995, Gaussian, Inc.),
 the Gaussian 92(TM) system (copyright 1992, Gaussian, Inc.),
 the Gaussian 90(TM) system (copyright 1990, Gaussian, Inc.),
 the Gaussian 88(TM) system (copyright 1988, Gaussian, Inc.),
 the Gaussian 86(TM) system (copyright 1986, Carnegie Mellon
 University), and the Gaussian 82(TM) system (copyright 1983,
 Carnegie Mellon University). Gaussian is a federally registered
 trademark of Gaussian, Inc.
  
 This software contains proprietary and confidential information,
 including trade secrets, belonging to Gaussian, Inc.
  
 This software is provided under written license and may be
 used, copied, transmitted, or stored only in accord with that
 written license.
  
 The following legend is applicable only to US Government
 contracts under FAR:
  
                    RESTRICTED RIGHTS LEGEND
  
 Use, reproduction and disclosure by the US Government is
 subject to restrictions as set forth in subparagraphs (a)
 and (c) of the Commercial Computer Software - Restricted
 Rights clause in FAR 52.227-19.
  
 Gaussian, Inc.
 340 Quinnipiac St., Bldg. 40, Wallingford CT 06492
  
  
 ---------------------------------------------------------------
 Warning -- This program may not be used in any manner that
 competes with the business of Gaussian, Inc. or will provide
 assistance to any competitor of Gaussian, Inc.  The licensee
 of this program is prohibited from giving any competitor of
 Gaussian, Inc. access to this program.  By using this program,
 the user acknowledges that Gaussian, Inc. is engaged in the
 business of creating and licensing software in the field of
 computational chemistry and represents and warrants to the
 licensee that it is not a competitor of Gaussian, Inc. and that
 it will not use this program in any manner prohibited above.
 ---------------------------------------------------------------
  

 Cite this work as:
 Gaussian 09, Revision D.01,
 M. J. Frisch, G. W. Trucks, H. B. Schlegel, G. E. Scuseria, 
 M. A. Robb, J. R. Cheeseman, G. Scalmani, V. Barone, B. Mennucci, 
 G. A. Petersson, H. Nakatsuji, M. Caricato, X. Li, H. P. Hratchian, 
 A. F. Izmaylov, J. Bloino, G. Zheng, J. L. Sonnenberg, M. Hada, 
 M. Ehara, K. Toyota, R. Fukuda, J. Hasegawa, M. Ishida, T. Nakajima, 
 Y. Honda, O. Kitao, H. Nakai, T. Vreven, J. A. Montgomery, Jr., 
 J. E. Peralta, F. Ogliaro, M. Bearpark, J. J. Heyd, E. Brothers, 
 K. N. Kudin, V. N. Staroverov, T. Keith, R. Kobayashi, J. Normand, 
 K. Raghavachari, A. Rendell, J. C. Burant, S. S. Iyengar, J. Tomasi, 
 M. Cossi, N. Rega, J. M. Millam, M. Klene, J. E. Knox, J. B. Cross, 
 V. Bakken, C. Adamo, J. Jaramillo, R. Gomperts, R. E. Stratmann, 
 O. Yazyev, A. J. Austin, R. Cammi, C. Pomelli, J. W. Ochterski, 
 R. L. Martin, K. Morokuma, V. G. Zakrzewski, G. A. Voth, 
 P. Salvador, J. J. Dannenberg, S. Dapprich, A. D. Daniels, 
 O. Farkas, J. B. Foresman, J. V. Ortiz, J. Cioslowski, 
 and D. J. Fox, Gaussian, Inc., Wallingford CT, 2013.
 
 ******************************************
 Gaussian 09:  ES64L-G09RevD.01 24-Apr-2013
                26-Aug-2020 
 ******************************************
 %chk=/home/boittier/MDCM/nms_sampling/butadiene_geom.xyz.dir/butadiene_2335.chk
 %nproc=8
 Will use up to    8 processors via shared memory.
 %mem=16000MB
 --------------------
 #p B2PLYPD3/Def2QZVP
 --------------------
 1/38=1/1;
 2/12=2,17=6,18=5,40=1/2;
 3/5=45,7=101,11=9,16=1,25=1,30=1,74=-60/1,2,3;
 4//1;
 5/5=2,38=5/2;
 8/10=1/1;
 9/16=-3/6;
 6/7=2,8=2,9=2,10=2/1;
 99/5=1,9=1/99;
 Leave Link    1 at Wed Aug 26 13:26:39 2020, MaxMem=  2097152000 cpu:         0.2
 (Enter /opt/cluster/programs/g09/g09_d.01/g09/l101.exe)
 ---------
 butadiene
 ---------
 Symbolic Z-matrix:
 Charge =  0 Multiplicity = 1
 C                    -3.84842   0.27868   0.07257 
 C                    -2.73002  -0.53119  -0.01108 
 C                    -1.37927  -0.01574  -0.04666 
 C                    -0.23629  -0.60726   0.05725 
 H                    -4.78061  -0.18135   0.07529 
 H                    -3.88007   1.29854   0.08964 
 H                    -2.8215   -1.59283  -0.04864 
 H                    -1.4289    1.06621  -0.18811 
 H                    -0.20344  -1.69688   0.19077 
 H                     0.63353  -0.0622    0.32148 
 
 NAtoms=     10 NQM=       10 NQMF=       0 NMMI=      0 NMMIF=      0
                NMic=       0 NMicF=      0.
                    Isotopes and Nuclear Properties:
 (Nuclear quadrupole moments (NQMom) in fm**2, nuclear magnetic moments (NMagM)
  in nuclear magnetons)

  Atom         1           2           3           4           5           6           7           8           9          10
 IAtWgt=          12          12          12          12           1           1           1           1           1           1
 AtmWgt=  12.0000000  12.0000000  12.0000000  12.0000000   1.0078250   1.0078250   1.0078250   1.0078250   1.0078250   1.0078250
 NucSpn=           0           0           0           0           1           1           1           1           1           1
 AtZEff=   0.0000000   0.0000000   0.0000000   0.0000000   0.0000000   0.0000000   0.0000000   0.0000000   0.0000000   0.0000000
 NQMom=    0.0000000   0.0000000   0.0000000   0.0000000   0.0000000   0.0000000   0.0000000   0.0000000   0.0000000   0.0000000
 NMagM=    0.0000000   0.0000000   0.0000000   0.0000000   2.7928460   2.7928460   2.7928460   2.7928460   2.7928460   2.7928460
 AtZNuc=   6.0000000   6.0000000   6.0000000   6.0000000   1.0000000   1.0000000   1.0000000   1.0000000   1.0000000   1.0000000
 Leave Link  101 at Wed Aug 26 13:26:39 2020, MaxMem=  2097152000 cpu:         0.5
 (Enter /opt/cluster/programs/g09/g09_d.01/g09/l202.exe)
                          Input orientation:                          
 ---------------------------------------------------------------------
 Center     Atomic      Atomic             Coordinates (Angstroms)
 Number     Number       Type             X           Y           Z
 ---------------------------------------------------------------------
      1          6           0       -3.848419    0.278676    0.072566
      2          6           0       -2.730018   -0.531191   -0.011082
      3          6           0       -1.379269   -0.015736   -0.046662
      4          6           0       -0.236292   -0.607263    0.057251
      5          1           0       -4.780609   -0.181348    0.075290
      6          1           0       -3.880069    1.298538    0.089642
      7          1           0       -2.821495   -1.592828   -0.048638
      8          1           0       -1.428900    1.066205   -0.188108
      9          1           0       -0.203436   -1.696879    0.190769
     10          1           0        0.633531   -0.062200    0.321479
 ---------------------------------------------------------------------
                    Distance matrix (angstroms):
                    1          2          3          4          5
     1  C    0.000000
     2  C    1.383366   0.000000
     3  C    2.489497   1.446196   0.000000
     4  C    3.719218   2.495822   1.291162   0.000000
     5  H    1.039523   2.082012   3.407552   4.564268   0.000000
     6  H    1.020496   2.163486   2.828409   4.112206   1.732409
     7  H    2.138175   1.066232   2.137110   2.768723   2.417801
     8  H    2.557777   2.067830   1.092276   2.069543   3.586045
     9  H    4.147613   2.789837   2.065236   1.098258   4.822933
    10  H    4.501781   3.412332   2.046717   1.059954   5.421044
                    6          7          8          9         10
     6  H    0.000000
     7  H    3.082158   0.000000
     8  H    2.477772   3.004868   0.000000
     9  H    4.743457   2.631041   3.046300   0.000000
    10  H    4.719951   3.796974   2.405535   1.841134   0.000000
 Stoichiometry    C4H6
 Framework group  C1[X(C4H6)]
 Deg. of freedom    24
 Full point group                 C1      NOp   1
 Largest Abelian subgroup         C1      NOp   1
 Largest concise Abelian subgroup C1      NOp   1
                         Standard orientation:                         
 ---------------------------------------------------------------------
 Center     Atomic      Atomic             Coordinates (Angstroms)
 Number     Number       Type             X           Y           Z
 ---------------------------------------------------------------------
      1          6           0        1.853310   -0.152823    0.059255
      2          6           0        0.605439    0.435572   -0.042280
      3          6           0       -0.626866   -0.320604   -0.075544
      4          6           0       -1.860014    0.051490    0.013846
      5          1           0        2.684694    0.471203    0.058712
      6          1           0        2.072270   -1.148987    0.092806
      7          1           0        0.499942    1.495190   -0.096437
      8          1           0       -0.377637   -1.376827   -0.199419
      9          1           0       -2.094112    1.118230    0.129744
     10          1           0       -2.616371   -0.640619    0.282940
 ---------------------------------------------------------------------
 Rotational constants (GHZ):     43.9456250      4.3775655      3.9992030
 Leave Link  202 at Wed Aug 26 13:26:39 2020, MaxMem=  2097152000 cpu:         0.0
 (Enter /opt/cluster/programs/g09/g09_d.01/g09/l301.exe)
 Standard basis: def2QZVP (5D, 7F)
 Ernie: Thresh=  0.10000D-02 Tol=  0.10000D-05 Strict=F.
 There are   498 symmetry adapted cartesian basis functions of A   symmetry.
 There are   408 symmetry adapted basis functions of A   symmetry.
   408 basis functions,   596 primitive gaussians,   498 cartesian basis functions
    15 alpha electrons       15 beta electrons
       nuclear repulsion energy       104.2992876067 Hartrees.
 IExCor=  419 DFT=T Ex+Corr=B2PLYPD3 ExCW=0 ScaHFX=  0.530000
 ScaDFX=  0.470000  0.470000  0.730000  0.730000 ScalE2=  0.270000  0.270000
 IRadAn=      0 IRanWt=     -1 IRanGd=            0 ICorTp=0 IEmpDi=141
 NAtoms=   10 NActive=   10 NUniq=   10 SFac= 1.00D+00 NAtFMM=   60 NAOKFM=F Big=F
 Integral buffers will be    131072 words long.
 Regular integral format.
 Two-electron integral symmetry is turned on.
 R6Disp:  Grimme-D3(BJ) Dispersion energy=       -0.0048281230 Hartrees.
 Nuclear repulsion after empirical dispersion term =      104.2944594837 Hartrees.
 Leave Link  301 at Wed Aug 26 13:26:39 2020, MaxMem=  2097152000 cpu:         0.4
 (Enter /opt/cluster/programs/g09/g09_d.01/g09/l302.exe)
 NPDir=0 NMtPBC=     1 NCelOv=     1 NCel=       1 NClECP=     1 NCelD=      1
         NCelK=      1 NCelE2=     1 NClLst=     1 CellRange=     0.0.
 One-electron integrals computed using PRISM.
   1 Symmetry operations used in ECPInt.
 ECPInt:  NShTT=    8256 NPrTT=   19107 LenC2=    8059 LenP2D=   16104.
 LDataN:  DoStor=T MaxTD1= 8 Len=  415
 NBasis=   408 RedAO= T EigKep=  4.56D-05  NBF=   408
 NBsUse=   408 1.00D-06 EigRej= -1.00D+00 NBFU=   408
 Precomputing XC quadrature grid using
 IXCGrd= 4 IRadAn=           0 IRanWt=          -1 IRanGd=           0 AccXCQ= 0.00D+00.
 Generated NRdTot=       0 NPtTot=           0 NUsed=           0 NTot=          32
 NSgBfM=   498   498   498   498   498 MxSgAt=    10 MxSgA2=    10.
 Leave Link  302 at Wed Aug 26 13:26:40 2020, MaxMem=  2097152000 cpu:         3.7
 (Enter /opt/cluster/programs/g09/g09_d.01/g09/l303.exe)
 DipDrv:  MaxL=1.
 Leave Link  303 at Wed Aug 26 13:26:40 2020, MaxMem=  2097152000 cpu:         0.4
 (Enter /opt/cluster/programs/g09/g09_d.01/g09/l401.exe)
 ExpMin= 7.60D-02 ExpMax= 6.70D+04 ExpMxC= 6.47D+02 IAcc=2 IRadAn=         4 AccDes= 0.00D+00
 Harris functional with IExCor=  419 and IRadAn=       4 diagonalized for initial guess.
 HarFok:  IExCor=  419 AccDes= 0.00D+00 IRadAn=         4 IDoV= 1 UseB2=F ITyADJ=14
 ICtDFT=  3500011 ScaDFX=  1.000000  1.000000  1.000000  1.000000
 FoFCou: FMM=F IPFlag=           0 FMFlag=      100000 FMFlg1=           0
         NFxFlg=           0 DoJE=T BraDBF=F KetDBF=T FulRan=T
         wScrn=  0.000000 ICntrl=     500 IOpCl=  0 I1Cent=   200000004 NGrid=           0
         NMat0=    1 NMatS0=      1 NMatT0=    0 NMatD0=    1 NMtDS0=    0 NMtDT0=    0
 Petite list used in FoFCou.
 Harris En= -156.130416659981    
 JPrj=0 DoOrth=F DoCkMO=F.
 Leave Link  401 at Wed Aug 26 13:26:42 2020, MaxMem=  2097152000 cpu:         9.4
 (Enter /opt/cluster/programs/g09/g09_d.01/g09/l502.exe)
 Closed shell SCF:
 Using DIIS extrapolation, IDIIS=  1040.
 Integral symmetry usage will be decided dynamically.
 IVT=      770090 IEndB=      770090 NGot=  2097152000 MDV=  2096647053
 LenX=  2096647053 LenY=  2096398551
 Requested convergence on RMS density matrix=1.00D-08 within 128 cycles.
 Requested convergence on MAX density matrix=1.00D-06.
 Requested convergence on             energy=1.00D-06.
 No special actions if energy rises.
 Fock matrices will be formed incrementally for  20 cycles.
 Integral accuracy reduced to 1.0D-05 until final iterations.

 Cycle   1  Pass 0  IDiag  1:
 FoFJK:  IHMeth= 1 ICntrl=       0 DoSepK=F KAlg= 0 I1Cent=   0 FoldK=F
 IRaf= 940000000 NMat=   1 IRICut=       1 DoRegI=T DoRafI=F ISym2E= 0.
 FoFCou: FMM=F IPFlag=           0 FMFlag=      100000 FMFlg1=           0
         NFxFlg=           0 DoJE=F BraDBF=F KetDBF=F FulRan=T
         wScrn=  0.000000 ICntrl=       0 IOpCl=  0 I1Cent=           0 NGrid=           0
         NMat0=    1 NMatS0=      1 NMatT0=    0 NMatD0=    1 NMtDS0=    0 NMtDT0=    0
 Symmetry not used in FoFCou.
 E= -155.489995478819    
 DIIS: error= 2.68D-02 at cycle   1 NSaved=   1.
 NSaved= 1 IEnMin= 1 EnMin= -155.489995478819     IErMin= 1 ErrMin= 2.68D-02
 ErrMax= 2.68D-02  0.00D+00 EMaxC= 1.00D-01 BMatC= 2.62D-01 BMatP= 2.62D-01
 IDIUse=3 WtCom= 7.32D-01 WtEn= 2.68D-01
 Coeff-Com:  0.100D+01
 Coeff-En:   0.100D+01
 Coeff:      0.100D+01
 Gap=     0.294 Goal=   None    Shift=    0.000
 GapD=    0.294 DampG=1.000 DampE=0.500 DampFc=0.5000 IDamp=-1.
 Damping current iteration by 5.00D-01
 RMSDP=9.67D-04 MaxDP=5.73D-02              OVMax= 1.96D-01

 Cycle   2  Pass 0  IDiag  1:
 RMSU=  4.44D-04    CP:  9.50D-01
 E= -155.593497888963     Delta-E=       -0.103502410144 Rises=F Damp=T
 DIIS: error= 7.26D-03 at cycle   2 NSaved=   2.
 NSaved= 2 IEnMin= 2 EnMin= -155.593497888963     IErMin= 2 ErrMin= 7.26D-03
 ErrMax= 7.26D-03  0.00D+00 EMaxC= 1.00D-01 BMatC= 3.04D-02 BMatP= 2.62D-01
 IDIUse=3 WtCom= 9.27D-01 WtEn= 7.26D-02
 Coeff-Com: -0.305D+00 0.131D+01
 Coeff-En:   0.000D+00 0.100D+01
 Coeff:     -0.283D+00 0.128D+01
 Gap=     0.356 Goal=   None    Shift=    0.000
 RMSDP=2.63D-04 MaxDP=8.87D-03 DE=-1.04D-01 OVMax= 9.14D-02

 Cycle   3  Pass 0  IDiag  1:
 RMSU=  2.49D-04    CP:  9.32D-01  1.11D+00
 E= -155.682346693284     Delta-E=       -0.088848804322 Rises=F Damp=F
 DIIS: error= 3.33D-03 at cycle   3 NSaved=   3.
 NSaved= 3 IEnMin= 3 EnMin= -155.682346693284     IErMin= 3 ErrMin= 3.33D-03
 ErrMax= 3.33D-03  0.00D+00 EMaxC= 1.00D-01 BMatC= 1.78D-03 BMatP= 3.04D-02
 IDIUse=3 WtCom= 9.67D-01 WtEn= 3.33D-02
 Coeff-Com: -0.112D+00 0.217D+00 0.894D+00
 Coeff-En:   0.000D+00 0.000D+00 0.100D+01
 Coeff:     -0.108D+00 0.210D+00 0.898D+00
 Gap=     0.288 Goal=   None    Shift=    0.000
 RMSDP=6.73D-05 MaxDP=4.24D-03 DE=-8.88D-02 OVMax= 1.81D-02

 Cycle   4  Pass 0  IDiag  1:
 RMSU=  4.74D-05    CP:  9.28D-01  1.20D+00  9.33D-01
 E= -155.683834291051     Delta-E=       -0.001487597767 Rises=F Damp=F
 DIIS: error= 2.21D-03 at cycle   4 NSaved=   4.
 NSaved= 4 IEnMin= 4 EnMin= -155.683834291051     IErMin= 4 ErrMin= 2.21D-03
 ErrMax= 2.21D-03  0.00D+00 EMaxC= 1.00D-01 BMatC= 4.13D-04 BMatP= 1.78D-03
 IDIUse=3 WtCom= 9.78D-01 WtEn= 2.21D-02
 Coeff-Com: -0.505D-01 0.841D-01 0.457D+00 0.510D+00
 Coeff-En:   0.000D+00 0.000D+00 0.214D-01 0.979D+00
 Coeff:     -0.494D-01 0.823D-01 0.447D+00 0.520D+00
 Gap=     0.287 Goal=   None    Shift=    0.000
 RMSDP=2.55D-05 MaxDP=1.39D-03 DE=-1.49D-03 OVMax= 8.47D-03

 Cycle   5  Pass 0  IDiag  1:
 RMSU=  1.67D-05    CP:  9.28D-01  1.20D+00  9.70D-01  6.51D-01
 E= -155.684233921014     Delta-E=       -0.000399629963 Rises=F Damp=F
 DIIS: error= 3.85D-04 at cycle   5 NSaved=   5.
 NSaved= 5 IEnMin= 5 EnMin= -155.684233921014     IErMin= 5 ErrMin= 3.85D-04
 ErrMax= 3.85D-04  0.00D+00 EMaxC= 1.00D-01 BMatC= 9.51D-06 BMatP= 4.13D-04
 IDIUse=3 WtCom= 9.96D-01 WtEn= 3.85D-03
 Coeff-Com: -0.666D-02 0.867D-02 0.694D-01 0.163D+00 0.766D+00
 Coeff-En:   0.000D+00 0.000D+00 0.000D+00 0.000D+00 0.100D+01
 Coeff:     -0.664D-02 0.864D-02 0.691D-01 0.162D+00 0.766D+00
 Gap=     0.288 Goal=   None    Shift=    0.000
 RMSDP=4.48D-06 MaxDP=2.31D-04 DE=-4.00D-04 OVMax= 1.45D-03

 Initial convergence to 1.0D-05 achieved.  Increase integral accuracy.
 Cycle   6  Pass 1  IDiag  1:
 E= -155.684257768110     Delta-E=       -0.000023847096 Rises=F Damp=F
 DIIS: error= 6.18D-05 at cycle   1 NSaved=   1.
 NSaved= 1 IEnMin= 1 EnMin= -155.684257768110     IErMin= 1 ErrMin= 6.18D-05
 ErrMax= 6.18D-05  0.00D+00 EMaxC= 1.00D-01 BMatC= 1.03D-06 BMatP= 1.03D-06
 IDIUse=1 WtCom= 1.00D+00 WtEn= 0.00D+00
 Coeff-Com:  0.100D+01
 Coeff:      0.100D+01
 Gap=     0.288 Goal=   None    Shift=    0.000
 RMSDP=4.48D-06 MaxDP=2.31D-04 DE=-2.38D-05 OVMax= 6.72D-04

 Cycle   7  Pass 1  IDiag  1:
 RMSU=  2.06D-05    CP:  1.00D+00
 E= -155.684258142355     Delta-E=       -0.000000374245 Rises=F Damp=F
 DIIS: error= 5.23D-05 at cycle   2 NSaved=   2.
 NSaved= 2 IEnMin= 2 EnMin= -155.684258142355     IErMin= 2 ErrMin= 5.23D-05
 ErrMax= 5.23D-05  0.00D+00 EMaxC= 1.00D-01 BMatC= 6.44D-07 BMatP= 1.03D-06
 IDIUse=1 WtCom= 1.00D+00 WtEn= 0.00D+00
 Coeff-Com:  0.433D+00 0.567D+00
 Coeff:      0.433D+00 0.567D+00
 Gap=     0.288 Goal=   None    Shift=    0.000
 RMSDP=1.20D-06 MaxDP=7.09D-05 DE=-3.74D-07 OVMax= 3.17D-04

 Cycle   8  Pass 1  IDiag  1:
 RMSU=  1.09D-06    CP:  1.00D+00  1.02D+00
 E= -155.684258716697     Delta-E=       -0.000000574342 Rises=F Damp=F
 DIIS: error= 1.74D-05 at cycle   3 NSaved=   3.
 NSaved= 3 IEnMin= 3 EnMin= -155.684258716697     IErMin= 3 ErrMin= 1.74D-05
 ErrMax= 1.74D-05  0.00D+00 EMaxC= 1.00D-01 BMatC= 2.58D-08 BMatP= 6.44D-07
 IDIUse=1 WtCom= 1.00D+00 WtEn= 0.00D+00
 Coeff-Com:  0.195D-01 0.157D+00 0.824D+00
 Coeff:      0.195D-01 0.157D+00 0.824D+00
 Gap=     0.288 Goal=   None    Shift=    0.000
 RMSDP=6.01D-07 MaxDP=2.20D-05 DE=-5.74D-07 OVMax= 1.38D-04

 Cycle   9  Pass 1  IDiag  1:
 RMSU=  4.14D-07    CP:  1.00D+00  1.05D+00  9.98D-01
 E= -155.684258742564     Delta-E=       -0.000000025867 Rises=F Damp=F
 DIIS: error= 8.51D-06 at cycle   4 NSaved=   4.
 NSaved= 4 IEnMin= 4 EnMin= -155.684258742564     IErMin= 4 ErrMin= 8.51D-06
 ErrMax= 8.51D-06  0.00D+00 EMaxC= 1.00D-01 BMatC= 6.06D-09 BMatP= 2.58D-08
 IDIUse=1 WtCom= 1.00D+00 WtEn= 0.00D+00
 Coeff-Com: -0.219D-01 0.328D-01 0.408D+00 0.581D+00
 Coeff:     -0.219D-01 0.328D-01 0.408D+00 0.581D+00
 Gap=     0.288 Goal=   None    Shift=    0.000
 RMSDP=1.37D-07 MaxDP=5.51D-06 DE=-2.59D-08 OVMax= 3.18D-05

 Cycle  10  Pass 1  IDiag  1:
 RMSU=  1.07D-07    CP:  1.00D+00  1.05D+00  1.04D+00  1.05D+00
 E= -155.684258749221     Delta-E=       -0.000000006657 Rises=F Damp=F
 DIIS: error= 1.14D-06 at cycle   5 NSaved=   5.
 NSaved= 5 IEnMin= 5 EnMin= -155.684258749221     IErMin= 5 ErrMin= 1.14D-06
 ErrMax= 1.14D-06  0.00D+00 EMaxC= 1.00D-01 BMatC= 8.77D-11 BMatP= 6.06D-09
 IDIUse=1 WtCom= 1.00D+00 WtEn= 0.00D+00
 Coeff-Com: -0.689D-03-0.182D-01-0.878D-01-0.348D-01 0.114D+01
 Coeff:     -0.689D-03-0.182D-01-0.878D-01-0.348D-01 0.114D+01
 Gap=     0.288 Goal=   None    Shift=    0.000
 RMSDP=6.01D-08 MaxDP=2.17D-06 DE=-6.66D-09 OVMax= 1.43D-05

 Cycle  11  Pass 1  IDiag  1:
 RMSU=  3.23D-08    CP:  1.00D+00  1.05D+00  1.06D+00  1.15D+00  1.20D+00
 E= -155.684258749483     Delta-E=       -0.000000000262 Rises=F Damp=F
 DIIS: error= 4.87D-07 at cycle   6 NSaved=   6.
 NSaved= 6 IEnMin= 6 EnMin= -155.684258749483     IErMin= 6 ErrMin= 4.87D-07
 ErrMax= 4.87D-07  0.00D+00 EMaxC= 1.00D-01 BMatC= 1.56D-11 BMatP= 8.77D-11
 IDIUse=1 WtCom= 1.00D+00 WtEn= 0.00D+00
 Coeff-Com:  0.811D-03-0.896D-02-0.523D-01-0.422D-01 0.447D+00 0.656D+00
 Coeff:      0.811D-03-0.896D-02-0.523D-01-0.422D-01 0.447D+00 0.656D+00
 Gap=     0.288 Goal=   None    Shift=    0.000
 RMSDP=7.95D-09 MaxDP=2.88D-07 DE=-2.62D-10 OVMax= 2.48D-06

 SCF Done:  E(RB2PLYPD3) =  -155.684258749     A.U. after   11 cycles
            NFock= 11  Conv=0.79D-08     -V/T= 2.0022
 KE= 1.553371314100D+02 PE=-5.696175357374D+02 EE= 1.543016860942D+02
 Leave Link  502 at Wed Aug 26 13:29:46 2020, MaxMem=  2097152000 cpu:      1458.0
 (Enter /opt/cluster/programs/g09/g09_d.01/g09/l801.exe)
 DoSCS=T DFT=T ScalE2(SS,OS)=  0.270000  0.270000
 ExpMin= 7.60D-02 ExpMax= 6.70D+04 ExpMxC= 6.47D+02 IAcc=3 IRadAn=         5 AccDes= 0.00D+00
 HarFok:  IExCor=  205 AccDes= 0.00D+00 IRadAn=         5 IDoV=-2 UseB2=F ITyADJ=14
 ICtDFT= 12500011 ScaDFX=  1.000000  1.000000  1.000000  1.000000
 Largest valence mixing into a core orbital is  1.11D-04
 Largest core mixing into a valence orbital is  1.95D-05
 Range of M.O.s used for correlation:     5   408
 NBasis=   408 NAE=    15 NBE=    15 NFC=     4 NFV=     0
 NROrb=    404 NOA=    11 NOB=    11 NVA=   393 NVB=   393

 **** Warning!!: The largest alpha MO coefficient is  0.25861347D+02

 Leave Link  801 at Wed Aug 26 13:29:48 2020, MaxMem=  2097152000 cpu:         1.1
 (Enter /opt/cluster/programs/g09/g09_d.01/g09/l906.exe)
 DoSCS=T DFT=T ScalE2(SS,OS)=  0.270000  0.270000
 FulOut=F Deriv=F AODrv=F NAtomX=    10
   MMem=         881  MDisk=          11 MDiskD=          11
  W3Min=     2152854 MinDsk=     3857222 NBas6D=         498
 NBas2D=      125763    NTT=      124251    LW2=     4508827
    MDV=  2096383054 MDiskM=        9345 NBas2p=      117148
 Fully direct method using O(OVN) memory.
 IMap=   1   2   3   4   5   6   7   8   9  10  11
 JobTyp=1 Pass  1:  I=   1 to  11 NPSUse=  8 ParTrn=T ParDer=T DoDerP=F.
 Spin components of T(2) and E(2):
     alpha-alpha T2 =       0.4190085925D-01 E2=     -0.2544466345D-01
     alpha-beta  T2 =       0.2709517705D+00 E2=     -0.1747979949D+00
     beta-beta   T2 =       0.4190085925D-01 E2=     -0.2544466345D-01
 The integrals were generated   1 times.
 E2(B2PLYPD3) =    -0.2256873218D+00 E(B2PLYPD3) =    -0.15590994607126D+03
 Leave Link  906 at Wed Aug 26 13:31:45 2020, MaxMem=  2097152000 cpu:       924.3
 (Enter /opt/cluster/programs/g09/g09_d.01/g09/l601.exe)
 Copying SCF densities to generalized density rwf, IOpCl= 0 IROHF=0.

 **********************************************************************

            Population analysis using the SCF density.

 **********************************************************************

 Orbital symmetries:
       Occupied  (A) (A) (A) (A) (A) (A) (A) (A) (A) (A) (A) (A)
                 (A) (A) (A)
       Virtual   (A) (A) (A) (A) (A) (A) (A) (A) (A) (A) (A) (A)
                 (A) (A) (A) (A) (A) (A) (A) (A) (A) (A) (A) (A)
                 (A) (A) (A) (A) (A) (A) (A) (A) (A) (A) (A) (A)
                 (A) (A) (A) (A) (A) (A) (A) (A) (A) (A) (A) (A)
                 (A) (A) (A) (A) (A) (A) (A) (A) (A) (A) (A) (A)
                 (A) (A) (A) (A) (A) (A) (A) (A) (A) (A) (A) (A)
                 (A) (A) (A) (A) (A) (A) (A) (A) (A) (A) (A) (A)
                 (A) (A) (A) (A) (A) (A) (A) (A) (A) (A) (A) (A)
                 (A) (A) (A) (A) (A) (A) (A) (A) (A) (A) (A) (A)
                 (A) (A) (A) (A) (A) (A) (A) (A) (A) (A) (A) (A)
                 (A) (A) (A) (A) (A) (A) (A) (A) (A) (A) (A) (A)
                 (A) (A) (A) (A) (A) (A) (A) (A) (A) (A) (A) (A)
                 (A) (A) (A) (A) (A) (A) (A) (A) (A) (A) (A) (A)
                 (A) (A) (A) (A) (A) (A) (A) (A) (A) (A) (A) (A)
                 (A) (A) (A) (A) (A) (A) (A) (A) (A) (A) (A) (A)
                 (A) (A) (A) (A) (A) (A) (A) (A) (A) (A) (A) (A)
                 (A) (A) (A) (A) (A) (A) (A) (A) (A) (A) (A) (A)
                 (A) (A) (A) (A) (A) (A) (A) (A) (A) (A) (A) (A)
                 (A) (A) (A) (A) (A) (A) (A) (A) (A) (A) (A) (A)
                 (A) (A) (A) (A) (A) (A) (A) (A) (A) (A) (A) (A)
                 (A) (A) (A) (A) (A) (A) (A) (A) (A) (A) (A) (A)
                 (A) (A) (A) (A) (A) (A) (A) (A) (A) (A) (A) (A)
                 (A) (A) (A) (A) (A) (A) (A) (A) (A) (A) (A) (A)
                 (A) (A) (A) (A) (A) (A) (A) (A) (A) (A) (A) (A)
                 (A) (A) (A) (A) (A) (A) (A) (A) (A) (A) (A) (A)
                 (A) (A) (A) (A) (A) (A) (A) (A) (A) (A) (A) (A)
                 (A) (A) (A) (A) (A) (A) (A) (A) (A) (A) (A) (A)
                 (A) (A) (A) (A) (A) (A) (A) (A) (A) (A) (A) (A)
                 (A) (A) (A) (A) (A) (A) (A) (A) (A) (A) (A) (A)
                 (A) (A) (A) (A) (A) (A) (A) (A) (A) (A) (A) (A)
                 (A) (A) (A) (A) (A) (A) (A) (A) (A) (A) (A) (A)
                 (A) (A) (A) (A) (A) (A) (A) (A) (A) (A) (A) (A)
                 (A) (A) (A) (A) (A) (A) (A) (A) (A)
 The electronic state is 1-A.
 Alpha  occ. eigenvalues --  -10.63180 -10.61762 -10.61453 -10.60758  -0.93206
 Alpha  occ. eigenvalues --   -0.85319  -0.71750  -0.64146  -0.55272  -0.54069
 Alpha  occ. eigenvalues --   -0.47778  -0.46379  -0.40803  -0.37523  -0.27711
 Alpha virt. eigenvalues --    0.01082   0.06978   0.07624   0.08196   0.09841
 Alpha virt. eigenvalues --    0.11589   0.12553   0.15087   0.15568   0.16285
 Alpha virt. eigenvalues --    0.19037   0.19700   0.22114   0.22470   0.23523
 Alpha virt. eigenvalues --    0.26057   0.27334   0.29832   0.31187   0.32401
 Alpha virt. eigenvalues --    0.34859   0.36528   0.36882   0.39434   0.40578
 Alpha virt. eigenvalues --    0.42940   0.43274   0.46000   0.46113   0.48419
 Alpha virt. eigenvalues --    0.48667   0.49916   0.53210   0.56090   0.56937
 Alpha virt. eigenvalues --    0.60116   0.62479   0.64422   0.65767   0.69541
 Alpha virt. eigenvalues --    0.70159   0.71833   0.76332   0.76629   0.79055
 Alpha virt. eigenvalues --    0.80051   0.81652   0.81895   0.83376   0.83980
 Alpha virt. eigenvalues --    0.84362   0.86299   0.87053   0.87852   0.90069
 Alpha virt. eigenvalues --    0.92490   0.93030   0.94183   0.96242   0.97035
 Alpha virt. eigenvalues --    0.98966   0.99869   1.00796   1.02267   1.04975
 Alpha virt. eigenvalues --    1.05754   1.07369   1.09409   1.11218   1.11877
 Alpha virt. eigenvalues --    1.14770   1.17698   1.20908   1.22908   1.23369
 Alpha virt. eigenvalues --    1.25423   1.25842   1.32508   1.33123   1.36226
 Alpha virt. eigenvalues --    1.38029   1.42786   1.48324   1.54637   1.59258
 Alpha virt. eigenvalues --    1.63267   1.66083   1.69344   1.71982   1.74430
 Alpha virt. eigenvalues --    1.77315   1.82296   1.83830   1.85987   1.86962
 Alpha virt. eigenvalues --    1.88849   1.90401   1.91260   1.94173   1.95021
 Alpha virt. eigenvalues --    1.95722   1.96737   2.00452   2.02282   2.03517
 Alpha virt. eigenvalues --    2.03838   2.04783   2.06366   2.06838   2.09736
 Alpha virt. eigenvalues --    2.11813   2.12733   2.15772   2.17270   2.20197
 Alpha virt. eigenvalues --    2.21584   2.22215   2.23604   2.26368   2.27552
 Alpha virt. eigenvalues --    2.32133   2.33414   2.34421   2.37005   2.42775
 Alpha virt. eigenvalues --    2.44620   2.46217   2.49054   2.49880   2.50590
 Alpha virt. eigenvalues --    2.51976   2.53715   2.54884   2.56266   2.58771
 Alpha virt. eigenvalues --    2.60062   2.61536   2.63476   2.64955   2.66454
 Alpha virt. eigenvalues --    2.69845   2.70354   2.71677   2.72820   2.74609
 Alpha virt. eigenvalues --    2.76897   2.77369   2.78365   2.79527   2.82755
 Alpha virt. eigenvalues --    2.85012   2.86230   2.88141   2.94044   2.96317
 Alpha virt. eigenvalues --    2.97277   3.01347   3.04929   3.09577   3.11921
 Alpha virt. eigenvalues --    3.13943   3.15734   3.27529   3.29246   3.36726
 Alpha virt. eigenvalues --    3.37761   3.40890   3.43254   3.45966   3.50274
 Alpha virt. eigenvalues --    3.51834   3.53105   3.55391   3.56173   3.59655
 Alpha virt. eigenvalues --    3.64872   3.67171   3.68217   3.70423   3.77776
 Alpha virt. eigenvalues --    3.83829   3.85295   3.87313   3.92239   3.96350
 Alpha virt. eigenvalues --    3.98832   3.99936   4.03424   4.08829   4.13154
 Alpha virt. eigenvalues --    4.17320   4.20683   4.21242   4.27541   4.41856
 Alpha virt. eigenvalues --    4.56017   4.56611   4.65534   4.78952   4.97947
 Alpha virt. eigenvalues --    5.00879   5.03629   5.06306   5.07627   5.12119
 Alpha virt. eigenvalues --    5.16917   5.20667   5.23706   5.27992   5.32791
 Alpha virt. eigenvalues --    5.35536   5.36318   5.41577   5.46941   5.51330
 Alpha virt. eigenvalues --    5.52718   5.55570   5.60860   5.62062   5.66531
 Alpha virt. eigenvalues --    5.67521   5.70273   5.71777   5.76049   5.77394
 Alpha virt. eigenvalues --    5.78825   5.81673   5.82434   5.86194   5.88080
 Alpha virt. eigenvalues --    5.90405   5.94505   5.96680   5.99979   6.03224
 Alpha virt. eigenvalues --    6.06925   6.07508   6.11102   6.13271   6.15455
 Alpha virt. eigenvalues --    6.15655   6.16750   6.18433   6.21073   6.22018
 Alpha virt. eigenvalues --    6.24478   6.26281   6.30363   6.31277   6.33404
 Alpha virt. eigenvalues --    6.34350   6.35668   6.36296   6.38777   6.41143
 Alpha virt. eigenvalues --    6.41902   6.46325   6.47563   6.54745   6.55836
 Alpha virt. eigenvalues --    6.59511   6.61633   6.62042   6.63597   6.65896
 Alpha virt. eigenvalues --    6.66714   6.71450   6.75040   6.78174   6.80521
 Alpha virt. eigenvalues --    6.86411   6.88192   6.90567   6.91863   6.96334
 Alpha virt. eigenvalues --    6.96927   7.04156   7.05716   7.07294   7.13009
 Alpha virt. eigenvalues --    7.15617   7.18424   7.19223   7.25163   7.25758
 Alpha virt. eigenvalues --    7.29103   7.32358   7.39847   7.41898   7.47632
 Alpha virt. eigenvalues --    7.51792   7.53441   7.57442   7.57964   7.63454
 Alpha virt. eigenvalues --    7.63832   7.64756   7.67361   7.68560   7.71030
 Alpha virt. eigenvalues --    7.72615   7.74123   7.79342   7.80414   7.82577
 Alpha virt. eigenvalues --    7.83245   7.88351   7.88859   7.91774   7.94637
 Alpha virt. eigenvalues --    7.96475   8.01088   8.05882   8.09528   8.12080
 Alpha virt. eigenvalues --    8.13263   8.17576   8.19792   8.21636   8.24075
 Alpha virt. eigenvalues --    8.30938   8.33347   8.36222   8.36563   8.38258
 Alpha virt. eigenvalues --    8.39520   8.42335   8.43122   8.45671   8.46460
 Alpha virt. eigenvalues --    8.50536   8.57344   8.58368   8.60926   8.63081
 Alpha virt. eigenvalues --    8.64694   8.64843   8.67760   8.70117   8.72076
 Alpha virt. eigenvalues --    8.74821   8.78384   8.79427   8.84578   8.94016
 Alpha virt. eigenvalues --    8.98618   9.00336   9.05662   9.12781   9.21234
 Alpha virt. eigenvalues --    9.25012   9.33084   9.37327   9.39630   9.49851
 Alpha virt. eigenvalues --    9.68568   9.72372   9.84100   9.86761   9.98955
 Alpha virt. eigenvalues --    9.99881  10.02721  10.08902  10.10189  10.12073
 Alpha virt. eigenvalues --   10.17867  10.27884  10.40991  10.41789  10.45260
 Alpha virt. eigenvalues --   10.47682  10.51812  10.61072  10.72341  10.99439
 Alpha virt. eigenvalues --   11.07152  11.30712  11.50470  11.67202  11.76335
 Alpha virt. eigenvalues --   11.96631  12.83161  13.05053  13.21540  13.28654
 Alpha virt. eigenvalues --   28.72373  28.87815  29.51613  29.76065 148.31524
 Alpha virt. eigenvalues --  148.48080 149.13274 149.40017
          Condensed to atoms (all electrons):
               1          2          3          4          5          6
     1  C    4.819789   0.631550  -0.079082  -0.002631   0.426189   0.429350
     2  C    0.631550   4.863131   0.392607  -0.074807  -0.049539  -0.039419
     3  C   -0.079082   0.392607   4.846332   0.601077   0.007281  -0.003680
     4  C   -0.002631  -0.074807   0.601077   4.838847  -0.000490   0.000184
     5  H    0.426189  -0.049539   0.007281  -0.000490   0.589610  -0.048924
     6  H    0.429350  -0.039419  -0.003680   0.000184  -0.048924   0.576888
     7  H   -0.042855   0.406333  -0.063505   0.000984  -0.007411   0.005728
     8  H   -0.002893  -0.077050   0.413208  -0.053661   0.000016   0.003832
     9  H    0.000245  -0.008645  -0.055709   0.424639  -0.000029   0.000050
    10  H   -0.000711   0.008118  -0.049252   0.431945   0.000029  -0.000029
               7          8          9         10
     1  C   -0.042855  -0.002893   0.000245  -0.000711
     2  C    0.406333  -0.077050  -0.008645   0.008118
     3  C   -0.063505   0.413208  -0.055709  -0.049252
     4  C    0.000984  -0.053661   0.424639   0.431945
     5  H   -0.007411   0.000016  -0.000029   0.000029
     6  H    0.005728   0.003832   0.000050  -0.000029
     7  H    0.627488   0.008768   0.005394  -0.000405
     8  H    0.008768   0.662415   0.009936  -0.012978
     9  H    0.005394   0.009936   0.617710  -0.046382
    10  H   -0.000405  -0.012978  -0.046382   0.583032
 Mulliken charges:
               1
     1  C   -0.178951
     2  C   -0.052280
     3  C   -0.009278
     4  C   -0.166087
     5  H    0.083267
     6  H    0.076020
     7  H    0.059480
     8  H    0.048405
     9  H    0.052790
    10  H    0.086632
 Sum of Mulliken charges =   0.00000
 Mulliken charges with hydrogens summed into heavy atoms:
               1
     1  C   -0.019663
     2  C    0.007200
     3  C    0.039128
     4  C   -0.026665
 Electronic spatial extent (au):  <R**2>=            336.7053
 Charge=              0.0000 electrons
 Dipole moment (field-independent basis, Debye):
    X=              0.1720    Y=             -0.0264    Z=              0.1850  Tot=              0.2540
 Quadrupole moment (field-independent basis, Debye-Ang):
   XX=            -23.4596   YY=            -23.3083   ZZ=            -28.9681
   XY=             -0.4079   XZ=             -0.7178   YZ=             -0.1120
 Traceless Quadrupole moment (field-independent basis, Debye-Ang):
   XX=              1.7858   YY=              1.9370   ZZ=             -3.7228
   XY=             -0.4079   XZ=             -0.7178   YZ=             -0.1120
 Octapole moment (field-independent basis, Debye-Ang**2):
  XXX=              2.3296  YYY=              0.2586  ZZZ=              0.2983  XYY=              0.3896
  XXY=             -1.2716  XXZ=              2.7717  XZZ=             -0.4154  YZZ=             -0.1911
  YYZ=             -0.0468  XYZ=              0.0967
 Hexadecapole moment (field-independent basis, Debye-Ang**3):
 XXXX=           -350.0547 YYYY=            -64.0305 ZZZZ=            -37.4524 XXXY=              2.8986
 XXXZ=             -6.1228 YYYX=             -2.3493 YYYZ=             -0.0863 ZZZX=             -1.2020
 ZZZY=             -0.2178 XXYY=            -67.5868 XXZZ=            -76.6049 YYZZ=            -18.6293
 XXYZ=             -1.3663 YYXZ=             -0.7138 ZZXY=             -0.3203
 N-N= 1.042944594837D+02 E-N=-5.696175014998D+02  KE= 1.553371314100D+02
 Leave Link  601 at Wed Aug 26 13:31:45 2020, MaxMem=  2097152000 cpu:         0.7
 (Enter /opt/cluster/programs/g09/g09_d.01/g09/l9999.exe)
 1\1\GINC-NODE07\SP\RB2PLYPD3-FC\def2QZVP\C4H6\BOITTIER\26-Aug-2020\0\\
 #p B2PLYPD3/Def2QZVP\\butadiene\\0,1\C,0,-3.848419,0.278676,0.072566\C
 ,0,-2.730018,-0.531191,-0.011082\C,0,-1.379269,-0.015736,-0.046662\C,0
 ,-0.236292,-0.607263,0.057251\H,0,-4.780609,-0.181348,0.07529\H,0,-3.8
 80069,1.298538,0.089642\H,0,-2.821495,-1.592828,-0.048638\H,0,-1.4289,
 1.066205,-0.188108\H,0,-0.203436,-1.696879,0.190769\H,0,0.633531,-0.06
 22,0.321479\\Version=ES64L-G09RevD.01\State=1-A\HF=-155.6842587\MP2=-1
 55.9099461\RMSD=7.946e-09\PG=C01 [X(C4H6)]\\@


 I do not feel obliged to believe that the same God who
 has endowed us with sense, reason, and intellect has
 intended us to forgo their use.
                   --Galileo Galilei
 Job cpu time:       0 days  0 hours 39 minutes 59.1 seconds.
 File lengths (MBytes):  RWF=     92 Int=      0 D2E=      0 Chk=      9 Scr=      1
 Normal termination of Gaussian 09 at Wed Aug 26 13:31:46 2020.
