 Entering Gaussian System, Link 0=/opt/cluster/programs/g09/g09_d.01/g09//g09
 Input=/home/boittier/MDCM/nms_sampling/butadiene_geom.xyz.dir/energies/butadiene_52_energy.com
 Output=/scratch/boittier/butadiene_52_energy/butadiene_52_energy.out
 Initial command:
 /opt/cluster/programs/g09/g09_d.01/g09/l1.exe "/scratch/boittier/butadiene_52_energy/Gau-45962.inp" -scrdir="/scratch/boittier/butadiene_52_energy/"
 Entering Link 1 = /opt/cluster/programs/g09/g09_d.01/g09/l1.exe PID=     45963.
  
 Copyright (c) 1988,1990,1992,1993,1995,1998,2003,2009,2013,
            Gaussian, Inc.  All Rights Reserved.
  
 This is part of the Gaussian(R) 09 program.  It is based on
 the Gaussian(R) 03 system (copyright 2003, Gaussian, Inc.),
 the Gaussian(R) 98 system (copyright 1998, Gaussian, Inc.),
 the Gaussian(R) 94 system (copyright 1995, Gaussian, Inc.),
 the Gaussian 92(TM) system (copyright 1992, Gaussian, Inc.),
 the Gaussian 90(TM) system (copyright 1990, Gaussian, Inc.),
 the Gaussian 88(TM) system (copyright 1988, Gaussian, Inc.),
 the Gaussian 86(TM) system (copyright 1986, Carnegie Mellon
 University), and the Gaussian 82(TM) system (copyright 1983,
 Carnegie Mellon University). Gaussian is a federally registered
 trademark of Gaussian, Inc.
  
 This software contains proprietary and confidential information,
 including trade secrets, belonging to Gaussian, Inc.
  
 This software is provided under written license and may be
 used, copied, transmitted, or stored only in accord with that
 written license.
  
 The following legend is applicable only to US Government
 contracts under FAR:
  
                    RESTRICTED RIGHTS LEGEND
  
 Use, reproduction and disclosure by the US Government is
 subject to restrictions as set forth in subparagraphs (a)
 and (c) of the Commercial Computer Software - Restricted
 Rights clause in FAR 52.227-19.
  
 Gaussian, Inc.
 340 Quinnipiac St., Bldg. 40, Wallingford CT 06492
  
  
 ---------------------------------------------------------------
 Warning -- This program may not be used in any manner that
 competes with the business of Gaussian, Inc. or will provide
 assistance to any competitor of Gaussian, Inc.  The licensee
 of this program is prohibited from giving any competitor of
 Gaussian, Inc. access to this program.  By using this program,
 the user acknowledges that Gaussian, Inc. is engaged in the
 business of creating and licensing software in the field of
 computational chemistry and represents and warrants to the
 licensee that it is not a competitor of Gaussian, Inc. and that
 it will not use this program in any manner prohibited above.
 ---------------------------------------------------------------
  

 Cite this work as:
 Gaussian 09, Revision D.01,
 M. J. Frisch, G. W. Trucks, H. B. Schlegel, G. E. Scuseria, 
 M. A. Robb, J. R. Cheeseman, G. Scalmani, V. Barone, B. Mennucci, 
 G. A. Petersson, H. Nakatsuji, M. Caricato, X. Li, H. P. Hratchian, 
 A. F. Izmaylov, J. Bloino, G. Zheng, J. L. Sonnenberg, M. Hada, 
 M. Ehara, K. Toyota, R. Fukuda, J. Hasegawa, M. Ishida, T. Nakajima, 
 Y. Honda, O. Kitao, H. Nakai, T. Vreven, J. A. Montgomery, Jr., 
 J. E. Peralta, F. Ogliaro, M. Bearpark, J. J. Heyd, E. Brothers, 
 K. N. Kudin, V. N. Staroverov, T. Keith, R. Kobayashi, J. Normand, 
 K. Raghavachari, A. Rendell, J. C. Burant, S. S. Iyengar, J. Tomasi, 
 M. Cossi, N. Rega, J. M. Millam, M. Klene, J. E. Knox, J. B. Cross, 
 V. Bakken, C. Adamo, J. Jaramillo, R. Gomperts, R. E. Stratmann, 
 O. Yazyev, A. J. Austin, R. Cammi, C. Pomelli, J. W. Ochterski, 
 R. L. Martin, K. Morokuma, V. G. Zakrzewski, G. A. Voth, 
 P. Salvador, J. J. Dannenberg, S. Dapprich, A. D. Daniels, 
 O. Farkas, J. B. Foresman, J. V. Ortiz, J. Cioslowski, 
 and D. J. Fox, Gaussian, Inc., Wallingford CT, 2013.
 
 ******************************************
 Gaussian 09:  ES64L-G09RevD.01 24-Apr-2013
                26-Aug-2020 
 ******************************************
 %chk=/home/boittier/MDCM/nms_sampling/butadiene_geom.xyz.dir/butadiene_52.chk
 %nproc=8
 Will use up to    8 processors via shared memory.
 %mem=16000MB
 --------------------
 #p B2PLYPD3/Def2QZVP
 --------------------
 1/38=1/1;
 2/12=2,17=6,18=5,40=1/2;
 3/5=45,7=101,11=9,16=1,25=1,30=1,74=-60/1,2,3;
 4//1;
 5/5=2,38=5/2;
 8/10=1/1;
 9/16=-3/6;
 6/7=2,8=2,9=2,10=2/1;
 99/5=1,9=1/99;
 Leave Link    1 at Wed Aug 26 19:10:49 2020, MaxMem=  2097152000 cpu:         0.2
 (Enter /opt/cluster/programs/g09/g09_d.01/g09/l101.exe)
 ---------
 butadiene
 ---------
 Symbolic Z-matrix:
 Charge =  0 Multiplicity = 1
 C                    -3.84556   0.22151  -0.00958 
 C                    -2.71876  -0.50288   0.07238 
 C                    -1.37408   0.08474   0.03271 
 C                    -0.26652  -0.66065   0.0106 
 H                    -4.80005  -0.25374   0.00892 
 H                    -3.85283   1.28913  -0.02229 
 H                    -2.77313  -1.56081   0.05378 
 H                    -1.31441   1.15729   0.00898 
 H                    -0.34785  -1.74638   0.02427 
 H                     0.72668  -0.20611  -0.00649 
 
 NAtoms=     10 NQM=       10 NQMF=       0 NMMI=      0 NMMIF=      0
                NMic=       0 NMicF=      0.
                    Isotopes and Nuclear Properties:
 (Nuclear quadrupole moments (NQMom) in fm**2, nuclear magnetic moments (NMagM)
  in nuclear magnetons)

  Atom         1           2           3           4           5           6           7           8           9          10
 IAtWgt=          12          12          12          12           1           1           1           1           1           1
 AtmWgt=  12.0000000  12.0000000  12.0000000  12.0000000   1.0078250   1.0078250   1.0078250   1.0078250   1.0078250   1.0078250
 NucSpn=           0           0           0           0           1           1           1           1           1           1
 AtZEff=   0.0000000   0.0000000   0.0000000   0.0000000   0.0000000   0.0000000   0.0000000   0.0000000   0.0000000   0.0000000
 NQMom=    0.0000000   0.0000000   0.0000000   0.0000000   0.0000000   0.0000000   0.0000000   0.0000000   0.0000000   0.0000000
 NMagM=    0.0000000   0.0000000   0.0000000   0.0000000   2.7928460   2.7928460   2.7928460   2.7928460   2.7928460   2.7928460
 AtZNuc=   6.0000000   6.0000000   6.0000000   6.0000000   1.0000000   1.0000000   1.0000000   1.0000000   1.0000000   1.0000000
 Leave Link  101 at Wed Aug 26 19:10:50 2020, MaxMem=  2097152000 cpu:         0.5
 (Enter /opt/cluster/programs/g09/g09_d.01/g09/l202.exe)
                          Input orientation:                          
 ---------------------------------------------------------------------
 Center     Atomic      Atomic             Coordinates (Angstroms)
 Number     Number       Type             X           Y           Z
 ---------------------------------------------------------------------
      1          6           0       -3.845560    0.221509   -0.009577
      2          6           0       -2.718762   -0.502882    0.072377
      3          6           0       -1.374076    0.084738    0.032712
      4          6           0       -0.266516   -0.660654    0.010600
      5          1           0       -4.800050   -0.253740    0.008916
      6          1           0       -3.852830    1.289134   -0.022287
      7          1           0       -2.773130   -1.560805    0.053783
      8          1           0       -1.314411    1.157288    0.008983
      9          1           0       -0.347848   -1.746375    0.024269
     10          1           0        0.726681   -0.206106   -0.006485
 ---------------------------------------------------------------------
                    Distance matrix (angstroms):
                    1          2          3          4          5
     1  C    0.000000
     2  C    1.342063   0.000000
     3  C    2.475627   1.468009   0.000000
     4  C    3.686214   2.458093   1.335211   0.000000
     5  H    1.066421   2.097107   3.442736   4.551759   0.000000
     6  H    1.067725   2.122827   2.756414   4.082206   1.810707
     7  H    2.081049   1.059482   2.160002   2.663691   2.412226
     8  H    2.698656   2.175405   1.074470   2.098333   3.760409
     9  H    4.013440   2.677652   2.099093   1.088849   4.695774
    10  H    4.592195   3.459100   2.121157   1.092404   5.526958
                    6          7          8          9         10
     6  H    0.000000
     7  H    3.048556   0.000000
     8  H    2.542033   3.085109   0.000000
     9  H    4.636958   2.432550   3.060349   0.000000
    10  H    4.817459   3.753334   2.454616   1.878294   0.000000
 Stoichiometry    C4H6
 Framework group  C1[X(C4H6)]
 Deg. of freedom    24
 Full point group                 C1      NOp   1
 Largest Abelian subgroup         C1      NOp   1
 Largest concise Abelian subgroup C1      NOp   1
                         Standard orientation:                         
 ---------------------------------------------------------------------
 Center     Atomic      Atomic             Coordinates (Angstroms)
 Number     Number       Type             X           Y           Z
 ---------------------------------------------------------------------
      1          6           0       -1.841880    0.109167   -0.027421
      2          6           0       -0.603320   -0.403200    0.040255
      3          6           0        0.614136    0.416780    0.018235
      4          6           0        1.837366   -0.117198   -0.018678
      5          1           0       -2.695649   -0.529826   -0.022837
      6          1           0       -2.040493    1.158180   -0.014674
      7          1           0       -0.467136   -1.452973   -0.003721
      8          1           0        0.480472    1.482902    0.020263
      9          1           0        1.952060   -1.199918   -0.031136
     10          1           0        2.732930    0.508342   -0.022244
 ---------------------------------------------------------------------
 Rotational constants (GHZ):     41.8704551      4.4528226      4.0272921
 Leave Link  202 at Wed Aug 26 19:10:50 2020, MaxMem=  2097152000 cpu:         0.1
 (Enter /opt/cluster/programs/g09/g09_d.01/g09/l301.exe)
 Standard basis: def2QZVP (5D, 7F)
 Ernie: Thresh=  0.10000D-02 Tol=  0.10000D-05 Strict=F.
 There are   498 symmetry adapted cartesian basis functions of A   symmetry.
 There are   408 symmetry adapted basis functions of A   symmetry.
   408 basis functions,   596 primitive gaussians,   498 cartesian basis functions
    15 alpha electrons       15 beta electrons
       nuclear repulsion energy       103.9364394501 Hartrees.
 IExCor=  419 DFT=T Ex+Corr=B2PLYPD3 ExCW=0 ScaHFX=  0.530000
 ScaDFX=  0.470000  0.470000  0.730000  0.730000 ScalE2=  0.270000  0.270000
 IRadAn=      0 IRanWt=     -1 IRanGd=            0 ICorTp=0 IEmpDi=141
 NAtoms=   10 NActive=   10 NUniq=   10 SFac= 1.00D+00 NAtFMM=   60 NAOKFM=F Big=F
 Integral buffers will be    131072 words long.
 Regular integral format.
 Two-electron integral symmetry is turned on.
 R6Disp:  Grimme-D3(BJ) Dispersion energy=       -0.0048386895 Hartrees.
 Nuclear repulsion after empirical dispersion term =      103.9316007607 Hartrees.
 Leave Link  301 at Wed Aug 26 19:10:50 2020, MaxMem=  2097152000 cpu:         0.4
 (Enter /opt/cluster/programs/g09/g09_d.01/g09/l302.exe)
 NPDir=0 NMtPBC=     1 NCelOv=     1 NCel=       1 NClECP=     1 NCelD=      1
         NCelK=      1 NCelE2=     1 NClLst=     1 CellRange=     0.0.
 One-electron integrals computed using PRISM.
   1 Symmetry operations used in ECPInt.
 ECPInt:  NShTT=    8256 NPrTT=   19107 LenC2=    8058 LenP2D=   16120.
 LDataN:  DoStor=T MaxTD1= 8 Len=  415
 NBasis=   408 RedAO= T EigKep=  4.38D-05  NBF=   408
 NBsUse=   408 1.00D-06 EigRej= -1.00D+00 NBFU=   408
 Precomputing XC quadrature grid using
 IXCGrd= 4 IRadAn=           0 IRanWt=          -1 IRanGd=           0 AccXCQ= 0.00D+00.
 Generated NRdTot=       0 NPtTot=           0 NUsed=           0 NTot=          32
 NSgBfM=   498   498   498   498   498 MxSgAt=    10 MxSgA2=    10.
 Leave Link  302 at Wed Aug 26 19:10:51 2020, MaxMem=  2097152000 cpu:         3.7
 (Enter /opt/cluster/programs/g09/g09_d.01/g09/l303.exe)
 DipDrv:  MaxL=1.
 Leave Link  303 at Wed Aug 26 19:10:51 2020, MaxMem=  2097152000 cpu:         0.4
 (Enter /opt/cluster/programs/g09/g09_d.01/g09/l401.exe)
 ExpMin= 7.60D-02 ExpMax= 6.70D+04 ExpMxC= 6.47D+02 IAcc=2 IRadAn=         4 AccDes= 0.00D+00
 Harris functional with IExCor=  419 and IRadAn=       4 diagonalized for initial guess.
 HarFok:  IExCor=  419 AccDes= 0.00D+00 IRadAn=         4 IDoV= 1 UseB2=F ITyADJ=14
 ICtDFT=  3500011 ScaDFX=  1.000000  1.000000  1.000000  1.000000
 FoFCou: FMM=F IPFlag=           0 FMFlag=      100000 FMFlg1=           0
         NFxFlg=           0 DoJE=T BraDBF=F KetDBF=T FulRan=T
         wScrn=  0.000000 ICntrl=     500 IOpCl=  0 I1Cent=   200000004 NGrid=           0
         NMat0=    1 NMatS0=      1 NMatT0=    0 NMatD0=    1 NMtDS0=    0 NMtDT0=    0
 Petite list used in FoFCou.
 Harris En= -156.137297088123    
 JPrj=0 DoOrth=F DoCkMO=F.
 Leave Link  401 at Wed Aug 26 19:10:53 2020, MaxMem=  2097152000 cpu:         9.1
 (Enter /opt/cluster/programs/g09/g09_d.01/g09/l502.exe)
 Closed shell SCF:
 Using DIIS extrapolation, IDIIS=  1040.
 Integral symmetry usage will be decided dynamically.
 IVT=      770090 IEndB=      770090 NGot=  2097152000 MDV=  2096647053
 LenX=  2096647053 LenY=  2096398551
 Requested convergence on RMS density matrix=1.00D-08 within 128 cycles.
 Requested convergence on MAX density matrix=1.00D-06.
 Requested convergence on             energy=1.00D-06.
 No special actions if energy rises.
 Fock matrices will be formed incrementally for  20 cycles.
 Integral accuracy reduced to 1.0D-05 until final iterations.

 Cycle   1  Pass 0  IDiag  1:
 FoFJK:  IHMeth= 1 ICntrl=       0 DoSepK=F KAlg= 0 I1Cent=   0 FoldK=F
 IRaf= 940000000 NMat=   1 IRICut=       1 DoRegI=T DoRafI=F ISym2E= 0.
 FoFCou: FMM=F IPFlag=           0 FMFlag=      100000 FMFlg1=           0
         NFxFlg=           0 DoJE=F BraDBF=F KetDBF=F FulRan=T
         wScrn=  0.000000 ICntrl=       0 IOpCl=  0 I1Cent=           0 NGrid=           0
         NMat0=    1 NMatS0=      1 NMatT0=    0 NMatD0=    1 NMtDS0=    0 NMtDT0=    0
 Symmetry not used in FoFCou.
 E= -155.513339565624    
 DIIS: error= 3.83D-02 at cycle   1 NSaved=   1.
 NSaved= 1 IEnMin= 1 EnMin= -155.513339565624     IErMin= 1 ErrMin= 3.83D-02
 ErrMax= 3.83D-02  0.00D+00 EMaxC= 1.00D-01 BMatC= 2.53D-01 BMatP= 2.53D-01
 IDIUse=3 WtCom= 6.17D-01 WtEn= 3.83D-01
 Coeff-Com:  0.100D+01
 Coeff-En:   0.100D+01
 Coeff:      0.100D+01
 Gap=     0.299 Goal=   None    Shift=    0.000
 GapD=    0.299 DampG=1.000 DampE=0.500 DampFc=0.5000 IDamp=-1.
 Damping current iteration by 5.00D-01
 RMSDP=9.59D-04 MaxDP=5.05D-02              OVMax= 1.93D-01

 Cycle   2  Pass 0  IDiag  1:
 RMSU=  4.42D-04    CP:  9.51D-01
 E= -155.612643243261     Delta-E=       -0.099303677638 Rises=F Damp=T
 DIIS: error= 1.20D-02 at cycle   2 NSaved=   2.
 NSaved= 2 IEnMin= 2 EnMin= -155.612643243261     IErMin= 2 ErrMin= 1.20D-02
 ErrMax= 1.20D-02  0.00D+00 EMaxC= 1.00D-01 BMatC= 2.99D-02 BMatP= 2.53D-01
 IDIUse=3 WtCom= 8.80D-01 WtEn= 1.20D-01
 Coeff-Com: -0.305D+00 0.130D+01
 Coeff-En:   0.000D+00 0.100D+01
 Coeff:     -0.268D+00 0.127D+01
 Gap=     0.356 Goal=   None    Shift=    0.000
 RMSDP=2.80D-04 MaxDP=8.01D-03 DE=-9.93D-02 OVMax= 9.22D-02

 Cycle   3  Pass 0  IDiag  1:
 RMSU=  2.71D-04    CP:  9.34D-01  1.05D+00
 E= -155.698449695522     Delta-E=       -0.085806452260 Rises=F Damp=F
 DIIS: error= 4.19D-03 at cycle   3 NSaved=   3.
 NSaved= 3 IEnMin= 3 EnMin= -155.698449695522     IErMin= 3 ErrMin= 4.19D-03
 ErrMax= 4.19D-03  0.00D+00 EMaxC= 1.00D-01 BMatC= 1.65D-03 BMatP= 2.99D-02
 IDIUse=3 WtCom= 9.58D-01 WtEn= 4.19D-02
 Coeff-Com: -0.107D+00 0.210D+00 0.897D+00
 Coeff-En:   0.000D+00 0.000D+00 0.100D+01
 Coeff:     -0.103D+00 0.201D+00 0.902D+00
 Gap=     0.294 Goal=   None    Shift=    0.000
 RMSDP=6.54D-05 MaxDP=3.76D-03 DE=-8.58D-02 OVMax= 2.10D-02

 Cycle   4  Pass 0  IDiag  1:
 RMSU=  4.72D-05    CP:  9.30D-01  1.14D+00  9.49D-01
 E= -155.699766846512     Delta-E=       -0.001317150990 Rises=F Damp=F
 DIIS: error= 2.32D-03 at cycle   4 NSaved=   4.
 NSaved= 4 IEnMin= 4 EnMin= -155.699766846512     IErMin= 4 ErrMin= 2.32D-03
 ErrMax= 2.32D-03  0.00D+00 EMaxC= 1.00D-01 BMatC= 4.77D-04 BMatP= 1.65D-03
 IDIUse=3 WtCom= 9.77D-01 WtEn= 2.32D-02
 Coeff-Com: -0.486D-01 0.796D-01 0.469D+00 0.500D+00
 Coeff-En:   0.000D+00 0.000D+00 0.919D-01 0.908D+00
 Coeff:     -0.475D-01 0.778D-01 0.460D+00 0.510D+00
 Gap=     0.294 Goal=   None    Shift=    0.000
 RMSDP=2.66D-05 MaxDP=1.31D-03 DE=-1.32D-03 OVMax= 8.11D-03

 Cycle   5  Pass 0  IDiag  1:
 RMSU=  1.56D-05    CP:  9.30D-01  1.13D+00  9.90D-01  6.18D-01
 E= -155.700225755229     Delta-E=       -0.000458908717 Rises=F Damp=F
 DIIS: error= 2.86D-04 at cycle   5 NSaved=   5.
 NSaved= 5 IEnMin= 5 EnMin= -155.700225755229     IErMin= 5 ErrMin= 2.86D-04
 ErrMax= 2.86D-04  0.00D+00 EMaxC= 1.00D-01 BMatC= 5.53D-06 BMatP= 4.77D-04
 IDIUse=3 WtCom= 9.97D-01 WtEn= 2.86D-03
 Coeff-Com: -0.333D-02 0.315D-02 0.426D-01 0.118D+00 0.839D+00
 Coeff-En:   0.000D+00 0.000D+00 0.000D+00 0.000D+00 0.100D+01
 Coeff:     -0.332D-02 0.314D-02 0.425D-01 0.118D+00 0.840D+00
 Gap=     0.295 Goal=   None    Shift=    0.000
 RMSDP=4.13D-06 MaxDP=1.23D-04 DE=-4.59D-04 OVMax= 1.26D-03

 Initial convergence to 1.0D-05 achieved.  Increase integral accuracy.
 Cycle   6  Pass 1  IDiag  1:
 E= -155.700248386186     Delta-E=       -0.000022630957 Rises=F Damp=F
 DIIS: error= 4.53D-05 at cycle   1 NSaved=   1.
 NSaved= 1 IEnMin= 1 EnMin= -155.700248386186     IErMin= 1 ErrMin= 4.53D-05
 ErrMax= 4.53D-05  0.00D+00 EMaxC= 1.00D-01 BMatC= 4.62D-07 BMatP= 4.62D-07
 IDIUse=1 WtCom= 1.00D+00 WtEn= 0.00D+00
 Coeff-Com:  0.100D+01
 Coeff:      0.100D+01
 Gap=     0.295 Goal=   None    Shift=    0.000
 RMSDP=4.13D-06 MaxDP=1.23D-04 DE=-2.26D-05 OVMax= 2.96D-04

 Cycle   7  Pass 1  IDiag  1:
 RMSU=  1.59D-05    CP:  1.00D+00
 E= -155.700248713170     Delta-E=       -0.000000326983 Rises=F Damp=F
 DIIS: error= 2.23D-05 at cycle   2 NSaved=   2.
 NSaved= 2 IEnMin= 2 EnMin= -155.700248713170     IErMin= 2 ErrMin= 2.23D-05
 ErrMax= 2.23D-05  0.00D+00 EMaxC= 1.00D-01 BMatC= 2.37D-08 BMatP= 4.62D-07
 IDIUse=1 WtCom= 1.00D+00 WtEn= 0.00D+00
 Coeff-Com:  0.588D-01 0.941D+00
 Coeff:      0.588D-01 0.941D+00
 Gap=     0.295 Goal=   None    Shift=    0.000
 RMSDP=8.50D-07 MaxDP=2.83D-05 DE=-3.27D-07 OVMax= 1.39D-04

 Cycle   8  Pass 1  IDiag  1:
 RMSU=  5.77D-07    CP:  1.00D+00  1.04D+00
 E= -155.700248729046     Delta-E=       -0.000000015877 Rises=F Damp=F
 DIIS: error= 1.14D-05 at cycle   3 NSaved=   3.
 NSaved= 3 IEnMin= 3 EnMin= -155.700248729046     IErMin= 3 ErrMin= 1.14D-05
 ErrMax= 1.14D-05  0.00D+00 EMaxC= 1.00D-01 BMatC= 1.69D-08 BMatP= 2.37D-08
 IDIUse=1 WtCom= 1.00D+00 WtEn= 0.00D+00
 Coeff-Com: -0.164D-01 0.455D+00 0.562D+00
 Coeff:     -0.164D-01 0.455D+00 0.562D+00
 Gap=     0.295 Goal=   None    Shift=    0.000
 RMSDP=2.11D-07 MaxDP=1.19D-05 DE=-1.59D-08 OVMax= 6.50D-05

 Cycle   9  Pass 1  IDiag  1:
 RMSU=  1.91D-07    CP:  1.00D+00  1.04D+00  1.04D+00
 E= -155.700248745776     Delta-E=       -0.000000016729 Rises=F Damp=F
 DIIS: error= 4.06D-06 at cycle   4 NSaved=   4.
 NSaved= 4 IEnMin= 4 EnMin= -155.700248745776     IErMin= 4 ErrMin= 4.06D-06
 ErrMax= 4.06D-06  0.00D+00 EMaxC= 1.00D-01 BMatC= 5.34D-10 BMatP= 1.69D-08
 IDIUse=1 WtCom= 1.00D+00 WtEn= 0.00D+00
 Coeff-Com: -0.891D-02 0.345D-01 0.148D+00 0.826D+00
 Coeff:     -0.891D-02 0.345D-01 0.148D+00 0.826D+00
 Gap=     0.295 Goal=   None    Shift=    0.000
 RMSDP=6.29D-08 MaxDP=2.29D-06 DE=-1.67D-08 OVMax= 1.97D-05

 Cycle  10  Pass 1  IDiag  1:
 RMSU=  4.06D-08    CP:  1.00D+00  1.05D+00  1.11D+00  1.07D+00
 E= -155.700248746590     Delta-E=       -0.000000000815 Rises=F Damp=F
 DIIS: error= 7.30D-07 at cycle   5 NSaved=   5.
 NSaved= 5 IEnMin= 5 EnMin= -155.700248746590     IErMin= 5 ErrMin= 7.30D-07
 ErrMax= 7.30D-07  0.00D+00 EMaxC= 1.00D-01 BMatC= 5.93D-11 BMatP= 5.34D-10
 IDIUse=1 WtCom= 1.00D+00 WtEn= 0.00D+00
 Coeff-Com: -0.188D-03-0.498D-01-0.320D-01 0.215D+00 0.867D+00
 Coeff:     -0.188D-03-0.498D-01-0.320D-01 0.215D+00 0.867D+00
 Gap=     0.295 Goal=   None    Shift=    0.000
 RMSDP=2.46D-08 MaxDP=1.47D-06 DE=-8.15D-10 OVMax= 6.78D-06

 Cycle  11  Pass 1  IDiag  1:
 RMSU=  1.54D-08    CP:  1.00D+00  1.05D+00  1.13D+00  1.14D+00  1.10D+00
 E= -155.700248746684     Delta-E=       -0.000000000094 Rises=F Damp=F
 DIIS: error= 2.20D-07 at cycle   6 NSaved=   6.
 NSaved= 6 IEnMin= 6 EnMin= -155.700248746684     IErMin= 6 ErrMin= 2.20D-07
 ErrMax= 2.20D-07  0.00D+00 EMaxC= 1.00D-01 BMatC= 6.13D-12 BMatP= 5.93D-11
 IDIUse=1 WtCom= 1.00D+00 WtEn= 0.00D+00
 Coeff-Com:  0.650D-03-0.221D-01-0.232D-01 0.205D-01 0.327D+00 0.697D+00
 Coeff:      0.650D-03-0.221D-01-0.232D-01 0.205D-01 0.327D+00 0.697D+00
 Gap=     0.295 Goal=   None    Shift=    0.000
 RMSDP=4.80D-09 MaxDP=1.77D-07 DE=-9.38D-11 OVMax= 1.47D-06

 SCF Done:  E(RB2PLYPD3) =  -155.700248747     A.U. after   11 cycles
            NFock= 11  Conv=0.48D-08     -V/T= 2.0035
 KE= 1.551534837255D+02 PE=-5.688137877260D+02 EE= 1.540284544932D+02
 Leave Link  502 at Wed Aug 26 19:14:13 2020, MaxMem=  2097152000 cpu:      1597.6
 (Enter /opt/cluster/programs/g09/g09_d.01/g09/l801.exe)
 DoSCS=T DFT=T ScalE2(SS,OS)=  0.270000  0.270000
 ExpMin= 7.60D-02 ExpMax= 6.70D+04 ExpMxC= 6.47D+02 IAcc=3 IRadAn=         5 AccDes= 0.00D+00
 HarFok:  IExCor=  205 AccDes= 0.00D+00 IRadAn=         5 IDoV=-2 UseB2=F ITyADJ=14
 ICtDFT= 12500011 ScaDFX=  1.000000  1.000000  1.000000  1.000000
 Largest valence mixing into a core orbital is  1.12D-04
 Largest core mixing into a valence orbital is  1.99D-05
 Range of M.O.s used for correlation:     5   408
 NBasis=   408 NAE=    15 NBE=    15 NFC=     4 NFV=     0
 NROrb=    404 NOA=    11 NOB=    11 NVA=   393 NVB=   393

 **** Warning!!: The largest alpha MO coefficient is  0.27622971D+02

 Leave Link  801 at Wed Aug 26 19:14:14 2020, MaxMem=  2097152000 cpu:         1.0
 (Enter /opt/cluster/programs/g09/g09_d.01/g09/l906.exe)
 DoSCS=T DFT=T ScalE2(SS,OS)=  0.270000  0.270000
 FulOut=F Deriv=F AODrv=F NAtomX=    10
   MMem=         881  MDisk=          11 MDiskD=          11
  W3Min=     2152854 MinDsk=     3857222 NBas6D=         498
 NBas2D=      125763    NTT=      124251    LW2=     4508827
    MDV=  2096382190 MDiskM=        9345 NBas2p=      117619
 Fully direct method using O(OVN) memory.
 IMap=   1   2   3   4   5   6   7   8   9  10  11
 JobTyp=1 Pass  1:  I=   1 to  11 NPSUse=  8 ParTrn=T ParDer=T DoDerP=F.
 Spin components of T(2) and E(2):
     alpha-alpha T2 =       0.4190157470D-01 E2=     -0.2538123891D-01
     alpha-beta  T2 =       0.2713151617D+00 E2=     -0.1748107160D+00
     beta-beta   T2 =       0.4190157470D-01 E2=     -0.2538123891D-01
 The integrals were generated   1 times.
 E2(B2PLYPD3) =    -0.2255731938D+00 E(B2PLYPD3) =    -0.15592582194050D+03
 Leave Link  906 at Wed Aug 26 19:16:24 2020, MaxMem=  2097152000 cpu:      1041.0
 (Enter /opt/cluster/programs/g09/g09_d.01/g09/l601.exe)
 Copying SCF densities to generalized density rwf, IOpCl= 0 IROHF=0.

 **********************************************************************

            Population analysis using the SCF density.

 **********************************************************************

 Orbital symmetries:
       Occupied  (A) (A) (A) (A) (A) (A) (A) (A) (A) (A) (A) (A)
                 (A) (A) (A)
       Virtual   (A) (A) (A) (A) (A) (A) (A) (A) (A) (A) (A) (A)
                 (A) (A) (A) (A) (A) (A) (A) (A) (A) (A) (A) (A)
                 (A) (A) (A) (A) (A) (A) (A) (A) (A) (A) (A) (A)
                 (A) (A) (A) (A) (A) (A) (A) (A) (A) (A) (A) (A)
                 (A) (A) (A) (A) (A) (A) (A) (A) (A) (A) (A) (A)
                 (A) (A) (A) (A) (A) (A) (A) (A) (A) (A) (A) (A)
                 (A) (A) (A) (A) (A) (A) (A) (A) (A) (A) (A) (A)
                 (A) (A) (A) (A) (A) (A) (A) (A) (A) (A) (A) (A)
                 (A) (A) (A) (A) (A) (A) (A) (A) (A) (A) (A) (A)
                 (A) (A) (A) (A) (A) (A) (A) (A) (A) (A) (A) (A)
                 (A) (A) (A) (A) (A) (A) (A) (A) (A) (A) (A) (A)
                 (A) (A) (A) (A) (A) (A) (A) (A) (A) (A) (A) (A)
                 (A) (A) (A) (A) (A) (A) (A) (A) (A) (A) (A) (A)
                 (A) (A) (A) (A) (A) (A) (A) (A) (A) (A) (A) (A)
                 (A) (A) (A) (A) (A) (A) (A) (A) (A) (A) (A) (A)
                 (A) (A) (A) (A) (A) (A) (A) (A) (A) (A) (A) (A)
                 (A) (A) (A) (A) (A) (A) (A) (A) (A) (A) (A) (A)
                 (A) (A) (A) (A) (A) (A) (A) (A) (A) (A) (A) (A)
                 (A) (A) (A) (A) (A) (A) (A) (A) (A) (A) (A) (A)
                 (A) (A) (A) (A) (A) (A) (A) (A) (A) (A) (A) (A)
                 (A) (A) (A) (A) (A) (A) (A) (A) (A) (A) (A) (A)
                 (A) (A) (A) (A) (A) (A) (A) (A) (A) (A) (A) (A)
                 (A) (A) (A) (A) (A) (A) (A) (A) (A) (A) (A) (A)
                 (A) (A) (A) (A) (A) (A) (A) (A) (A) (A) (A) (A)
                 (A) (A) (A) (A) (A) (A) (A) (A) (A) (A) (A) (A)
                 (A) (A) (A) (A) (A) (A) (A) (A) (A) (A) (A) (A)
                 (A) (A) (A) (A) (A) (A) (A) (A) (A) (A) (A) (A)
                 (A) (A) (A) (A) (A) (A) (A) (A) (A) (A) (A) (A)
                 (A) (A) (A) (A) (A) (A) (A) (A) (A) (A) (A) (A)
                 (A) (A) (A) (A) (A) (A) (A) (A) (A) (A) (A) (A)
                 (A) (A) (A) (A) (A) (A) (A) (A) (A) (A) (A) (A)
                 (A) (A) (A) (A) (A) (A) (A) (A) (A) (A) (A) (A)
                 (A) (A) (A) (A) (A) (A) (A) (A) (A)
 The electronic state is 1-A.
 Alpha  occ. eigenvalues --  -10.62482 -10.62417 -10.61667 -10.61236  -0.92820
 Alpha  occ. eigenvalues --   -0.84859  -0.70050  -0.64574  -0.54495  -0.54022
 Alpha  occ. eigenvalues --   -0.46702  -0.45914  -0.41313  -0.37896  -0.27665
 Alpha virt. eigenvalues --    0.01812   0.07016   0.07487   0.08146   0.09382
 Alpha virt. eigenvalues --    0.11721   0.12473   0.14711   0.15826   0.16152
 Alpha virt. eigenvalues --    0.18785   0.20327   0.21736   0.23075   0.23952
 Alpha virt. eigenvalues --    0.26701   0.26965   0.29268   0.32024   0.34746
 Alpha virt. eigenvalues --    0.36052   0.36809   0.37945   0.38232   0.40387
 Alpha virt. eigenvalues --    0.42580   0.43418   0.45872   0.46975   0.48163
 Alpha virt. eigenvalues --    0.49044   0.49919   0.52472   0.55613   0.57024
 Alpha virt. eigenvalues --    0.58003   0.60033   0.64252   0.66844   0.68449
 Alpha virt. eigenvalues --    0.68943   0.71722   0.77097   0.77442   0.79133
 Alpha virt. eigenvalues --    0.79641   0.80730   0.81443   0.82404   0.84345
 Alpha virt. eigenvalues --    0.84853   0.86036   0.86303   0.87060   0.90172
 Alpha virt. eigenvalues --    0.92091   0.93573   0.94227   0.95500   0.96314
 Alpha virt. eigenvalues --    0.98868   0.99127   1.00347   1.02932   1.05160
 Alpha virt. eigenvalues --    1.05888   1.08414   1.10320   1.12036   1.12532
 Alpha virt. eigenvalues --    1.14825   1.17827   1.19351   1.21120   1.22895
 Alpha virt. eigenvalues --    1.24896   1.25809   1.33952   1.34793   1.36524
 Alpha virt. eigenvalues --    1.37659   1.41542   1.47508   1.61078   1.63686
 Alpha virt. eigenvalues --    1.66636   1.68525   1.72438   1.73200   1.73999
 Alpha virt. eigenvalues --    1.75471   1.80620   1.82339   1.84007   1.87928
 Alpha virt. eigenvalues --    1.90143   1.90502   1.91633   1.93727   1.93982
 Alpha virt. eigenvalues --    1.94139   1.99283   1.99798   2.00653   2.02154
 Alpha virt. eigenvalues --    2.03540   2.05930   2.06868   2.07809   2.09786
 Alpha virt. eigenvalues --    2.10042   2.11702   2.14209   2.16797   2.18039
 Alpha virt. eigenvalues --    2.19241   2.20951   2.23852   2.25718   2.28704
 Alpha virt. eigenvalues --    2.30657   2.31867   2.32955   2.38283   2.43322
 Alpha virt. eigenvalues --    2.43818   2.45930   2.46880   2.48983   2.50158
 Alpha virt. eigenvalues --    2.53003   2.53805   2.55639   2.57720   2.58334
 Alpha virt. eigenvalues --    2.59983   2.61788   2.64199   2.64434   2.65286
 Alpha virt. eigenvalues --    2.66841   2.69067   2.70384   2.71726   2.71940
 Alpha virt. eigenvalues --    2.72853   2.76432   2.76839   2.78446   2.79345
 Alpha virt. eigenvalues --    2.81405   2.88698   2.90488   2.92136   2.94271
 Alpha virt. eigenvalues --    2.95470   3.03133   3.07585   3.08034   3.10374
 Alpha virt. eigenvalues --    3.12965   3.14815   3.25011   3.35240   3.36261
 Alpha virt. eigenvalues --    3.39255   3.39742   3.44369   3.45323   3.47707
 Alpha virt. eigenvalues --    3.49260   3.50751   3.53403   3.55669   3.60205
 Alpha virt. eigenvalues --    3.62420   3.62684   3.65544   3.69915   3.78362
 Alpha virt. eigenvalues --    3.80834   3.83786   3.88381   3.89995   3.91957
 Alpha virt. eigenvalues --    3.96510   3.97093   4.00587   4.05582   4.14765
 Alpha virt. eigenvalues --    4.17194   4.17932   4.21764   4.24409   4.46651
 Alpha virt. eigenvalues --    4.54511   4.57812   4.58912   4.85952   4.99523
 Alpha virt. eigenvalues --    4.99853   5.03584   5.05261   5.05785   5.08129
 Alpha virt. eigenvalues --    5.12303   5.17913   5.19885   5.28710   5.31338
 Alpha virt. eigenvalues --    5.32267   5.39430   5.41036   5.46477   5.49777
 Alpha virt. eigenvalues --    5.52560   5.54655   5.57685   5.59938   5.61737
 Alpha virt. eigenvalues --    5.65371   5.68576   5.76063   5.76483   5.77348
 Alpha virt. eigenvalues --    5.79455   5.80484   5.83470   5.85881   5.87155
 Alpha virt. eigenvalues --    5.89662   5.90692   5.98925   6.01132   6.04674
 Alpha virt. eigenvalues --    6.06861   6.07714   6.09316   6.10277   6.11803
 Alpha virt. eigenvalues --    6.14026   6.16922   6.16967   6.19547   6.19650
 Alpha virt. eigenvalues --    6.22668   6.24610   6.28582   6.31623   6.34918
 Alpha virt. eigenvalues --    6.35723   6.36724   6.38076   6.38754   6.39584
 Alpha virt. eigenvalues --    6.40420   6.41475   6.44243   6.52230   6.53350
 Alpha virt. eigenvalues --    6.54807   6.55786   6.57414   6.60377   6.63381
 Alpha virt. eigenvalues --    6.64648   6.67137   6.70518   6.73850   6.80475
 Alpha virt. eigenvalues --    6.82658   6.85855   6.87671   6.91037   6.92962
 Alpha virt. eigenvalues --    6.93198   6.95867   7.00331   7.06698   7.12087
 Alpha virt. eigenvalues --    7.13300   7.15600   7.17769   7.20347   7.21541
 Alpha virt. eigenvalues --    7.25459   7.27773   7.34659   7.37677   7.41958
 Alpha virt. eigenvalues --    7.47679   7.51608   7.57429   7.59368   7.61258
 Alpha virt. eigenvalues --    7.62667   7.65493   7.66459   7.67619   7.68788
 Alpha virt. eigenvalues --    7.70118   7.72425   7.76729   7.77925   7.78153
 Alpha virt. eigenvalues --    7.78711   7.85115   7.86964   7.91651   7.93902
 Alpha virt. eigenvalues --    7.94572   7.96382   8.08035   8.09005   8.14174
 Alpha virt. eigenvalues --    8.14276   8.17223   8.18185   8.20237   8.22795
 Alpha virt. eigenvalues --    8.29818   8.31648   8.33345   8.33879   8.36188
 Alpha virt. eigenvalues --    8.36458   8.37988   8.39026   8.42813   8.45787
 Alpha virt. eigenvalues --    8.48019   8.50767   8.54773   8.57959   8.58476
 Alpha virt. eigenvalues --    8.60357   8.61180   8.63185   8.69840   8.71382
 Alpha virt. eigenvalues --    8.75675   8.77681   8.81014   8.82770   8.84411
 Alpha virt. eigenvalues --    8.87885   8.89270   8.95617   9.04617   9.18457
 Alpha virt. eigenvalues --    9.23522   9.24271   9.32622   9.37159   9.47246
 Alpha virt. eigenvalues --    9.58305   9.66763   9.80245   9.84795   9.91247
 Alpha virt. eigenvalues --    9.92452   9.98712  10.00041  10.02433  10.05009
 Alpha virt. eigenvalues --   10.06581  10.18677  10.28669  10.36629  10.39722
 Alpha virt. eigenvalues --   10.42120  10.46212  10.54835  10.68079  10.80033
 Alpha virt. eigenvalues --   10.96333  11.23675  11.55094  11.72247  11.82387
 Alpha virt. eigenvalues --   11.91477  12.91414  13.09089  13.17092  13.25120
 Alpha virt. eigenvalues --   28.68801  28.79314  29.47970  29.65095 148.27849
 Alpha virt. eigenvalues --  148.38182 149.07593 149.25883
          Condensed to atoms (all electrons):
               1          2          3          4          5          6
     1  C    4.836239   0.619000  -0.081748  -0.002065   0.425839   0.426650
     2  C    0.619000   4.834861   0.406660  -0.080366  -0.047063  -0.045358
     3  C   -0.081748   0.406660   4.834727   0.616077   0.007764  -0.007187
     4  C   -0.002065  -0.080366   0.616077   4.842089  -0.000655   0.000231
     5  H    0.425839  -0.047063   0.007764  -0.000655   0.587485  -0.046528
     6  H    0.426650  -0.045358  -0.007187   0.000231  -0.046528   0.593145
     7  H   -0.047175   0.410004  -0.059725  -0.001378  -0.009222   0.007350
     8  H   -0.000176  -0.059901   0.409653  -0.047989  -0.000117   0.004097
     9  H    0.000378  -0.008785  -0.048043   0.425620  -0.000043   0.000041
    10  H   -0.000667   0.007644  -0.045157   0.423509   0.000028  -0.000033
               7          8          9         10
     1  C   -0.047175  -0.000176   0.000378  -0.000667
     2  C    0.410004  -0.059901  -0.008785   0.007644
     3  C   -0.059725   0.409653  -0.048043  -0.045157
     4  C   -0.001378  -0.047989   0.425620   0.423509
     5  H   -0.009222  -0.000117  -0.000043   0.000028
     6  H    0.007350   0.004097   0.000041  -0.000033
     7  H    0.628040   0.006570   0.004704  -0.000076
     8  H    0.006570   0.630069   0.007578  -0.008556
     9  H    0.004704   0.007578   0.596149  -0.042770
    10  H   -0.000076  -0.008556  -0.042770   0.579975
 Mulliken charges:
               1
     1  C   -0.176274
     2  C   -0.036695
     3  C   -0.033020
     4  C   -0.175073
     5  H    0.082512
     6  H    0.067593
     7  H    0.060908
     8  H    0.058773
     9  H    0.065170
    10  H    0.086106
 Sum of Mulliken charges =   0.00000
 Mulliken charges with hydrogens summed into heavy atoms:
               1
     1  C   -0.026169
     2  C    0.024213
     3  C    0.025753
     4  C   -0.023797
 Electronic spatial extent (au):  <R**2>=            335.0499
 Charge=              0.0000 electrons
 Dipole moment (field-independent basis, Debye):
    X=             -0.0106    Y=              0.0152    Z=             -0.0249  Tot=              0.0310
 Quadrupole moment (field-independent basis, Debye-Ang):
   XX=            -23.5373   YY=            -23.0015   ZZ=            -29.2766
   XY=             -0.1594   XZ=             -0.0026   YZ=              0.0621
 Traceless Quadrupole moment (field-independent basis, Debye-Ang):
   XX=              1.7345   YY=              2.2703   ZZ=             -4.0047
   XY=             -0.1594   XZ=             -0.0026   YZ=              0.0621
 Octapole moment (field-independent basis, Debye-Ang**2):
  XXX=             -0.3823  YYY=             -0.0214  ZZZ=             -0.0230  XYY=             -0.1042
  XXY=              0.5074  XXZ=             -0.2315  XZZ=             -0.0931  YZZ=              0.0039
  YYZ=             -0.0959  XYZ=              0.0239
 Hexadecapole moment (field-independent basis, Debye-Ang**3):
 XXXX=           -344.5277 YYYY=            -64.7940 ZZZZ=            -36.9434 XXXY=              5.7589
 XXXZ=             -0.0443 YYYX=             -1.9688 YYYZ=              0.2338 ZZZX=              0.0583
 ZZZY=              0.0581 XXYY=            -68.1463 XXZZ=            -77.1755 YYZZ=            -19.1443
 XXYZ=              0.0855 YYXZ=             -0.0211 ZZXY=             -0.4672
 N-N= 1.039316007607D+02 E-N=-5.688137811450D+02  KE= 1.551534837255D+02
 Leave Link  601 at Wed Aug 26 19:16:40 2020, MaxMem=  2097152000 cpu:         0.7
 (Enter /opt/cluster/programs/g09/g09_d.01/g09/l9999.exe)
 1\1\GINC-NODE20\SP\RB2PLYPD3-FC\def2QZVP\C4H6\BOITTIER\26-Aug-2020\0\\
 #p B2PLYPD3/Def2QZVP\\butadiene\\0,1\C,0,-3.84556,0.221509,-0.009577\C
 ,0,-2.718762,-0.502882,0.072377\C,0,-1.374076,0.084738,0.032712\C,0,-0
 .266516,-0.660654,0.0106\H,0,-4.80005,-0.25374,0.008916\H,0,-3.85283,1
 .289134,-0.022287\H,0,-2.77313,-1.560805,0.053783\H,0,-1.314411,1.1572
 88,0.008983\H,0,-0.347848,-1.746375,0.024269\H,0,0.726681,-0.206106,-0
 .006485\\Version=ES64L-G09RevD.01\State=1-A\HF=-155.7002487\MP2=-155.9
 258219\RMSD=4.804e-09\PG=C01 [X(C4H6)]\\@


 THE FIRST MORNING OF CREATION WROTE WHAT THE LAST DAWN OF
 RECKONING SHALL READ. -- OMAR KHAYYAM
 Job cpu time:       0 days  0 hours 44 minutes 15.8 seconds.
 File lengths (MBytes):  RWF=     92 Int=      0 D2E=      0 Chk=      9 Scr=      1
 Normal termination of Gaussian 09 at Wed Aug 26 19:16:50 2020.
