 Entering Gaussian System, Link 0=/opt/cluster/programs/g09/g09_d.01/g09//g09
 Input=/home/boittier/MDCM/nms_sampling/butadiene_geom.xyz.dir/energies/butadiene_254_energy.com
 Output=/scratch/boittier/butadiene_254_energy/butadiene_254_energy.out
 Initial command:
 /opt/cluster/programs/g09/g09_d.01/g09/l1.exe "/scratch/boittier/butadiene_254_energy/Gau-207828.inp" -scrdir="/scratch/boittier/butadiene_254_energy/"
 Entering Link 1 = /opt/cluster/programs/g09/g09_d.01/g09/l1.exe PID=    207829.
  
 Copyright (c) 1988,1990,1992,1993,1995,1998,2003,2009,2013,
            Gaussian, Inc.  All Rights Reserved.
  
 This is part of the Gaussian(R) 09 program.  It is based on
 the Gaussian(R) 03 system (copyright 2003, Gaussian, Inc.),
 the Gaussian(R) 98 system (copyright 1998, Gaussian, Inc.),
 the Gaussian(R) 94 system (copyright 1995, Gaussian, Inc.),
 the Gaussian 92(TM) system (copyright 1992, Gaussian, Inc.),
 the Gaussian 90(TM) system (copyright 1990, Gaussian, Inc.),
 the Gaussian 88(TM) system (copyright 1988, Gaussian, Inc.),
 the Gaussian 86(TM) system (copyright 1986, Carnegie Mellon
 University), and the Gaussian 82(TM) system (copyright 1983,
 Carnegie Mellon University). Gaussian is a federally registered
 trademark of Gaussian, Inc.
  
 This software contains proprietary and confidential information,
 including trade secrets, belonging to Gaussian, Inc.
  
 This software is provided under written license and may be
 used, copied, transmitted, or stored only in accord with that
 written license.
  
 The following legend is applicable only to US Government
 contracts under FAR:
  
                    RESTRICTED RIGHTS LEGEND
  
 Use, reproduction and disclosure by the US Government is
 subject to restrictions as set forth in subparagraphs (a)
 and (c) of the Commercial Computer Software - Restricted
 Rights clause in FAR 52.227-19.
  
 Gaussian, Inc.
 340 Quinnipiac St., Bldg. 40, Wallingford CT 06492
  
  
 ---------------------------------------------------------------
 Warning -- This program may not be used in any manner that
 competes with the business of Gaussian, Inc. or will provide
 assistance to any competitor of Gaussian, Inc.  The licensee
 of this program is prohibited from giving any competitor of
 Gaussian, Inc. access to this program.  By using this program,
 the user acknowledges that Gaussian, Inc. is engaged in the
 business of creating and licensing software in the field of
 computational chemistry and represents and warrants to the
 licensee that it is not a competitor of Gaussian, Inc. and that
 it will not use this program in any manner prohibited above.
 ---------------------------------------------------------------
  

 Cite this work as:
 Gaussian 09, Revision D.01,
 M. J. Frisch, G. W. Trucks, H. B. Schlegel, G. E. Scuseria, 
 M. A. Robb, J. R. Cheeseman, G. Scalmani, V. Barone, B. Mennucci, 
 G. A. Petersson, H. Nakatsuji, M. Caricato, X. Li, H. P. Hratchian, 
 A. F. Izmaylov, J. Bloino, G. Zheng, J. L. Sonnenberg, M. Hada, 
 M. Ehara, K. Toyota, R. Fukuda, J. Hasegawa, M. Ishida, T. Nakajima, 
 Y. Honda, O. Kitao, H. Nakai, T. Vreven, J. A. Montgomery, Jr., 
 J. E. Peralta, F. Ogliaro, M. Bearpark, J. J. Heyd, E. Brothers, 
 K. N. Kudin, V. N. Staroverov, T. Keith, R. Kobayashi, J. Normand, 
 K. Raghavachari, A. Rendell, J. C. Burant, S. S. Iyengar, J. Tomasi, 
 M. Cossi, N. Rega, J. M. Millam, M. Klene, J. E. Knox, J. B. Cross, 
 V. Bakken, C. Adamo, J. Jaramillo, R. Gomperts, R. E. Stratmann, 
 O. Yazyev, A. J. Austin, R. Cammi, C. Pomelli, J. W. Ochterski, 
 R. L. Martin, K. Morokuma, V. G. Zakrzewski, G. A. Voth, 
 P. Salvador, J. J. Dannenberg, S. Dapprich, A. D. Daniels, 
 O. Farkas, J. B. Foresman, J. V. Ortiz, J. Cioslowski, 
 and D. J. Fox, Gaussian, Inc., Wallingford CT, 2013.
 
 ******************************************
 Gaussian 09:  ES64L-G09RevD.01 24-Apr-2013
                26-Aug-2020 
 ******************************************
 %chk=/home/boittier/MDCM/nms_sampling/butadiene_geom.xyz.dir/butadiene_254.chk
 %nproc=8
 Will use up to    8 processors via shared memory.
 %mem=16000MB
 --------------------
 #p B2PLYPD3/Def2QZVP
 --------------------
 1/38=1/1;
 2/12=2,17=6,18=5,40=1/2;
 3/5=45,7=101,11=9,16=1,25=1,30=1,74=-60/1,2,3;
 4//1;
 5/5=2,38=5/2;
 8/10=1/1;
 9/16=-3/6;
 6/7=2,8=2,9=2,10=2/1;
 99/5=1,9=1/99;
 Leave Link    1 at Wed Aug 26 14:32:45 2020, MaxMem=  2097152000 cpu:         0.2
 (Enter /opt/cluster/programs/g09/g09_d.01/g09/l101.exe)
 ---------
 butadiene
 ---------
 Symbolic Z-matrix:
 Charge =  0 Multiplicity = 1
 C                    -3.83511   0.23124   0.00502 
 C                    -2.72279  -0.51467   0.04189 
 C                    -1.39497   0.06041   0.02544 
 C                    -0.26651  -0.64312   0.01675 
 H                    -4.8374   -0.18254   0.08502 
 H                    -3.73523   1.31805  -0.0719 
 H                    -2.74489  -1.60081   0.12799 
 H                    -1.31409   1.13734   0.08426 
 H                    -0.2702   -1.71157   0.0561 
 H                     0.73012  -0.18464   0.01664 
 
 NAtoms=     10 NQM=       10 NQMF=       0 NMMI=      0 NMMIF=      0
                NMic=       0 NMicF=      0.
                    Isotopes and Nuclear Properties:
 (Nuclear quadrupole moments (NQMom) in fm**2, nuclear magnetic moments (NMagM)
  in nuclear magnetons)

  Atom         1           2           3           4           5           6           7           8           9          10
 IAtWgt=          12          12          12          12           1           1           1           1           1           1
 AtmWgt=  12.0000000  12.0000000  12.0000000  12.0000000   1.0078250   1.0078250   1.0078250   1.0078250   1.0078250   1.0078250
 NucSpn=           0           0           0           0           1           1           1           1           1           1
 AtZEff=   0.0000000   0.0000000   0.0000000   0.0000000   0.0000000   0.0000000   0.0000000   0.0000000   0.0000000   0.0000000
 NQMom=    0.0000000   0.0000000   0.0000000   0.0000000   0.0000000   0.0000000   0.0000000   0.0000000   0.0000000   0.0000000
 NMagM=    0.0000000   0.0000000   0.0000000   0.0000000   2.7928460   2.7928460   2.7928460   2.7928460   2.7928460   2.7928460
 AtZNuc=   6.0000000   6.0000000   6.0000000   6.0000000   1.0000000   1.0000000   1.0000000   1.0000000   1.0000000   1.0000000
 Leave Link  101 at Wed Aug 26 14:32:45 2020, MaxMem=  2097152000 cpu:         0.5
 (Enter /opt/cluster/programs/g09/g09_d.01/g09/l202.exe)
                          Input orientation:                          
 ---------------------------------------------------------------------
 Center     Atomic      Atomic             Coordinates (Angstroms)
 Number     Number       Type             X           Y           Z
 ---------------------------------------------------------------------
      1          6           0       -3.835113    0.231238    0.005018
      2          6           0       -2.722790   -0.514672    0.041888
      3          6           0       -1.394965    0.060405    0.025438
      4          6           0       -0.266509   -0.643120    0.016749
      5          1           0       -4.837402   -0.182542    0.085016
      6          1           0       -3.735228    1.318052   -0.071898
      7          1           0       -2.744886   -1.600814    0.127986
      8          1           0       -1.314086    1.137339    0.084259
      9          1           0       -0.270196   -1.711572    0.056101
     10          1           0        0.730123   -0.184641    0.016637
 ---------------------------------------------------------------------
                    Distance matrix (angstroms):
                    1          2          3          4          5
     1  C    0.000000
     2  C    1.339777   0.000000
     3  C    2.446206   1.447102   0.000000
     4  C    3.674177   2.459766   1.329826   0.000000
     5  H    1.087289   2.140970   3.451513   4.594546   0.000000
     6  H    1.094101   2.096868   2.658568   3.985733   1.868473
     7  H    2.135446   1.089773   2.143001   2.659305   2.528234
     8  H    2.680089   2.171493   1.081567   2.066884   3.762425
     9  H    4.060265   2.729100   2.099035   1.069183   4.816445
    10  H    4.584154   3.468741   2.139188   1.097032   5.567945
                    6          7          8          9         10
     6  H    0.000000
     7  H    3.088772   0.000000
     8  H    2.432893   3.089754   0.000000
     9  H    4.604503   2.478210   3.034270   0.000000
    10  H    4.712248   3.754149   2.435363   1.825846   0.000000
 Stoichiometry    C4H6
 Framework group  C1[X(C4H6)]
 Deg. of freedom    24
 Full point group                 C1      NOp   1
 Largest Abelian subgroup         C1      NOp   1
 Largest concise Abelian subgroup C1      NOp   1
                         Standard orientation:                         
 ---------------------------------------------------------------------
 Center     Atomic      Atomic             Coordinates (Angstroms)
 Number     Number       Type             X           Y           Z
 ---------------------------------------------------------------------
      1          6           0        1.836659   -0.115229   -0.016022
      2          6           0        0.607618    0.417810    0.002169
      3          6           0       -0.594128   -0.388333    0.008758
      4          6           0       -1.831284    0.098704   -0.017215
      5          1           0        2.747340    0.475417    0.047181
      6          1           0        1.935307   -1.204030   -0.058905
      7          1           0        0.432572    1.492156    0.054558
      8          1           0       -0.478808   -1.459758    0.101165
      9          1           0       -2.021153    1.150874   -0.010929
     10          1           0       -2.728446   -0.532370    0.000790
 ---------------------------------------------------------------------
 Rotational constants (GHZ):     42.4513986      4.4787446      4.0530373
 Leave Link  202 at Wed Aug 26 14:32:45 2020, MaxMem=  2097152000 cpu:         0.0
 (Enter /opt/cluster/programs/g09/g09_d.01/g09/l301.exe)
 Standard basis: def2QZVP (5D, 7F)
 Ernie: Thresh=  0.10000D-02 Tol=  0.10000D-05 Strict=F.
 There are   498 symmetry adapted cartesian basis functions of A   symmetry.
 There are   408 symmetry adapted basis functions of A   symmetry.
   408 basis functions,   596 primitive gaussians,   498 cartesian basis functions
    15 alpha electrons       15 beta electrons
       nuclear repulsion energy       104.1176555722 Hartrees.
 IExCor=  419 DFT=T Ex+Corr=B2PLYPD3 ExCW=0 ScaHFX=  0.530000
 ScaDFX=  0.470000  0.470000  0.730000  0.730000 ScalE2=  0.270000  0.270000
 IRadAn=      0 IRanWt=     -1 IRanGd=            0 ICorTp=0 IEmpDi=141
 NAtoms=   10 NActive=   10 NUniq=   10 SFac= 1.00D+00 NAtFMM=   60 NAOKFM=F Big=F
 Integral buffers will be    131072 words long.
 Regular integral format.
 Two-electron integral symmetry is turned on.
 R6Disp:  Grimme-D3(BJ) Dispersion energy=       -0.0048442379 Hartrees.
 Nuclear repulsion after empirical dispersion term =      104.1128113343 Hartrees.
 Leave Link  301 at Wed Aug 26 14:32:45 2020, MaxMem=  2097152000 cpu:         0.4
 (Enter /opt/cluster/programs/g09/g09_d.01/g09/l302.exe)
 NPDir=0 NMtPBC=     1 NCelOv=     1 NCel=       1 NClECP=     1 NCelD=      1
         NCelK=      1 NCelE2=     1 NClLst=     1 CellRange=     0.0.
 One-electron integrals computed using PRISM.
   1 Symmetry operations used in ECPInt.
 ECPInt:  NShTT=    8256 NPrTT=   19107 LenC2=    8056 LenP2D=   16126.
 LDataN:  DoStor=T MaxTD1= 8 Len=  415
 NBasis=   408 RedAO= T EigKep=  4.19D-05  NBF=   408
 NBsUse=   408 1.00D-06 EigRej= -1.00D+00 NBFU=   408
 Precomputing XC quadrature grid using
 IXCGrd= 4 IRadAn=           0 IRanWt=          -1 IRanGd=           0 AccXCQ= 0.00D+00.
 Generated NRdTot=       0 NPtTot=           0 NUsed=           0 NTot=          32
 NSgBfM=   498   498   498   498   498 MxSgAt=    10 MxSgA2=    10.
 Leave Link  302 at Wed Aug 26 14:32:45 2020, MaxMem=  2097152000 cpu:         3.1
 (Enter /opt/cluster/programs/g09/g09_d.01/g09/l303.exe)
 DipDrv:  MaxL=1.
 Leave Link  303 at Wed Aug 26 14:32:46 2020, MaxMem=  2097152000 cpu:         0.3
 (Enter /opt/cluster/programs/g09/g09_d.01/g09/l401.exe)
 ExpMin= 7.60D-02 ExpMax= 6.70D+04 ExpMxC= 6.47D+02 IAcc=2 IRadAn=         4 AccDes= 0.00D+00
 Harris functional with IExCor=  419 and IRadAn=       4 diagonalized for initial guess.
 HarFok:  IExCor=  419 AccDes= 0.00D+00 IRadAn=         4 IDoV= 1 UseB2=F ITyADJ=14
 ICtDFT=  3500011 ScaDFX=  1.000000  1.000000  1.000000  1.000000
 FoFCou: FMM=F IPFlag=           0 FMFlag=      100000 FMFlg1=           0
         NFxFlg=           0 DoJE=T BraDBF=F KetDBF=T FulRan=T
         wScrn=  0.000000 ICntrl=     500 IOpCl=  0 I1Cent=   200000004 NGrid=           0
         NMat0=    1 NMatS0=      1 NMatT0=    0 NMatD0=    1 NMtDS0=    0 NMtDT0=    0
 Petite list used in FoFCou.
 Harris En= -156.134857741845    
 JPrj=0 DoOrth=F DoCkMO=F.
 Leave Link  401 at Wed Aug 26 14:32:47 2020, MaxMem=  2097152000 cpu:         8.5
 (Enter /opt/cluster/programs/g09/g09_d.01/g09/l502.exe)
 Closed shell SCF:
 Using DIIS extrapolation, IDIIS=  1040.
 Integral symmetry usage will be decided dynamically.
 IVT=      770090 IEndB=      770090 NGot=  2097152000 MDV=  2096647053
 LenX=  2096647053 LenY=  2096398551
 Requested convergence on RMS density matrix=1.00D-08 within 128 cycles.
 Requested convergence on MAX density matrix=1.00D-06.
 Requested convergence on             energy=1.00D-06.
 No special actions if energy rises.
 Fock matrices will be formed incrementally for  20 cycles.
 Integral accuracy reduced to 1.0D-05 until final iterations.

 Cycle   1  Pass 0  IDiag  1:
 FoFJK:  IHMeth= 1 ICntrl=       0 DoSepK=F KAlg= 0 I1Cent=   0 FoldK=F
 IRaf= 940000000 NMat=   1 IRICut=       1 DoRegI=T DoRafI=F ISym2E= 0.
 FoFCou: FMM=F IPFlag=           0 FMFlag=      100000 FMFlg1=           0
         NFxFlg=           0 DoJE=F BraDBF=F KetDBF=F FulRan=T
         wScrn=  0.000000 ICntrl=       0 IOpCl=  0 I1Cent=           0 NGrid=           0
         NMat0=    1 NMatS0=      1 NMatT0=    0 NMatD0=    1 NMtDS0=    0 NMtDT0=    0
 Symmetry not used in FoFCou.
 E= -155.512192133740    
 DIIS: error= 3.62D-02 at cycle   1 NSaved=   1.
 NSaved= 1 IEnMin= 1 EnMin= -155.512192133740     IErMin= 1 ErrMin= 3.62D-02
 ErrMax= 3.62D-02  0.00D+00 EMaxC= 1.00D-01 BMatC= 2.53D-01 BMatP= 2.53D-01
 IDIUse=3 WtCom= 6.38D-01 WtEn= 3.62D-01
 Coeff-Com:  0.100D+01
 Coeff-En:   0.100D+01
 Coeff:      0.100D+01
 Gap=     0.298 Goal=   None    Shift=    0.000
 GapD=    0.298 DampG=1.000 DampE=0.500 DampFc=0.5000 IDamp=-1.
 Damping current iteration by 5.00D-01
 RMSDP=9.50D-04 MaxDP=5.08D-02              OVMax= 1.94D-01

 Cycle   2  Pass 0  IDiag  1:
 RMSU=  4.36D-04    CP:  9.51D-01
 E= -155.611505649702     Delta-E=       -0.099313515962 Rises=F Damp=T
 DIIS: error= 1.13D-02 at cycle   2 NSaved=   2.
 NSaved= 2 IEnMin= 2 EnMin= -155.611505649702     IErMin= 2 ErrMin= 1.13D-02
 ErrMax= 1.13D-02  0.00D+00 EMaxC= 1.00D-01 BMatC= 2.97D-02 BMatP= 2.53D-01
 IDIUse=3 WtCom= 8.87D-01 WtEn= 1.13D-01
 Coeff-Com: -0.295D+00 0.129D+01
 Coeff-En:   0.000D+00 0.100D+01
 Coeff:     -0.261D+00 0.126D+01
 Gap=     0.356 Goal=   None    Shift=    0.000
 RMSDP=2.62D-04 MaxDP=8.12D-03 DE=-9.93D-02 OVMax= 9.54D-02

 Cycle   3  Pass 0  IDiag  1:
 RMSU=  2.50D-04    CP:  9.33D-01  1.09D+00
 E= -155.697677722288     Delta-E=       -0.086172072586 Rises=F Damp=F
 DIIS: error= 4.54D-03 at cycle   3 NSaved=   3.
 NSaved= 3 IEnMin= 3 EnMin= -155.697677722288     IErMin= 3 ErrMin= 4.54D-03
 ErrMax= 4.54D-03  0.00D+00 EMaxC= 1.00D-01 BMatC= 2.02D-03 BMatP= 2.97D-02
 IDIUse=3 WtCom= 9.55D-01 WtEn= 4.54D-02
 Coeff-Com: -0.114D+00 0.232D+00 0.882D+00
 Coeff-En:   0.000D+00 0.000D+00 0.100D+01
 Coeff:     -0.109D+00 0.222D+00 0.887D+00
 Gap=     0.293 Goal=   None    Shift=    0.000
 RMSDP=7.18D-05 MaxDP=4.13D-03 DE=-8.62D-02 OVMax= 2.41D-02

 Cycle   4  Pass 0  IDiag  1:
 RMSU=  5.32D-05    CP:  9.30D-01  1.19D+00  9.25D-01
 E= -155.699209082379     Delta-E=       -0.001531360091 Rises=F Damp=F
 DIIS: error= 3.10D-03 at cycle   4 NSaved=   4.
 NSaved= 4 IEnMin= 4 EnMin= -155.699209082379     IErMin= 4 ErrMin= 3.10D-03
 ErrMax= 3.10D-03  0.00D+00 EMaxC= 1.00D-01 BMatC= 6.69D-04 BMatP= 2.02D-03
 IDIUse=3 WtCom= 9.69D-01 WtEn= 3.10D-02
 Coeff-Com: -0.514D-01 0.841D-01 0.472D+00 0.496D+00
 Coeff-En:   0.000D+00 0.000D+00 0.148D+00 0.852D+00
 Coeff:     -0.498D-01 0.815D-01 0.462D+00 0.507D+00
 Gap=     0.293 Goal=   None    Shift=    0.000
 RMSDP=2.94D-05 MaxDP=1.44D-03 DE=-1.53D-03 OVMax= 9.30D-03

 Cycle   5  Pass 0  IDiag  1:
 RMSU=  1.55D-05    CP:  9.30D-01  1.18D+00  9.69D-01  5.81D-01
 E= -155.699851600412     Delta-E=       -0.000642518033 Rises=F Damp=F
 DIIS: error= 2.92D-04 at cycle   5 NSaved=   5.
 NSaved= 5 IEnMin= 5 EnMin= -155.699851600412     IErMin= 5 ErrMin= 2.92D-04
 ErrMax= 2.92D-04  0.00D+00 EMaxC= 1.00D-01 BMatC= 4.70D-06 BMatP= 6.69D-04
 IDIUse=3 WtCom= 9.97D-01 WtEn= 2.92D-03
 Coeff-Com: -0.277D-02 0.225D-02 0.356D-01 0.962D-01 0.869D+00
 Coeff-En:   0.000D+00 0.000D+00 0.000D+00 0.000D+00 0.100D+01
 Coeff:     -0.276D-02 0.225D-02 0.355D-01 0.959D-01 0.869D+00
 Gap=     0.294 Goal=   None    Shift=    0.000
 RMSDP=3.83D-06 MaxDP=1.28D-04 DE=-6.43D-04 OVMax= 1.21D-03

 Initial convergence to 1.0D-05 achieved.  Increase integral accuracy.
 Cycle   6  Pass 1  IDiag  1:
 E= -155.699870645270     Delta-E=       -0.000019044857 Rises=F Damp=F
 DIIS: error= 5.02D-05 at cycle   1 NSaved=   1.
 NSaved= 1 IEnMin= 1 EnMin= -155.699870645270     IErMin= 1 ErrMin= 5.02D-05
 ErrMax= 5.02D-05  0.00D+00 EMaxC= 1.00D-01 BMatC= 4.82D-07 BMatP= 4.82D-07
 IDIUse=1 WtCom= 1.00D+00 WtEn= 0.00D+00
 Coeff-Com:  0.100D+01
 Coeff:      0.100D+01
 Gap=     0.294 Goal=   None    Shift=    0.000
 RMSDP=3.83D-06 MaxDP=1.28D-04 DE=-1.90D-05 OVMax= 2.76D-04

 Cycle   7  Pass 1  IDiag  1:
 RMSU=  1.51D-05    CP:  1.00D+00
 E= -155.699870975595     Delta-E=       -0.000000330326 Rises=F Damp=F
 DIIS: error= 1.85D-05 at cycle   2 NSaved=   2.
 NSaved= 2 IEnMin= 2 EnMin= -155.699870975595     IErMin= 2 ErrMin= 1.85D-05
 ErrMax= 1.85D-05  0.00D+00 EMaxC= 1.00D-01 BMatC= 2.91D-08 BMatP= 4.82D-07
 IDIUse=1 WtCom= 1.00D+00 WtEn= 0.00D+00
 Coeff-Com:  0.781D-01 0.922D+00
 Coeff:      0.781D-01 0.922D+00
 Gap=     0.294 Goal=   None    Shift=    0.000
 RMSDP=6.67D-07 MaxDP=1.99D-05 DE=-3.30D-07 OVMax= 1.36D-04

 Cycle   8  Pass 1  IDiag  1:
 RMSU=  4.72D-07    CP:  1.00D+00  1.03D+00
 E= -155.699870994161     Delta-E=       -0.000000018566 Rises=F Damp=F
 DIIS: error= 1.13D-05 at cycle   3 NSaved=   3.
 NSaved= 3 IEnMin= 3 EnMin= -155.699870994161     IErMin= 3 ErrMin= 1.13D-05
 ErrMax= 1.13D-05  0.00D+00 EMaxC= 1.00D-01 BMatC= 2.14D-08 BMatP= 2.91D-08
 IDIUse=1 WtCom= 1.00D+00 WtEn= 0.00D+00
 Coeff-Com: -0.167D-01 0.458D+00 0.558D+00
 Coeff:     -0.167D-01 0.458D+00 0.558D+00
 Gap=     0.294 Goal=   None    Shift=    0.000
 RMSDP=2.04D-07 MaxDP=1.28D-05 DE=-1.86D-08 OVMax= 7.04D-05

 Cycle   9  Pass 1  IDiag  1:
 RMSU=  1.86D-07    CP:  1.00D+00  1.04D+00  9.15D-01
 E= -155.699871014733     Delta-E=       -0.000000020572 Rises=F Damp=F
 DIIS: error= 3.68D-06 at cycle   4 NSaved=   4.
 NSaved= 4 IEnMin= 4 EnMin= -155.699871014733     IErMin= 4 ErrMin= 3.68D-06
 ErrMax= 3.68D-06  0.00D+00 EMaxC= 1.00D-01 BMatC= 4.42D-10 BMatP= 2.14D-08
 IDIUse=1 WtCom= 1.00D+00 WtEn= 0.00D+00
 Coeff-Com: -0.942D-02 0.519D-01 0.126D+00 0.832D+00
 Coeff:     -0.942D-02 0.519D-01 0.126D+00 0.832D+00
 Gap=     0.294 Goal=   None    Shift=    0.000
 RMSDP=5.48D-08 MaxDP=2.05D-06 DE=-2.06D-08 OVMax= 1.83D-05

 Cycle  10  Pass 1  IDiag  1:
 RMSU=  4.21D-08    CP:  1.00D+00  1.04D+00  9.76D-01  1.07D+00
 E= -155.699871015474     Delta-E=       -0.000000000741 Rises=F Damp=F
 DIIS: error= 7.80D-07 at cycle   5 NSaved=   5.
 NSaved= 5 IEnMin= 5 EnMin= -155.699871015474     IErMin= 5 ErrMin= 7.80D-07
 ErrMax= 7.80D-07  0.00D+00 EMaxC= 1.00D-01 BMatC= 9.54D-11 BMatP= 4.42D-10
 IDIUse=1 WtCom= 1.00D+00 WtEn= 0.00D+00
 Coeff-Com: -0.520D-03-0.476D-01-0.483D-01 0.272D+00 0.824D+00
 Coeff:     -0.520D-03-0.476D-01-0.483D-01 0.272D+00 0.824D+00
 Gap=     0.294 Goal=   None    Shift=    0.000
 RMSDP=2.53D-08 MaxDP=1.32D-06 DE=-7.41D-10 OVMax= 6.91D-06

 Cycle  11  Pass 1  IDiag  1:
 RMSU=  1.72D-08    CP:  1.00D+00  1.04D+00  9.95D-01  1.16D+00  1.03D+00
 E= -155.699871015603     Delta-E=       -0.000000000129 Rises=F Damp=F
 DIIS: error= 2.21D-07 at cycle   6 NSaved=   6.
 NSaved= 6 IEnMin= 6 EnMin= -155.699871015603     IErMin= 6 ErrMin= 2.21D-07
 ErrMax= 2.21D-07  0.00D+00 EMaxC= 1.00D-01 BMatC= 6.18D-12 BMatP= 9.54D-11
 IDIUse=1 WtCom= 1.00D+00 WtEn= 0.00D+00
 Coeff-Com:  0.618D-03-0.215D-01-0.298D-01 0.346D-01 0.285D+00 0.731D+00
 Coeff:      0.618D-03-0.215D-01-0.298D-01 0.346D-01 0.285D+00 0.731D+00
 Gap=     0.294 Goal=   None    Shift=    0.000
 RMSDP=5.13D-09 MaxDP=2.40D-07 DE=-1.29D-10 OVMax= 1.57D-06

 SCF Done:  E(RB2PLYPD3) =  -155.699871016     A.U. after   11 cycles
            NFock= 11  Conv=0.51D-08     -V/T= 2.0038
 KE= 1.551140871700D+02 PE=-5.691403151468D+02 EE= 1.542135456269D+02
 Leave Link  502 at Wed Aug 26 14:35:27 2020, MaxMem=  2097152000 cpu:      1277.1
 (Enter /opt/cluster/programs/g09/g09_d.01/g09/l801.exe)
 DoSCS=T DFT=T ScalE2(SS,OS)=  0.270000  0.270000
 ExpMin= 7.60D-02 ExpMax= 6.70D+04 ExpMxC= 6.47D+02 IAcc=3 IRadAn=         5 AccDes= 0.00D+00
 HarFok:  IExCor=  205 AccDes= 0.00D+00 IRadAn=         5 IDoV=-2 UseB2=F ITyADJ=14
 ICtDFT= 12500011 ScaDFX=  1.000000  1.000000  1.000000  1.000000
 DSYEVD-2 returned Info=         115 IAlg= 4 N=    57 NDim=    57 NE2=    36783080 trying  DSYEV.
 Largest valence mixing into a core orbital is  1.11D-04
 Largest core mixing into a valence orbital is  1.99D-05
 Range of M.O.s used for correlation:     5   408
 NBasis=   408 NAE=    15 NBE=    15 NFC=     4 NFV=     0
 NROrb=    404 NOA=    11 NOB=    11 NVA=   393 NVB=   393

 **** Warning!!: The largest alpha MO coefficient is  0.28012698D+02

 Leave Link  801 at Wed Aug 26 14:35:28 2020, MaxMem=  2097152000 cpu:         0.9
 (Enter /opt/cluster/programs/g09/g09_d.01/g09/l906.exe)
 DoSCS=T DFT=T ScalE2(SS,OS)=  0.270000  0.270000
 FulOut=F Deriv=F AODrv=F NAtomX=    10
   MMem=         881  MDisk=          11 MDiskD=          11
  W3Min=     2152854 MinDsk=     3857222 NBas6D=         498
 NBas2D=      125763    NTT=      124251    LW2=     4508827
    MDV=  2096382340 MDiskM=        9345 NBas2p=      117585
 Fully direct method using O(OVN) memory.
 IMap=   1   2   3   4   5   6   7   8   9  10  11
 JobTyp=1 Pass  1:  I=   1 to  11 NPSUse=  8 ParTrn=T ParDer=T DoDerP=F.
 Spin components of T(2) and E(2):
     alpha-alpha T2 =       0.4205555027D-01 E2=     -0.2543656309D-01
     alpha-beta  T2 =       0.2721349365D+00 E2=     -0.1749651261D+00
     beta-beta   T2 =       0.4205555027D-01 E2=     -0.2543656309D-01
 The integrals were generated   1 times.
 E2(B2PLYPD3) =    -0.2258382523D+00 E(B2PLYPD3) =    -0.15592570926790D+03
 Leave Link  906 at Wed Aug 26 14:37:10 2020, MaxMem=  2097152000 cpu:       807.1
 (Enter /opt/cluster/programs/g09/g09_d.01/g09/l601.exe)
 Copying SCF densities to generalized density rwf, IOpCl= 0 IROHF=0.

 **********************************************************************

            Population analysis using the SCF density.

 **********************************************************************

 Orbital symmetries:
       Occupied  (A) (A) (A) (A) (A) (A) (A) (A) (A) (A) (A) (A)
                 (A) (A) (A)
       Virtual   (A) (A) (A) (A) (A) (A) (A) (A) (A) (A) (A) (A)
                 (A) (A) (A) (A) (A) (A) (A) (A) (A) (A) (A) (A)
                 (A) (A) (A) (A) (A) (A) (A) (A) (A) (A) (A) (A)
                 (A) (A) (A) (A) (A) (A) (A) (A) (A) (A) (A) (A)
                 (A) (A) (A) (A) (A) (A) (A) (A) (A) (A) (A) (A)
                 (A) (A) (A) (A) (A) (A) (A) (A) (A) (A) (A) (A)
                 (A) (A) (A) (A) (A) (A) (A) (A) (A) (A) (A) (A)
                 (A) (A) (A) (A) (A) (A) (A) (A) (A) (A) (A) (A)
                 (A) (A) (A) (A) (A) (A) (A) (A) (A) (A) (A) (A)
                 (A) (A) (A) (A) (A) (A) (A) (A) (A) (A) (A) (A)
                 (A) (A) (A) (A) (A) (A) (A) (A) (A) (A) (A) (A)
                 (A) (A) (A) (A) (A) (A) (A) (A) (A) (A) (A) (A)
                 (A) (A) (A) (A) (A) (A) (A) (A) (A) (A) (A) (A)
                 (A) (A) (A) (A) (A) (A) (A) (A) (A) (A) (A) (A)
                 (A) (A) (A) (A) (A) (A) (A) (A) (A) (A) (A) (A)
                 (A) (A) (A) (A) (A) (A) (A) (A) (A) (A) (A) (A)
                 (A) (A) (A) (A) (A) (A) (A) (A) (A) (A) (A) (A)
                 (A) (A) (A) (A) (A) (A) (A) (A) (A) (A) (A) (A)
                 (A) (A) (A) (A) (A) (A) (A) (A) (A) (A) (A) (A)
                 (A) (A) (A) (A) (A) (A) (A) (A) (A) (A) (A) (A)
                 (A) (A) (A) (A) (A) (A) (A) (A) (A) (A) (A) (A)
                 (A) (A) (A) (A) (A) (A) (A) (A) (A) (A) (A) (A)
                 (A) (A) (A) (A) (A) (A) (A) (A) (A) (A) (A) (A)
                 (A) (A) (A) (A) (A) (A) (A) (A) (A) (A) (A) (A)
                 (A) (A) (A) (A) (A) (A) (A) (A) (A) (A) (A) (A)
                 (A) (A) (A) (A) (A) (A) (A) (A) (A) (A) (A) (A)
                 (A) (A) (A) (A) (A) (A) (A) (A) (A) (A) (A) (A)
                 (A) (A) (A) (A) (A) (A) (A) (A) (A) (A) (A) (A)
                 (A) (A) (A) (A) (A) (A) (A) (A) (A) (A) (A) (A)
                 (A) (A) (A) (A) (A) (A) (A) (A) (A) (A) (A) (A)
                 (A) (A) (A) (A) (A) (A) (A) (A) (A) (A) (A) (A)
                 (A) (A) (A) (A) (A) (A) (A) (A) (A) (A) (A) (A)
                 (A) (A) (A) (A) (A) (A) (A) (A) (A)
 The electronic state is 1-A.
 Alpha  occ. eigenvalues --  -10.62694 -10.62286 -10.61872 -10.61381  -0.93146
 Alpha  occ. eigenvalues --   -0.84823  -0.70099  -0.64192  -0.54699  -0.53720
 Alpha  occ. eigenvalues --   -0.46859  -0.45364  -0.41168  -0.38135  -0.27666
 Alpha virt. eigenvalues --    0.01704   0.07025   0.07389   0.08043   0.09581
 Alpha virt. eigenvalues --    0.11666   0.12537   0.14619   0.15814   0.16162
 Alpha virt. eigenvalues --    0.18763   0.20390   0.21719   0.22763   0.23835
 Alpha virt. eigenvalues --    0.26820   0.27094   0.29409   0.31693   0.35193
 Alpha virt. eigenvalues --    0.36081   0.36589   0.37643   0.38092   0.40310
 Alpha virt. eigenvalues --    0.43023   0.43488   0.44451   0.47631   0.48300
 Alpha virt. eigenvalues --    0.49071   0.49922   0.51563   0.55003   0.57068
 Alpha virt. eigenvalues --    0.58176   0.61517   0.64474   0.66763   0.67913
 Alpha virt. eigenvalues --    0.68965   0.72551   0.76897   0.77274   0.79019
 Alpha virt. eigenvalues --    0.80034   0.80980   0.81615   0.82643   0.84381
 Alpha virt. eigenvalues --    0.84640   0.85869   0.86458   0.87020   0.90944
 Alpha virt. eigenvalues --    0.92690   0.93510   0.94128   0.95567   0.96101
 Alpha virt. eigenvalues --    0.98818   0.99321   1.00181   1.03356   1.04596
 Alpha virt. eigenvalues --    1.06081   1.09051   1.10457   1.11931   1.12656
 Alpha virt. eigenvalues --    1.13403   1.17183   1.19667   1.22344   1.23863
 Alpha virt. eigenvalues --    1.24790   1.25967   1.34130   1.34579   1.36473
 Alpha virt. eigenvalues --    1.37222   1.40214   1.47346   1.63290   1.65664
 Alpha virt. eigenvalues --    1.66384   1.67444   1.68642   1.72247   1.73021
 Alpha virt. eigenvalues --    1.73766   1.80297   1.82050   1.84793   1.86899
 Alpha virt. eigenvalues --    1.90458   1.90621   1.91670   1.93269   1.94870
 Alpha virt. eigenvalues --    1.95814   1.99572   2.00386   2.01185   2.02447
 Alpha virt. eigenvalues --    2.02978   2.06369   2.07006   2.08523   2.09281
 Alpha virt. eigenvalues --    2.10684   2.11428   2.14916   2.17661   2.18847
 Alpha virt. eigenvalues --    2.19693   2.22029   2.22867   2.26401   2.28435
 Alpha virt. eigenvalues --    2.30600   2.32687   2.33396   2.38537   2.42340
 Alpha virt. eigenvalues --    2.45056   2.45652   2.46548   2.47908   2.50197
 Alpha virt. eigenvalues --    2.52608   2.53493   2.56634   2.56831   2.58028
 Alpha virt. eigenvalues --    2.59604   2.61965   2.64223   2.64380   2.66450
 Alpha virt. eigenvalues --    2.67067   2.69637   2.70924   2.71334   2.71736
 Alpha virt. eigenvalues --    2.73504   2.75407   2.77106   2.77830   2.79673
 Alpha virt. eigenvalues --    2.81473   2.88665   2.90338   2.92674   2.92920
 Alpha virt. eigenvalues --    2.94539   3.02533   3.05769   3.08013   3.10180
 Alpha virt. eigenvalues --    3.13008   3.14914   3.25919   3.34017   3.36378
 Alpha virt. eigenvalues --    3.38452   3.40178   3.42255   3.44444   3.48493
 Alpha virt. eigenvalues --    3.48763   3.49716   3.52438   3.55557   3.58040
 Alpha virt. eigenvalues --    3.61261   3.61869   3.63316   3.69103   3.78239
 Alpha virt. eigenvalues --    3.79785   3.82159   3.87430   3.89774   3.90349
 Alpha virt. eigenvalues --    3.94649   3.96732   4.00988   4.04468   4.13893
 Alpha virt. eigenvalues --    4.16839   4.18093   4.21568   4.26069   4.46272
 Alpha virt. eigenvalues --    4.55883   4.57130   4.59993   4.88716   4.99578
 Alpha virt. eigenvalues --    5.00743   5.03923   5.05458   5.06778   5.07664
 Alpha virt. eigenvalues --    5.12159   5.17715   5.20744   5.28559   5.30784
 Alpha virt. eigenvalues --    5.33183   5.39269   5.42480   5.44483   5.49003
 Alpha virt. eigenvalues --    5.52442   5.55263   5.57095   5.59959   5.63054
 Alpha virt. eigenvalues --    5.65282   5.70087   5.74626   5.75846   5.77936
 Alpha virt. eigenvalues --    5.79012   5.79425   5.82690   5.85386   5.86438
 Alpha virt. eigenvalues --    5.89546   5.90425   6.00739   6.01507   6.04674
 Alpha virt. eigenvalues --    6.05971   6.06940   6.07634   6.09767   6.11792
 Alpha virt. eigenvalues --    6.13918   6.15661   6.17157   6.18858   6.20373
 Alpha virt. eigenvalues --    6.22298   6.23349   6.27821   6.30368   6.33419
 Alpha virt. eigenvalues --    6.34893   6.35722   6.36205   6.38173   6.38338
 Alpha virt. eigenvalues --    6.40293   6.41798   6.42732   6.49993   6.50605
 Alpha virt. eigenvalues --    6.53655   6.54225   6.55289   6.57510   6.63506
 Alpha virt. eigenvalues --    6.64621   6.65434   6.68466   6.71764   6.78990
 Alpha virt. eigenvalues --    6.81404   6.86352   6.87058   6.90911   6.92238
 Alpha virt. eigenvalues --    6.93389   6.96605   6.99636   7.02963   7.08000
 Alpha virt. eigenvalues --    7.14769   7.16478   7.18059   7.20205   7.21250
 Alpha virt. eigenvalues --    7.25203   7.25440   7.34970   7.37892   7.40681
 Alpha virt. eigenvalues --    7.47890   7.50131   7.55265   7.56656   7.59386
 Alpha virt. eigenvalues --    7.62774   7.65210   7.66143   7.67016   7.68015
 Alpha virt. eigenvalues --    7.70404   7.71775   7.75760   7.77085   7.78303
 Alpha virt. eigenvalues --    7.79420   7.83610   7.87542   7.92369   7.92879
 Alpha virt. eigenvalues --    7.95193   7.97018   8.05832   8.09282   8.14410
 Alpha virt. eigenvalues --    8.15794   8.16422   8.18248   8.20823   8.21320
 Alpha virt. eigenvalues --    8.30468   8.33057   8.34217   8.34650   8.35877
 Alpha virt. eigenvalues --    8.36845   8.38337   8.38905   8.41432   8.42874
 Alpha virt. eigenvalues --    8.45817   8.49070   8.52404   8.55414   8.55631
 Alpha virt. eigenvalues --    8.58936   8.60423   8.62467   8.66757   8.70505
 Alpha virt. eigenvalues --    8.74650   8.77167   8.78440   8.81164   8.85254
 Alpha virt. eigenvalues --    8.86112   8.90159   8.93585   9.03449   9.12873
 Alpha virt. eigenvalues --    9.19100   9.24825   9.30109   9.35314   9.42855
 Alpha virt. eigenvalues --    9.54364   9.65301   9.72913   9.83456   9.88189
 Alpha virt. eigenvalues --    9.90182   9.91345   9.95143   9.98560  10.00376
 Alpha virt. eigenvalues --   10.10433  10.14912  10.23715  10.28055  10.28991
 Alpha virt. eigenvalues --   10.33510  10.42113  10.54319  10.70435  10.81251
 Alpha virt. eigenvalues --   10.98875  11.13473  11.43953  11.67429  11.93155
 Alpha virt. eigenvalues --   11.94882  12.90478  13.05769  13.16171  13.16906
 Alpha virt. eigenvalues --   28.63551  28.78153  29.47736  29.66852 148.22802
 Alpha virt. eigenvalues --  148.36085 149.06979 149.27408
          Condensed to atoms (all electrons):
               1          2          3          4          5          6
     1  C    4.839533   0.617623  -0.081383  -0.002218   0.423727   0.424799
     2  C    0.617623   4.840857   0.399165  -0.080938  -0.043886  -0.048386
     3  C   -0.081383   0.399165   4.832823   0.616543   0.007462  -0.008779
     4  C   -0.002218  -0.080938   0.616543   4.844957  -0.000641   0.000436
     5  H    0.423727  -0.043886   0.007462  -0.000641   0.575900  -0.043474
     6  H    0.424799  -0.048386  -0.008779   0.000436  -0.043474   0.598560
     7  H   -0.047142   0.411530  -0.063234  -0.000669  -0.007736   0.007419
     8  H   -0.002113  -0.059348   0.410100  -0.050321  -0.000051   0.004765
     9  H    0.000253  -0.007470  -0.049029   0.425022  -0.000029   0.000047
    10  H   -0.000609   0.007017  -0.042608   0.424819   0.000024  -0.000041
               7          8          9         10
     1  C   -0.047142  -0.002113   0.000253  -0.000609
     2  C    0.411530  -0.059348  -0.007470   0.007017
     3  C   -0.063234   0.410100  -0.049029  -0.042608
     4  C   -0.000669  -0.050321   0.425022   0.424819
     5  H   -0.007736  -0.000051  -0.000029   0.000024
     6  H    0.007419   0.004765   0.000047  -0.000041
     7  H    0.632908   0.007094   0.004641  -0.000111
     8  H    0.007094   0.637158   0.008155  -0.009517
     9  H    0.004641   0.008155   0.603634  -0.047064
    10  H   -0.000111  -0.009517  -0.047064   0.585982
 Mulliken charges:
               1
     1  C   -0.172472
     2  C   -0.036164
     3  C   -0.021059
     4  C   -0.176990
     5  H    0.088705
     6  H    0.064654
     7  H    0.055300
     8  H    0.054077
     9  H    0.061840
    10  H    0.082109
 Sum of Mulliken charges =   0.00000
 Mulliken charges with hydrogens summed into heavy atoms:
               1
     1  C   -0.019113
     2  C    0.019136
     3  C    0.033018
     4  C   -0.033041
 Electronic spatial extent (au):  <R**2>=            333.8279
 Charge=              0.0000 electrons
 Dipole moment (field-independent basis, Debye):
    X=             -0.0016    Y=              0.0157    Z=              0.1294  Tot=              0.1304
 Quadrupole moment (field-independent basis, Debye-Ang):
   XX=            -23.3748   YY=            -23.2235   ZZ=            -29.2603
   XY=             -0.1549   XZ=              0.0309   YZ=              0.0383
 Traceless Quadrupole moment (field-independent basis, Debye-Ang):
   XX=              1.9115   YY=              2.0627   ZZ=             -3.9741
   XY=             -0.1549   XZ=              0.0309   YZ=              0.0383
 Octapole moment (field-independent basis, Debye-Ang**2):
  XXX=             -0.0270  YYY=             -0.0031  ZZZ=              0.2435  XYY=             -0.1728
  XXY=              0.1869  XXZ=              0.4301  XZZ=             -0.0614  YZZ=              0.0092
  YYZ=              0.3647  XYZ=              0.3035
 Hexadecapole moment (field-independent basis, Debye-Ang**3):
 XXXX=           -339.7595 YYYY=            -65.4605 ZZZZ=            -36.8006 XXXY=              6.3229
 XXXZ=              0.8818 YYYX=             -2.1052 YYYZ=              0.0116 ZZZX=              0.0353
 ZZZY=              0.0354 XXYY=            -68.8186 XXZZ=            -76.9312 YYZZ=            -19.1757
 XXYZ=              0.5085 YYXZ=             -0.1903 ZZXY=             -0.4847
 N-N= 1.041128113343D+02 E-N=-5.691403102716D+02  KE= 1.551140871700D+02
 Leave Link  601 at Wed Aug 26 14:37:10 2020, MaxMem=  2097152000 cpu:         0.7
 (Enter /opt/cluster/programs/g09/g09_d.01/g09/l9999.exe)
 1\1\GINC-NODE34\SP\RB2PLYPD3-FC\def2QZVP\C4H6\BOITTIER\26-Aug-2020\0\\
 #p B2PLYPD3/Def2QZVP\\butadiene\\0,1\C,0,-3.835113,0.231238,0.005018\C
 ,0,-2.72279,-0.514672,0.041888\C,0,-1.394965,0.060405,0.025438\C,0,-0.
 266509,-0.64312,0.016749\H,0,-4.837402,-0.182542,0.085016\H,0,-3.73522
 8,1.318052,-0.071898\H,0,-2.744886,-1.600814,0.127986\H,0,-1.314086,1.
 137339,0.084259\H,0,-0.270196,-1.711572,0.056101\H,0,0.730123,-0.18464
 1,0.016637\\Version=ES64L-G09RevD.01\State=1-A\HF=-155.699871\MP2=-155
 .9257093\RMSD=5.132e-09\PG=C01 [X(C4H6)]\\@


 What some people mistake for the high cost
 of living is really the cost of living high.
                              -- Doug Larson
 Job cpu time:       0 days  0 hours 34 minutes 59.4 seconds.
 File lengths (MBytes):  RWF=     92 Int=      0 D2E=      0 Chk=      9 Scr=      1
 Normal termination of Gaussian 09 at Wed Aug 26 14:37:10 2020.
