 Entering Gaussian System, Link 0=/opt/cluster/programs/g09/g09_d.01/g09//g09
 Input=/home/boittier/MDCM/nms_sampling/butadiene_geom.xyz.dir/energies/butadiene_2431_energy.com
 Output=/scratch/boittier/butadiene_2431_energy/butadiene_2431_energy.out
 Initial command:
 /opt/cluster/programs/g09/g09_d.01/g09/l1.exe "/scratch/boittier/butadiene_2431_energy/Gau-130586.inp" -scrdir="/scratch/boittier/butadiene_2431_energy/"
 Entering Link 1 = /opt/cluster/programs/g09/g09_d.01/g09/l1.exe PID=    130587.
  
 Copyright (c) 1988,1990,1992,1993,1995,1998,2003,2009,2013,
            Gaussian, Inc.  All Rights Reserved.
  
 This is part of the Gaussian(R) 09 program.  It is based on
 the Gaussian(R) 03 system (copyright 2003, Gaussian, Inc.),
 the Gaussian(R) 98 system (copyright 1998, Gaussian, Inc.),
 the Gaussian(R) 94 system (copyright 1995, Gaussian, Inc.),
 the Gaussian 92(TM) system (copyright 1992, Gaussian, Inc.),
 the Gaussian 90(TM) system (copyright 1990, Gaussian, Inc.),
 the Gaussian 88(TM) system (copyright 1988, Gaussian, Inc.),
 the Gaussian 86(TM) system (copyright 1986, Carnegie Mellon
 University), and the Gaussian 82(TM) system (copyright 1983,
 Carnegie Mellon University). Gaussian is a federally registered
 trademark of Gaussian, Inc.
  
 This software contains proprietary and confidential information,
 including trade secrets, belonging to Gaussian, Inc.
  
 This software is provided under written license and may be
 used, copied, transmitted, or stored only in accord with that
 written license.
  
 The following legend is applicable only to US Government
 contracts under FAR:
  
                    RESTRICTED RIGHTS LEGEND
  
 Use, reproduction and disclosure by the US Government is
 subject to restrictions as set forth in subparagraphs (a)
 and (c) of the Commercial Computer Software - Restricted
 Rights clause in FAR 52.227-19.
  
 Gaussian, Inc.
 340 Quinnipiac St., Bldg. 40, Wallingford CT 06492
  
  
 ---------------------------------------------------------------
 Warning -- This program may not be used in any manner that
 competes with the business of Gaussian, Inc. or will provide
 assistance to any competitor of Gaussian, Inc.  The licensee
 of this program is prohibited from giving any competitor of
 Gaussian, Inc. access to this program.  By using this program,
 the user acknowledges that Gaussian, Inc. is engaged in the
 business of creating and licensing software in the field of
 computational chemistry and represents and warrants to the
 licensee that it is not a competitor of Gaussian, Inc. and that
 it will not use this program in any manner prohibited above.
 ---------------------------------------------------------------
  

 Cite this work as:
 Gaussian 09, Revision D.01,
 M. J. Frisch, G. W. Trucks, H. B. Schlegel, G. E. Scuseria, 
 M. A. Robb, J. R. Cheeseman, G. Scalmani, V. Barone, B. Mennucci, 
 G. A. Petersson, H. Nakatsuji, M. Caricato, X. Li, H. P. Hratchian, 
 A. F. Izmaylov, J. Bloino, G. Zheng, J. L. Sonnenberg, M. Hada, 
 M. Ehara, K. Toyota, R. Fukuda, J. Hasegawa, M. Ishida, T. Nakajima, 
 Y. Honda, O. Kitao, H. Nakai, T. Vreven, J. A. Montgomery, Jr., 
 J. E. Peralta, F. Ogliaro, M. Bearpark, J. J. Heyd, E. Brothers, 
 K. N. Kudin, V. N. Staroverov, T. Keith, R. Kobayashi, J. Normand, 
 K. Raghavachari, A. Rendell, J. C. Burant, S. S. Iyengar, J. Tomasi, 
 M. Cossi, N. Rega, J. M. Millam, M. Klene, J. E. Knox, J. B. Cross, 
 V. Bakken, C. Adamo, J. Jaramillo, R. Gomperts, R. E. Stratmann, 
 O. Yazyev, A. J. Austin, R. Cammi, C. Pomelli, J. W. Ochterski, 
 R. L. Martin, K. Morokuma, V. G. Zakrzewski, G. A. Voth, 
 P. Salvador, J. J. Dannenberg, S. Dapprich, A. D. Daniels, 
 O. Farkas, J. B. Foresman, J. V. Ortiz, J. Cioslowski, 
 and D. J. Fox, Gaussian, Inc., Wallingford CT, 2013.
 
 ******************************************
 Gaussian 09:  ES64L-G09RevD.01 24-Apr-2013
                26-Aug-2020 
 ******************************************
 %chk=/home/boittier/MDCM/nms_sampling/butadiene_geom.xyz.dir/butadiene_2431.chk
 %nproc=8
 Will use up to    8 processors via shared memory.
 %mem=16000MB
 --------------------
 #p B2PLYPD3/Def2QZVP
 --------------------
 1/38=1/1;
 2/12=2,17=6,18=5,40=1/2;
 3/5=45,7=101,11=9,16=1,25=1,30=1,74=-60/1,2,3;
 4//1;
 5/5=2,38=5/2;
 8/10=1/1;
 9/16=-3/6;
 6/7=2,8=2,9=2,10=2/1;
 99/5=1,9=1/99;
 Leave Link    1 at Wed Aug 26 13:56:53 2020, MaxMem=  2097152000 cpu:         0.2
 (Enter /opt/cluster/programs/g09/g09_d.01/g09/l101.exe)
 ---------
 butadiene
 ---------
 Symbolic Z-matrix:
 Charge =  0 Multiplicity = 1
 C                    -3.8529    0.23985   0.00874 
 C                    -2.7602   -0.52019   0.05225 
 C                    -1.39454   0.01886   0.01413 
 C                    -0.22006  -0.62637   0.02773 
 H                    -4.84868  -0.19462  -0.06653 
 H                    -3.73253   1.37477  -0.06584 
 H                    -2.81232  -1.61717   0.31648 
 H                    -1.18241   1.18966   0.08033 
 H                    -0.17209  -1.66229  -0.18129 
 H                     0.70232  -0.06365   0.0768 
 
 NAtoms=     10 NQM=       10 NQMF=       0 NMMI=      0 NMMIF=      0
                NMic=       0 NMicF=      0.
                    Isotopes and Nuclear Properties:
 (Nuclear quadrupole moments (NQMom) in fm**2, nuclear magnetic moments (NMagM)
  in nuclear magnetons)

  Atom         1           2           3           4           5           6           7           8           9          10
 IAtWgt=          12          12          12          12           1           1           1           1           1           1
 AtmWgt=  12.0000000  12.0000000  12.0000000  12.0000000   1.0078250   1.0078250   1.0078250   1.0078250   1.0078250   1.0078250
 NucSpn=           0           0           0           0           1           1           1           1           1           1
 AtZEff=   0.0000000   0.0000000   0.0000000   0.0000000   0.0000000   0.0000000   0.0000000   0.0000000   0.0000000   0.0000000
 NQMom=    0.0000000   0.0000000   0.0000000   0.0000000   0.0000000   0.0000000   0.0000000   0.0000000   0.0000000   0.0000000
 NMagM=    0.0000000   0.0000000   0.0000000   0.0000000   2.7928460   2.7928460   2.7928460   2.7928460   2.7928460   2.7928460
 AtZNuc=   6.0000000   6.0000000   6.0000000   6.0000000   1.0000000   1.0000000   1.0000000   1.0000000   1.0000000   1.0000000
 Leave Link  101 at Wed Aug 26 13:56:53 2020, MaxMem=  2097152000 cpu:         0.5
 (Enter /opt/cluster/programs/g09/g09_d.01/g09/l202.exe)
                          Input orientation:                          
 ---------------------------------------------------------------------
 Center     Atomic      Atomic             Coordinates (Angstroms)
 Number     Number       Type             X           Y           Z
 ---------------------------------------------------------------------
      1          6           0       -3.852900    0.239847    0.008739
      2          6           0       -2.760203   -0.520190    0.052253
      3          6           0       -1.394538    0.018862    0.014134
      4          6           0       -0.220063   -0.626368    0.027725
      5          1           0       -4.848680   -0.194622   -0.066533
      6          1           0       -3.732533    1.374772   -0.065844
      7          1           0       -2.812319   -1.617174    0.316479
      8          1           0       -1.182415    1.189656    0.080333
      9          1           0       -0.172089   -1.662290   -0.181288
     10          1           0        0.702318   -0.063652    0.076796
 ---------------------------------------------------------------------
                    Distance matrix (angstroms):
                    1          2          3          4          5
     1  C    0.000000
     2  C    1.331742   0.000000
     3  C    2.468280   1.468697   0.000000
     4  C    3.734728   2.542476   1.340111   0.000000
     5  H    1.089039   2.117036   3.461673   4.649665   0.000000
     6  H    1.143724   2.133132   2.703906   4.043608   1.925820
     7  H    2.150823   1.129560   2.185893   2.790137   2.513388
     8  H    2.835269   2.326752   1.191695   2.055926   3.921644
     9  H    4.147602   2.838533   2.087784   1.057886   4.902828
    10  H    4.565825   3.492575   2.099414   1.081593   5.554392
                    6          7          8          9         10
     6  H    0.000000
     7  H    3.153523   0.000000
     8  H    2.561003   3.254327   0.000000
     9  H    4.681221   2.687121   3.036906   0.000000
    10  H    4.664474   3.850137   2.263407   1.840336   0.000000
 Stoichiometry    C4H6
 Framework group  C1[X(C4H6)]
 Deg. of freedom    24
 Full point group                 C1      NOp   1
 Largest Abelian subgroup         C1      NOp   1
 Largest concise Abelian subgroup C1      NOp   1
                         Standard orientation:                         
 ---------------------------------------------------------------------
 Center     Atomic      Atomic             Coordinates (Angstroms)
 Number     Number       Type             X           Y           Z
 ---------------------------------------------------------------------
      1          6           0       -1.855839    0.139459   -0.011006
      2          6           0       -0.650633   -0.426516    0.015191
      3          6           0        0.604608    0.335788   -0.003090
      4          6           0        1.871038   -0.102449   -0.003320
      5          1           0       -2.764248   -0.454297   -0.101855
      6          1           0       -1.928549    1.280077   -0.053543
      7          1           0       -0.516813   -1.523567    0.248593
      8          1           0        0.616467    1.523262    0.096422
      9          1           0        2.092652   -1.109205   -0.240917
     10          1           0        2.685453    0.606037    0.064650
 ---------------------------------------------------------------------
 Rotational constants (GHZ):     41.4490073      4.3290920      3.9289635
 Leave Link  202 at Wed Aug 26 13:56:53 2020, MaxMem=  2097152000 cpu:         0.0
 (Enter /opt/cluster/programs/g09/g09_d.01/g09/l301.exe)
 Standard basis: def2QZVP (5D, 7F)
 Ernie: Thresh=  0.10000D-02 Tol=  0.10000D-05 Strict=F.
 There are   498 symmetry adapted cartesian basis functions of A   symmetry.
 There are   408 symmetry adapted basis functions of A   symmetry.
   408 basis functions,   596 primitive gaussians,   498 cartesian basis functions
    15 alpha electrons       15 beta electrons
       nuclear repulsion energy       102.6886196941 Hartrees.
 IExCor=  419 DFT=T Ex+Corr=B2PLYPD3 ExCW=0 ScaHFX=  0.530000
 ScaDFX=  0.470000  0.470000  0.730000  0.730000 ScalE2=  0.270000  0.270000
 IRadAn=      0 IRanWt=     -1 IRanGd=            0 ICorTp=0 IEmpDi=141
 NAtoms=   10 NActive=   10 NUniq=   10 SFac= 1.00D+00 NAtFMM=   60 NAOKFM=F Big=F
 Integral buffers will be    131072 words long.
 Regular integral format.
 Two-electron integral symmetry is turned on.
 R6Disp:  Grimme-D3(BJ) Dispersion energy=       -0.0047844098 Hartrees.
 Nuclear repulsion after empirical dispersion term =      102.6838352844 Hartrees.
 Leave Link  301 at Wed Aug 26 13:56:54 2020, MaxMem=  2097152000 cpu:         0.4
 (Enter /opt/cluster/programs/g09/g09_d.01/g09/l302.exe)
 NPDir=0 NMtPBC=     1 NCelOv=     1 NCel=       1 NClECP=     1 NCelD=      1
         NCelK=      1 NCelE2=     1 NClLst=     1 CellRange=     0.0.
 One-electron integrals computed using PRISM.
   1 Symmetry operations used in ECPInt.
 ECPInt:  NShTT=    8256 NPrTT=   19107 LenC2=    8052 LenP2D=   16054.
 LDataN:  DoStor=T MaxTD1= 8 Len=  415
 NBasis=   408 RedAO= T EigKep=  4.96D-05  NBF=   408
 NBsUse=   408 1.00D-06 EigRej= -1.00D+00 NBFU=   408
 Precomputing XC quadrature grid using
 IXCGrd= 4 IRadAn=           0 IRanWt=          -1 IRanGd=           0 AccXCQ= 0.00D+00.
 Generated NRdTot=       0 NPtTot=           0 NUsed=           0 NTot=          32
 NSgBfM=   498   498   498   498   498 MxSgAt=    10 MxSgA2=    10.
 Leave Link  302 at Wed Aug 26 13:56:54 2020, MaxMem=  2097152000 cpu:         3.1
 (Enter /opt/cluster/programs/g09/g09_d.01/g09/l303.exe)
 DipDrv:  MaxL=1.
 Leave Link  303 at Wed Aug 26 13:56:54 2020, MaxMem=  2097152000 cpu:         0.3
 (Enter /opt/cluster/programs/g09/g09_d.01/g09/l401.exe)
 ExpMin= 7.60D-02 ExpMax= 6.70D+04 ExpMxC= 6.47D+02 IAcc=2 IRadAn=         4 AccDes= 0.00D+00
 Harris functional with IExCor=  419 and IRadAn=       4 diagonalized for initial guess.
 HarFok:  IExCor=  419 AccDes= 0.00D+00 IRadAn=         4 IDoV= 1 UseB2=F ITyADJ=14
 ICtDFT=  3500011 ScaDFX=  1.000000  1.000000  1.000000  1.000000
 FoFCou: FMM=F IPFlag=           0 FMFlag=      100000 FMFlg1=           0
         NFxFlg=           0 DoJE=T BraDBF=F KetDBF=T FulRan=T
         wScrn=  0.000000 ICntrl=     500 IOpCl=  0 I1Cent=   200000004 NGrid=           0
         NMat0=    1 NMatS0=      1 NMatT0=    0 NMatD0=    1 NMtDS0=    0 NMtDT0=    0
 Petite list used in FoFCou.
 Harris En= -156.108865657361    
 JPrj=0 DoOrth=F DoCkMO=F.
 Leave Link  401 at Wed Aug 26 13:56:55 2020, MaxMem=  2097152000 cpu:         8.1
 (Enter /opt/cluster/programs/g09/g09_d.01/g09/l502.exe)
 Closed shell SCF:
 Using DIIS extrapolation, IDIIS=  1040.
 Integral symmetry usage will be decided dynamically.
 IVT=      770090 IEndB=      770090 NGot=  2097152000 MDV=  2096647053
 LenX=  2096647053 LenY=  2096398551
 Requested convergence on RMS density matrix=1.00D-08 within 128 cycles.
 Requested convergence on MAX density matrix=1.00D-06.
 Requested convergence on             energy=1.00D-06.
 No special actions if energy rises.
 Fock matrices will be formed incrementally for  20 cycles.
 Integral accuracy reduced to 1.0D-05 until final iterations.

 Cycle   1  Pass 0  IDiag  1:
 FoFJK:  IHMeth= 1 ICntrl=       0 DoSepK=F KAlg= 0 I1Cent=   0 FoldK=F
 IRaf= 940000000 NMat=   1 IRICut=       1 DoRegI=T DoRafI=F ISym2E= 0.
 FoFCou: FMM=F IPFlag=           0 FMFlag=      100000 FMFlg1=           0
         NFxFlg=           0 DoJE=F BraDBF=F KetDBF=F FulRan=T
         wScrn=  0.000000 ICntrl=       0 IOpCl=  0 I1Cent=           0 NGrid=           0
         NMat0=    1 NMatS0=      1 NMatT0=    0 NMatD0=    1 NMtDS0=    0 NMtDT0=    0
 Symmetry not used in FoFCou.
 E= -155.498901392024    
 DIIS: error= 3.01D-02 at cycle   1 NSaved=   1.
 NSaved= 1 IEnMin= 1 EnMin= -155.498901392024     IErMin= 1 ErrMin= 3.01D-02
 ErrMax= 3.01D-02  0.00D+00 EMaxC= 1.00D-01 BMatC= 2.47D-01 BMatP= 2.47D-01
 IDIUse=3 WtCom= 6.99D-01 WtEn= 3.01D-01
 Coeff-Com:  0.100D+01
 Coeff-En:   0.100D+01
 Coeff:      0.100D+01
 Gap=     0.297 Goal=   None    Shift=    0.000
 GapD=    0.297 DampG=1.000 DampE=0.500 DampFc=0.5000 IDamp=-1.
 Damping current iteration by 5.00D-01
 RMSDP=9.78D-04 MaxDP=5.77D-02              OVMax= 1.92D-01

 Cycle   2  Pass 0  IDiag  1:
 RMSU=  4.49D-04    CP:  9.49D-01
 E= -155.595609190576     Delta-E=       -0.096707798553 Rises=F Damp=T
 DIIS: error= 9.28D-03 at cycle   2 NSaved=   2.
 NSaved= 2 IEnMin= 2 EnMin= -155.595609190576     IErMin= 2 ErrMin= 9.28D-03
 ErrMax= 9.28D-03  0.00D+00 EMaxC= 1.00D-01 BMatC= 2.89D-02 BMatP= 2.47D-01
 IDIUse=3 WtCom= 9.07D-01 WtEn= 9.28D-02
 Coeff-Com: -0.292D+00 0.129D+01
 Coeff-En:   0.000D+00 0.100D+01
 Coeff:     -0.265D+00 0.127D+01
 Gap=     0.355 Goal=   None    Shift=    0.000
 RMSDP=2.76D-04 MaxDP=9.18D-03 DE=-9.67D-02 OVMax= 9.23D-02

 Cycle   3  Pass 0  IDiag  1:
 RMSU=  2.67D-04    CP:  9.31D-01  1.04D+00
 E= -155.679330226495     Delta-E=       -0.083721035919 Rises=F Damp=F
 DIIS: error= 3.98D-03 at cycle   3 NSaved=   3.
 NSaved= 3 IEnMin= 3 EnMin= -155.679330226495     IErMin= 3 ErrMin= 3.98D-03
 ErrMax= 3.98D-03  0.00D+00 EMaxC= 1.00D-01 BMatC= 1.68D-03 BMatP= 2.89D-02
 IDIUse=3 WtCom= 9.60D-01 WtEn= 3.98D-02
 Coeff-Com: -0.110D+00 0.205D+00 0.904D+00
 Coeff-En:   0.000D+00 0.000D+00 0.100D+01
 Coeff:     -0.105D+00 0.197D+00 0.908D+00
 Gap=     0.293 Goal=   None    Shift=    0.000
 RMSDP=6.76D-05 MaxDP=3.83D-03 DE=-8.37D-02 OVMax= 1.80D-02

 Cycle   4  Pass 0  IDiag  1:
 RMSU=  4.63D-05    CP:  9.27D-01  1.14D+00  9.54D-01
 E= -155.680751209422     Delta-E=       -0.001420982927 Rises=F Damp=F
 DIIS: error= 2.30D-03 at cycle   4 NSaved=   4.
 NSaved= 4 IEnMin= 4 EnMin= -155.680751209422     IErMin= 4 ErrMin= 2.30D-03
 ErrMax= 2.30D-03  0.00D+00 EMaxC= 1.00D-01 BMatC= 4.25D-04 BMatP= 1.68D-03
 IDIUse=3 WtCom= 9.77D-01 WtEn= 2.30D-02
 Coeff-Com: -0.521D-01 0.845D-01 0.480D+00 0.487D+00
 Coeff-En:   0.000D+00 0.000D+00 0.436D-01 0.956D+00
 Coeff:     -0.509D-01 0.826D-01 0.470D+00 0.498D+00
 Gap=     0.293 Goal=   None    Shift=    0.000
 RMSDP=2.60D-05 MaxDP=1.22D-03 DE=-1.42D-03 OVMax= 7.70D-03

 Cycle   5  Pass 0  IDiag  1:
 RMSU=  1.53D-05    CP:  9.27D-01  1.13D+00  9.92D-01  6.14D-01
 E= -155.681168814278     Delta-E=       -0.000417604857 Rises=F Damp=F
 DIIS: error= 2.64D-04 at cycle   5 NSaved=   5.
 NSaved= 5 IEnMin= 5 EnMin= -155.681168814278     IErMin= 5 ErrMin= 2.64D-04
 ErrMax= 2.64D-04  0.00D+00 EMaxC= 1.00D-01 BMatC= 5.25D-06 BMatP= 4.25D-04
 IDIUse=3 WtCom= 9.97D-01 WtEn= 2.64D-03
 Coeff-Com: -0.217D-02 0.135D-02 0.304D-01 0.110D+00 0.860D+00
 Coeff-En:   0.000D+00 0.000D+00 0.000D+00 0.000D+00 0.100D+01
 Coeff:     -0.217D-02 0.135D-02 0.303D-01 0.110D+00 0.860D+00
 Gap=     0.293 Goal=   None    Shift=    0.000
 RMSDP=4.46D-06 MaxDP=1.51D-04 DE=-4.18D-04 OVMax= 1.10D-03

 Initial convergence to 1.0D-05 achieved.  Increase integral accuracy.
 Cycle   6  Pass 1  IDiag  1:
 E= -155.681171581234     Delta-E=       -0.000002766956 Rises=F Damp=F
 DIIS: error= 4.17D-05 at cycle   1 NSaved=   1.
 NSaved= 1 IEnMin= 1 EnMin= -155.681171581234     IErMin= 1 ErrMin= 4.17D-05
 ErrMax= 4.17D-05  0.00D+00 EMaxC= 1.00D-01 BMatC= 4.21D-07 BMatP= 4.21D-07
 IDIUse=1 WtCom= 1.00D+00 WtEn= 0.00D+00
 Coeff-Com:  0.100D+01
 Coeff:      0.100D+01
 Gap=     0.293 Goal=   None    Shift=    0.000
 RMSDP=4.46D-06 MaxDP=1.51D-04 DE=-2.77D-06 OVMax= 4.33D-04

 Cycle   7  Pass 1  IDiag  1:
 RMSU=  1.65D-05    CP:  1.00D+00
 E= -155.681171877933     Delta-E=       -0.000000296699 Rises=F Damp=F
 DIIS: error= 2.04D-05 at cycle   2 NSaved=   2.
 NSaved= 2 IEnMin= 2 EnMin= -155.681171877933     IErMin= 2 ErrMin= 2.04D-05
 ErrMax= 2.04D-05  0.00D+00 EMaxC= 1.00D-01 BMatC= 7.30D-08 BMatP= 4.21D-07
 IDIUse=1 WtCom= 1.00D+00 WtEn= 0.00D+00
 Coeff-Com:  0.195D+00 0.805D+00
 Coeff:      0.195D+00 0.805D+00
 Gap=     0.293 Goal=   None    Shift=    0.000
 RMSDP=8.08D-07 MaxDP=3.63D-05 DE=-2.97D-07 OVMax= 1.81D-04

 Cycle   8  Pass 1  IDiag  1:
 RMSU=  6.68D-07    CP:  1.00D+00  1.03D+00
 E= -155.681171919768     Delta-E=       -0.000000041836 Rises=F Damp=F
 DIIS: error= 1.91D-05 at cycle   3 NSaved=   3.
 NSaved= 3 IEnMin= 3 EnMin= -155.681171919768     IErMin= 3 ErrMin= 1.91D-05
 ErrMax= 1.91D-05  0.00D+00 EMaxC= 1.00D-01 BMatC= 3.52D-08 BMatP= 7.30D-08
 IDIUse=1 WtCom= 1.00D+00 WtEn= 0.00D+00
 Coeff-Com: -0.162D-01 0.406D+00 0.611D+00
 Coeff:     -0.162D-01 0.406D+00 0.611D+00
 Gap=     0.293 Goal=   None    Shift=    0.000
 RMSDP=2.98D-07 MaxDP=1.48D-05 DE=-4.18D-08 OVMax= 1.23D-04

 Cycle   9  Pass 1  IDiag  1:
 RMSU=  2.38D-07    CP:  1.00D+00  1.04D+00  8.35D-01
 E= -155.681171959457     Delta-E=       -0.000000039689 Rises=F Damp=F
 DIIS: error= 2.81D-06 at cycle   4 NSaved=   4.
 NSaved= 4 IEnMin= 4 EnMin= -155.681171959457     IErMin= 4 ErrMin= 2.81D-06
 ErrMax= 2.81D-06  0.00D+00 EMaxC= 1.00D-01 BMatC= 7.25D-10 BMatP= 3.52D-08
 IDIUse=1 WtCom= 1.00D+00 WtEn= 0.00D+00
 Coeff-Com: -0.115D-01 0.148D-01 0.125D+00 0.872D+00
 Coeff:     -0.115D-01 0.148D-01 0.125D+00 0.872D+00
 Gap=     0.293 Goal=   None    Shift=    0.000
 RMSDP=6.57D-08 MaxDP=2.48D-06 DE=-3.97D-08 OVMax= 1.42D-05

 Cycle  10  Pass 1  IDiag  1:
 RMSU=  4.84D-08    CP:  1.00D+00  1.04D+00  8.89D-01  1.09D+00
 E= -155.681171960454     Delta-E=       -0.000000000997 Rises=F Damp=F
 DIIS: error= 5.84D-07 at cycle   5 NSaved=   5.
 NSaved= 5 IEnMin= 5 EnMin= -155.681171960454     IErMin= 5 ErrMin= 5.84D-07
 ErrMax= 5.84D-07  0.00D+00 EMaxC= 1.00D-01 BMatC= 7.80D-11 BMatP= 7.25D-10
 IDIUse=1 WtCom= 1.00D+00 WtEn= 0.00D+00
 Coeff-Com: -0.815D-03-0.469D-01-0.259D-01 0.193D+00 0.881D+00
 Coeff:     -0.815D-03-0.469D-01-0.259D-01 0.193D+00 0.881D+00
 Gap=     0.293 Goal=   None    Shift=    0.000
 RMSDP=2.87D-08 MaxDP=1.31D-06 DE=-9.97D-10 OVMax= 7.77D-06

 Cycle  11  Pass 1  IDiag  1:
 RMSU=  1.90D-08    CP:  1.00D+00  1.04D+00  9.12D-01  1.13D+00  1.22D+00
 E= -155.681171960574     Delta-E=       -0.000000000119 Rises=F Damp=F
 DIIS: error= 4.03D-07 at cycle   6 NSaved=   6.
 NSaved= 6 IEnMin= 6 EnMin= -155.681171960574     IErMin= 6 ErrMin= 4.03D-07
 ErrMax= 4.03D-07  0.00D+00 EMaxC= 1.00D-01 BMatC= 1.75D-11 BMatP= 7.80D-11
 IDIUse=1 WtCom= 1.00D+00 WtEn= 0.00D+00
 Coeff-Com:  0.833D-03-0.242D-01-0.223D-01-0.450D-02 0.412D+00 0.638D+00
 Coeff:      0.833D-03-0.242D-01-0.223D-01-0.450D-02 0.412D+00 0.638D+00
 Gap=     0.293 Goal=   None    Shift=    0.000
 RMSDP=7.21D-09 MaxDP=3.67D-07 DE=-1.19D-10 OVMax= 1.91D-06

 SCF Done:  E(RB2PLYPD3) =  -155.681171961     A.U. after   11 cycles
            NFock= 11  Conv=0.72D-08     -V/T= 2.0054
 KE= 1.548467789906D+02 PE=-5.660439231907D+02 EE= 1.528321369552D+02
 Leave Link  502 at Wed Aug 26 13:59:29 2020, MaxMem=  2097152000 cpu:      1227.3
 (Enter /opt/cluster/programs/g09/g09_d.01/g09/l801.exe)
 DoSCS=T DFT=T ScalE2(SS,OS)=  0.270000  0.270000
 ExpMin= 7.60D-02 ExpMax= 6.70D+04 ExpMxC= 6.47D+02 IAcc=3 IRadAn=         5 AccDes= 0.00D+00
 HarFok:  IExCor=  205 AccDes= 0.00D+00 IRadAn=         5 IDoV=-2 UseB2=F ITyADJ=14
 ICtDFT= 12500011 ScaDFX=  1.000000  1.000000  1.000000  1.000000
 Largest valence mixing into a core orbital is  1.14D-04
 Largest core mixing into a valence orbital is  2.09D-05
 Range of M.O.s used for correlation:     5   408
 NBasis=   408 NAE=    15 NBE=    15 NFC=     4 NFV=     0
 NROrb=    404 NOA=    11 NOB=    11 NVA=   393 NVB=   393

 **** Warning!!: The largest alpha MO coefficient is  0.25801510D+02

 Leave Link  801 at Wed Aug 26 13:59:29 2020, MaxMem=  2097152000 cpu:         0.9
 (Enter /opt/cluster/programs/g09/g09_d.01/g09/l906.exe)
 DoSCS=T DFT=T ScalE2(SS,OS)=  0.270000  0.270000
 FulOut=F Deriv=F AODrv=F NAtomX=    10
   MMem=         881  MDisk=          11 MDiskD=          11
  W3Min=     2152854 MinDsk=     3857222 NBas6D=         498
 NBas2D=      125763    NTT=      124251    LW2=     4508827
    MDV=  2096385332 MDiskM=        9345 NBas2p=      116872
 Fully direct method using O(OVN) memory.
 IMap=   1   2   3   4   5   6   7   8   9  10  11
 JobTyp=1 Pass  1:  I=   1 to  11 NPSUse=  8 ParTrn=T ParDer=T DoDerP=F.
 Spin components of T(2) and E(2):
     alpha-alpha T2 =       0.4298047889D-01 E2=     -0.2556184528D-01
     alpha-beta  T2 =       0.2797729363D+00 E2=     -0.1762409730D+00
     beta-beta   T2 =       0.4298047889D-01 E2=     -0.2556184528D-01
 The integrals were generated   1 times.
 E2(B2PLYPD3) =    -0.2273646636D+00 E(B2PLYPD3) =    -0.15590853662415D+03
 Leave Link  906 at Wed Aug 26 14:01:01 2020, MaxMem=  2097152000 cpu:       729.8
 (Enter /opt/cluster/programs/g09/g09_d.01/g09/l601.exe)
 Copying SCF densities to generalized density rwf, IOpCl= 0 IROHF=0.

 **********************************************************************

            Population analysis using the SCF density.

 **********************************************************************

 Orbital symmetries:
       Occupied  (A) (A) (A) (A) (A) (A) (A) (A) (A) (A) (A) (A)
                 (A) (A) (A)
       Virtual   (A) (A) (A) (A) (A) (A) (A) (A) (A) (A) (A) (A)
                 (A) (A) (A) (A) (A) (A) (A) (A) (A) (A) (A) (A)
                 (A) (A) (A) (A) (A) (A) (A) (A) (A) (A) (A) (A)
                 (A) (A) (A) (A) (A) (A) (A) (A) (A) (A) (A) (A)
                 (A) (A) (A) (A) (A) (A) (A) (A) (A) (A) (A) (A)
                 (A) (A) (A) (A) (A) (A) (A) (A) (A) (A) (A) (A)
                 (A) (A) (A) (A) (A) (A) (A) (A) (A) (A) (A) (A)
                 (A) (A) (A) (A) (A) (A) (A) (A) (A) (A) (A) (A)
                 (A) (A) (A) (A) (A) (A) (A) (A) (A) (A) (A) (A)
                 (A) (A) (A) (A) (A) (A) (A) (A) (A) (A) (A) (A)
                 (A) (A) (A) (A) (A) (A) (A) (A) (A) (A) (A) (A)
                 (A) (A) (A) (A) (A) (A) (A) (A) (A) (A) (A) (A)
                 (A) (A) (A) (A) (A) (A) (A) (A) (A) (A) (A) (A)
                 (A) (A) (A) (A) (A) (A) (A) (A) (A) (A) (A) (A)
                 (A) (A) (A) (A) (A) (A) (A) (A) (A) (A) (A) (A)
                 (A) (A) (A) (A) (A) (A) (A) (A) (A) (A) (A) (A)
                 (A) (A) (A) (A) (A) (A) (A) (A) (A) (A) (A) (A)
                 (A) (A) (A) (A) (A) (A) (A) (A) (A) (A) (A) (A)
                 (A) (A) (A) (A) (A) (A) (A) (A) (A) (A) (A) (A)
                 (A) (A) (A) (A) (A) (A) (A) (A) (A) (A) (A) (A)
                 (A) (A) (A) (A) (A) (A) (A) (A) (A) (A) (A) (A)
                 (A) (A) (A) (A) (A) (A) (A) (A) (A) (A) (A) (A)
                 (A) (A) (A) (A) (A) (A) (A) (A) (A) (A) (A) (A)
                 (A) (A) (A) (A) (A) (A) (A) (A) (A) (A) (A) (A)
                 (A) (A) (A) (A) (A) (A) (A) (A) (A) (A) (A) (A)
                 (A) (A) (A) (A) (A) (A) (A) (A) (A) (A) (A) (A)
                 (A) (A) (A) (A) (A) (A) (A) (A) (A) (A) (A) (A)
                 (A) (A) (A) (A) (A) (A) (A) (A) (A) (A) (A) (A)
                 (A) (A) (A) (A) (A) (A) (A) (A) (A) (A) (A) (A)
                 (A) (A) (A) (A) (A) (A) (A) (A) (A) (A) (A) (A)
                 (A) (A) (A) (A) (A) (A) (A) (A) (A) (A) (A) (A)
                 (A) (A) (A) (A) (A) (A) (A) (A) (A) (A) (A) (A)
                 (A) (A) (A) (A) (A) (A) (A) (A) (A)
 The electronic state is 1-A.
 Alpha  occ. eigenvalues --  -10.63682 -10.63617 -10.62669 -10.61237  -0.92443
 Alpha  occ. eigenvalues --   -0.85130  -0.69844  -0.62265  -0.54336  -0.53698
 Alpha  occ. eigenvalues --   -0.46989  -0.44419  -0.40243  -0.37538  -0.27931
 Alpha virt. eigenvalues --    0.01387   0.06837   0.07177   0.07686   0.09325
 Alpha virt. eigenvalues --    0.11491   0.12261   0.14320   0.15170   0.16423
 Alpha virt. eigenvalues --    0.18664   0.19617   0.21158   0.22256   0.24165
 Alpha virt. eigenvalues --    0.26380   0.26752   0.29237   0.30555   0.33254
 Alpha virt. eigenvalues --    0.33762   0.35358   0.36837   0.37361   0.38351
 Alpha virt. eigenvalues --    0.41277   0.42493   0.44963   0.45402   0.47966
 Alpha virt. eigenvalues --    0.48077   0.50747   0.52194   0.52856   0.56952
 Alpha virt. eigenvalues --    0.59882   0.63556   0.65217   0.66049   0.67885
 Alpha virt. eigenvalues --    0.68609   0.70690   0.74587   0.76736   0.77892
 Alpha virt. eigenvalues --    0.78612   0.80139   0.82185   0.82655   0.83492
 Alpha virt. eigenvalues --    0.84498   0.85774   0.86724   0.87906   0.90898
 Alpha virt. eigenvalues --    0.91745   0.92331   0.93938   0.94759   0.96618
 Alpha virt. eigenvalues --    0.97832   0.98975   1.00042   1.03036   1.05111
 Alpha virt. eigenvalues --    1.05774   1.06180   1.08996   1.10443   1.11414
 Alpha virt. eigenvalues --    1.12107   1.14297   1.17486   1.20783   1.22795
 Alpha virt. eigenvalues --    1.24200   1.26325   1.29866   1.34227   1.35054
 Alpha virt. eigenvalues --    1.37648   1.39541   1.46518   1.52333   1.60068
 Alpha virt. eigenvalues --    1.61713   1.64411   1.66016   1.66872   1.74068
 Alpha virt. eigenvalues --    1.77054   1.82054   1.83583   1.84791   1.87420
 Alpha virt. eigenvalues --    1.90014   1.90578   1.91980   1.94664   1.95911
 Alpha virt. eigenvalues --    1.96089   1.97047   2.00016   2.01078   2.01774
 Alpha virt. eigenvalues --    2.05484   2.05740   2.07466   2.08906   2.09343
 Alpha virt. eigenvalues --    2.10155   2.12634   2.14454   2.18185   2.18612
 Alpha virt. eigenvalues --    2.19183   2.22314   2.24433   2.26069   2.27541
 Alpha virt. eigenvalues --    2.29504   2.32053   2.35900   2.36371   2.39438
 Alpha virt. eigenvalues --    2.42406   2.43183   2.44666   2.45729   2.47355
 Alpha virt. eigenvalues --    2.50500   2.51737   2.53286   2.56068   2.56808
 Alpha virt. eigenvalues --    2.58401   2.59356   2.60473   2.60957   2.63239
 Alpha virt. eigenvalues --    2.65252   2.68214   2.68581   2.69370   2.70805
 Alpha virt. eigenvalues --    2.72794   2.75012   2.76991   2.78716   2.79615
 Alpha virt. eigenvalues --    2.83234   2.85402   2.86677   2.89949   2.91103
 Alpha virt. eigenvalues --    2.92265   2.96657   2.98037   3.03995   3.07115
 Alpha virt. eigenvalues --    3.09155   3.10586   3.22348   3.26561   3.28393
 Alpha virt. eigenvalues --    3.31353   3.34637   3.35305   3.41063   3.42689
 Alpha virt. eigenvalues --    3.45341   3.47000   3.48086   3.51653   3.52791
 Alpha virt. eigenvalues --    3.54423   3.57415   3.61069   3.63261   3.70964
 Alpha virt. eigenvalues --    3.72884   3.78890   3.81680   3.86031   3.86581
 Alpha virt. eigenvalues --    3.90600   3.93114   3.98830   4.05500   4.09206
 Alpha virt. eigenvalues --    4.12926   4.17744   4.19608   4.23356   4.36101
 Alpha virt. eigenvalues --    4.42677   4.50966   4.57657   4.75409   4.98771
 Alpha virt. eigenvalues --    5.01538   5.02942   5.06035   5.08790   5.09937
 Alpha virt. eigenvalues --    5.14380   5.17776   5.23353   5.27411   5.31023
 Alpha virt. eigenvalues --    5.33197   5.36059   5.37318   5.44060   5.45840
 Alpha virt. eigenvalues --    5.54135   5.55386   5.58462   5.60406   5.64165
 Alpha virt. eigenvalues --    5.69067   5.69601   5.70896   5.73351   5.73424
 Alpha virt. eigenvalues --    5.76708   5.78181   5.80205   5.83616   5.84686
 Alpha virt. eigenvalues --    5.88451   5.91588   5.93187   5.96006   5.99144
 Alpha virt. eigenvalues --    6.00313   6.03152   6.05164   6.07620   6.10694
 Alpha virt. eigenvalues --    6.11019   6.13930   6.14136   6.15585   6.15741
 Alpha virt. eigenvalues --    6.17160   6.19048   6.20738   6.23561   6.24626
 Alpha virt. eigenvalues --    6.28405   6.30235   6.32782   6.36205   6.36864
 Alpha virt. eigenvalues --    6.38349   6.40221   6.42994   6.43944   6.46138
 Alpha virt. eigenvalues --    6.47668   6.47961   6.52628   6.54330   6.56792
 Alpha virt. eigenvalues --    6.58209   6.60450   6.63878   6.67529   6.71612
 Alpha virt. eigenvalues --    6.74086   6.81001   6.83005   6.84790   6.88395
 Alpha virt. eigenvalues --    6.89265   6.91956   6.93898   6.94589   7.03416
 Alpha virt. eigenvalues --    7.06138   7.09946   7.10273   7.16092   7.22424
 Alpha virt. eigenvalues --    7.24063   7.27291   7.28379   7.31256   7.32835
 Alpha virt. eigenvalues --    7.40615   7.41503   7.45499   7.47188   7.52219
 Alpha virt. eigenvalues --    7.54102   7.57921   7.61372   7.63465   7.65365
 Alpha virt. eigenvalues --    7.66894   7.69252   7.71440   7.73087   7.73695
 Alpha virt. eigenvalues --    7.76281   7.79279   7.80903   7.85316   7.88360
 Alpha virt. eigenvalues --    7.90317   7.93684   7.96898   8.02629   8.05978
 Alpha virt. eigenvalues --    8.10007   8.11064   8.12329   8.14469   8.17832
 Alpha virt. eigenvalues --    8.23519   8.24958   8.25245   8.28648   8.31321
 Alpha virt. eigenvalues --    8.33437   8.34556   8.35963   8.37914   8.40490
 Alpha virt. eigenvalues --    8.41847   8.46527   8.47714   8.51708   8.53426
 Alpha virt. eigenvalues --    8.55030   8.57636   8.58144   8.62025   8.64430
 Alpha virt. eigenvalues --    8.66808   8.72341   8.74996   8.76944   8.80402
 Alpha virt. eigenvalues --    8.83419   8.86864   8.91179   8.95901   8.99659
 Alpha virt. eigenvalues --    9.09954   9.10565   9.21156   9.25284   9.35757
 Alpha virt. eigenvalues --    9.42009   9.49379   9.54772   9.57433   9.61406
 Alpha virt. eigenvalues --    9.67095   9.70476   9.76406   9.81479   9.91415
 Alpha virt. eigenvalues --    9.95761  10.00429  10.05358  10.09693  10.12986
 Alpha virt. eigenvalues --   10.22827  10.29826  10.47243  10.68797  10.73282
 Alpha virt. eigenvalues --   10.85952  11.07050  11.23764  11.29912  11.77710
 Alpha virt. eigenvalues --   11.96600  12.31742  12.67475  12.93601  13.21566
 Alpha virt. eigenvalues --   28.49901  28.72391  29.39959  29.54964 148.09167
 Alpha virt. eigenvalues --  148.29287 148.98939 149.14678
          Condensed to atoms (all electrons):
               1          2          3          4          5          6
     1  C    4.839558   0.611932  -0.078635  -0.002004   0.421106   0.419179
     2  C    0.611932   4.864579   0.384006  -0.071544  -0.045851  -0.045212
     3  C   -0.078635   0.384006   4.861494   0.601694   0.007316  -0.008333
     4  C   -0.002004  -0.071544   0.601694   4.854677  -0.000554   0.000430
     5  H    0.421106  -0.045851   0.007316  -0.000554   0.573634  -0.040269
     6  H    0.419179  -0.045212  -0.008333   0.000430  -0.040269   0.593429
     7  H   -0.045167   0.405381  -0.058102   0.001585  -0.008039   0.007246
     8  H   -0.002745  -0.054143   0.404615  -0.054937  -0.000083   0.004750
     9  H    0.000079  -0.005049  -0.053316   0.420026  -0.000017   0.000077
    10  H   -0.000502   0.006690  -0.046963   0.433000   0.000025  -0.000066
               7          8          9         10
     1  C   -0.045167  -0.002745   0.000079  -0.000502
     2  C    0.405381  -0.054143  -0.005049   0.006690
     3  C   -0.058102   0.404615  -0.053316  -0.046963
     4  C    0.001585  -0.054937   0.420026   0.433000
     5  H   -0.008039  -0.000083  -0.000017   0.000025
     6  H    0.007246   0.004750   0.000077  -0.000066
     7  H    0.621968   0.006444   0.004666  -0.000362
     8  H    0.006444   0.671233   0.010400  -0.016181
     9  H    0.004666   0.010400   0.600403  -0.045640
    10  H   -0.000362  -0.016181  -0.045640   0.585157
 Mulliken charges:
               1
     1  C   -0.162802
     2  C   -0.050790
     3  C   -0.013776
     4  C   -0.182374
     5  H    0.092731
     6  H    0.068769
     7  H    0.064380
     8  H    0.030648
     9  H    0.068371
    10  H    0.084842
 Sum of Mulliken charges =   0.00000
 Mulliken charges with hydrogens summed into heavy atoms:
               1
     1  C   -0.001301
     2  C    0.013590
     3  C    0.016872
     4  C   -0.029161
 Electronic spatial extent (au):  <R**2>=            342.9705
 Charge=              0.0000 electrons
 Dipole moment (field-independent basis, Debye):
    X=             -0.0934    Y=             -0.0593    Z=             -0.0169  Tot=              0.1119
 Quadrupole moment (field-independent basis, Debye-Ang):
   XX=            -23.3899   YY=            -23.4305   ZZ=            -29.3571
   XY=              0.2393   XZ=              0.0168   YZ=              0.1162
 Traceless Quadrupole moment (field-independent basis, Debye-Ang):
   XX=              2.0026   YY=              1.9620   ZZ=             -3.9646
   XY=              0.2393   XZ=              0.0168   YZ=              0.1162
 Octapole moment (field-independent basis, Debye-Ang**2):
  XXX=             -0.6747  YYY=             -0.0635  ZZZ=             -0.0687  XYY=              0.2808
  XXY=              0.1647  XXZ=             -1.1425  XZZ=              0.0732  YZZ=             -0.3990
  YYZ=              0.4228  XYZ=              0.8731
 Hexadecapole moment (field-independent basis, Debye-Ang**3):
 XXXX=           -353.2266 YYYY=            -68.7078 ZZZZ=            -37.6258 XXXY=              8.0935
 XXXZ=              2.1092 YYYX=             -1.0100 YYYZ=             -0.1500 ZZZX=             -0.1837
 ZZZY=              0.1506 XXYY=            -70.2108 XXZZ=            -78.6055 YYZZ=            -19.8118
 XXYZ=              2.0402 YYXZ=             -0.6688 ZZXY=             -0.4301
 N-N= 1.026838352844D+02 E-N=-5.660439074037D+02  KE= 1.548467789906D+02
 Leave Link  601 at Wed Aug 26 14:01:01 2020, MaxMem=  2097152000 cpu:         0.7
 (Enter /opt/cluster/programs/g09/g09_d.01/g09/l9999.exe)
 1\1\GINC-NODE22\SP\RB2PLYPD3-FC\def2QZVP\C4H6\BOITTIER\26-Aug-2020\0\\
 #p B2PLYPD3/Def2QZVP\\butadiene\\0,1\C,0,-3.8529,0.239847,0.008739\C,0
 ,-2.760203,-0.52019,0.052253\C,0,-1.394538,0.018862,0.014134\C,0,-0.22
 0063,-0.626368,0.027725\H,0,-4.84868,-0.194622,-0.066533\H,0,-3.732533
 ,1.374772,-0.065844\H,0,-2.812319,-1.617174,0.316479\H,0,-1.182415,1.1
 89656,0.080333\H,0,-0.172089,-1.66229,-0.181288\H,0,0.702318,-0.063652
 ,0.076796\\Version=ES64L-G09RevD.01\State=1-A\HF=-155.681172\MP2=-155.
 9085366\RMSD=7.212e-09\PG=C01 [X(C4H6)]\\@


 THERE IS SOMETHING FASCINATING ABOUT SCIENCE.
 ONE GETS SUCH WHOLESALE CONJECTURE OUT OF SUCH TRIFLING INVESTMENTS.

                                                       -- MARK TWAIN
 Job cpu time:       0 days  0 hours 32 minutes 52.3 seconds.
 File lengths (MBytes):  RWF=     92 Int=      0 D2E=      0 Chk=      9 Scr=      1
 Normal termination of Gaussian 09 at Wed Aug 26 14:01:01 2020.
