 Entering Gaussian System, Link 0=/opt/cluster/programs/g09/g09_d.01/g09//g09
 Input=/home/boittier/MDCM/nms_sampling/butadiene_geom.xyz.dir/energies/butadiene_97_energy.com
 Output=/scratch/boittier/butadiene_97_energy/butadiene_97_energy.out
 Initial command:
 /opt/cluster/programs/g09/g09_d.01/g09/l1.exe "/scratch/boittier/butadiene_97_energy/Gau-225655.inp" -scrdir="/scratch/boittier/butadiene_97_energy/"
 Entering Link 1 = /opt/cluster/programs/g09/g09_d.01/g09/l1.exe PID=    225656.
  
 Copyright (c) 1988,1990,1992,1993,1995,1998,2003,2009,2013,
            Gaussian, Inc.  All Rights Reserved.
  
 This is part of the Gaussian(R) 09 program.  It is based on
 the Gaussian(R) 03 system (copyright 2003, Gaussian, Inc.),
 the Gaussian(R) 98 system (copyright 1998, Gaussian, Inc.),
 the Gaussian(R) 94 system (copyright 1995, Gaussian, Inc.),
 the Gaussian 92(TM) system (copyright 1992, Gaussian, Inc.),
 the Gaussian 90(TM) system (copyright 1990, Gaussian, Inc.),
 the Gaussian 88(TM) system (copyright 1988, Gaussian, Inc.),
 the Gaussian 86(TM) system (copyright 1986, Carnegie Mellon
 University), and the Gaussian 82(TM) system (copyright 1983,
 Carnegie Mellon University). Gaussian is a federally registered
 trademark of Gaussian, Inc.
  
 This software contains proprietary and confidential information,
 including trade secrets, belonging to Gaussian, Inc.
  
 This software is provided under written license and may be
 used, copied, transmitted, or stored only in accord with that
 written license.
  
 The following legend is applicable only to US Government
 contracts under FAR:
  
                    RESTRICTED RIGHTS LEGEND
  
 Use, reproduction and disclosure by the US Government is
 subject to restrictions as set forth in subparagraphs (a)
 and (c) of the Commercial Computer Software - Restricted
 Rights clause in FAR 52.227-19.
  
 Gaussian, Inc.
 340 Quinnipiac St., Bldg. 40, Wallingford CT 06492
  
  
 ---------------------------------------------------------------
 Warning -- This program may not be used in any manner that
 competes with the business of Gaussian, Inc. or will provide
 assistance to any competitor of Gaussian, Inc.  The licensee
 of this program is prohibited from giving any competitor of
 Gaussian, Inc. access to this program.  By using this program,
 the user acknowledges that Gaussian, Inc. is engaged in the
 business of creating and licensing software in the field of
 computational chemistry and represents and warrants to the
 licensee that it is not a competitor of Gaussian, Inc. and that
 it will not use this program in any manner prohibited above.
 ---------------------------------------------------------------
  

 Cite this work as:
 Gaussian 09, Revision D.01,
 M. J. Frisch, G. W. Trucks, H. B. Schlegel, G. E. Scuseria, 
 M. A. Robb, J. R. Cheeseman, G. Scalmani, V. Barone, B. Mennucci, 
 G. A. Petersson, H. Nakatsuji, M. Caricato, X. Li, H. P. Hratchian, 
 A. F. Izmaylov, J. Bloino, G. Zheng, J. L. Sonnenberg, M. Hada, 
 M. Ehara, K. Toyota, R. Fukuda, J. Hasegawa, M. Ishida, T. Nakajima, 
 Y. Honda, O. Kitao, H. Nakai, T. Vreven, J. A. Montgomery, Jr., 
 J. E. Peralta, F. Ogliaro, M. Bearpark, J. J. Heyd, E. Brothers, 
 K. N. Kudin, V. N. Staroverov, T. Keith, R. Kobayashi, J. Normand, 
 K. Raghavachari, A. Rendell, J. C. Burant, S. S. Iyengar, J. Tomasi, 
 M. Cossi, N. Rega, J. M. Millam, M. Klene, J. E. Knox, J. B. Cross, 
 V. Bakken, C. Adamo, J. Jaramillo, R. Gomperts, R. E. Stratmann, 
 O. Yazyev, A. J. Austin, R. Cammi, C. Pomelli, J. W. Ochterski, 
 R. L. Martin, K. Morokuma, V. G. Zakrzewski, G. A. Voth, 
 P. Salvador, J. J. Dannenberg, S. Dapprich, A. D. Daniels, 
 O. Farkas, J. B. Foresman, J. V. Ortiz, J. Cioslowski, 
 and D. J. Fox, Gaussian, Inc., Wallingford CT, 2013.
 
 ******************************************
 Gaussian 09:  ES64L-G09RevD.01 24-Apr-2013
                26-Aug-2020 
 ******************************************
 %chk=/home/boittier/MDCM/nms_sampling/butadiene_geom.xyz.dir/butadiene_97.chk
 %nproc=8
 Will use up to    8 processors via shared memory.
 %mem=16000MB
 --------------------
 #p B2PLYPD3/Def2QZVP
 --------------------
 1/38=1/1;
 2/12=2,17=6,18=5,40=1/2;
 3/5=45,7=101,11=9,16=1,25=1,30=1,74=-60/1,2,3;
 4//1;
 5/5=2,38=5/2;
 8/10=1/1;
 9/16=-3/6;
 6/7=2,8=2,9=2,10=2/1;
 99/5=1,9=1/99;
 Leave Link    1 at Wed Aug 26 21:12:48 2020, MaxMem=  2097152000 cpu:         0.3
 (Enter /opt/cluster/programs/g09/g09_d.01/g09/l101.exe)
 ---------
 butadiene
 ---------
 Symbolic Z-matrix:
 Charge =  0 Multiplicity = 1
 C                    -3.85426   0.2114    0.02475 
 C                    -2.71686  -0.48846   0.02395 
 C                    -1.37103   0.08393  -0.00439 
 C                    -0.26672  -0.66432   0.04406 
 H                    -4.83756  -0.24268   0.09026 
 H                    -3.80531   1.28346   0.03833 
 H                    -2.74535  -1.55095   0.07521 
 H                    -1.31854   1.15556  -0.06231 
 H                    -0.32758  -1.75844   0.03003 
 H                     0.71476  -0.20075   0.10789 
 
 NAtoms=     10 NQM=       10 NQMF=       0 NMMI=      0 NMMIF=      0
                NMic=       0 NMicF=      0.
                    Isotopes and Nuclear Properties:
 (Nuclear quadrupole moments (NQMom) in fm**2, nuclear magnetic moments (NMagM)
  in nuclear magnetons)

  Atom         1           2           3           4           5           6           7           8           9          10
 IAtWgt=          12          12          12          12           1           1           1           1           1           1
 AtmWgt=  12.0000000  12.0000000  12.0000000  12.0000000   1.0078250   1.0078250   1.0078250   1.0078250   1.0078250   1.0078250
 NucSpn=           0           0           0           0           1           1           1           1           1           1
 AtZEff=   0.0000000   0.0000000   0.0000000   0.0000000   0.0000000   0.0000000   0.0000000   0.0000000   0.0000000   0.0000000
 NQMom=    0.0000000   0.0000000   0.0000000   0.0000000   0.0000000   0.0000000   0.0000000   0.0000000   0.0000000   0.0000000
 NMagM=    0.0000000   0.0000000   0.0000000   0.0000000   2.7928460   2.7928460   2.7928460   2.7928460   2.7928460   2.7928460
 AtZNuc=   6.0000000   6.0000000   6.0000000   6.0000000   1.0000000   1.0000000   1.0000000   1.0000000   1.0000000   1.0000000
 Leave Link  101 at Wed Aug 26 21:12:48 2020, MaxMem=  2097152000 cpu:         0.5
 (Enter /opt/cluster/programs/g09/g09_d.01/g09/l202.exe)
                          Input orientation:                          
 ---------------------------------------------------------------------
 Center     Atomic      Atomic             Coordinates (Angstroms)
 Number     Number       Type             X           Y           Z
 ---------------------------------------------------------------------
      1          6           0       -3.854260    0.211402    0.024747
      2          6           0       -2.716861   -0.488459    0.023946
      3          6           0       -1.371032    0.083926   -0.004391
      4          6           0       -0.266720   -0.664318    0.044062
      5          1           0       -4.837562   -0.242675    0.090257
      6          1           0       -3.805314    1.283464    0.038331
      7          1           0       -2.745350   -1.550954    0.075209
      8          1           0       -1.318536    1.155560   -0.062312
      9          1           0       -0.327577   -1.758441    0.030034
     10          1           0        0.714762   -0.200748    0.107886
 ---------------------------------------------------------------------
                    Distance matrix (angstroms):
                    1          2          3          4          5
     1  C    0.000000
     2  C    1.335471   0.000000
     3  C    2.486669   1.462766   0.000000
     4  C    3.692926   2.456526   1.334812   0.000000
     5  H    1.085062   2.135926   3.483168   4.590481   0.000000
     6  H    1.073265   2.079579   2.714120   4.039249   1.843185
     7  H    2.082817   1.064112   2.137269   2.632622   2.467625
     8  H    2.707196   2.159989   1.074481   2.104659   3.789707
     9  H    4.039530   2.705840   2.117616   1.095904   4.758270
    10  H    4.588327   3.444686   2.108123   1.087326   5.552510
                    6          7          8          9         10
     6  H    0.000000
     7  H    3.026352   0.000000
     8  H    2.492098   3.062667   0.000000
     9  H    4.620380   2.427080   3.079274   0.000000
    10  H    4.758026   3.714364   2.450069   1.875884   0.000000
 Stoichiometry    C4H6
 Framework group  C1[X(C4H6)]
 Deg. of freedom    24
 Full point group                 C1      NOp   1
 Largest Abelian subgroup         C1      NOp   1
 Largest concise Abelian subgroup C1      NOp   1
                         Standard orientation:                         
 ---------------------------------------------------------------------
 Center     Atomic      Atomic             Coordinates (Angstroms)
 Number     Number       Type             X           Y           Z
 ---------------------------------------------------------------------
      1          6           0       -1.849130    0.096846    0.002471
      2          6           0       -0.604726   -0.387608   -0.013169
      3          6           0        0.616710    0.417206   -0.020451
      4          6           0        1.837287   -0.122127    0.011681
      5          1           0       -2.735068   -0.527703    0.051591
      6          1           0       -1.993082    1.159530    0.045791
      7          1           0       -0.442291   -1.439023    0.008676
      8          1           0        0.476249    1.482095   -0.048605
      9          1           0        1.973474   -1.208629   -0.032738
     10          1           0        2.719874    0.507833    0.092099
 ---------------------------------------------------------------------
 Rotational constants (GHZ):     42.5603175      4.4382794      4.0207736
 Leave Link  202 at Wed Aug 26 21:12:48 2020, MaxMem=  2097152000 cpu:         0.0
 (Enter /opt/cluster/programs/g09/g09_d.01/g09/l301.exe)
 Standard basis: def2QZVP (5D, 7F)
 Ernie: Thresh=  0.10000D-02 Tol=  0.10000D-05 Strict=F.
 There are   498 symmetry adapted cartesian basis functions of A   symmetry.
 There are   408 symmetry adapted basis functions of A   symmetry.
   408 basis functions,   596 primitive gaussians,   498 cartesian basis functions
    15 alpha electrons       15 beta electrons
       nuclear repulsion energy       103.9577415757 Hartrees.
 IExCor=  419 DFT=T Ex+Corr=B2PLYPD3 ExCW=0 ScaHFX=  0.530000
 ScaDFX=  0.470000  0.470000  0.730000  0.730000 ScalE2=  0.270000  0.270000
 IRadAn=      0 IRanWt=     -1 IRanGd=            0 ICorTp=0 IEmpDi=141
 NAtoms=   10 NActive=   10 NUniq=   10 SFac= 1.00D+00 NAtFMM=   60 NAOKFM=F Big=F
 Integral buffers will be    131072 words long.
 Regular integral format.
 Two-electron integral symmetry is turned on.
 R6Disp:  Grimme-D3(BJ) Dispersion energy=       -0.0048390190 Hartrees.
 Nuclear repulsion after empirical dispersion term =      103.9529025567 Hartrees.
 Leave Link  301 at Wed Aug 26 21:12:48 2020, MaxMem=  2097152000 cpu:         0.4
 (Enter /opt/cluster/programs/g09/g09_d.01/g09/l302.exe)
 NPDir=0 NMtPBC=     1 NCelOv=     1 NCel=       1 NClECP=     1 NCelD=      1
         NCelK=      1 NCelE2=     1 NClLst=     1 CellRange=     0.0.
 One-electron integrals computed using PRISM.
   1 Symmetry operations used in ECPInt.
 ECPInt:  NShTT=    8256 NPrTT=   19107 LenC2=    8054 LenP2D=   16116.
 LDataN:  DoStor=T MaxTD1= 8 Len=  415
 NBasis=   408 RedAO= T EigKep=  4.25D-05  NBF=   408
 NBsUse=   408 1.00D-06 EigRej= -1.00D+00 NBFU=   408
 Precomputing XC quadrature grid using
 IXCGrd= 4 IRadAn=           0 IRanWt=          -1 IRanGd=           0 AccXCQ= 0.00D+00.
 Generated NRdTot=       0 NPtTot=           0 NUsed=           0 NTot=          32
 NSgBfM=   498   498   498   498   498 MxSgAt=    10 MxSgA2=    10.
 Leave Link  302 at Wed Aug 26 21:12:49 2020, MaxMem=  2097152000 cpu:         3.2
 (Enter /opt/cluster/programs/g09/g09_d.01/g09/l303.exe)
 DipDrv:  MaxL=1.
 Leave Link  303 at Wed Aug 26 21:12:49 2020, MaxMem=  2097152000 cpu:         0.3
 (Enter /opt/cluster/programs/g09/g09_d.01/g09/l401.exe)
 ExpMin= 7.60D-02 ExpMax= 6.70D+04 ExpMxC= 6.47D+02 IAcc=2 IRadAn=         4 AccDes= 0.00D+00
 Harris functional with IExCor=  419 and IRadAn=       4 diagonalized for initial guess.
 HarFok:  IExCor=  419 AccDes= 0.00D+00 IRadAn=         4 IDoV= 1 UseB2=F ITyADJ=14
 ICtDFT=  3500011 ScaDFX=  1.000000  1.000000  1.000000  1.000000
 FoFCou: FMM=F IPFlag=           0 FMFlag=      100000 FMFlg1=           0
         NFxFlg=           0 DoJE=T BraDBF=F KetDBF=T FulRan=T
         wScrn=  0.000000 ICntrl=     500 IOpCl=  0 I1Cent=   200000004 NGrid=           0
         NMat0=    1 NMatS0=      1 NMatT0=    0 NMatD0=    1 NMtDS0=    0 NMtDT0=    0
 Petite list used in FoFCou.
 Harris En= -156.136294922535    
 JPrj=0 DoOrth=F DoCkMO=F.
 Leave Link  401 at Wed Aug 26 21:12:50 2020, MaxMem=  2097152000 cpu:         8.3
 (Enter /opt/cluster/programs/g09/g09_d.01/g09/l502.exe)
 Closed shell SCF:
 Using DIIS extrapolation, IDIIS=  1040.
 Integral symmetry usage will be decided dynamically.
 IVT=      770090 IEndB=      770090 NGot=  2097152000 MDV=  2096647053
 LenX=  2096647053 LenY=  2096398551
 Requested convergence on RMS density matrix=1.00D-08 within 128 cycles.
 Requested convergence on MAX density matrix=1.00D-06.
 Requested convergence on             energy=1.00D-06.
 No special actions if energy rises.
 Fock matrices will be formed incrementally for  20 cycles.
 Integral accuracy reduced to 1.0D-05 until final iterations.

 Cycle   1  Pass 0  IDiag  1:
 FoFJK:  IHMeth= 1 ICntrl=       0 DoSepK=F KAlg= 0 I1Cent=   0 FoldK=F
 IRaf= 940000000 NMat=   1 IRICut=       1 DoRegI=T DoRafI=F ISym2E= 0.
 FoFCou: FMM=F IPFlag=           0 FMFlag=      100000 FMFlg1=           0
         NFxFlg=           0 DoJE=F BraDBF=F KetDBF=F FulRan=T
         wScrn=  0.000000 ICntrl=       0 IOpCl=  0 I1Cent=           0 NGrid=           0
         NMat0=    1 NMatS0=      1 NMatT0=    0 NMatD0=    1 NMtDS0=    0 NMtDT0=    0
 Symmetry not used in FoFCou.
 E= -155.513221457618    
 DIIS: error= 3.91D-02 at cycle   1 NSaved=   1.
 NSaved= 1 IEnMin= 1 EnMin= -155.513221457618     IErMin= 1 ErrMin= 3.91D-02
 ErrMax= 3.91D-02  0.00D+00 EMaxC= 1.00D-01 BMatC= 2.53D-01 BMatP= 2.53D-01
 IDIUse=3 WtCom= 6.09D-01 WtEn= 3.91D-01
 Coeff-Com:  0.100D+01
 Coeff-En:   0.100D+01
 Coeff:      0.100D+01
 Gap=     0.300 Goal=   None    Shift=    0.000
 GapD=    0.300 DampG=1.000 DampE=0.500 DampFc=0.5000 IDamp=-1.
 Damping current iteration by 5.00D-01
 RMSDP=9.42D-04 MaxDP=5.02D-02              OVMax= 1.93D-01

 Cycle   2  Pass 0  IDiag  1:
 RMSU=  4.32D-04    CP:  9.51D-01
 E= -155.612411370361     Delta-E=       -0.099189912743 Rises=F Damp=T
 DIIS: error= 1.24D-02 at cycle   2 NSaved=   2.
 NSaved= 2 IEnMin= 2 EnMin= -155.612411370361     IErMin= 2 ErrMin= 1.24D-02
 ErrMax= 1.24D-02  0.00D+00 EMaxC= 1.00D-01 BMatC= 2.98D-02 BMatP= 2.53D-01
 IDIUse=3 WtCom= 8.76D-01 WtEn= 1.24D-01
 Coeff-Com: -0.301D+00 0.130D+01
 Coeff-En:   0.000D+00 0.100D+01
 Coeff:     -0.264D+00 0.126D+01
 Gap=     0.357 Goal=   None    Shift=    0.000
 RMSDP=2.60D-04 MaxDP=8.04D-03 DE=-9.92D-02 OVMax= 9.36D-02

 Cycle   3  Pass 0  IDiag  1:
 RMSU=  2.47D-04    CP:  9.33D-01  1.11D+00
 E= -155.698307084894     Delta-E=       -0.085895714532 Rises=F Damp=F
 DIIS: error= 4.26D-03 at cycle   3 NSaved=   3.
 NSaved= 3 IEnMin= 3 EnMin= -155.698307084894     IErMin= 3 ErrMin= 4.26D-03
 ErrMax= 4.26D-03  0.00D+00 EMaxC= 1.00D-01 BMatC= 1.80D-03 BMatP= 2.98D-02
 IDIUse=3 WtCom= 9.57D-01 WtEn= 4.26D-02
 Coeff-Com: -0.110D+00 0.219D+00 0.890D+00
 Coeff-En:   0.000D+00 0.000D+00 0.100D+01
 Coeff:     -0.105D+00 0.210D+00 0.895D+00
 Gap=     0.295 Goal=   None    Shift=    0.000
 RMSDP=6.75D-05 MaxDP=3.85D-03 DE=-8.59D-02 OVMax= 2.29D-02

 Cycle   4  Pass 0  IDiag  1:
 RMSU=  5.02D-05    CP:  9.30D-01  1.20D+00  9.34D-01
 E= -155.699684573498     Delta-E=       -0.001377488605 Rises=F Damp=F
 DIIS: error= 2.26D-03 at cycle   4 NSaved=   4.
 NSaved= 4 IEnMin= 4 EnMin= -155.699684573498     IErMin= 4 ErrMin= 2.26D-03
 ErrMax= 2.26D-03  0.00D+00 EMaxC= 1.00D-01 BMatC= 5.83D-04 BMatP= 1.80D-03
 IDIUse=3 WtCom= 9.77D-01 WtEn= 2.26D-02
 Coeff-Com: -0.495D-01 0.808D-01 0.473D+00 0.496D+00
 Coeff-En:   0.000D+00 0.000D+00 0.135D+00 0.865D+00
 Coeff:     -0.484D-01 0.790D-01 0.465D+00 0.504D+00
 Gap=     0.295 Goal=   None    Shift=    0.000
 RMSDP=2.74D-05 MaxDP=1.34D-03 DE=-1.38D-03 OVMax= 8.75D-03

 Cycle   5  Pass 0  IDiag  1:
 RMSU=  1.51D-05    CP:  9.30D-01  1.19D+00  9.74D-01  5.91D-01
 E= -155.700244715327     Delta-E=       -0.000560141828 Rises=F Damp=F
 DIIS: error= 2.20D-04 at cycle   5 NSaved=   5.
 NSaved= 5 IEnMin= 5 EnMin= -155.700244715327     IErMin= 5 ErrMin= 2.20D-04
 ErrMax= 2.20D-04  0.00D+00 EMaxC= 1.00D-01 BMatC= 4.36D-06 BMatP= 5.83D-04
 IDIUse=3 WtCom= 9.98D-01 WtEn= 2.20D-03
 Coeff-Com: -0.289D-02 0.247D-02 0.379D-01 0.985D-01 0.864D+00
 Coeff-En:   0.000D+00 0.000D+00 0.000D+00 0.000D+00 0.100D+01
 Coeff:     -0.289D-02 0.246D-02 0.378D-01 0.983D-01 0.864D+00
 Gap=     0.295 Goal=   None    Shift=    0.000
 RMSDP=3.69D-06 MaxDP=1.14D-04 DE=-5.60D-04 OVMax= 1.19D-03

 Initial convergence to 1.0D-05 achieved.  Increase integral accuracy.
 Cycle   6  Pass 1  IDiag  1:
 E= -155.700270957025     Delta-E=       -0.000026241698 Rises=F Damp=F
 DIIS: error= 5.10D-05 at cycle   1 NSaved=   1.
 NSaved= 1 IEnMin= 1 EnMin= -155.700270957025     IErMin= 1 ErrMin= 5.10D-05
 ErrMax= 5.10D-05  0.00D+00 EMaxC= 1.00D-01 BMatC= 4.75D-07 BMatP= 4.75D-07
 IDIUse=1 WtCom= 1.00D+00 WtEn= 0.00D+00
 Coeff-Com:  0.100D+01
 Coeff:      0.100D+01
 Gap=     0.295 Goal=   None    Shift=    0.000
 RMSDP=3.69D-06 MaxDP=1.14D-04 DE=-2.62D-05 OVMax= 2.70D-04

 Cycle   7  Pass 1  IDiag  1:
 RMSU=  1.53D-05    CP:  1.00D+00
 E= -155.700271284882     Delta-E=       -0.000000327857 Rises=F Damp=F
 DIIS: error= 1.51D-05 at cycle   2 NSaved=   2.
 NSaved= 2 IEnMin= 2 EnMin= -155.700271284882     IErMin= 2 ErrMin= 1.51D-05
 ErrMax= 1.51D-05  0.00D+00 EMaxC= 1.00D-01 BMatC= 1.58D-08 BMatP= 4.75D-07
 IDIUse=1 WtCom= 1.00D+00 WtEn= 0.00D+00
 Coeff-Com:  0.308D-01 0.969D+00
 Coeff:      0.308D-01 0.969D+00
 Gap=     0.295 Goal=   None    Shift=    0.000
 RMSDP=6.37D-07 MaxDP=1.77D-05 DE=-3.28D-07 OVMax= 1.37D-04

 Cycle   8  Pass 1  IDiag  1:
 RMSU=  4.11D-07    CP:  1.00D+00  1.03D+00
 E= -155.700271298916     Delta-E=       -0.000000014035 Rises=F Damp=F
 DIIS: error= 8.97D-06 at cycle   3 NSaved=   3.
 NSaved= 3 IEnMin= 3 EnMin= -155.700271298916     IErMin= 3 ErrMin= 8.97D-06
 ErrMax= 8.97D-06  0.00D+00 EMaxC= 1.00D-01 BMatC= 1.23D-08 BMatP= 1.58D-08
 IDIUse=1 WtCom= 1.00D+00 WtEn= 0.00D+00
 Coeff-Com: -0.168D-01 0.466D+00 0.551D+00
 Coeff:     -0.168D-01 0.466D+00 0.551D+00
 Gap=     0.295 Goal=   None    Shift=    0.000
 RMSDP=1.55D-07 MaxDP=1.00D-05 DE=-1.40D-08 OVMax= 5.07D-05

 Cycle   9  Pass 1  IDiag  1:
 RMSU=  1.49D-07    CP:  1.00D+00  1.03D+00  9.77D-01
 E= -155.700271310914     Delta-E=       -0.000000011997 Rises=F Damp=F
 DIIS: error= 3.58D-06 at cycle   4 NSaved=   4.
 NSaved= 4 IEnMin= 4 EnMin= -155.700271310914     IErMin= 4 ErrMin= 3.58D-06
 ErrMax= 3.58D-06  0.00D+00 EMaxC= 1.00D-01 BMatC= 3.99D-10 BMatP= 1.23D-08
 IDIUse=1 WtCom= 1.00D+00 WtEn= 0.00D+00
 Coeff-Com: -0.751D-02 0.147D-01 0.130D+00 0.863D+00
 Coeff:     -0.751D-02 0.147D-01 0.130D+00 0.863D+00
 Gap=     0.295 Goal=   None    Shift=    0.000
 RMSDP=4.95D-08 MaxDP=1.58D-06 DE=-1.20D-08 OVMax= 2.10D-05

 Cycle  10  Pass 1  IDiag  1:
 RMSU=  3.45D-08    CP:  1.00D+00  1.04D+00  1.05D+00  1.08D+00
 E= -155.700271311621     Delta-E=       -0.000000000707 Rises=F Damp=F
 DIIS: error= 7.83D-07 at cycle   5 NSaved=   5.
 NSaved= 5 IEnMin= 5 EnMin= -155.700271311621     IErMin= 5 ErrMin= 7.83D-07
 ErrMax= 7.83D-07  0.00D+00 EMaxC= 1.00D-01 BMatC= 4.82D-11 BMatP= 3.99D-10
 IDIUse=1 WtCom= 1.00D+00 WtEn= 0.00D+00
 Coeff-Com:  0.299D-03-0.497D-01-0.429D-01 0.205D+00 0.887D+00
 Coeff:      0.299D-03-0.497D-01-0.429D-01 0.205D+00 0.887D+00
 Gap=     0.295 Goal=   None    Shift=    0.000
 RMSDP=2.07D-08 MaxDP=1.24D-06 DE=-7.07D-10 OVMax= 5.49D-06

 Cycle  11  Pass 1  IDiag  1:
 RMSU=  1.22D-08    CP:  1.00D+00  1.04D+00  1.07D+00  1.17D+00  1.13D+00
 E= -155.700271311694     Delta-E=       -0.000000000074 Rises=F Damp=F
 DIIS: error= 1.72D-07 at cycle   6 NSaved=   6.
 NSaved= 6 IEnMin= 6 EnMin= -155.700271311694     IErMin= 6 ErrMin= 1.72D-07
 ErrMax= 1.72D-07  0.00D+00 EMaxC= 1.00D-01 BMatC= 4.74D-12 BMatP= 4.82D-11
 IDIUse=1 WtCom= 1.00D+00 WtEn= 0.00D+00
 Coeff-Com:  0.597D-03-0.215D-01-0.270D-01 0.366D-01 0.356D+00 0.656D+00
 Coeff:      0.597D-03-0.215D-01-0.270D-01 0.366D-01 0.356D+00 0.656D+00
 Gap=     0.295 Goal=   None    Shift=    0.000
 RMSDP=3.59D-09 MaxDP=1.98D-07 DE=-7.39D-11 OVMax= 1.04D-06

 SCF Done:  E(RB2PLYPD3) =  -155.700271312     A.U. after   11 cycles
            NFock= 11  Conv=0.36D-08     -V/T= 2.0036
 KE= 1.551360375789D+02 PE=-5.688376699222D+02 EE= 1.540484584749D+02
 Leave Link  502 at Wed Aug 26 21:15:50 2020, MaxMem=  2097152000 cpu:      1429.7
 (Enter /opt/cluster/programs/g09/g09_d.01/g09/l801.exe)
 DoSCS=T DFT=T ScalE2(SS,OS)=  0.270000  0.270000
 ExpMin= 7.60D-02 ExpMax= 6.70D+04 ExpMxC= 6.47D+02 IAcc=3 IRadAn=         5 AccDes= 0.00D+00
 HarFok:  IExCor=  205 AccDes= 0.00D+00 IRadAn=         5 IDoV=-2 UseB2=F ITyADJ=14
 ICtDFT= 12500011 ScaDFX=  1.000000  1.000000  1.000000  1.000000
 Largest valence mixing into a core orbital is  1.11D-04
 Largest core mixing into a valence orbital is  1.99D-05
 Range of M.O.s used for correlation:     5   408
 NBasis=   408 NAE=    15 NBE=    15 NFC=     4 NFV=     0
 NROrb=    404 NOA=    11 NOB=    11 NVA=   393 NVB=   393

 **** Warning!!: The largest alpha MO coefficient is  0.26905585D+02

 Leave Link  801 at Wed Aug 26 21:15:52 2020, MaxMem=  2097152000 cpu:         0.8
 (Enter /opt/cluster/programs/g09/g09_d.01/g09/l906.exe)
 DoSCS=T DFT=T ScalE2(SS,OS)=  0.270000  0.270000
 FulOut=F Deriv=F AODrv=F NAtomX=    10
   MMem=         881  MDisk=          11 MDiskD=          11
  W3Min=     2152854 MinDsk=     3857222 NBas6D=         498
 NBas2D=      125763    NTT=      124251    LW2=     4508827
    MDV=  2096382556 MDiskM=        9345 NBas2p=      117442
 Fully direct method using O(OVN) memory.
 IMap=   1   2   3   4   5   6   7   8   9  10  11
 JobTyp=1 Pass  1:  I=   1 to  11 NPSUse=  8 ParTrn=T ParDer=T DoDerP=F.
 Spin components of T(2) and E(2):
     alpha-alpha T2 =       0.4193047816D-01 E2=     -0.2539332832D-01
     alpha-beta  T2 =       0.2713138527D+00 E2=     -0.1748193026D+00
     beta-beta   T2 =       0.4193047816D-01 E2=     -0.2539332832D-01
 The integrals were generated   1 times.
 E2(B2PLYPD3) =    -0.2256059592D+00 E(B2PLYPD3) =    -0.15592587727091D+03
 Leave Link  906 at Wed Aug 26 21:17:31 2020, MaxMem=  2097152000 cpu:       773.6
 (Enter /opt/cluster/programs/g09/g09_d.01/g09/l601.exe)
 Copying SCF densities to generalized density rwf, IOpCl= 0 IROHF=0.

 **********************************************************************

            Population analysis using the SCF density.

 **********************************************************************

 Orbital symmetries:
       Occupied  (A) (A) (A) (A) (A) (A) (A) (A) (A) (A) (A) (A)
                 (A) (A) (A)
       Virtual   (A) (A) (A) (A) (A) (A) (A) (A) (A) (A) (A) (A)
                 (A) (A) (A) (A) (A) (A) (A) (A) (A) (A) (A) (A)
                 (A) (A) (A) (A) (A) (A) (A) (A) (A) (A) (A) (A)
                 (A) (A) (A) (A) (A) (A) (A) (A) (A) (A) (A) (A)
                 (A) (A) (A) (A) (A) (A) (A) (A) (A) (A) (A) (A)
                 (A) (A) (A) (A) (A) (A) (A) (A) (A) (A) (A) (A)
                 (A) (A) (A) (A) (A) (A) (A) (A) (A) (A) (A) (A)
                 (A) (A) (A) (A) (A) (A) (A) (A) (A) (A) (A) (A)
                 (A) (A) (A) (A) (A) (A) (A) (A) (A) (A) (A) (A)
                 (A) (A) (A) (A) (A) (A) (A) (A) (A) (A) (A) (A)
                 (A) (A) (A) (A) (A) (A) (A) (A) (A) (A) (A) (A)
                 (A) (A) (A) (A) (A) (A) (A) (A) (A) (A) (A) (A)
                 (A) (A) (A) (A) (A) (A) (A) (A) (A) (A) (A) (A)
                 (A) (A) (A) (A) (A) (A) (A) (A) (A) (A) (A) (A)
                 (A) (A) (A) (A) (A) (A) (A) (A) (A) (A) (A) (A)
                 (A) (A) (A) (A) (A) (A) (A) (A) (A) (A) (A) (A)
                 (A) (A) (A) (A) (A) (A) (A) (A) (A) (A) (A) (A)
                 (A) (A) (A) (A) (A) (A) (A) (A) (A) (A) (A) (A)
                 (A) (A) (A) (A) (A) (A) (A) (A) (A) (A) (A) (A)
                 (A) (A) (A) (A) (A) (A) (A) (A) (A) (A) (A) (A)
                 (A) (A) (A) (A) (A) (A) (A) (A) (A) (A) (A) (A)
                 (A) (A) (A) (A) (A) (A) (A) (A) (A) (A) (A) (A)
                 (A) (A) (A) (A) (A) (A) (A) (A) (A) (A) (A) (A)
                 (A) (A) (A) (A) (A) (A) (A) (A) (A) (A) (A) (A)
                 (A) (A) (A) (A) (A) (A) (A) (A) (A) (A) (A) (A)
                 (A) (A) (A) (A) (A) (A) (A) (A) (A) (A) (A) (A)
                 (A) (A) (A) (A) (A) (A) (A) (A) (A) (A) (A) (A)
                 (A) (A) (A) (A) (A) (A) (A) (A) (A) (A) (A) (A)
                 (A) (A) (A) (A) (A) (A) (A) (A) (A) (A) (A) (A)
                 (A) (A) (A) (A) (A) (A) (A) (A) (A) (A) (A) (A)
                 (A) (A) (A) (A) (A) (A) (A) (A) (A) (A) (A) (A)
                 (A) (A) (A) (A) (A) (A) (A) (A) (A) (A) (A) (A)
                 (A) (A) (A) (A) (A) (A) (A) (A) (A)
 The electronic state is 1-A.
 Alpha  occ. eigenvalues --  -10.62520 -10.62280 -10.61816 -10.61409  -0.92946
 Alpha  occ. eigenvalues --   -0.84909  -0.70051  -0.64419  -0.54562  -0.53841
 Alpha  occ. eigenvalues --   -0.46991  -0.45687  -0.41117  -0.37985  -0.27738
 Alpha virt. eigenvalues --    0.01766   0.06992   0.07458   0.08138   0.09526
 Alpha virt. eigenvalues --    0.11702   0.12487   0.14616   0.15802   0.16143
 Alpha virt. eigenvalues --    0.18787   0.20504   0.21569   0.23018   0.23792
 Alpha virt. eigenvalues --    0.26769   0.26996   0.29388   0.31782   0.35218
 Alpha virt. eigenvalues --    0.36170   0.36697   0.37562   0.38128   0.40452
 Alpha virt. eigenvalues --    0.42855   0.43747   0.45484   0.47474   0.48298
 Alpha virt. eigenvalues --    0.48968   0.49514   0.51005   0.56132   0.57070
 Alpha virt. eigenvalues --    0.58063   0.60401   0.64298   0.66479   0.68544
 Alpha virt. eigenvalues --    0.68887   0.71822   0.76927   0.77342   0.78932
 Alpha virt. eigenvalues --    0.80103   0.80652   0.81686   0.82488   0.84475
 Alpha virt. eigenvalues --    0.84646   0.85858   0.86494   0.87108   0.90808
 Alpha virt. eigenvalues --    0.92351   0.93514   0.94561   0.95644   0.96039
 Alpha virt. eigenvalues --    0.98916   0.99116   1.00290   1.02982   1.04667
 Alpha virt. eigenvalues --    1.05911   1.09094   1.10102   1.11386   1.12438
 Alpha virt. eigenvalues --    1.14290   1.18851   1.19795   1.21417   1.24069
 Alpha virt. eigenvalues --    1.24466   1.25990   1.33671   1.34712   1.36492
 Alpha virt. eigenvalues --    1.36999   1.41539   1.46926   1.63813   1.64897
 Alpha virt. eigenvalues --    1.66836   1.68533   1.68832   1.71680   1.73933
 Alpha virt. eigenvalues --    1.74332   1.80524   1.82185   1.84774   1.86602
 Alpha virt. eigenvalues --    1.89758   1.90971   1.91336   1.93523   1.94358
 Alpha virt. eigenvalues --    1.94835   1.99325   2.00122   2.01055   2.02550
 Alpha virt. eigenvalues --    2.03245   2.05940   2.06665   2.07861   2.09479
 Alpha virt. eigenvalues --    2.10679   2.12007   2.14202   2.17526   2.17720
 Alpha virt. eigenvalues --    2.19758   2.21158   2.23161   2.25786   2.28458
 Alpha virt. eigenvalues --    2.30449   2.32185   2.32715   2.39069   2.43271
 Alpha virt. eigenvalues --    2.44605   2.45662   2.47265   2.48205   2.49661
 Alpha virt. eigenvalues --    2.52914   2.53833   2.56437   2.57392   2.58180
 Alpha virt. eigenvalues --    2.59228   2.63238   2.63826   2.64182   2.65805
 Alpha virt. eigenvalues --    2.67648   2.69275   2.70533   2.71380   2.71899
 Alpha virt. eigenvalues --    2.72701   2.75776   2.76809   2.78145   2.79177
 Alpha virt. eigenvalues --    2.80783   2.88693   2.89774   2.91749   2.93196
 Alpha virt. eigenvalues --    2.94925   3.03742   3.06303   3.08566   3.10625
 Alpha virt. eigenvalues --    3.13799   3.14791   3.25608   3.33761   3.36370
 Alpha virt. eigenvalues --    3.38727   3.40039   3.43520   3.44961   3.47764
 Alpha virt. eigenvalues --    3.49409   3.50373   3.52637   3.55183   3.59445
 Alpha virt. eigenvalues --    3.61128   3.62971   3.65379   3.70231   3.78499
 Alpha virt. eigenvalues --    3.80151   3.83575   3.86958   3.90036   3.92809
 Alpha virt. eigenvalues --    3.95854   3.97286   4.00330   4.05395   4.13126
 Alpha virt. eigenvalues --    4.15973   4.18624   4.23149   4.26491   4.46852
 Alpha virt. eigenvalues --    4.54762   4.57026   4.60923   4.86548   4.99175
 Alpha virt. eigenvalues --    5.00332   5.03821   5.04804   5.06053   5.07733
 Alpha virt. eigenvalues --    5.12523   5.17613   5.19947   5.28575   5.31006
 Alpha virt. eigenvalues --    5.32635   5.39724   5.41206   5.44780   5.49162
 Alpha virt. eigenvalues --    5.53628   5.55225   5.57046   5.59498   5.61249
 Alpha virt. eigenvalues --    5.65400   5.69210   5.74661   5.75818   5.77415
 Alpha virt. eigenvalues --    5.79761   5.80209   5.83112   5.84657   5.86440
 Alpha virt. eigenvalues --    5.88835   5.90846   5.99336   6.00897   6.04692
 Alpha virt. eigenvalues --    6.05912   6.06931   6.09113   6.09563   6.12026
 Alpha virt. eigenvalues --    6.14731   6.15842   6.16379   6.19271   6.20551
 Alpha virt. eigenvalues --    6.22235   6.24401   6.28711   6.31156   6.34390
 Alpha virt. eigenvalues --    6.35769   6.36532   6.38154   6.38399   6.38829
 Alpha virt. eigenvalues --    6.40203   6.41566   6.42187   6.52951   6.54334
 Alpha virt. eigenvalues --    6.55566   6.55820   6.56044   6.58261   6.62380
 Alpha virt. eigenvalues --    6.64224   6.66928   6.68489   6.72234   6.78248
 Alpha virt. eigenvalues --    6.82976   6.84847   6.86831   6.91555   6.92928
 Alpha virt. eigenvalues --    6.93982   6.97106   6.99371   7.05448   7.10567
 Alpha virt. eigenvalues --    7.13929   7.15783   7.17973   7.21216   7.21366
 Alpha virt. eigenvalues --    7.25060   7.27263   7.36441   7.39156   7.40419
 Alpha virt. eigenvalues --    7.46928   7.49477   7.55847   7.57615   7.61072
 Alpha virt. eigenvalues --    7.62781   7.65383   7.65580   7.66945   7.68173
 Alpha virt. eigenvalues --    7.69808   7.72505   7.76380   7.77086   7.79839
 Alpha virt. eigenvalues --    7.81642   7.85331   7.87087   7.90288   7.92928
 Alpha virt. eigenvalues --    7.94569   7.95724   8.07515   8.10169   8.14370
 Alpha virt. eigenvalues --    8.14772   8.16663   8.18000   8.19045   8.22598
 Alpha virt. eigenvalues --    8.27672   8.32811   8.33430   8.35056   8.36211
 Alpha virt. eigenvalues --    8.36658   8.37321   8.39137   8.41878   8.45403
 Alpha virt. eigenvalues --    8.45774   8.49406   8.54616   8.55887   8.57145
 Alpha virt. eigenvalues --    8.59365   8.59988   8.63749   8.68338   8.71154
 Alpha virt. eigenvalues --    8.74613   8.78408   8.81089   8.83439   8.84820
 Alpha virt. eigenvalues --    8.86231   8.90549   8.94082   9.04568   9.15566
 Alpha virt. eigenvalues --    9.22654   9.24280   9.31951   9.38124   9.46809
 Alpha virt. eigenvalues --    9.53478   9.64630   9.77179   9.84862   9.90236
 Alpha virt. eigenvalues --    9.93101   9.95476   9.97731   9.98988  10.00189
 Alpha virt. eigenvalues --   10.07312  10.12890  10.29409  10.30968  10.35900
 Alpha virt. eigenvalues --   10.37874  10.54209  10.57553  10.69345  10.80712
 Alpha virt. eigenvalues --   10.97566  11.10746  11.46293  11.73611  11.89488
 Alpha virt. eigenvalues --   11.92386  12.91018  13.07941  13.17104  13.22670
 Alpha virt. eigenvalues --   28.67993  28.77452  29.48116  29.65918 148.27167
 Alpha virt. eigenvalues --  148.35843 149.07646 149.26703
          Condensed to atoms (all electrons):
               1          2          3          4          5          6
     1  C    4.839239   0.615900  -0.076847  -0.002184   0.425672   0.426125
     2  C    0.615900   4.832584   0.405286  -0.080238  -0.043041  -0.051280
     3  C   -0.076847   0.405286   4.839132   0.616579   0.007120  -0.007944
     4  C   -0.002184  -0.080238   0.616579   4.841526  -0.000626   0.000301
     5  H    0.425672  -0.043041   0.007120  -0.000626   0.577476  -0.044805
     6  H    0.426125  -0.051280  -0.007944   0.000301  -0.044805   0.602125
     7  H   -0.049579   0.409237  -0.064910  -0.001290  -0.008868   0.008198
     8  H   -0.000311  -0.060708   0.409424  -0.047753  -0.000147   0.004767
     9  H    0.000360  -0.008246  -0.046021   0.425119  -0.000040   0.000048
    10  H   -0.000639   0.007620  -0.046488   0.423939   0.000025  -0.000035
               7          8          9         10
     1  C   -0.049579  -0.000311   0.000360  -0.000639
     2  C    0.409237  -0.060708  -0.008246   0.007620
     3  C   -0.064910   0.409424  -0.046021  -0.046488
     4  C   -0.001290  -0.047753   0.425119   0.423939
     5  H   -0.008868  -0.000147  -0.000040   0.000025
     6  H    0.008198   0.004767   0.000048  -0.000035
     7  H    0.640517   0.007228   0.004750  -0.000067
     8  H    0.007228   0.631673   0.007271  -0.008537
     9  H    0.004750   0.007271   0.591859  -0.042598
    10  H   -0.000067  -0.008537  -0.042598   0.580340
 Mulliken charges:
               1
     1  C   -0.177735
     2  C   -0.027115
     3  C   -0.035331
     4  C   -0.175372
     5  H    0.087234
     6  H    0.062500
     7  H    0.054786
     8  H    0.057093
     9  H    0.067498
    10  H    0.086441
 Sum of Mulliken charges =   0.00000
 Mulliken charges with hydrogens summed into heavy atoms:
               1
     1  C   -0.028001
     2  C    0.027671
     3  C    0.021762
     4  C   -0.021432
 Electronic spatial extent (au):  <R**2>=            335.4280
 Charge=              0.0000 electrons
 Dipole moment (field-independent basis, Debye):
    X=              0.0360    Y=              0.0072    Z=              0.0850  Tot=              0.0926
 Quadrupole moment (field-independent basis, Debye-Ang):
   XX=            -23.4693   YY=            -23.1385   ZZ=            -29.2556
   XY=             -0.1076   XZ=             -0.0650   YZ=              0.0575
 Traceless Quadrupole moment (field-independent basis, Debye-Ang):
   XX=              1.8185   YY=              2.1493   ZZ=             -3.9678
   XY=             -0.1076   XZ=             -0.0650   YZ=              0.0575
 Octapole moment (field-independent basis, Debye-Ang**2):
  XXX=             -0.5421  YYY=              0.0737  ZZZ=              0.1410  XYY=              0.2202
  XXY=             -0.1919  XXZ=              1.0541  XZZ=              0.0106  YZZ=              0.0271
  YYZ=              0.0075  XYZ=              0.2261
 Hexadecapole moment (field-independent basis, Debye-Ang**3):
 XXXX=           -344.4471 YYYY=            -64.9913 ZZZZ=            -36.8354 XXXY=              6.9592
 XXXZ=              0.1807 YYYX=             -2.0688 YYYZ=              0.0411 ZZZX=             -0.1306
 ZZZY=              0.0540 XXYY=            -68.6769 XXZZ=            -77.3220 YYZZ=            -19.0851
 XXYZ=              0.6739 YYXZ=             -0.3563 ZZXY=             -0.4079
 N-N= 1.039529025567D+02 E-N=-5.688376630599D+02  KE= 1.551360375789D+02
 Leave Link  601 at Wed Aug 26 21:17:32 2020, MaxMem=  2097152000 cpu:         0.7
 (Enter /opt/cluster/programs/g09/g09_d.01/g09/l9999.exe)
 1\1\GINC-NODE35\SP\RB2PLYPD3-FC\def2QZVP\C4H6\BOITTIER\26-Aug-2020\0\\
 #p B2PLYPD3/Def2QZVP\\butadiene\\0,1\C,0,-3.85426,0.211402,0.024747\C,
 0,-2.716861,-0.488459,0.023946\C,0,-1.371032,0.083926,-0.004391\C,0,-0
 .26672,-0.664318,0.044062\H,0,-4.837562,-0.242675,0.090257\H,0,-3.8053
 14,1.283464,0.038331\H,0,-2.74535,-1.550954,0.075209\H,0,-1.318536,1.1
 5556,-0.062312\H,0,-0.327577,-1.758441,0.030034\H,0,0.714762,-0.200748
 ,0.107886\\Version=ES64L-G09RevD.01\State=1-A\HF=-155.7002713\MP2=-155
 .9258773\RMSD=3.586e-09\PG=C01 [X(C4H6)]\\@


 ... IT CAN BE VERY DIFFICULT, IN THESE COMPLEX TIMES,
 TO UNDERSTAND JUST HOW SCIENTISTS DO WHAT THEY DO.

                     DON MOSER IN THE FEBRUARY 1979 SMITHSONIAN
 Job cpu time:       0 days  0 hours 36 minutes 58.4 seconds.
 File lengths (MBytes):  RWF=     92 Int=      0 D2E=      0 Chk=      9 Scr=      1
 Normal termination of Gaussian 09 at Wed Aug 26 21:17:32 2020.
