 Entering Gaussian System, Link 0=/opt/cluster/programs/g09/g09_d.01/g09//g09
 Input=/home/boittier/MDCM/nms_sampling/butadiene_geom.xyz.dir/energies/butadiene_1053_energy.com
 Output=/scratch/boittier/butadiene_1053_energy/butadiene_1053_energy.out
 Initial command:
 /opt/cluster/programs/g09/g09_d.01/g09/l1.exe "/scratch/boittier/butadiene_1053_energy/Gau-97469.inp" -scrdir="/scratch/boittier/butadiene_1053_energy/"
 Entering Link 1 = /opt/cluster/programs/g09/g09_d.01/g09/l1.exe PID=     97470.
  
 Copyright (c) 1988,1990,1992,1993,1995,1998,2003,2009,2013,
            Gaussian, Inc.  All Rights Reserved.
  
 This is part of the Gaussian(R) 09 program.  It is based on
 the Gaussian(R) 03 system (copyright 2003, Gaussian, Inc.),
 the Gaussian(R) 98 system (copyright 1998, Gaussian, Inc.),
 the Gaussian(R) 94 system (copyright 1995, Gaussian, Inc.),
 the Gaussian 92(TM) system (copyright 1992, Gaussian, Inc.),
 the Gaussian 90(TM) system (copyright 1990, Gaussian, Inc.),
 the Gaussian 88(TM) system (copyright 1988, Gaussian, Inc.),
 the Gaussian 86(TM) system (copyright 1986, Carnegie Mellon
 University), and the Gaussian 82(TM) system (copyright 1983,
 Carnegie Mellon University). Gaussian is a federally registered
 trademark of Gaussian, Inc.
  
 This software contains proprietary and confidential information,
 including trade secrets, belonging to Gaussian, Inc.
  
 This software is provided under written license and may be
 used, copied, transmitted, or stored only in accord with that
 written license.
  
 The following legend is applicable only to US Government
 contracts under FAR:
  
                    RESTRICTED RIGHTS LEGEND
  
 Use, reproduction and disclosure by the US Government is
 subject to restrictions as set forth in subparagraphs (a)
 and (c) of the Commercial Computer Software - Restricted
 Rights clause in FAR 52.227-19.
  
 Gaussian, Inc.
 340 Quinnipiac St., Bldg. 40, Wallingford CT 06492
  
  
 ---------------------------------------------------------------
 Warning -- This program may not be used in any manner that
 competes with the business of Gaussian, Inc. or will provide
 assistance to any competitor of Gaussian, Inc.  The licensee
 of this program is prohibited from giving any competitor of
 Gaussian, Inc. access to this program.  By using this program,
 the user acknowledges that Gaussian, Inc. is engaged in the
 business of creating and licensing software in the field of
 computational chemistry and represents and warrants to the
 licensee that it is not a competitor of Gaussian, Inc. and that
 it will not use this program in any manner prohibited above.
 ---------------------------------------------------------------
  

 Cite this work as:
 Gaussian 09, Revision D.01,
 M. J. Frisch, G. W. Trucks, H. B. Schlegel, G. E. Scuseria, 
 M. A. Robb, J. R. Cheeseman, G. Scalmani, V. Barone, B. Mennucci, 
 G. A. Petersson, H. Nakatsuji, M. Caricato, X. Li, H. P. Hratchian, 
 A. F. Izmaylov, J. Bloino, G. Zheng, J. L. Sonnenberg, M. Hada, 
 M. Ehara, K. Toyota, R. Fukuda, J. Hasegawa, M. Ishida, T. Nakajima, 
 Y. Honda, O. Kitao, H. Nakai, T. Vreven, J. A. Montgomery, Jr., 
 J. E. Peralta, F. Ogliaro, M. Bearpark, J. J. Heyd, E. Brothers, 
 K. N. Kudin, V. N. Staroverov, T. Keith, R. Kobayashi, J. Normand, 
 K. Raghavachari, A. Rendell, J. C. Burant, S. S. Iyengar, J. Tomasi, 
 M. Cossi, N. Rega, J. M. Millam, M. Klene, J. E. Knox, J. B. Cross, 
 V. Bakken, C. Adamo, J. Jaramillo, R. Gomperts, R. E. Stratmann, 
 O. Yazyev, A. J. Austin, R. Cammi, C. Pomelli, J. W. Ochterski, 
 R. L. Martin, K. Morokuma, V. G. Zakrzewski, G. A. Voth, 
 P. Salvador, J. J. Dannenberg, S. Dapprich, A. D. Daniels, 
 O. Farkas, J. B. Foresman, J. V. Ortiz, J. Cioslowski, 
 and D. J. Fox, Gaussian, Inc., Wallingford CT, 2013.
 
 ******************************************
 Gaussian 09:  ES64L-G09RevD.01 24-Apr-2013
                26-Aug-2020 
 ******************************************
 %chk=/home/boittier/MDCM/nms_sampling/butadiene_geom.xyz.dir/butadiene_1053.chk
 %nproc=8
 Will use up to    8 processors via shared memory.
 %mem=16000MB
 --------------------
 #p B2PLYPD3/Def2QZVP
 --------------------
 1/38=1/1;
 2/12=2,17=6,18=5,40=1/2;
 3/5=45,7=101,11=9,16=1,25=1,30=1,74=-60/1,2,3;
 4//1;
 5/5=2,38=5/2;
 8/10=1/1;
 9/16=-3/6;
 6/7=2,8=2,9=2,10=2/1;
 99/5=1,9=1/99;
 Leave Link    1 at Wed Aug 26 08:38:27 2020, MaxMem=  2097152000 cpu:         0.2
 (Enter /opt/cluster/programs/g09/g09_d.01/g09/l101.exe)
 ---------
 butadiene
 ---------
 Symbolic Z-matrix:
 Charge =  0 Multiplicity = 1
 C                    -3.84563   0.21303  -0.01862 
 C                    -2.71916  -0.47624   0.08399 
 C                    -1.39619   0.06095   0.03379 
 C                    -0.25796  -0.65928   0.01306 
 H                    -4.80449  -0.26225  -0.01778 
 H                    -3.8337    1.29405   0.06223 
 H                    -2.77292  -1.51413  -0.00941 
 H                    -1.24558   1.14871  -0.05639 
 H                    -0.24482  -1.73577   0.04231 
 H                     0.72101  -0.18676  -0.05109 
 
 NAtoms=     10 NQM=       10 NQMF=       0 NMMI=      0 NMMIF=      0
                NMic=       0 NMicF=      0.
                    Isotopes and Nuclear Properties:
 (Nuclear quadrupole moments (NQMom) in fm**2, nuclear magnetic moments (NMagM)
  in nuclear magnetons)

  Atom         1           2           3           4           5           6           7           8           9          10
 IAtWgt=          12          12          12          12           1           1           1           1           1           1
 AtmWgt=  12.0000000  12.0000000  12.0000000  12.0000000   1.0078250   1.0078250   1.0078250   1.0078250   1.0078250   1.0078250
 NucSpn=           0           0           0           0           1           1           1           1           1           1
 AtZEff=   0.0000000   0.0000000   0.0000000   0.0000000   0.0000000   0.0000000   0.0000000   0.0000000   0.0000000   0.0000000
 NQMom=    0.0000000   0.0000000   0.0000000   0.0000000   0.0000000   0.0000000   0.0000000   0.0000000   0.0000000   0.0000000
 NMagM=    0.0000000   0.0000000   0.0000000   0.0000000   2.7928460   2.7928460   2.7928460   2.7928460   2.7928460   2.7928460
 AtZNuc=   6.0000000   6.0000000   6.0000000   6.0000000   1.0000000   1.0000000   1.0000000   1.0000000   1.0000000   1.0000000
 Leave Link  101 at Wed Aug 26 08:38:27 2020, MaxMem=  2097152000 cpu:         0.5
 (Enter /opt/cluster/programs/g09/g09_d.01/g09/l202.exe)
                          Input orientation:                          
 ---------------------------------------------------------------------
 Center     Atomic      Atomic             Coordinates (Angstroms)
 Number     Number       Type             X           Y           Z
 ---------------------------------------------------------------------
      1          6           0       -3.845631    0.213026   -0.018616
      2          6           0       -2.719163   -0.476242    0.083988
      3          6           0       -1.396186    0.060953    0.033792
      4          6           0       -0.257963   -0.659278    0.013059
      5          1           0       -4.804492   -0.262252   -0.017784
      6          1           0       -3.833701    1.294050    0.062232
      7          1           0       -2.772920   -1.514127   -0.009414
      8          1           0       -1.245584    1.148708   -0.056393
      9          1           0       -0.244815   -1.735772    0.042314
     10          1           0        0.721006   -0.186763   -0.051090
 ---------------------------------------------------------------------
                    Distance matrix (angstroms):
                    1          2          3          4          5
     1  C    0.000000
     2  C    1.324594   0.000000
     3  C    2.454721   1.428764   0.000000
     4  C    3.692327   2.469016   1.347113   0.000000
     5  H    1.070189   2.098749   3.423985   4.563935   0.000000
     6  H    1.084109   2.092033   2.731816   4.074777   1.836005
     7  H    2.033187   1.043465   2.092401   2.656366   2.386325
     8  H    2.763543   2.198091   1.101828   2.061318   3.828593
     9  H    4.094802   2.776788   2.133998   1.076972   4.792236
    10  H    4.584219   3.454968   2.133324   1.088929   5.526114
                    6          7          8          9         10
     6  H    0.000000
     7  H    3.002707   0.000000
     8  H    2.594908   3.070123   0.000000
     9  H    4.696842   2.538330   3.054751   0.000000
    10  H    4.790721   3.737800   2.377181   1.827830   0.000000
 Stoichiometry    C4H6
 Framework group  C1[X(C4H6)]
 Deg. of freedom    24
 Full point group                 C1      NOp   1
 Largest Abelian subgroup         C1      NOp   1
 Largest concise Abelian subgroup C1      NOp   1
                         Standard orientation:                         
 ---------------------------------------------------------------------
 Center     Atomic      Atomic             Coordinates (Angstroms)
 Number     Number       Type             X           Y           Z
 ---------------------------------------------------------------------
      1          6           0       -1.843319    0.099223   -0.037820
      2          6           0       -0.611540   -0.379028    0.054631
      3          6           0        0.593721    0.387487    0.020465
      4          6           0        1.842603   -0.116515   -0.010992
      5          1           0       -2.701463   -0.540101   -0.050379
      6          1           0       -2.025337    1.162940    0.065463
      7          1           0       -0.478405   -1.407545   -0.060463
      8          1           0        0.546908    1.486276   -0.046596
      9          1           0        2.048491   -1.173601   -0.004010
     10          1           0        2.721019    0.525028   -0.061719
 ---------------------------------------------------------------------
 Rotational constants (GHZ):     44.2285014      4.4322845      4.0333666
 Leave Link  202 at Wed Aug 26 08:38:27 2020, MaxMem=  2097152000 cpu:         0.0
 (Enter /opt/cluster/programs/g09/g09_d.01/g09/l301.exe)
 Standard basis: def2QZVP (5D, 7F)
 Ernie: Thresh=  0.10000D-02 Tol=  0.10000D-05 Strict=F.
 There are   498 symmetry adapted cartesian basis functions of A   symmetry.
 There are   408 symmetry adapted basis functions of A   symmetry.
   408 basis functions,   596 primitive gaussians,   498 cartesian basis functions
    15 alpha electrons       15 beta electrons
       nuclear repulsion energy       104.3519648591 Hartrees.
 IExCor=  419 DFT=T Ex+Corr=B2PLYPD3 ExCW=0 ScaHFX=  0.530000
 ScaDFX=  0.470000  0.470000  0.730000  0.730000 ScalE2=  0.270000  0.270000
 IRadAn=      0 IRanWt=     -1 IRanGd=            0 ICorTp=0 IEmpDi=141
 NAtoms=   10 NActive=   10 NUniq=   10 SFac= 1.00D+00 NAtFMM=   60 NAOKFM=F Big=F
 Integral buffers will be    131072 words long.
 Regular integral format.
 Two-electron integral symmetry is turned on.
 R6Disp:  Grimme-D3(BJ) Dispersion energy=       -0.0048302603 Hartrees.
 Nuclear repulsion after empirical dispersion term =      104.3471345989 Hartrees.
 Leave Link  301 at Wed Aug 26 08:38:28 2020, MaxMem=  2097152000 cpu:         0.4
 (Enter /opt/cluster/programs/g09/g09_d.01/g09/l302.exe)
 NPDir=0 NMtPBC=     1 NCelOv=     1 NCel=       1 NClECP=     1 NCelD=      1
         NCelK=      1 NCelE2=     1 NClLst=     1 CellRange=     0.0.
 One-electron integrals computed using PRISM.
   1 Symmetry operations used in ECPInt.
 ECPInt:  NShTT=    8256 NPrTT=   19107 LenC2=    8057 LenP2D=   16113.
 LDataN:  DoStor=T MaxTD1= 8 Len=  415
 NBasis=   408 RedAO= T EigKep=  4.40D-05  NBF=   408
 NBsUse=   408 1.00D-06 EigRej= -1.00D+00 NBFU=   408
 Precomputing XC quadrature grid using
 IXCGrd= 4 IRadAn=           0 IRanWt=          -1 IRanGd=           0 AccXCQ= 0.00D+00.
 Generated NRdTot=       0 NPtTot=           0 NUsed=           0 NTot=          32
 NSgBfM=   498   498   498   498   498 MxSgAt=    10 MxSgA2=    10.
 Leave Link  302 at Wed Aug 26 08:38:28 2020, MaxMem=  2097152000 cpu:         3.1
 (Enter /opt/cluster/programs/g09/g09_d.01/g09/l303.exe)
 DipDrv:  MaxL=1.
 Leave Link  303 at Wed Aug 26 08:38:29 2020, MaxMem=  2097152000 cpu:         0.3
 (Enter /opt/cluster/programs/g09/g09_d.01/g09/l401.exe)
 ExpMin= 7.60D-02 ExpMax= 6.70D+04 ExpMxC= 6.47D+02 IAcc=2 IRadAn=         4 AccDes= 0.00D+00
 Harris functional with IExCor=  419 and IRadAn=       4 diagonalized for initial guess.
 HarFok:  IExCor=  419 AccDes= 0.00D+00 IRadAn=         4 IDoV= 1 UseB2=F ITyADJ=14
 ICtDFT=  3500011 ScaDFX=  1.000000  1.000000  1.000000  1.000000
 FoFCou: FMM=F IPFlag=           0 FMFlag=      100000 FMFlg1=           0
         NFxFlg=           0 DoJE=T BraDBF=F KetDBF=T FulRan=T
         wScrn=  0.000000 ICntrl=     500 IOpCl=  0 I1Cent=   200000004 NGrid=           0
         NMat0=    1 NMatS0=      1 NMatT0=    0 NMatD0=    1 NMtDS0=    0 NMtDT0=    0
 Petite list used in FoFCou.
 Harris En= -156.136450035868    
 JPrj=0 DoOrth=F DoCkMO=F.
 Leave Link  401 at Wed Aug 26 08:38:30 2020, MaxMem=  2097152000 cpu:         8.1
 (Enter /opt/cluster/programs/g09/g09_d.01/g09/l502.exe)
 Closed shell SCF:
 Using DIIS extrapolation, IDIIS=  1040.
 Integral symmetry usage will be decided dynamically.
 IVT=      770090 IEndB=      770090 NGot=  2097152000 MDV=  2096647053
 LenX=  2096647053 LenY=  2096398551
 Requested convergence on RMS density matrix=1.00D-08 within 128 cycles.
 Requested convergence on MAX density matrix=1.00D-06.
 Requested convergence on             energy=1.00D-06.
 No special actions if energy rises.
 Fock matrices will be formed incrementally for  20 cycles.
 Integral accuracy reduced to 1.0D-05 until final iterations.

 Cycle   1  Pass 0  IDiag  1:
 FoFJK:  IHMeth= 1 ICntrl=       0 DoSepK=F KAlg= 0 I1Cent=   0 FoldK=F
 IRaf= 940000000 NMat=   1 IRICut=       1 DoRegI=T DoRafI=F ISym2E= 0.
 FoFCou: FMM=F IPFlag=           0 FMFlag=      100000 FMFlg1=           0
         NFxFlg=           0 DoJE=F BraDBF=F KetDBF=F FulRan=T
         wScrn=  0.000000 ICntrl=       0 IOpCl=  0 I1Cent=           0 NGrid=           0
         NMat0=    1 NMatS0=      1 NMatT0=    0 NMatD0=    1 NMtDS0=    0 NMtDT0=    0
 Symmetry not used in FoFCou.
 E= -155.505938175434    
 DIIS: error= 3.48D-02 at cycle   1 NSaved=   1.
 NSaved= 1 IEnMin= 1 EnMin= -155.505938175434     IErMin= 1 ErrMin= 3.48D-02
 ErrMax= 3.48D-02  0.00D+00 EMaxC= 1.00D-01 BMatC= 2.57D-01 BMatP= 2.57D-01
 IDIUse=3 WtCom= 6.52D-01 WtEn= 3.48D-01
 Coeff-Com:  0.100D+01
 Coeff-En:   0.100D+01
 Coeff:      0.100D+01
 Gap=     0.295 Goal=   None    Shift=    0.000
 GapD=    0.295 DampG=1.000 DampE=0.500 DampFc=0.5000 IDamp=-1.
 Damping current iteration by 5.00D-01
 RMSDP=1.00D-03 MaxDP=5.04D-02              OVMax= 1.96D-01

 Cycle   2  Pass 0  IDiag  1:
 RMSU=  4.64D-04    CP:  9.51D-01
 E= -155.606897162228     Delta-E=       -0.100958986794 Rises=F Damp=T
 DIIS: error= 9.71D-03 at cycle   2 NSaved=   2.
 NSaved= 2 IEnMin= 2 EnMin= -155.606897162228     IErMin= 2 ErrMin= 9.71D-03
 ErrMax= 9.71D-03  0.00D+00 EMaxC= 1.00D-01 BMatC= 3.00D-02 BMatP= 2.57D-01
 IDIUse=3 WtCom= 9.03D-01 WtEn= 9.71D-02
 Coeff-Com: -0.297D+00 0.130D+01
 Coeff-En:   0.000D+00 0.100D+01
 Coeff:     -0.268D+00 0.127D+01
 Gap=     0.353 Goal=   None    Shift=    0.000
 RMSDP=3.08D-04 MaxDP=7.90D-03 DE=-1.01D-01 OVMax= 9.69D-02

 Cycle   3  Pass 0  IDiag  1:
 RMSU=  3.01D-04    CP:  9.33D-01  9.71D-01
 E= -155.694229421976     Delta-E=       -0.087332259748 Rises=F Damp=F
 DIIS: error= 4.55D-03 at cycle   3 NSaved=   3.
 NSaved= 3 IEnMin= 3 EnMin= -155.694229421976     IErMin= 3 ErrMin= 4.55D-03
 ErrMax= 4.55D-03  0.00D+00 EMaxC= 1.00D-01 BMatC= 2.23D-03 BMatP= 3.00D-02
 IDIUse=3 WtCom= 9.55D-01 WtEn= 4.55D-02
 Coeff-Com: -0.119D+00 0.247D+00 0.872D+00
 Coeff-En:   0.000D+00 0.000D+00 0.100D+01
 Coeff:     -0.113D+00 0.236D+00 0.877D+00
 Gap=     0.290 Goal=   None    Shift=    0.000
 RMSDP=7.80D-05 MaxDP=4.32D-03 DE=-8.73D-02 OVMax= 2.60D-02

 Cycle   4  Pass 0  IDiag  1:
 RMSU=  5.83D-05    CP:  9.29D-01  1.07D+00  9.40D-01
 E= -155.695893912291     Delta-E=       -0.001664490315 Rises=F Damp=F
 DIIS: error= 2.83D-03 at cycle   4 NSaved=   4.
 NSaved= 4 IEnMin= 4 EnMin= -155.695893912291     IErMin= 4 ErrMin= 2.83D-03
 ErrMax= 2.83D-03  0.00D+00 EMaxC= 1.00D-01 BMatC= 7.62D-04 BMatP= 2.23D-03
 IDIUse=3 WtCom= 9.72D-01 WtEn= 2.83D-02
 Coeff-Com: -0.529D-01 0.874D-01 0.470D+00 0.496D+00
 Coeff-En:   0.000D+00 0.000D+00 0.161D+00 0.839D+00
 Coeff:     -0.514D-01 0.849D-01 0.461D+00 0.506D+00
 Gap=     0.289 Goal=   None    Shift=    0.000
 RMSDP=3.37D-05 MaxDP=1.46D-03 DE=-1.66D-03 OVMax= 9.86D-03

 Cycle   5  Pass 0  IDiag  1:
 RMSU=  1.75D-05    CP:  9.29D-01  1.06D+00  9.92D-01  5.99D-01
 E= -155.696623070174     Delta-E=       -0.000729157883 Rises=F Damp=F
 DIIS: error= 2.31D-04 at cycle   5 NSaved=   5.
 NSaved= 5 IEnMin= 5 EnMin= -155.696623070174     IErMin= 5 ErrMin= 2.31D-04
 ErrMax= 2.31D-04  0.00D+00 EMaxC= 1.00D-01 BMatC= 4.41D-06 BMatP= 7.62D-04
 IDIUse=3 WtCom= 9.98D-01 WtEn= 2.31D-03
 Coeff-Com: -0.304D-02 0.268D-02 0.369D-01 0.907D-01 0.873D+00
 Coeff-En:   0.000D+00 0.000D+00 0.000D+00 0.000D+00 0.100D+01
 Coeff:     -0.303D-02 0.267D-02 0.368D-01 0.905D-01 0.873D+00
 Gap=     0.290 Goal=   None    Shift=    0.000
 RMSDP=5.17D-06 MaxDP=1.69D-04 DE=-7.29D-04 OVMax= 1.21D-03

 Initial convergence to 1.0D-05 achieved.  Increase integral accuracy.
 Cycle   6  Pass 1  IDiag  1:
 E= -155.696653998562     Delta-E=       -0.000030928388 Rises=F Damp=F
 DIIS: error= 4.24D-05 at cycle   1 NSaved=   1.
 NSaved= 1 IEnMin= 1 EnMin= -155.696653998562     IErMin= 1 ErrMin= 4.24D-05
 ErrMax= 4.24D-05  0.00D+00 EMaxC= 1.00D-01 BMatC= 4.84D-07 BMatP= 4.84D-07
 IDIUse=1 WtCom= 1.00D+00 WtEn= 0.00D+00
 Coeff-Com:  0.100D+01
 Coeff:      0.100D+01
 Gap=     0.290 Goal=   None    Shift=    0.000
 RMSDP=5.17D-06 MaxDP=1.69D-04 DE=-3.09D-05 OVMax= 3.48D-04

 Cycle   7  Pass 1  IDiag  1:
 RMSU=  1.73D-05    CP:  1.00D+00
 E= -155.696654335605     Delta-E=       -0.000000337043 Rises=F Damp=F
 DIIS: error= 2.11D-05 at cycle   2 NSaved=   2.
 NSaved= 2 IEnMin= 2 EnMin= -155.696654335605     IErMin= 2 ErrMin= 2.11D-05
 ErrMax= 2.11D-05  0.00D+00 EMaxC= 1.00D-01 BMatC= 6.12D-08 BMatP= 4.84D-07
 IDIUse=1 WtCom= 1.00D+00 WtEn= 0.00D+00
 Coeff-Com:  0.155D+00 0.845D+00
 Coeff:      0.155D+00 0.845D+00
 Gap=     0.290 Goal=   None    Shift=    0.000
 RMSDP=9.26D-07 MaxDP=2.98D-05 DE=-3.37D-07 OVMax= 2.11D-04

 Cycle   8  Pass 1  IDiag  1:
 RMSU=  7.01D-07    CP:  1.00D+00  1.03D+00
 E= -155.696654366712     Delta-E=       -0.000000031107 Rises=F Damp=F
 DIIS: error= 1.51D-05 at cycle   3 NSaved=   3.
 NSaved= 3 IEnMin= 3 EnMin= -155.696654366712     IErMin= 3 ErrMin= 1.51D-05
 ErrMax= 1.51D-05  0.00D+00 EMaxC= 1.00D-01 BMatC= 4.14D-08 BMatP= 6.12D-08
 IDIUse=1 WtCom= 1.00D+00 WtEn= 0.00D+00
 Coeff-Com: -0.197D-01 0.449D+00 0.570D+00
 Coeff:     -0.197D-01 0.449D+00 0.570D+00
 Gap=     0.290 Goal=   None    Shift=    0.000
 RMSDP=3.74D-07 MaxDP=1.58D-05 DE=-3.11D-08 OVMax= 1.12D-04

 Cycle   9  Pass 1  IDiag  1:
 RMSU=  3.24D-07    CP:  1.00D+00  1.05D+00  9.84D-01
 E= -155.696654409465     Delta-E=       -0.000000042754 Rises=F Damp=F
 DIIS: error= 2.94D-06 at cycle   4 NSaved=   4.
 NSaved= 4 IEnMin= 4 EnMin= -155.696654409465     IErMin= 4 ErrMin= 2.94D-06
 ErrMax= 2.94D-06  0.00D+00 EMaxC= 1.00D-01 BMatC= 3.50D-10 BMatP= 4.14D-08
 IDIUse=1 WtCom= 1.00D+00 WtEn= 0.00D+00
 Coeff-Com: -0.933D-02 0.155D-01 0.649D-01 0.929D+00
 Coeff:     -0.933D-02 0.155D-01 0.649D-01 0.929D+00
 Gap=     0.290 Goal=   None    Shift=    0.000
 RMSDP=8.93D-08 MaxDP=3.71D-06 DE=-4.28D-08 OVMax= 1.90D-05

 Cycle  10  Pass 1  IDiag  1:
 RMSU=  4.60D-08    CP:  1.00D+00  1.05D+00  1.06D+00  1.13D+00
 E= -155.696654410240     Delta-E=       -0.000000000775 Rises=F Damp=F
 DIIS: error= 5.55D-07 at cycle   5 NSaved=   5.
 NSaved= 5 IEnMin= 5 EnMin= -155.696654410240     IErMin= 5 ErrMin= 5.55D-07
 ErrMax= 5.55D-07  0.00D+00 EMaxC= 1.00D-01 BMatC= 6.56D-11 BMatP= 3.50D-10
 IDIUse=1 WtCom= 1.00D+00 WtEn= 0.00D+00
 Coeff-Com:  0.357D-04-0.491D-01-0.530D-01 0.244D+00 0.858D+00
 Coeff:      0.357D-04-0.491D-01-0.530D-01 0.244D+00 0.858D+00
 Gap=     0.290 Goal=   None    Shift=    0.000
 RMSDP=2.77D-08 MaxDP=1.42D-06 DE=-7.75D-10 OVMax= 6.32D-06

 Cycle  11  Pass 1  IDiag  1:
 RMSU=  1.68D-08    CP:  1.00D+00  1.05D+00  1.08D+00  1.18D+00  1.14D+00
 E= -155.696654410352     Delta-E=       -0.000000000112 Rises=F Damp=F
 DIIS: error= 3.31D-07 at cycle   6 NSaved=   6.
 NSaved= 6 IEnMin= 6 EnMin= -155.696654410352     IErMin= 6 ErrMin= 3.31D-07
 ErrMax= 3.31D-07  0.00D+00 EMaxC= 1.00D-01 BMatC= 6.73D-12 BMatP= 6.56D-11
 IDIUse=1 WtCom= 1.00D+00 WtEn= 0.00D+00
 Coeff-Com:  0.678D-03-0.205D-01-0.256D-01 0.347D-01 0.331D+00 0.679D+00
 Coeff:      0.678D-03-0.205D-01-0.256D-01 0.347D-01 0.331D+00 0.679D+00
 Gap=     0.290 Goal=   None    Shift=    0.000
 RMSDP=4.58D-09 MaxDP=2.03D-07 DE=-1.12D-10 OVMax= 1.73D-06

 SCF Done:  E(RB2PLYPD3) =  -155.696654410     A.U. after   11 cycles
            NFock= 11  Conv=0.46D-08     -V/T= 2.0030
 KE= 1.552276615010D+02 PE=-5.696819943823D+02 EE= 1.544105438721D+02
 Leave Link  502 at Wed Aug 26 08:41:13 2020, MaxMem=  2097152000 cpu:      1297.7
 (Enter /opt/cluster/programs/g09/g09_d.01/g09/l801.exe)
 DoSCS=T DFT=T ScalE2(SS,OS)=  0.270000  0.270000
 ExpMin= 7.60D-02 ExpMax= 6.70D+04 ExpMxC= 6.47D+02 IAcc=3 IRadAn=         5 AccDes= 0.00D+00
 HarFok:  IExCor=  205 AccDes= 0.00D+00 IRadAn=         5 IDoV=-2 UseB2=F ITyADJ=14
 ICtDFT= 12500011 ScaDFX=  1.000000  1.000000  1.000000  1.000000
 Largest valence mixing into a core orbital is  1.11D-04
 Largest core mixing into a valence orbital is  1.96D-05
 Range of M.O.s used for correlation:     5   408
 NBasis=   408 NAE=    15 NBE=    15 NFC=     4 NFV=     0
 NROrb=    404 NOA=    11 NOB=    11 NVA=   393 NVB=   393

 **** Warning!!: The largest alpha MO coefficient is  0.25650823D+02

 Leave Link  801 at Wed Aug 26 08:41:13 2020, MaxMem=  2097152000 cpu:         0.8
 (Enter /opt/cluster/programs/g09/g09_d.01/g09/l906.exe)
 DoSCS=T DFT=T ScalE2(SS,OS)=  0.270000  0.270000
 FulOut=F Deriv=F AODrv=F NAtomX=    10
   MMem=         881  MDisk=          11 MDiskD=          11
  W3Min=     2152854 MinDsk=     3857222 NBas6D=         498
 NBas2D=      125763    NTT=      124251    LW2=     4508827
    MDV=  2096382860 MDiskM=        9345 NBas2p=      117238
 Fully direct method using O(OVN) memory.
 IMap=   1   2   3   4   5   6   7   8   9  10  11
 JobTyp=1 Pass  1:  I=   1 to  11 NPSUse=  8 ParTrn=T ParDer=T DoDerP=F.
 Spin components of T(2) and E(2):
     alpha-alpha T2 =       0.4193543627D-01 E2=     -0.2544520962D-01
     alpha-beta  T2 =       0.2712268483D+00 E2=     -0.1748181022D+00
     beta-beta   T2 =       0.4193543627D-01 E2=     -0.2544520962D-01
 The integrals were generated   1 times.
 E2(B2PLYPD3) =    -0.2257085215D+00 E(B2PLYPD3) =    -0.15592236293180D+03
 Leave Link  906 at Wed Aug 26 08:42:49 2020, MaxMem=  2097152000 cpu:       765.6
 (Enter /opt/cluster/programs/g09/g09_d.01/g09/l601.exe)
 Copying SCF densities to generalized density rwf, IOpCl= 0 IROHF=0.

 **********************************************************************

            Population analysis using the SCF density.

 **********************************************************************

 Orbital symmetries:
       Occupied  (A) (A) (A) (A) (A) (A) (A) (A) (A) (A) (A) (A)
                 (A) (A) (A)
       Virtual   (A) (A) (A) (A) (A) (A) (A) (A) (A) (A) (A) (A)
                 (A) (A) (A) (A) (A) (A) (A) (A) (A) (A) (A) (A)
                 (A) (A) (A) (A) (A) (A) (A) (A) (A) (A) (A) (A)
                 (A) (A) (A) (A) (A) (A) (A) (A) (A) (A) (A) (A)
                 (A) (A) (A) (A) (A) (A) (A) (A) (A) (A) (A) (A)
                 (A) (A) (A) (A) (A) (A) (A) (A) (A) (A) (A) (A)
                 (A) (A) (A) (A) (A) (A) (A) (A) (A) (A) (A) (A)
                 (A) (A) (A) (A) (A) (A) (A) (A) (A) (A) (A) (A)
                 (A) (A) (A) (A) (A) (A) (A) (A) (A) (A) (A) (A)
                 (A) (A) (A) (A) (A) (A) (A) (A) (A) (A) (A) (A)
                 (A) (A) (A) (A) (A) (A) (A) (A) (A) (A) (A) (A)
                 (A) (A) (A) (A) (A) (A) (A) (A) (A) (A) (A) (A)
                 (A) (A) (A) (A) (A) (A) (A) (A) (A) (A) (A) (A)
                 (A) (A) (A) (A) (A) (A) (A) (A) (A) (A) (A) (A)
                 (A) (A) (A) (A) (A) (A) (A) (A) (A) (A) (A) (A)
                 (A) (A) (A) (A) (A) (A) (A) (A) (A) (A) (A) (A)
                 (A) (A) (A) (A) (A) (A) (A) (A) (A) (A) (A) (A)
                 (A) (A) (A) (A) (A) (A) (A) (A) (A) (A) (A) (A)
                 (A) (A) (A) (A) (A) (A) (A) (A) (A) (A) (A) (A)
                 (A) (A) (A) (A) (A) (A) (A) (A) (A) (A) (A) (A)
                 (A) (A) (A) (A) (A) (A) (A) (A) (A) (A) (A) (A)
                 (A) (A) (A) (A) (A) (A) (A) (A) (A) (A) (A) (A)
                 (A) (A) (A) (A) (A) (A) (A) (A) (A) (A) (A) (A)
                 (A) (A) (A) (A) (A) (A) (A) (A) (A) (A) (A) (A)
                 (A) (A) (A) (A) (A) (A) (A) (A) (A) (A) (A) (A)
                 (A) (A) (A) (A) (A) (A) (A) (A) (A) (A) (A) (A)
                 (A) (A) (A) (A) (A) (A) (A) (A) (A) (A) (A) (A)
                 (A) (A) (A) (A) (A) (A) (A) (A) (A) (A) (A) (A)
                 (A) (A) (A) (A) (A) (A) (A) (A) (A) (A) (A) (A)
                 (A) (A) (A) (A) (A) (A) (A) (A) (A) (A) (A) (A)
                 (A) (A) (A) (A) (A) (A) (A) (A) (A) (A) (A) (A)
                 (A) (A) (A) (A) (A) (A) (A) (A) (A) (A) (A) (A)
                 (A) (A) (A) (A) (A) (A) (A) (A) (A)
 The electronic state is 1-A.
 Alpha  occ. eigenvalues --  -10.62656 -10.61796 -10.61707 -10.61330  -0.93384
 Alpha  occ. eigenvalues --   -0.85041  -0.70684  -0.64280  -0.54953  -0.54162
 Alpha  occ. eigenvalues --   -0.46729  -0.45427  -0.41232  -0.38345  -0.27623
 Alpha virt. eigenvalues --    0.01380   0.07020   0.07608   0.07994   0.09749
 Alpha virt. eigenvalues --    0.11669   0.12489   0.14799   0.15627   0.16384
 Alpha virt. eigenvalues --    0.18847   0.19886   0.21779   0.23013   0.23894
 Alpha virt. eigenvalues --    0.26558   0.26739   0.29416   0.31974   0.33577
 Alpha virt. eigenvalues --    0.35696   0.36448   0.37610   0.38433   0.39844
 Alpha virt. eigenvalues --    0.41616   0.43851   0.46045   0.46527   0.48108
 Alpha virt. eigenvalues --    0.48930   0.50541   0.53444   0.55257   0.57689
 Alpha virt. eigenvalues --    0.59291   0.62594   0.64380   0.65782   0.68604
 Alpha virt. eigenvalues --    0.69552   0.71643   0.76579   0.77672   0.79241
 Alpha virt. eigenvalues --    0.79608   0.80629   0.81676   0.82583   0.84289
 Alpha virt. eigenvalues --    0.85014   0.86426   0.86803   0.87348   0.90662
 Alpha virt. eigenvalues --    0.92572   0.93225   0.93741   0.95454   0.96498
 Alpha virt. eigenvalues --    0.98528   0.98684   1.00732   1.03050   1.05852
 Alpha virt. eigenvalues --    1.05965   1.07970   1.10254   1.12025   1.12296
 Alpha virt. eigenvalues --    1.13969   1.15026   1.20231   1.22157   1.22629
 Alpha virt. eigenvalues --    1.25601   1.26694   1.34106   1.35233   1.35745
 Alpha virt. eigenvalues --    1.37229   1.40651   1.48074   1.55332   1.61956
 Alpha virt. eigenvalues --    1.64771   1.66186   1.69691   1.72106   1.74965
 Alpha virt. eigenvalues --    1.78219   1.81169   1.82377   1.84006   1.88459
 Alpha virt. eigenvalues --    1.89957   1.91502   1.93009   1.93633   1.94631
 Alpha virt. eigenvalues --    1.96542   1.97953   2.00437   2.01053   2.02356
 Alpha virt. eigenvalues --    2.05286   2.05884   2.07820   2.09004   2.09477
 Alpha virt. eigenvalues --    2.10486   2.13356   2.14114   2.17118   2.19930
 Alpha virt. eigenvalues --    2.21559   2.22534   2.24484   2.26048   2.28185
 Alpha virt. eigenvalues --    2.29569   2.33388   2.34487   2.36794   2.43323
 Alpha virt. eigenvalues --    2.43947   2.45181   2.46685   2.47262   2.49364
 Alpha virt. eigenvalues --    2.52027   2.53596   2.54611   2.57641   2.58458
 Alpha virt. eigenvalues --    2.59229   2.61210   2.63672   2.64970   2.67626
 Alpha virt. eigenvalues --    2.68916   2.70055   2.70906   2.72759   2.73389
 Alpha virt. eigenvalues --    2.74201   2.75113   2.77494   2.78401   2.79741
 Alpha virt. eigenvalues --    2.82737   2.87384   2.90878   2.92889   2.93911
 Alpha virt. eigenvalues --    2.95389   3.03638   3.06374   3.08896   3.11258
 Alpha virt. eigenvalues --    3.13363   3.16676   3.24951   3.33906   3.36225
 Alpha virt. eigenvalues --    3.37899   3.40493   3.42090   3.46500   3.47227
 Alpha virt. eigenvalues --    3.48754   3.53116   3.54000   3.56043   3.59172
 Alpha virt. eigenvalues --    3.62160   3.63085   3.66563   3.69650   3.77417
 Alpha virt. eigenvalues --    3.79740   3.81640   3.86840   3.91048   3.94189
 Alpha virt. eigenvalues --    3.95972   3.96507   4.03844   4.10079   4.14440
 Alpha virt. eigenvalues --    4.17413   4.19144   4.22823   4.26789   4.45796
 Alpha virt. eigenvalues --    4.53601   4.55633   4.59361   4.82565   5.00125
 Alpha virt. eigenvalues --    5.01132   5.04864   5.08896   5.09815   5.11412
 Alpha virt. eigenvalues --    5.12763   5.19054   5.23728   5.27230   5.33834
 Alpha virt. eigenvalues --    5.34896   5.40515   5.44473   5.46309   5.50196
 Alpha virt. eigenvalues --    5.53074   5.55871   5.59008   5.61227   5.64216
 Alpha virt. eigenvalues --    5.66327   5.69673   5.72241   5.75122   5.77291
 Alpha virt. eigenvalues --    5.78966   5.79668   5.84414   5.87420   5.88480
 Alpha virt. eigenvalues --    5.89882   5.92375   5.98603   6.00085   6.03221
 Alpha virt. eigenvalues --    6.06217   6.07329   6.09960   6.11157   6.12337
 Alpha virt. eigenvalues --    6.13988   6.15640   6.18224   6.18569   6.19869
 Alpha virt. eigenvalues --    6.21666   6.25520   6.28407   6.32185   6.34514
 Alpha virt. eigenvalues --    6.35302   6.36272   6.37566   6.38452   6.39996
 Alpha virt. eigenvalues --    6.41107   6.42636   6.46429   6.50774   6.53110
 Alpha virt. eigenvalues --    6.54576   6.58176   6.59971   6.62398   6.63781
 Alpha virt. eigenvalues --    6.65905   6.67702   6.70239   6.74938   6.84185
 Alpha virt. eigenvalues --    6.84930   6.88247   6.88869   6.90580   6.92680
 Alpha virt. eigenvalues --    6.96575   6.97130   7.03139   7.06883   7.11053
 Alpha virt. eigenvalues --    7.15609   7.16582   7.19413   7.22391   7.23787
 Alpha virt. eigenvalues --    7.28232   7.32138   7.35844   7.37533   7.44112
 Alpha virt. eigenvalues --    7.45680   7.50617   7.57744   7.59460   7.61844
 Alpha virt. eigenvalues --    7.64137   7.66042   7.67355   7.68535   7.71147
 Alpha virt. eigenvalues --    7.72121   7.73771   7.75078   7.78794   7.82445
 Alpha virt. eigenvalues --    7.83045   7.86315   7.88863   7.93214   7.94131
 Alpha virt. eigenvalues --    7.97277   7.98288   8.05255   8.09523   8.11081
 Alpha virt. eigenvalues --    8.14105   8.17581   8.18778   8.20897   8.28331
 Alpha virt. eigenvalues --    8.30726   8.32616   8.33039   8.34770   8.37738
 Alpha virt. eigenvalues --    8.38101   8.40594   8.41904   8.44527   8.47302
 Alpha virt. eigenvalues --    8.49104   8.50867   8.54653   8.57421   8.59218
 Alpha virt. eigenvalues --    8.59284   8.63008   8.63998   8.70012   8.73018
 Alpha virt. eigenvalues --    8.76824   8.78109   8.79406   8.84501   8.87505
 Alpha virt. eigenvalues --    8.90414   8.93378   8.94500   9.05224   9.17591
 Alpha virt. eigenvalues --    9.23116   9.26365   9.31543   9.37321   9.50317
 Alpha virt. eigenvalues --    9.60945   9.68891   9.79920   9.87778   9.89232
 Alpha virt. eigenvalues --    9.89577   9.96382  10.03620  10.05918  10.09974
 Alpha virt. eigenvalues --   10.12466  10.14718  10.18415  10.32710  10.40358
 Alpha virt. eigenvalues --   10.43641  10.52271  10.65977  10.68800  10.85599
 Alpha virt. eigenvalues --   11.09321  11.14574  11.43521  11.68656  11.89383
 Alpha virt. eigenvalues --   11.92156  12.83117  13.06255  13.15702  13.22005
 Alpha virt. eigenvalues --   28.66841  28.84971  29.46396  29.71498 148.26491
 Alpha virt. eigenvalues --  148.43840 149.05754 149.33399
          Condensed to atoms (all electrons):
               1          2          3          4          5          6
     1  C    4.835239   0.622958  -0.082132  -0.002965   0.428900   0.422915
     2  C    0.622958   4.837654   0.394223  -0.079377  -0.046958  -0.049592
     3  C   -0.082132   0.394223   4.839920   0.620026   0.007771  -0.007382
     4  C   -0.002965  -0.079377   0.620026   4.846816  -0.000600   0.000180
     5  H    0.428900  -0.046958   0.007771  -0.000600   0.583926  -0.045599
     6  H    0.422915  -0.049592  -0.007382   0.000180  -0.045599   0.600468
     7  H   -0.052819   0.412693  -0.066018  -0.001373  -0.010878   0.008790
     8  H   -0.001943  -0.058350   0.410576  -0.052193  -0.000141   0.004647
     9  H    0.000108  -0.005696  -0.046414   0.421867  -0.000022   0.000047
    10  H   -0.000546   0.006888  -0.044385   0.425308   0.000024  -0.000035
               7          8          9         10
     1  C   -0.052819  -0.001943   0.000108  -0.000546
     2  C    0.412693  -0.058350  -0.005696   0.006888
     3  C   -0.066018   0.410576  -0.046414  -0.044385
     4  C   -0.001373  -0.052193   0.421867   0.425308
     5  H   -0.010878  -0.000141  -0.000022   0.000024
     6  H    0.008790   0.004647   0.000047  -0.000035
     7  H    0.635404   0.007336   0.004344  -0.000089
     8  H    0.007336   0.642191   0.008263  -0.010330
     9  H    0.004344   0.008263   0.600917  -0.046833
    10  H   -0.000089  -0.010330  -0.046833   0.587081
 Mulliken charges:
               1
     1  C   -0.169714
     2  C   -0.034444
     3  C   -0.026186
     4  C   -0.177688
     5  H    0.083578
     6  H    0.065562
     7  H    0.062611
     8  H    0.049944
     9  H    0.063420
    10  H    0.082918
 Sum of Mulliken charges =   0.00000
 Mulliken charges with hydrogens summed into heavy atoms:
               1
     1  C   -0.020574
     2  C    0.028167
     3  C    0.023758
     4  C   -0.031351
 Electronic spatial extent (au):  <R**2>=            335.0967
 Charge=              0.0000 electrons
 Dipole moment (field-independent basis, Debye):
    X=             -0.0085    Y=             -0.0367    Z=             -0.0828  Tot=              0.0910
 Quadrupole moment (field-independent basis, Debye-Ang):
   XX=            -23.2409   YY=            -23.2698   ZZ=            -29.1620
   XY=             -0.0306   XZ=             -0.1562   YZ=              0.1102
 Traceless Quadrupole moment (field-independent basis, Debye-Ang):
   XX=              1.9833   YY=              1.9544   ZZ=             -3.9377
   XY=             -0.0306   XZ=             -0.1562   YZ=              0.1102
 Octapole moment (field-independent basis, Debye-Ang**2):
  XXX=             -0.0902  YYY=             -0.0651  ZZZ=             -0.1268  XYY=              0.1013
  XXY=             -0.2866  XXZ=             -0.4284  XZZ=             -0.2408  YZZ=             -0.1153
  YYZ=             -0.2884  XYZ=             -0.4434
 Hexadecapole moment (field-independent basis, Debye-Ang**3):
 XXXX=           -344.1657 YYYY=            -64.1767 ZZZZ=            -36.7805 XXXY=              5.8178
 XXXZ=             -1.0573 YYYX=             -1.4737 YYYZ=              0.3503 ZZZX=             -0.1601
 ZZZY=              0.1051 XXYY=            -67.9995 XXZZ=            -77.3079 YYZZ=            -18.8280
 XXYZ=              0.3430 YYXZ=             -0.3295 ZZXY=             -0.3978
 N-N= 1.043471345989D+02 E-N=-5.696819839558D+02  KE= 1.552276615010D+02
 Leave Link  601 at Wed Aug 26 08:42:49 2020, MaxMem=  2097152000 cpu:         0.8
 (Enter /opt/cluster/programs/g09/g09_d.01/g09/l9999.exe)
 1\1\GINC-NODE22\SP\RB2PLYPD3-FC\def2QZVP\C4H6\BOITTIER\26-Aug-2020\0\\
 #p B2PLYPD3/Def2QZVP\\butadiene\\0,1\C,0,-3.845631,0.213026,-0.018616\
 C,0,-2.719163,-0.476242,0.083988\C,0,-1.396186,0.060953,0.033792\C,0,-
 0.257963,-0.659278,0.013059\H,0,-4.804492,-0.262252,-0.017784\H,0,-3.8
 33701,1.29405,0.062232\H,0,-2.77292,-1.514127,-0.009414\H,0,-1.245584,
 1.148708,-0.056393\H,0,-0.244815,-1.735772,0.042314\H,0,0.721006,-0.18
 6763,-0.05109\\Version=ES64L-G09RevD.01\State=1-A\HF=-155.6966544\MP2=
 -155.9223629\RMSD=4.579e-09\PG=C01 [X(C4H6)]\\@


 THE GREAT THING ABOUT BEING IMPERFECT IS THE JOY IT BRINGS OTHERS.
   -- SIGN OUTSIDE LAKE AGASSIZ JR. HIGH SCHOOL, FARGO, N.D.
 Job cpu time:       0 days  0 hours 34 minutes 38.0 seconds.
 File lengths (MBytes):  RWF=     92 Int=      0 D2E=      0 Chk=      9 Scr=      1
 Normal termination of Gaussian 09 at Wed Aug 26 08:42:50 2020.
