 Entering Gaussian System, Link 0=/opt/cluster/programs/g09/g09_d.01/g09//g09
 Input=/home/boittier/MDCM/nms_sampling/butadiene_geom.xyz.dir/energies/butadiene_304_energy.com
 Output=/scratch/boittier/butadiene_304_energy/butadiene_304_energy.out
 Initial command:
 /opt/cluster/programs/g09/g09_d.01/g09/l1.exe "/scratch/boittier/butadiene_304_energy/Gau-88116.inp" -scrdir="/scratch/boittier/butadiene_304_energy/"
 Entering Link 1 = /opt/cluster/programs/g09/g09_d.01/g09/l1.exe PID=     88117.
  
 Copyright (c) 1988,1990,1992,1993,1995,1998,2003,2009,2013,
            Gaussian, Inc.  All Rights Reserved.
  
 This is part of the Gaussian(R) 09 program.  It is based on
 the Gaussian(R) 03 system (copyright 2003, Gaussian, Inc.),
 the Gaussian(R) 98 system (copyright 1998, Gaussian, Inc.),
 the Gaussian(R) 94 system (copyright 1995, Gaussian, Inc.),
 the Gaussian 92(TM) system (copyright 1992, Gaussian, Inc.),
 the Gaussian 90(TM) system (copyright 1990, Gaussian, Inc.),
 the Gaussian 88(TM) system (copyright 1988, Gaussian, Inc.),
 the Gaussian 86(TM) system (copyright 1986, Carnegie Mellon
 University), and the Gaussian 82(TM) system (copyright 1983,
 Carnegie Mellon University). Gaussian is a federally registered
 trademark of Gaussian, Inc.
  
 This software contains proprietary and confidential information,
 including trade secrets, belonging to Gaussian, Inc.
  
 This software is provided under written license and may be
 used, copied, transmitted, or stored only in accord with that
 written license.
  
 The following legend is applicable only to US Government
 contracts under FAR:
  
                    RESTRICTED RIGHTS LEGEND
  
 Use, reproduction and disclosure by the US Government is
 subject to restrictions as set forth in subparagraphs (a)
 and (c) of the Commercial Computer Software - Restricted
 Rights clause in FAR 52.227-19.
  
 Gaussian, Inc.
 340 Quinnipiac St., Bldg. 40, Wallingford CT 06492
  
  
 ---------------------------------------------------------------
 Warning -- This program may not be used in any manner that
 competes with the business of Gaussian, Inc. or will provide
 assistance to any competitor of Gaussian, Inc.  The licensee
 of this program is prohibited from giving any competitor of
 Gaussian, Inc. access to this program.  By using this program,
 the user acknowledges that Gaussian, Inc. is engaged in the
 business of creating and licensing software in the field of
 computational chemistry and represents and warrants to the
 licensee that it is not a competitor of Gaussian, Inc. and that
 it will not use this program in any manner prohibited above.
 ---------------------------------------------------------------
  

 Cite this work as:
 Gaussian 09, Revision D.01,
 M. J. Frisch, G. W. Trucks, H. B. Schlegel, G. E. Scuseria, 
 M. A. Robb, J. R. Cheeseman, G. Scalmani, V. Barone, B. Mennucci, 
 G. A. Petersson, H. Nakatsuji, M. Caricato, X. Li, H. P. Hratchian, 
 A. F. Izmaylov, J. Bloino, G. Zheng, J. L. Sonnenberg, M. Hada, 
 M. Ehara, K. Toyota, R. Fukuda, J. Hasegawa, M. Ishida, T. Nakajima, 
 Y. Honda, O. Kitao, H. Nakai, T. Vreven, J. A. Montgomery, Jr., 
 J. E. Peralta, F. Ogliaro, M. Bearpark, J. J. Heyd, E. Brothers, 
 K. N. Kudin, V. N. Staroverov, T. Keith, R. Kobayashi, J. Normand, 
 K. Raghavachari, A. Rendell, J. C. Burant, S. S. Iyengar, J. Tomasi, 
 M. Cossi, N. Rega, J. M. Millam, M. Klene, J. E. Knox, J. B. Cross, 
 V. Bakken, C. Adamo, J. Jaramillo, R. Gomperts, R. E. Stratmann, 
 O. Yazyev, A. J. Austin, R. Cammi, C. Pomelli, J. W. Ochterski, 
 R. L. Martin, K. Morokuma, V. G. Zakrzewski, G. A. Voth, 
 P. Salvador, J. J. Dannenberg, S. Dapprich, A. D. Daniels, 
 O. Farkas, J. B. Foresman, J. V. Ortiz, J. Cioslowski, 
 and D. J. Fox, Gaussian, Inc., Wallingford CT, 2013.
 
 ******************************************
 Gaussian 09:  ES64L-G09RevD.01 24-Apr-2013
                26-Aug-2020 
 ******************************************
 %chk=/home/boittier/MDCM/nms_sampling/butadiene_geom.xyz.dir/butadiene_304.chk
 %nproc=8
 Will use up to    8 processors via shared memory.
 %mem=16000MB
 --------------------
 #p B2PLYPD3/Def2QZVP
 --------------------
 1/38=1/1;
 2/12=2,17=6,18=5,40=1/2;
 3/5=45,7=101,11=9,16=1,25=1,30=1,74=-60/1,2,3;
 4//1;
 5/5=2,38=5/2;
 8/10=1/1;
 9/16=-3/6;
 6/7=2,8=2,9=2,10=2/1;
 99/5=1,9=1/99;
 Leave Link    1 at Wed Aug 26 15:47:04 2020, MaxMem=  2097152000 cpu:         0.2
 (Enter /opt/cluster/programs/g09/g09_d.01/g09/l101.exe)
 ---------
 butadiene
 ---------
 Symbolic Z-matrix:
 Charge =  0 Multiplicity = 1
 C                    -3.85073   0.21505   0.04122 
 C                    -2.72806  -0.48893   0.00466 
 C                    -1.37364   0.08282  -0.00969 
 C                    -0.25708  -0.66384   0.05952 
 H                    -4.7748   -0.28803   0.12388 
 H                    -3.83821   1.30107  -0.00689 
 H                    -2.78311  -1.55902   0.02891 
 H                    -1.31549   1.16522  -0.07249 
 H                    -0.31373  -1.73624   0.05045 
 H                     0.72515  -0.22136   0.05713 
 
 NAtoms=     10 NQM=       10 NQMF=       0 NMMI=      0 NMMIF=      0
                NMic=       0 NMicF=      0.
                    Isotopes and Nuclear Properties:
 (Nuclear quadrupole moments (NQMom) in fm**2, nuclear magnetic moments (NMagM)
  in nuclear magnetons)

  Atom         1           2           3           4           5           6           7           8           9          10
 IAtWgt=          12          12          12          12           1           1           1           1           1           1
 AtmWgt=  12.0000000  12.0000000  12.0000000  12.0000000   1.0078250   1.0078250   1.0078250   1.0078250   1.0078250   1.0078250
 NucSpn=           0           0           0           0           1           1           1           1           1           1
 AtZEff=   0.0000000   0.0000000   0.0000000   0.0000000   0.0000000   0.0000000   0.0000000   0.0000000   0.0000000   0.0000000
 NQMom=    0.0000000   0.0000000   0.0000000   0.0000000   0.0000000   0.0000000   0.0000000   0.0000000   0.0000000   0.0000000
 NMagM=    0.0000000   0.0000000   0.0000000   0.0000000   2.7928460   2.7928460   2.7928460   2.7928460   2.7928460   2.7928460
 AtZNuc=   6.0000000   6.0000000   6.0000000   6.0000000   1.0000000   1.0000000   1.0000000   1.0000000   1.0000000   1.0000000
 Leave Link  101 at Wed Aug 26 15:47:04 2020, MaxMem=  2097152000 cpu:         0.5
 (Enter /opt/cluster/programs/g09/g09_d.01/g09/l202.exe)
                          Input orientation:                          
 ---------------------------------------------------------------------
 Center     Atomic      Atomic             Coordinates (Angstroms)
 Number     Number       Type             X           Y           Z
 ---------------------------------------------------------------------
      1          6           0       -3.850726    0.215046    0.041220
      2          6           0       -2.728057   -0.488928    0.004661
      3          6           0       -1.373642    0.082816   -0.009685
      4          6           0       -0.257082   -0.663835    0.059518
      5          1           0       -4.774800   -0.288034    0.123876
      6          1           0       -3.838206    1.301065   -0.006892
      7          1           0       -2.783107   -1.559018    0.028910
      8          1           0       -1.315491    1.165217   -0.072488
      9          1           0       -0.313734   -1.736235    0.050451
     10          1           0        0.725153   -0.221364    0.057132
 ---------------------------------------------------------------------
                    Distance matrix (angstroms):
                    1          2          3          4          5
     1  C    0.000000
     2  C    1.325633   0.000000
     3  C    2.481133   1.470217   0.000000
     4  C    3.699600   2.477765   1.344984   0.000000
     5  H    1.055383   2.060031   3.423922   4.533778   0.000000
     6  H    1.087156   2.106333   2.749221   4.085302   1.849201
     7  H    2.070571   1.071779   2.164186   2.680129   2.364585
     8  H    2.709829   2.176578   1.085780   2.117330   3.757302
     9  H    4.039541   2.717872   2.106174   1.073934   4.690819
    10  H    4.596670   3.463958   2.121775   1.077298   5.500762
                    6          7          8          9         10
     6  H    0.000000
     7  H    3.048703   0.000000
     8  H    2.527221   3.096068   0.000000
     9  H    4.652997   2.475818   3.071979   0.000000
    10  H    4.811043   3.754731   2.470554   1.836890   0.000000
 Stoichiometry    C4H6
 Framework group  C1[X(C4H6)]
 Deg. of freedom    24
 Full point group                 C1      NOp   1
 Largest Abelian subgroup         C1      NOp   1
 Largest concise Abelian subgroup C1      NOp   1
                         Standard orientation:                         
 ---------------------------------------------------------------------
 Center     Atomic      Atomic             Coordinates (Angstroms)
 Number     Number       Type             X           Y           Z
 ---------------------------------------------------------------------
      1          6           0       -1.846789    0.102013    0.020424
      2          6           0       -0.616508   -0.388799   -0.032615
      3          6           0        0.614082    0.415608   -0.021928
      4          6           0        1.846033   -0.121652    0.029360
      5          1           0       -2.666167   -0.560267    0.082391
      6          1           0       -2.028364    1.173812    0.006738
      7          1           0       -0.479638   -1.451758   -0.042495
      8          1           0        0.478042    1.492461   -0.050178
      9          1           0        1.981720   -1.186100   -0.013900
     10          1           0        2.733505    0.488831    0.046004
 ---------------------------------------------------------------------
 Rotational constants (GHZ):     42.2320188      4.4246617      4.0080538
 Leave Link  202 at Wed Aug 26 15:47:04 2020, MaxMem=  2097152000 cpu:         0.1
 (Enter /opt/cluster/programs/g09/g09_d.01/g09/l301.exe)
 Standard basis: def2QZVP (5D, 7F)
 Ernie: Thresh=  0.10000D-02 Tol=  0.10000D-05 Strict=F.
 There are   498 symmetry adapted cartesian basis functions of A   symmetry.
 There are   408 symmetry adapted basis functions of A   symmetry.
   408 basis functions,   596 primitive gaussians,   498 cartesian basis functions
    15 alpha electrons       15 beta electrons
       nuclear repulsion energy       103.8832464429 Hartrees.
 IExCor=  419 DFT=T Ex+Corr=B2PLYPD3 ExCW=0 ScaHFX=  0.530000
 ScaDFX=  0.470000  0.470000  0.730000  0.730000 ScalE2=  0.270000  0.270000
 IRadAn=      0 IRanWt=     -1 IRanGd=            0 ICorTp=0 IEmpDi=141
 NAtoms=   10 NActive=   10 NUniq=   10 SFac= 1.00D+00 NAtFMM=   60 NAOKFM=F Big=F
 Integral buffers will be    131072 words long.
 Regular integral format.
 Two-electron integral symmetry is turned on.
 R6Disp:  Grimme-D3(BJ) Dispersion energy=       -0.0048325743 Hartrees.
 Nuclear repulsion after empirical dispersion term =      103.8784138686 Hartrees.
 Leave Link  301 at Wed Aug 26 15:47:04 2020, MaxMem=  2097152000 cpu:         0.4
 (Enter /opt/cluster/programs/g09/g09_d.01/g09/l302.exe)
 NPDir=0 NMtPBC=     1 NCelOv=     1 NCel=       1 NClECP=     1 NCelD=      1
         NCelK=      1 NCelE2=     1 NClLst=     1 CellRange=     0.0.
 One-electron integrals computed using PRISM.
   1 Symmetry operations used in ECPInt.
 ECPInt:  NShTT=    8256 NPrTT=   19107 LenC2=    8058 LenP2D=   16115.
 LDataN:  DoStor=T MaxTD1= 8 Len=  415
 NBasis=   408 RedAO= T EigKep=  4.39D-05  NBF=   408
 NBsUse=   408 1.00D-06 EigRej= -1.00D+00 NBFU=   408
 Precomputing XC quadrature grid using
 IXCGrd= 4 IRadAn=           0 IRanWt=          -1 IRanGd=           0 AccXCQ= 0.00D+00.
 Generated NRdTot=       0 NPtTot=           0 NUsed=           0 NTot=          32
 NSgBfM=   498   498   498   498   498 MxSgAt=    10 MxSgA2=    10.
 Leave Link  302 at Wed Aug 26 15:47:04 2020, MaxMem=  2097152000 cpu:         3.7
 (Enter /opt/cluster/programs/g09/g09_d.01/g09/l303.exe)
 DipDrv:  MaxL=1.
 Leave Link  303 at Wed Aug 26 15:47:05 2020, MaxMem=  2097152000 cpu:         0.4
 (Enter /opt/cluster/programs/g09/g09_d.01/g09/l401.exe)
 ExpMin= 7.60D-02 ExpMax= 6.70D+04 ExpMxC= 6.47D+02 IAcc=2 IRadAn=         4 AccDes= 0.00D+00
 Harris functional with IExCor=  419 and IRadAn=       4 diagonalized for initial guess.
 HarFok:  IExCor=  419 AccDes= 0.00D+00 IRadAn=         4 IDoV= 1 UseB2=F ITyADJ=14
 ICtDFT=  3500011 ScaDFX=  1.000000  1.000000  1.000000  1.000000
 FoFCou: FMM=F IPFlag=           0 FMFlag=      100000 FMFlg1=           0
         NFxFlg=           0 DoJE=T BraDBF=F KetDBF=T FulRan=T
         wScrn=  0.000000 ICntrl=     500 IOpCl=  0 I1Cent=   200000004 NGrid=           0
         NMat0=    1 NMatS0=      1 NMatT0=    0 NMatD0=    1 NMtDS0=    0 NMtDT0=    0
 Petite list used in FoFCou.
 Harris En= -156.138509153077    
 JPrj=0 DoOrth=F DoCkMO=F.
 Leave Link  401 at Wed Aug 26 15:47:06 2020, MaxMem=  2097152000 cpu:         9.6
 (Enter /opt/cluster/programs/g09/g09_d.01/g09/l502.exe)
 Closed shell SCF:
 Using DIIS extrapolation, IDIIS=  1040.
 Integral symmetry usage will be decided dynamically.
 IVT=      770090 IEndB=      770090 NGot=  2097152000 MDV=  2096647053
 LenX=  2096647053 LenY=  2096398551
 Requested convergence on RMS density matrix=1.00D-08 within 128 cycles.
 Requested convergence on MAX density matrix=1.00D-06.
 Requested convergence on             energy=1.00D-06.
 No special actions if energy rises.
 Fock matrices will be formed incrementally for  20 cycles.
 Integral accuracy reduced to 1.0D-05 until final iterations.

 Cycle   1  Pass 0  IDiag  1:
 FoFJK:  IHMeth= 1 ICntrl=       0 DoSepK=F KAlg= 0 I1Cent=   0 FoldK=F
 IRaf= 940000000 NMat=   1 IRICut=       1 DoRegI=T DoRafI=F ISym2E= 0.
 FoFCou: FMM=F IPFlag=           0 FMFlag=      100000 FMFlg1=           0
         NFxFlg=           0 DoJE=F BraDBF=F KetDBF=F FulRan=T
         wScrn=  0.000000 ICntrl=       0 IOpCl=  0 I1Cent=           0 NGrid=           0
         NMat0=    1 NMatS0=      1 NMatT0=    0 NMatD0=    1 NMtDS0=    0 NMtDT0=    0
 Symmetry not used in FoFCou.
 E= -155.512173398061    
 DIIS: error= 3.73D-02 at cycle   1 NSaved=   1.
 NSaved= 1 IEnMin= 1 EnMin= -155.512173398061     IErMin= 1 ErrMin= 3.73D-02
 ErrMax= 3.73D-02  0.00D+00 EMaxC= 1.00D-01 BMatC= 2.55D-01 BMatP= 2.55D-01
 IDIUse=3 WtCom= 6.27D-01 WtEn= 3.73D-01
 Coeff-Com:  0.100D+01
 Coeff-En:   0.100D+01
 Coeff:      0.100D+01
 Gap=     0.301 Goal=   None    Shift=    0.000
 GapD=    0.301 DampG=1.000 DampE=0.500 DampFc=0.5000 IDamp=-1.
 Damping current iteration by 5.00D-01
 RMSDP=9.42D-04 MaxDP=5.15D-02              OVMax= 1.93D-01

 Cycle   2  Pass 0  IDiag  1:
 RMSU=  4.32D-04    CP:  9.51D-01
 E= -155.612399324555     Delta-E=       -0.100225926494 Rises=F Damp=T
 DIIS: error= 1.07D-02 at cycle   2 NSaved=   2.
 NSaved= 2 IEnMin= 2 EnMin= -155.612399324555     IErMin= 2 ErrMin= 1.07D-02
 ErrMax= 1.07D-02  0.00D+00 EMaxC= 1.00D-01 BMatC= 2.99D-02 BMatP= 2.55D-01
 IDIUse=3 WtCom= 8.93D-01 WtEn= 1.07D-01
 Coeff-Com: -0.305D+00 0.131D+01
 Coeff-En:   0.000D+00 0.100D+01
 Coeff:     -0.273D+00 0.127D+01
 Gap=     0.357 Goal=   None    Shift=    0.000
 RMSDP=2.59D-04 MaxDP=7.93D-03 DE=-1.00D-01 OVMax= 9.13D-02

 Cycle   3  Pass 0  IDiag  1:
 RMSU=  2.46D-04    CP:  9.33D-01  1.11D+00
 E= -155.698791813913     Delta-E=       -0.086392489359 Rises=F Damp=F
 DIIS: error= 4.17D-03 at cycle   3 NSaved=   3.
 NSaved= 3 IEnMin= 3 EnMin= -155.698791813913     IErMin= 3 ErrMin= 4.17D-03
 ErrMax= 4.17D-03  0.00D+00 EMaxC= 1.00D-01 BMatC= 1.58D-03 BMatP= 2.99D-02
 IDIUse=3 WtCom= 9.58D-01 WtEn= 4.17D-02
 Coeff-Com: -0.106D+00 0.203D+00 0.903D+00
 Coeff-En:   0.000D+00 0.000D+00 0.100D+01
 Coeff:     -0.102D+00 0.195D+00 0.907D+00
 Gap=     0.296 Goal=   None    Shift=    0.000
 RMSDP=6.25D-05 MaxDP=3.60D-03 DE=-8.64D-02 OVMax= 1.93D-02

 Cycle   4  Pass 0  IDiag  1:
 RMSU=  4.40D-05    CP:  9.29D-01  1.20D+00  9.45D-01
 E= -155.700093340056     Delta-E=       -0.001301526142 Rises=F Damp=F
 DIIS: error= 2.45D-03 at cycle   4 NSaved=   4.
 NSaved= 4 IEnMin= 4 EnMin= -155.700093340056     IErMin= 4 ErrMin= 2.45D-03
 ErrMax= 2.45D-03  0.00D+00 EMaxC= 1.00D-01 BMatC= 4.09D-04 BMatP= 1.58D-03
 IDIUse=3 WtCom= 9.76D-01 WtEn= 2.45D-02
 Coeff-Com: -0.485D-01 0.794D-01 0.468D+00 0.501D+00
 Coeff-En:   0.000D+00 0.000D+00 0.511D-01 0.949D+00
 Coeff:     -0.474D-01 0.774D-01 0.458D+00 0.512D+00
 Gap=     0.296 Goal=   None    Shift=    0.000
 RMSDP=2.42D-05 MaxDP=1.20D-03 DE=-1.30D-03 OVMax= 7.55D-03

 Cycle   5  Pass 0  IDiag  1:
 RMSU=  1.49D-05    CP:  9.29D-01  1.20D+00  9.80D-01  6.21D-01
 E= -155.700487519221     Delta-E=       -0.000394179165 Rises=F Damp=F
 DIIS: error= 3.32D-04 at cycle   5 NSaved=   5.
 NSaved= 5 IEnMin= 5 EnMin= -155.700487519221     IErMin= 5 ErrMin= 3.32D-04
 ErrMax= 3.32D-04  0.00D+00 EMaxC= 1.00D-01 BMatC= 6.09D-06 BMatP= 4.09D-04
 IDIUse=3 WtCom= 9.97D-01 WtEn= 3.32D-03
 Coeff-Com: -0.339D-02 0.332D-02 0.425D-01 0.129D+00 0.829D+00
 Coeff-En:   0.000D+00 0.000D+00 0.000D+00 0.000D+00 0.100D+01
 Coeff:     -0.338D-02 0.331D-02 0.424D-01 0.128D+00 0.829D+00
 Gap=     0.296 Goal=   None    Shift=    0.000
 RMSDP=3.72D-06 MaxDP=1.44D-04 DE=-3.94D-04 OVMax= 1.28D-03

 Initial convergence to 1.0D-05 achieved.  Increase integral accuracy.
 Cycle   6  Pass 1  IDiag  1:
 E= -155.700518465891     Delta-E=       -0.000030946671 Rises=F Damp=F
 DIIS: error= 4.81D-05 at cycle   1 NSaved=   1.
 NSaved= 1 IEnMin= 1 EnMin= -155.700518465891     IErMin= 1 ErrMin= 4.81D-05
 ErrMax= 4.81D-05  0.00D+00 EMaxC= 1.00D-01 BMatC= 4.74D-07 BMatP= 4.74D-07
 IDIUse=1 WtCom= 1.00D+00 WtEn= 0.00D+00
 Coeff-Com:  0.100D+01
 Coeff:      0.100D+01
 Gap=     0.296 Goal=   None    Shift=    0.000
 RMSDP=3.72D-06 MaxDP=1.44D-04 DE=-3.09D-05 OVMax= 3.05D-04

 Cycle   7  Pass 1  IDiag  1:
 RMSU=  1.66D-05    CP:  1.00D+00
 E= -155.700518781236     Delta-E=       -0.000000315345 Rises=F Damp=F
 DIIS: error= 1.97D-05 at cycle   2 NSaved=   2.
 NSaved= 2 IEnMin= 2 EnMin= -155.700518781236     IErMin= 2 ErrMin= 1.97D-05
 ErrMax= 1.97D-05  0.00D+00 EMaxC= 1.00D-01 BMatC= 4.34D-08 BMatP= 4.74D-07
 IDIUse=1 WtCom= 1.00D+00 WtEn= 0.00D+00
 Coeff-Com:  0.125D+00 0.875D+00
 Coeff:      0.125D+00 0.875D+00
 Gap=     0.296 Goal=   None    Shift=    0.000
 RMSDP=7.82D-07 MaxDP=2.39D-05 DE=-3.15D-07 OVMax= 1.41D-04

 Cycle   8  Pass 1  IDiag  1:
 RMSU=  5.50D-07    CP:  1.00D+00  1.03D+00
 E= -155.700518806898     Delta-E=       -0.000000025662 Rises=F Damp=F
 DIIS: error= 1.34D-05 at cycle   3 NSaved=   3.
 NSaved= 3 IEnMin= 3 EnMin= -155.700518806898     IErMin= 3 ErrMin= 1.34D-05
 ErrMax= 1.34D-05  0.00D+00 EMaxC= 1.00D-01 BMatC= 2.56D-08 BMatP= 4.34D-08
 IDIUse=1 WtCom= 1.00D+00 WtEn= 0.00D+00
 Coeff-Com: -0.143D-01 0.429D+00 0.585D+00
 Coeff:     -0.143D-01 0.429D+00 0.585D+00
 Gap=     0.296 Goal=   None    Shift=    0.000
 RMSDP=2.53D-07 MaxDP=1.41D-05 DE=-2.57D-08 OVMax= 7.81D-05

 Cycle   9  Pass 1  IDiag  1:
 RMSU=  2.18D-07    CP:  1.00D+00  1.04D+00  9.47D-01
 E= -155.700518831600     Delta-E=       -0.000000024702 Rises=F Damp=F
 DIIS: error= 3.76D-06 at cycle   4 NSaved=   4.
 NSaved= 4 IEnMin= 4 EnMin= -155.700518831600     IErMin= 4 ErrMin= 3.76D-06
 ErrMax= 3.76D-06  0.00D+00 EMaxC= 1.00D-01 BMatC= 5.59D-10 BMatP= 2.56D-08
 IDIUse=1 WtCom= 1.00D+00 WtEn= 0.00D+00
 Coeff-Com: -0.103D-01 0.772D-01 0.163D+00 0.770D+00
 Coeff:     -0.103D-01 0.772D-01 0.163D+00 0.770D+00
 Gap=     0.296 Goal=   None    Shift=    0.000
 RMSDP=5.83D-08 MaxDP=1.93D-06 DE=-2.47D-08 OVMax= 1.70D-05

 Cycle  10  Pass 1  IDiag  1:
 RMSU=  4.40D-08    CP:  1.00D+00  1.04D+00  1.00D+00  1.07D+00
 E= -155.700518832384     Delta-E=       -0.000000000784 Rises=F Damp=F
 DIIS: error= 7.54D-07 at cycle   5 NSaved=   5.
 NSaved= 5 IEnMin= 5 EnMin= -155.700518832384     IErMin= 5 ErrMin= 7.54D-07
 ErrMax= 7.54D-07  0.00D+00 EMaxC= 1.00D-01 BMatC= 9.65D-11 BMatP= 5.59D-10
 IDIUse=1 WtCom= 1.00D+00 WtEn= 0.00D+00
 Coeff-Com: -0.102D-02-0.402D-01-0.402D-01 0.253D+00 0.829D+00
 Coeff:     -0.102D-02-0.402D-01-0.402D-01 0.253D+00 0.829D+00
 Gap=     0.296 Goal=   None    Shift=    0.000
 RMSDP=2.73D-08 MaxDP=1.39D-06 DE=-7.84D-10 OVMax= 8.07D-06

 Cycle  11  Pass 1  IDiag  1:
 RMSU=  1.77D-08    CP:  1.00D+00  1.04D+00  1.02D+00  1.15D+00  1.04D+00
 E= -155.700518832534     Delta-E=       -0.000000000151 Rises=F Damp=F
 DIIS: error= 2.64D-07 at cycle   6 NSaved=   6.
 NSaved= 6 IEnMin= 6 EnMin= -155.700518832534     IErMin= 6 ErrMin= 2.64D-07
 ErrMax= 2.64D-07  0.00D+00 EMaxC= 1.00D-01 BMatC= 6.29D-12 BMatP= 9.65D-11
 IDIUse=1 WtCom= 1.00D+00 WtEn= 0.00D+00
 Coeff-Com:  0.619D-03-0.208D-01-0.294D-01 0.176D-01 0.271D+00 0.761D+00
 Coeff:      0.619D-03-0.208D-01-0.294D-01 0.176D-01 0.271D+00 0.761D+00
 Gap=     0.296 Goal=   None    Shift=    0.000
 RMSDP=5.74D-09 MaxDP=1.77D-07 DE=-1.51D-10 OVMax= 1.87D-06

 SCF Done:  E(RB2PLYPD3) =  -155.700518833     A.U. after   11 cycles
            NFock= 11  Conv=0.57D-08     -V/T= 2.0035
 KE= 1.551633302168D+02 PE=-5.687143086777D+02 EE= 1.539720457598D+02
 Leave Link  502 at Wed Aug 26 15:50:09 2020, MaxMem=  2097152000 cpu:      1461.9
 (Enter /opt/cluster/programs/g09/g09_d.01/g09/l801.exe)
 DoSCS=T DFT=T ScalE2(SS,OS)=  0.270000  0.270000
 ExpMin= 7.60D-02 ExpMax= 6.70D+04 ExpMxC= 6.47D+02 IAcc=3 IRadAn=         5 AccDes= 0.00D+00
 HarFok:  IExCor=  205 AccDes= 0.00D+00 IRadAn=         5 IDoV=-2 UseB2=F ITyADJ=14
 ICtDFT= 12500011 ScaDFX=  1.000000  1.000000  1.000000  1.000000
 Largest valence mixing into a core orbital is  1.10D-04
 Largest core mixing into a valence orbital is  1.99D-05
 Range of M.O.s used for correlation:     5   408
 NBasis=   408 NAE=    15 NBE=    15 NFC=     4 NFV=     0
 NROrb=    404 NOA=    11 NOB=    11 NVA=   393 NVB=   393

 **** Warning!!: The largest alpha MO coefficient is  0.25206547D+02

 Leave Link  801 at Wed Aug 26 15:50:09 2020, MaxMem=  2097152000 cpu:         1.0
 (Enter /opt/cluster/programs/g09/g09_d.01/g09/l906.exe)
 DoSCS=T DFT=T ScalE2(SS,OS)=  0.270000  0.270000
 FulOut=F Deriv=F AODrv=F NAtomX=    10
   MMem=         881  MDisk=          11 MDiskD=          11
  W3Min=     2152854 MinDsk=     3857222 NBas6D=         498
 NBas2D=      125763    NTT=      124251    LW2=     4508827
    MDV=  2096382902 MDiskM=        9345 NBas2p=      117359
 Fully direct method using O(OVN) memory.
 IMap=   1   2   3   4   5   6   7   8   9  10  11
 JobTyp=1 Pass  1:  I=   1 to  11 NPSUse=  8 ParTrn=T ParDer=T DoDerP=F.
 Spin components of T(2) and E(2):
     alpha-alpha T2 =       0.4181941582D-01 E2=     -0.2536287617D-01
     alpha-beta  T2 =       0.2705556822D+00 E2=     -0.1746904905D+00
     beta-beta   T2 =       0.4181941582D-01 E2=     -0.2536287617D-01
 The integrals were generated   1 times.
 E2(B2PLYPD3) =    -0.2254162429D+00 E(B2PLYPD3) =    -0.15592593507543D+03
 Leave Link  906 at Wed Aug 26 15:51:57 2020, MaxMem=  2097152000 cpu:       856.7
 (Enter /opt/cluster/programs/g09/g09_d.01/g09/l601.exe)
 Copying SCF densities to generalized density rwf, IOpCl= 0 IROHF=0.

 **********************************************************************

            Population analysis using the SCF density.

 **********************************************************************

 Orbital symmetries:
       Occupied  (A) (A) (A) (A) (A) (A) (A) (A) (A) (A) (A) (A)
                 (A) (A) (A)
       Virtual   (A) (A) (A) (A) (A) (A) (A) (A) (A) (A) (A) (A)
                 (A) (A) (A) (A) (A) (A) (A) (A) (A) (A) (A) (A)
                 (A) (A) (A) (A) (A) (A) (A) (A) (A) (A) (A) (A)
                 (A) (A) (A) (A) (A) (A) (A) (A) (A) (A) (A) (A)
                 (A) (A) (A) (A) (A) (A) (A) (A) (A) (A) (A) (A)
                 (A) (A) (A) (A) (A) (A) (A) (A) (A) (A) (A) (A)
                 (A) (A) (A) (A) (A) (A) (A) (A) (A) (A) (A) (A)
                 (A) (A) (A) (A) (A) (A) (A) (A) (A) (A) (A) (A)
                 (A) (A) (A) (A) (A) (A) (A) (A) (A) (A) (A) (A)
                 (A) (A) (A) (A) (A) (A) (A) (A) (A) (A) (A) (A)
                 (A) (A) (A) (A) (A) (A) (A) (A) (A) (A) (A) (A)
                 (A) (A) (A) (A) (A) (A) (A) (A) (A) (A) (A) (A)
                 (A) (A) (A) (A) (A) (A) (A) (A) (A) (A) (A) (A)
                 (A) (A) (A) (A) (A) (A) (A) (A) (A) (A) (A) (A)
                 (A) (A) (A) (A) (A) (A) (A) (A) (A) (A) (A) (A)
                 (A) (A) (A) (A) (A) (A) (A) (A) (A) (A) (A) (A)
                 (A) (A) (A) (A) (A) (A) (A) (A) (A) (A) (A) (A)
                 (A) (A) (A) (A) (A) (A) (A) (A) (A) (A) (A) (A)
                 (A) (A) (A) (A) (A) (A) (A) (A) (A) (A) (A) (A)
                 (A) (A) (A) (A) (A) (A) (A) (A) (A) (A) (A) (A)
                 (A) (A) (A) (A) (A) (A) (A) (A) (A) (A) (A) (A)
                 (A) (A) (A) (A) (A) (A) (A) (A) (A) (A) (A) (A)
                 (A) (A) (A) (A) (A) (A) (A) (A) (A) (A) (A) (A)
                 (A) (A) (A) (A) (A) (A) (A) (A) (A) (A) (A) (A)
                 (A) (A) (A) (A) (A) (A) (A) (A) (A) (A) (A) (A)
                 (A) (A) (A) (A) (A) (A) (A) (A) (A) (A) (A) (A)
                 (A) (A) (A) (A) (A) (A) (A) (A) (A) (A) (A) (A)
                 (A) (A) (A) (A) (A) (A) (A) (A) (A) (A) (A) (A)
                 (A) (A) (A) (A) (A) (A) (A) (A) (A) (A) (A) (A)
                 (A) (A) (A) (A) (A) (A) (A) (A) (A) (A) (A) (A)
                 (A) (A) (A) (A) (A) (A) (A) (A) (A) (A) (A) (A)
                 (A) (A) (A) (A) (A) (A) (A) (A) (A) (A) (A) (A)
                 (A) (A) (A) (A) (A) (A) (A) (A) (A)
 The electronic state is 1-A.
 Alpha  occ. eigenvalues --  -10.62808 -10.62261 -10.61565 -10.61097  -0.92772
 Alpha  occ. eigenvalues --   -0.85062  -0.70191  -0.64185  -0.54714  -0.54001
 Alpha  occ. eigenvalues --   -0.46853  -0.45953  -0.41160  -0.37849  -0.27782
 Alpha virt. eigenvalues --    0.01829   0.07024   0.07461   0.08146   0.09536
 Alpha virt. eigenvalues --    0.11694   0.12434   0.14723   0.15928   0.16079
 Alpha virt. eigenvalues --    0.18839   0.20538   0.21503   0.22941   0.24018
 Alpha virt. eigenvalues --    0.26690   0.27005   0.29285   0.31994   0.35057
 Alpha virt. eigenvalues --    0.36003   0.36768   0.37984   0.38597   0.40508
 Alpha virt. eigenvalues --    0.42888   0.43517   0.45746   0.46900   0.47814
 Alpha virt. eigenvalues --    0.49095   0.49629   0.51817   0.56031   0.57382
 Alpha virt. eigenvalues --    0.57500   0.59978   0.64249   0.66545   0.68744
 Alpha virt. eigenvalues --    0.68946   0.71600   0.77197   0.77495   0.78688
 Alpha virt. eigenvalues --    0.80048   0.80678   0.81653   0.82532   0.84376
 Alpha virt. eigenvalues --    0.84528   0.85989   0.86278   0.87037   0.90494
 Alpha virt. eigenvalues --    0.91993   0.93382   0.94117   0.95668   0.96489
 Alpha virt. eigenvalues --    0.98786   0.99290   1.00368   1.03037   1.05514
 Alpha virt. eigenvalues --    1.05605   1.08608   1.10588   1.11169   1.12462
 Alpha virt. eigenvalues --    1.14442   1.19015   1.19494   1.20750   1.23590
 Alpha virt. eigenvalues --    1.24430   1.25780   1.34268   1.34412   1.36396
 Alpha virt. eigenvalues --    1.37703   1.41740   1.47698   1.62871   1.64759
 Alpha virt. eigenvalues --    1.66755   1.68317   1.71186   1.72806   1.73036
 Alpha virt. eigenvalues --    1.75146   1.80523   1.82607   1.84443   1.87592
 Alpha virt. eigenvalues --    1.89613   1.90490   1.90902   1.93120   1.94011
 Alpha virt. eigenvalues --    1.94430   1.98726   2.00065   2.00793   2.02189
 Alpha virt. eigenvalues --    2.03669   2.05706   2.06615   2.08325   2.10209
 Alpha virt. eigenvalues --    2.10700   2.11047   2.13616   2.16910   2.18522
 Alpha virt. eigenvalues --    2.19336   2.21274   2.23434   2.25657   2.28905
 Alpha virt. eigenvalues --    2.30615   2.32306   2.33280   2.38374   2.42782
 Alpha virt. eigenvalues --    2.44272   2.46279   2.46662   2.48444   2.50480
 Alpha virt. eigenvalues --    2.52878   2.54167   2.56633   2.56976   2.58134
 Alpha virt. eigenvalues --    2.59145   2.63291   2.63343   2.64550   2.64767
 Alpha virt. eigenvalues --    2.67066   2.69220   2.70233   2.71634   2.72195
 Alpha virt. eigenvalues --    2.72725   2.75505   2.76678   2.78952   2.79232
 Alpha virt. eigenvalues --    2.80957   2.88834   2.91129   2.92226   2.93559
 Alpha virt. eigenvalues --    2.95607   3.02962   3.06282   3.08821   3.11303
 Alpha virt. eigenvalues --    3.12360   3.14454   3.25436   3.35078   3.37170
 Alpha virt. eigenvalues --    3.38412   3.39780   3.44613   3.47660   3.48055
 Alpha virt. eigenvalues --    3.49188   3.50730   3.53258   3.56697   3.59943
 Alpha virt. eigenvalues --    3.61957   3.63221   3.63696   3.70426   3.79672
 Alpha virt. eigenvalues --    3.80358   3.84175   3.87755   3.89737   3.93657
 Alpha virt. eigenvalues --    3.95692   3.97205   3.99238   4.06316   4.14951
 Alpha virt. eigenvalues --    4.16965   4.17665   4.23353   4.25537   4.45855
 Alpha virt. eigenvalues --    4.55074   4.58217   4.58960   4.85004   4.99897
 Alpha virt. eigenvalues --    5.00721   5.04079   5.04540   5.05874   5.07763
 Alpha virt. eigenvalues --    5.13275   5.18637   5.19620   5.28781   5.30599
 Alpha virt. eigenvalues --    5.32905   5.39335   5.40574   5.46478   5.50034
 Alpha virt. eigenvalues --    5.52549   5.54666   5.58434   5.59393   5.61383
 Alpha virt. eigenvalues --    5.65418   5.68095   5.76028   5.76964   5.78048
 Alpha virt. eigenvalues --    5.79354   5.80628   5.83156   5.84963   5.87559
 Alpha virt. eigenvalues --    5.89150   5.91224   5.98967   6.00772   6.04583
 Alpha virt. eigenvalues --    6.05848   6.07214   6.08644   6.10083   6.11637
 Alpha virt. eigenvalues --    6.14038   6.16077   6.17144   6.19239   6.20372
 Alpha virt. eigenvalues --    6.23204   6.23970   6.29622   6.32072   6.35155
 Alpha virt. eigenvalues --    6.36326   6.37086   6.37761   6.38397   6.39242
 Alpha virt. eigenvalues --    6.39847   6.41614   6.44452   6.51766   6.53288
 Alpha virt. eigenvalues --    6.55387   6.57028   6.57824   6.59501   6.63225
 Alpha virt. eigenvalues --    6.65212   6.67012   6.71644   6.73718   6.79068
 Alpha virt. eigenvalues --    6.81646   6.86156   6.88600   6.92479   6.92861
 Alpha virt. eigenvalues --    6.94957   6.95720   7.01243   7.07211   7.11298
 Alpha virt. eigenvalues --    7.13990   7.15280   7.19122   7.20027   7.23296
 Alpha virt. eigenvalues --    7.26510   7.28357   7.35569   7.37988   7.44963
 Alpha virt. eigenvalues --    7.47393   7.50086   7.56214   7.58008   7.59813
 Alpha virt. eigenvalues --    7.62958   7.64984   7.65601   7.67477   7.68011
 Alpha virt. eigenvalues --    7.69500   7.72182   7.75260   7.76289   7.77590
 Alpha virt. eigenvalues --    7.79488   7.83575   7.86735   7.92052   7.93355
 Alpha virt. eigenvalues --    7.94820   7.96733   8.07972   8.09531   8.12975
 Alpha virt. eigenvalues --    8.14452   8.17265   8.18388   8.19741   8.23339
 Alpha virt. eigenvalues --    8.29193   8.31102   8.33322   8.34958   8.36707
 Alpha virt. eigenvalues --    8.37199   8.38164   8.38655   8.42225   8.47176
 Alpha virt. eigenvalues --    8.49785   8.52609   8.56667   8.57859   8.58737
 Alpha virt. eigenvalues --    8.59871   8.62383   8.62925   8.68341   8.71312
 Alpha virt. eigenvalues --    8.75734   8.78073   8.79777   8.81302   8.86388
 Alpha virt. eigenvalues --    8.90260   8.91292   8.96347   9.05481   9.17777
 Alpha virt. eigenvalues --    9.24094   9.25488   9.32984   9.38119   9.46911
 Alpha virt. eigenvalues --    9.59358   9.66025   9.78024   9.88671   9.89178
 Alpha virt. eigenvalues --    9.93158   9.97437  10.01640  10.03332  10.05167
 Alpha virt. eigenvalues --   10.06774  10.12500  10.29320  10.36738  10.38682
 Alpha virt. eigenvalues --   10.41259  10.45071  10.52904  10.68144  10.85851
 Alpha virt. eigenvalues --   11.12986  11.13196  11.53726  11.74288  11.79917
 Alpha virt. eigenvalues --   11.85446  12.90046  13.08102  13.22204  13.27603
 Alpha virt. eigenvalues --   28.66951  28.78749  29.49162  29.67231 148.26459
 Alpha virt. eigenvalues --  148.37201 149.08739 149.28502
          Condensed to atoms (all electrons):
               1          2          3          4          5          6
     1  C    4.839386   0.614064  -0.078225  -0.002069   0.429156   0.426648
     2  C    0.614064   4.837236   0.402760  -0.078280  -0.050538  -0.047103
     3  C   -0.078225   0.402760   4.839554   0.618841   0.007744  -0.007758
     4  C   -0.002069  -0.078280   0.618841   4.834803  -0.000664   0.000220
     5  H    0.429156  -0.050538   0.007744  -0.000664   0.579300  -0.042824
     6  H    0.426648  -0.047103  -0.007758   0.000220  -0.042824   0.591445
     7  H   -0.049839   0.410220  -0.061820  -0.001075  -0.010317   0.007950
     8  H   -0.000432  -0.060754   0.408115  -0.046956  -0.000196   0.004653
     9  H    0.000300  -0.007625  -0.047015   0.426083  -0.000044   0.000047
    10  H   -0.000604   0.007410  -0.044926   0.424619   0.000027  -0.000031
               7          8          9         10
     1  C   -0.049839  -0.000432   0.000300  -0.000604
     2  C    0.410220  -0.060754  -0.007625   0.007410
     3  C   -0.061820   0.408115  -0.047015  -0.044926
     4  C   -0.001075  -0.046956   0.426083   0.424619
     5  H   -0.010317  -0.000196  -0.000044   0.000027
     6  H    0.007950   0.004653   0.000047  -0.000031
     7  H    0.639488   0.006917   0.004495  -0.000088
     8  H    0.006917   0.633967   0.007357  -0.008379
     9  H    0.004495   0.007357   0.593941  -0.044719
    10  H   -0.000088  -0.008379  -0.044719   0.580187
 Mulliken charges:
               1
     1  C   -0.178386
     2  C   -0.027389
     3  C   -0.037269
     4  C   -0.175522
     5  H    0.088355
     6  H    0.066752
     7  H    0.054067
     8  H    0.055706
     9  H    0.067180
    10  H    0.086505
 Sum of Mulliken charges =   0.00000
 Mulliken charges with hydrogens summed into heavy atoms:
               1
     1  C   -0.023278
     2  C    0.026678
     3  C    0.018437
     4  C   -0.021837
 Electronic spatial extent (au):  <R**2>=            336.0664
 Charge=              0.0000 electrons
 Dipole moment (field-independent basis, Debye):
    X=              0.0064    Y=             -0.0161    Z=             -0.0130  Tot=              0.0217
 Quadrupole moment (field-independent basis, Debye-Ang):
   XX=            -23.4890   YY=            -23.0395   ZZ=            -29.2477
   XY=             -0.1241   XZ=             -0.1642   YZ=             -0.0215
 Traceless Quadrupole moment (field-independent basis, Debye-Ang):
   XX=              1.7698   YY=              2.2193   ZZ=             -3.9890
   XY=             -0.1241   XZ=             -0.1642   YZ=             -0.0215
 Octapole moment (field-independent basis, Debye-Ang**2):
  XXX=              0.6295  YYY=             -0.0354  ZZZ=             -0.0381  XYY=             -0.2672
  XXY=             -0.1628  XXZ=              0.6143  XZZ=             -0.1512  YZZ=             -0.0616
  YYZ=             -0.2006  XYZ=              0.2585
 Hexadecapole moment (field-independent basis, Debye-Ang**3):
 XXXX=           -345.9630 YYYY=            -64.9924 ZZZZ=            -36.9025 XXXY=              5.9835
 XXXZ=             -1.2438 YYYX=             -1.8806 YYYZ=             -0.0479 ZZZX=             -0.3065
 ZZZY=             -0.0272 XXYY=            -68.1274 XXZZ=            -77.1657 YYZZ=            -19.1609
 XXYZ=             -0.0999 YYXZ=             -0.2239 ZZXY=             -0.3869
 N-N= 1.038784138686D+02 E-N=-5.687143031653D+02  KE= 1.551633302168D+02
 Leave Link  601 at Wed Aug 26 15:51:57 2020, MaxMem=  2097152000 cpu:         0.7
 (Enter /opt/cluster/programs/g09/g09_d.01/g09/l9999.exe)
 1\1\GINC-NODE12\SP\RB2PLYPD3-FC\def2QZVP\C4H6\BOITTIER\26-Aug-2020\0\\
 #p B2PLYPD3/Def2QZVP\\butadiene\\0,1\C,0,-3.850726,0.215046,0.04122\C,
 0,-2.728057,-0.488928,0.004661\C,0,-1.373642,0.082816,-0.009685\C,0,-0
 .257082,-0.663835,0.059518\H,0,-4.7748,-0.288034,0.123876\H,0,-3.83820
 6,1.301065,-0.006892\H,0,-2.783107,-1.559018,0.02891\H,0,-1.315491,1.1
 65217,-0.072488\H,0,-0.313734,-1.736235,0.050451\H,0,0.725153,-0.22136
 4,0.057132\\Version=ES64L-G09RevD.01\State=1-A\HF=-155.7005188\MP2=-15
 5.9259351\RMSD=5.743e-09\PG=C01 [X(C4H6)]\\@


 ACTORS ARE SO FORTUNATE.  THEY CAN CHOOSE WHETHER
 THEY WILL APPEAR IN A TRAGEDY OR IN COMEDY,
 WHETHER THEY WILL SUFFER OF MAKE MERRY,
 LAUGH OR SHED TEARS.  BUT IN REAL LIFE IT IS DIFFERENT.
 MOST MEN AND WOMEN ARE FORCED TO PERFORM
 PARTS FOR WHICH THEY HAVE NO QUALIFICATIONS.
 THE WORLD IS A STAGE, BUT THE PLAY IS BADLY CAST.

                                   -- OSCAR WILDE
 Job cpu time:       0 days  0 hours 38 minutes 55.7 seconds.
 File lengths (MBytes):  RWF=     92 Int=      0 D2E=      0 Chk=      9 Scr=      1
 Normal termination of Gaussian 09 at Wed Aug 26 15:51:57 2020.
