 Entering Gaussian System, Link 0=/opt/cluster/programs/g09/g09_d.01/g09//g09
 Input=/home/boittier/MDCM/nms_sampling/butadiene_geom.xyz.dir/energies/butadiene_1834_energy.com
 Output=/scratch/boittier/butadiene_1834_energy/butadiene_1834_energy.out
 Initial command:
 /opt/cluster/programs/g09/g09_d.01/g09/l1.exe "/scratch/boittier/butadiene_1834_energy/Gau-155811.inp" -scrdir="/scratch/boittier/butadiene_1834_energy/"
 Entering Link 1 = /opt/cluster/programs/g09/g09_d.01/g09/l1.exe PID=    155812.
  
 Copyright (c) 1988,1990,1992,1993,1995,1998,2003,2009,2013,
            Gaussian, Inc.  All Rights Reserved.
  
 This is part of the Gaussian(R) 09 program.  It is based on
 the Gaussian(R) 03 system (copyright 2003, Gaussian, Inc.),
 the Gaussian(R) 98 system (copyright 1998, Gaussian, Inc.),
 the Gaussian(R) 94 system (copyright 1995, Gaussian, Inc.),
 the Gaussian 92(TM) system (copyright 1992, Gaussian, Inc.),
 the Gaussian 90(TM) system (copyright 1990, Gaussian, Inc.),
 the Gaussian 88(TM) system (copyright 1988, Gaussian, Inc.),
 the Gaussian 86(TM) system (copyright 1986, Carnegie Mellon
 University), and the Gaussian 82(TM) system (copyright 1983,
 Carnegie Mellon University). Gaussian is a federally registered
 trademark of Gaussian, Inc.
  
 This software contains proprietary and confidential information,
 including trade secrets, belonging to Gaussian, Inc.
  
 This software is provided under written license and may be
 used, copied, transmitted, or stored only in accord with that
 written license.
  
 The following legend is applicable only to US Government
 contracts under FAR:
  
                    RESTRICTED RIGHTS LEGEND
  
 Use, reproduction and disclosure by the US Government is
 subject to restrictions as set forth in subparagraphs (a)
 and (c) of the Commercial Computer Software - Restricted
 Rights clause in FAR 52.227-19.
  
 Gaussian, Inc.
 340 Quinnipiac St., Bldg. 40, Wallingford CT 06492
  
  
 ---------------------------------------------------------------
 Warning -- This program may not be used in any manner that
 competes with the business of Gaussian, Inc. or will provide
 assistance to any competitor of Gaussian, Inc.  The licensee
 of this program is prohibited from giving any competitor of
 Gaussian, Inc. access to this program.  By using this program,
 the user acknowledges that Gaussian, Inc. is engaged in the
 business of creating and licensing software in the field of
 computational chemistry and represents and warrants to the
 licensee that it is not a competitor of Gaussian, Inc. and that
 it will not use this program in any manner prohibited above.
 ---------------------------------------------------------------
  

 Cite this work as:
 Gaussian 09, Revision D.01,
 M. J. Frisch, G. W. Trucks, H. B. Schlegel, G. E. Scuseria, 
 M. A. Robb, J. R. Cheeseman, G. Scalmani, V. Barone, B. Mennucci, 
 G. A. Petersson, H. Nakatsuji, M. Caricato, X. Li, H. P. Hratchian, 
 A. F. Izmaylov, J. Bloino, G. Zheng, J. L. Sonnenberg, M. Hada, 
 M. Ehara, K. Toyota, R. Fukuda, J. Hasegawa, M. Ishida, T. Nakajima, 
 Y. Honda, O. Kitao, H. Nakai, T. Vreven, J. A. Montgomery, Jr., 
 J. E. Peralta, F. Ogliaro, M. Bearpark, J. J. Heyd, E. Brothers, 
 K. N. Kudin, V. N. Staroverov, T. Keith, R. Kobayashi, J. Normand, 
 K. Raghavachari, A. Rendell, J. C. Burant, S. S. Iyengar, J. Tomasi, 
 M. Cossi, N. Rega, J. M. Millam, M. Klene, J. E. Knox, J. B. Cross, 
 V. Bakken, C. Adamo, J. Jaramillo, R. Gomperts, R. E. Stratmann, 
 O. Yazyev, A. J. Austin, R. Cammi, C. Pomelli, J. W. Ochterski, 
 R. L. Martin, K. Morokuma, V. G. Zakrzewski, G. A. Voth, 
 P. Salvador, J. J. Dannenberg, S. Dapprich, A. D. Daniels, 
 O. Farkas, J. B. Foresman, J. V. Ortiz, J. Cioslowski, 
 and D. J. Fox, Gaussian, Inc., Wallingford CT, 2013.
 
 ******************************************
 Gaussian 09:  ES64L-G09RevD.01 24-Apr-2013
                26-Aug-2020 
 ******************************************
 %chk=/home/boittier/MDCM/nms_sampling/butadiene_geom.xyz.dir/butadiene_1834.chk
 %nproc=8
 Will use up to    8 processors via shared memory.
 %mem=16000MB
 --------------------
 #p B2PLYPD3/Def2QZVP
 --------------------
 1/38=1/1;
 2/12=2,17=6,18=5,40=1/2;
 3/5=45,7=101,11=9,16=1,25=1,30=1,74=-60/1,2,3;
 4//1;
 5/5=2,38=5/2;
 8/10=1/1;
 9/16=-3/6;
 6/7=2,8=2,9=2,10=2/1;
 99/5=1,9=1/99;
 Leave Link    1 at Wed Aug 26 10:52:36 2020, MaxMem=  2097152000 cpu:         0.6
 (Enter /opt/cluster/programs/g09/g09_d.01/g09/l101.exe)
 ---------
 butadiene
 ---------
 Symbolic Z-matrix:
 Charge =  0 Multiplicity = 1
 C                    -3.82274   0.23718   0.0329 
 C                    -2.72501  -0.50366   0.03249 
 C                    -1.39389   0.05406  -0.01671 
 C                    -0.25623  -0.65115   0.04196 
 H                    -4.82227  -0.25237   0.01332 
 H                    -3.79837   1.31251   0.09847 
 H                    -2.7899   -1.58855  -0.07948 
 H                    -1.44992   1.16645  -0.08726 
 H                    -0.27343  -1.72555   0.19811 
 H                     0.69691  -0.16973   0.0711 
 
 NAtoms=     10 NQM=       10 NQMF=       0 NMMI=      0 NMMIF=      0
                NMic=       0 NMicF=      0.
                    Isotopes and Nuclear Properties:
 (Nuclear quadrupole moments (NQMom) in fm**2, nuclear magnetic moments (NMagM)
  in nuclear magnetons)

  Atom         1           2           3           4           5           6           7           8           9          10
 IAtWgt=          12          12          12          12           1           1           1           1           1           1
 AtmWgt=  12.0000000  12.0000000  12.0000000  12.0000000   1.0078250   1.0078250   1.0078250   1.0078250   1.0078250   1.0078250
 NucSpn=           0           0           0           0           1           1           1           1           1           1
 AtZEff=   0.0000000   0.0000000   0.0000000   0.0000000   0.0000000   0.0000000   0.0000000   0.0000000   0.0000000   0.0000000
 NQMom=    0.0000000   0.0000000   0.0000000   0.0000000   0.0000000   0.0000000   0.0000000   0.0000000   0.0000000   0.0000000
 NMagM=    0.0000000   0.0000000   0.0000000   0.0000000   2.7928460   2.7928460   2.7928460   2.7928460   2.7928460   2.7928460
 AtZNuc=   6.0000000   6.0000000   6.0000000   6.0000000   1.0000000   1.0000000   1.0000000   1.0000000   1.0000000   1.0000000
 Leave Link  101 at Wed Aug 26 10:52:37 2020, MaxMem=  2097152000 cpu:         0.6
 (Enter /opt/cluster/programs/g09/g09_d.01/g09/l202.exe)
                          Input orientation:                          
 ---------------------------------------------------------------------
 Center     Atomic      Atomic             Coordinates (Angstroms)
 Number     Number       Type             X           Y           Z
 ---------------------------------------------------------------------
      1          6           0       -3.822741    0.237179    0.032900
      2          6           0       -2.725012   -0.503658    0.032492
      3          6           0       -1.393889    0.054060   -0.016712
      4          6           0       -0.256225   -0.651145    0.041961
      5          1           0       -4.822272   -0.252373    0.013322
      6          1           0       -3.798367    1.312513    0.098465
      7          1           0       -2.789898   -1.588552   -0.079484
      8          1           0       -1.449916    1.166452   -0.087260
      9          1           0       -0.273427   -1.725552    0.198114
     10          1           0        0.696907   -0.169725    0.071102
 ---------------------------------------------------------------------
                    Distance matrix (angstroms):
                    1          2          3          4          5
     1  C    0.000000
     2  C    1.324329   0.000000
     3  C    2.436250   1.444077   0.000000
     4  C    3.675492   2.473207   1.339790   0.000000
     5  H    1.113152   2.112347   3.442181   4.583517   0.000000
     6  H    1.077607   2.110668   2.716337   4.050422   1.872031
     7  H    2.100640   1.092586   2.156607   2.704252   2.434036
     8  H    2.551134   2.104632   1.116034   2.178361   3.660050
     9  H    4.059216   2.744217   2.113907   1.085832   4.785018
    10  H    4.538089   3.438391   2.104571   1.068211   5.520100
                    6          7          8          9         10
     6  H    0.000000
     7  H    3.076500   0.000000
     8  H    2.360307   3.063602   0.000000
     9  H    4.654565   2.535440   3.135164   0.000000
    10  H    4.733420   3.767434   2.533633   1.838009   0.000000
 Stoichiometry    C4H6
 Framework group  C1[X(C4H6)]
 Deg. of freedom    24
 Full point group                 C1      NOp   1
 Largest Abelian subgroup         C1      NOp   1
 Largest concise Abelian subgroup C1      NOp   1
                         Standard orientation:                         
 ---------------------------------------------------------------------
 Center     Atomic      Atomic             Coordinates (Angstroms)
 Number     Number       Type             X           Y           Z
 ---------------------------------------------------------------------
      1          6           0        1.821598   -0.116551    0.018134
      2          6           0        0.605808    0.408242    0.000979
      3          6           0       -0.598981   -0.387033   -0.036180
      4          6           0       -1.847686    0.096650    0.006512
      5          1           0        2.713426    0.548911   -0.012046
      6          1           0        1.996230   -1.176147    0.107561
      7          1           0        0.469423    1.483713   -0.135049
      8          1           0       -0.337888   -1.471129   -0.081988
      9          1           0       -2.030164    1.158837    0.138767
     10          1           0       -2.695461   -0.552031    0.046084
 ---------------------------------------------------------------------
 Rotational constants (GHZ):     42.4474735      4.4792898      4.0567727
 Leave Link  202 at Wed Aug 26 10:52:37 2020, MaxMem=  2097152000 cpu:         0.1
 (Enter /opt/cluster/programs/g09/g09_d.01/g09/l301.exe)
 Standard basis: def2QZVP (5D, 7F)
 Ernie: Thresh=  0.10000D-02 Tol=  0.10000D-05 Strict=F.
 There are   498 symmetry adapted cartesian basis functions of A   symmetry.
 There are   408 symmetry adapted basis functions of A   symmetry.
   408 basis functions,   596 primitive gaussians,   498 cartesian basis functions
    15 alpha electrons       15 beta electrons
       nuclear repulsion energy       104.1243286718 Hartrees.
 IExCor=  419 DFT=T Ex+Corr=B2PLYPD3 ExCW=0 ScaHFX=  0.530000
 ScaDFX=  0.470000  0.470000  0.730000  0.730000 ScalE2=  0.270000  0.270000
 IRadAn=      0 IRanWt=     -1 IRanGd=            0 ICorTp=0 IEmpDi=141
 NAtoms=   10 NActive=   10 NUniq=   10 SFac= 1.00D+00 NAtFMM=   60 NAOKFM=F Big=F
 Integral buffers will be    131072 words long.
 Regular integral format.
 Two-electron integral symmetry is turned on.
 R6Disp:  Grimme-D3(BJ) Dispersion energy=       -0.0048457029 Hartrees.
 Nuclear repulsion after empirical dispersion term =      104.1194829689 Hartrees.
 Leave Link  301 at Wed Aug 26 10:52:37 2020, MaxMem=  2097152000 cpu:         0.6
 (Enter /opt/cluster/programs/g09/g09_d.01/g09/l302.exe)
 NPDir=0 NMtPBC=     1 NCelOv=     1 NCel=       1 NClECP=     1 NCelD=      1
         NCelK=      1 NCelE2=     1 NClLst=     1 CellRange=     0.0.
 One-electron integrals computed using PRISM.
   1 Symmetry operations used in ECPInt.
 ECPInt:  NShTT=    8256 NPrTT=   19107 LenC2=    8058 LenP2D=   16122.
 LDataN:  DoStor=T MaxTD1= 8 Len=  415
 NBasis=   408 RedAO= T EigKep=  4.61D-05  NBF=   408
 NBsUse=   408 1.00D-06 EigRej= -1.00D+00 NBFU=   408
 Precomputing XC quadrature grid using
 IXCGrd= 4 IRadAn=           0 IRanWt=          -1 IRanGd=           0 AccXCQ= 0.00D+00.
 Generated NRdTot=       0 NPtTot=           0 NUsed=           0 NTot=          32
 NSgBfM=   498   498   498   498   498 MxSgAt=    10 MxSgA2=    10.
 Leave Link  302 at Wed Aug 26 10:52:37 2020, MaxMem=  2097152000 cpu:         4.2
 (Enter /opt/cluster/programs/g09/g09_d.01/g09/l303.exe)
 DipDrv:  MaxL=1.
 Leave Link  303 at Wed Aug 26 10:52:37 2020, MaxMem=  2097152000 cpu:         0.5
 (Enter /opt/cluster/programs/g09/g09_d.01/g09/l401.exe)
 ExpMin= 7.60D-02 ExpMax= 6.70D+04 ExpMxC= 6.47D+02 IAcc=2 IRadAn=         4 AccDes= 0.00D+00
 Harris functional with IExCor=  419 and IRadAn=       4 diagonalized for initial guess.
 HarFok:  IExCor=  419 AccDes= 0.00D+00 IRadAn=         4 IDoV= 1 UseB2=F ITyADJ=14
 ICtDFT=  3500011 ScaDFX=  1.000000  1.000000  1.000000  1.000000
 FoFCou: FMM=F IPFlag=           0 FMFlag=      100000 FMFlg1=           0
         NFxFlg=           0 DoJE=T BraDBF=F KetDBF=T FulRan=T
         wScrn=  0.000000 ICntrl=     500 IOpCl=  0 I1Cent=   200000004 NGrid=           0
         NMat0=    1 NMatS0=      1 NMatT0=    0 NMatD0=    1 NMtDS0=    0 NMtDT0=    0
 Petite list used in FoFCou.
 Harris En= -156.131410754589    
 JPrj=0 DoOrth=F DoCkMO=F.
 Leave Link  401 at Wed Aug 26 10:52:39 2020, MaxMem=  2097152000 cpu:        11.0
 (Enter /opt/cluster/programs/g09/g09_d.01/g09/l502.exe)
 Closed shell SCF:
 Using DIIS extrapolation, IDIIS=  1040.
 Integral symmetry usage will be decided dynamically.
 IVT=      770090 IEndB=      770090 NGot=  2097152000 MDV=  2096647053
 LenX=  2096647053 LenY=  2096398551
 Requested convergence on RMS density matrix=1.00D-08 within 128 cycles.
 Requested convergence on MAX density matrix=1.00D-06.
 Requested convergence on             energy=1.00D-06.
 No special actions if energy rises.
 Fock matrices will be formed incrementally for  20 cycles.
 Integral accuracy reduced to 1.0D-05 until final iterations.

 Cycle   1  Pass 0  IDiag  1:
 FoFJK:  IHMeth= 1 ICntrl=       0 DoSepK=F KAlg= 0 I1Cent=   0 FoldK=F
 IRaf= 940000000 NMat=   1 IRICut=       1 DoRegI=T DoRafI=F ISym2E= 0.
 FoFCou: FMM=F IPFlag=           0 FMFlag=      100000 FMFlg1=           0
         NFxFlg=           0 DoJE=F BraDBF=F KetDBF=F FulRan=T
         wScrn=  0.000000 ICntrl=       0 IOpCl=  0 I1Cent=           0 NGrid=           0
         NMat0=    1 NMatS0=      1 NMatT0=    0 NMatD0=    1 NMtDS0=    0 NMtDT0=    0
 Symmetry not used in FoFCou.
 E= -155.508255413889    
 DIIS: error= 3.57D-02 at cycle   1 NSaved=   1.
 NSaved= 1 IEnMin= 1 EnMin= -155.508255413889     IErMin= 1 ErrMin= 3.57D-02
 ErrMax= 3.57D-02  0.00D+00 EMaxC= 1.00D-01 BMatC= 2.54D-01 BMatP= 2.54D-01
 IDIUse=3 WtCom= 6.43D-01 WtEn= 3.57D-01
 Coeff-Com:  0.100D+01
 Coeff-En:   0.100D+01
 Coeff:      0.100D+01
 Gap=     0.298 Goal=   None    Shift=    0.000
 GapD=    0.298 DampG=1.000 DampE=0.500 DampFc=0.5000 IDamp=-1.
 Damping current iteration by 5.00D-01
 RMSDP=9.68D-04 MaxDP=5.11D-02              OVMax= 1.94D-01

 Cycle   2  Pass 0  IDiag  1:
 RMSU=  4.45D-04    CP:  9.50D-01
 E= -155.608031073725     Delta-E=       -0.099775659836 Rises=F Damp=T
 DIIS: error= 9.49D-03 at cycle   2 NSaved=   2.
 NSaved= 2 IEnMin= 2 EnMin= -155.608031073725     IErMin= 2 ErrMin= 9.49D-03
 ErrMax= 9.49D-03  0.00D+00 EMaxC= 1.00D-01 BMatC= 2.96D-02 BMatP= 2.54D-01
 IDIUse=3 WtCom= 9.05D-01 WtEn= 9.49D-02
 Coeff-Com: -0.292D+00 0.129D+01
 Coeff-En:   0.000D+00 0.100D+01
 Coeff:     -0.264D+00 0.126D+01
 Gap=     0.357 Goal=   None    Shift=    0.000
 RMSDP=2.77D-04 MaxDP=8.17D-03 DE=-9.98D-02 OVMax= 9.60D-02

 Cycle   3  Pass 0  IDiag  1:
 RMSU=  2.68D-04    CP:  9.33D-01  1.05D+00
 E= -155.694554289064     Delta-E=       -0.086523215339 Rises=F Damp=F
 DIIS: error= 4.51D-03 at cycle   3 NSaved=   3.
 NSaved= 3 IEnMin= 3 EnMin= -155.694554289064     IErMin= 3 ErrMin= 4.51D-03
 ErrMax= 4.51D-03  0.00D+00 EMaxC= 1.00D-01 BMatC= 2.13D-03 BMatP= 2.96D-02
 IDIUse=3 WtCom= 9.55D-01 WtEn= 4.51D-02
 Coeff-Com: -0.117D+00 0.237D+00 0.879D+00
 Coeff-En:   0.000D+00 0.000D+00 0.100D+01
 Coeff:     -0.111D+00 0.227D+00 0.885D+00
 Gap=     0.294 Goal=   None    Shift=    0.000
 RMSDP=7.42D-05 MaxDP=4.32D-03 DE=-8.65D-02 OVMax= 2.44D-02

 Cycle   4  Pass 0  IDiag  1:
 RMSU=  5.39D-05    CP:  9.29D-01  1.15D+00  9.30D-01
 E= -155.696192691699     Delta-E=       -0.001638402635 Rises=F Damp=F
 DIIS: error= 3.00D-03 at cycle   4 NSaved=   4.
 NSaved= 4 IEnMin= 4 EnMin= -155.696192691699     IErMin= 4 ErrMin= 3.00D-03
 ErrMax= 3.00D-03  0.00D+00 EMaxC= 1.00D-01 BMatC= 6.82D-04 BMatP= 2.13D-03
 IDIUse=3 WtCom= 9.70D-01 WtEn= 3.00D-02
 Coeff-Com: -0.530D-01 0.868D-01 0.472D+00 0.495D+00
 Coeff-En:   0.000D+00 0.000D+00 0.137D+00 0.863D+00
 Coeff:     -0.514D-01 0.842D-01 0.462D+00 0.506D+00
 Gap=     0.293 Goal=   None    Shift=    0.000
 RMSDP=3.02D-05 MaxDP=1.48D-03 DE=-1.64D-03 OVMax= 9.41D-03

 Cycle   5  Pass 0  IDiag  1:
 RMSU=  1.58D-05    CP:  9.29D-01  1.15D+00  9.75D-01  5.84D-01
 E= -155.696847808114     Delta-E=       -0.000655116415 Rises=F Damp=F
 DIIS: error= 2.75D-04 at cycle   5 NSaved=   5.
 NSaved= 5 IEnMin= 5 EnMin= -155.696847808114     IErMin= 5 ErrMin= 2.75D-04
 ErrMax= 2.75D-04  0.00D+00 EMaxC= 1.00D-01 BMatC= 4.50D-06 BMatP= 6.82D-04
 IDIUse=3 WtCom= 9.97D-01 WtEn= 2.75D-03
 Coeff-Com: -0.268D-02 0.217D-02 0.331D-01 0.921D-01 0.875D+00
 Coeff-En:   0.000D+00 0.000D+00 0.000D+00 0.000D+00 0.100D+01
 Coeff:     -0.268D-02 0.216D-02 0.331D-01 0.918D-01 0.876D+00
 Gap=     0.294 Goal=   None    Shift=    0.000
 RMSDP=4.13D-06 MaxDP=1.24D-04 DE=-6.55D-04 OVMax= 1.19D-03

 Initial convergence to 1.0D-05 achieved.  Increase integral accuracy.
 Cycle   6  Pass 1  IDiag  1:
 E= -155.696863487168     Delta-E=       -0.000015679054 Rises=F Damp=F
 DIIS: error= 4.38D-05 at cycle   1 NSaved=   1.
 NSaved= 1 IEnMin= 1 EnMin= -155.696863487168     IErMin= 1 ErrMin= 4.38D-05
 ErrMax= 4.38D-05  0.00D+00 EMaxC= 1.00D-01 BMatC= 4.63D-07 BMatP= 4.63D-07
 IDIUse=1 WtCom= 1.00D+00 WtEn= 0.00D+00
 Coeff-Com:  0.100D+01
 Coeff:      0.100D+01
 Gap=     0.294 Goal=   None    Shift=    0.000
 RMSDP=4.13D-06 MaxDP=1.24D-04 DE=-1.57D-05 OVMax= 3.14D-04

 Cycle   7  Pass 1  IDiag  1:
 RMSU=  1.53D-05    CP:  1.00D+00
 E= -155.696863803688     Delta-E=       -0.000000316520 Rises=F Damp=F
 DIIS: error= 2.05D-05 at cycle   2 NSaved=   2.
 NSaved= 2 IEnMin= 2 EnMin= -155.696863803688     IErMin= 2 ErrMin= 2.05D-05
 ErrMax= 2.05D-05  0.00D+00 EMaxC= 1.00D-01 BMatC= 4.00D-08 BMatP= 4.63D-07
 IDIUse=1 WtCom= 1.00D+00 WtEn= 0.00D+00
 Coeff-Com:  0.109D+00 0.891D+00
 Coeff:      0.109D+00 0.891D+00
 Gap=     0.294 Goal=   None    Shift=    0.000
 RMSDP=7.11D-07 MaxDP=2.31D-05 DE=-3.17D-07 OVMax= 1.52D-04

 Cycle   8  Pass 1  IDiag  1:
 RMSU=  5.26D-07    CP:  1.00D+00  1.03D+00
 E= -155.696863822587     Delta-E=       -0.000000018899 Rises=F Damp=F
 DIIS: error= 1.86D-05 at cycle   3 NSaved=   3.
 NSaved= 3 IEnMin= 3 EnMin= -155.696863822587     IErMin= 3 ErrMin= 1.86D-05
 ErrMax= 1.86D-05  0.00D+00 EMaxC= 1.00D-01 BMatC= 2.97D-08 BMatP= 4.00D-08
 IDIUse=1 WtCom= 1.00D+00 WtEn= 0.00D+00
 Coeff-Com: -0.169D-01 0.461D+00 0.556D+00
 Coeff:     -0.169D-01 0.461D+00 0.556D+00
 Gap=     0.294 Goal=   None    Shift=    0.000
 RMSDP=2.40D-07 MaxDP=1.35D-05 DE=-1.89D-08 OVMax= 9.59D-05

 Cycle   9  Pass 1  IDiag  1:
 RMSU=  2.05D-07    CP:  1.00D+00  1.04D+00  8.37D-01
 E= -155.696863852952     Delta-E=       -0.000000030365 Rises=F Damp=F
 DIIS: error= 3.31D-06 at cycle   4 NSaved=   4.
 NSaved= 4 IEnMin= 4 EnMin= -155.696863852952     IErMin= 4 ErrMin= 3.31D-06
 ErrMax= 3.31D-06  0.00D+00 EMaxC= 1.00D-01 BMatC= 3.99D-10 BMatP= 2.97D-08
 IDIUse=1 WtCom= 1.00D+00 WtEn= 0.00D+00
 Coeff-Com: -0.880D-02 0.205D-01 0.944D-01 0.894D+00
 Coeff:     -0.880D-02 0.205D-01 0.944D-01 0.894D+00
 Gap=     0.294 Goal=   None    Shift=    0.000
 RMSDP=5.80D-08 MaxDP=2.17D-06 DE=-3.04D-08 OVMax= 1.72D-05

 Cycle  10  Pass 1  IDiag  1:
 RMSU=  4.04D-08    CP:  1.00D+00  1.04D+00  9.01D-01  1.09D+00
 E= -155.696863853682     Delta-E=       -0.000000000730 Rises=F Damp=F
 DIIS: error= 5.45D-07 at cycle   5 NSaved=   5.
 NSaved= 5 IEnMin= 5 EnMin= -155.696863853682     IErMin= 5 ErrMin= 5.45D-07
 ErrMax= 5.45D-07  0.00D+00 EMaxC= 1.00D-01 BMatC= 5.56D-11 BMatP= 3.99D-10
 IDIUse=1 WtCom= 1.00D+00 WtEn= 0.00D+00
 Coeff-Com: -0.282D-03-0.483D-01-0.382D-01 0.231D+00 0.856D+00
 Coeff:     -0.282D-03-0.483D-01-0.382D-01 0.231D+00 0.856D+00
 Gap=     0.294 Goal=   None    Shift=    0.000
 RMSDP=2.16D-08 MaxDP=1.38D-06 DE=-7.30D-10 OVMax= 6.09D-06

 Cycle  11  Pass 1  IDiag  1:
 RMSU=  1.56D-08    CP:  1.00D+00  1.04D+00  9.13D-01  1.15D+00  1.13D+00
 E= -155.696863853768     Delta-E=       -0.000000000086 Rises=F Damp=F
 DIIS: error= 2.15D-07 at cycle   6 NSaved=   6.
 NSaved= 6 IEnMin= 6 EnMin= -155.696863853768     IErMin= 6 ErrMin= 2.15D-07
 ErrMax= 2.15D-07  0.00D+00 EMaxC= 1.00D-01 BMatC= 6.26D-12 BMatP= 5.56D-11
 IDIUse=1 WtCom= 1.00D+00 WtEn= 0.00D+00
 Coeff-Com:  0.617D-03-0.208D-01-0.218D-01 0.214D-01 0.328D+00 0.692D+00
 Coeff:      0.617D-03-0.208D-01-0.218D-01 0.214D-01 0.328D+00 0.692D+00
 Gap=     0.294 Goal=   None    Shift=    0.000
 RMSDP=4.72D-09 MaxDP=1.87D-07 DE=-8.63D-11 OVMax= 1.60D-06

 SCF Done:  E(RB2PLYPD3) =  -155.696863854     A.U. after   11 cycles
            NFock= 11  Conv=0.47D-08     -V/T= 2.0039
 KE= 1.550950548982D+02 PE=-5.691360708536D+02 EE= 1.542246691327D+02
 Leave Link  502 at Wed Aug 26 10:55:53 2020, MaxMem=  2097152000 cpu:      1548.7
 (Enter /opt/cluster/programs/g09/g09_d.01/g09/l801.exe)
 DoSCS=T DFT=T ScalE2(SS,OS)=  0.270000  0.270000
 ExpMin= 7.60D-02 ExpMax= 6.70D+04 ExpMxC= 6.47D+02 IAcc=3 IRadAn=         5 AccDes= 0.00D+00
 HarFok:  IExCor=  205 AccDes= 0.00D+00 IRadAn=         5 IDoV=-2 UseB2=F ITyADJ=14
 ICtDFT= 12500011 ScaDFX=  1.000000  1.000000  1.000000  1.000000
 Largest valence mixing into a core orbital is  1.11D-04
 Largest core mixing into a valence orbital is  2.00D-05
 Range of M.O.s used for correlation:     5   408
 NBasis=   408 NAE=    15 NBE=    15 NFC=     4 NFV=     0
 NROrb=    404 NOA=    11 NOB=    11 NVA=   393 NVB=   393

 **** Warning!!: The largest alpha MO coefficient is  0.28387435D+02

 Leave Link  801 at Wed Aug 26 10:55:53 2020, MaxMem=  2097152000 cpu:         1.2
 (Enter /opt/cluster/programs/g09/g09_d.01/g09/l906.exe)
 DoSCS=T DFT=T ScalE2(SS,OS)=  0.270000  0.270000
 FulOut=F Deriv=F AODrv=F NAtomX=    10
   MMem=         881  MDisk=          11 MDiskD=          11
  W3Min=     2152854 MinDsk=     3857222 NBas6D=         498
 NBas2D=      125763    NTT=      124251    LW2=     4508827
    MDV=  2096382420 MDiskM=        9345 NBas2p=      117505
 Fully direct method using O(OVN) memory.
 IMap=   1   2   3   4   5   6   7   8   9  10  11
 JobTyp=1 Pass  1:  I=   1 to  11 NPSUse=  8 ParTrn=T ParDer=T DoDerP=F.
 Spin components of T(2) and E(2):
     alpha-alpha T2 =       0.4216716517D-01 E2=     -0.2547059152D-01
     alpha-beta  T2 =       0.2728435184D+00 E2=     -0.1751186548D+00
     beta-beta   T2 =       0.4216716517D-01 E2=     -0.2547059152D-01
 The integrals were generated   1 times.
 E2(B2PLYPD3) =    -0.2260598378D+00 E(B2PLYPD3) =    -0.15592292369158D+03
 Leave Link  906 at Wed Aug 26 10:57:35 2020, MaxMem=  2097152000 cpu:       818.4
 (Enter /opt/cluster/programs/g09/g09_d.01/g09/l601.exe)
 Copying SCF densities to generalized density rwf, IOpCl= 0 IROHF=0.

 **********************************************************************

            Population analysis using the SCF density.

 **********************************************************************

 Orbital symmetries:
       Occupied  (A) (A) (A) (A) (A) (A) (A) (A) (A) (A) (A) (A)
                 (A) (A) (A)
       Virtual   (A) (A) (A) (A) (A) (A) (A) (A) (A) (A) (A) (A)
                 (A) (A) (A) (A) (A) (A) (A) (A) (A) (A) (A) (A)
                 (A) (A) (A) (A) (A) (A) (A) (A) (A) (A) (A) (A)
                 (A) (A) (A) (A) (A) (A) (A) (A) (A) (A) (A) (A)
                 (A) (A) (A) (A) (A) (A) (A) (A) (A) (A) (A) (A)
                 (A) (A) (A) (A) (A) (A) (A) (A) (A) (A) (A) (A)
                 (A) (A) (A) (A) (A) (A) (A) (A) (A) (A) (A) (A)
                 (A) (A) (A) (A) (A) (A) (A) (A) (A) (A) (A) (A)
                 (A) (A) (A) (A) (A) (A) (A) (A) (A) (A) (A) (A)
                 (A) (A) (A) (A) (A) (A) (A) (A) (A) (A) (A) (A)
                 (A) (A) (A) (A) (A) (A) (A) (A) (A) (A) (A) (A)
                 (A) (A) (A) (A) (A) (A) (A) (A) (A) (A) (A) (A)
                 (A) (A) (A) (A) (A) (A) (A) (A) (A) (A) (A) (A)
                 (A) (A) (A) (A) (A) (A) (A) (A) (A) (A) (A) (A)
                 (A) (A) (A) (A) (A) (A) (A) (A) (A) (A) (A) (A)
                 (A) (A) (A) (A) (A) (A) (A) (A) (A) (A) (A) (A)
                 (A) (A) (A) (A) (A) (A) (A) (A) (A) (A) (A) (A)
                 (A) (A) (A) (A) (A) (A) (A) (A) (A) (A) (A) (A)
                 (A) (A) (A) (A) (A) (A) (A) (A) (A) (A) (A) (A)
                 (A) (A) (A) (A) (A) (A) (A) (A) (A) (A) (A) (A)
                 (A) (A) (A) (A) (A) (A) (A) (A) (A) (A) (A) (A)
                 (A) (A) (A) (A) (A) (A) (A) (A) (A) (A) (A) (A)
                 (A) (A) (A) (A) (A) (A) (A) (A) (A) (A) (A) (A)
                 (A) (A) (A) (A) (A) (A) (A) (A) (A) (A) (A) (A)
                 (A) (A) (A) (A) (A) (A) (A) (A) (A) (A) (A) (A)
                 (A) (A) (A) (A) (A) (A) (A) (A) (A) (A) (A) (A)
                 (A) (A) (A) (A) (A) (A) (A) (A) (A) (A) (A) (A)
                 (A) (A) (A) (A) (A) (A) (A) (A) (A) (A) (A) (A)
                 (A) (A) (A) (A) (A) (A) (A) (A) (A) (A) (A) (A)
                 (A) (A) (A) (A) (A) (A) (A) (A) (A) (A) (A) (A)
                 (A) (A) (A) (A) (A) (A) (A) (A) (A) (A) (A) (A)
                 (A) (A) (A) (A) (A) (A) (A) (A) (A) (A) (A) (A)
                 (A) (A) (A) (A) (A) (A) (A) (A) (A)
 The electronic state is 1-A.
 Alpha  occ. eigenvalues --  -10.62836 -10.62266 -10.61729 -10.61570  -0.93210
 Alpha  occ. eigenvalues --   -0.84869  -0.70311  -0.63713  -0.54619  -0.53610
 Alpha  occ. eigenvalues --   -0.46959  -0.45601  -0.40576  -0.38223  -0.27759
 Alpha virt. eigenvalues --    0.01646   0.07045   0.07280   0.08032   0.09562
 Alpha virt. eigenvalues --    0.11734   0.12359   0.14883   0.15521   0.16001
 Alpha virt. eigenvalues --    0.18703   0.20202   0.21758   0.22907   0.23493
 Alpha virt. eigenvalues --    0.26815   0.26923   0.29809   0.31388   0.34615
 Alpha virt. eigenvalues --    0.35052   0.36285   0.37509   0.38727   0.39711
 Alpha virt. eigenvalues --    0.41870   0.42815   0.45946   0.46471   0.48500
 Alpha virt. eigenvalues --    0.49513   0.49534   0.50574   0.55006   0.56456
 Alpha virt. eigenvalues --    0.59045   0.62313   0.64288   0.67052   0.68555
 Alpha virt. eigenvalues --    0.69192   0.71725   0.76602   0.77101   0.78879
 Alpha virt. eigenvalues --    0.80529   0.81329   0.82267   0.82892   0.83851
 Alpha virt. eigenvalues --    0.84649   0.85502   0.86402   0.87190   0.90601
 Alpha virt. eigenvalues --    0.92220   0.93003   0.93984   0.95829   0.96474
 Alpha virt. eigenvalues --    0.98715   0.99748   1.00395   1.03172   1.05826
 Alpha virt. eigenvalues --    1.05903   1.07915   1.10774   1.11390   1.11781
 Alpha virt. eigenvalues --    1.13286   1.16431   1.19547   1.22598   1.23111
 Alpha virt. eigenvalues --    1.24736   1.25395   1.32931   1.33314   1.36336
 Alpha virt. eigenvalues --    1.37980   1.40129   1.46801   1.58353   1.64129
 Alpha virt. eigenvalues --    1.66439   1.67849   1.69959   1.71858   1.74523
 Alpha virt. eigenvalues --    1.74700   1.80262   1.82596   1.85162   1.88355
 Alpha virt. eigenvalues --    1.90476   1.91042   1.91715   1.93320   1.94398
 Alpha virt. eigenvalues --    1.96853   1.98681   2.00687   2.02008   2.03089
 Alpha virt. eigenvalues --    2.03660   2.05630   2.07230   2.07408   2.10116
 Alpha virt. eigenvalues --    2.11441   2.11998   2.14993   2.16817   2.17516
 Alpha virt. eigenvalues --    2.18666   2.21590   2.24627   2.26300   2.27454
 Alpha virt. eigenvalues --    2.29773   2.31703   2.32862   2.38343   2.42785
 Alpha virt. eigenvalues --    2.44587   2.44907   2.46573   2.47720   2.50638
 Alpha virt. eigenvalues --    2.53183   2.54484   2.55365   2.56306   2.58168
 Alpha virt. eigenvalues --    2.59239   2.60179   2.63945   2.65241   2.66962
 Alpha virt. eigenvalues --    2.68396   2.69118   2.70615   2.71311   2.73102
 Alpha virt. eigenvalues --    2.73508   2.74026   2.76989   2.78198   2.79182
 Alpha virt. eigenvalues --    2.80698   2.87938   2.89630   2.92011   2.93218
 Alpha virt. eigenvalues --    2.95385   3.01021   3.04998   3.07069   3.09133
 Alpha virt. eigenvalues --    3.12493   3.13725   3.25910   3.33344   3.36397
 Alpha virt. eigenvalues --    3.37508   3.38893   3.42741   3.43530   3.47696
 Alpha virt. eigenvalues --    3.48163   3.49268   3.52334   3.55384   3.55718
 Alpha virt. eigenvalues --    3.59957   3.60896   3.63939   3.69222   3.77613
 Alpha virt. eigenvalues --    3.80462   3.82475   3.86700   3.88759   3.92333
 Alpha virt. eigenvalues --    3.92752   3.96370   3.97602   4.03814   4.13690
 Alpha virt. eigenvalues --    4.14063   4.17271   4.23023   4.24542   4.45502
 Alpha virt. eigenvalues --    4.51891   4.54766   4.62810   4.85694   4.98752
 Alpha virt. eigenvalues --    5.00490   5.04344   5.06143   5.06211   5.09656
 Alpha virt. eigenvalues --    5.13858   5.18996   5.21831   5.27342   5.31573
 Alpha virt. eigenvalues --    5.33698   5.36654   5.42239   5.46123   5.50288
 Alpha virt. eigenvalues --    5.53665   5.54972   5.59205   5.61354   5.63103
 Alpha virt. eigenvalues --    5.65006   5.70536   5.74045   5.76748   5.77116
 Alpha virt. eigenvalues --    5.80463   5.80992   5.81953   5.84967   5.86962
 Alpha virt. eigenvalues --    5.88332   5.91430   5.99085   6.00382   6.02542
 Alpha virt. eigenvalues --    6.04319   6.06726   6.09070   6.09981   6.12066
 Alpha virt. eigenvalues --    6.13182   6.15123   6.17500   6.17921   6.20158
 Alpha virt. eigenvalues --    6.22159   6.23271   6.26112   6.29246   6.30777
 Alpha virt. eigenvalues --    6.32438   6.34108   6.35049   6.37305   6.38563
 Alpha virt. eigenvalues --    6.39426   6.41117   6.43457   6.47614   6.49379
 Alpha virt. eigenvalues --    6.51540   6.53274   6.57032   6.59144   6.61951
 Alpha virt. eigenvalues --    6.63286   6.65878   6.69855   6.71741   6.79145
 Alpha virt. eigenvalues --    6.80402   6.86534   6.87167   6.89112   6.92213
 Alpha virt. eigenvalues --    6.92995   6.95497   6.98702   7.03693   7.08850
 Alpha virt. eigenvalues --    7.11327   7.15162   7.19782   7.21301   7.23552
 Alpha virt. eigenvalues --    7.26425   7.29839   7.34498   7.35784   7.42024
 Alpha virt. eigenvalues --    7.44830   7.46592   7.50413   7.53517   7.56470
 Alpha virt. eigenvalues --    7.61369   7.63956   7.64559   7.66591   7.67179
 Alpha virt. eigenvalues --    7.68890   7.71113   7.74079   7.77245   7.77687
 Alpha virt. eigenvalues --    7.79939   7.84068   7.86607   7.90450   7.92249
 Alpha virt. eigenvalues --    7.93378   7.98556   8.05960   8.10311   8.12419
 Alpha virt. eigenvalues --    8.13888   8.15222   8.17174   8.18781   8.23562
 Alpha virt. eigenvalues --    8.26042   8.30492   8.33094   8.33441   8.35216
 Alpha virt. eigenvalues --    8.38034   8.38648   8.40323   8.41573   8.44350
 Alpha virt. eigenvalues --    8.46558   8.50851   8.53874   8.55313   8.57460
 Alpha virt. eigenvalues --    8.57688   8.59218   8.61106   8.64809   8.69609
 Alpha virt. eigenvalues --    8.70564   8.75731   8.77704   8.81794   8.85687
 Alpha virt. eigenvalues --    8.89144   8.90292   8.93977   9.03679   9.09358
 Alpha virt. eigenvalues --    9.14755   9.21596   9.28235   9.33839   9.39825
 Alpha virt. eigenvalues --    9.52186   9.62574   9.71023   9.79966   9.81480
 Alpha virt. eigenvalues --    9.87028   9.88901   9.91606   9.99338  10.05018
 Alpha virt. eigenvalues --   10.06124  10.11616  10.18337  10.23056  10.28947
 Alpha virt. eigenvalues --   10.34337  10.38836  10.50974  10.74502  10.81425
 Alpha virt. eigenvalues --   10.98880  11.11292  11.43482  11.62293  11.87625
 Alpha virt. eigenvalues --   11.92718  12.85777  12.99527  13.09074  13.20891
 Alpha virt. eigenvalues --   28.60490  28.76708  29.48631  29.66693 148.19651
 Alpha virt. eigenvalues --  148.34517 149.08131 149.27237
          Condensed to atoms (all electrons):
               1          2          3          4          5          6
     1  C    4.847697   0.618931  -0.082123  -0.002404   0.423253   0.424898
     2  C    0.618931   4.835819   0.397374  -0.078800  -0.045726  -0.046056
     3  C   -0.082123   0.397374   4.848478   0.613278   0.007713  -0.008345
     4  C   -0.002404  -0.078800   0.613278   4.839682  -0.000634   0.000306
     5  H    0.423253  -0.045726   0.007713  -0.000634   0.587383  -0.043668
     6  H    0.424898  -0.046056  -0.008345   0.000306  -0.043668   0.591892
     7  H   -0.046755   0.406429  -0.062174  -0.000589  -0.009802   0.007545
     8  H   -0.003274  -0.068760   0.411475  -0.044863  -0.000148   0.005383
     9  H    0.000296  -0.007389  -0.047091   0.425656  -0.000032   0.000047
    10  H   -0.000666   0.007730  -0.047267   0.425689   0.000028  -0.000040
               7          8          9         10
     1  C   -0.046755  -0.003274   0.000296  -0.000666
     2  C    0.406429  -0.068760  -0.007389   0.007730
     3  C   -0.062174   0.411475  -0.047091  -0.047267
     4  C   -0.000589  -0.044863   0.425656   0.425689
     5  H   -0.009802  -0.000148  -0.000032   0.000028
     6  H    0.007545   0.005383   0.000047  -0.000040
     7  H    0.637091   0.008128   0.004643  -0.000206
     8  H    0.008128   0.647413   0.007134  -0.008542
     9  H    0.004643   0.007134   0.593733  -0.044536
    10  H   -0.000206  -0.008542  -0.044536   0.578723
 Mulliken charges:
               1
     1  C   -0.179853
     2  C   -0.019551
     3  C   -0.031316
     4  C   -0.177321
     5  H    0.081633
     6  H    0.068037
     7  H    0.055690
     8  H    0.046056
     9  H    0.067541
    10  H    0.089086
 Sum of Mulliken charges =   0.00000
 Mulliken charges with hydrogens summed into heavy atoms:
               1
     1  C   -0.030183
     2  C    0.036138
     3  C    0.014739
     4  C   -0.020695
 Electronic spatial extent (au):  <R**2>=            333.7085
 Charge=              0.0000 electrons
 Dipole moment (field-independent basis, Debye):
    X=              0.0553    Y=              0.0045    Z=              0.0518  Tot=              0.0759
 Quadrupole moment (field-independent basis, Debye-Ang):
   XX=            -23.5594   YY=            -23.2375   ZZ=            -29.2316
   XY=             -0.3638   XZ=             -0.3179   YZ=             -0.0855
 Traceless Quadrupole moment (field-independent basis, Debye-Ang):
   XX=              1.7834   YY=              2.1053   ZZ=             -3.8888
   XY=             -0.3638   XZ=             -0.3179   YZ=             -0.0855
 Octapole moment (field-independent basis, Debye-Ang**2):
  XXX=             -0.4804  YYY=              0.1255  ZZZ=              0.0795  XYY=              0.3075
  XXY=              0.0230  XXZ=              0.9298  XZZ=              0.0289  YZZ=              0.0431
  YYZ=             -0.0836  XYZ=             -0.6460
 Hexadecapole moment (field-independent basis, Debye-Ang**3):
 XXXX=           -343.7816 YYYY=            -66.2225 ZZZZ=            -36.9495 XXXY=              5.5086
 XXXZ=             -2.3278 YYYX=             -2.7913 YYYZ=             -0.3146 ZZZX=             -0.6017
 ZZZY=             -0.0972 XXYY=            -67.7848 XXZZ=            -76.7409 YYZZ=            -19.2149
 XXYZ=             -0.1322 YYXZ=             -0.4534 ZZXY=             -0.5969
 N-N= 1.041194829689D+02 E-N=-5.691360628426D+02  KE= 1.550950548982D+02
 Leave Link  601 at Wed Aug 26 10:57:36 2020, MaxMem=  2097152000 cpu:         0.8
 (Enter /opt/cluster/programs/g09/g09_d.01/g09/l9999.exe)
 1\1\GINC-NODE19\SP\RB2PLYPD3-FC\def2QZVP\C4H6\BOITTIER\26-Aug-2020\0\\
 #p B2PLYPD3/Def2QZVP\\butadiene\\0,1\C,0,-3.822741,0.237179,0.0329\C,0
 ,-2.725012,-0.503658,0.032492\C,0,-1.393889,0.05406,-0.016712\C,0,-0.2
 56225,-0.651145,0.041961\H,0,-4.822272,-0.252373,0.013322\H,0,-3.79836
 7,1.312513,0.098465\H,0,-2.789898,-1.588552,-0.079484\H,0,-1.449916,1.
 166452,-0.08726\H,0,-0.273427,-1.725552,0.198114\H,0,0.696907,-0.16972
 5,0.071102\\Version=ES64L-G09RevD.01\State=1-A\HF=-155.6968639\MP2=-15
 5.9229237\RMSD=4.721e-09\PG=C01 [X(C4H6)]\\@


 A politician is a person who can make waves and then
 make you think he's the only one who can save the ship.
 -- Ivern Ball
 Job cpu time:       0 days  0 hours 39 minutes 47.7 seconds.
 File lengths (MBytes):  RWF=     92 Int=      0 D2E=      0 Chk=      9 Scr=      1
 Normal termination of Gaussian 09 at Wed Aug 26 10:57:36 2020.
