 Entering Gaussian System, Link 0=/opt/cluster/programs/g09/g09_d.01/g09//g09
 Input=/home/boittier/MDCM/nms_sampling/butadiene_geom.xyz.dir/energies/butadiene_2577_energy.com
 Output=/scratch/boittier/butadiene_2577_energy/butadiene_2577_energy.out
 Initial command:
 /opt/cluster/programs/g09/g09_d.01/g09/l1.exe "/scratch/boittier/butadiene_2577_energy/Gau-58259.inp" -scrdir="/scratch/boittier/butadiene_2577_energy/"
 Entering Link 1 = /opt/cluster/programs/g09/g09_d.01/g09/l1.exe PID=     58260.
  
 Copyright (c) 1988,1990,1992,1993,1995,1998,2003,2009,2013,
            Gaussian, Inc.  All Rights Reserved.
  
 This is part of the Gaussian(R) 09 program.  It is based on
 the Gaussian(R) 03 system (copyright 2003, Gaussian, Inc.),
 the Gaussian(R) 98 system (copyright 1998, Gaussian, Inc.),
 the Gaussian(R) 94 system (copyright 1995, Gaussian, Inc.),
 the Gaussian 92(TM) system (copyright 1992, Gaussian, Inc.),
 the Gaussian 90(TM) system (copyright 1990, Gaussian, Inc.),
 the Gaussian 88(TM) system (copyright 1988, Gaussian, Inc.),
 the Gaussian 86(TM) system (copyright 1986, Carnegie Mellon
 University), and the Gaussian 82(TM) system (copyright 1983,
 Carnegie Mellon University). Gaussian is a federally registered
 trademark of Gaussian, Inc.
  
 This software contains proprietary and confidential information,
 including trade secrets, belonging to Gaussian, Inc.
  
 This software is provided under written license and may be
 used, copied, transmitted, or stored only in accord with that
 written license.
  
 The following legend is applicable only to US Government
 contracts under FAR:
  
                    RESTRICTED RIGHTS LEGEND
  
 Use, reproduction and disclosure by the US Government is
 subject to restrictions as set forth in subparagraphs (a)
 and (c) of the Commercial Computer Software - Restricted
 Rights clause in FAR 52.227-19.
  
 Gaussian, Inc.
 340 Quinnipiac St., Bldg. 40, Wallingford CT 06492
  
  
 ---------------------------------------------------------------
 Warning -- This program may not be used in any manner that
 competes with the business of Gaussian, Inc. or will provide
 assistance to any competitor of Gaussian, Inc.  The licensee
 of this program is prohibited from giving any competitor of
 Gaussian, Inc. access to this program.  By using this program,
 the user acknowledges that Gaussian, Inc. is engaged in the
 business of creating and licensing software in the field of
 computational chemistry and represents and warrants to the
 licensee that it is not a competitor of Gaussian, Inc. and that
 it will not use this program in any manner prohibited above.
 ---------------------------------------------------------------
  

 Cite this work as:
 Gaussian 09, Revision D.01,
 M. J. Frisch, G. W. Trucks, H. B. Schlegel, G. E. Scuseria, 
 M. A. Robb, J. R. Cheeseman, G. Scalmani, V. Barone, B. Mennucci, 
 G. A. Petersson, H. Nakatsuji, M. Caricato, X. Li, H. P. Hratchian, 
 A. F. Izmaylov, J. Bloino, G. Zheng, J. L. Sonnenberg, M. Hada, 
 M. Ehara, K. Toyota, R. Fukuda, J. Hasegawa, M. Ishida, T. Nakajima, 
 Y. Honda, O. Kitao, H. Nakai, T. Vreven, J. A. Montgomery, Jr., 
 J. E. Peralta, F. Ogliaro, M. Bearpark, J. J. Heyd, E. Brothers, 
 K. N. Kudin, V. N. Staroverov, T. Keith, R. Kobayashi, J. Normand, 
 K. Raghavachari, A. Rendell, J. C. Burant, S. S. Iyengar, J. Tomasi, 
 M. Cossi, N. Rega, J. M. Millam, M. Klene, J. E. Knox, J. B. Cross, 
 V. Bakken, C. Adamo, J. Jaramillo, R. Gomperts, R. E. Stratmann, 
 O. Yazyev, A. J. Austin, R. Cammi, C. Pomelli, J. W. Ochterski, 
 R. L. Martin, K. Morokuma, V. G. Zakrzewski, G. A. Voth, 
 P. Salvador, J. J. Dannenberg, S. Dapprich, A. D. Daniels, 
 O. Farkas, J. B. Foresman, J. V. Ortiz, J. Cioslowski, 
 and D. J. Fox, Gaussian, Inc., Wallingford CT, 2013.
 
 ******************************************
 Gaussian 09:  ES64L-G09RevD.01 24-Apr-2013
                26-Aug-2020 
 ******************************************
 %chk=/home/boittier/MDCM/nms_sampling/butadiene_geom.xyz.dir/butadiene_2577.chk
 %nproc=8
 Will use up to    8 processors via shared memory.
 %mem=16000MB
 --------------------
 #p B2PLYPD3/Def2QZVP
 --------------------
 1/38=1/1;
 2/12=2,17=6,18=5,40=1/2;
 3/5=45,7=101,11=9,16=1,25=1,30=1,74=-60/1,2,3;
 4//1;
 5/5=2,38=5/2;
 8/10=1/1;
 9/16=-3/6;
 6/7=2,8=2,9=2,10=2/1;
 99/5=1,9=1/99;
 Leave Link    1 at Wed Aug 26 14:41:07 2020, MaxMem=  2097152000 cpu:         0.3
 (Enter /opt/cluster/programs/g09/g09_d.01/g09/l101.exe)
 ---------
 butadiene
 ---------
 Symbolic Z-matrix:
 Charge =  0 Multiplicity = 1
 C                    -3.86234   0.19576   0.03933 
 C                    -2.68936  -0.46948   0.00546 
 C                    -1.36743   0.10562  -0.0369 
 C                    -0.29184  -0.69197   0.04023 
 H                    -4.78043  -0.2106    0.19473 
 H                    -4.00397   1.23689  -0.05614 
 H                    -2.68061  -1.52217   0.12847 
 H                    -1.21194   1.22233   0.18844 
 H                    -0.31558  -1.74878   0.14807 
 H                     0.68519  -0.24545   0.21305 
 
 NAtoms=     10 NQM=       10 NQMF=       0 NMMI=      0 NMMIF=      0
                NMic=       0 NMicF=      0.
                    Isotopes and Nuclear Properties:
 (Nuclear quadrupole moments (NQMom) in fm**2, nuclear magnetic moments (NMagM)
  in nuclear magnetons)

  Atom         1           2           3           4           5           6           7           8           9          10
 IAtWgt=          12          12          12          12           1           1           1           1           1           1
 AtmWgt=  12.0000000  12.0000000  12.0000000  12.0000000   1.0078250   1.0078250   1.0078250   1.0078250   1.0078250   1.0078250
 NucSpn=           0           0           0           0           1           1           1           1           1           1
 AtZEff=   0.0000000   0.0000000   0.0000000   0.0000000   0.0000000   0.0000000   0.0000000   0.0000000   0.0000000   0.0000000
 NQMom=    0.0000000   0.0000000   0.0000000   0.0000000   0.0000000   0.0000000   0.0000000   0.0000000   0.0000000   0.0000000
 NMagM=    0.0000000   0.0000000   0.0000000   0.0000000   2.7928460   2.7928460   2.7928460   2.7928460   2.7928460   2.7928460
 AtZNuc=   6.0000000   6.0000000   6.0000000   6.0000000   1.0000000   1.0000000   1.0000000   1.0000000   1.0000000   1.0000000
 Leave Link  101 at Wed Aug 26 14:41:07 2020, MaxMem=  2097152000 cpu:         0.5
 (Enter /opt/cluster/programs/g09/g09_d.01/g09/l202.exe)
                          Input orientation:                          
 ---------------------------------------------------------------------
 Center     Atomic      Atomic             Coordinates (Angstroms)
 Number     Number       Type             X           Y           Z
 ---------------------------------------------------------------------
      1          6           0       -3.862340    0.195764    0.039334
      2          6           0       -2.689363   -0.469479    0.005456
      3          6           0       -1.367433    0.105616   -0.036901
      4          6           0       -0.291844   -0.691971    0.040232
      5          1           0       -4.780425   -0.210602    0.194726
      6          1           0       -4.003973    1.236890   -0.056137
      7          1           0       -2.680611   -1.522169    0.128466
      8          1           0       -1.211943    1.222332    0.188437
      9          1           0       -0.315577   -1.748784    0.148066
     10          1           0        0.685189   -0.245445    0.213047
 ---------------------------------------------------------------------
                    Distance matrix (angstroms):
                    1          2          3          4          5
     1  C    0.000000
     2  C    1.348915   0.000000
     3  C    2.497699   1.442230   0.000000
     4  C    3.679200   2.408072   1.341263   0.000000
     5  H    1.015953   2.115510   3.435427   4.516962   0.000000
     6  H    1.055044   2.154922   2.869058   4.184459   1.661639
     7  H    2.087037   1.059889   2.097967   2.530459   2.476654
     8  H    2.846169   2.253548   1.149786   2.129108   3.845439
     9  H    4.046309   2.700337   2.139956   1.062565   4.722610
    10  H    4.572183   3.388346   2.097373   1.088046   5.465756
                    6          7          8          9         10
     6  H    0.000000
     7  H    3.065579   0.000000
     8  H    2.802759   3.113337   0.000000
     9  H    4.749759   2.375947   3.103648   0.000000
    10  H    4.925243   3.600804   2.398767   1.807148   0.000000
 Stoichiometry    C4H6
 Framework group  C1[X(C4H6)]
 Deg. of freedom    24
 Full point group                 C1      NOp   1
 Largest Abelian subgroup         C1      NOp   1
 Largest concise Abelian subgroup C1      NOp   1
                         Standard orientation:                         
 ---------------------------------------------------------------------
 Center     Atomic      Atomic             Coordinates (Angstroms)
 Number     Number       Type             X           Y           Z
 ---------------------------------------------------------------------
      1          6           0       -1.854568    0.065156    0.014337
      2          6           0       -0.578356   -0.368596   -0.037771
      3          6           0        0.612966    0.443809   -0.065643
      4          6           0        1.818773   -0.140952   -0.010223
      5          1           0       -2.679958   -0.509157    0.159441
      6          1           0       -2.188292    1.063727   -0.053495
      7          1           0       -0.372876   -1.404015    0.057359
      8          1           0        0.558822    1.563722    0.189056
      9          1           0        1.993023   -1.186085    0.069644
     10          1           0        2.696390    0.475304    0.173794
 ---------------------------------------------------------------------
 Rotational constants (GHZ):     42.3074800      4.4521383      4.0390212
 Leave Link  202 at Wed Aug 26 14:41:07 2020, MaxMem=  2097152000 cpu:         0.0
 (Enter /opt/cluster/programs/g09/g09_d.01/g09/l301.exe)
 Standard basis: def2QZVP (5D, 7F)
 Ernie: Thresh=  0.10000D-02 Tol=  0.10000D-05 Strict=F.
 There are   498 symmetry adapted cartesian basis functions of A   symmetry.
 There are   408 symmetry adapted basis functions of A   symmetry.
   408 basis functions,   596 primitive gaussians,   498 cartesian basis functions
    15 alpha electrons       15 beta electrons
       nuclear repulsion energy       104.0930726529 Hartrees.
 IExCor=  419 DFT=T Ex+Corr=B2PLYPD3 ExCW=0 ScaHFX=  0.530000
 ScaDFX=  0.470000  0.470000  0.730000  0.730000 ScalE2=  0.270000  0.270000
 IRadAn=      0 IRanWt=     -1 IRanGd=            0 ICorTp=0 IEmpDi=141
 NAtoms=   10 NActive=   10 NUniq=   10 SFac= 1.00D+00 NAtFMM=   60 NAOKFM=F Big=F
 Integral buffers will be    131072 words long.
 Regular integral format.
 Two-electron integral symmetry is turned on.
 R6Disp:  Grimme-D3(BJ) Dispersion energy=       -0.0048241304 Hartrees.
 Nuclear repulsion after empirical dispersion term =      104.0882485226 Hartrees.
 Leave Link  301 at Wed Aug 26 14:41:07 2020, MaxMem=  2097152000 cpu:         0.4
 (Enter /opt/cluster/programs/g09/g09_d.01/g09/l302.exe)
 NPDir=0 NMtPBC=     1 NCelOv=     1 NCel=       1 NClECP=     1 NCelD=      1
         NCelK=      1 NCelE2=     1 NClLst=     1 CellRange=     0.0.
 One-electron integrals computed using PRISM.
   1 Symmetry operations used in ECPInt.
 ECPInt:  NShTT=    8256 NPrTT=   19107 LenC2=    8058 LenP2D=   16102.
 LDataN:  DoStor=T MaxTD1= 8 Len=  415
 NBasis=   408 RedAO= T EigKep=  4.50D-05  NBF=   408
 NBsUse=   408 1.00D-06 EigRej= -1.00D+00 NBFU=   408
 Precomputing XC quadrature grid using
 IXCGrd= 4 IRadAn=           0 IRanWt=          -1 IRanGd=           0 AccXCQ= 0.00D+00.
 Generated NRdTot=       0 NPtTot=           0 NUsed=           0 NTot=          32
 NSgBfM=   498   498   498   498   498 MxSgAt=    10 MxSgA2=    10.
 Leave Link  302 at Wed Aug 26 14:41:07 2020, MaxMem=  2097152000 cpu:         3.1
 (Enter /opt/cluster/programs/g09/g09_d.01/g09/l303.exe)
 DipDrv:  MaxL=1.
 Leave Link  303 at Wed Aug 26 14:41:07 2020, MaxMem=  2097152000 cpu:         0.4
 (Enter /opt/cluster/programs/g09/g09_d.01/g09/l401.exe)
 ExpMin= 7.60D-02 ExpMax= 6.70D+04 ExpMxC= 6.47D+02 IAcc=2 IRadAn=         4 AccDes= 0.00D+00
 Harris functional with IExCor=  419 and IRadAn=       4 diagonalized for initial guess.
 HarFok:  IExCor=  419 AccDes= 0.00D+00 IRadAn=         4 IDoV= 1 UseB2=F ITyADJ=14
 ICtDFT=  3500011 ScaDFX=  1.000000  1.000000  1.000000  1.000000
 FoFCou: FMM=F IPFlag=           0 FMFlag=      100000 FMFlg1=           0
         NFxFlg=           0 DoJE=T BraDBF=F KetDBF=T FulRan=T
         wScrn=  0.000000 ICntrl=     500 IOpCl=  0 I1Cent=   200000004 NGrid=           0
         NMat0=    1 NMatS0=      1 NMatT0=    0 NMatD0=    1 NMtDS0=    0 NMtDT0=    0
 Petite list used in FoFCou.
 Harris En= -156.125367272839    
 JPrj=0 DoOrth=F DoCkMO=F.
 Leave Link  401 at Wed Aug 26 14:41:08 2020, MaxMem=  2097152000 cpu:         8.3
 (Enter /opt/cluster/programs/g09/g09_d.01/g09/l502.exe)
 Closed shell SCF:
 Using DIIS extrapolation, IDIIS=  1040.
 Integral symmetry usage will be decided dynamically.
 IVT=      770090 IEndB=      770090 NGot=  2097152000 MDV=  2096647053
 LenX=  2096647053 LenY=  2096398551
 Requested convergence on RMS density matrix=1.00D-08 within 128 cycles.
 Requested convergence on MAX density matrix=1.00D-06.
 Requested convergence on             energy=1.00D-06.
 No special actions if energy rises.
 Fock matrices will be formed incrementally for  20 cycles.
 Integral accuracy reduced to 1.0D-05 until final iterations.

 Cycle   1  Pass 0  IDiag  1:
 FoFJK:  IHMeth= 1 ICntrl=       0 DoSepK=F KAlg= 0 I1Cent=   0 FoldK=F
 IRaf= 940000000 NMat=   1 IRICut=       1 DoRegI=T DoRafI=F ISym2E= 0.
 FoFCou: FMM=F IPFlag=           0 FMFlag=      100000 FMFlg1=           0
         NFxFlg=           0 DoJE=F BraDBF=F KetDBF=F FulRan=T
         wScrn=  0.000000 ICntrl=       0 IOpCl=  0 I1Cent=           0 NGrid=           0
         NMat0=    1 NMatS0=      1 NMatT0=    0 NMatD0=    1 NMtDS0=    0 NMtDT0=    0
 Symmetry not used in FoFCou.
 E= -155.494383224287    
 DIIS: error= 2.83D-02 at cycle   1 NSaved=   1.
 NSaved= 1 IEnMin= 1 EnMin= -155.494383224287     IErMin= 1 ErrMin= 2.83D-02
 ErrMax= 2.83D-02  0.00D+00 EMaxC= 1.00D-01 BMatC= 2.56D-01 BMatP= 2.56D-01
 IDIUse=3 WtCom= 7.17D-01 WtEn= 2.83D-01
 Coeff-Com:  0.100D+01
 Coeff-En:   0.100D+01
 Coeff:      0.100D+01
 Gap=     0.292 Goal=   None    Shift=    0.000
 GapD=    0.292 DampG=1.000 DampE=0.500 DampFc=0.5000 IDamp=-1.
 Damping current iteration by 5.00D-01
 RMSDP=9.60D-04 MaxDP=5.04D-02              OVMax= 1.97D-01

 Cycle   2  Pass 0  IDiag  1:
 RMSU=  4.43D-04    CP:  9.51D-01
 E= -155.595429259517     Delta-E=       -0.101046035230 Rises=F Damp=T
 DIIS: error= 9.12D-03 at cycle   2 NSaved=   2.
 NSaved= 2 IEnMin= 2 EnMin= -155.595429259517     IErMin= 2 ErrMin= 9.12D-03
 ErrMax= 9.12D-03  0.00D+00 EMaxC= 1.00D-01 BMatC= 3.01D-02 BMatP= 2.56D-01
 IDIUse=3 WtCom= 9.09D-01 WtEn= 9.12D-02
 Coeff-Com: -0.305D+00 0.131D+01
 Coeff-En:   0.000D+00 0.100D+01
 Coeff:     -0.277D+00 0.128D+01
 Gap=     0.348 Goal=   None    Shift=    0.000
 RMSDP=2.64D-04 MaxDP=8.32D-03 DE=-1.01D-01 OVMax= 9.19D-02

 Cycle   3  Pass 0  IDiag  1:
 RMSU=  2.53D-04    CP:  9.34D-01  1.07D+00
 E= -155.682386818092     Delta-E=       -0.086957558575 Rises=F Damp=F
 DIIS: error= 3.68D-03 at cycle   3 NSaved=   3.
 NSaved= 3 IEnMin= 3 EnMin= -155.682386818092     IErMin= 3 ErrMin= 3.68D-03
 ErrMax= 3.68D-03  0.00D+00 EMaxC= 1.00D-01 BMatC= 1.60D-03 BMatP= 3.01D-02
 IDIUse=3 WtCom= 9.63D-01 WtEn= 3.68D-02
 Coeff-Com: -0.107D+00 0.204D+00 0.903D+00
 Coeff-En:   0.000D+00 0.000D+00 0.100D+01
 Coeff:     -0.104D+00 0.197D+00 0.907D+00
 Gap=     0.286 Goal=   None    Shift=    0.000
 RMSDP=6.34D-05 MaxDP=3.78D-03 DE=-8.70D-02 OVMax= 1.80D-02

 Cycle   4  Pass 0  IDiag  1:
 RMSU=  4.30D-05    CP:  9.30D-01  1.16D+00  9.43D-01
 E= -155.683750848770     Delta-E=       -0.001364030678 Rises=F Damp=F
 DIIS: error= 2.09D-03 at cycle   4 NSaved=   4.
 NSaved= 4 IEnMin= 4 EnMin= -155.683750848770     IErMin= 4 ErrMin= 2.09D-03
 ErrMax= 2.09D-03  0.00D+00 EMaxC= 1.00D-01 BMatC= 3.59D-04 BMatP= 1.60D-03
 IDIUse=3 WtCom= 9.79D-01 WtEn= 2.09D-02
 Coeff-Com: -0.490D-01 0.812D-01 0.460D+00 0.508D+00
 Coeff-En:   0.000D+00 0.000D+00 0.284D-02 0.997D+00
 Coeff:     -0.480D-01 0.795D-01 0.450D+00 0.518D+00
 Gap=     0.286 Goal=   None    Shift=    0.000
 RMSDP=2.43D-05 MaxDP=1.17D-03 DE=-1.36D-03 OVMax= 7.40D-03

 Cycle   5  Pass 0  IDiag  1:
 RMSU=  1.55D-05    CP:  9.30D-01  1.15D+00  9.81D-01  6.37D-01
 E= -155.684100963876     Delta-E=       -0.000350115106 Rises=F Damp=F
 DIIS: error= 3.32D-04 at cycle   5 NSaved=   5.
 NSaved= 5 IEnMin= 5 EnMin= -155.684100963876     IErMin= 5 ErrMin= 3.32D-04
 ErrMax= 3.32D-04  0.00D+00 EMaxC= 1.00D-01 BMatC= 8.12D-06 BMatP= 3.59D-04
 IDIUse=3 WtCom= 9.97D-01 WtEn= 3.32D-03
 Coeff-Com: -0.358D-02 0.348D-02 0.441D-01 0.150D+00 0.806D+00
 Coeff-En:   0.000D+00 0.000D+00 0.000D+00 0.000D+00 0.100D+01
 Coeff:     -0.357D-02 0.347D-02 0.439D-01 0.150D+00 0.806D+00
 Gap=     0.287 Goal=   None    Shift=    0.000
 RMSDP=4.02D-06 MaxDP=1.53D-04 DE=-3.50D-04 OVMax= 1.35D-03

 Initial convergence to 1.0D-05 achieved.  Increase integral accuracy.
 Cycle   6  Pass 1  IDiag  1:
 E= -155.684110489944     Delta-E=       -0.000009526068 Rises=F Damp=F
 DIIS: error= 3.36D-05 at cycle   1 NSaved=   1.
 NSaved= 1 IEnMin= 1 EnMin= -155.684110489944     IErMin= 1 ErrMin= 3.36D-05
 ErrMax= 3.36D-05  0.00D+00 EMaxC= 1.00D-01 BMatC= 4.53D-07 BMatP= 4.53D-07
 IDIUse=1 WtCom= 1.00D+00 WtEn= 0.00D+00
 Coeff-Com:  0.100D+01
 Coeff:      0.100D+01
 Gap=     0.287 Goal=   None    Shift=    0.000
 RMSDP=4.02D-06 MaxDP=1.53D-04 DE=-9.53D-06 OVMax= 3.16D-04

 Cycle   7  Pass 1  IDiag  1:
 RMSU=  1.89D-05    CP:  1.00D+00
 E= -155.684110853596     Delta-E=       -0.000000363651 Rises=F Damp=F
 DIIS: error= 8.98D-06 at cycle   2 NSaved=   2.
 NSaved= 2 IEnMin= 2 EnMin= -155.684110853596     IErMin= 2 ErrMin= 8.98D-06
 ErrMax= 8.98D-06  0.00D+00 EMaxC= 1.00D-01 BMatC= 1.14D-08 BMatP= 4.53D-07
 IDIUse=1 WtCom= 1.00D+00 WtEn= 0.00D+00
 Coeff-Com:  0.423D-02 0.996D+00
 Coeff:      0.423D-02 0.996D+00
 Gap=     0.287 Goal=   None    Shift=    0.000
 RMSDP=9.09D-07 MaxDP=3.08D-05 DE=-3.64D-07 OVMax= 7.88D-05

 Cycle   8  Pass 1  IDiag  1:
 RMSU=  5.64D-07    CP:  1.00D+00  1.04D+00
 E= -155.684110873186     Delta-E=       -0.000000019590 Rises=F Damp=F
 DIIS: error= 7.49D-06 at cycle   3 NSaved=   3.
 NSaved= 3 IEnMin= 3 EnMin= -155.684110873186     IErMin= 3 ErrMin= 7.49D-06
 ErrMax= 7.49D-06  0.00D+00 EMaxC= 1.00D-01 BMatC= 4.09D-09 BMatP= 1.14D-08
 IDIUse=1 WtCom= 1.00D+00 WtEn= 0.00D+00
 Coeff-Com: -0.192D-01 0.344D+00 0.675D+00
 Coeff:     -0.192D-01 0.344D+00 0.675D+00
 Gap=     0.287 Goal=   None    Shift=    0.000
 RMSDP=1.38D-07 MaxDP=5.10D-06 DE=-1.96D-08 OVMax= 4.97D-05

 Cycle   9  Pass 1  IDiag  1:
 RMSU=  1.20D-07    CP:  1.00D+00  1.04D+00  1.08D+00
 E= -155.684110878027     Delta-E=       -0.000000004841 Rises=F Damp=F
 DIIS: error= 2.90D-06 at cycle   4 NSaved=   4.
 NSaved= 4 IEnMin= 4 EnMin= -155.684110878027     IErMin= 4 ErrMin= 2.90D-06
 ErrMax= 2.90D-06  0.00D+00 EMaxC= 1.00D-01 BMatC= 6.49D-10 BMatP= 4.09D-09
 IDIUse=1 WtCom= 1.00D+00 WtEn= 0.00D+00
 Coeff-Com: -0.735D-02-0.156D-01 0.248D+00 0.775D+00
 Coeff:     -0.735D-02-0.156D-01 0.248D+00 0.775D+00
 Gap=     0.287 Goal=   None    Shift=    0.000
 RMSDP=5.78D-08 MaxDP=2.16D-06 DE=-4.84D-09 OVMax= 1.50D-05

 Cycle  10  Pass 1  IDiag  1:
 RMSU=  4.21D-08    CP:  1.00D+00  1.04D+00  1.14D+00  9.76D-01
 E= -155.684110878911     Delta-E=       -0.000000000884 Rises=F Damp=F
 DIIS: error= 9.10D-07 at cycle   5 NSaved=   5.
 NSaved= 5 IEnMin= 5 EnMin= -155.684110878911     IErMin= 5 ErrMin= 9.10D-07
 ErrMax= 9.10D-07  0.00D+00 EMaxC= 1.00D-01 BMatC= 6.22D-11 BMatP= 6.49D-10
 IDIUse=1 WtCom= 1.00D+00 WtEn= 0.00D+00
 Coeff-Com:  0.385D-03-0.576D-01-0.157D-02 0.270D+00 0.789D+00
 Coeff:      0.385D-03-0.576D-01-0.157D-02 0.270D+00 0.789D+00
 Gap=     0.287 Goal=   None    Shift=    0.000
 RMSDP=2.29D-08 MaxDP=8.63D-07 DE=-8.84D-10 OVMax= 8.33D-06

 Cycle  11  Pass 1  IDiag  1:
 RMSU=  1.54D-08    CP:  1.00D+00  1.04D+00  1.17D+00  1.05D+00  1.10D+00
 E= -155.684110879005     Delta-E=       -0.000000000094 Rises=F Damp=F
 DIIS: error= 2.31D-07 at cycle   6 NSaved=   6.
 NSaved= 6 IEnMin= 6 EnMin= -155.684110879005     IErMin= 6 ErrMin= 2.31D-07
 ErrMax= 2.31D-07  0.00D+00 EMaxC= 1.00D-01 BMatC= 6.83D-12 BMatP= 6.22D-11
 IDIUse=1 WtCom= 1.00D+00 WtEn= 0.00D+00
 Coeff-Com:  0.682D-03-0.238D-01-0.178D-01 0.531D-01 0.330D+00 0.658D+00
 Coeff:      0.682D-03-0.238D-01-0.178D-01 0.531D-01 0.330D+00 0.658D+00
 Gap=     0.287 Goal=   None    Shift=    0.000
 RMSDP=4.79D-09 MaxDP=2.20D-07 DE=-9.36D-11 OVMax= 1.08D-06

 SCF Done:  E(RB2PLYPD3) =  -155.684110879     A.U. after   11 cycles
            NFock= 11  Conv=0.48D-08     -V/T= 2.0031
 KE= 1.552072145696D+02 PE=-5.691163205144D+02 EE= 1.541367465433D+02
 Leave Link  502 at Wed Aug 26 14:43:48 2020, MaxMem=  2097152000 cpu:      1271.6
 (Enter /opt/cluster/programs/g09/g09_d.01/g09/l801.exe)
 DoSCS=T DFT=T ScalE2(SS,OS)=  0.270000  0.270000
 ExpMin= 7.60D-02 ExpMax= 6.70D+04 ExpMxC= 6.47D+02 IAcc=3 IRadAn=         5 AccDes= 0.00D+00
 HarFok:  IExCor=  205 AccDes= 0.00D+00 IRadAn=         5 IDoV=-2 UseB2=F ITyADJ=14
 ICtDFT= 12500011 ScaDFX=  1.000000  1.000000  1.000000  1.000000
 Largest valence mixing into a core orbital is  1.11D-04
 Largest core mixing into a valence orbital is  2.01D-05
 Range of M.O.s used for correlation:     5   408
 NBasis=   408 NAE=    15 NBE=    15 NFC=     4 NFV=     0
 NROrb=    404 NOA=    11 NOB=    11 NVA=   393 NVB=   393

 **** Warning!!: The largest alpha MO coefficient is  0.32110140D+02

 Leave Link  801 at Wed Aug 26 14:43:48 2020, MaxMem=  2097152000 cpu:         1.0
 (Enter /opt/cluster/programs/g09/g09_d.01/g09/l906.exe)
 DoSCS=T DFT=T ScalE2(SS,OS)=  0.270000  0.270000
 FulOut=F Deriv=F AODrv=F NAtomX=    10
   MMem=         881  MDisk=          11 MDiskD=          11
  W3Min=     2152854 MinDsk=     3857222 NBas6D=         498
 NBas2D=      125763    NTT=      124251    LW2=     4508827
    MDV=  2096383220 MDiskM=        9345 NBas2p=      117207
 Fully direct method using O(OVN) memory.
 IMap=   1   2   3   4   5   6   7   8   9  10  11
 JobTyp=1 Pass  1:  I=   1 to  11 NPSUse=  8 ParTrn=T ParDer=T DoDerP=F.
 Spin components of T(2) and E(2):
     alpha-alpha T2 =       0.4224027631D-01 E2=     -0.2550460704D-01
     alpha-beta  T2 =       0.2740769042D+00 E2=     -0.1753183706D+00
     beta-beta   T2 =       0.4224027631D-01 E2=     -0.2550460704D-01
 The integrals were generated   1 times.
 E2(B2PLYPD3) =    -0.2263275846D+00 E(B2PLYPD3) =    -0.15591043846364D+03
 Leave Link  906 at Wed Aug 26 14:46:17 2020, MaxMem=  2097152000 cpu:      1191.3
 (Enter /opt/cluster/programs/g09/g09_d.01/g09/l601.exe)
 Copying SCF densities to generalized density rwf, IOpCl= 0 IROHF=0.

 **********************************************************************

            Population analysis using the SCF density.

 **********************************************************************

 Orbital symmetries:
       Occupied  (A) (A) (A) (A) (A) (A) (A) (A) (A) (A) (A) (A)
                 (A) (A) (A)
       Virtual   (A) (A) (A) (A) (A) (A) (A) (A) (A) (A) (A) (A)
                 (A) (A) (A) (A) (A) (A) (A) (A) (A) (A) (A) (A)
                 (A) (A) (A) (A) (A) (A) (A) (A) (A) (A) (A) (A)
                 (A) (A) (A) (A) (A) (A) (A) (A) (A) (A) (A) (A)
                 (A) (A) (A) (A) (A) (A) (A) (A) (A) (A) (A) (A)
                 (A) (A) (A) (A) (A) (A) (A) (A) (A) (A) (A) (A)
                 (A) (A) (A) (A) (A) (A) (A) (A) (A) (A) (A) (A)
                 (A) (A) (A) (A) (A) (A) (A) (A) (A) (A) (A) (A)
                 (A) (A) (A) (A) (A) (A) (A) (A) (A) (A) (A) (A)
                 (A) (A) (A) (A) (A) (A) (A) (A) (A) (A) (A) (A)
                 (A) (A) (A) (A) (A) (A) (A) (A) (A) (A) (A) (A)
                 (A) (A) (A) (A) (A) (A) (A) (A) (A) (A) (A) (A)
                 (A) (A) (A) (A) (A) (A) (A) (A) (A) (A) (A) (A)
                 (A) (A) (A) (A) (A) (A) (A) (A) (A) (A) (A) (A)
                 (A) (A) (A) (A) (A) (A) (A) (A) (A) (A) (A) (A)
                 (A) (A) (A) (A) (A) (A) (A) (A) (A) (A) (A) (A)
                 (A) (A) (A) (A) (A) (A) (A) (A) (A) (A) (A) (A)
                 (A) (A) (A) (A) (A) (A) (A) (A) (A) (A) (A) (A)
                 (A) (A) (A) (A) (A) (A) (A) (A) (A) (A) (A) (A)
                 (A) (A) (A) (A) (A) (A) (A) (A) (A) (A) (A) (A)
                 (A) (A) (A) (A) (A) (A) (A) (A) (A) (A) (A) (A)
                 (A) (A) (A) (A) (A) (A) (A) (A) (A) (A) (A) (A)
                 (A) (A) (A) (A) (A) (A) (A) (A) (A) (A) (A) (A)
                 (A) (A) (A) (A) (A) (A) (A) (A) (A) (A) (A) (A)
                 (A) (A) (A) (A) (A) (A) (A) (A) (A) (A) (A) (A)
                 (A) (A) (A) (A) (A) (A) (A) (A) (A) (A) (A) (A)
                 (A) (A) (A) (A) (A) (A) (A) (A) (A) (A) (A) (A)
                 (A) (A) (A) (A) (A) (A) (A) (A) (A) (A) (A) (A)
                 (A) (A) (A) (A) (A) (A) (A) (A) (A) (A) (A) (A)
                 (A) (A) (A) (A) (A) (A) (A) (A) (A) (A) (A) (A)
                 (A) (A) (A) (A) (A) (A) (A) (A) (A) (A) (A) (A)
                 (A) (A) (A) (A) (A) (A) (A) (A) (A) (A) (A) (A)
                 (A) (A) (A) (A) (A) (A) (A) (A) (A)
 The electronic state is 1-A.
 Alpha  occ. eigenvalues --  -10.63289 -10.62575 -10.61619 -10.60624  -0.93054
 Alpha  occ. eigenvalues --   -0.84845  -0.71375  -0.64130  -0.55443  -0.53868
 Alpha  occ. eigenvalues --   -0.46785  -0.45451  -0.41228  -0.37814  -0.27444
 Alpha virt. eigenvalues --    0.01247   0.07100   0.07328   0.07927   0.09237
 Alpha virt. eigenvalues --    0.11578   0.12803   0.14949   0.15487   0.16638
 Alpha virt. eigenvalues --    0.18934   0.19745   0.22421   0.23347   0.23679
 Alpha virt. eigenvalues --    0.25993   0.26719   0.30037   0.31800   0.34186
 Alpha virt. eigenvalues --    0.34923   0.35435   0.37083   0.38547   0.39030
 Alpha virt. eigenvalues --    0.41438   0.42871   0.45445   0.47327   0.48548
 Alpha virt. eigenvalues --    0.49827   0.50820   0.51473   0.54904   0.56050
 Alpha virt. eigenvalues --    0.59574   0.64080   0.64875   0.65193   0.69942
 Alpha virt. eigenvalues --    0.70652   0.73818   0.77098   0.77721   0.79544
 Alpha virt. eigenvalues --    0.79947   0.80460   0.82347   0.82625   0.84065
 Alpha virt. eigenvalues --    0.84830   0.86031   0.86450   0.88299   0.89965
 Alpha virt. eigenvalues --    0.91562   0.92606   0.93505   0.94952   0.96848
 Alpha virt. eigenvalues --    0.98289   0.99321   1.01452   1.02464   1.04166
 Alpha virt. eigenvalues --    1.06214   1.07559   1.08431   1.09773   1.13093
 Alpha virt. eigenvalues --    1.15710   1.15838   1.17759   1.20850   1.24424
 Alpha virt. eigenvalues --    1.26381   1.28842   1.32034   1.35423   1.36135
 Alpha virt. eigenvalues --    1.39218   1.40742   1.46871   1.58674   1.61820
 Alpha virt. eigenvalues --    1.64200   1.65430   1.66160   1.70266   1.75299
 Alpha virt. eigenvalues --    1.75371   1.79563   1.82816   1.85914   1.89407
 Alpha virt. eigenvalues --    1.89934   1.90861   1.92749   1.94218   1.95923
 Alpha virt. eigenvalues --    1.97004   1.98360   1.99002   2.02078   2.02611
 Alpha virt. eigenvalues --    2.05132   2.06156   2.06993   2.08083   2.09440
 Alpha virt. eigenvalues --    2.10745   2.12691   2.15301   2.16024   2.19003
 Alpha virt. eigenvalues --    2.20321   2.23622   2.24225   2.26339   2.30250
 Alpha virt. eigenvalues --    2.30973   2.33142   2.35061   2.37403   2.40546
 Alpha virt. eigenvalues --    2.42844   2.45030   2.47020   2.47323   2.48586
 Alpha virt. eigenvalues --    2.51578   2.52603   2.55370   2.55763   2.57004
 Alpha virt. eigenvalues --    2.60200   2.61637   2.62885   2.63906   2.66783
 Alpha virt. eigenvalues --    2.68281   2.70623   2.72113   2.73187   2.74374
 Alpha virt. eigenvalues --    2.75555   2.76900   2.78376   2.80771   2.82619
 Alpha virt. eigenvalues --    2.85697   2.87718   2.90573   2.91238   2.93175
 Alpha virt. eigenvalues --    2.98634   2.99834   3.03731   3.05545   3.09653
 Alpha virt. eigenvalues --    3.13323   3.16314   3.24241   3.30959   3.34614
 Alpha virt. eigenvalues --    3.38006   3.39898   3.43842   3.45686   3.48449
 Alpha virt. eigenvalues --    3.49528   3.51509   3.52337   3.56374   3.59992
 Alpha virt. eigenvalues --    3.62868   3.65780   3.66246   3.68563   3.75819
 Alpha virt. eigenvalues --    3.78463   3.84218   3.85354   3.88925   3.93609
 Alpha virt. eigenvalues --    3.95179   3.98598   4.01641   4.09818   4.12574
 Alpha virt. eigenvalues --    4.15124   4.17396   4.22837   4.22976   4.41540
 Alpha virt. eigenvalues --    4.49807   4.62346   4.62576   4.85828   4.98417
 Alpha virt. eigenvalues --    5.00639   5.05705   5.07466   5.08441   5.10997
 Alpha virt. eigenvalues --    5.13969   5.19838   5.23491   5.29139   5.30920
 Alpha virt. eigenvalues --    5.32379   5.38758   5.42638   5.46646   5.47676
 Alpha virt. eigenvalues --    5.49850   5.57300   5.58747   5.64131   5.67028
 Alpha virt. eigenvalues --    5.69295   5.71199   5.73092   5.74045   5.79114
 Alpha virt. eigenvalues --    5.80784   5.81524   5.83898   5.84812   5.88738
 Alpha virt. eigenvalues --    5.92147   5.92356   5.95993   5.99240   6.01356
 Alpha virt. eigenvalues --    6.04349   6.07292   6.09995   6.10702   6.13891
 Alpha virt. eigenvalues --    6.16050   6.16701   6.19556   6.20588   6.20854
 Alpha virt. eigenvalues --    6.23299   6.25666   6.26552   6.28041   6.30944
 Alpha virt. eigenvalues --    6.31954   6.32283   6.35080   6.37384   6.41024
 Alpha virt. eigenvalues --    6.41676   6.44909   6.46481   6.49055   6.52936
 Alpha virt. eigenvalues --    6.55844   6.59021   6.60222   6.61410   6.64297
 Alpha virt. eigenvalues --    6.68342   6.69156   6.73311   6.76797   6.78276
 Alpha virt. eigenvalues --    6.82685   6.87933   6.89124   6.93604   6.94309
 Alpha virt. eigenvalues --    6.96575   6.97534   7.03884   7.06302   7.07881
 Alpha virt. eigenvalues --    7.11377   7.14753   7.17392   7.21789   7.25796
 Alpha virt. eigenvalues --    7.28826   7.29946   7.34516   7.37390   7.44773
 Alpha virt. eigenvalues --    7.48602   7.54114   7.55941   7.56522   7.59958
 Alpha virt. eigenvalues --    7.62826   7.64071   7.67022   7.67884   7.71248
 Alpha virt. eigenvalues --    7.72290   7.73964   7.77864   7.79016   7.81682
 Alpha virt. eigenvalues --    7.82886   7.85751   7.88045   7.95584   7.97073
 Alpha virt. eigenvalues --    8.00623   8.02296   8.02987   8.05680   8.10039
 Alpha virt. eigenvalues --    8.10991   8.15796   8.20695   8.24900   8.26234
 Alpha virt. eigenvalues --    8.29831   8.31766   8.33805   8.35126   8.35988
 Alpha virt. eigenvalues --    8.37816   8.39215   8.40339   8.42941   8.46324
 Alpha virt. eigenvalues --    8.47945   8.52340   8.55352   8.57778   8.59840
 Alpha virt. eigenvalues --    8.63005   8.64326   8.65825   8.70671   8.71660
 Alpha virt. eigenvalues --    8.73426   8.76917   8.80534   8.82032   8.88738
 Alpha virt. eigenvalues --    8.94321   8.95989   9.00221   9.08070   9.13683
 Alpha virt. eigenvalues --    9.17127   9.22124   9.26702   9.36093   9.40907
 Alpha virt. eigenvalues --    9.59859   9.63812   9.67663   9.81407   9.84453
 Alpha virt. eigenvalues --    9.89985   9.98334  10.07106  10.09497  10.14388
 Alpha virt. eigenvalues --   10.25769  10.27981  10.34347  10.37499  10.38975
 Alpha virt. eigenvalues --   10.47949  10.52768  10.61959  10.71336  10.79032
 Alpha virt. eigenvalues --   11.17362  11.30412  11.55548  11.66275  11.85513
 Alpha virt. eigenvalues --   11.89305  12.60580  13.07104  13.15157  13.24581
 Alpha virt. eigenvalues --   28.60855  28.86095  29.47565  29.73062 148.20329
 Alpha virt. eigenvalues --  148.46401 149.07459 149.35177
          Condensed to atoms (all electrons):
               1          2          3          4          5          6
     1  C    4.826767   0.621958  -0.083997  -0.002845   0.430764   0.425630
     2  C    0.621958   4.830402   0.392629  -0.088612  -0.045659  -0.042246
     3  C   -0.083997   0.392629   4.845649   0.617610   0.006989  -0.004916
     4  C   -0.002845  -0.088612   0.617610   4.843907  -0.000593   0.000003
     5  H    0.430764  -0.045659   0.006989  -0.000593   0.598248  -0.059556
     6  H    0.425630  -0.042246  -0.004916   0.000003  -0.059556   0.611123
     7  H   -0.048528   0.416645  -0.064033  -0.004509  -0.008804   0.007199
     8  H    0.000654  -0.049891   0.406470  -0.045597  -0.000267   0.003466
     9  H    0.000347  -0.007685  -0.040848   0.425122  -0.000039   0.000041
    10  H   -0.000719   0.008040  -0.047307   0.423300   0.000026  -0.000023
               7          8          9         10
     1  C   -0.048528   0.000654   0.000347  -0.000719
     2  C    0.416645  -0.049891  -0.007685   0.008040
     3  C   -0.064033   0.406470  -0.040848  -0.047307
     4  C   -0.004509  -0.045597   0.425122   0.423300
     5  H   -0.008804  -0.000267  -0.000039   0.000026
     6  H    0.007199   0.003466   0.000041  -0.000023
     7  H    0.631233   0.006715   0.004431   0.000028
     8  H    0.006715   0.619263   0.007092  -0.010093
     9  H    0.004431   0.007092   0.593444  -0.049054
    10  H    0.000028  -0.010093  -0.049054   0.601284
 Mulliken charges:
               1
     1  C   -0.170032
     2  C   -0.035580
     3  C   -0.028248
     4  C   -0.167786
     5  H    0.078890
     6  H    0.059280
     7  H    0.059622
     8  H    0.062188
     9  H    0.067147
    10  H    0.074518
 Sum of Mulliken charges =   0.00000
 Mulliken charges with hydrogens summed into heavy atoms:
               1
     1  C   -0.031861
     2  C    0.024042
     3  C    0.033940
     4  C   -0.026121
 Electronic spatial extent (au):  <R**2>=            335.2048
 Charge=              0.0000 electrons
 Dipole moment (field-independent basis, Debye):
    X=              0.0398    Y=             -0.0402    Z=              0.4643  Tot=              0.4678
 Quadrupole moment (field-independent basis, Debye-Ang):
   XX=            -23.1164   YY=            -23.3734   ZZ=            -29.0955
   XY=             -0.5713   XZ=              0.4021   YZ=              0.0511
 Traceless Quadrupole moment (field-independent basis, Debye-Ang):
   XX=              2.0787   YY=              1.8217   ZZ=             -3.9004
   XY=             -0.5713   XZ=              0.4021   YZ=              0.0511
 Octapole moment (field-independent basis, Debye-Ang**2):
  XXX=             -2.8467  YYY=             -0.2671  ZZZ=              0.8227  XYY=              0.6572
  XXY=              0.3910  XXZ=              2.6052  XZZ=             -0.0930  YZZ=             -0.0893
  YYZ=              1.1394  XYZ=              0.6456
 Hexadecapole moment (field-independent basis, Debye-Ang**3):
 XXXX=           -339.1127 YYYY=            -65.4708 ZZZZ=            -37.3097 XXXY=              0.1403
 XXXZ=              2.0430 YYYX=             -2.1999 YYYZ=              0.4485 ZZZX=              0.6677
 ZZZY=             -0.0300 XXYY=            -68.5538 XXZZ=            -76.2124 YYZZ=            -19.0426
 XXYZ=             -0.6345 YYXZ=              0.9308 ZZXY=             -0.5797
 N-N= 1.040882485226D+02 E-N=-5.691163154613D+02  KE= 1.552072145696D+02
 Leave Link  601 at Wed Aug 26 14:46:18 2020, MaxMem=  2097152000 cpu:         0.8
 (Enter /opt/cluster/programs/g09/g09_d.01/g09/l9999.exe)
 1\1\GINC-NODE25\SP\RB2PLYPD3-FC\def2QZVP\C4H6\BOITTIER\26-Aug-2020\0\\
 #p B2PLYPD3/Def2QZVP\\butadiene\\0,1\C,0,-3.86234,0.195764,0.039334\C,
 0,-2.689363,-0.469479,0.005456\C,0,-1.367433,0.105616,-0.036901\C,0,-0
 .291844,-0.691971,0.040232\H,0,-4.780425,-0.210602,0.194726\H,0,-4.003
 973,1.23689,-0.056137\H,0,-2.680611,-1.522169,0.128466\H,0,-1.211943,1
 .222332,0.188437\H,0,-0.315577,-1.748784,0.148066\H,0,0.685189,-0.2454
 45,0.213047\\Version=ES64L-G09RevD.01\State=1-A\HF=-155.6841109\MP2=-1
 55.9104385\RMSD=4.792e-09\PG=C01 [X(C4H6)]\\@


 YOU CAN LEAD A BOY TO COLLEGE....
 BUT YOU CANNOT MAKE HIM THINK....
           ELBERT HUBBARD
 Job cpu time:       0 days  0 hours 41 minutes 18.4 seconds.
 File lengths (MBytes):  RWF=     92 Int=      0 D2E=      0 Chk=      9 Scr=      1
 Normal termination of Gaussian 09 at Wed Aug 26 14:46:18 2020.
