 Entering Gaussian System, Link 0=/opt/cluster/programs/g09/g09_d.01/g09//g09
 Input=/home/boittier/MDCM/nms_sampling/butadiene_geom.xyz.dir/energies/butadiene_1523_energy.com
 Output=/scratch/boittier/butadiene_1523_energy/butadiene_1523_energy.out
 Initial command:
 /opt/cluster/programs/g09/g09_d.01/g09/l1.exe "/scratch/boittier/butadiene_1523_energy/Gau-39041.inp" -scrdir="/scratch/boittier/butadiene_1523_energy/"
 Entering Link 1 = /opt/cluster/programs/g09/g09_d.01/g09/l1.exe PID=     39042.
  
 Copyright (c) 1988,1990,1992,1993,1995,1998,2003,2009,2013,
            Gaussian, Inc.  All Rights Reserved.
  
 This is part of the Gaussian(R) 09 program.  It is based on
 the Gaussian(R) 03 system (copyright 2003, Gaussian, Inc.),
 the Gaussian(R) 98 system (copyright 1998, Gaussian, Inc.),
 the Gaussian(R) 94 system (copyright 1995, Gaussian, Inc.),
 the Gaussian 92(TM) system (copyright 1992, Gaussian, Inc.),
 the Gaussian 90(TM) system (copyright 1990, Gaussian, Inc.),
 the Gaussian 88(TM) system (copyright 1988, Gaussian, Inc.),
 the Gaussian 86(TM) system (copyright 1986, Carnegie Mellon
 University), and the Gaussian 82(TM) system (copyright 1983,
 Carnegie Mellon University). Gaussian is a federally registered
 trademark of Gaussian, Inc.
  
 This software contains proprietary and confidential information,
 including trade secrets, belonging to Gaussian, Inc.
  
 This software is provided under written license and may be
 used, copied, transmitted, or stored only in accord with that
 written license.
  
 The following legend is applicable only to US Government
 contracts under FAR:
  
                    RESTRICTED RIGHTS LEGEND
  
 Use, reproduction and disclosure by the US Government is
 subject to restrictions as set forth in subparagraphs (a)
 and (c) of the Commercial Computer Software - Restricted
 Rights clause in FAR 52.227-19.
  
 Gaussian, Inc.
 340 Quinnipiac St., Bldg. 40, Wallingford CT 06492
  
  
 ---------------------------------------------------------------
 Warning -- This program may not be used in any manner that
 competes with the business of Gaussian, Inc. or will provide
 assistance to any competitor of Gaussian, Inc.  The licensee
 of this program is prohibited from giving any competitor of
 Gaussian, Inc. access to this program.  By using this program,
 the user acknowledges that Gaussian, Inc. is engaged in the
 business of creating and licensing software in the field of
 computational chemistry and represents and warrants to the
 licensee that it is not a competitor of Gaussian, Inc. and that
 it will not use this program in any manner prohibited above.
 ---------------------------------------------------------------
  

 Cite this work as:
 Gaussian 09, Revision D.01,
 M. J. Frisch, G. W. Trucks, H. B. Schlegel, G. E. Scuseria, 
 M. A. Robb, J. R. Cheeseman, G. Scalmani, V. Barone, B. Mennucci, 
 G. A. Petersson, H. Nakatsuji, M. Caricato, X. Li, H. P. Hratchian, 
 A. F. Izmaylov, J. Bloino, G. Zheng, J. L. Sonnenberg, M. Hada, 
 M. Ehara, K. Toyota, R. Fukuda, J. Hasegawa, M. Ishida, T. Nakajima, 
 Y. Honda, O. Kitao, H. Nakai, T. Vreven, J. A. Montgomery, Jr., 
 J. E. Peralta, F. Ogliaro, M. Bearpark, J. J. Heyd, E. Brothers, 
 K. N. Kudin, V. N. Staroverov, T. Keith, R. Kobayashi, J. Normand, 
 K. Raghavachari, A. Rendell, J. C. Burant, S. S. Iyengar, J. Tomasi, 
 M. Cossi, N. Rega, J. M. Millam, M. Klene, J. E. Knox, J. B. Cross, 
 V. Bakken, C. Adamo, J. Jaramillo, R. Gomperts, R. E. Stratmann, 
 O. Yazyev, A. J. Austin, R. Cammi, C. Pomelli, J. W. Ochterski, 
 R. L. Martin, K. Morokuma, V. G. Zakrzewski, G. A. Voth, 
 P. Salvador, J. J. Dannenberg, S. Dapprich, A. D. Daniels, 
 O. Farkas, J. B. Foresman, J. V. Ortiz, J. Cioslowski, 
 and D. J. Fox, Gaussian, Inc., Wallingford CT, 2013.
 
 ******************************************
 Gaussian 09:  ES64L-G09RevD.01 24-Apr-2013
                26-Aug-2020 
 ******************************************
 %chk=/home/boittier/MDCM/nms_sampling/butadiene_geom.xyz.dir/butadiene_1523.chk
 %nproc=8
 Will use up to    8 processors via shared memory.
 %mem=16000MB
 --------------------
 #p B2PLYPD3/Def2QZVP
 --------------------
 1/38=1/1;
 2/12=2,17=6,18=5,40=1/2;
 3/5=45,7=101,11=9,16=1,25=1,30=1,74=-60/1,2,3;
 4//1;
 5/5=2,38=5/2;
 8/10=1/1;
 9/16=-3/6;
 6/7=2,8=2,9=2,10=2/1;
 99/5=1,9=1/99;
 Leave Link    1 at Wed Aug 26 10:27:33 2020, MaxMem=  2097152000 cpu:         0.2
 (Enter /opt/cluster/programs/g09/g09_d.01/g09/l101.exe)
 ---------
 butadiene
 ---------
 Symbolic Z-matrix:
 Charge =  0 Multiplicity = 1
 C                    -3.85507   0.21736   0.04834 
 C                    -2.73298  -0.48025   0.00271 
 C                    -1.37254   0.07647  -0.01823 
 C                    -0.25571  -0.66143   0.0679 
 H                    -4.72314  -0.31806   0.03707 
 H                    -3.88074   1.28419   0.08426 
 H                    -2.75451  -1.57843  -0.05712 
 H                    -1.25649   1.16017  -0.09273 
 H                    -0.31984  -1.73933   0.18121 
 H                     0.72168  -0.22542  -0.06304 
 
 NAtoms=     10 NQM=       10 NQMF=       0 NMMI=      0 NMMIF=      0
                NMic=       0 NMicF=      0.
                    Isotopes and Nuclear Properties:
 (Nuclear quadrupole moments (NQMom) in fm**2, nuclear magnetic moments (NMagM)
  in nuclear magnetons)

  Atom         1           2           3           4           5           6           7           8           9          10
 IAtWgt=          12          12          12          12           1           1           1           1           1           1
 AtmWgt=  12.0000000  12.0000000  12.0000000  12.0000000   1.0078250   1.0078250   1.0078250   1.0078250   1.0078250   1.0078250
 NucSpn=           0           0           0           0           1           1           1           1           1           1
 AtZEff=   0.0000000   0.0000000   0.0000000   0.0000000   0.0000000   0.0000000   0.0000000   0.0000000   0.0000000   0.0000000
 NQMom=    0.0000000   0.0000000   0.0000000   0.0000000   0.0000000   0.0000000   0.0000000   0.0000000   0.0000000   0.0000000
 NMagM=    0.0000000   0.0000000   0.0000000   0.0000000   2.7928460   2.7928460   2.7928460   2.7928460   2.7928460   2.7928460
 AtZNuc=   6.0000000   6.0000000   6.0000000   6.0000000   1.0000000   1.0000000   1.0000000   1.0000000   1.0000000   1.0000000
 Leave Link  101 at Wed Aug 26 10:27:33 2020, MaxMem=  2097152000 cpu:         0.5
 (Enter /opt/cluster/programs/g09/g09_d.01/g09/l202.exe)
                          Input orientation:                          
 ---------------------------------------------------------------------
 Center     Atomic      Atomic             Coordinates (Angstroms)
 Number     Number       Type             X           Y           Z
 ---------------------------------------------------------------------
      1          6           0       -3.855071    0.217364    0.048336
      2          6           0       -2.732984   -0.480247    0.002706
      3          6           0       -1.372542    0.076470   -0.018233
      4          6           0       -0.255713   -0.661426    0.067904
      5          1           0       -4.723144   -0.318058    0.037073
      6          1           0       -3.880736    1.284188    0.084259
      7          1           0       -2.754511   -1.578428   -0.057121
      8          1           0       -1.256486    1.160173   -0.092725
      9          1           0       -0.319844   -1.739327    0.181212
     10          1           0        0.721676   -0.225418   -0.063042
 ---------------------------------------------------------------------
                    Distance matrix (angstroms):
                    1          2          3          4          5
     1  C    0.000000
     2  C    1.322052   0.000000
     3  C    2.487415   1.470093   0.000000
     4  C    3.705136   2.484743   1.341349   0.000000
     5  H    1.019978   1.997054   3.374203   4.480713   0.000000
     6  H    1.067737   2.106470   2.785700   4.114180   1.810820
     7  H    2.108844   1.100020   2.156395   2.664679   2.339427
     8  H    2.767929   2.209102   1.092442   2.084603   3.770906
     9  H    4.042787   2.727708   2.108333   1.085736   4.629237
    10  H    4.599465   3.464670   2.116340   1.078211   5.446528
                    6          7          8          9         10
     6  H    0.000000
     7  H    3.079438   0.000000
     8  H    2.633133   3.121743   0.000000
     9  H    4.672365   2.451590   3.059320   0.000000
    10  H    4.845906   3.730221   2.415340   1.853738   0.000000
 Stoichiometry    C4H6
 Framework group  C1[X(C4H6)]
 Deg. of freedom    24
 Full point group                 C1      NOp   1
 Largest Abelian subgroup         C1      NOp   1
 Largest concise Abelian subgroup C1      NOp   1
                         Standard orientation:                         
 ---------------------------------------------------------------------
 Center     Atomic      Atomic             Coordinates (Angstroms)
 Number     Number       Type             X           Y           Z
 ---------------------------------------------------------------------
      1          6           0       -1.853140    0.105451    0.029173
      2          6           0       -0.624895   -0.379856   -0.031763
      3          6           0        0.614846    0.410213   -0.029126
      4          6           0        1.845133   -0.119668    0.040408
      5          1           0       -2.612161   -0.575163   -0.002538
      6          1           0       -2.068106    1.149123    0.097011
      7          1           0       -0.450803   -1.462032   -0.124674
      8          1           0        0.536296    1.499045   -0.070432
      9          1           0        1.973764   -1.194745    0.120947
     10          1           0        2.729350    0.486929   -0.072463
 ---------------------------------------------------------------------
 Rotational constants (GHZ):     42.4087368      4.4135658      4.0039993
 Leave Link  202 at Wed Aug 26 10:27:33 2020, MaxMem=  2097152000 cpu:         0.0
 (Enter /opt/cluster/programs/g09/g09_d.01/g09/l301.exe)
 Standard basis: def2QZVP (5D, 7F)
 Ernie: Thresh=  0.10000D-02 Tol=  0.10000D-05 Strict=F.
 There are   498 symmetry adapted cartesian basis functions of A   symmetry.
 There are   408 symmetry adapted basis functions of A   symmetry.
   408 basis functions,   596 primitive gaussians,   498 cartesian basis functions
    15 alpha electrons       15 beta electrons
       nuclear repulsion energy       103.9541593370 Hartrees.
 IExCor=  419 DFT=T Ex+Corr=B2PLYPD3 ExCW=0 ScaHFX=  0.530000
 ScaDFX=  0.470000  0.470000  0.730000  0.730000 ScalE2=  0.270000  0.270000
 IRadAn=      0 IRanWt=     -1 IRanGd=            0 ICorTp=0 IEmpDi=141
 NAtoms=   10 NActive=   10 NUniq=   10 SFac= 1.00D+00 NAtFMM=   60 NAOKFM=F Big=F
 Integral buffers will be    131072 words long.
 Regular integral format.
 Two-electron integral symmetry is turned on.
 R6Disp:  Grimme-D3(BJ) Dispersion energy=       -0.0048288640 Hartrees.
 Nuclear repulsion after empirical dispersion term =      103.9493304731 Hartrees.
 Leave Link  301 at Wed Aug 26 10:27:33 2020, MaxMem=  2097152000 cpu:         0.4
 (Enter /opt/cluster/programs/g09/g09_d.01/g09/l302.exe)
 NPDir=0 NMtPBC=     1 NCelOv=     1 NCel=       1 NClECP=     1 NCelD=      1
         NCelK=      1 NCelE2=     1 NClLst=     1 CellRange=     0.0.
 One-electron integrals computed using PRISM.
   1 Symmetry operations used in ECPInt.
 ECPInt:  NShTT=    8256 NPrTT=   19107 LenC2=    8059 LenP2D=   16112.
 LDataN:  DoStor=T MaxTD1= 8 Len=  415
 NBasis=   408 RedAO= T EigKep=  4.57D-05  NBF=   408
 NBsUse=   408 1.00D-06 EigRej= -1.00D+00 NBFU=   408
 Precomputing XC quadrature grid using
 IXCGrd= 4 IRadAn=           0 IRanWt=          -1 IRanGd=           0 AccXCQ= 0.00D+00.
 Generated NRdTot=       0 NPtTot=           0 NUsed=           0 NTot=          32
 NSgBfM=   498   498   498   498   498 MxSgAt=    10 MxSgA2=    10.
 Leave Link  302 at Wed Aug 26 10:27:34 2020, MaxMem=  2097152000 cpu:         3.7
 (Enter /opt/cluster/programs/g09/g09_d.01/g09/l303.exe)
 DipDrv:  MaxL=1.
 Leave Link  303 at Wed Aug 26 10:27:34 2020, MaxMem=  2097152000 cpu:         0.4
 (Enter /opt/cluster/programs/g09/g09_d.01/g09/l401.exe)
 ExpMin= 7.60D-02 ExpMax= 6.70D+04 ExpMxC= 6.47D+02 IAcc=2 IRadAn=         4 AccDes= 0.00D+00
 Harris functional with IExCor=  419 and IRadAn=       4 diagonalized for initial guess.
 HarFok:  IExCor=  419 AccDes= 0.00D+00 IRadAn=         4 IDoV= 1 UseB2=F ITyADJ=14
 ICtDFT=  3500011 ScaDFX=  1.000000  1.000000  1.000000  1.000000
 FoFCou: FMM=F IPFlag=           0 FMFlag=      100000 FMFlg1=           0
         NFxFlg=           0 DoJE=T BraDBF=F KetDBF=T FulRan=T
         wScrn=  0.000000 ICntrl=     500 IOpCl=  0 I1Cent=   200000004 NGrid=           0
         NMat0=    1 NMatS0=      1 NMatT0=    0 NMatD0=    1 NMtDS0=    0 NMtDT0=    0
 Petite list used in FoFCou.
 Harris En= -156.138048387099    
 JPrj=0 DoOrth=F DoCkMO=F.
 Leave Link  401 at Wed Aug 26 10:27:35 2020, MaxMem=  2097152000 cpu:         9.4
 (Enter /opt/cluster/programs/g09/g09_d.01/g09/l502.exe)
 Closed shell SCF:
 Using DIIS extrapolation, IDIIS=  1040.
 Integral symmetry usage will be decided dynamically.
 IVT=      770090 IEndB=      770090 NGot=  2097152000 MDV=  2096647053
 LenX=  2096647053 LenY=  2096398551
 Requested convergence on RMS density matrix=1.00D-08 within 128 cycles.
 Requested convergence on MAX density matrix=1.00D-06.
 Requested convergence on             energy=1.00D-06.
 No special actions if energy rises.
 Fock matrices will be formed incrementally for  20 cycles.
 Integral accuracy reduced to 1.0D-05 until final iterations.

 Cycle   1  Pass 0  IDiag  1:
 FoFJK:  IHMeth= 1 ICntrl=       0 DoSepK=F KAlg= 0 I1Cent=   0 FoldK=F
 IRaf= 940000000 NMat=   1 IRICut=       1 DoRegI=T DoRafI=F ISym2E= 0.
 FoFCou: FMM=F IPFlag=           0 FMFlag=      100000 FMFlg1=           0
         NFxFlg=           0 DoJE=F BraDBF=F KetDBF=F FulRan=T
         wScrn=  0.000000 ICntrl=       0 IOpCl=  0 I1Cent=           0 NGrid=           0
         NMat0=    1 NMatS0=      1 NMatT0=    0 NMatD0=    1 NMtDS0=    0 NMtDT0=    0
 Symmetry not used in FoFCou.
 E= -155.504732404835    
 DIIS: error= 3.45D-02 at cycle   1 NSaved=   1.
 NSaved= 1 IEnMin= 1 EnMin= -155.504732404835     IErMin= 1 ErrMin= 3.45D-02
 ErrMax= 3.45D-02  0.00D+00 EMaxC= 1.00D-01 BMatC= 2.59D-01 BMatP= 2.59D-01
 IDIUse=3 WtCom= 6.55D-01 WtEn= 3.45D-01
 Coeff-Com:  0.100D+01
 Coeff-En:   0.100D+01
 Coeff:      0.100D+01
 Gap=     0.302 Goal=   None    Shift=    0.000
 GapD=    0.302 DampG=1.000 DampE=0.500 DampFc=0.5000 IDamp=-1.
 Damping current iteration by 5.00D-01
 RMSDP=9.69D-04 MaxDP=5.30D-02              OVMax= 1.96D-01

 Cycle   2  Pass 0  IDiag  1:
 RMSU=  4.46D-04    CP:  9.50D-01
 E= -155.607229476081     Delta-E=       -0.102497071246 Rises=F Damp=T
 DIIS: error= 9.98D-03 at cycle   2 NSaved=   2.
 NSaved= 2 IEnMin= 2 EnMin= -155.607229476081     IErMin= 2 ErrMin= 9.98D-03
 ErrMax= 9.98D-03  0.00D+00 EMaxC= 1.00D-01 BMatC= 3.01D-02 BMatP= 2.59D-01
 IDIUse=3 WtCom= 9.00D-01 WtEn= 9.98D-02
 Coeff-Com: -0.304D+00 0.130D+01
 Coeff-En:   0.000D+00 0.100D+01
 Coeff:     -0.274D+00 0.127D+01
 Gap=     0.360 Goal=   None    Shift=    0.000
 RMSDP=2.69D-04 MaxDP=8.00D-03 DE=-1.02D-01 OVMax= 9.18D-02

 Cycle   3  Pass 0  IDiag  1:
 RMSU=  2.58D-04    CP:  9.32D-01  1.08D+00
 E= -155.695341990366     Delta-E=       -0.088112514285 Rises=F Damp=F
 DIIS: error= 3.95D-03 at cycle   3 NSaved=   3.
 NSaved= 3 IEnMin= 3 EnMin= -155.695341990366     IErMin= 3 ErrMin= 3.95D-03
 ErrMax= 3.95D-03  0.00D+00 EMaxC= 1.00D-01 BMatC= 1.47D-03 BMatP= 3.01D-02
 IDIUse=3 WtCom= 9.60D-01 WtEn= 3.95D-02
 Coeff-Com: -0.102D+00 0.192D+00 0.911D+00
 Coeff-En:   0.000D+00 0.000D+00 0.100D+01
 Coeff:     -0.984D-01 0.184D+00 0.914D+00
 Gap=     0.297 Goal=   None    Shift=    0.000
 RMSDP=6.12D-05 MaxDP=3.22D-03 DE=-8.81D-02 OVMax= 1.70D-02

 Cycle   4  Pass 0  IDiag  1:
 RMSU=  4.28D-05    CP:  9.28D-01  1.17D+00  9.60D-01
 E= -155.696577463115     Delta-E=       -0.001235472749 Rises=F Damp=F
 DIIS: error= 2.06D-03 at cycle   4 NSaved=   4.
 NSaved= 4 IEnMin= 4 EnMin= -155.696577463115     IErMin= 4 ErrMin= 2.06D-03
 ErrMax= 2.06D-03  0.00D+00 EMaxC= 1.00D-01 BMatC= 3.45D-04 BMatP= 1.47D-03
 IDIUse=3 WtCom= 9.79D-01 WtEn= 2.06D-02
 Coeff-Com: -0.470D-01 0.761D-01 0.468D+00 0.503D+00
 Coeff-En:   0.000D+00 0.000D+00 0.141D-01 0.986D+00
 Coeff:     -0.460D-01 0.746D-01 0.458D+00 0.513D+00
 Gap=     0.297 Goal=   None    Shift=    0.000
 RMSDP=2.32D-05 MaxDP=1.18D-03 DE=-1.24D-03 OVMax= 7.52D-03

 Cycle   5  Pass 0  IDiag  1:
 RMSU=  1.49D-05    CP:  9.29D-01  1.16D+00  9.93D-01  6.45D-01
 E= -155.696912307642     Delta-E=       -0.000334844526 Rises=F Damp=F
 DIIS: error= 3.06D-04 at cycle   5 NSaved=   5.
 NSaved= 5 IEnMin= 5 EnMin= -155.696912307642     IErMin= 5 ErrMin= 3.06D-04
 ErrMax= 3.06D-04  0.00D+00 EMaxC= 1.00D-01 BMatC= 6.19D-06 BMatP= 3.45D-04
 IDIUse=3 WtCom= 9.97D-01 WtEn= 3.06D-03
 Coeff-Com: -0.316D-02 0.291D-02 0.418D-01 0.136D+00 0.823D+00
 Coeff-En:   0.000D+00 0.000D+00 0.000D+00 0.000D+00 0.100D+01
 Coeff:     -0.315D-02 0.290D-02 0.416D-01 0.135D+00 0.823D+00
 Gap=     0.297 Goal=   None    Shift=    0.000
 RMSDP=3.89D-06 MaxDP=1.51D-04 DE=-3.35D-04 OVMax= 1.21D-03

 Initial convergence to 1.0D-05 achieved.  Increase integral accuracy.
 Cycle   6  Pass 1  IDiag  1:
 E= -155.696932985374     Delta-E=       -0.000020677733 Rises=F Damp=F
 DIIS: error= 3.59D-05 at cycle   1 NSaved=   1.
 NSaved= 1 IEnMin= 1 EnMin= -155.696932985374     IErMin= 1 ErrMin= 3.59D-05
 ErrMax= 3.59D-05  0.00D+00 EMaxC= 1.00D-01 BMatC= 4.65D-07 BMatP= 4.65D-07
 IDIUse=1 WtCom= 1.00D+00 WtEn= 0.00D+00
 Coeff-Com:  0.100D+01
 Coeff:      0.100D+01
 Gap=     0.297 Goal=   None    Shift=    0.000
 RMSDP=3.89D-06 MaxDP=1.51D-04 DE=-2.07D-05 OVMax= 3.15D-04

 Cycle   7  Pass 1  IDiag  1:
 RMSU=  1.83D-05    CP:  1.00D+00
 E= -155.696933315175     Delta-E=       -0.000000329801 Rises=F Damp=F
 DIIS: error= 1.83D-05 at cycle   2 NSaved=   2.
 NSaved= 2 IEnMin= 2 EnMin= -155.696933315175     IErMin= 2 ErrMin= 1.83D-05
 ErrMax= 1.83D-05  0.00D+00 EMaxC= 1.00D-01 BMatC= 2.16D-08 BMatP= 4.65D-07
 IDIUse=1 WtCom= 1.00D+00 WtEn= 0.00D+00
 Coeff-Com:  0.558D-01 0.944D+00
 Coeff:      0.558D-01 0.944D+00
 Gap=     0.297 Goal=   None    Shift=    0.000
 RMSDP=9.00D-07 MaxDP=3.27D-05 DE=-3.30D-07 OVMax= 1.28D-04

 Cycle   8  Pass 1  IDiag  1:
 RMSU=  5.43D-07    CP:  1.00D+00  1.04D+00
 E= -155.696933332494     Delta-E=       -0.000000017320 Rises=F Damp=F
 DIIS: error= 9.47D-06 at cycle   3 NSaved=   3.
 NSaved= 3 IEnMin= 3 EnMin= -155.696933332494     IErMin= 3 ErrMin= 9.47D-06
 ErrMax= 9.47D-06  0.00D+00 EMaxC= 1.00D-01 BMatC= 1.40D-08 BMatP= 2.16D-08
 IDIUse=1 WtCom= 1.00D+00 WtEn= 0.00D+00
 Coeff-Com: -0.152D-01 0.439D+00 0.576D+00
 Coeff:     -0.152D-01 0.439D+00 0.576D+00
 Gap=     0.297 Goal=   None    Shift=    0.000
 RMSDP=2.09D-07 MaxDP=1.18D-05 DE=-1.73D-08 OVMax= 5.65D-05

 Cycle   9  Pass 1  IDiag  1:
 RMSU=  1.80D-07    CP:  1.00D+00  1.04D+00  1.05D+00
 E= -155.696933346213     Delta-E=       -0.000000013719 Rises=F Damp=F
 DIIS: error= 4.38D-06 at cycle   4 NSaved=   4.
 NSaved= 4 IEnMin= 4 EnMin= -155.696933346213     IErMin= 4 ErrMin= 4.38D-06
 ErrMax= 4.38D-06  0.00D+00 EMaxC= 1.00D-01 BMatC= 6.53D-10 BMatP= 1.40D-08
 IDIUse=1 WtCom= 1.00D+00 WtEn= 0.00D+00
 Coeff-Com: -0.100D-01 0.482D-01 0.179D+00 0.783D+00
 Coeff:     -0.100D-01 0.482D-01 0.179D+00 0.783D+00
 Gap=     0.297 Goal=   None    Shift=    0.000
 RMSDP=6.23D-08 MaxDP=1.83D-06 DE=-1.37D-08 OVMax= 1.86D-05

 Cycle  10  Pass 1  IDiag  1:
 RMSU=  4.40D-08    CP:  1.00D+00  1.05D+00  1.12D+00  1.05D+00
 E= -155.696933347123     Delta-E=       -0.000000000909 Rises=F Damp=F
 DIIS: error= 8.28D-07 at cycle   5 NSaved=   5.
 NSaved= 5 IEnMin= 5 EnMin= -155.696933347123     IErMin= 5 ErrMin= 8.28D-07
 ErrMax= 8.28D-07  0.00D+00 EMaxC= 1.00D-01 BMatC= 6.27D-11 BMatP= 6.53D-10
 IDIUse=1 WtCom= 1.00D+00 WtEn= 0.00D+00
 Coeff-Com: -0.318D-04-0.501D-01-0.421D-01 0.183D+00 0.909D+00
 Coeff:     -0.318D-04-0.501D-01-0.421D-01 0.183D+00 0.909D+00
 Gap=     0.297 Goal=   None    Shift=    0.000
 RMSDP=2.73D-08 MaxDP=9.91D-07 DE=-9.09D-10 OVMax= 7.88D-06

 Cycle  11  Pass 1  IDiag  1:
 RMSU=  1.97D-08    CP:  1.00D+00  1.05D+00  1.14D+00  1.12D+00  1.12D+00
 E= -155.696933347240     Delta-E=       -0.000000000117 Rises=F Damp=F
 DIIS: error= 1.75D-07 at cycle   6 NSaved=   6.
 NSaved= 6 IEnMin= 6 EnMin= -155.696933347240     IErMin= 6 ErrMin= 1.75D-07
 ErrMax= 1.75D-07  0.00D+00 EMaxC= 1.00D-01 BMatC= 7.65D-12 BMatP= 6.27D-11
 IDIUse=1 WtCom= 1.00D+00 WtEn= 0.00D+00
 Coeff-Com:  0.715D-03-0.239D-01-0.310D-01 0.156D-01 0.360D+00 0.679D+00
 Coeff:      0.715D-03-0.239D-01-0.310D-01 0.156D-01 0.360D+00 0.679D+00
 Gap=     0.297 Goal=   None    Shift=    0.000
 RMSDP=5.62D-09 MaxDP=2.48D-07 DE=-1.17D-10 OVMax= 1.42D-06

 SCF Done:  E(RB2PLYPD3) =  -155.696933347     A.U. after   11 cycles
            NFock= 11  Conv=0.56D-08     -V/T= 2.0032
 KE= 1.552051425705D+02 PE=-5.688874372049D+02 EE= 1.540360308141D+02
 Leave Link  502 at Wed Aug 26 10:30:38 2020, MaxMem=  2097152000 cpu:      1459.0
 (Enter /opt/cluster/programs/g09/g09_d.01/g09/l801.exe)
 DoSCS=T DFT=T ScalE2(SS,OS)=  0.270000  0.270000
 ExpMin= 7.60D-02 ExpMax= 6.70D+04 ExpMxC= 6.47D+02 IAcc=3 IRadAn=         5 AccDes= 0.00D+00
 HarFok:  IExCor=  205 AccDes= 0.00D+00 IRadAn=         5 IDoV=-2 UseB2=F ITyADJ=14
 ICtDFT= 12500011 ScaDFX=  1.000000  1.000000  1.000000  1.000000
 Largest valence mixing into a core orbital is  1.12D-04
 Largest core mixing into a valence orbital is  1.99D-05
 Range of M.O.s used for correlation:     5   408
 NBasis=   408 NAE=    15 NBE=    15 NFC=     4 NFV=     0
 NROrb=    404 NOA=    11 NOB=    11 NVA=   393 NVB=   393

 **** Warning!!: The largest alpha MO coefficient is  0.27014540D+02

 Leave Link  801 at Wed Aug 26 10:30:38 2020, MaxMem=  2097152000 cpu:         1.0
 (Enter /opt/cluster/programs/g09/g09_d.01/g09/l906.exe)
 DoSCS=T DFT=T ScalE2(SS,OS)=  0.270000  0.270000
 FulOut=F Deriv=F AODrv=F NAtomX=    10
   MMem=         881  MDisk=          11 MDiskD=          11
  W3Min=     2152854 MinDsk=     3857222 NBas6D=         498
 NBas2D=      125763    NTT=      124251    LW2=     4508827
    MDV=  2096382546 MDiskM=        9345 NBas2p=      117488
 Fully direct method using O(OVN) memory.
 IMap=   1   2   3   4   5   6   7   8   9  10  11
 JobTyp=1 Pass  1:  I=   1 to  11 NPSUse=  8 ParTrn=T ParDer=T DoDerP=F.
 Spin components of T(2) and E(2):
     alpha-alpha T2 =       0.4171765472D-01 E2=     -0.2535488995D-01
     alpha-beta  T2 =       0.2696586128D+00 E2=     -0.1745857463D+00
     beta-beta   T2 =       0.4171765472D-01 E2=     -0.2535488995D-01
 The integrals were generated   1 times.
 E2(B2PLYPD3) =    -0.2252955262D+00 E(B2PLYPD3) =    -0.15592222887347D+03
 Leave Link  906 at Wed Aug 26 10:32:17 2020, MaxMem=  2097152000 cpu:       790.5
 (Enter /opt/cluster/programs/g09/g09_d.01/g09/l601.exe)
 Copying SCF densities to generalized density rwf, IOpCl= 0 IROHF=0.

 **********************************************************************

            Population analysis using the SCF density.

 **********************************************************************

 Orbital symmetries:
       Occupied  (A) (A) (A) (A) (A) (A) (A) (A) (A) (A) (A) (A)
                 (A) (A) (A)
       Virtual   (A) (A) (A) (A) (A) (A) (A) (A) (A) (A) (A) (A)
                 (A) (A) (A) (A) (A) (A) (A) (A) (A) (A) (A) (A)
                 (A) (A) (A) (A) (A) (A) (A) (A) (A) (A) (A) (A)
                 (A) (A) (A) (A) (A) (A) (A) (A) (A) (A) (A) (A)
                 (A) (A) (A) (A) (A) (A) (A) (A) (A) (A) (A) (A)
                 (A) (A) (A) (A) (A) (A) (A) (A) (A) (A) (A) (A)
                 (A) (A) (A) (A) (A) (A) (A) (A) (A) (A) (A) (A)
                 (A) (A) (A) (A) (A) (A) (A) (A) (A) (A) (A) (A)
                 (A) (A) (A) (A) (A) (A) (A) (A) (A) (A) (A) (A)
                 (A) (A) (A) (A) (A) (A) (A) (A) (A) (A) (A) (A)
                 (A) (A) (A) (A) (A) (A) (A) (A) (A) (A) (A) (A)
                 (A) (A) (A) (A) (A) (A) (A) (A) (A) (A) (A) (A)
                 (A) (A) (A) (A) (A) (A) (A) (A) (A) (A) (A) (A)
                 (A) (A) (A) (A) (A) (A) (A) (A) (A) (A) (A) (A)
                 (A) (A) (A) (A) (A) (A) (A) (A) (A) (A) (A) (A)
                 (A) (A) (A) (A) (A) (A) (A) (A) (A) (A) (A) (A)
                 (A) (A) (A) (A) (A) (A) (A) (A) (A) (A) (A) (A)
                 (A) (A) (A) (A) (A) (A) (A) (A) (A) (A) (A) (A)
                 (A) (A) (A) (A) (A) (A) (A) (A) (A) (A) (A) (A)
                 (A) (A) (A) (A) (A) (A) (A) (A) (A) (A) (A) (A)
                 (A) (A) (A) (A) (A) (A) (A) (A) (A) (A) (A) (A)
                 (A) (A) (A) (A) (A) (A) (A) (A) (A) (A) (A) (A)
                 (A) (A) (A) (A) (A) (A) (A) (A) (A) (A) (A) (A)
                 (A) (A) (A) (A) (A) (A) (A) (A) (A) (A) (A) (A)
                 (A) (A) (A) (A) (A) (A) (A) (A) (A) (A) (A) (A)
                 (A) (A) (A) (A) (A) (A) (A) (A) (A) (A) (A) (A)
                 (A) (A) (A) (A) (A) (A) (A) (A) (A) (A) (A) (A)
                 (A) (A) (A) (A) (A) (A) (A) (A) (A) (A) (A) (A)
                 (A) (A) (A) (A) (A) (A) (A) (A) (A) (A) (A) (A)
                 (A) (A) (A) (A) (A) (A) (A) (A) (A) (A) (A) (A)
                 (A) (A) (A) (A) (A) (A) (A) (A) (A) (A) (A) (A)
                 (A) (A) (A) (A) (A) (A) (A) (A) (A) (A) (A) (A)
                 (A) (A) (A) (A) (A) (A) (A) (A) (A)
 The electronic state is 1-A.
 Alpha  occ. eigenvalues --  -10.62674 -10.62570 -10.61567 -10.60533  -0.92764
 Alpha  occ. eigenvalues --   -0.85354  -0.70388  -0.63749  -0.54841  -0.54292
 Alpha  occ. eigenvalues --   -0.46859  -0.46058  -0.40910  -0.37811  -0.27903
 Alpha virt. eigenvalues --    0.01814   0.07063   0.07458   0.08089   0.09689
 Alpha virt. eigenvalues --    0.11673   0.12378   0.14824   0.15753   0.16213
 Alpha virt. eigenvalues --    0.18903   0.20255   0.21670   0.22572   0.24011
 Alpha virt. eigenvalues --    0.26915   0.27189   0.29283   0.31894   0.34889
 Alpha virt. eigenvalues --    0.35332   0.36518   0.37843   0.38574   0.40532
 Alpha virt. eigenvalues --    0.42908   0.43492   0.44438   0.47611   0.47901
 Alpha virt. eigenvalues --    0.48512   0.50059   0.52859   0.55373   0.56439
 Alpha virt. eigenvalues --    0.57698   0.60999   0.64723   0.66984   0.68431
 Alpha virt. eigenvalues --    0.69028   0.71222   0.76585   0.77990   0.79503
 Alpha virt. eigenvalues --    0.79847   0.80570   0.81449   0.82505   0.84137
 Alpha virt. eigenvalues --    0.84219   0.86335   0.86756   0.87400   0.90401
 Alpha virt. eigenvalues --    0.92191   0.92940   0.93736   0.96029   0.97412
 Alpha virt. eigenvalues --    0.98993   0.99280   0.99820   1.03113   1.04981
 Alpha virt. eigenvalues --    1.06726   1.08089   1.10497   1.11892   1.12503
 Alpha virt. eigenvalues --    1.13681   1.16934   1.19573   1.21933   1.22679
 Alpha virt. eigenvalues --    1.24534   1.25404   1.33530   1.34099   1.37001
 Alpha virt. eigenvalues --    1.38508   1.40918   1.47933   1.61696   1.63940
 Alpha virt. eigenvalues --    1.65320   1.68893   1.70912   1.72546   1.72944
 Alpha virt. eigenvalues --    1.75484   1.81040   1.83323   1.84998   1.88442
 Alpha virt. eigenvalues --    1.88870   1.89885   1.91150   1.92421   1.93026
 Alpha virt. eigenvalues --    1.95884   1.98140   2.00065   2.01459   2.02525
 Alpha virt. eigenvalues --    2.04092   2.05474   2.07462   2.08033   2.08604
 Alpha virt. eigenvalues --    2.10726   2.11885   2.14188   2.17083   2.17580
 Alpha virt. eigenvalues --    2.20184   2.21964   2.23462   2.25860   2.28618
 Alpha virt. eigenvalues --    2.30645   2.33641   2.34375   2.37449   2.42371
 Alpha virt. eigenvalues --    2.43951   2.45721   2.46445   2.49274   2.50770
 Alpha virt. eigenvalues --    2.52711   2.53872   2.55691   2.57013   2.58533
 Alpha virt. eigenvalues --    2.60225   2.60860   2.62951   2.64678   2.66061
 Alpha virt. eigenvalues --    2.67712   2.69048   2.70439   2.71415   2.72620
 Alpha virt. eigenvalues --    2.73472   2.75291   2.76858   2.78601   2.80101
 Alpha virt. eigenvalues --    2.82174   2.89168   2.91517   2.91945   2.94866
 Alpha virt. eigenvalues --    2.95827   3.02539   3.07025   3.08032   3.09700
 Alpha virt. eigenvalues --    3.11894   3.14847   3.26160   3.34910   3.36402
 Alpha virt. eigenvalues --    3.37021   3.40014   3.43574   3.47603   3.48485
 Alpha virt. eigenvalues --    3.49168   3.53135   3.54767   3.58730   3.60229
 Alpha virt. eigenvalues --    3.61420   3.62836   3.63973   3.71294   3.78425
 Alpha virt. eigenvalues --    3.80068   3.84363   3.88598   3.89660   3.92318
 Alpha virt. eigenvalues --    3.95868   3.99931   4.00235   4.07699   4.15435
 Alpha virt. eigenvalues --    4.15547   4.18962   4.24025   4.26616   4.44051
 Alpha virt. eigenvalues --    4.53268   4.57185   4.61166   4.81765   5.00378
 Alpha virt. eigenvalues --    5.02225   5.03806   5.05182   5.06538   5.09581
 Alpha virt. eigenvalues --    5.14621   5.19829   5.21116   5.28642   5.30161
 Alpha virt. eigenvalues --    5.33491   5.38013   5.41333   5.46138   5.50859
 Alpha virt. eigenvalues --    5.52041   5.53753   5.58181   5.60194   5.62535
 Alpha virt. eigenvalues --    5.66994   5.68162   5.75241   5.76956   5.78925
 Alpha virt. eigenvalues --    5.80616   5.80861   5.81943   5.84874   5.88231
 Alpha virt. eigenvalues --    5.89741   5.93700   5.96421   6.02250   6.03410
 Alpha virt. eigenvalues --    6.04934   6.06956   6.07775   6.10676   6.12058
 Alpha virt. eigenvalues --    6.12709   6.16147   6.18077   6.18921   6.21631
 Alpha virt. eigenvalues --    6.22524   6.23948   6.28113   6.32796   6.34520
 Alpha virt. eigenvalues --    6.35701   6.36196   6.36743   6.38384   6.38599
 Alpha virt. eigenvalues --    6.39664   6.42185   6.48246   6.50062   6.52092
 Alpha virt. eigenvalues --    6.53759   6.56934   6.58618   6.61902   6.63993
 Alpha virt. eigenvalues --    6.64857   6.66231   6.72037   6.77359   6.79575
 Alpha virt. eigenvalues --    6.82979   6.87073   6.90118   6.92694   6.93697
 Alpha virt. eigenvalues --    6.95341   6.97784   7.02311   7.06201   7.11731
 Alpha virt. eigenvalues --    7.15642   7.17181   7.19250   7.21925   7.25157
 Alpha virt. eigenvalues --    7.28592   7.32033   7.34835   7.37824   7.46242
 Alpha virt. eigenvalues --    7.47405   7.51493   7.55856   7.56708   7.58999
 Alpha virt. eigenvalues --    7.62384   7.62832   7.65826   7.66952   7.67480
 Alpha virt. eigenvalues --    7.69673   7.72800   7.73385   7.76502   7.77047
 Alpha virt. eigenvalues --    7.79922   7.83183   7.87047   7.91348   7.92086
 Alpha virt. eigenvalues --    7.94317   7.98095   8.06707   8.08550   8.12172
 Alpha virt. eigenvalues --    8.13321   8.17119   8.19014   8.19718   8.24495
 Alpha virt. eigenvalues --    8.28106   8.30870   8.32636   8.34739   8.35869
 Alpha virt. eigenvalues --    8.38465   8.39019   8.40808   8.42531   8.48356
 Alpha virt. eigenvalues --    8.52053   8.54014   8.55453   8.58614   8.59386
 Alpha virt. eigenvalues --    8.60571   8.63543   8.67254   8.70816   8.72040
 Alpha virt. eigenvalues --    8.76135   8.76766   8.80393   8.82586   8.87782
 Alpha virt. eigenvalues --    8.91894   8.96261   8.98550   9.06895   9.20991
 Alpha virt. eigenvalues --    9.25107   9.26635   9.33220   9.37881   9.48696
 Alpha virt. eigenvalues --    9.61608   9.68014   9.77987   9.83776   9.86286
 Alpha virt. eigenvalues --    9.91260   9.94817   9.99444  10.03548  10.05794
 Alpha virt. eigenvalues --   10.15446  10.21425  10.24499  10.31429  10.37131
 Alpha virt. eigenvalues --   10.45921  10.50740  10.56476  10.71299  10.92474
 Alpha virt. eigenvalues --   11.05743  11.33913  11.56612  11.58755  11.77558
 Alpha virt. eigenvalues --   11.87777  12.84704  13.01774  13.18242  13.33835
 Alpha virt. eigenvalues --   28.64769  28.80680  29.48975  29.71222 148.24276
 Alpha virt. eigenvalues --  148.39434 149.08691 149.33887
          Condensed to atoms (all electrons):
               1          2          3          4          5          6
     1  C    4.833680   0.610706  -0.079465  -0.001534   0.434900   0.429484
     2  C    0.610706   4.852052   0.395898  -0.078163  -0.058443  -0.044962
     3  C   -0.079465   0.395898   4.847448   0.616994   0.008418  -0.006728
     4  C   -0.001534  -0.078163   0.616994   4.841206  -0.000707   0.000096
     5  H    0.434900  -0.058443   0.008418  -0.000707   0.579135  -0.042236
     6  H    0.429484  -0.044962  -0.006728   0.000096  -0.042236   0.578485
     7  H   -0.047395   0.411787  -0.063308  -0.001492  -0.011214   0.007408
     8  H   -0.000105  -0.058901   0.406076  -0.049664  -0.000255   0.004150
     9  H    0.000350  -0.007609  -0.047984   0.423905  -0.000053   0.000056
    10  H   -0.000600   0.007232  -0.044235   0.424667   0.000029  -0.000028
               7          8          9         10
     1  C   -0.047395  -0.000105   0.000350  -0.000600
     2  C    0.411787  -0.058901  -0.007609   0.007232
     3  C   -0.063308   0.406076  -0.047984  -0.044235
     4  C   -0.001492  -0.049664   0.423905   0.424667
     5  H   -0.011214  -0.000255  -0.000053   0.000029
     6  H    0.007408   0.004150   0.000056  -0.000028
     7  H    0.641916   0.007041   0.005236  -0.000185
     8  H    0.007041   0.639829   0.008124  -0.009419
     9  H    0.005236   0.008124   0.600122  -0.044390
    10  H   -0.000185  -0.009419  -0.044390   0.579163
 Mulliken charges:
               1
     1  C   -0.180021
     2  C   -0.029597
     3  C   -0.033115
     4  C   -0.175308
     5  H    0.090425
     6  H    0.074275
     7  H    0.050206
     8  H    0.053124
     9  H    0.062243
    10  H    0.087767
 Sum of Mulliken charges =   0.00000
 Mulliken charges with hydrogens summed into heavy atoms:
               1
     1  C   -0.015321
     2  C    0.020610
     3  C    0.020009
     4  C   -0.025298
 Electronic spatial extent (au):  <R**2>=            336.2082
 Charge=              0.0000 electrons
 Dipole moment (field-independent basis, Debye):
    X=             -0.0189    Y=              0.0109    Z=             -0.0786  Tot=              0.0815
 Quadrupole moment (field-independent basis, Debye-Ang):
   XX=            -23.4868   YY=            -23.0541   ZZ=            -29.1771
   XY=             -0.1492   XZ=             -0.1777   YZ=             -0.0081
 Traceless Quadrupole moment (field-independent basis, Debye-Ang):
   XX=              1.7525   YY=              2.1852   ZZ=             -3.9378
   XY=             -0.1492   XZ=             -0.1777   YZ=             -0.0081
 Octapole moment (field-independent basis, Debye-Ang**2):
  XXX=              0.2433  YYY=              0.0801  ZZZ=             -0.1608  XYY=             -0.4023
  XXY=              0.4311  XXZ=             -0.2914  XZZ=             -0.2934  YZZ=             -0.0297
  YYZ=             -0.1442  XYZ=             -0.7504
 Hexadecapole moment (field-independent basis, Debye-Ang**3):
 XXXX=           -346.9356 YYYY=            -65.1336 ZZZZ=            -36.9862 XXXY=              5.1744
 XXXZ=             -1.9993 YYYX=             -1.7689 YYYZ=              0.1032 ZZZX=             -0.2624
 ZZZY=             -0.0226 XXYY=            -67.7209 XXZZ=            -76.7634 YYZZ=            -19.1521
 XXYZ=             -0.4706 YYXZ=             -0.0339 ZZXY=             -0.4329
 N-N= 1.039493304731D+02 E-N=-5.688874326021D+02  KE= 1.552051425705D+02
 Leave Link  601 at Wed Aug 26 10:32:17 2020, MaxMem=  2097152000 cpu:         0.7
 (Enter /opt/cluster/programs/g09/g09_d.01/g09/l9999.exe)
 1\1\GINC-NODE05\SP\RB2PLYPD3-FC\def2QZVP\C4H6\BOITTIER\26-Aug-2020\0\\
 #p B2PLYPD3/Def2QZVP\\butadiene\\0,1\C,0,-3.855071,0.217364,0.048336\C
 ,0,-2.732984,-0.480247,0.002706\C,0,-1.372542,0.07647,-0.018233\C,0,-0
 .255713,-0.661426,0.067904\H,0,-4.723144,-0.318058,0.037073\H,0,-3.880
 736,1.284188,0.084259\H,0,-2.754511,-1.578428,-0.057121\H,0,-1.256486,
 1.160173,-0.092725\H,0,-0.319844,-1.739327,0.181212\H,0,0.721676,-0.22
 5418,-0.063042\\Version=ES64L-G09RevD.01\State=1-A\HF=-155.6969333\MP2
 =-155.9222289\RMSD=5.619e-09\PG=C01 [X(C4H6)]\\@


 LAW OF COMPENSATION:
      NO CALCULATION IS EVER A COMPLETE FAILURE; IT 
      CAN ALWAYS SERVE AS A BAD EXAMPLE.

                                           -- ANON
 Job cpu time:       0 days  0 hours 37 minutes 46.4 seconds.
 File lengths (MBytes):  RWF=     92 Int=      0 D2E=      0 Chk=      9 Scr=      1
 Normal termination of Gaussian 09 at Wed Aug 26 10:32:17 2020.
