 Entering Gaussian System, Link 0=/opt/cluster/programs/g09/g09_d.01/g09//g09
 Input=/home/boittier/MDCM/nms_sampling/butadiene_geom.xyz.dir/energies/butadiene_1750_energy.com
 Output=/scratch/boittier/butadiene_1750_energy/butadiene_1750_energy.out
 Initial command:
 /opt/cluster/programs/g09/g09_d.01/g09/l1.exe "/scratch/boittier/butadiene_1750_energy/Gau-41750.inp" -scrdir="/scratch/boittier/butadiene_1750_energy/"
 Entering Link 1 = /opt/cluster/programs/g09/g09_d.01/g09/l1.exe PID=     41753.
  
 Copyright (c) 1988,1990,1992,1993,1995,1998,2003,2009,2013,
            Gaussian, Inc.  All Rights Reserved.
  
 This is part of the Gaussian(R) 09 program.  It is based on
 the Gaussian(R) 03 system (copyright 2003, Gaussian, Inc.),
 the Gaussian(R) 98 system (copyright 1998, Gaussian, Inc.),
 the Gaussian(R) 94 system (copyright 1995, Gaussian, Inc.),
 the Gaussian 92(TM) system (copyright 1992, Gaussian, Inc.),
 the Gaussian 90(TM) system (copyright 1990, Gaussian, Inc.),
 the Gaussian 88(TM) system (copyright 1988, Gaussian, Inc.),
 the Gaussian 86(TM) system (copyright 1986, Carnegie Mellon
 University), and the Gaussian 82(TM) system (copyright 1983,
 Carnegie Mellon University). Gaussian is a federally registered
 trademark of Gaussian, Inc.
  
 This software contains proprietary and confidential information,
 including trade secrets, belonging to Gaussian, Inc.
  
 This software is provided under written license and may be
 used, copied, transmitted, or stored only in accord with that
 written license.
  
 The following legend is applicable only to US Government
 contracts under FAR:
  
                    RESTRICTED RIGHTS LEGEND
  
 Use, reproduction and disclosure by the US Government is
 subject to restrictions as set forth in subparagraphs (a)
 and (c) of the Commercial Computer Software - Restricted
 Rights clause in FAR 52.227-19.
  
 Gaussian, Inc.
 340 Quinnipiac St., Bldg. 40, Wallingford CT 06492
  
  
 ---------------------------------------------------------------
 Warning -- This program may not be used in any manner that
 competes with the business of Gaussian, Inc. or will provide
 assistance to any competitor of Gaussian, Inc.  The licensee
 of this program is prohibited from giving any competitor of
 Gaussian, Inc. access to this program.  By using this program,
 the user acknowledges that Gaussian, Inc. is engaged in the
 business of creating and licensing software in the field of
 computational chemistry and represents and warrants to the
 licensee that it is not a competitor of Gaussian, Inc. and that
 it will not use this program in any manner prohibited above.
 ---------------------------------------------------------------
  

 Cite this work as:
 Gaussian 09, Revision D.01,
 M. J. Frisch, G. W. Trucks, H. B. Schlegel, G. E. Scuseria, 
 M. A. Robb, J. R. Cheeseman, G. Scalmani, V. Barone, B. Mennucci, 
 G. A. Petersson, H. Nakatsuji, M. Caricato, X. Li, H. P. Hratchian, 
 A. F. Izmaylov, J. Bloino, G. Zheng, J. L. Sonnenberg, M. Hada, 
 M. Ehara, K. Toyota, R. Fukuda, J. Hasegawa, M. Ishida, T. Nakajima, 
 Y. Honda, O. Kitao, H. Nakai, T. Vreven, J. A. Montgomery, Jr., 
 J. E. Peralta, F. Ogliaro, M. Bearpark, J. J. Heyd, E. Brothers, 
 K. N. Kudin, V. N. Staroverov, T. Keith, R. Kobayashi, J. Normand, 
 K. Raghavachari, A. Rendell, J. C. Burant, S. S. Iyengar, J. Tomasi, 
 M. Cossi, N. Rega, J. M. Millam, M. Klene, J. E. Knox, J. B. Cross, 
 V. Bakken, C. Adamo, J. Jaramillo, R. Gomperts, R. E. Stratmann, 
 O. Yazyev, A. J. Austin, R. Cammi, C. Pomelli, J. W. Ochterski, 
 R. L. Martin, K. Morokuma, V. G. Zakrzewski, G. A. Voth, 
 P. Salvador, J. J. Dannenberg, S. Dapprich, A. D. Daniels, 
 O. Farkas, J. B. Foresman, J. V. Ortiz, J. Cioslowski, 
 and D. J. Fox, Gaussian, Inc., Wallingford CT, 2013.
 
 ******************************************
 Gaussian 09:  ES64L-G09RevD.01 24-Apr-2013
                26-Aug-2020 
 ******************************************
 %chk=/home/boittier/MDCM/nms_sampling/butadiene_geom.xyz.dir/butadiene_1750.chk
 %nproc=8
 Will use up to    8 processors via shared memory.
 %mem=16000MB
 --------------------
 #p B2PLYPD3/Def2QZVP
 --------------------
 1/38=1/1;
 2/12=2,17=6,18=5,40=1/2;
 3/5=45,7=101,11=9,16=1,25=1,30=1,74=-60/1,2,3;
 4//1;
 5/5=2,38=5/2;
 8/10=1/1;
 9/16=-3/6;
 6/7=2,8=2,9=2,10=2/1;
 99/5=1,9=1/99;
 Leave Link    1 at Wed Aug 26 10:28:49 2020, MaxMem=  2097152000 cpu:         0.3
 (Enter /opt/cluster/programs/g09/g09_d.01/g09/l101.exe)
 ---------
 butadiene
 ---------
 Symbolic Z-matrix:
 Charge =  0 Multiplicity = 1
 C                    -3.82423   0.23516   0.04519 
 C                    -2.73735  -0.52742   0.00108 
 C                    -1.38779   0.08032  -0.02666 
 C                    -0.25815  -0.64713   0.07504 
 H                    -4.78868  -0.213     0.05355 
 H                    -3.74253   1.32175   0.10075 
 H                    -2.8243   -1.64821  -0.0012 
 H                    -1.40574   1.15711  -0.0435 
 H                    -0.31348  -1.73649   0.13963 
 H                     0.75544  -0.18959  -0.06993 
 
 NAtoms=     10 NQM=       10 NQMF=       0 NMMI=      0 NMMIF=      0
                NMic=       0 NMicF=      0.
                    Isotopes and Nuclear Properties:
 (Nuclear quadrupole moments (NQMom) in fm**2, nuclear magnetic moments (NMagM)
  in nuclear magnetons)

  Atom         1           2           3           4           5           6           7           8           9          10
 IAtWgt=          12          12          12          12           1           1           1           1           1           1
 AtmWgt=  12.0000000  12.0000000  12.0000000  12.0000000   1.0078250   1.0078250   1.0078250   1.0078250   1.0078250   1.0078250
 NucSpn=           0           0           0           0           1           1           1           1           1           1
 AtZEff=   0.0000000   0.0000000   0.0000000   0.0000000   0.0000000   0.0000000   0.0000000   0.0000000   0.0000000   0.0000000
 NQMom=    0.0000000   0.0000000   0.0000000   0.0000000   0.0000000   0.0000000   0.0000000   0.0000000   0.0000000   0.0000000
 NMagM=    0.0000000   0.0000000   0.0000000   0.0000000   2.7928460   2.7928460   2.7928460   2.7928460   2.7928460   2.7928460
 AtZNuc=   6.0000000   6.0000000   6.0000000   6.0000000   1.0000000   1.0000000   1.0000000   1.0000000   1.0000000   1.0000000
 Leave Link  101 at Wed Aug 26 10:28:49 2020, MaxMem=  2097152000 cpu:         0.6
 (Enter /opt/cluster/programs/g09/g09_d.01/g09/l202.exe)
                          Input orientation:                          
 ---------------------------------------------------------------------
 Center     Atomic      Atomic             Coordinates (Angstroms)
 Number     Number       Type             X           Y           Z
 ---------------------------------------------------------------------
      1          6           0       -3.824234    0.235163    0.045189
      2          6           0       -2.737349   -0.527424    0.001080
      3          6           0       -1.387785    0.080324   -0.026657
      4          6           0       -0.258148   -0.647131    0.075043
      5          1           0       -4.788680   -0.213004    0.053548
      6          1           0       -3.742530    1.321749    0.100753
      7          1           0       -2.824295   -1.648214   -0.001196
      8          1           0       -1.405744    1.157108   -0.043501
      9          1           0       -0.313483   -1.736485    0.139625
     10          1           0        0.755436   -0.189594   -0.069931
 ---------------------------------------------------------------------
                    Distance matrix (angstroms):
                    1          2          3          4          5
     1  C    0.000000
     2  C    1.328459   0.000000
     3  C    2.442421   1.480355   0.000000
     4  C    3.673732   2.483191   1.347447   0.000000
     5  H    1.063522   2.075951   3.414463   4.551335   0.000000
     6  H    1.091069   2.107075   2.664994   4.002258   1.857989
     7  H    2.132871   1.124160   2.247677   2.755556   2.433441
     8  H    2.589777   2.147745   1.077065   2.141567   3.651148
     9  H    4.027615   2.712222   2.117208   1.092669   4.728191
    10  H    4.600766   3.509803   2.160584   1.121477   5.545540
                    6          7          8          9         10
     6  H    0.000000
     7  H    3.110342   0.000000
     8  H    2.347016   3.143868   0.000000
     9  H    4.594853   2.516307   3.098298   0.000000
    10  H    4.748156   3.866105   2.546567   1.891923   0.000000
 Stoichiometry    C4H6
 Framework group  C1[X(C4H6)]
 Deg. of freedom    24
 Full point group                 C1      NOp   1
 Largest Abelian subgroup         C1      NOp   1
 Largest concise Abelian subgroup C1      NOp   1
                         Standard orientation:                         
 ---------------------------------------------------------------------
 Center     Atomic      Atomic             Coordinates (Angstroms)
 Number     Number       Type             X           Y           Z
 ---------------------------------------------------------------------
      1          6           0        1.824198   -0.124657    0.022359
      2          6           0        0.618054    0.429203   -0.034726
      3          6           0       -0.600508   -0.411342   -0.041137
      4          6           0       -1.842324    0.103880    0.048600
      5          1           0        2.692533    0.489364    0.015147
      6          1           0        1.938902   -1.206568    0.104483
      7          1           0        0.502396    1.547003   -0.064429
      8          1           0       -0.389559   -1.467509   -0.032128
      9          1           0       -1.983400    1.186735    0.086649
     10          1           0       -2.757391   -0.531532   -0.080293
 ---------------------------------------------------------------------
 Rotational constants (GHZ):     39.9576274      4.4800697      4.0347657
 Leave Link  202 at Wed Aug 26 10:28:49 2020, MaxMem=  2097152000 cpu:         0.1
 (Enter /opt/cluster/programs/g09/g09_d.01/g09/l301.exe)
 Standard basis: def2QZVP (5D, 7F)
 Ernie: Thresh=  0.10000D-02 Tol=  0.10000D-05 Strict=F.
 There are   498 symmetry adapted cartesian basis functions of A   symmetry.
 There are   408 symmetry adapted basis functions of A   symmetry.
   408 basis functions,   596 primitive gaussians,   498 cartesian basis functions
    15 alpha electrons       15 beta electrons
       nuclear repulsion energy       103.4712692501 Hartrees.
 IExCor=  419 DFT=T Ex+Corr=B2PLYPD3 ExCW=0 ScaHFX=  0.530000
 ScaDFX=  0.470000  0.470000  0.730000  0.730000 ScalE2=  0.270000  0.270000
 IRadAn=      0 IRanWt=     -1 IRanGd=            0 ICorTp=0 IEmpDi=141
 NAtoms=   10 NActive=   10 NUniq=   10 SFac= 1.00D+00 NAtFMM=   60 NAOKFM=F Big=F
 Integral buffers will be    131072 words long.
 Regular integral format.
 Two-electron integral symmetry is turned on.
 R6Disp:  Grimme-D3(BJ) Dispersion energy=       -0.0048397484 Hartrees.
 Nuclear repulsion after empirical dispersion term =      103.4664295017 Hartrees.
 Leave Link  301 at Wed Aug 26 10:28:49 2020, MaxMem=  2097152000 cpu:         0.5
 (Enter /opt/cluster/programs/g09/g09_d.01/g09/l302.exe)
 NPDir=0 NMtPBC=     1 NCelOv=     1 NCel=       1 NClECP=     1 NCelD=      1
         NCelK=      1 NCelE2=     1 NClLst=     1 CellRange=     0.0.
 One-electron integrals computed using PRISM.
   1 Symmetry operations used in ECPInt.
 ECPInt:  NShTT=    8256 NPrTT=   19107 LenC2=    8056 LenP2D=   16115.
 LDataN:  DoStor=T MaxTD1= 8 Len=  415
 NBasis=   408 RedAO= T EigKep=  4.67D-05  NBF=   408
 NBsUse=   408 1.00D-06 EigRej= -1.00D+00 NBFU=   408
 Precomputing XC quadrature grid using
 IXCGrd= 4 IRadAn=           0 IRanWt=          -1 IRanGd=           0 AccXCQ= 0.00D+00.
 Generated NRdTot=       0 NPtTot=           0 NUsed=           0 NTot=          32
 NSgBfM=   498   498   498   498   498 MxSgAt=    10 MxSgA2=    10.
 Leave Link  302 at Wed Aug 26 10:28:49 2020, MaxMem=  2097152000 cpu:         3.7
 (Enter /opt/cluster/programs/g09/g09_d.01/g09/l303.exe)
 DipDrv:  MaxL=1.
 Leave Link  303 at Wed Aug 26 10:28:50 2020, MaxMem=  2097152000 cpu:         0.4
 (Enter /opt/cluster/programs/g09/g09_d.01/g09/l401.exe)
 ExpMin= 7.60D-02 ExpMax= 6.70D+04 ExpMxC= 6.47D+02 IAcc=2 IRadAn=         4 AccDes= 0.00D+00
 Harris functional with IExCor=  419 and IRadAn=       4 diagonalized for initial guess.
 HarFok:  IExCor=  419 AccDes= 0.00D+00 IRadAn=         4 IDoV= 1 UseB2=F ITyADJ=14
 ICtDFT=  3500011 ScaDFX=  1.000000  1.000000  1.000000  1.000000
 FoFCou: FMM=F IPFlag=           0 FMFlag=      100000 FMFlg1=           0
         NFxFlg=           0 DoJE=T BraDBF=F KetDBF=T FulRan=T
         wScrn=  0.000000 ICntrl=     500 IOpCl=  0 I1Cent=   200000004 NGrid=           0
         NMat0=    1 NMatS0=      1 NMatT0=    0 NMatD0=    1 NMtDS0=    0 NMtDT0=    0
 Petite list used in FoFCou.
 Harris En= -156.126235997973    
 JPrj=0 DoOrth=F DoCkMO=F.
 Leave Link  401 at Wed Aug 26 10:28:51 2020, MaxMem=  2097152000 cpu:         8.9
 (Enter /opt/cluster/programs/g09/g09_d.01/g09/l502.exe)
 Closed shell SCF:
 Using DIIS extrapolation, IDIIS=  1040.
 Integral symmetry usage will be decided dynamically.
 IVT=      770090 IEndB=      770090 NGot=  2097152000 MDV=  2096647053
 LenX=  2096647053 LenY=  2096398551
 Requested convergence on RMS density matrix=1.00D-08 within 128 cycles.
 Requested convergence on MAX density matrix=1.00D-06.
 Requested convergence on             energy=1.00D-06.
 No special actions if energy rises.
 Fock matrices will be formed incrementally for  20 cycles.
 Integral accuracy reduced to 1.0D-05 until final iterations.

 Cycle   1  Pass 0  IDiag  1:
 FoFJK:  IHMeth= 1 ICntrl=       0 DoSepK=F KAlg= 0 I1Cent=   0 FoldK=F
 IRaf= 940000000 NMat=   1 IRICut=       1 DoRegI=T DoRafI=F ISym2E= 0.
 FoFCou: FMM=F IPFlag=           0 FMFlag=      100000 FMFlg1=           0
         NFxFlg=           0 DoJE=F BraDBF=F KetDBF=F FulRan=T
         wScrn=  0.000000 ICntrl=       0 IOpCl=  0 I1Cent=           0 NGrid=           0
         NMat0=    1 NMatS0=      1 NMatT0=    0 NMatD0=    1 NMtDS0=    0 NMtDT0=    0
 Symmetry not used in FoFCou.
 E= -155.511981604271    
 DIIS: error= 3.34D-02 at cycle   1 NSaved=   1.
 NSaved= 1 IEnMin= 1 EnMin= -155.511981604271     IErMin= 1 ErrMin= 3.34D-02
 ErrMax= 3.34D-02  0.00D+00 EMaxC= 1.00D-01 BMatC= 2.49D-01 BMatP= 2.49D-01
 IDIUse=3 WtCom= 6.66D-01 WtEn= 3.34D-01
 Coeff-Com:  0.100D+01
 Coeff-En:   0.100D+01
 Coeff:      0.100D+01
 Gap=     0.300 Goal=   None    Shift=    0.000
 GapD=    0.300 DampG=1.000 DampE=0.500 DampFc=0.5000 IDamp=-1.
 Damping current iteration by 5.00D-01
 RMSDP=9.76D-04 MaxDP=5.40D-02              OVMax= 1.92D-01

 Cycle   2  Pass 0  IDiag  1:
 RMSU=  4.51D-04    CP:  9.51D-01
 E= -155.609297120713     Delta-E=       -0.097315516442 Rises=F Damp=T
 DIIS: error= 1.08D-02 at cycle   2 NSaved=   2.
 NSaved= 2 IEnMin= 2 EnMin= -155.609297120713     IErMin= 2 ErrMin= 1.08D-02
 ErrMax= 1.08D-02  0.00D+00 EMaxC= 1.00D-01 BMatC= 2.93D-02 BMatP= 2.49D-01
 IDIUse=3 WtCom= 8.92D-01 WtEn= 1.08D-01
 Coeff-Com: -0.296D+00 0.130D+01
 Coeff-En:   0.000D+00 0.100D+01
 Coeff:     -0.264D+00 0.126D+01
 Gap=     0.359 Goal=   None    Shift=    0.000
 RMSDP=2.89D-04 MaxDP=9.16D-03 DE=-9.73D-02 OVMax= 9.36D-02

 Cycle   3  Pass 0  IDiag  1:
 RMSU=  2.81D-04    CP:  9.33D-01  1.00D+00
 E= -155.693660352421     Delta-E=       -0.084363231708 Rises=F Damp=F
 DIIS: error= 4.28D-03 at cycle   3 NSaved=   3.
 NSaved= 3 IEnMin= 3 EnMin= -155.693660352421     IErMin= 3 ErrMin= 4.28D-03
 ErrMax= 4.28D-03  0.00D+00 EMaxC= 1.00D-01 BMatC= 1.80D-03 BMatP= 2.93D-02
 IDIUse=3 WtCom= 9.57D-01 WtEn= 4.28D-02
 Coeff-Com: -0.111D+00 0.217D+00 0.894D+00
 Coeff-En:   0.000D+00 0.000D+00 0.100D+01
 Coeff:     -0.107D+00 0.208D+00 0.899D+00
 Gap=     0.296 Goal=   None    Shift=    0.000
 RMSDP=6.82D-05 MaxDP=3.83D-03 DE=-8.44D-02 OVMax= 2.03D-02

 Cycle   4  Pass 0  IDiag  1:
 RMSU=  4.99D-05    CP:  9.29D-01  1.10D+00  9.58D-01
 E= -155.695106626637     Delta-E=       -0.001446274216 Rises=F Damp=F
 DIIS: error= 2.27D-03 at cycle   4 NSaved=   4.
 NSaved= 4 IEnMin= 4 EnMin= -155.695106626637     IErMin= 4 ErrMin= 2.27D-03
 ErrMax= 2.27D-03  0.00D+00 EMaxC= 1.00D-01 BMatC= 5.12D-04 BMatP= 1.80D-03
 IDIUse=3 WtCom= 9.77D-01 WtEn= 2.27D-02
 Coeff-Com: -0.515D-01 0.842D-01 0.474D+00 0.493D+00
 Coeff-En:   0.000D+00 0.000D+00 0.921D-01 0.908D+00
 Coeff:     -0.503D-01 0.823D-01 0.465D+00 0.503D+00
 Gap=     0.296 Goal=   None    Shift=    0.000
 RMSDP=2.76D-05 MaxDP=1.47D-03 DE=-1.45D-03 OVMax= 8.86D-03

 Cycle   5  Pass 0  IDiag  1:
 RMSU=  1.62D-05    CP:  9.29D-01  1.09D+00  9.98D-01  6.23D-01
 E= -155.695605721701     Delta-E=       -0.000499095064 Rises=F Damp=F
 DIIS: error= 2.41D-04 at cycle   5 NSaved=   5.
 NSaved= 5 IEnMin= 5 EnMin= -155.695605721701     IErMin= 5 ErrMin= 2.41D-04
 ErrMax= 2.41D-04  0.00D+00 EMaxC= 1.00D-01 BMatC= 5.09D-06 BMatP= 5.12D-04
 IDIUse=3 WtCom= 9.98D-01 WtEn= 2.41D-03
 Coeff-Com: -0.323D-02 0.306D-02 0.395D-01 0.109D+00 0.852D+00
 Coeff-En:   0.000D+00 0.000D+00 0.000D+00 0.000D+00 0.100D+01
 Coeff:     -0.323D-02 0.305D-02 0.394D-01 0.109D+00 0.852D+00
 Gap=     0.296 Goal=   None    Shift=    0.000
 RMSDP=4.53D-06 MaxDP=1.47D-04 DE=-4.99D-04 OVMax= 1.14D-03

 Initial convergence to 1.0D-05 achieved.  Increase integral accuracy.
 Cycle   6  Pass 1  IDiag  1:
 E= -155.695614304076     Delta-E=       -0.000008582375 Rises=F Damp=F
 DIIS: error= 4.44D-05 at cycle   1 NSaved=   1.
 NSaved= 1 IEnMin= 1 EnMin= -155.695614304076     IErMin= 1 ErrMin= 4.44D-05
 ErrMax= 4.44D-05  0.00D+00 EMaxC= 1.00D-01 BMatC= 4.84D-07 BMatP= 4.84D-07
 IDIUse=1 WtCom= 1.00D+00 WtEn= 0.00D+00
 Coeff-Com:  0.100D+01
 Coeff:      0.100D+01
 Gap=     0.296 Goal=   None    Shift=    0.000
 RMSDP=4.53D-06 MaxDP=1.47D-04 DE=-8.58D-06 OVMax= 2.89D-04

 Cycle   7  Pass 1  IDiag  1:
 RMSU=  1.62D-05    CP:  1.00D+00
 E= -155.695614646188     Delta-E=       -0.000000342112 Rises=F Damp=F
 DIIS: error= 1.86D-05 at cycle   2 NSaved=   2.
 NSaved= 2 IEnMin= 2 EnMin= -155.695614646188     IErMin= 2 ErrMin= 1.86D-05
 ErrMax= 1.86D-05  0.00D+00 EMaxC= 1.00D-01 BMatC= 3.25D-08 BMatP= 4.84D-07
 IDIUse=1 WtCom= 1.00D+00 WtEn= 0.00D+00
 Coeff-Com:  0.927D-01 0.907D+00
 Coeff:      0.927D-01 0.907D+00
 Gap=     0.296 Goal=   None    Shift=    0.000
 RMSDP=9.97D-07 MaxDP=4.19D-05 DE=-3.42D-07 OVMax= 1.55D-04

 Cycle   8  Pass 1  IDiag  1:
 RMSU=  6.63D-07    CP:  1.00D+00  1.05D+00
 E= -155.695614666817     Delta-E=       -0.000000020628 Rises=F Damp=F
 DIIS: error= 1.45D-05 at cycle   3 NSaved=   3.
 NSaved= 3 IEnMin= 3 EnMin= -155.695614666817     IErMin= 3 ErrMin= 1.45D-05
 ErrMax= 1.45D-05  0.00D+00 EMaxC= 1.00D-01 BMatC= 2.49D-08 BMatP= 3.25D-08
 IDIUse=1 WtCom= 1.00D+00 WtEn= 0.00D+00
 Coeff-Com: -0.152D-01 0.463D+00 0.553D+00
 Coeff:     -0.152D-01 0.463D+00 0.553D+00
 Gap=     0.296 Goal=   None    Shift=    0.000
 RMSDP=2.74D-07 MaxDP=1.35D-05 DE=-2.06D-08 OVMax= 7.51D-05

 Cycle   9  Pass 1  IDiag  1:
 RMSU=  2.28D-07    CP:  1.00D+00  1.06D+00  1.03D+00
 E= -155.695614690744     Delta-E=       -0.000000023928 Rises=F Damp=F
 DIIS: error= 3.23D-06 at cycle   4 NSaved=   4.
 NSaved= 4 IEnMin= 4 EnMin= -155.695614690744     IErMin= 4 ErrMin= 3.23D-06
 ErrMax= 3.23D-06  0.00D+00 EMaxC= 1.00D-01 BMatC= 4.49D-10 BMatP= 2.49D-08
 IDIUse=1 WtCom= 1.00D+00 WtEn= 0.00D+00
 Coeff-Com: -0.106D-01 0.520D-01 0.114D+00 0.845D+00
 Coeff:     -0.106D-01 0.520D-01 0.114D+00 0.845D+00
 Gap=     0.296 Goal=   None    Shift=    0.000
 RMSDP=8.24D-08 MaxDP=3.61D-06 DE=-2.39D-08 OVMax= 1.88D-05

 Cycle  10  Pass 1  IDiag  1:
 RMSU=  4.56D-08    CP:  1.00D+00  1.06D+00  1.10D+00  1.10D+00
 E= -155.695614691567     Delta-E=       -0.000000000822 Rises=F Damp=F
 DIIS: error= 8.22D-07 at cycle   5 NSaved=   5.
 NSaved= 5 IEnMin= 5 EnMin= -155.695614691567     IErMin= 5 ErrMin= 8.22D-07
 ErrMax= 8.22D-07  0.00D+00 EMaxC= 1.00D-01 BMatC= 9.48D-11 BMatP= 4.49D-10
 IDIUse=1 WtCom= 1.00D+00 WtEn= 0.00D+00
 Coeff-Com: -0.384D-03-0.437D-01-0.598D-01 0.215D+00 0.889D+00
 Coeff:     -0.384D-03-0.437D-01-0.598D-01 0.215D+00 0.889D+00
 Gap=     0.296 Goal=   None    Shift=    0.000
 RMSDP=2.98D-08 MaxDP=1.38D-06 DE=-8.22D-10 OVMax= 7.23D-06

 Cycle  11  Pass 1  IDiag  1:
 RMSU=  1.93D-08    CP:  1.00D+00  1.06D+00  1.12D+00  1.18D+00  1.08D+00
 E= -155.695614691705     Delta-E=       -0.000000000139 Rises=F Damp=F
 DIIS: error= 2.59D-07 at cycle   6 NSaved=   6.
 NSaved= 6 IEnMin= 6 EnMin= -155.695614691705     IErMin= 6 ErrMin= 2.59D-07
 ErrMax= 2.59D-07  0.00D+00 EMaxC= 1.00D-01 BMatC= 1.04D-11 BMatP= 9.48D-11
 IDIUse=1 WtCom= 1.00D+00 WtEn= 0.00D+00
 Coeff-Com:  0.737D-03-0.227D-01-0.382D-01 0.246D-01 0.360D+00 0.676D+00
 Coeff:      0.737D-03-0.227D-01-0.382D-01 0.246D-01 0.360D+00 0.676D+00
 Gap=     0.296 Goal=   None    Shift=    0.000
 RMSDP=6.34D-09 MaxDP=2.99D-07 DE=-1.39D-10 OVMax= 1.49D-06

 SCF Done:  E(RB2PLYPD3) =  -155.695614692     A.U. after   11 cycles
            NFock= 11  Conv=0.63D-08     -V/T= 2.0047
 KE= 1.549719327392D+02 PE=-5.677470429600D+02 EE= 1.536130660274D+02
 Leave Link  502 at Wed Aug 26 10:31:59 2020, MaxMem=  2097152000 cpu:      1502.1
 (Enter /opt/cluster/programs/g09/g09_d.01/g09/l801.exe)
 DoSCS=T DFT=T ScalE2(SS,OS)=  0.270000  0.270000
 ExpMin= 7.60D-02 ExpMax= 6.70D+04 ExpMxC= 6.47D+02 IAcc=3 IRadAn=         5 AccDes= 0.00D+00
 HarFok:  IExCor=  205 AccDes= 0.00D+00 IRadAn=         5 IDoV=-2 UseB2=F ITyADJ=14
 ICtDFT= 12500011 ScaDFX=  1.000000  1.000000  1.000000  1.000000
 Largest valence mixing into a core orbital is  1.13D-04
 Largest core mixing into a valence orbital is  2.03D-05
 Range of M.O.s used for correlation:     5   408
 NBasis=   408 NAE=    15 NBE=    15 NFC=     4 NFV=     0
 NROrb=    404 NOA=    11 NOB=    11 NVA=   393 NVB=   393

 **** Warning!!: The largest alpha MO coefficient is  0.28470593D+02

 Leave Link  801 at Wed Aug 26 10:31:59 2020, MaxMem=  2097152000 cpu:         0.9
 (Enter /opt/cluster/programs/g09/g09_d.01/g09/l906.exe)
 DoSCS=T DFT=T ScalE2(SS,OS)=  0.270000  0.270000
 FulOut=F Deriv=F AODrv=F NAtomX=    10
   MMem=         881  MDisk=          11 MDiskD=          11
  W3Min=     2152854 MinDsk=     3857222 NBas6D=         498
 NBas2D=      125763    NTT=      124251    LW2=     4508827
    MDV=  2096382998 MDiskM=        9345 NBas2p=      117443
 Fully direct method using O(OVN) memory.
 IMap=   1   2   3   4   5   6   7   8   9  10  11
 JobTyp=1 Pass  1:  I=   1 to  11 NPSUse=  8 ParTrn=T ParDer=T DoDerP=F.
 Spin components of T(2) and E(2):
     alpha-alpha T2 =       0.4240992019D-01 E2=     -0.2545843484D-01
     alpha-beta  T2 =       0.2753320354D+00 E2=     -0.1754976883D+00
     beta-beta   T2 =       0.4240992019D-01 E2=     -0.2545843484D-01
 The integrals were generated   1 times.
 E2(B2PLYPD3) =    -0.2264145580D+00 E(B2PLYPD3) =    -0.15592202924966D+03
 Leave Link  906 at Wed Aug 26 10:33:59 2020, MaxMem=  2097152000 cpu:       954.7
 (Enter /opt/cluster/programs/g09/g09_d.01/g09/l601.exe)
 Copying SCF densities to generalized density rwf, IOpCl= 0 IROHF=0.

 **********************************************************************

            Population analysis using the SCF density.

 **********************************************************************

 Orbital symmetries:
       Occupied  (A) (A) (A) (A) (A) (A) (A) (A) (A) (A) (A) (A)
                 (A) (A) (A)
       Virtual   (A) (A) (A) (A) (A) (A) (A) (A) (A) (A) (A) (A)
                 (A) (A) (A) (A) (A) (A) (A) (A) (A) (A) (A) (A)
                 (A) (A) (A) (A) (A) (A) (A) (A) (A) (A) (A) (A)
                 (A) (A) (A) (A) (A) (A) (A) (A) (A) (A) (A) (A)
                 (A) (A) (A) (A) (A) (A) (A) (A) (A) (A) (A) (A)
                 (A) (A) (A) (A) (A) (A) (A) (A) (A) (A) (A) (A)
                 (A) (A) (A) (A) (A) (A) (A) (A) (A) (A) (A) (A)
                 (A) (A) (A) (A) (A) (A) (A) (A) (A) (A) (A) (A)
                 (A) (A) (A) (A) (A) (A) (A) (A) (A) (A) (A) (A)
                 (A) (A) (A) (A) (A) (A) (A) (A) (A) (A) (A) (A)
                 (A) (A) (A) (A) (A) (A) (A) (A) (A) (A) (A) (A)
                 (A) (A) (A) (A) (A) (A) (A) (A) (A) (A) (A) (A)
                 (A) (A) (A) (A) (A) (A) (A) (A) (A) (A) (A) (A)
                 (A) (A) (A) (A) (A) (A) (A) (A) (A) (A) (A) (A)
                 (A) (A) (A) (A) (A) (A) (A) (A) (A) (A) (A) (A)
                 (A) (A) (A) (A) (A) (A) (A) (A) (A) (A) (A) (A)
                 (A) (A) (A) (A) (A) (A) (A) (A) (A) (A) (A) (A)
                 (A) (A) (A) (A) (A) (A) (A) (A) (A) (A) (A) (A)
                 (A) (A) (A) (A) (A) (A) (A) (A) (A) (A) (A) (A)
                 (A) (A) (A) (A) (A) (A) (A) (A) (A) (A) (A) (A)
                 (A) (A) (A) (A) (A) (A) (A) (A) (A) (A) (A) (A)
                 (A) (A) (A) (A) (A) (A) (A) (A) (A) (A) (A) (A)
                 (A) (A) (A) (A) (A) (A) (A) (A) (A) (A) (A) (A)
                 (A) (A) (A) (A) (A) (A) (A) (A) (A) (A) (A) (A)
                 (A) (A) (A) (A) (A) (A) (A) (A) (A) (A) (A) (A)
                 (A) (A) (A) (A) (A) (A) (A) (A) (A) (A) (A) (A)
                 (A) (A) (A) (A) (A) (A) (A) (A) (A) (A) (A) (A)
                 (A) (A) (A) (A) (A) (A) (A) (A) (A) (A) (A) (A)
                 (A) (A) (A) (A) (A) (A) (A) (A) (A) (A) (A) (A)
                 (A) (A) (A) (A) (A) (A) (A) (A) (A) (A) (A) (A)
                 (A) (A) (A) (A) (A) (A) (A) (A) (A) (A) (A) (A)
                 (A) (A) (A) (A) (A) (A) (A) (A) (A) (A) (A) (A)
                 (A) (A) (A) (A) (A) (A) (A) (A) (A)
 The electronic state is 1-A.
 Alpha  occ. eigenvalues --  -10.62971 -10.62891 -10.62179 -10.61309  -0.92641
 Alpha  occ. eigenvalues --   -0.84660  -0.69475  -0.63840  -0.54264  -0.53413
 Alpha  occ. eigenvalues --   -0.46625  -0.45511  -0.40945  -0.37738  -0.27747
 Alpha virt. eigenvalues --    0.01865   0.07015   0.07211   0.08040   0.09179
 Alpha virt. eigenvalues --    0.11729   0.12378   0.14537   0.15696   0.16080
 Alpha virt. eigenvalues --    0.18795   0.20111   0.21502   0.23038   0.23786
 Alpha virt. eigenvalues --    0.26758   0.26973   0.29383   0.31272   0.33749
 Alpha virt. eigenvalues --    0.34719   0.36829   0.36997   0.37453   0.39750
 Alpha virt. eigenvalues --    0.42426   0.43337   0.45013   0.47145   0.48316
 Alpha virt. eigenvalues --    0.48791   0.49583   0.53555   0.55602   0.56407
 Alpha virt. eigenvalues --    0.58194   0.58872   0.64471   0.67308   0.67956
 Alpha virt. eigenvalues --    0.68691   0.70867   0.76796   0.76975   0.78670
 Alpha virt. eigenvalues --    0.80215   0.80753   0.80961   0.82460   0.83927
 Alpha virt. eigenvalues --    0.84467   0.85309   0.86357   0.87465   0.90148
 Alpha virt. eigenvalues --    0.92332   0.93771   0.94316   0.95547   0.96022
 Alpha virt. eigenvalues --    0.98676   0.98899   1.00005   1.03046   1.04174
 Alpha virt. eigenvalues --    1.06380   1.07322   1.10053   1.12023   1.12679
 Alpha virt. eigenvalues --    1.14487   1.18151   1.18685   1.19862   1.21792
 Alpha virt. eigenvalues --    1.24462   1.25965   1.32384   1.34575   1.36630
 Alpha virt. eigenvalues --    1.37565   1.39927   1.46488   1.57541   1.63281
 Alpha virt. eigenvalues --    1.64432   1.69430   1.70526   1.71879   1.72270
 Alpha virt. eigenvalues --    1.76771   1.81991   1.82362   1.84170   1.87549
 Alpha virt. eigenvalues --    1.89548   1.91261   1.92557   1.93170   1.94325
 Alpha virt. eigenvalues --    1.95582   1.99159   1.99989   2.00635   2.01780
 Alpha virt. eigenvalues --    2.03975   2.06019   2.06499   2.08438   2.09113
 Alpha virt. eigenvalues --    2.10299   2.11380   2.14503   2.14937   2.17047
 Alpha virt. eigenvalues --    2.18710   2.21156   2.22797   2.26719   2.27263
 Alpha virt. eigenvalues --    2.29374   2.32361   2.33478   2.38160   2.42118
 Alpha virt. eigenvalues --    2.42919   2.44785   2.47529   2.48989   2.50144
 Alpha virt. eigenvalues --    2.51745   2.53754   2.55202   2.57001   2.58255
 Alpha virt. eigenvalues --    2.59838   2.61302   2.62290   2.62615   2.64773
 Alpha virt. eigenvalues --    2.66246   2.68141   2.69839   2.70734   2.71878
 Alpha virt. eigenvalues --    2.72404   2.75720   2.76861   2.77268   2.79843
 Alpha virt. eigenvalues --    2.80562   2.87665   2.88869   2.91119   2.92437
 Alpha virt. eigenvalues --    2.93662   3.02516   3.04810   3.05801   3.07458
 Alpha virt. eigenvalues --    3.10584   3.12917   3.23183   3.31987   3.33622
 Alpha virt. eigenvalues --    3.35590   3.36775   3.40948   3.43650   3.45356
 Alpha virt. eigenvalues --    3.47203   3.49396   3.52650   3.54298   3.55961
 Alpha virt. eigenvalues --    3.57938   3.60476   3.63698   3.67289   3.76431
 Alpha virt. eigenvalues --    3.78446   3.81251   3.83449   3.86563   3.88496
 Alpha virt. eigenvalues --    3.92708   3.93743   3.99222   4.03246   4.12675
 Alpha virt. eigenvalues --    4.14372   4.14880   4.19940   4.23448   4.43909
 Alpha virt. eigenvalues --    4.49483   4.55593   4.58154   4.85122   4.98072
 Alpha virt. eigenvalues --    4.98986   5.02741   5.04141   5.05294   5.08286
 Alpha virt. eigenvalues --    5.12193   5.16735   5.19232   5.27789   5.30700
 Alpha virt. eigenvalues --    5.32586   5.36429   5.38164   5.44507   5.48840
 Alpha virt. eigenvalues --    5.53515   5.54536   5.57958   5.60281   5.64161
 Alpha virt. eigenvalues --    5.66307   5.70260   5.72786   5.76828   5.77416
 Alpha virt. eigenvalues --    5.78650   5.80857   5.81723   5.85578   5.86119
 Alpha virt. eigenvalues --    5.88723   5.90622   5.98478   6.00600   6.01530
 Alpha virt. eigenvalues --    6.04525   6.05409   6.07366   6.09841   6.10868
 Alpha virt. eigenvalues --    6.12545   6.13324   6.17600   6.17951   6.19425
 Alpha virt. eigenvalues --    6.21470   6.22724   6.25162   6.29890   6.30459
 Alpha virt. eigenvalues --    6.31417   6.34242   6.35115   6.36040   6.36326
 Alpha virt. eigenvalues --    6.37867   6.40714   6.41651   6.44629   6.47421
 Alpha virt. eigenvalues --    6.48564   6.50781   6.52960   6.55554   6.60796
 Alpha virt. eigenvalues --    6.61990   6.63465   6.68430   6.69554   6.74376
 Alpha virt. eigenvalues --    6.76620   6.83890   6.85224   6.85901   6.88297
 Alpha virt. eigenvalues --    6.94548   6.94620   6.95999   7.01186   7.05429
 Alpha virt. eigenvalues --    7.08495   7.12781   7.14901   7.16753   7.21412
 Alpha virt. eigenvalues --    7.22640   7.27276   7.33603   7.35812   7.40027
 Alpha virt. eigenvalues --    7.45183   7.47369   7.50660   7.53225   7.55757
 Alpha virt. eigenvalues --    7.59412   7.62557   7.63188   7.65935   7.66642
 Alpha virt. eigenvalues --    7.67712   7.69848   7.73426   7.74127   7.74872
 Alpha virt. eigenvalues --    7.75685   7.78998   7.87759   7.89134   7.90692
 Alpha virt. eigenvalues --    7.93078   7.94056   8.04485   8.08746   8.09517
 Alpha virt. eigenvalues --    8.10930   8.13620   8.17662   8.18353   8.21342
 Alpha virt. eigenvalues --    8.22929   8.24314   8.28799   8.32886   8.33799
 Alpha virt. eigenvalues --    8.34057   8.37444   8.37684   8.39436   8.40627
 Alpha virt. eigenvalues --    8.44387   8.46688   8.47978   8.54764   8.56961
 Alpha virt. eigenvalues --    8.58561   8.59831   8.61264   8.64919   8.68555
 Alpha virt. eigenvalues --    8.71338   8.73137   8.76040   8.77554   8.81530
 Alpha virt. eigenvalues --    8.86388   8.88610   8.91690   9.00934   9.06081
 Alpha virt. eigenvalues --    9.14625   9.19636   9.26945   9.31675   9.36680
 Alpha virt. eigenvalues --    9.48000   9.56067   9.72439   9.76298   9.77316
 Alpha virt. eigenvalues --    9.78439   9.82107   9.86195   9.94581   9.97411
 Alpha virt. eigenvalues --    9.99250  10.03262  10.20319  10.21732  10.27954
 Alpha virt. eigenvalues --   10.28989  10.36735  10.43562  10.67119  10.79078
 Alpha virt. eigenvalues --   10.87521  11.04962  11.41249  11.59794  11.81951
 Alpha virt. eigenvalues --   11.99549  12.79156  12.96798  12.98852  13.21897
 Alpha virt. eigenvalues --   28.60342  28.71839  29.42907  29.58086 148.19178
 Alpha virt. eigenvalues --  148.29243 149.01624 149.18044
          Condensed to atoms (all electrons):
               1          2          3          4          5          6
     1  C    4.845330   0.611234  -0.081673  -0.001582   0.425675   0.426728
     2  C    0.611234   4.837112   0.407812  -0.080905  -0.047807  -0.044623
     3  C   -0.081673   0.407812   4.839987   0.611019   0.007914  -0.010302
     4  C   -0.001582  -0.080905   0.611019   4.845315  -0.000706   0.000459
     5  H    0.425675  -0.047807   0.007914  -0.000706   0.579569  -0.043240
     6  H    0.426728  -0.044623  -0.010302   0.000459  -0.043240   0.593931
     7  H   -0.046542   0.406698  -0.054015  -0.000505  -0.009074   0.007400
     8  H   -0.001714  -0.062021   0.408036  -0.043486  -0.000112   0.004921
     9  H    0.000506  -0.008748  -0.047661   0.423611  -0.000046   0.000040
    10  H   -0.000704   0.007711  -0.041703   0.417637   0.000032  -0.000045
               7          8          9         10
     1  C   -0.046542  -0.001714   0.000506  -0.000704
     2  C    0.406698  -0.062021  -0.008748   0.007711
     3  C   -0.054015   0.408036  -0.047661  -0.041703
     4  C   -0.000505  -0.043486   0.423611   0.417637
     5  H   -0.009074  -0.000112  -0.000046   0.000032
     6  H    0.007400   0.004921   0.000040  -0.000045
     7  H    0.633826   0.006445   0.004259  -0.000120
     8  H    0.006445   0.627413   0.007081  -0.007755
     9  H    0.004259   0.007081   0.598832  -0.043935
    10  H   -0.000120  -0.007755  -0.043935   0.586293
 Mulliken charges:
               1
     1  C   -0.177258
     2  C   -0.026462
     3  C   -0.039415
     4  C   -0.170858
     5  H    0.087794
     6  H    0.064730
     7  H    0.051629
     8  H    0.061191
     9  H    0.066060
    10  H    0.082588
 Sum of Mulliken charges =   0.00000
 Mulliken charges with hydrogens summed into heavy atoms:
               1
     1  C   -0.024733
     2  C    0.025166
     3  C    0.021776
     4  C   -0.022209
 Electronic spatial extent (au):  <R**2>=            335.2241
 Charge=              0.0000 electrons
 Dipole moment (field-independent basis, Debye):
    X=              0.0884    Y=              0.0131    Z=             -0.0246  Tot=              0.0927
 Quadrupole moment (field-independent basis, Debye-Ang):
   XX=            -23.7829   YY=            -22.9954   ZZ=            -29.3956
   XY=             -0.2004   XZ=              0.3133   YZ=              0.0000
 Traceless Quadrupole moment (field-independent basis, Debye-Ang):
   XX=              1.6083   YY=              2.3959   ZZ=             -4.0043
   XY=             -0.2004   XZ=              0.3133   YZ=              0.0000
 Octapole moment (field-independent basis, Debye-Ang**2):
  XXX=              0.0649  YYY=              0.1895  ZZZ=             -0.0646  XYY=              0.4069
  XXY=              0.0909  XXZ=             -0.3197  XZZ=              0.3013  YZZ=             -0.0269
  YYZ=              0.0951  XYZ=             -0.6432
 Hexadecapole moment (field-independent basis, Debye-Ang**3):
 XXXX=           -344.6673 YYYY=            -66.8692 ZZZZ=            -37.3402 XXXY=              6.3933
 XXXZ=              2.9311 YYYX=             -2.3322 YYYZ=             -0.1854 ZZZX=              0.4556
 ZZZY=              0.0290 XXYY=            -68.8240 XXZZ=            -77.0442 YYZZ=            -19.7488
 XXYZ=              0.4509 YYXZ=              0.2754 ZZXY=             -0.5442
 N-N= 1.034664295017D+02 E-N=-5.677470339579D+02  KE= 1.549719327392D+02
 Leave Link  601 at Wed Aug 26 10:33:59 2020, MaxMem=  2097152000 cpu:         0.8
 (Enter /opt/cluster/programs/g09/g09_d.01/g09/l9999.exe)
 1\1\GINC-NODE06\SP\RB2PLYPD3-FC\def2QZVP\C4H6\BOITTIER\26-Aug-2020\0\\
 #p B2PLYPD3/Def2QZVP\\butadiene\\0,1\C,0,-3.824234,0.235163,0.045189\C
 ,0,-2.737349,-0.527424,0.00108\C,0,-1.387785,0.080324,-0.026657\C,0,-0
 .258148,-0.647131,0.075043\H,0,-4.78868,-0.213004,0.053548\H,0,-3.7425
 3,1.321749,0.100753\H,0,-2.824295,-1.648214,-0.001196\H,0,-1.405744,1.
 157108,-0.043501\H,0,-0.313483,-1.736485,0.139625\H,0,0.755436,-0.1895
 94,-0.069931\\Version=ES64L-G09RevD.01\State=1-A\HF=-155.6956147\MP2=-
 155.9220292\RMSD=6.339e-09\PG=C01 [X(C4H6)]\\@


 QUHEN THE CAUSS IS TAKEN AWAY THE EFFECT WANISHETH.
 -- PROVERBS AND REASONS OF THE YEAR 1585
           AS REPRINTED IN PAISLEY MAGAZINE 1828.
 Job cpu time:       0 days  0 hours 41 minutes 13.5 seconds.
 File lengths (MBytes):  RWF=     92 Int=      0 D2E=      0 Chk=      9 Scr=      1
 Normal termination of Gaussian 09 at Wed Aug 26 10:33:59 2020.
