 Entering Gaussian System, Link 0=/opt/cluster/programs/g09/g09_d.01/g09//g09
 Input=/home/boittier/MDCM/nms_sampling/butadiene_geom.xyz.dir/energies/butadiene_2862_energy.com
 Output=/scratch/boittier/butadiene_2862_energy/butadiene_2862_energy.out
 Initial command:
 /opt/cluster/programs/g09/g09_d.01/g09/l1.exe "/scratch/boittier/butadiene_2862_energy/Gau-213488.inp" -scrdir="/scratch/boittier/butadiene_2862_energy/"
 Entering Link 1 = /opt/cluster/programs/g09/g09_d.01/g09/l1.exe PID=    213489.
  
 Copyright (c) 1988,1990,1992,1993,1995,1998,2003,2009,2013,
            Gaussian, Inc.  All Rights Reserved.
  
 This is part of the Gaussian(R) 09 program.  It is based on
 the Gaussian(R) 03 system (copyright 2003, Gaussian, Inc.),
 the Gaussian(R) 98 system (copyright 1998, Gaussian, Inc.),
 the Gaussian(R) 94 system (copyright 1995, Gaussian, Inc.),
 the Gaussian 92(TM) system (copyright 1992, Gaussian, Inc.),
 the Gaussian 90(TM) system (copyright 1990, Gaussian, Inc.),
 the Gaussian 88(TM) system (copyright 1988, Gaussian, Inc.),
 the Gaussian 86(TM) system (copyright 1986, Carnegie Mellon
 University), and the Gaussian 82(TM) system (copyright 1983,
 Carnegie Mellon University). Gaussian is a federally registered
 trademark of Gaussian, Inc.
  
 This software contains proprietary and confidential information,
 including trade secrets, belonging to Gaussian, Inc.
  
 This software is provided under written license and may be
 used, copied, transmitted, or stored only in accord with that
 written license.
  
 The following legend is applicable only to US Government
 contracts under FAR:
  
                    RESTRICTED RIGHTS LEGEND
  
 Use, reproduction and disclosure by the US Government is
 subject to restrictions as set forth in subparagraphs (a)
 and (c) of the Commercial Computer Software - Restricted
 Rights clause in FAR 52.227-19.
  
 Gaussian, Inc.
 340 Quinnipiac St., Bldg. 40, Wallingford CT 06492
  
  
 ---------------------------------------------------------------
 Warning -- This program may not be used in any manner that
 competes with the business of Gaussian, Inc. or will provide
 assistance to any competitor of Gaussian, Inc.  The licensee
 of this program is prohibited from giving any competitor of
 Gaussian, Inc. access to this program.  By using this program,
 the user acknowledges that Gaussian, Inc. is engaged in the
 business of creating and licensing software in the field of
 computational chemistry and represents and warrants to the
 licensee that it is not a competitor of Gaussian, Inc. and that
 it will not use this program in any manner prohibited above.
 ---------------------------------------------------------------
  

 Cite this work as:
 Gaussian 09, Revision D.01,
 M. J. Frisch, G. W. Trucks, H. B. Schlegel, G. E. Scuseria, 
 M. A. Robb, J. R. Cheeseman, G. Scalmani, V. Barone, B. Mennucci, 
 G. A. Petersson, H. Nakatsuji, M. Caricato, X. Li, H. P. Hratchian, 
 A. F. Izmaylov, J. Bloino, G. Zheng, J. L. Sonnenberg, M. Hada, 
 M. Ehara, K. Toyota, R. Fukuda, J. Hasegawa, M. Ishida, T. Nakajima, 
 Y. Honda, O. Kitao, H. Nakai, T. Vreven, J. A. Montgomery, Jr., 
 J. E. Peralta, F. Ogliaro, M. Bearpark, J. J. Heyd, E. Brothers, 
 K. N. Kudin, V. N. Staroverov, T. Keith, R. Kobayashi, J. Normand, 
 K. Raghavachari, A. Rendell, J. C. Burant, S. S. Iyengar, J. Tomasi, 
 M. Cossi, N. Rega, J. M. Millam, M. Klene, J. E. Knox, J. B. Cross, 
 V. Bakken, C. Adamo, J. Jaramillo, R. Gomperts, R. E. Stratmann, 
 O. Yazyev, A. J. Austin, R. Cammi, C. Pomelli, J. W. Ochterski, 
 R. L. Martin, K. Morokuma, V. G. Zakrzewski, G. A. Voth, 
 P. Salvador, J. J. Dannenberg, S. Dapprich, A. D. Daniels, 
 O. Farkas, J. B. Foresman, J. V. Ortiz, J. Cioslowski, 
 and D. J. Fox, Gaussian, Inc., Wallingford CT, 2013.
 
 ******************************************
 Gaussian 09:  ES64L-G09RevD.01 24-Apr-2013
                26-Aug-2020 
 ******************************************
 %chk=/home/boittier/MDCM/nms_sampling/butadiene_geom.xyz.dir/butadiene_2862.chk
 %nproc=8
 Will use up to    8 processors via shared memory.
 %mem=16000MB
 --------------------
 #p B2PLYPD3/Def2QZVP
 --------------------
 1/38=1/1;
 2/12=2,17=6,18=5,40=1/2;
 3/5=45,7=101,11=9,16=1,25=1,30=1,74=-60/1,2,3;
 4//1;
 5/5=2,38=5/2;
 8/10=1/1;
 9/16=-3/6;
 6/7=2,8=2,9=2,10=2/1;
 99/5=1,9=1/99;
 Leave Link    1 at Wed Aug 26 16:02:19 2020, MaxMem=  2097152000 cpu:         0.3
 (Enter /opt/cluster/programs/g09/g09_d.01/g09/l101.exe)
 ---------
 butadiene
 ---------
 Symbolic Z-matrix:
 Charge =  0 Multiplicity = 1
 C                    -3.86482   0.2399    0.09835 
 C                    -2.7389   -0.51462  -0.01265 
 C                    -1.37524   0.0893   -0.08195 
 C                    -0.23404  -0.66601   0.09093 
 H                    -4.7426   -0.32761  -0.15319 
 H                    -3.78887   1.29766   0.10878 
 H                    -2.86834  -1.60615  -0.07301 
 H                    -1.38942   1.10988  -0.03749 
 H                    -0.247    -1.71126   0.26416 
 H                     0.7805   -0.15244   0.04833 
 
 NAtoms=     10 NQM=       10 NQMF=       0 NMMI=      0 NMMIF=      0
                NMic=       0 NMicF=      0.
                    Isotopes and Nuclear Properties:
 (Nuclear quadrupole moments (NQMom) in fm**2, nuclear magnetic moments (NMagM)
  in nuclear magnetons)

  Atom         1           2           3           4           5           6           7           8           9          10
 IAtWgt=          12          12          12          12           1           1           1           1           1           1
 AtmWgt=  12.0000000  12.0000000  12.0000000  12.0000000   1.0078250   1.0078250   1.0078250   1.0078250   1.0078250   1.0078250
 NucSpn=           0           0           0           0           1           1           1           1           1           1
 AtZEff=   0.0000000   0.0000000   0.0000000   0.0000000   0.0000000   0.0000000   0.0000000   0.0000000   0.0000000   0.0000000
 NQMom=    0.0000000   0.0000000   0.0000000   0.0000000   0.0000000   0.0000000   0.0000000   0.0000000   0.0000000   0.0000000
 NMagM=    0.0000000   0.0000000   0.0000000   0.0000000   2.7928460   2.7928460   2.7928460   2.7928460   2.7928460   2.7928460
 AtZNuc=   6.0000000   6.0000000   6.0000000   6.0000000   1.0000000   1.0000000   1.0000000   1.0000000   1.0000000   1.0000000
 Leave Link  101 at Wed Aug 26 16:02:19 2020, MaxMem=  2097152000 cpu:         0.6
 (Enter /opt/cluster/programs/g09/g09_d.01/g09/l202.exe)
                          Input orientation:                          
 ---------------------------------------------------------------------
 Center     Atomic      Atomic             Coordinates (Angstroms)
 Number     Number       Type             X           Y           Z
 ---------------------------------------------------------------------
      1          6           0       -3.864815    0.239900    0.098349
      2          6           0       -2.738896   -0.514623   -0.012645
      3          6           0       -1.375242    0.089295   -0.081947
      4          6           0       -0.234044   -0.666010    0.090927
      5          1           0       -4.742599   -0.327613   -0.153191
      6          1           0       -3.788871    1.297655    0.108783
      7          1           0       -2.868343   -1.606150   -0.073010
      8          1           0       -1.389421    1.109883   -0.037489
      9          1           0       -0.247000   -1.711264    0.264157
     10          1           0        0.780504   -0.152437    0.048328
 ---------------------------------------------------------------------
                    Distance matrix (angstroms):
                    1          2          3          4          5
     1  C    0.000000
     2  C    1.359896   0.000000
     3  C    2.500632   1.493008   0.000000
     4  C    3.742088   2.511559   1.379385   0.000000
     5  H    1.075104   2.017313   3.393815   4.527822   0.000000
     6  H    1.060529   2.097986   2.705941   4.061169   1.902557
     7  H    2.104809   1.100832   2.259195   2.801833   2.270225
     8  H    2.627337   2.112042   1.021654   2.122542   3.650149
     9  H    4.113772   2.778150   2.152842   1.059591   4.722190
    10  H    4.662126   3.538513   2.173165   1.137928   5.529554
                    6          7          8          9         10
     6  H    0.000000
     7  H    3.051640   0.000000
     8  H    2.411227   3.092783   0.000000
     9  H    4.650009   2.645027   3.058592   0.000000
    10  H    4.794331   3.929642   2.511850   1.879438   0.000000
 Stoichiometry    C4H6
 Framework group  C1[X(C4H6)]
 Deg. of freedom    24
 Full point group                 C1      NOp   1
 Largest Abelian subgroup         C1      NOp   1
 Largest concise Abelian subgroup C1      NOp   1
                         Standard orientation:                         
 ---------------------------------------------------------------------
 Center     Atomic      Atomic             Coordinates (Angstroms)
 Number     Number       Type             X           Y           Z
 ---------------------------------------------------------------------
      1          6           0        1.864859   -0.131746    0.091254
      2          6           0        0.625553    0.412742   -0.039015
      3          6           0       -0.611331   -0.420926   -0.103727
      4          6           0       -1.868071    0.126575    0.049732
      5          1           0        2.632224    0.575766   -0.166479
      6          1           0        1.974414   -1.186188    0.120799
      7          1           0        0.563188    1.508903   -0.118847
      8          1           0       -0.419786   -1.422465   -0.040416
      9          1           0       -2.038926    1.160897    0.203746
     10          1           0       -2.777171   -0.556780    0.011730
 ---------------------------------------------------------------------
 Rotational constants (GHZ):     39.7922076      4.3366300      3.9331000
 Leave Link  202 at Wed Aug 26 16:02:19 2020, MaxMem=  2097152000 cpu:         0.1
 (Enter /opt/cluster/programs/g09/g09_d.01/g09/l301.exe)
 Standard basis: def2QZVP (5D, 7F)
 Ernie: Thresh=  0.10000D-02 Tol=  0.10000D-05 Strict=F.
 There are   498 symmetry adapted cartesian basis functions of A   symmetry.
 There are   408 symmetry adapted basis functions of A   symmetry.
   408 basis functions,   596 primitive gaussians,   498 cartesian basis functions
    15 alpha electrons       15 beta electrons
       nuclear repulsion energy       102.6141382415 Hartrees.
 IExCor=  419 DFT=T Ex+Corr=B2PLYPD3 ExCW=0 ScaHFX=  0.530000
 ScaDFX=  0.470000  0.470000  0.730000  0.730000 ScalE2=  0.270000  0.270000
 IRadAn=      0 IRanWt=     -1 IRanGd=            0 ICorTp=0 IEmpDi=141
 NAtoms=   10 NActive=   10 NUniq=   10 SFac= 1.00D+00 NAtFMM=   60 NAOKFM=F Big=F
 Integral buffers will be    131072 words long.
 Regular integral format.
 Two-electron integral symmetry is turned on.
 R6Disp:  Grimme-D3(BJ) Dispersion energy=       -0.0048105729 Hartrees.
 Nuclear repulsion after empirical dispersion term =      102.6093276686 Hartrees.
 Leave Link  301 at Wed Aug 26 16:02:19 2020, MaxMem=  2097152000 cpu:         0.6
 (Enter /opt/cluster/programs/g09/g09_d.01/g09/l302.exe)
 NPDir=0 NMtPBC=     1 NCelOv=     1 NCel=       1 NClECP=     1 NCelD=      1
         NCelK=      1 NCelE2=     1 NClLst=     1 CellRange=     0.0.
 One-electron integrals computed using PRISM.
   1 Symmetry operations used in ECPInt.
 ECPInt:  NShTT=    8256 NPrTT=   19107 LenC2=    8053 LenP2D=   16082.
 LDataN:  DoStor=T MaxTD1= 8 Len=  415
 NBasis=   408 RedAO= T EigKep=  5.04D-05  NBF=   408
 NBsUse=   408 1.00D-06 EigRej= -1.00D+00 NBFU=   408
 Precomputing XC quadrature grid using
 IXCGrd= 4 IRadAn=           0 IRanWt=          -1 IRanGd=           0 AccXCQ= 0.00D+00.
 Generated NRdTot=       0 NPtTot=           0 NUsed=           0 NTot=          32
 NSgBfM=   498   498   498   498   498 MxSgAt=    10 MxSgA2=    10.
 Leave Link  302 at Wed Aug 26 16:02:20 2020, MaxMem=  2097152000 cpu:         4.1
 (Enter /opt/cluster/programs/g09/g09_d.01/g09/l303.exe)
 DipDrv:  MaxL=1.
 Leave Link  303 at Wed Aug 26 16:02:20 2020, MaxMem=  2097152000 cpu:         0.5
 (Enter /opt/cluster/programs/g09/g09_d.01/g09/l401.exe)
 ExpMin= 7.60D-02 ExpMax= 6.70D+04 ExpMxC= 6.47D+02 IAcc=2 IRadAn=         4 AccDes= 0.00D+00
 Harris functional with IExCor=  419 and IRadAn=       4 diagonalized for initial guess.
 HarFok:  IExCor=  419 AccDes= 0.00D+00 IRadAn=         4 IDoV= 1 UseB2=F ITyADJ=14
 ICtDFT=  3500011 ScaDFX=  1.000000  1.000000  1.000000  1.000000
 FoFCou: FMM=F IPFlag=           0 FMFlag=      100000 FMFlg1=           0
         NFxFlg=           0 DoJE=T BraDBF=F KetDBF=T FulRan=T
         wScrn=  0.000000 ICntrl=     500 IOpCl=  0 I1Cent=   200000004 NGrid=           0
         NMat0=    1 NMatS0=      1 NMatT0=    0 NMatD0=    1 NMtDS0=    0 NMtDT0=    0
 Petite list used in FoFCou.
 Harris En= -156.111153046027    
 JPrj=0 DoOrth=F DoCkMO=F.
 Leave Link  401 at Wed Aug 26 16:02:21 2020, MaxMem=  2097152000 cpu:         9.5
 (Enter /opt/cluster/programs/g09/g09_d.01/g09/l502.exe)
 Closed shell SCF:
 Using DIIS extrapolation, IDIIS=  1040.
 Integral symmetry usage will be decided dynamically.
 IVT=      770090 IEndB=      770090 NGot=  2097152000 MDV=  2096647053
 LenX=  2096647053 LenY=  2096398551
 Requested convergence on RMS density matrix=1.00D-08 within 128 cycles.
 Requested convergence on MAX density matrix=1.00D-06.
 Requested convergence on             energy=1.00D-06.
 No special actions if energy rises.
 Fock matrices will be formed incrementally for  20 cycles.
 Integral accuracy reduced to 1.0D-05 until final iterations.

 Cycle   1  Pass 0  IDiag  1:
 FoFJK:  IHMeth= 1 ICntrl=       0 DoSepK=F KAlg= 0 I1Cent=   0 FoldK=F
 IRaf= 940000000 NMat=   1 IRICut=       1 DoRegI=T DoRafI=F ISym2E= 0.
 FoFCou: FMM=F IPFlag=           0 FMFlag=      100000 FMFlg1=           0
         NFxFlg=           0 DoJE=F BraDBF=F KetDBF=F FulRan=T
         wScrn=  0.000000 ICntrl=       0 IOpCl=  0 I1Cent=           0 NGrid=           0
         NMat0=    1 NMatS0=      1 NMatT0=    0 NMatD0=    1 NMtDS0=    0 NMtDT0=    0
 Symmetry not used in FoFCou.
 E= -155.505815096637    
 DIIS: error= 2.85D-02 at cycle   1 NSaved=   1.
 NSaved= 1 IEnMin= 1 EnMin= -155.505815096637     IErMin= 1 ErrMin= 2.85D-02
 ErrMax= 2.85D-02  0.00D+00 EMaxC= 1.00D-01 BMatC= 2.39D-01 BMatP= 2.39D-01
 IDIUse=3 WtCom= 7.15D-01 WtEn= 2.85D-01
 Coeff-Com:  0.100D+01
 Coeff-En:   0.100D+01
 Coeff:      0.100D+01
 Gap=     0.285 Goal=   None    Shift=    0.000
 GapD=    0.285 DampG=1.000 DampE=0.500 DampFc=0.5000 IDamp=-1.
 Damping current iteration by 5.00D-01
 RMSDP=9.62D-04 MaxDP=5.59D-02              OVMax= 1.92D-01

 Cycle   2  Pass 0  IDiag  1:
 RMSU=  4.47D-04    CP:  9.53D-01
 E= -155.598766543163     Delta-E=       -0.092951446526 Rises=F Damp=T
 DIIS: error= 9.01D-03 at cycle   2 NSaved=   2.
 NSaved= 2 IEnMin= 2 EnMin= -155.598766543163     IErMin= 2 ErrMin= 9.01D-03
 ErrMax= 9.01D-03  0.00D+00 EMaxC= 1.00D-01 BMatC= 2.95D-02 BMatP= 2.39D-01
 IDIUse=3 WtCom= 9.10D-01 WtEn= 9.01D-02
 Coeff-Com: -0.317D+00 0.132D+01
 Coeff-En:   0.000D+00 0.100D+01
 Coeff:     -0.288D+00 0.129D+01
 Gap=     0.355 Goal=   None    Shift=    0.000
 RMSDP=2.98D-04 MaxDP=8.96D-03 DE=-9.30D-02 OVMax= 9.29D-02

 Cycle   3  Pass 0  IDiag  1:
 RMSU=  2.90D-04    CP:  9.36D-01  9.69D-01
 E= -155.678656886862     Delta-E=       -0.079890343699 Rises=F Damp=F
 DIIS: error= 3.83D-03 at cycle   3 NSaved=   3.
 NSaved= 3 IEnMin= 3 EnMin= -155.678656886862     IErMin= 3 ErrMin= 3.83D-03
 ErrMax= 3.83D-03  0.00D+00 EMaxC= 1.00D-01 BMatC= 1.84D-03 BMatP= 2.95D-02
 IDIUse=3 WtCom= 9.62D-01 WtEn= 3.83D-02
 Coeff-Com: -0.120D+00 0.235D+00 0.884D+00
 Coeff-En:   0.000D+00 0.000D+00 0.100D+01
 Coeff:     -0.115D+00 0.226D+00 0.889D+00
 Gap=     0.281 Goal=   None    Shift=    0.000
 RMSDP=7.12D-05 MaxDP=3.52D-03 DE=-7.99D-02 OVMax= 2.17D-02

 Cycle   4  Pass 0  IDiag  1:
 RMSU=  5.29D-05    CP:  9.32D-01  1.07D+00  9.62D-01
 E= -155.680153464997     Delta-E=       -0.001496578135 Rises=F Damp=F
 DIIS: error= 1.94D-03 at cycle   4 NSaved=   4.
 NSaved= 4 IEnMin= 4 EnMin= -155.680153464997     IErMin= 4 ErrMin= 1.94D-03
 ErrMax= 1.94D-03  0.00D+00 EMaxC= 1.00D-01 BMatC= 5.07D-04 BMatP= 1.84D-03
 IDIUse=3 WtCom= 9.81D-01 WtEn= 1.94D-02
 Coeff-Com: -0.558D-01 0.941D-01 0.473D+00 0.489D+00
 Coeff-En:   0.000D+00 0.000D+00 0.857D-01 0.914D+00
 Coeff:     -0.547D-01 0.922D-01 0.465D+00 0.497D+00
 Gap=     0.281 Goal=   None    Shift=    0.000
 RMSDP=2.83D-05 MaxDP=1.79D-03 DE=-1.50D-03 OVMax= 1.04D-02

 Cycle   5  Pass 0  IDiag  1:
 RMSU=  1.70D-05    CP:  9.32D-01  1.06D+00  9.98D-01  6.32D-01
 E= -155.680657504295     Delta-E=       -0.000504039298 Rises=F Damp=F
 DIIS: error= 2.42D-04 at cycle   5 NSaved=   5.
 NSaved= 5 IEnMin= 5 EnMin= -155.680657504295     IErMin= 5 ErrMin= 2.42D-04
 ErrMax= 2.42D-04  0.00D+00 EMaxC= 1.00D-01 BMatC= 5.94D-06 BMatP= 5.07D-04
 IDIUse=3 WtCom= 9.98D-01 WtEn= 2.42D-03
 Coeff-Com: -0.463D-02 0.541D-02 0.493D-01 0.120D+00 0.830D+00
 Coeff-En:   0.000D+00 0.000D+00 0.000D+00 0.000D+00 0.100D+01
 Coeff:     -0.461D-02 0.540D-02 0.491D-01 0.120D+00 0.830D+00
 Gap=     0.281 Goal=   None    Shift=    0.000
 RMSDP=5.32D-06 MaxDP=1.77D-04 DE=-5.04D-04 OVMax= 1.29D-03

 Initial convergence to 1.0D-05 achieved.  Increase integral accuracy.
 Cycle   6  Pass 1  IDiag  1:
 E= -155.680657130655     Delta-E=        0.000000373640 Rises=F Damp=F
 DIIS: error= 3.31D-05 at cycle   1 NSaved=   1.
 NSaved= 1 IEnMin= 1 EnMin= -155.680657130655     IErMin= 1 ErrMin= 3.31D-05
 ErrMax= 3.31D-05  0.00D+00 EMaxC= 1.00D-01 BMatC= 4.51D-07 BMatP= 4.51D-07
 IDIUse=1 WtCom= 1.00D+00 WtEn= 0.00D+00
 Coeff-Com:  0.100D+01
 Coeff:      0.100D+01
 Gap=     0.282 Goal=   None    Shift=    0.000
 RMSDP=5.32D-06 MaxDP=1.77D-04 DE= 3.74D-07 OVMax= 4.05D-04

 Cycle   7  Pass 1  IDiag  1:
 RMSU=  1.83D-05    CP:  1.00D+00
 E= -155.680657527790     Delta-E=       -0.000000397135 Rises=F Damp=F
 DIIS: error= 3.14D-05 at cycle   2 NSaved=   2.
 NSaved= 2 IEnMin= 2 EnMin= -155.680657527790     IErMin= 2 ErrMin= 3.14D-05
 ErrMax= 3.14D-05  0.00D+00 EMaxC= 1.00D-01 BMatC= 7.70D-08 BMatP= 4.51D-07
 IDIUse=1 WtCom= 1.00D+00 WtEn= 0.00D+00
 Coeff-Com:  0.211D+00 0.789D+00
 Coeff:      0.211D+00 0.789D+00
 Gap=     0.282 Goal=   None    Shift=    0.000
 RMSDP=1.05D-06 MaxDP=4.09D-05 DE=-3.97D-07 OVMax= 2.01D-04

 Cycle   8  Pass 1  IDiag  1:
 RMSU=  7.35D-07    CP:  1.00D+00  1.04D+00
 E= -155.680657589468     Delta-E=       -0.000000061678 Rises=F Damp=F
 DIIS: error= 1.27D-05 at cycle   3 NSaved=   3.
 NSaved= 3 IEnMin= 3 EnMin= -155.680657589468     IErMin= 3 ErrMin= 1.27D-05
 ErrMax= 1.27D-05  0.00D+00 EMaxC= 1.00D-01 BMatC= 3.28D-08 BMatP= 7.70D-08
 IDIUse=1 WtCom= 1.00D+00 WtEn= 0.00D+00
 Coeff-Com: -0.161D-01 0.382D+00 0.634D+00
 Coeff:     -0.161D-01 0.382D+00 0.634D+00
 Gap=     0.282 Goal=   None    Shift=    0.000
 RMSDP=4.94D-07 MaxDP=2.05D-05 DE=-6.17D-08 OVMax= 8.56D-05

 Cycle   9  Pass 1  IDiag  1:
 RMSU=  3.48D-07    CP:  1.00D+00  1.06D+00  1.11D+00
 E= -155.680657622126     Delta-E=       -0.000000032658 Rises=F Damp=F
 DIIS: error= 4.31D-06 at cycle   4 NSaved=   4.
 NSaved= 4 IEnMin= 4 EnMin= -155.680657622126     IErMin= 4 ErrMin= 4.31D-06
 ErrMax= 4.31D-06  0.00D+00 EMaxC= 1.00D-01 BMatC= 1.25D-09 BMatP= 3.28D-08
 IDIUse=1 WtCom= 1.00D+00 WtEn= 0.00D+00
 Coeff-Com: -0.197D-01 0.790D-01 0.200D+00 0.741D+00
 Coeff:     -0.197D-01 0.790D-01 0.200D+00 0.741D+00
 Gap=     0.282 Goal=   None    Shift=    0.000
 RMSDP=1.11D-07 MaxDP=5.54D-06 DE=-3.27D-08 OVMax= 2.74D-05

 Cycle  10  Pass 1  IDiag  1:
 RMSU=  6.73D-08    CP:  1.00D+00  1.06D+00  1.19D+00  1.10D+00
 E= -155.680657623939     Delta-E=       -0.000000001813 Rises=F Damp=F
 DIIS: error= 9.56D-07 at cycle   5 NSaved=   5.
 NSaved= 5 IEnMin= 5 EnMin= -155.680657623939     IErMin= 5 ErrMin= 9.56D-07
 ErrMax= 9.56D-07  0.00D+00 EMaxC= 1.00D-01 BMatC= 2.17D-10 BMatP= 1.25D-09
 IDIUse=1 WtCom= 1.00D+00 WtEn= 0.00D+00
 Coeff-Com: -0.281D-02-0.359D-01-0.578D-01 0.224D+00 0.872D+00
 Coeff:     -0.281D-02-0.359D-01-0.578D-01 0.224D+00 0.872D+00
 Gap=     0.282 Goal=   None    Shift=    0.000
 RMSDP=4.94D-08 MaxDP=2.22D-06 DE=-1.81D-09 OVMax= 1.09D-05

 Cycle  11  Pass 1  IDiag  1:
 RMSU=  2.91D-08    CP:  1.00D+00  1.06D+00  1.22D+00  1.19D+00  1.02D+00
 E= -155.680657624281     Delta-E=       -0.000000000342 Rises=F Damp=F
 DIIS: error= 2.18D-07 at cycle   6 NSaved=   6.
 NSaved= 6 IEnMin= 6 EnMin= -155.680657624281     IErMin= 6 ErrMin= 2.18D-07
 ErrMax= 2.18D-07  0.00D+00 EMaxC= 1.00D-01 BMatC= 1.61D-11 BMatP= 2.17D-10
 IDIUse=1 WtCom= 1.00D+00 WtEn= 0.00D+00
 Coeff-Com:  0.111D-02-0.197D-01-0.433D-01 0.556D-02 0.286D+00 0.771D+00
 Coeff:      0.111D-02-0.197D-01-0.433D-01 0.556D-02 0.286D+00 0.771D+00
 Gap=     0.282 Goal=   None    Shift=    0.000
 RMSDP=1.09D-08 MaxDP=4.75D-07 DE=-3.42D-10 OVMax= 2.58D-06

 Cycle  12  Pass 1  IDiag  1:
 RMSU=  8.67D-09    CP:  1.00D+00  1.06D+00  1.22D+00  1.19D+00  1.04D+00
                    CP:  1.17D+00
 E= -155.680657624302     Delta-E=       -0.000000000021 Rises=F Damp=F
 DIIS: error= 3.82D-08 at cycle   7 NSaved=   7.
 NSaved= 7 IEnMin= 7 EnMin= -155.680657624302     IErMin= 7 ErrMin= 3.82D-08
 ErrMax= 3.82D-08  0.00D+00 EMaxC= 1.00D-01 BMatC= 4.02D-13 BMatP= 1.61D-11
 IDIUse=1 WtCom= 1.00D+00 WtEn= 0.00D+00
 Coeff-Com:  0.107D-03 0.200D-02 0.169D-02-0.702D-02-0.419D-01-0.222D-01
 Coeff-Com:  0.107D+01
 Coeff:      0.107D-03 0.200D-02 0.169D-02-0.702D-02-0.419D-01-0.222D-01
 Coeff:      0.107D+01
 Gap=     0.282 Goal=   None    Shift=    0.000
 RMSDP=4.84D-09 MaxDP=1.90D-07 DE=-2.14D-11 OVMax= 3.93D-07

 SCF Done:  E(RB2PLYPD3) =  -155.680657624     A.U. after   12 cycles
            NFock= 12  Conv=0.48D-08     -V/T= 2.0047
 KE= 1.549514459939D+02 PE=-5.659621541533D+02 EE= 1.527207228664D+02
 Leave Link  502 at Wed Aug 26 16:05:24 2020, MaxMem=  2097152000 cpu:      1463.8
 (Enter /opt/cluster/programs/g09/g09_d.01/g09/l801.exe)
 DoSCS=T DFT=T ScalE2(SS,OS)=  0.270000  0.270000
 ExpMin= 7.60D-02 ExpMax= 6.70D+04 ExpMxC= 6.47D+02 IAcc=3 IRadAn=         5 AccDes= 0.00D+00
 HarFok:  IExCor=  205 AccDes= 0.00D+00 IRadAn=         5 IDoV=-2 UseB2=F ITyADJ=14
 ICtDFT= 12500011 ScaDFX=  1.000000  1.000000  1.000000  1.000000
 Largest valence mixing into a core orbital is  1.16D-04
 Largest core mixing into a valence orbital is  2.05D-05
 Range of M.O.s used for correlation:     5   408
 NBasis=   408 NAE=    15 NBE=    15 NFC=     4 NFV=     0
 NROrb=    404 NOA=    11 NOB=    11 NVA=   393 NVB=   393

 **** Warning!!: The largest alpha MO coefficient is  0.23529946D+02

 Leave Link  801 at Wed Aug 26 16:05:25 2020, MaxMem=  2097152000 cpu:         0.8
 (Enter /opt/cluster/programs/g09/g09_d.01/g09/l906.exe)
 DoSCS=T DFT=T ScalE2(SS,OS)=  0.270000  0.270000
 FulOut=F Deriv=F AODrv=F NAtomX=    10
   MMem=         881  MDisk=          11 MDiskD=          11
  W3Min=     2152854 MinDsk=     3857222 NBas6D=         498
 NBas2D=      125763    NTT=      124251    LW2=     4508827
    MDV=  2096383952 MDiskM=        9345 NBas2p=      117209
 Fully direct method using O(OVN) memory.
 IMap=   1   2   3   4   5   6   7   8   9  10  11
 JobTyp=1 Pass  1:  I=   1 to  11 NPSUse=  8 ParTrn=T ParDer=T DoDerP=F.
 Spin components of T(2) and E(2):
     alpha-alpha T2 =       0.4323160475D-01 E2=     -0.2560643222D-01
     alpha-beta  T2 =       0.2824608189D+00 E2=     -0.1765612748D+00
     beta-beta   T2 =       0.4323160475D-01 E2=     -0.2560643222D-01
 The integrals were generated   1 times.
 E2(B2PLYPD3) =    -0.2277741393D+00 E(B2PLYPD3) =    -0.15590843176357D+03
 Leave Link  906 at Wed Aug 26 16:07:00 2020, MaxMem=  2097152000 cpu:       759.5
 (Enter /opt/cluster/programs/g09/g09_d.01/g09/l601.exe)
 Copying SCF densities to generalized density rwf, IOpCl= 0 IROHF=0.

 **********************************************************************

            Population analysis using the SCF density.

 **********************************************************************

 Orbital symmetries:
       Occupied  (A) (A) (A) (A) (A) (A) (A) (A) (A) (A) (A) (A)
                 (A) (A) (A)
       Virtual   (A) (A) (A) (A) (A) (A) (A) (A) (A) (A) (A) (A)
                 (A) (A) (A) (A) (A) (A) (A) (A) (A) (A) (A) (A)
                 (A) (A) (A) (A) (A) (A) (A) (A) (A) (A) (A) (A)
                 (A) (A) (A) (A) (A) (A) (A) (A) (A) (A) (A) (A)
                 (A) (A) (A) (A) (A) (A) (A) (A) (A) (A) (A) (A)
                 (A) (A) (A) (A) (A) (A) (A) (A) (A) (A) (A) (A)
                 (A) (A) (A) (A) (A) (A) (A) (A) (A) (A) (A) (A)
                 (A) (A) (A) (A) (A) (A) (A) (A) (A) (A) (A) (A)
                 (A) (A) (A) (A) (A) (A) (A) (A) (A) (A) (A) (A)
                 (A) (A) (A) (A) (A) (A) (A) (A) (A) (A) (A) (A)
                 (A) (A) (A) (A) (A) (A) (A) (A) (A) (A) (A) (A)
                 (A) (A) (A) (A) (A) (A) (A) (A) (A) (A) (A) (A)
                 (A) (A) (A) (A) (A) (A) (A) (A) (A) (A) (A) (A)
                 (A) (A) (A) (A) (A) (A) (A) (A) (A) (A) (A) (A)
                 (A) (A) (A) (A) (A) (A) (A) (A) (A) (A) (A) (A)
                 (A) (A) (A) (A) (A) (A) (A) (A) (A) (A) (A) (A)
                 (A) (A) (A) (A) (A) (A) (A) (A) (A) (A) (A) (A)
                 (A) (A) (A) (A) (A) (A) (A) (A) (A) (A) (A) (A)
                 (A) (A) (A) (A) (A) (A) (A) (A) (A) (A) (A) (A)
                 (A) (A) (A) (A) (A) (A) (A) (A) (A) (A) (A) (A)
                 (A) (A) (A) (A) (A) (A) (A) (A) (A) (A) (A) (A)
                 (A) (A) (A) (A) (A) (A) (A) (A) (A) (A) (A) (A)
                 (A) (A) (A) (A) (A) (A) (A) (A) (A) (A) (A) (A)
                 (A) (A) (A) (A) (A) (A) (A) (A) (A) (A) (A) (A)
                 (A) (A) (A) (A) (A) (A) (A) (A) (A) (A) (A) (A)
                 (A) (A) (A) (A) (A) (A) (A) (A) (A) (A) (A) (A)
                 (A) (A) (A) (A) (A) (A) (A) (A) (A) (A) (A) (A)
                 (A) (A) (A) (A) (A) (A) (A) (A) (A) (A) (A) (A)
                 (A) (A) (A) (A) (A) (A) (A) (A) (A) (A) (A) (A)
                 (A) (A) (A) (A) (A) (A) (A) (A) (A) (A) (A) (A)
                 (A) (A) (A) (A) (A) (A) (A) (A) (A) (A) (A) (A)
                 (A) (A) (A) (A) (A) (A) (A) (A) (A) (A) (A) (A)
                 (A) (A) (A) (A) (A) (A) (A) (A) (A)
 The electronic state is 1-A.
 Alpha  occ. eigenvalues --  -10.63160 -10.63040 -10.62865 -10.61298  -0.92072
 Alpha  occ. eigenvalues --   -0.84288  -0.70007  -0.64668  -0.54626  -0.52830
 Alpha  occ. eigenvalues --   -0.47400  -0.45440  -0.41511  -0.36760  -0.27303
 Alpha virt. eigenvalues --    0.00863   0.06874   0.07586   0.07887   0.08852
 Alpha virt. eigenvalues --    0.11855   0.12239   0.14723   0.15384   0.16032
 Alpha virt. eigenvalues --    0.19135   0.20036   0.20782   0.22600   0.24064
 Alpha virt. eigenvalues --    0.26099   0.26789   0.28507   0.31239   0.32018
 Alpha virt. eigenvalues --    0.33840   0.36109   0.37035   0.37708   0.40198
 Alpha virt. eigenvalues --    0.41676   0.43046   0.44378   0.45983   0.46564
 Alpha virt. eigenvalues --    0.47666   0.50003   0.53327   0.55489   0.57734
 Alpha virt. eigenvalues --    0.59126   0.61613   0.64253   0.66842   0.67495
 Alpha virt. eigenvalues --    0.68935   0.70170   0.75478   0.76295   0.77741
 Alpha virt. eigenvalues --    0.79684   0.79989   0.80872   0.82843   0.83231
 Alpha virt. eigenvalues --    0.84931   0.85841   0.86640   0.88304   0.89301
 Alpha virt. eigenvalues --    0.91681   0.92745   0.93857   0.95219   0.95635
 Alpha virt. eigenvalues --    0.97195   0.99161   1.00097   1.01611   1.03437
 Alpha virt. eigenvalues --    1.05766   1.06804   1.08582   1.10490   1.12198
 Alpha virt. eigenvalues --    1.13744   1.15964   1.17189   1.21385   1.22838
 Alpha virt. eigenvalues --    1.23997   1.26350   1.30842   1.33756   1.34521
 Alpha virt. eigenvalues --    1.37581   1.43147   1.46840   1.48544   1.58343
 Alpha virt. eigenvalues --    1.61198   1.64362   1.67894   1.72414   1.75340
 Alpha virt. eigenvalues --    1.78550   1.81911   1.82525   1.84207   1.88805
 Alpha virt. eigenvalues --    1.89178   1.90166   1.91084   1.93811   1.94320
 Alpha virt. eigenvalues --    1.95769   1.98755   2.00052   2.01220   2.02330
 Alpha virt. eigenvalues --    2.02852   2.04684   2.06595   2.06910   2.08377
 Alpha virt. eigenvalues --    2.10041   2.12384   2.12865   2.15344   2.17474
 Alpha virt. eigenvalues --    2.18723   2.19794   2.24555   2.25380   2.26576
 Alpha virt. eigenvalues --    2.30190   2.32323   2.35180   2.36507   2.40531
 Alpha virt. eigenvalues --    2.41961   2.42756   2.46670   2.47991   2.49558
 Alpha virt. eigenvalues --    2.52322   2.53975   2.54914   2.56511   2.59184
 Alpha virt. eigenvalues --    2.59280   2.60164   2.61852   2.62255   2.64082
 Alpha virt. eigenvalues --    2.67161   2.67951   2.70100   2.70813   2.71656
 Alpha virt. eigenvalues --    2.73451   2.75070   2.77521   2.78108   2.79586
 Alpha virt. eigenvalues --    2.83147   2.84921   2.87960   2.89600   2.91050
 Alpha virt. eigenvalues --    2.92126   3.00949   3.03101   3.07123   3.08792
 Alpha virt. eigenvalues --    3.09158   3.15844   3.16947   3.28889   3.31349
 Alpha virt. eigenvalues --    3.33031   3.34018   3.40678   3.44357   3.46097
 Alpha virt. eigenvalues --    3.47483   3.49784   3.50350   3.52892   3.56715
 Alpha virt. eigenvalues --    3.58039   3.61378   3.62903   3.68530   3.74612
 Alpha virt. eigenvalues --    3.76608   3.78904   3.82066   3.84993   3.91593
 Alpha virt. eigenvalues --    3.91964   3.96726   4.01880   4.04665   4.12715
 Alpha virt. eigenvalues --    4.14309   4.14675   4.19115   4.27839   4.31203
 Alpha virt. eigenvalues --    4.45720   4.53204   4.57590   4.73378   4.95809
 Alpha virt. eigenvalues --    4.98128   5.02346   5.04342   5.07166   5.11037
 Alpha virt. eigenvalues --    5.12307   5.17116   5.18436   5.26269   5.31163
 Alpha virt. eigenvalues --    5.32754   5.35903   5.37573   5.40610   5.45757
 Alpha virt. eigenvalues --    5.54104   5.57171   5.59907   5.60789   5.63607
 Alpha virt. eigenvalues --    5.67205   5.68379   5.70966   5.71718   5.75860
 Alpha virt. eigenvalues --    5.78396   5.79662   5.84870   5.85590   5.87089
 Alpha virt. eigenvalues --    5.87923   5.89165   5.93954   5.98100   6.00617
 Alpha virt. eigenvalues --    6.03490   6.05605   6.07830   6.09831   6.10840
 Alpha virt. eigenvalues --    6.14891   6.15007   6.16008   6.16568   6.20067
 Alpha virt. eigenvalues --    6.21530   6.22826   6.26248   6.29055   6.29643
 Alpha virt. eigenvalues --    6.30579   6.32751   6.35208   6.37175   6.40898
 Alpha virt. eigenvalues --    6.41326   6.43519   6.45891   6.47715   6.49673
 Alpha virt. eigenvalues --    6.53033   6.53318   6.53853   6.57814   6.59281
 Alpha virt. eigenvalues --    6.61140   6.61721   6.70535   6.74063   6.76864
 Alpha virt. eigenvalues --    6.79225   6.80503   6.84245   6.87411   6.88755
 Alpha virt. eigenvalues --    6.91654   6.94989   6.98740   7.01667   7.06716
 Alpha virt. eigenvalues --    7.09379   7.10859   7.13555   7.16556   7.19005
 Alpha virt. eigenvalues --    7.20490   7.26132   7.32748   7.36786   7.39221
 Alpha virt. eigenvalues --    7.41826   7.44622   7.52698   7.55529   7.57332
 Alpha virt. eigenvalues --    7.59971   7.63375   7.64212   7.65533   7.67353
 Alpha virt. eigenvalues --    7.70607   7.70874   7.73272   7.75020   7.76407
 Alpha virt. eigenvalues --    7.78853   7.82693   7.85914   7.89322   7.92317
 Alpha virt. eigenvalues --    7.94244   7.96465   8.01408   8.02383   8.07517
 Alpha virt. eigenvalues --    8.08578   8.10082   8.13742   8.16338   8.17720
 Alpha virt. eigenvalues --    8.22367   8.23246   8.27247   8.29916   8.30885
 Alpha virt. eigenvalues --    8.34493   8.36272   8.40179   8.41706   8.43796
 Alpha virt. eigenvalues --    8.45905   8.49842   8.52332   8.52949   8.56595
 Alpha virt. eigenvalues --    8.58900   8.60454   8.62374   8.65816   8.68209
 Alpha virt. eigenvalues --    8.69153   8.71564   8.76086   8.77210   8.81047
 Alpha virt. eigenvalues --    8.86665   8.92583   8.96799   9.01522   9.04251
 Alpha virt. eigenvalues --    9.17722   9.20687   9.24156   9.32064   9.39063
 Alpha virt. eigenvalues --    9.44476   9.56912   9.69409   9.70619   9.74603
 Alpha virt. eigenvalues --    9.84110   9.91186   9.93486   9.97984  10.04464
 Alpha virt. eigenvalues --   10.10271  10.18537  10.28112  10.38468  10.40662
 Alpha virt. eigenvalues --   10.43876  10.49388  10.51535  10.60664  10.67828
 Alpha virt. eigenvalues --   10.81059  10.97353  11.49487  11.62712  11.78922
 Alpha virt. eigenvalues --   11.89741  12.66006  12.89181  13.00411  13.21212
 Alpha virt. eigenvalues --   28.73511  28.79414  29.31251  29.46629 148.32313
 Alpha virt. eigenvalues --  148.39243 148.90074 149.06316
          Condensed to atoms (all electrons):
               1          2          3          4          5          6
     1  C    4.861381   0.595269  -0.077023  -0.000325   0.424602   0.428729
     2  C    0.595269   4.862158   0.405881  -0.084275  -0.051830  -0.048192
     3  C   -0.077023   0.405881   4.848983   0.610343   0.008334  -0.007062
     4  C   -0.000325  -0.084275   0.610343   4.844370  -0.000908   0.000306
     5  H    0.424602  -0.051830   0.008334  -0.000908   0.588522  -0.040258
     6  H    0.428729  -0.048192  -0.007062   0.000306  -0.040258   0.587816
     7  H   -0.047263   0.403493  -0.053548   0.000395  -0.010698   0.007597
     8  H   -0.001639  -0.060305   0.411983  -0.039404  -0.000013   0.004595
     9  H    0.000256  -0.005258  -0.042474   0.423082  -0.000043   0.000049
    10  H   -0.000631   0.007438  -0.042660   0.414408   0.000038  -0.000043
               7          8          9         10
     1  C   -0.047263  -0.001639   0.000256  -0.000631
     2  C    0.403493  -0.060305  -0.005258   0.007438
     3  C   -0.053548   0.411983  -0.042474  -0.042660
     4  C    0.000395  -0.039404   0.423082   0.414408
     5  H   -0.010698  -0.000013  -0.000043   0.000038
     6  H    0.007597   0.004595   0.000049  -0.000043
     7  H    0.634837   0.006072   0.003357  -0.000119
     8  H    0.006072   0.603933   0.005769  -0.006519
     9  H    0.003357   0.005769   0.578093  -0.042671
    10  H   -0.000119  -0.006519  -0.042671   0.592227
 Mulliken charges:
               1
     1  C   -0.183357
     2  C   -0.024379
     3  C   -0.062758
     4  C   -0.167993
     5  H    0.082252
     6  H    0.066463
     7  H    0.055875
     8  H    0.075528
     9  H    0.079839
    10  H    0.078531
 Sum of Mulliken charges =   0.00000
 Mulliken charges with hydrogens summed into heavy atoms:
               1
     1  C   -0.034642
     2  C    0.031496
     3  C    0.012770
     4  C   -0.009624
 Electronic spatial extent (au):  <R**2>=            341.9167
 Charge=              0.0000 electrons
 Dipole moment (field-independent basis, Debye):
    X=             -0.1406    Y=              0.0094    Z=             -0.0877  Tot=              0.1660
 Quadrupole moment (field-independent basis, Debye-Ang):
   XX=            -24.2948   YY=            -22.8110   ZZ=            -29.4645
   XY=             -0.2262   XZ=             -0.8713   YZ=             -0.1478
 Traceless Quadrupole moment (field-independent basis, Debye-Ang):
   XX=              1.2286   YY=              2.7124   ZZ=             -3.9410
   XY=             -0.2262   XZ=             -0.8713   YZ=             -0.1478
 Octapole moment (field-independent basis, Debye-Ang**2):
  XXX=             -2.9181  YYY=             -0.0157  ZZZ=             -0.1899  XYY=              0.5078
  XXY=              0.4464  XXZ=             -0.7974  XZZ=              0.1302  YZZ=              0.0133
  YYZ=              0.1307  XYZ=             -1.2884
 Hexadecapole moment (field-independent basis, Debye-Ang**3):
 XXXX=           -364.9256 YYYY=            -64.8696 ZZZZ=            -38.9279 XXXY=              5.3040
 XXXZ=             -6.4638 YYYX=             -2.3675 YYYZ=             -0.3909 ZZZX=             -1.6174
 ZZZY=             -0.1347 XXYY=            -68.7271 XXZZ=            -79.3965 YYZZ=            -19.4369
 XXYZ=             -0.4142 YYXZ=             -1.1249 ZZXY=             -0.7575
 N-N= 1.026093276686D+02 E-N=-5.659621531891D+02  KE= 1.549514459939D+02
 Leave Link  601 at Wed Aug 26 16:07:01 2020, MaxMem=  2097152000 cpu:         0.7
 (Enter /opt/cluster/programs/g09/g09_d.01/g09/l9999.exe)
 1\1\GINC-NODE34\SP\RB2PLYPD3-FC\def2QZVP\C4H6\BOITTIER\26-Aug-2020\0\\
 #p B2PLYPD3/Def2QZVP\\butadiene\\0,1\C,0,-3.864815,0.2399,0.098349\C,0
 ,-2.738896,-0.514623,-0.012645\C,0,-1.375242,0.089295,-0.081947\C,0,-0
 .234044,-0.66601,0.090927\H,0,-4.742599,-0.327613,-0.153191\H,0,-3.788
 871,1.297655,0.108783\H,0,-2.868343,-1.60615,-0.07301\H,0,-1.389421,1.
 109883,-0.037489\H,0,-0.247,-1.711264,0.264157\H,0,0.780504,-0.152437,
 0.048328\\Version=ES64L-G09RevD.01\State=1-A\HF=-155.6806576\MP2=-155.
 9084318\RMSD=4.837e-09\PG=C01 [X(C4H6)]\\@


 YOU ARE IN A MAZE OF TWISTY LITTLE PASSAGES.
 Job cpu time:       0 days  0 hours 37 minutes 20.8 seconds.
 File lengths (MBytes):  RWF=     92 Int=      0 D2E=      0 Chk=      9 Scr=      1
 Normal termination of Gaussian 09 at Wed Aug 26 16:07:01 2020.
