 Entering Gaussian System, Link 0=/opt/cluster/programs/g09/g09_d.01/g09//g09
 Input=/home/boittier/MDCM/nms_sampling/butadiene_geom.xyz.dir/energies/butadiene_2740_energy.com
 Output=/scratch/boittier/butadiene_2740_energy/butadiene_2740_energy.out
 Initial command:
 /opt/cluster/programs/g09/g09_d.01/g09/l1.exe "/scratch/boittier/butadiene_2740_energy/Gau-147047.inp" -scrdir="/scratch/boittier/butadiene_2740_energy/"
 Entering Link 1 = /opt/cluster/programs/g09/g09_d.01/g09/l1.exe PID=    147048.
  
 Copyright (c) 1988,1990,1992,1993,1995,1998,2003,2009,2013,
            Gaussian, Inc.  All Rights Reserved.
  
 This is part of the Gaussian(R) 09 program.  It is based on
 the Gaussian(R) 03 system (copyright 2003, Gaussian, Inc.),
 the Gaussian(R) 98 system (copyright 1998, Gaussian, Inc.),
 the Gaussian(R) 94 system (copyright 1995, Gaussian, Inc.),
 the Gaussian 92(TM) system (copyright 1992, Gaussian, Inc.),
 the Gaussian 90(TM) system (copyright 1990, Gaussian, Inc.),
 the Gaussian 88(TM) system (copyright 1988, Gaussian, Inc.),
 the Gaussian 86(TM) system (copyright 1986, Carnegie Mellon
 University), and the Gaussian 82(TM) system (copyright 1983,
 Carnegie Mellon University). Gaussian is a federally registered
 trademark of Gaussian, Inc.
  
 This software contains proprietary and confidential information,
 including trade secrets, belonging to Gaussian, Inc.
  
 This software is provided under written license and may be
 used, copied, transmitted, or stored only in accord with that
 written license.
  
 The following legend is applicable only to US Government
 contracts under FAR:
  
                    RESTRICTED RIGHTS LEGEND
  
 Use, reproduction and disclosure by the US Government is
 subject to restrictions as set forth in subparagraphs (a)
 and (c) of the Commercial Computer Software - Restricted
 Rights clause in FAR 52.227-19.
  
 Gaussian, Inc.
 340 Quinnipiac St., Bldg. 40, Wallingford CT 06492
  
  
 ---------------------------------------------------------------
 Warning -- This program may not be used in any manner that
 competes with the business of Gaussian, Inc. or will provide
 assistance to any competitor of Gaussian, Inc.  The licensee
 of this program is prohibited from giving any competitor of
 Gaussian, Inc. access to this program.  By using this program,
 the user acknowledges that Gaussian, Inc. is engaged in the
 business of creating and licensing software in the field of
 computational chemistry and represents and warrants to the
 licensee that it is not a competitor of Gaussian, Inc. and that
 it will not use this program in any manner prohibited above.
 ---------------------------------------------------------------
  

 Cite this work as:
 Gaussian 09, Revision D.01,
 M. J. Frisch, G. W. Trucks, H. B. Schlegel, G. E. Scuseria, 
 M. A. Robb, J. R. Cheeseman, G. Scalmani, V. Barone, B. Mennucci, 
 G. A. Petersson, H. Nakatsuji, M. Caricato, X. Li, H. P. Hratchian, 
 A. F. Izmaylov, J. Bloino, G. Zheng, J. L. Sonnenberg, M. Hada, 
 M. Ehara, K. Toyota, R. Fukuda, J. Hasegawa, M. Ishida, T. Nakajima, 
 Y. Honda, O. Kitao, H. Nakai, T. Vreven, J. A. Montgomery, Jr., 
 J. E. Peralta, F. Ogliaro, M. Bearpark, J. J. Heyd, E. Brothers, 
 K. N. Kudin, V. N. Staroverov, T. Keith, R. Kobayashi, J. Normand, 
 K. Raghavachari, A. Rendell, J. C. Burant, S. S. Iyengar, J. Tomasi, 
 M. Cossi, N. Rega, J. M. Millam, M. Klene, J. E. Knox, J. B. Cross, 
 V. Bakken, C. Adamo, J. Jaramillo, R. Gomperts, R. E. Stratmann, 
 O. Yazyev, A. J. Austin, R. Cammi, C. Pomelli, J. W. Ochterski, 
 R. L. Martin, K. Morokuma, V. G. Zakrzewski, G. A. Voth, 
 P. Salvador, J. J. Dannenberg, S. Dapprich, A. D. Daniels, 
 O. Farkas, J. B. Foresman, J. V. Ortiz, J. Cioslowski, 
 and D. J. Fox, Gaussian, Inc., Wallingford CT, 2013.
 
 ******************************************
 Gaussian 09:  ES64L-G09RevD.01 24-Apr-2013
                26-Aug-2020 
 ******************************************
 %chk=/home/boittier/MDCM/nms_sampling/butadiene_geom.xyz.dir/butadiene_2740.chk
 %nproc=8
 Will use up to    8 processors via shared memory.
 %mem=16000MB
 --------------------
 #p B2PLYPD3/Def2QZVP
 --------------------
 1/38=1/1;
 2/12=2,17=6,18=5,40=1/2;
 3/5=45,7=101,11=9,16=1,25=1,30=1,74=-60/1,2,3;
 4//1;
 5/5=2,38=5/2;
 8/10=1/1;
 9/16=-3/6;
 6/7=2,8=2,9=2,10=2/1;
 99/5=1,9=1/99;
 Leave Link    1 at Wed Aug 26 15:27:52 2020, MaxMem=  2097152000 cpu:         0.2
 (Enter /opt/cluster/programs/g09/g09_d.01/g09/l101.exe)
 ---------
 butadiene
 ---------
 Symbolic Z-matrix:
 Charge =  0 Multiplicity = 1
 C                    -3.87103   0.18913  -0.03969 
 C                    -2.73608  -0.4649    0.14154 
 C                    -1.36382   0.09852   0.06991 
 C                    -0.254    -0.67724  -0.00748 
 H                    -4.89606  -0.30469  -0.22444 
 H                    -3.72475   1.29019  -0.0981 
 H                    -2.68378  -1.49516  -0.00923 
 H                    -1.31097   1.22339   0.00443 
 H                    -0.27609  -1.76117  -0.11202 
 H                     0.77728  -0.26755  -0.21887 
 
 NAtoms=     10 NQM=       10 NQMF=       0 NMMI=      0 NMMIF=      0
                NMic=       0 NMicF=      0.
                    Isotopes and Nuclear Properties:
 (Nuclear quadrupole moments (NQMom) in fm**2, nuclear magnetic moments (NMagM)
  in nuclear magnetons)

  Atom         1           2           3           4           5           6           7           8           9          10
 IAtWgt=          12          12          12          12           1           1           1           1           1           1
 AtmWgt=  12.0000000  12.0000000  12.0000000  12.0000000   1.0078250   1.0078250   1.0078250   1.0078250   1.0078250   1.0078250
 NucSpn=           0           0           0           0           1           1           1           1           1           1
 AtZEff=   0.0000000   0.0000000   0.0000000   0.0000000   0.0000000   0.0000000   0.0000000   0.0000000   0.0000000   0.0000000
 NQMom=    0.0000000   0.0000000   0.0000000   0.0000000   0.0000000   0.0000000   0.0000000   0.0000000   0.0000000   0.0000000
 NMagM=    0.0000000   0.0000000   0.0000000   0.0000000   2.7928460   2.7928460   2.7928460   2.7928460   2.7928460   2.7928460
 AtZNuc=   6.0000000   6.0000000   6.0000000   6.0000000   1.0000000   1.0000000   1.0000000   1.0000000   1.0000000   1.0000000
 Leave Link  101 at Wed Aug 26 15:27:52 2020, MaxMem=  2097152000 cpu:         0.5
 (Enter /opt/cluster/programs/g09/g09_d.01/g09/l202.exe)
                          Input orientation:                          
 ---------------------------------------------------------------------
 Center     Atomic      Atomic             Coordinates (Angstroms)
 Number     Number       Type             X           Y           Z
 ---------------------------------------------------------------------
      1          6           0       -3.871031    0.189133   -0.039693
      2          6           0       -2.736083   -0.464896    0.141536
      3          6           0       -1.363820    0.098522    0.069905
      4          6           0       -0.254003   -0.677236   -0.007480
      5          1           0       -4.896059   -0.304689   -0.224436
      6          1           0       -3.724746    1.290189   -0.098099
      7          1           0       -2.683776   -1.495161   -0.009228
      8          1           0       -1.310971    1.223393    0.004432
      9          1           0       -0.276091   -1.761169   -0.112020
     10          1           0        0.777276   -0.267553   -0.218868
 ---------------------------------------------------------------------
                    Distance matrix (angstroms):
                    1          2          3          4          5
     1  C    0.000000
     2  C    1.322386   0.000000
     3  C    2.511241   1.485152   0.000000
     4  C    3.719479   2.495599   1.356275   0.000000
     5  H    1.152681   2.196611   3.567342   4.662032   0.000000
     6  H    1.112266   2.028596   2.649956   3.990618   1.982819
     7  H    2.060910   1.042551   2.070838   2.563747   2.521455
     8  H    2.761439   2.213608   1.128014   2.174791   3.903879
     9  H    4.090538   2.792163   2.162106   1.089187   4.845418
    10  H    4.674123   3.537305   2.191277   1.129629   5.673459
                    6          7          8          9         10
     6  H    0.000000
     7  H    2.974843   0.000000
     8  H    2.416875   3.045540   0.000000
     9  H    4.604802   2.424515   3.161036   0.000000
    10  H    4.765433   3.678295   2.575570   1.830816   0.000000
 Stoichiometry    C4H6
 Framework group  C1[X(C4H6)]
 Deg. of freedom    24
 Full point group                 C1      NOp   1
 Largest Abelian subgroup         C1      NOp   1
 Largest concise Abelian subgroup C1      NOp   1
                         Standard orientation:                         
 ---------------------------------------------------------------------
 Center     Atomic      Atomic             Coordinates (Angstroms)
 Number     Number       Type             X           Y           Z
 ---------------------------------------------------------------------
      1          6           0        1.864869    0.078283    0.048256
      2          6           0        0.632613   -0.367824   -0.128493
      3          6           0       -0.619459    0.428113   -0.061589
      4          6           0       -1.848082   -0.140318    0.021190
      5          1           0        2.787543   -0.586318    0.237069
      6          1           0        1.914067    1.188329    0.098364
      7          1           0        0.400520   -1.371785    0.029960
      8          1           0       -0.474088    1.545266   -0.004557
      9          1           0       -2.016393   -1.210508    0.133849
     10          1           0       -2.791296    0.445492    0.229124
 ---------------------------------------------------------------------
 Rotational constants (GHZ):     41.1379355      4.3420005      3.9522988
 Leave Link  202 at Wed Aug 26 15:27:52 2020, MaxMem=  2097152000 cpu:         0.0
 (Enter /opt/cluster/programs/g09/g09_d.01/g09/l301.exe)
 Standard basis: def2QZVP (5D, 7F)
 Ernie: Thresh=  0.10000D-02 Tol=  0.10000D-05 Strict=F.
 There are   498 symmetry adapted cartesian basis functions of A   symmetry.
 There are   408 symmetry adapted basis functions of A   symmetry.
   408 basis functions,   596 primitive gaussians,   498 cartesian basis functions
    15 alpha electrons       15 beta electrons
       nuclear repulsion energy       102.7907655095 Hartrees.
 IExCor=  419 DFT=T Ex+Corr=B2PLYPD3 ExCW=0 ScaHFX=  0.530000
 ScaDFX=  0.470000  0.470000  0.730000  0.730000 ScalE2=  0.270000  0.270000
 IRadAn=      0 IRanWt=     -1 IRanGd=            0 ICorTp=0 IEmpDi=141
 NAtoms=   10 NActive=   10 NUniq=   10 SFac= 1.00D+00 NAtFMM=   60 NAOKFM=F Big=F
 Integral buffers will be    131072 words long.
 Regular integral format.
 Two-electron integral symmetry is turned on.
 R6Disp:  Grimme-D3(BJ) Dispersion energy=       -0.0048113522 Hartrees.
 Nuclear repulsion after empirical dispersion term =      102.7859541574 Hartrees.
 Leave Link  301 at Wed Aug 26 15:27:52 2020, MaxMem=  2097152000 cpu:         0.4
 (Enter /opt/cluster/programs/g09/g09_d.01/g09/l302.exe)
 NPDir=0 NMtPBC=     1 NCelOv=     1 NCel=       1 NClECP=     1 NCelD=      1
         NCelK=      1 NCelE2=     1 NClLst=     1 CellRange=     0.0.
 One-electron integrals computed using PRISM.
   1 Symmetry operations used in ECPInt.
 ECPInt:  NShTT=    8256 NPrTT=   19107 LenC2=    8050 LenP2D=   16081.
 LDataN:  DoStor=T MaxTD1= 8 Len=  415
 NBasis=   408 RedAO= T EigKep=  4.96D-05  NBF=   408
 NBsUse=   408 1.00D-06 EigRej= -1.00D+00 NBFU=   408
 Precomputing XC quadrature grid using
 IXCGrd= 4 IRadAn=           0 IRanWt=          -1 IRanGd=           0 AccXCQ= 0.00D+00.
 Generated NRdTot=       0 NPtTot=           0 NUsed=           0 NTot=          32
 NSgBfM=   498   498   498   498   498 MxSgAt=    10 MxSgA2=    10.
 Leave Link  302 at Wed Aug 26 15:27:53 2020, MaxMem=  2097152000 cpu:         3.7
 (Enter /opt/cluster/programs/g09/g09_d.01/g09/l303.exe)
 DipDrv:  MaxL=1.
 Leave Link  303 at Wed Aug 26 15:27:53 2020, MaxMem=  2097152000 cpu:         0.4
 (Enter /opt/cluster/programs/g09/g09_d.01/g09/l401.exe)
 ExpMin= 7.60D-02 ExpMax= 6.70D+04 ExpMxC= 6.47D+02 IAcc=2 IRadAn=         4 AccDes= 0.00D+00
 Harris functional with IExCor=  419 and IRadAn=       4 diagonalized for initial guess.
 HarFok:  IExCor=  419 AccDes= 0.00D+00 IRadAn=         4 IDoV= 1 UseB2=F ITyADJ=14
 ICtDFT=  3500011 ScaDFX=  1.000000  1.000000  1.000000  1.000000
 FoFCou: FMM=F IPFlag=           0 FMFlag=      100000 FMFlg1=           0
         NFxFlg=           0 DoJE=T BraDBF=F KetDBF=T FulRan=T
         wScrn=  0.000000 ICntrl=     500 IOpCl=  0 I1Cent=   200000004 NGrid=           0
         NMat0=    1 NMatS0=      1 NMatT0=    0 NMatD0=    1 NMtDS0=    0 NMtDT0=    0
 Petite list used in FoFCou.
 Harris En= -156.106652449385    
 JPrj=0 DoOrth=F DoCkMO=F.
 Leave Link  401 at Wed Aug 26 15:27:54 2020, MaxMem=  2097152000 cpu:         9.6
 (Enter /opt/cluster/programs/g09/g09_d.01/g09/l502.exe)
 Closed shell SCF:
 Using DIIS extrapolation, IDIIS=  1040.
 Integral symmetry usage will be decided dynamically.
 IVT=      770090 IEndB=      770090 NGot=  2097152000 MDV=  2096647053
 LenX=  2096647053 LenY=  2096398551
 Requested convergence on RMS density matrix=1.00D-08 within 128 cycles.
 Requested convergence on MAX density matrix=1.00D-06.
 Requested convergence on             energy=1.00D-06.
 No special actions if energy rises.
 Fock matrices will be formed incrementally for  20 cycles.
 Integral accuracy reduced to 1.0D-05 until final iterations.

 Cycle   1  Pass 0  IDiag  1:
 FoFJK:  IHMeth= 1 ICntrl=       0 DoSepK=F KAlg= 0 I1Cent=   0 FoldK=F
 IRaf= 940000000 NMat=   1 IRICut=       1 DoRegI=T DoRafI=F ISym2E= 0.
 FoFCou: FMM=F IPFlag=           0 FMFlag=      100000 FMFlg1=           0
         NFxFlg=           0 DoJE=F BraDBF=F KetDBF=F FulRan=T
         wScrn=  0.000000 ICntrl=       0 IOpCl=  0 I1Cent=           0 NGrid=           0
         NMat0=    1 NMatS0=      1 NMatT0=    0 NMatD0=    1 NMtDS0=    0 NMtDT0=    0
 Symmetry not used in FoFCou.
 E= -155.502209684511    
 DIIS: error= 2.98D-02 at cycle   1 NSaved=   1.
 NSaved= 1 IEnMin= 1 EnMin= -155.502209684511     IErMin= 1 ErrMin= 2.98D-02
 ErrMax= 2.98D-02  0.00D+00 EMaxC= 1.00D-01 BMatC= 2.42D-01 BMatP= 2.42D-01
 IDIUse=3 WtCom= 7.02D-01 WtEn= 2.98D-01
 Coeff-Com:  0.100D+01
 Coeff-En:   0.100D+01
 Coeff:      0.100D+01
 Gap=     0.298 Goal=   None    Shift=    0.000
 GapD=    0.298 DampG=1.000 DampE=0.500 DampFc=0.5000 IDamp=-1.
 Damping current iteration by 5.00D-01
 RMSDP=9.54D-04 MaxDP=5.26D-02              OVMax= 1.88D-01

 Cycle   2  Pass 0  IDiag  1:
 RMSU=  4.40D-04    CP:  9.51D-01
 E= -155.596167115034     Delta-E=       -0.093957430523 Rises=F Damp=T
 DIIS: error= 1.19D-02 at cycle   2 NSaved=   2.
 NSaved= 2 IEnMin= 2 EnMin= -155.596167115034     IErMin= 2 ErrMin= 1.19D-02
 ErrMax= 1.19D-02  0.00D+00 EMaxC= 1.00D-01 BMatC= 2.89D-02 BMatP= 2.42D-01
 IDIUse=3 WtCom= 8.81D-01 WtEn= 1.19D-01
 Coeff-Com: -0.290D+00 0.129D+01
 Coeff-En:   0.000D+00 0.100D+01
 Coeff:     -0.256D+00 0.126D+01
 Gap=     0.357 Goal=   None    Shift=    0.000
 RMSDP=2.90D-04 MaxDP=1.10D-02 DE=-9.40D-02 OVMax= 9.45D-02

 Cycle   3  Pass 0  IDiag  1:
 RMSU=  2.82D-04    CP:  9.34D-01  1.02D+00
 E= -155.678199404391     Delta-E=       -0.082032289357 Rises=F Damp=F
 DIIS: error= 4.12D-03 at cycle   3 NSaved=   3.
 NSaved= 3 IEnMin= 3 EnMin= -155.678199404391     IErMin= 3 ErrMin= 4.12D-03
 ErrMax= 4.12D-03  0.00D+00 EMaxC= 1.00D-01 BMatC= 2.10D-03 BMatP= 2.89D-02
 IDIUse=3 WtCom= 9.59D-01 WtEn= 4.12D-02
 Coeff-Com: -0.118D+00 0.239D+00 0.879D+00
 Coeff-En:   0.000D+00 0.000D+00 0.100D+01
 Coeff:     -0.114D+00 0.230D+00 0.884D+00
 Gap=     0.294 Goal=   None    Shift=    0.000
 RMSDP=7.41D-05 MaxDP=4.55D-03 DE=-8.20D-02 OVMax= 2.44D-02

 Cycle   4  Pass 0  IDiag  1:
 RMSU=  5.48D-05    CP:  9.29D-01  1.12D+00  9.41D-01
 E= -155.679838677884     Delta-E=       -0.001639273493 Rises=F Damp=F
 DIIS: error= 2.17D-03 at cycle   4 NSaved=   4.
 NSaved= 4 IEnMin= 4 EnMin= -155.679838677884     IErMin= 4 ErrMin= 2.17D-03
 ErrMax= 2.17D-03  0.00D+00 EMaxC= 1.00D-01 BMatC= 6.73D-04 BMatP= 2.10D-03
 IDIUse=3 WtCom= 9.78D-01 WtEn= 2.17D-02
 Coeff-Com: -0.544D-01 0.896D-01 0.474D+00 0.491D+00
 Coeff-En:   0.000D+00 0.000D+00 0.135D+00 0.865D+00
 Coeff:     -0.532D-01 0.877D-01 0.467D+00 0.499D+00
 Gap=     0.294 Goal=   None    Shift=    0.000
 RMSDP=3.08D-05 MaxDP=1.50D-03 DE=-1.64D-03 OVMax= 9.09D-03

 Cycle   5  Pass 0  IDiag  1:
 RMSU=  1.71D-05    CP:  9.30D-01  1.11D+00  9.88D-01  6.09D-01
 E= -155.680487635276     Delta-E=       -0.000648957392 Rises=F Damp=F
 DIIS: error= 2.20D-04 at cycle   5 NSaved=   5.
 NSaved= 5 IEnMin= 5 EnMin= -155.680487635276     IErMin= 5 ErrMin= 2.20D-04
 ErrMax= 2.20D-04  0.00D+00 EMaxC= 1.00D-01 BMatC= 4.19D-06 BMatP= 6.73D-04
 IDIUse=3 WtCom= 9.98D-01 WtEn= 2.20D-03
 Coeff-Com: -0.296D-02 0.257D-02 0.357D-01 0.890D-01 0.876D+00
 Coeff-En:   0.000D+00 0.000D+00 0.000D+00 0.000D+00 0.100D+01
 Coeff:     -0.295D-02 0.256D-02 0.356D-01 0.888D-01 0.876D+00
 Gap=     0.295 Goal=   None    Shift=    0.000
 RMSDP=4.74D-06 MaxDP=1.31D-04 DE=-6.49D-04 OVMax= 1.20D-03

 Initial convergence to 1.0D-05 achieved.  Increase integral accuracy.
 Cycle   6  Pass 1  IDiag  1:
 E= -155.680488005950     Delta-E=       -0.000000370674 Rises=F Damp=F
 DIIS: error= 4.52D-05 at cycle   1 NSaved=   1.
 NSaved= 1 IEnMin= 1 EnMin= -155.680488005950     IErMin= 1 ErrMin= 4.52D-05
 ErrMax= 4.52D-05  0.00D+00 EMaxC= 1.00D-01 BMatC= 5.51D-07 BMatP= 5.51D-07
 IDIUse=1 WtCom= 1.00D+00 WtEn= 0.00D+00
 Coeff-Com:  0.100D+01
 Coeff:      0.100D+01
 Gap=     0.295 Goal=   None    Shift=    0.000
 RMSDP=4.74D-06 MaxDP=1.31D-04 DE=-3.71D-07 OVMax= 4.34D-04

 Cycle   7  Pass 1  IDiag  1:
 RMSU=  1.89D-05    CP:  1.00D+00
 E= -155.680488354395     Delta-E=       -0.000000348445 Rises=F Damp=F
 DIIS: error= 3.84D-05 at cycle   2 NSaved=   2.
 NSaved= 2 IEnMin= 2 EnMin= -155.680488354395     IErMin= 2 ErrMin= 3.84D-05
 ErrMax= 3.84D-05  0.00D+00 EMaxC= 1.00D-01 BMatC= 1.63D-07 BMatP= 5.51D-07
 IDIUse=1 WtCom= 1.00D+00 WtEn= 0.00D+00
 Coeff-Com:  0.297D+00 0.703D+00
 Coeff:      0.297D+00 0.703D+00
 Gap=     0.295 Goal=   None    Shift=    0.000
 RMSDP=9.12D-07 MaxDP=3.92D-05 DE=-3.48D-07 OVMax= 2.17D-04

 Cycle   8  Pass 1  IDiag  1:
 RMSU=  7.49D-07    CP:  1.00D+00  1.03D+00
 E= -155.680488476859     Delta-E=       -0.000000122465 Rises=F Damp=F
 DIIS: error= 1.96D-05 at cycle   3 NSaved=   3.
 NSaved= 3 IEnMin= 3 EnMin= -155.680488476859     IErMin= 3 ErrMin= 1.96D-05
 ErrMax= 1.96D-05  0.00D+00 EMaxC= 1.00D-01 BMatC= 4.16D-08 BMatP= 1.63D-07
 IDIUse=1 WtCom= 1.00D+00 WtEn= 0.00D+00
 Coeff-Com: -0.154D-01 0.325D+00 0.690D+00
 Coeff:     -0.154D-01 0.325D+00 0.690D+00
 Gap=     0.295 Goal=   None    Shift=    0.000
 RMSDP=4.93D-07 MaxDP=1.80D-05 DE=-1.22D-07 OVMax= 1.20D-04

 Cycle   9  Pass 1  IDiag  1:
 RMSU=  3.74D-07    CP:  1.00D+00  1.04D+00  9.17D-01
 E= -155.680488520367     Delta-E=       -0.000000043507 Rises=F Damp=F
 DIIS: error= 3.22D-06 at cycle   4 NSaved=   4.
 NSaved= 4 IEnMin= 4 EnMin= -155.680488520367     IErMin= 4 ErrMin= 3.22D-06
 ErrMax= 3.22D-06  0.00D+00 EMaxC= 1.00D-01 BMatC= 1.22D-09 BMatP= 4.16D-08
 IDIUse=1 WtCom= 1.00D+00 WtEn= 0.00D+00
 Coeff-Com: -0.156D-01 0.725D-01 0.224D+00 0.719D+00
 Coeff:     -0.156D-01 0.725D-01 0.224D+00 0.719D+00
 Gap=     0.295 Goal=   None    Shift=    0.000
 RMSDP=8.81D-08 MaxDP=2.84D-06 DE=-4.35D-08 OVMax= 2.17D-05

 Cycle  10  Pass 1  IDiag  1:
 RMSU=  6.22D-08    CP:  1.00D+00  1.05D+00  9.69D-01  1.10D+00
 E= -155.680488521936     Delta-E=       -0.000000001569 Rises=F Damp=F
 DIIS: error= 9.67D-07 at cycle   5 NSaved=   5.
 NSaved= 5 IEnMin= 5 EnMin= -155.680488521936     IErMin= 5 ErrMin= 9.67D-07
 ErrMax= 9.67D-07  0.00D+00 EMaxC= 1.00D-01 BMatC= 1.64D-10 BMatP= 1.22D-09
 IDIUse=1 WtCom= 1.00D+00 WtEn= 0.00D+00
 Coeff-Com: -0.171D-02-0.397D-01-0.551D-01 0.208D+00 0.888D+00
 Coeff:     -0.171D-02-0.397D-01-0.551D-01 0.208D+00 0.888D+00
 Gap=     0.295 Goal=   None    Shift=    0.000
 RMSDP=4.26D-08 MaxDP=2.48D-06 DE=-1.57D-09 OVMax= 9.40D-06

 Cycle  11  Pass 1  IDiag  1:
 RMSU=  2.40D-08    CP:  1.00D+00  1.05D+00  9.88D-01  1.18D+00  1.05D+00
 E= -155.680488522197     Delta-E=       -0.000000000261 Rises=F Damp=F
 DIIS: error= 2.57D-07 at cycle   6 NSaved=   6.
 NSaved= 6 IEnMin= 6 EnMin= -155.680488522197     IErMin= 6 ErrMin= 2.57D-07
 ErrMax= 2.57D-07  0.00D+00 EMaxC= 1.00D-01 BMatC= 7.49D-12 BMatP= 1.64D-10
 IDIUse=1 WtCom= 1.00D+00 WtEn= 0.00D+00
 Coeff-Com:  0.787D-03-0.165D-01-0.298D-01 0.458D-02 0.226D+00 0.815D+00
 Coeff:      0.787D-03-0.165D-01-0.298D-01 0.458D-02 0.226D+00 0.815D+00
 Gap=     0.295 Goal=   None    Shift=    0.000
 RMSDP=7.46D-09 MaxDP=2.90D-07 DE=-2.61D-10 OVMax= 2.44D-06

 SCF Done:  E(RB2PLYPD3) =  -155.680488522     A.U. after   11 cycles
            NFock= 11  Conv=0.75D-08     -V/T= 2.0054
 KE= 1.548389903259D+02 PE=-5.662239669277D+02 EE= 1.529185339222D+02
 Leave Link  502 at Wed Aug 26 15:30:58 2020, MaxMem=  2097152000 cpu:      1463.7
 (Enter /opt/cluster/programs/g09/g09_d.01/g09/l801.exe)
 DoSCS=T DFT=T ScalE2(SS,OS)=  0.270000  0.270000
 ExpMin= 7.60D-02 ExpMax= 6.70D+04 ExpMxC= 6.47D+02 IAcc=3 IRadAn=         5 AccDes= 0.00D+00
 HarFok:  IExCor=  205 AccDes= 0.00D+00 IRadAn=         5 IDoV=-2 UseB2=F ITyADJ=14
 ICtDFT= 12500011 ScaDFX=  1.000000  1.000000  1.000000  1.000000
 Largest valence mixing into a core orbital is  1.13D-04
 Largest core mixing into a valence orbital is  2.04D-05
 Range of M.O.s used for correlation:     5   408
 NBasis=   408 NAE=    15 NBE=    15 NFC=     4 NFV=     0
 NROrb=    404 NOA=    11 NOB=    11 NVA=   393 NVB=   393

 **** Warning!!: The largest alpha MO coefficient is  0.26900699D+02

 Leave Link  801 at Wed Aug 26 15:30:58 2020, MaxMem=  2097152000 cpu:         1.0
 (Enter /opt/cluster/programs/g09/g09_d.01/g09/l906.exe)
 DoSCS=T DFT=T ScalE2(SS,OS)=  0.270000  0.270000
 FulOut=F Deriv=F AODrv=F NAtomX=    10
   MMem=         881  MDisk=          11 MDiskD=          11
  W3Min=     2152854 MinDsk=     3857222 NBas6D=         498
 NBas2D=      125763    NTT=      124251    LW2=     4508827
    MDV=  2096384716 MDiskM=        9345 NBas2p=      116961
 Fully direct method using O(OVN) memory.
 IMap=   1   2   3   4   5   6   7   8   9  10  11
 JobTyp=1 Pass  1:  I=   1 to  11 NPSUse=  8 ParTrn=T ParDer=T DoDerP=F.
 Spin components of T(2) and E(2):
     alpha-alpha T2 =       0.4301534570D-01 E2=     -0.2557193087D-01
     alpha-beta  T2 =       0.2803190593D+00 E2=     -0.1763755213D+00
     beta-beta   T2 =       0.4301534570D-01 E2=     -0.2557193087D-01
 The integrals were generated   1 times.
 E2(B2PLYPD3) =    -0.2275193830D+00 E(B2PLYPD3) =    -0.15590800790523D+03
 Leave Link  906 at Wed Aug 26 15:33:01 2020, MaxMem=  2097152000 cpu:       978.7
 (Enter /opt/cluster/programs/g09/g09_d.01/g09/l601.exe)
 Copying SCF densities to generalized density rwf, IOpCl= 0 IROHF=0.

 **********************************************************************

            Population analysis using the SCF density.

 **********************************************************************

 Orbital symmetries:
       Occupied  (A) (A) (A) (A) (A) (A) (A) (A) (A) (A) (A) (A)
                 (A) (A) (A)
       Virtual   (A) (A) (A) (A) (A) (A) (A) (A) (A) (A) (A) (A)
                 (A) (A) (A) (A) (A) (A) (A) (A) (A) (A) (A) (A)
                 (A) (A) (A) (A) (A) (A) (A) (A) (A) (A) (A) (A)
                 (A) (A) (A) (A) (A) (A) (A) (A) (A) (A) (A) (A)
                 (A) (A) (A) (A) (A) (A) (A) (A) (A) (A) (A) (A)
                 (A) (A) (A) (A) (A) (A) (A) (A) (A) (A) (A) (A)
                 (A) (A) (A) (A) (A) (A) (A) (A) (A) (A) (A) (A)
                 (A) (A) (A) (A) (A) (A) (A) (A) (A) (A) (A) (A)
                 (A) (A) (A) (A) (A) (A) (A) (A) (A) (A) (A) (A)
                 (A) (A) (A) (A) (A) (A) (A) (A) (A) (A) (A) (A)
                 (A) (A) (A) (A) (A) (A) (A) (A) (A) (A) (A) (A)
                 (A) (A) (A) (A) (A) (A) (A) (A) (A) (A) (A) (A)
                 (A) (A) (A) (A) (A) (A) (A) (A) (A) (A) (A) (A)
                 (A) (A) (A) (A) (A) (A) (A) (A) (A) (A) (A) (A)
                 (A) (A) (A) (A) (A) (A) (A) (A) (A) (A) (A) (A)
                 (A) (A) (A) (A) (A) (A) (A) (A) (A) (A) (A) (A)
                 (A) (A) (A) (A) (A) (A) (A) (A) (A) (A) (A) (A)
                 (A) (A) (A) (A) (A) (A) (A) (A) (A) (A) (A) (A)
                 (A) (A) (A) (A) (A) (A) (A) (A) (A) (A) (A) (A)
                 (A) (A) (A) (A) (A) (A) (A) (A) (A) (A) (A) (A)
                 (A) (A) (A) (A) (A) (A) (A) (A) (A) (A) (A) (A)
                 (A) (A) (A) (A) (A) (A) (A) (A) (A) (A) (A) (A)
                 (A) (A) (A) (A) (A) (A) (A) (A) (A) (A) (A) (A)
                 (A) (A) (A) (A) (A) (A) (A) (A) (A) (A) (A) (A)
                 (A) (A) (A) (A) (A) (A) (A) (A) (A) (A) (A) (A)
                 (A) (A) (A) (A) (A) (A) (A) (A) (A) (A) (A) (A)
                 (A) (A) (A) (A) (A) (A) (A) (A) (A) (A) (A) (A)
                 (A) (A) (A) (A) (A) (A) (A) (A) (A) (A) (A) (A)
                 (A) (A) (A) (A) (A) (A) (A) (A) (A) (A) (A) (A)
                 (A) (A) (A) (A) (A) (A) (A) (A) (A) (A) (A) (A)
                 (A) (A) (A) (A) (A) (A) (A) (A) (A) (A) (A) (A)
                 (A) (A) (A) (A) (A) (A) (A) (A) (A) (A) (A) (A)
                 (A) (A) (A) (A) (A) (A) (A) (A) (A)
 The electronic state is 1-A.
 Alpha  occ. eigenvalues --  -10.63964 -10.62708 -10.62673 -10.62107  -0.92655
 Alpha  occ. eigenvalues --   -0.84591  -0.69464  -0.63935  -0.54303  -0.52491
 Alpha  occ. eigenvalues --   -0.47318  -0.44651  -0.40155  -0.37747  -0.28015
 Alpha virt. eigenvalues --    0.01448   0.06831   0.07252   0.07888   0.09094
 Alpha virt. eigenvalues --    0.11609   0.12396   0.14208   0.15384   0.16206
 Alpha virt. eigenvalues --    0.18906   0.19745   0.21274   0.22918   0.23766
 Alpha virt. eigenvalues --    0.25412   0.26549   0.29688   0.30940   0.33343
 Alpha virt. eigenvalues --    0.34635   0.35136   0.36139   0.37434   0.39465
 Alpha virt. eigenvalues --    0.41290   0.42065   0.44522   0.45791   0.47373
 Alpha virt. eigenvalues --    0.49034   0.50257   0.50778   0.54526   0.55353
 Alpha virt. eigenvalues --    0.60004   0.63153   0.63971   0.65415   0.70053
 Alpha virt. eigenvalues --    0.70304   0.70447   0.74972   0.77353   0.78333
 Alpha virt. eigenvalues --    0.79573   0.80955   0.81476   0.82561   0.83222
 Alpha virt. eigenvalues --    0.84997   0.86019   0.86728   0.87140   0.89716
 Alpha virt. eigenvalues --    0.92471   0.93018   0.93747   0.94802   0.96596
 Alpha virt. eigenvalues --    0.97721   0.98071   1.00774   1.01526   1.02655
 Alpha virt. eigenvalues --    1.06150   1.07395   1.08012   1.10169   1.11819
 Alpha virt. eigenvalues --    1.13160   1.15617   1.18721   1.20921   1.24346
 Alpha virt. eigenvalues --    1.26254   1.28182   1.30560   1.32847   1.35422
 Alpha virt. eigenvalues --    1.36414   1.37769   1.44908   1.52987   1.57706
 Alpha virt. eigenvalues --    1.61277   1.62326   1.65801   1.70283   1.74752
 Alpha virt. eigenvalues --    1.78089   1.80168   1.83143   1.85789   1.88052
 Alpha virt. eigenvalues --    1.90577   1.92165   1.92728   1.94363   1.95415
 Alpha virt. eigenvalues --    1.97051   1.98553   2.00608   2.01856   2.02664
 Alpha virt. eigenvalues --    2.03423   2.06467   2.07512   2.08630   2.08741
 Alpha virt. eigenvalues --    2.10022   2.12686   2.15112   2.17149   2.19211
 Alpha virt. eigenvalues --    2.19750   2.21369   2.21557   2.24286   2.25742
 Alpha virt. eigenvalues --    2.29168   2.30098   2.33163   2.39265   2.40967
 Alpha virt. eigenvalues --    2.42372   2.43598   2.45810   2.47694   2.49455
 Alpha virt. eigenvalues --    2.50737   2.52174   2.53191   2.53534   2.55635
 Alpha virt. eigenvalues --    2.59010   2.60581   2.60996   2.64617   2.65905
 Alpha virt. eigenvalues --    2.66338   2.68834   2.69442   2.70165   2.71928
 Alpha virt. eigenvalues --    2.72985   2.74832   2.76368   2.78022   2.79580
 Alpha virt. eigenvalues --    2.80619   2.83357   2.85274   2.88282   2.88905
 Alpha virt. eigenvalues --    2.93735   2.99161   3.01782   3.04434   3.07931
 Alpha virt. eigenvalues --    3.10726   3.16949   3.19272   3.21975   3.29876
 Alpha virt. eigenvalues --    3.33003   3.33688   3.36406   3.37078   3.42225
 Alpha virt. eigenvalues --    3.44903   3.45955   3.47972   3.50280   3.54354
 Alpha virt. eigenvalues --    3.58265   3.59924   3.61386   3.66301   3.67759
 Alpha virt. eigenvalues --    3.75161   3.77285   3.81267   3.82883   3.86079
 Alpha virt. eigenvalues --    3.91730   3.92895   4.02272   4.03451   4.07562
 Alpha virt. eigenvalues --    4.10512   4.15379   4.18985   4.23697   4.40789
 Alpha virt. eigenvalues --    4.45079   4.50669   4.56517   4.78873   4.95698
 Alpha virt. eigenvalues --    4.99297   5.03110   5.07131   5.08566   5.09731
 Alpha virt. eigenvalues --    5.16123   5.18951   5.22589   5.26031   5.29958
 Alpha virt. eigenvalues --    5.32380   5.33877   5.38027   5.39790   5.46110
 Alpha virt. eigenvalues --    5.52294   5.55329   5.57270   5.63258   5.63705
 Alpha virt. eigenvalues --    5.66658   5.68633   5.70282   5.72796   5.75934
 Alpha virt. eigenvalues --    5.77538   5.78990   5.82116   5.83795   5.85666
 Alpha virt. eigenvalues --    5.89520   5.90692   5.93931   5.97957   5.99910
 Alpha virt. eigenvalues --    6.02527   6.04362   6.06022   6.08910   6.09998
 Alpha virt. eigenvalues --    6.11809   6.13551   6.14474   6.15369   6.19421
 Alpha virt. eigenvalues --    6.19943   6.21472   6.22099   6.24398   6.26690
 Alpha virt. eigenvalues --    6.28706   6.31283   6.32276   6.34381   6.34440
 Alpha virt. eigenvalues --    6.35727   6.38553   6.41119   6.43288   6.45175
 Alpha virt. eigenvalues --    6.46388   6.49355   6.53639   6.54529   6.55717
 Alpha virt. eigenvalues --    6.58289   6.62036   6.65150   6.66462   6.70499
 Alpha virt. eigenvalues --    6.77467   6.77796   6.80928   6.83485   6.87576
 Alpha virt. eigenvalues --    6.92294   6.93153   6.96204   7.01785   7.04244
 Alpha virt. eigenvalues --    7.05255   7.09527   7.11114   7.14896   7.18713
 Alpha virt. eigenvalues --    7.20988   7.24991   7.31131   7.32224   7.36351
 Alpha virt. eigenvalues --    7.41114   7.48556   7.50505   7.52092   7.53578
 Alpha virt. eigenvalues --    7.56662   7.58042   7.60097   7.64480   7.66745
 Alpha virt. eigenvalues --    7.69380   7.71618   7.72416   7.73862   7.75488
 Alpha virt. eigenvalues --    7.77322   7.81534   7.84737   7.86282   7.90644
 Alpha virt. eigenvalues --    7.95270   7.96166   7.99920   8.01864   8.05983
 Alpha virt. eigenvalues --    8.09007   8.12492   8.12951   8.15396   8.19076
 Alpha virt. eigenvalues --    8.21120   8.23978   8.25324   8.27908   8.29475
 Alpha virt. eigenvalues --    8.30468   8.33529   8.35605   8.37789   8.37915
 Alpha virt. eigenvalues --    8.38705   8.42365   8.47576   8.48940   8.50650
 Alpha virt. eigenvalues --    8.53647   8.55596   8.58236   8.58686   8.66412
 Alpha virt. eigenvalues --    8.67612   8.70594   8.73654   8.76622   8.78857
 Alpha virt. eigenvalues --    8.82350   8.83839   8.91364   9.00023   9.04515
 Alpha virt. eigenvalues --    9.06240   9.14822   9.16287   9.22216   9.32581
 Alpha virt. eigenvalues --    9.35612   9.51591   9.62243   9.63420   9.63943
 Alpha virt. eigenvalues --    9.71403   9.81490   9.83602   9.88725   9.92472
 Alpha virt. eigenvalues --    9.93485   9.96167  10.03145  10.07702  10.10066
 Alpha virt. eigenvalues --   10.31347  10.42695  10.56150  10.60872  10.71962
 Alpha virt. eigenvalues --   10.80436  10.92766  11.07531  11.42634  11.97464
 Alpha virt. eigenvalues --   12.05628  12.74102  12.77054  12.85709  12.92657
 Alpha virt. eigenvalues --   28.58732  28.69975  29.35568  29.51436 148.17024
 Alpha virt. eigenvalues --  148.28054 148.93149 149.11791
          Condensed to atoms (all electrons):
               1          2          3          4          5          6
     1  C    4.851400   0.604123  -0.071339  -0.002892   0.419468   0.419071
     2  C    0.604123   4.831160   0.410367  -0.074831  -0.037630  -0.058289
     3  C   -0.071339   0.410367   4.842160   0.615166   0.006414  -0.011367
     4  C   -0.002892  -0.074831   0.615166   4.838923  -0.000586   0.000525
     5  H    0.419468  -0.037630   0.006414  -0.000586   0.568283  -0.039124
     6  H    0.419071  -0.058289  -0.011367   0.000525  -0.039124   0.615037
     7  H   -0.050855   0.402204  -0.070138  -0.000694  -0.008983   0.010055
     8  H   -0.000893  -0.058662   0.402150  -0.044105  -0.000279   0.006540
     9  H    0.000318  -0.007629  -0.042103   0.419613  -0.000044   0.000059
    10  H   -0.000557   0.006660  -0.036619   0.413995   0.000024  -0.000038
               7          8          9         10
     1  C   -0.050855  -0.000893   0.000318  -0.000557
     2  C    0.402204  -0.058662  -0.007629   0.006660
     3  C   -0.070138   0.402150  -0.042103  -0.036619
     4  C   -0.000694  -0.044105   0.419613   0.413995
     5  H   -0.008983  -0.000279  -0.000044   0.000024
     6  H    0.010055   0.006540   0.000059  -0.000038
     7  H    0.647076   0.008092   0.004452  -0.000042
     8  H    0.008092   0.641032   0.007005  -0.008267
     9  H    0.004452   0.007005   0.606113  -0.050511
    10  H   -0.000042  -0.008267  -0.050511   0.599167
 Mulliken charges:
               1
     1  C   -0.167845
     2  C   -0.017472
     3  C   -0.044691
     4  C   -0.165115
     5  H    0.092456
     6  H    0.057532
     7  H    0.058832
     8  H    0.047388
     9  H    0.062727
    10  H    0.076187
 Sum of Mulliken charges =   0.00000
 Mulliken charges with hydrogens summed into heavy atoms:
               1
     1  C   -0.017856
     2  C    0.041359
     3  C    0.002696
     4  C   -0.026200
 Electronic spatial extent (au):  <R**2>=            341.6633
 Charge=              0.0000 electrons
 Dipole moment (field-independent basis, Debye):
    X=             -0.0014    Y=             -0.0729    Z=              0.5300  Tot=              0.5350
 Quadrupole moment (field-independent basis, Debye-Ang):
   XX=            -23.5107   YY=            -23.5300   ZZ=            -29.3555
   XY=              0.1040   XZ=              0.0041   YZ=             -0.1762
 Traceless Quadrupole moment (field-independent basis, Debye-Ang):
   XX=              1.9547   YY=              1.9354   ZZ=             -3.8901
   XY=              0.1040   XZ=              0.0041   YZ=             -0.1762
 Octapole moment (field-independent basis, Debye-Ang**2):
  XXX=             -0.3501  YYY=              0.1891  ZZZ=              0.8318  XYY=             -0.1099
  XXY=             -2.1878  XXZ=              4.0864  XZZ=              0.1116  YZZ=             -0.1915
  YYZ=              0.9701  XYZ=             -0.2764
 Hexadecapole moment (field-independent basis, Debye-Ang**3):
 XXXX=           -351.6486 YYYY=            -67.0015 ZZZZ=            -38.3852 XXXY=             -8.6727
 XXXZ=             -0.0729 YYYX=              2.5858 YYYZ=             -0.5165 ZZZX=              0.1135
 ZZZY=             -0.1465 XXYY=            -71.4165 XXZZ=            -79.0375 YYZZ=            -19.5922
 XXYZ=             -0.6962 YYXZ=             -0.0610 ZZXY=              0.4233
 N-N= 1.027859541574D+02 E-N=-5.662239556527D+02  KE= 1.548389903259D+02
 Leave Link  601 at Wed Aug 26 15:33:01 2020, MaxMem=  2097152000 cpu:         0.9
 (Enter /opt/cluster/programs/g09/g09_d.01/g09/l9999.exe)
 1\1\GINC-NODE08\SP\RB2PLYPD3-FC\def2QZVP\C4H6\BOITTIER\26-Aug-2020\0\\
 #p B2PLYPD3/Def2QZVP\\butadiene\\0,1\C,0,-3.871031,0.189133,-0.039693\
 C,0,-2.736083,-0.464896,0.141536\C,0,-1.36382,0.098522,0.069905\C,0,-0
 .254003,-0.677236,-0.00748\H,0,-4.896059,-0.304689,-0.224436\H,0,-3.72
 4746,1.290189,-0.098099\H,0,-2.683776,-1.495161,-0.009228\H,0,-1.31097
 1,1.223393,0.004432\H,0,-0.276091,-1.761169,-0.11202\H,0,0.777276,-0.2
 67553,-0.218868\\Version=ES64L-G09RevD.01\State=1-A\HF=-155.6804885\MP
 2=-155.9080079\RMSD=7.464e-09\PG=C01 [X(C4H6)]\\@


 Just remember, when you're over the hill, you begin to pick up speed.
 -- Charles Schulz
 Job cpu time:       0 days  0 hours 40 minutes 59.8 seconds.
 File lengths (MBytes):  RWF=     92 Int=      0 D2E=      0 Chk=      9 Scr=      1
 Normal termination of Gaussian 09 at Wed Aug 26 15:33:01 2020.
