 Entering Gaussian System, Link 0=/opt/cluster/programs/g09/g09_d.01/g09//g09
 Input=/home/boittier/MDCM/nms_sampling/butadiene_geom.xyz.dir/energies/butadiene_909_energy.com
 Output=/scratch/boittier/butadiene_909_energy/butadiene_909_energy.out
 Initial command:
 /opt/cluster/programs/g09/g09_d.01/g09/l1.exe "/scratch/boittier/butadiene_909_energy/Gau-127730.inp" -scrdir="/scratch/boittier/butadiene_909_energy/"
 Entering Link 1 = /opt/cluster/programs/g09/g09_d.01/g09/l1.exe PID=    127731.
  
 Copyright (c) 1988,1990,1992,1993,1995,1998,2003,2009,2013,
            Gaussian, Inc.  All Rights Reserved.
  
 This is part of the Gaussian(R) 09 program.  It is based on
 the Gaussian(R) 03 system (copyright 2003, Gaussian, Inc.),
 the Gaussian(R) 98 system (copyright 1998, Gaussian, Inc.),
 the Gaussian(R) 94 system (copyright 1995, Gaussian, Inc.),
 the Gaussian 92(TM) system (copyright 1992, Gaussian, Inc.),
 the Gaussian 90(TM) system (copyright 1990, Gaussian, Inc.),
 the Gaussian 88(TM) system (copyright 1988, Gaussian, Inc.),
 the Gaussian 86(TM) system (copyright 1986, Carnegie Mellon
 University), and the Gaussian 82(TM) system (copyright 1983,
 Carnegie Mellon University). Gaussian is a federally registered
 trademark of Gaussian, Inc.
  
 This software contains proprietary and confidential information,
 including trade secrets, belonging to Gaussian, Inc.
  
 This software is provided under written license and may be
 used, copied, transmitted, or stored only in accord with that
 written license.
  
 The following legend is applicable only to US Government
 contracts under FAR:
  
                    RESTRICTED RIGHTS LEGEND
  
 Use, reproduction and disclosure by the US Government is
 subject to restrictions as set forth in subparagraphs (a)
 and (c) of the Commercial Computer Software - Restricted
 Rights clause in FAR 52.227-19.
  
 Gaussian, Inc.
 340 Quinnipiac St., Bldg. 40, Wallingford CT 06492
  
  
 ---------------------------------------------------------------
 Warning -- This program may not be used in any manner that
 competes with the business of Gaussian, Inc. or will provide
 assistance to any competitor of Gaussian, Inc.  The licensee
 of this program is prohibited from giving any competitor of
 Gaussian, Inc. access to this program.  By using this program,
 the user acknowledges that Gaussian, Inc. is engaged in the
 business of creating and licensing software in the field of
 computational chemistry and represents and warrants to the
 licensee that it is not a competitor of Gaussian, Inc. and that
 it will not use this program in any manner prohibited above.
 ---------------------------------------------------------------
  

 Cite this work as:
 Gaussian 09, Revision D.01,
 M. J. Frisch, G. W. Trucks, H. B. Schlegel, G. E. Scuseria, 
 M. A. Robb, J. R. Cheeseman, G. Scalmani, V. Barone, B. Mennucci, 
 G. A. Petersson, H. Nakatsuji, M. Caricato, X. Li, H. P. Hratchian, 
 A. F. Izmaylov, J. Bloino, G. Zheng, J. L. Sonnenberg, M. Hada, 
 M. Ehara, K. Toyota, R. Fukuda, J. Hasegawa, M. Ishida, T. Nakajima, 
 Y. Honda, O. Kitao, H. Nakai, T. Vreven, J. A. Montgomery, Jr., 
 J. E. Peralta, F. Ogliaro, M. Bearpark, J. J. Heyd, E. Brothers, 
 K. N. Kudin, V. N. Staroverov, T. Keith, R. Kobayashi, J. Normand, 
 K. Raghavachari, A. Rendell, J. C. Burant, S. S. Iyengar, J. Tomasi, 
 M. Cossi, N. Rega, J. M. Millam, M. Klene, J. E. Knox, J. B. Cross, 
 V. Bakken, C. Adamo, J. Jaramillo, R. Gomperts, R. E. Stratmann, 
 O. Yazyev, A. J. Austin, R. Cammi, C. Pomelli, J. W. Ochterski, 
 R. L. Martin, K. Morokuma, V. G. Zakrzewski, G. A. Voth, 
 P. Salvador, J. J. Dannenberg, S. Dapprich, A. D. Daniels, 
 O. Farkas, J. B. Foresman, J. V. Ortiz, J. Cioslowski, 
 and D. J. Fox, Gaussian, Inc., Wallingford CT, 2013.
 
 ******************************************
 Gaussian 09:  ES64L-G09RevD.01 24-Apr-2013
                26-Aug-2020 
 ******************************************
 %chk=/home/boittier/MDCM/nms_sampling/butadiene_geom.xyz.dir/butadiene_909.chk
 %nproc=8
 Will use up to    8 processors via shared memory.
 %mem=16000MB
 --------------------
 #p B2PLYPD3/Def2QZVP
 --------------------
 1/38=1/1;
 2/12=2,17=6,18=5,40=1/2;
 3/5=45,7=101,11=9,16=1,25=1,30=1,74=-60/1,2,3;
 4//1;
 5/5=2,38=5/2;
 8/10=1/1;
 9/16=-3/6;
 6/7=2,8=2,9=2,10=2/1;
 99/5=1,9=1/99;
 Leave Link    1 at Wed Aug 26 21:54:14 2020, MaxMem=  2097152000 cpu:         0.3
 (Enter /opt/cluster/programs/g09/g09_d.01/g09/l101.exe)
 ---------
 butadiene
 ---------
 Symbolic Z-matrix:
 Charge =  0 Multiplicity = 1
 C                    -3.84132   0.22152   0.00337 
 C                    -2.71732  -0.50507   0.04037 
 C                    -1.37924   0.08488   0.0415 
 C                    -0.26757  -0.65514   0.00485 
 H                    -4.798    -0.25114   0.04725 
 H                    -3.81723   1.29936  -0.0731 
 H                    -2.78866  -1.59896   0.17978 
 H                    -1.30017   1.15135   0.04759 
 H                    -0.37876  -1.75359   0.05153 
 H                     0.72896  -0.21061   0.03458 
 
 NAtoms=     10 NQM=       10 NQMF=       0 NMMI=      0 NMMIF=      0
                NMic=       0 NMicF=      0.
                    Isotopes and Nuclear Properties:
 (Nuclear quadrupole moments (NQMom) in fm**2, nuclear magnetic moments (NMagM)
  in nuclear magnetons)

  Atom         1           2           3           4           5           6           7           8           9          10
 IAtWgt=          12          12          12          12           1           1           1           1           1           1
 AtmWgt=  12.0000000  12.0000000  12.0000000  12.0000000   1.0078250   1.0078250   1.0078250   1.0078250   1.0078250   1.0078250
 NucSpn=           0           0           0           0           1           1           1           1           1           1
 AtZEff=   0.0000000   0.0000000   0.0000000   0.0000000   0.0000000   0.0000000   0.0000000   0.0000000   0.0000000   0.0000000
 NQMom=    0.0000000   0.0000000   0.0000000   0.0000000   0.0000000   0.0000000   0.0000000   0.0000000   0.0000000   0.0000000
 NMagM=    0.0000000   0.0000000   0.0000000   0.0000000   2.7928460   2.7928460   2.7928460   2.7928460   2.7928460   2.7928460
 AtZNuc=   6.0000000   6.0000000   6.0000000   6.0000000   1.0000000   1.0000000   1.0000000   1.0000000   1.0000000   1.0000000
 Leave Link  101 at Wed Aug 26 21:54:14 2020, MaxMem=  2097152000 cpu:         0.7
 (Enter /opt/cluster/programs/g09/g09_d.01/g09/l202.exe)
                          Input orientation:                          
 ---------------------------------------------------------------------
 Center     Atomic      Atomic             Coordinates (Angstroms)
 Number     Number       Type             X           Y           Z
 ---------------------------------------------------------------------
      1          6           0       -3.841315    0.221520    0.003374
      2          6           0       -2.717321   -0.505071    0.040371
      3          6           0       -1.379236    0.084883    0.041503
      4          6           0       -0.267573   -0.655140    0.004850
      5          1           0       -4.798005   -0.251142    0.047246
      6          1           0       -3.817230    1.299363   -0.073095
      7          1           0       -2.788662   -1.598963    0.179784
      8          1           0       -1.300168    1.151349    0.047589
      9          1           0       -0.378764   -1.753585    0.051526
     10          1           0        0.728955   -0.210607    0.034576
 ---------------------------------------------------------------------
                    Distance matrix (angstroms):
                    1          2          3          4          5
     1  C    0.000000
     2  C    1.338905   0.000000
     3  C    2.466162   1.462367   0.000000
     4  C    3.679697   2.454597   1.335954   0.000000
     5  H    1.067984   2.096133   3.435248   4.548607   0.000000
     6  H    1.080821   2.116284   2.726153   4.052928   1.838605
     7  H    2.110298   1.105045   2.200214   2.697646   2.423148
     8  H    2.706283   2.179932   1.069410   2.081221   3.768534
     9  H    3.986555   2.650992   2.093086   1.105045   4.667659
    10  H    4.590760   3.458838   2.128810   1.091587   5.527123
                    6          7          8          9         10
     6  H    0.000000
     7  H    3.085805   0.000000
     8  H    2.524297   3.130065   0.000000
     9  H    4.599899   2.418257   3.047563   0.000000
    10  H    4.791597   3.784474   2.443856   1.899503   0.000000
 Stoichiometry    C4H6
 Framework group  C1[X(C4H6)]
 Deg. of freedom    24
 Full point group                 C1      NOp   1
 Largest Abelian subgroup         C1      NOp   1
 Largest concise Abelian subgroup C1      NOp   1
                         Standard orientation:                         
 ---------------------------------------------------------------------
 Center     Atomic      Atomic             Coordinates (Angstroms)
 Number     Number       Type             X           Y           Z
 ---------------------------------------------------------------------
      1          6           0        1.837818   -0.113415   -0.015585
      2          6           0        0.602461    0.402638    0.000173
      3          6           0       -0.609419   -0.415378    0.026932
      4          6           0       -1.834842    0.113492   -0.031430
      5          1           0        2.695119    0.523030    0.008158
      6          1           0        2.005939   -1.180381   -0.054220
      7          1           0        0.477830    1.495995    0.100976
      8          1           0       -0.497637   -1.478034    0.070608
      9          1           0       -1.920831    1.215159   -0.023615
     10          1           0       -2.736534   -0.499789    0.017544
 ---------------------------------------------------------------------
 Rotational constants (GHZ):     41.2828513      4.4760213      4.0408919
 Leave Link  202 at Wed Aug 26 21:54:14 2020, MaxMem=  2097152000 cpu:         0.0
 (Enter /opt/cluster/programs/g09/g09_d.01/g09/l301.exe)
 Standard basis: def2QZVP (5D, 7F)
 Ernie: Thresh=  0.10000D-02 Tol=  0.10000D-05 Strict=F.
 There are   498 symmetry adapted cartesian basis functions of A   symmetry.
 There are   408 symmetry adapted basis functions of A   symmetry.
   408 basis functions,   596 primitive gaussians,   498 cartesian basis functions
    15 alpha electrons       15 beta electrons
       nuclear repulsion energy       103.8490746427 Hartrees.
 IExCor=  419 DFT=T Ex+Corr=B2PLYPD3 ExCW=0 ScaHFX=  0.530000
 ScaDFX=  0.470000  0.470000  0.730000  0.730000 ScalE2=  0.270000  0.270000
 IRadAn=      0 IRanWt=     -1 IRanGd=            0 ICorTp=0 IEmpDi=141
 NAtoms=   10 NActive=   10 NUniq=   10 SFac= 1.00D+00 NAtFMM=   60 NAOKFM=F Big=F
 Integral buffers will be    131072 words long.
 Regular integral format.
 Two-electron integral symmetry is turned on.
 R6Disp:  Grimme-D3(BJ) Dispersion energy=       -0.0048421673 Hartrees.
 Nuclear repulsion after empirical dispersion term =      103.8442324754 Hartrees.
 Leave Link  301 at Wed Aug 26 21:54:14 2020, MaxMem=  2097152000 cpu:         0.6
 (Enter /opt/cluster/programs/g09/g09_d.01/g09/l302.exe)
 NPDir=0 NMtPBC=     1 NCelOv=     1 NCel=       1 NClECP=     1 NCelD=      1
         NCelK=      1 NCelE2=     1 NClLst=     1 CellRange=     0.0.
 One-electron integrals computed using PRISM.
   1 Symmetry operations used in ECPInt.
 ECPInt:  NShTT=    8256 NPrTT=   19107 LenC2=    8059 LenP2D=   16121.
 LDataN:  DoStor=T MaxTD1= 8 Len=  415
 NBasis=   408 RedAO= T EigKep=  4.35D-05  NBF=   408
 NBsUse=   408 1.00D-06 EigRej= -1.00D+00 NBFU=   408
 Precomputing XC quadrature grid using
 IXCGrd= 4 IRadAn=           0 IRanWt=          -1 IRanGd=           0 AccXCQ= 0.00D+00.
 Generated NRdTot=       0 NPtTot=           0 NUsed=           0 NTot=          32
 NSgBfM=   498   498   498   498   498 MxSgAt=    10 MxSgA2=    10.
 Leave Link  302 at Wed Aug 26 21:54:15 2020, MaxMem=  2097152000 cpu:         4.4
 (Enter /opt/cluster/programs/g09/g09_d.01/g09/l303.exe)
 DipDrv:  MaxL=1.
 Leave Link  303 at Wed Aug 26 21:54:15 2020, MaxMem=  2097152000 cpu:         0.5
 (Enter /opt/cluster/programs/g09/g09_d.01/g09/l401.exe)
 ExpMin= 7.60D-02 ExpMax= 6.70D+04 ExpMxC= 6.47D+02 IAcc=2 IRadAn=         4 AccDes= 0.00D+00
 Harris functional with IExCor=  419 and IRadAn=       4 diagonalized for initial guess.
 HarFok:  IExCor=  419 AccDes= 0.00D+00 IRadAn=         4 IDoV= 1 UseB2=F ITyADJ=14
 ICtDFT=  3500011 ScaDFX=  1.000000  1.000000  1.000000  1.000000
 FoFCou: FMM=F IPFlag=           0 FMFlag=      100000 FMFlg1=           0
         NFxFlg=           0 DoJE=T BraDBF=F KetDBF=T FulRan=T
         wScrn=  0.000000 ICntrl=     500 IOpCl=  0 I1Cent=   200000004 NGrid=           0
         NMat0=    1 NMatS0=      1 NMatT0=    0 NMatD0=    1 NMtDS0=    0 NMtDT0=    0
 Petite list used in FoFCou.
 Harris En= -156.133517494181    
 JPrj=0 DoOrth=F DoCkMO=F.
 Leave Link  401 at Wed Aug 26 21:54:17 2020, MaxMem=  2097152000 cpu:        11.5
 (Enter /opt/cluster/programs/g09/g09_d.01/g09/l502.exe)
 Closed shell SCF:
 Using DIIS extrapolation, IDIIS=  1040.
 Integral symmetry usage will be decided dynamically.
 IVT=      770090 IEndB=      770090 NGot=  2097152000 MDV=  2096647053
 LenX=  2096647053 LenY=  2096398551
 Requested convergence on RMS density matrix=1.00D-08 within 128 cycles.
 Requested convergence on MAX density matrix=1.00D-06.
 Requested convergence on             energy=1.00D-06.
 No special actions if energy rises.
 Fock matrices will be formed incrementally for  20 cycles.
 Integral accuracy reduced to 1.0D-05 until final iterations.

 Cycle   1  Pass 0  IDiag  1:
 FoFJK:  IHMeth= 1 ICntrl=       0 DoSepK=F KAlg= 0 I1Cent=   0 FoldK=F
 IRaf= 940000000 NMat=   1 IRICut=       1 DoRegI=T DoRafI=F ISym2E= 0.
 FoFCou: FMM=F IPFlag=           0 FMFlag=      100000 FMFlg1=           0
         NFxFlg=           0 DoJE=F BraDBF=F KetDBF=F FulRan=T
         wScrn=  0.000000 ICntrl=       0 IOpCl=  0 I1Cent=           0 NGrid=           0
         NMat0=    1 NMatS0=      1 NMatT0=    0 NMatD0=    1 NMtDS0=    0 NMtDT0=    0
 Symmetry not used in FoFCou.
 E= -155.513105754880    
 DIIS: error= 3.55D-02 at cycle   1 NSaved=   1.
 NSaved= 1 IEnMin= 1 EnMin= -155.513105754880     IErMin= 1 ErrMin= 3.55D-02
 ErrMax= 3.55D-02  0.00D+00 EMaxC= 1.00D-01 BMatC= 2.52D-01 BMatP= 2.52D-01
 IDIUse=3 WtCom= 6.45D-01 WtEn= 3.55D-01
 Coeff-Com:  0.100D+01
 Coeff-En:   0.100D+01
 Coeff:      0.100D+01
 Gap=     0.299 Goal=   None    Shift=    0.000
 GapD=    0.299 DampG=1.000 DampE=0.500 DampFc=0.5000 IDamp=-1.
 Damping current iteration by 5.00D-01
 RMSDP=9.52D-04 MaxDP=5.18D-02              OVMax= 1.93D-01

 Cycle   2  Pass 0  IDiag  1:
 RMSU=  4.37D-04    CP:  9.51D-01
 E= -155.611885851595     Delta-E=       -0.098780096714 Rises=F Damp=T
 DIIS: error= 1.12D-02 at cycle   2 NSaved=   2.
 NSaved= 2 IEnMin= 2 EnMin= -155.611885851595     IErMin= 2 ErrMin= 1.12D-02
 ErrMax= 1.12D-02  0.00D+00 EMaxC= 1.00D-01 BMatC= 2.96D-02 BMatP= 2.52D-01
 IDIUse=3 WtCom= 8.88D-01 WtEn= 1.12D-01
 Coeff-Com: -0.299D+00 0.130D+01
 Coeff-En:   0.000D+00 0.100D+01
 Coeff:     -0.265D+00 0.127D+01
 Gap=     0.357 Goal=   None    Shift=    0.000
 RMSDP=2.63D-04 MaxDP=8.56D-03 DE=-9.88D-02 OVMax= 9.35D-02

 Cycle   3  Pass 0  IDiag  1:
 RMSU=  2.52D-04    CP:  9.33D-01  1.08D+00
 E= -155.697397745547     Delta-E=       -0.085511893952 Rises=F Damp=F
 DIIS: error= 4.37D-03 at cycle   3 NSaved=   3.
 NSaved= 3 IEnMin= 3 EnMin= -155.697397745547     IErMin= 3 ErrMin= 4.37D-03
 ErrMax= 4.37D-03  0.00D+00 EMaxC= 1.00D-01 BMatC= 1.80D-03 BMatP= 2.96D-02
 IDIUse=3 WtCom= 9.56D-01 WtEn= 4.37D-02
 Coeff-Com: -0.111D+00 0.218D+00 0.893D+00
 Coeff-En:   0.000D+00 0.000D+00 0.100D+01
 Coeff:     -0.106D+00 0.208D+00 0.897D+00
 Gap=     0.295 Goal=   None    Shift=    0.000
 RMSDP=6.82D-05 MaxDP=3.93D-03 DE=-8.55D-02 OVMax= 2.17D-02

 Cycle   4  Pass 0  IDiag  1:
 RMSU=  4.94D-05    CP:  9.29D-01  1.18D+00  9.37D-01
 E= -155.698813049484     Delta-E=       -0.001415303937 Rises=F Damp=F
 DIIS: error= 2.63D-03 at cycle   4 NSaved=   4.
 NSaved= 4 IEnMin= 4 EnMin= -155.698813049484     IErMin= 4 ErrMin= 2.63D-03
 ErrMax= 2.63D-03  0.00D+00 EMaxC= 1.00D-01 BMatC= 5.39D-04 BMatP= 1.80D-03
 IDIUse=3 WtCom= 9.74D-01 WtEn= 2.63D-02
 Coeff-Com: -0.504D-01 0.824D-01 0.472D+00 0.496D+00
 Coeff-En:   0.000D+00 0.000D+00 0.109D+00 0.891D+00
 Coeff:     -0.491D-01 0.802D-01 0.463D+00 0.506D+00
 Gap=     0.295 Goal=   None    Shift=    0.000
 RMSDP=2.72D-05 MaxDP=1.36D-03 DE=-1.42D-03 OVMax= 8.42D-03

 Cycle   5  Pass 0  IDiag  1:
 RMSU=  1.54D-05    CP:  9.30D-01  1.17D+00  9.77D-01  6.00D-01
 E= -155.699332891142     Delta-E=       -0.000519841658 Rises=F Damp=F
 DIIS: error= 2.76D-04 at cycle   5 NSaved=   5.
 NSaved= 5 IEnMin= 5 EnMin= -155.699332891142     IErMin= 5 ErrMin= 2.76D-04
 ErrMax= 2.76D-04  0.00D+00 EMaxC= 1.00D-01 BMatC= 5.10D-06 BMatP= 5.39D-04
 IDIUse=3 WtCom= 9.97D-01 WtEn= 2.76D-03
 Coeff-Com: -0.314D-02 0.288D-02 0.395D-01 0.108D+00 0.852D+00
 Coeff-En:   0.000D+00 0.000D+00 0.000D+00 0.000D+00 0.100D+01
 Coeff:     -0.313D-02 0.287D-02 0.394D-01 0.108D+00 0.853D+00
 Gap=     0.295 Goal=   None    Shift=    0.000
 RMSDP=3.88D-06 MaxDP=1.29D-04 DE=-5.20D-04 OVMax= 1.21D-03

 Initial convergence to 1.0D-05 achieved.  Increase integral accuracy.
 Cycle   6  Pass 1  IDiag  1:
 E= -155.699346917113     Delta-E=       -0.000014025971 Rises=F Damp=F
 DIIS: error= 5.63D-05 at cycle   1 NSaved=   1.
 NSaved= 1 IEnMin= 1 EnMin= -155.699346917113     IErMin= 1 ErrMin= 5.63D-05
 ErrMax= 5.63D-05  0.00D+00 EMaxC= 1.00D-01 BMatC= 4.64D-07 BMatP= 4.64D-07
 IDIUse=1 WtCom= 1.00D+00 WtEn= 0.00D+00
 Coeff-Com:  0.100D+01
 Coeff:      0.100D+01
 Gap=     0.295 Goal=   None    Shift=    0.000
 RMSDP=3.88D-06 MaxDP=1.29D-04 DE=-1.40D-05 OVMax= 2.92D-04

 Cycle   7  Pass 1  IDiag  1:
 RMSU=  1.54D-05    CP:  1.00D+00
 E= -155.699347250328     Delta-E=       -0.000000333215 Rises=F Damp=F
 DIIS: error= 1.72D-05 at cycle   2 NSaved=   2.
 NSaved= 2 IEnMin= 2 EnMin= -155.699347250328     IErMin= 2 ErrMin= 1.72D-05
 ErrMax= 1.72D-05  0.00D+00 EMaxC= 1.00D-01 BMatC= 1.91D-08 BMatP= 4.64D-07
 IDIUse=1 WtCom= 1.00D+00 WtEn= 0.00D+00
 Coeff-Com:  0.439D-01 0.956D+00
 Coeff:      0.439D-01 0.956D+00
 Gap=     0.295 Goal=   None    Shift=    0.000
 RMSDP=7.12D-07 MaxDP=2.17D-05 DE=-3.33D-07 OVMax= 1.33D-04

 Cycle   8  Pass 1  IDiag  1:
 RMSU=  4.58D-07    CP:  1.00D+00  1.04D+00
 E= -155.699347266379     Delta-E=       -0.000000016051 Rises=F Damp=F
 DIIS: error= 9.30D-06 at cycle   3 NSaved=   3.
 NSaved= 3 IEnMin= 3 EnMin= -155.699347266379     IErMin= 3 ErrMin= 9.30D-06
 ErrMax= 9.30D-06  0.00D+00 EMaxC= 1.00D-01 BMatC= 1.29D-08 BMatP= 1.91D-08
 IDIUse=1 WtCom= 1.00D+00 WtEn= 0.00D+00
 Coeff-Com: -0.159D-01 0.444D+00 0.572D+00
 Coeff:     -0.159D-01 0.444D+00 0.572D+00
 Gap=     0.295 Goal=   None    Shift=    0.000
 RMSDP=1.80D-07 MaxDP=9.77D-06 DE=-1.61D-08 OVMax= 5.66D-05

 Cycle   9  Pass 1  IDiag  1:
 RMSU=  1.67D-07    CP:  1.00D+00  1.04D+00  1.01D+00
 E= -155.699347279104     Delta-E=       -0.000000012725 Rises=F Damp=F
 DIIS: error= 4.41D-06 at cycle   4 NSaved=   4.
 NSaved= 4 IEnMin= 4 EnMin= -155.699347279104     IErMin= 4 ErrMin= 4.41D-06
 ErrMax= 4.41D-06  0.00D+00 EMaxC= 1.00D-01 BMatC= 6.38D-10 BMatP= 1.29D-08
 IDIUse=1 WtCom= 1.00D+00 WtEn= 0.00D+00
 Coeff-Com: -0.942D-02 0.315D-01 0.177D+00 0.801D+00
 Coeff:     -0.942D-02 0.315D-01 0.177D+00 0.801D+00
 Gap=     0.295 Goal=   None    Shift=    0.000
 RMSDP=5.62D-08 MaxDP=1.70D-06 DE=-1.27D-08 OVMax= 2.05D-05

 Cycle  10  Pass 1  IDiag  1:
 RMSU=  4.28D-08    CP:  1.00D+00  1.04D+00  1.08D+00  1.04D+00
 E= -155.699347280037     Delta-E=       -0.000000000934 Rises=F Damp=F
 DIIS: error= 7.32D-07 at cycle   5 NSaved=   5.
 NSaved= 5 IEnMin= 5 EnMin= -155.699347280037     IErMin= 5 ErrMin= 7.32D-07
 ErrMax= 7.32D-07  0.00D+00 EMaxC= 1.00D-01 BMatC= 4.19D-11 BMatP= 6.38D-10
 IDIUse=1 WtCom= 1.00D+00 WtEn= 0.00D+00
 Coeff-Com:  0.600D-03-0.518D-01-0.451D-01 0.126D+00 0.970D+00
 Coeff:      0.600D-03-0.518D-01-0.451D-01 0.126D+00 0.970D+00
 Gap=     0.295 Goal=   None    Shift=    0.000
 RMSDP=2.45D-08 MaxDP=1.31D-06 DE=-9.34D-10 OVMax= 6.87D-06

 Cycle  11  Pass 1  IDiag  1:
 RMSU=  1.77D-08    CP:  1.00D+00  1.04D+00  1.10D+00  1.11D+00  1.15D+00
 E= -155.699347280120     Delta-E=       -0.000000000082 Rises=F Damp=F
 DIIS: error= 1.52D-07 at cycle   6 NSaved=   6.
 NSaved= 6 IEnMin= 6 EnMin= -155.699347280120     IErMin= 6 ErrMin= 1.52D-07
 ErrMax= 1.52D-07  0.00D+00 EMaxC= 1.00D-01 BMatC= 3.46D-12 BMatP= 4.19D-11
 IDIUse=1 WtCom= 1.00D+00 WtEn= 0.00D+00
 Coeff-Com:  0.621D-03-0.198D-01-0.230D-01 0.146D-01 0.343D+00 0.685D+00
 Coeff:      0.621D-03-0.198D-01-0.230D-01 0.146D-01 0.343D+00 0.685D+00
 Gap=     0.295 Goal=   None    Shift=    0.000
 RMSDP=3.73D-09 MaxDP=1.52D-07 DE=-8.21D-11 OVMax= 9.95D-07

 SCF Done:  E(RB2PLYPD3) =  -155.699347280     A.U. after   11 cycles
            NFock= 11  Conv=0.37D-08     -V/T= 2.0040
 KE= 1.550731291306D+02 PE=-5.685830457970D+02 EE= 1.539663369109D+02
 Leave Link  502 at Wed Aug 26 21:58:08 2020, MaxMem=  2097152000 cpu:      1842.3
 (Enter /opt/cluster/programs/g09/g09_d.01/g09/l801.exe)
 DoSCS=T DFT=T ScalE2(SS,OS)=  0.270000  0.270000
 ExpMin= 7.60D-02 ExpMax= 6.70D+04 ExpMxC= 6.47D+02 IAcc=3 IRadAn=         5 AccDes= 0.00D+00
 HarFok:  IExCor=  205 AccDes= 0.00D+00 IRadAn=         5 IDoV=-2 UseB2=F ITyADJ=14
 ICtDFT= 12500011 ScaDFX=  1.000000  1.000000  1.000000  1.000000
 Largest valence mixing into a core orbital is  1.12D-04
 Largest core mixing into a valence orbital is  2.01D-05
 Range of M.O.s used for correlation:     5   408
 NBasis=   408 NAE=    15 NBE=    15 NFC=     4 NFV=     0
 NROrb=    404 NOA=    11 NOB=    11 NVA=   393 NVB=   393

 **** Warning!!: The largest alpha MO coefficient is  0.24321022D+02

 Leave Link  801 at Wed Aug 26 21:58:09 2020, MaxMem=  2097152000 cpu:         1.0
 (Enter /opt/cluster/programs/g09/g09_d.01/g09/l906.exe)
 DoSCS=T DFT=T ScalE2(SS,OS)=  0.270000  0.270000
 FulOut=F Deriv=F AODrv=F NAtomX=    10
   MMem=         881  MDisk=          11 MDiskD=          11
  W3Min=     2152854 MinDsk=     3857222 NBas6D=         498
 NBas2D=      125763    NTT=      124251    LW2=     4508827
    MDV=  2096382078 MDiskM=        9345 NBas2p=      117635
 Fully direct method using O(OVN) memory.
 IMap=   1   2   3   4   5   6   7   8   9  10  11
 JobTyp=1 Pass  1:  I=   1 to  11 NPSUse=  8 ParTrn=T ParDer=T DoDerP=F.
 Spin components of T(2) and E(2):
     alpha-alpha T2 =       0.4214009951D-01 E2=     -0.2543362378D-01
     alpha-beta  T2 =       0.2729862572D+00 E2=     -0.1751053350D+00
     beta-beta   T2 =       0.4214009951D-01 E2=     -0.2543362378D-01
 The integrals were generated   1 times.
 E2(B2PLYPD3) =    -0.2259725826D+00 E(B2PLYPD3) =    -0.15592531986272D+03
 Leave Link  906 at Wed Aug 26 22:00:02 2020, MaxMem=  2097152000 cpu:       900.9
 (Enter /opt/cluster/programs/g09/g09_d.01/g09/l601.exe)
 Copying SCF densities to generalized density rwf, IOpCl= 0 IROHF=0.

 **********************************************************************

            Population analysis using the SCF density.

 **********************************************************************

 Orbital symmetries:
       Occupied  (A) (A) (A) (A) (A) (A) (A) (A) (A) (A) (A) (A)
                 (A) (A) (A)
       Virtual   (A) (A) (A) (A) (A) (A) (A) (A) (A) (A) (A) (A)
                 (A) (A) (A) (A) (A) (A) (A) (A) (A) (A) (A) (A)
                 (A) (A) (A) (A) (A) (A) (A) (A) (A) (A) (A) (A)
                 (A) (A) (A) (A) (A) (A) (A) (A) (A) (A) (A) (A)
                 (A) (A) (A) (A) (A) (A) (A) (A) (A) (A) (A) (A)
                 (A) (A) (A) (A) (A) (A) (A) (A) (A) (A) (A) (A)
                 (A) (A) (A) (A) (A) (A) (A) (A) (A) (A) (A) (A)
                 (A) (A) (A) (A) (A) (A) (A) (A) (A) (A) (A) (A)
                 (A) (A) (A) (A) (A) (A) (A) (A) (A) (A) (A) (A)
                 (A) (A) (A) (A) (A) (A) (A) (A) (A) (A) (A) (A)
                 (A) (A) (A) (A) (A) (A) (A) (A) (A) (A) (A) (A)
                 (A) (A) (A) (A) (A) (A) (A) (A) (A) (A) (A) (A)
                 (A) (A) (A) (A) (A) (A) (A) (A) (A) (A) (A) (A)
                 (A) (A) (A) (A) (A) (A) (A) (A) (A) (A) (A) (A)
                 (A) (A) (A) (A) (A) (A) (A) (A) (A) (A) (A) (A)
                 (A) (A) (A) (A) (A) (A) (A) (A) (A) (A) (A) (A)
                 (A) (A) (A) (A) (A) (A) (A) (A) (A) (A) (A) (A)
                 (A) (A) (A) (A) (A) (A) (A) (A) (A) (A) (A) (A)
                 (A) (A) (A) (A) (A) (A) (A) (A) (A) (A) (A) (A)
                 (A) (A) (A) (A) (A) (A) (A) (A) (A) (A) (A) (A)
                 (A) (A) (A) (A) (A) (A) (A) (A) (A) (A) (A) (A)
                 (A) (A) (A) (A) (A) (A) (A) (A) (A) (A) (A) (A)
                 (A) (A) (A) (A) (A) (A) (A) (A) (A) (A) (A) (A)
                 (A) (A) (A) (A) (A) (A) (A) (A) (A) (A) (A) (A)
                 (A) (A) (A) (A) (A) (A) (A) (A) (A) (A) (A) (A)
                 (A) (A) (A) (A) (A) (A) (A) (A) (A) (A) (A) (A)
                 (A) (A) (A) (A) (A) (A) (A) (A) (A) (A) (A) (A)
                 (A) (A) (A) (A) (A) (A) (A) (A) (A) (A) (A) (A)
                 (A) (A) (A) (A) (A) (A) (A) (A) (A) (A) (A) (A)
                 (A) (A) (A) (A) (A) (A) (A) (A) (A) (A) (A) (A)
                 (A) (A) (A) (A) (A) (A) (A) (A) (A) (A) (A) (A)
                 (A) (A) (A) (A) (A) (A) (A) (A) (A) (A) (A) (A)
                 (A) (A) (A) (A) (A) (A) (A) (A) (A)
 The electronic state is 1-A.
 Alpha  occ. eigenvalues --  -10.62841 -10.62407 -10.61799 -10.61361  -0.92855
 Alpha  occ. eigenvalues --   -0.84844  -0.69764  -0.64034  -0.54482  -0.53876
 Alpha  occ. eigenvalues --   -0.46480  -0.45447  -0.41375  -0.37920  -0.27692
 Alpha virt. eigenvalues --    0.01825   0.07048   0.07348   0.08023   0.09414
 Alpha virt. eigenvalues --    0.11689   0.12438   0.14566   0.15748   0.16218
 Alpha virt. eigenvalues --    0.18741   0.20247   0.21545   0.22864   0.24015
 Alpha virt. eigenvalues --    0.26858   0.26953   0.29168   0.31859   0.34449
 Alpha virt. eigenvalues --    0.35780   0.36808   0.37657   0.37806   0.40091
 Alpha virt. eigenvalues --    0.42337   0.43245   0.45096   0.46703   0.48535
 Alpha virt. eigenvalues --    0.49165   0.49676   0.52742   0.54499   0.57238
 Alpha virt. eigenvalues --    0.58168   0.60950   0.64562   0.66883   0.68142
 Alpha virt. eigenvalues --    0.68996   0.71462   0.76802   0.77326   0.78830
 Alpha virt. eigenvalues --    0.79354   0.80729   0.81048   0.82466   0.84207
 Alpha virt. eigenvalues --    0.84737   0.85906   0.86151   0.87037   0.90549
 Alpha virt. eigenvalues --    0.92368   0.93525   0.94298   0.95703   0.96350
 Alpha virt. eigenvalues --    0.98593   0.99194   1.00077   1.03178   1.04848
 Alpha virt. eigenvalues --    1.06204   1.08384   1.10885   1.11623   1.12442
 Alpha virt. eigenvalues --    1.13678   1.16918   1.19267   1.21480   1.23810
 Alpha virt. eigenvalues --    1.25014   1.25626   1.33878   1.34383   1.36789
 Alpha virt. eigenvalues --    1.37576   1.39749   1.47253   1.61490   1.63354
 Alpha virt. eigenvalues --    1.65712   1.68222   1.70492   1.72413   1.72864
 Alpha virt. eigenvalues --    1.74528   1.80765   1.83115   1.84687   1.87641
 Alpha virt. eigenvalues --    1.89962   1.90839   1.91687   1.92844   1.94613
 Alpha virt. eigenvalues --    1.95316   1.98849   2.00501   2.00611   2.02228
 Alpha virt. eigenvalues --    2.03194   2.05723   2.07056   2.08411   2.08781
 Alpha virt. eigenvalues --    2.10531   2.11891   2.14828   2.17535   2.17954
 Alpha virt. eigenvalues --    2.18852   2.21680   2.22847   2.26291   2.28697
 Alpha virt. eigenvalues --    2.30241   2.32620   2.33767   2.37859   2.41915
 Alpha virt. eigenvalues --    2.44294   2.45278   2.46029   2.47722   2.49932
 Alpha virt. eigenvalues --    2.52492   2.53621   2.56698   2.57351   2.58717
 Alpha virt. eigenvalues --    2.59480   2.60798   2.63548   2.63839   2.64718
 Alpha virt. eigenvalues --    2.66599   2.69187   2.70014   2.70677   2.71494
 Alpha virt. eigenvalues --    2.72860   2.75866   2.76785   2.78816   2.79537
 Alpha virt. eigenvalues --    2.80932   2.88660   2.89288   2.92114   2.93005
 Alpha virt. eigenvalues --    2.94382   3.02735   3.06187   3.07134   3.09421
 Alpha virt. eigenvalues --    3.13093   3.13992   3.24943   3.34700   3.34855
 Alpha virt. eigenvalues --    3.37514   3.39677   3.41602   3.44957   3.47217
 Alpha virt. eigenvalues --    3.48670   3.49853   3.52707   3.55353   3.58317
 Alpha virt. eigenvalues --    3.60299   3.60998   3.63158   3.69148   3.76175
 Alpha virt. eigenvalues --    3.78171   3.80538   3.86511   3.90200   3.93233
 Alpha virt. eigenvalues --    3.94233   3.95653   4.01143   4.05070   4.14561
 Alpha virt. eigenvalues --    4.16874   4.17136   4.19735   4.25406   4.43018
 Alpha virt. eigenvalues --    4.52115   4.56576   4.57387   4.86438   5.00411
 Alpha virt. eigenvalues --    5.00728   5.03735   5.04195   5.06286   5.08234
 Alpha virt. eigenvalues --    5.12068   5.17521   5.20298   5.29110   5.30585
 Alpha virt. eigenvalues --    5.32797   5.38069   5.40122   5.46715   5.48576
 Alpha virt. eigenvalues --    5.52194   5.54633   5.57820   5.59881   5.62685
 Alpha virt. eigenvalues --    5.65946   5.69765   5.74970   5.75616   5.77799
 Alpha virt. eigenvalues --    5.79520   5.79764   5.82351   5.85154   5.86543
 Alpha virt. eigenvalues --    5.89172   5.90633   5.99318   6.01032   6.03958
 Alpha virt. eigenvalues --    6.04380   6.05762   6.07026   6.08962   6.11370
 Alpha virt. eigenvalues --    6.13750   6.15286   6.17724   6.18367   6.20516
 Alpha virt. eigenvalues --    6.21945   6.23527   6.27153   6.31318   6.34244
 Alpha virt. eigenvalues --    6.34917   6.35247   6.36796   6.37958   6.38415
 Alpha virt. eigenvalues --    6.39177   6.41921   6.42272   6.49037   6.49539
 Alpha virt. eigenvalues --    6.51891   6.53705   6.56024   6.56332   6.61210
 Alpha virt. eigenvalues --    6.63614   6.65565   6.68481   6.72120   6.76297
 Alpha virt. eigenvalues --    6.80246   6.85686   6.86538   6.89732   6.90889
 Alpha virt. eigenvalues --    6.92677   6.95835   6.99133   7.05340   7.06379
 Alpha virt. eigenvalues --    7.11669   7.14036   7.17394   7.19118   7.22172
 Alpha virt. eigenvalues --    7.24997   7.27298   7.35185   7.36676   7.39924
 Alpha virt. eigenvalues --    7.46682   7.48682   7.56550   7.57413   7.58899
 Alpha virt. eigenvalues --    7.61715   7.64076   7.64748   7.66473   7.67796
 Alpha virt. eigenvalues --    7.68566   7.72041   7.74461   7.75961   7.76653
 Alpha virt. eigenvalues --    7.78989   7.81892   7.84952   7.91524   7.92149
 Alpha virt. eigenvalues --    7.94237   7.96331   8.05923   8.08438   8.11711
 Alpha virt. eigenvalues --    8.13570   8.14851   8.17552   8.19569   8.21033
 Alpha virt. eigenvalues --    8.27718   8.29797   8.31561   8.33809   8.35351
 Alpha virt. eigenvalues --    8.35965   8.37657   8.38471   8.41251   8.44821
 Alpha virt. eigenvalues --    8.47982   8.49045   8.51815   8.57685   8.57901
 Alpha virt. eigenvalues --    8.58246   8.58874   8.60986   8.66087   8.70835
 Alpha virt. eigenvalues --    8.73897   8.74884   8.78119   8.80501   8.82539
 Alpha virt. eigenvalues --    8.87762   8.88546   8.94579   9.03305   9.09789
 Alpha virt. eigenvalues --    9.21019   9.22469   9.28704   9.33922   9.43657
 Alpha virt. eigenvalues --    9.57801   9.63315   9.74229   9.78261   9.84601
 Alpha virt. eigenvalues --    9.86633   9.90153   9.94553   9.96452   9.96884
 Alpha virt. eigenvalues --   10.01478  10.09612  10.24153  10.29442  10.31141
 Alpha virt. eigenvalues --   10.35287  10.39677  10.52768  10.70300  10.79218
 Alpha virt. eigenvalues --   10.87719  11.12873  11.50723  11.64031  11.83710
 Alpha virt. eigenvalues --   11.94978  12.85671  13.00154  13.13344  13.22894
 Alpha virt. eigenvalues --   28.62609  28.77363  29.45659  29.62334 148.21876
 Alpha virt. eigenvalues --  148.35113 149.05018 149.22510
          Condensed to atoms (all electrons):
               1          2          3          4          5          6
     1  C    4.844388   0.615009  -0.080639  -0.002076   0.426126   0.425308
     2  C    0.615009   4.838358   0.401662  -0.081265  -0.047431  -0.046054
     3  C   -0.080639   0.401662   4.837632   0.616377   0.007599  -0.007781
     4  C   -0.002076  -0.081265   0.616377   4.843382  -0.000641   0.000220
     5  H    0.426126  -0.047431   0.007599  -0.000641   0.581501  -0.044303
     6  H    0.425308  -0.046054  -0.007781   0.000220  -0.044303   0.593285
     7  H   -0.047511   0.409167  -0.056698  -0.002127  -0.009348   0.007544
     8  H   -0.000156  -0.059416   0.410164  -0.049551  -0.000097   0.004213
     9  H    0.000501  -0.009637  -0.049338   0.423444  -0.000043   0.000042
    10  H   -0.000683   0.007597  -0.043496   0.422498   0.000026  -0.000029
               7          8          9         10
     1  C   -0.047511  -0.000156   0.000501  -0.000683
     2  C    0.409167  -0.059416  -0.009637   0.007597
     3  C   -0.056698   0.410164  -0.049338  -0.043496
     4  C   -0.002127  -0.049551   0.423444   0.422498
     5  H   -0.009348  -0.000097  -0.000043   0.000026
     6  H    0.007544   0.004213   0.000042  -0.000029
     7  H    0.634461   0.006375   0.004842  -0.000053
     8  H    0.006375   0.630755   0.008145  -0.008742
     9  H    0.004842   0.008145   0.603317  -0.042580
    10  H   -0.000053  -0.008742  -0.042580   0.578588
 Mulliken charges:
               1
     1  C   -0.180266
     2  C   -0.027991
     3  C   -0.035481
     4  C   -0.170263
     5  H    0.086609
     6  H    0.067557
     7  H    0.053347
     8  H    0.058309
     9  H    0.061307
    10  H    0.086873
 Sum of Mulliken charges =   0.00000
 Mulliken charges with hydrogens summed into heavy atoms:
               1
     1  C   -0.026101
     2  C    0.025356
     3  C    0.022827
     4  C   -0.022083
 Electronic spatial extent (au):  <R**2>=            334.3931
 Charge=              0.0000 electrons
 Dipole moment (field-independent basis, Debye):
    X=              0.0167    Y=             -0.0426    Z=              0.1281  Tot=              0.1361
 Quadrupole moment (field-independent basis, Debye-Ang):
   XX=            -23.6210   YY=            -23.0331   ZZ=            -29.3207
   XY=              0.0217   XZ=             -0.0699   YZ=              0.0865
 Traceless Quadrupole moment (field-independent basis, Debye-Ang):
   XX=              1.7039   YY=              2.2918   ZZ=             -3.9957
   XY=              0.0217   XZ=             -0.0699   YZ=              0.0865
 Octapole moment (field-independent basis, Debye-Ang**2):
  XXX=              0.2065  YYY=             -0.1081  ZZZ=              0.2433  XYY=              0.1759
  XXY=             -0.6132  XXZ=              0.3031  XZZ=              0.0926  YZZ=             -0.0797
  YYZ=              0.3905  XYZ=              0.2990
 Hexadecapole moment (field-independent basis, Debye-Ang**3):
 XXXX=           -343.2360 YYYY=            -65.8959 ZZZZ=            -37.0226 XXXY=              7.3567
 XXXZ=             -0.5908 YYYX=             -1.5970 YYYZ=              0.3319 ZZZX=             -0.0498
 ZZZY=              0.0676 XXYY=            -68.4343 XXZZ=            -76.9217 YYZZ=            -19.4237
 XXYZ=              0.1374 YYXZ=             -0.1164 ZZXY=             -0.3641
 N-N= 1.038442324754D+02 E-N=-5.685830377618D+02  KE= 1.550731291306D+02
 Leave Link  601 at Wed Aug 26 22:00:02 2020, MaxMem=  2097152000 cpu:         0.7
 (Enter /opt/cluster/programs/g09/g09_d.01/g09/l9999.exe)
 1\1\GINC-NODE18\SP\RB2PLYPD3-FC\def2QZVP\C4H6\BOITTIER\26-Aug-2020\0\\
 #p B2PLYPD3/Def2QZVP\\butadiene\\0,1\C,0,-3.841315,0.22152,0.003374\C,
 0,-2.717321,-0.505071,0.040371\C,0,-1.379236,0.084883,0.041503\C,0,-0.
 267573,-0.65514,0.00485\H,0,-4.798005,-0.251142,0.047246\H,0,-3.81723,
 1.299363,-0.073095\H,0,-2.788662,-1.598963,0.179784\H,0,-1.300168,1.15
 1349,0.047589\H,0,-0.378764,-1.753585,0.051526\H,0,0.728955,-0.210607,
 0.034576\\Version=ES64L-G09RevD.01\State=1-A\HF=-155.6993473\MP2=-155.
 9253199\RMSD=3.733e-09\PG=C01 [X(C4H6)]\\@


 THE MORE POWERFUL THE METHOD, THE MORE CATASTROPHIC THE ERRORS.
     -- M.D. KAMEN
 Job cpu time:       0 days  0 hours 46 minutes  3.7 seconds.
 File lengths (MBytes):  RWF=     92 Int=      0 D2E=      0 Chk=      9 Scr=      1
 Normal termination of Gaussian 09 at Wed Aug 26 22:00:02 2020.
