 Entering Gaussian System, Link 0=/opt/cluster/programs/g09/g09_d.01/g09//g09
 Input=/home/boittier/MDCM/nms_sampling/butadiene_geom.xyz.dir/energies/butadiene_2238_energy.com
 Output=/scratch/boittier/butadiene_2238_energy/butadiene_2238_energy.out
 Initial command:
 /opt/cluster/programs/g09/g09_d.01/g09/l1.exe "/scratch/boittier/butadiene_2238_energy/Gau-197900.inp" -scrdir="/scratch/boittier/butadiene_2238_energy/"
 Entering Link 1 = /opt/cluster/programs/g09/g09_d.01/g09/l1.exe PID=    197901.
  
 Copyright (c) 1988,1990,1992,1993,1995,1998,2003,2009,2013,
            Gaussian, Inc.  All Rights Reserved.
  
 This is part of the Gaussian(R) 09 program.  It is based on
 the Gaussian(R) 03 system (copyright 2003, Gaussian, Inc.),
 the Gaussian(R) 98 system (copyright 1998, Gaussian, Inc.),
 the Gaussian(R) 94 system (copyright 1995, Gaussian, Inc.),
 the Gaussian 92(TM) system (copyright 1992, Gaussian, Inc.),
 the Gaussian 90(TM) system (copyright 1990, Gaussian, Inc.),
 the Gaussian 88(TM) system (copyright 1988, Gaussian, Inc.),
 the Gaussian 86(TM) system (copyright 1986, Carnegie Mellon
 University), and the Gaussian 82(TM) system (copyright 1983,
 Carnegie Mellon University). Gaussian is a federally registered
 trademark of Gaussian, Inc.
  
 This software contains proprietary and confidential information,
 including trade secrets, belonging to Gaussian, Inc.
  
 This software is provided under written license and may be
 used, copied, transmitted, or stored only in accord with that
 written license.
  
 The following legend is applicable only to US Government
 contracts under FAR:
  
                    RESTRICTED RIGHTS LEGEND
  
 Use, reproduction and disclosure by the US Government is
 subject to restrictions as set forth in subparagraphs (a)
 and (c) of the Commercial Computer Software - Restricted
 Rights clause in FAR 52.227-19.
  
 Gaussian, Inc.
 340 Quinnipiac St., Bldg. 40, Wallingford CT 06492
  
  
 ---------------------------------------------------------------
 Warning -- This program may not be used in any manner that
 competes with the business of Gaussian, Inc. or will provide
 assistance to any competitor of Gaussian, Inc.  The licensee
 of this program is prohibited from giving any competitor of
 Gaussian, Inc. access to this program.  By using this program,
 the user acknowledges that Gaussian, Inc. is engaged in the
 business of creating and licensing software in the field of
 computational chemistry and represents and warrants to the
 licensee that it is not a competitor of Gaussian, Inc. and that
 it will not use this program in any manner prohibited above.
 ---------------------------------------------------------------
  

 Cite this work as:
 Gaussian 09, Revision D.01,
 M. J. Frisch, G. W. Trucks, H. B. Schlegel, G. E. Scuseria, 
 M. A. Robb, J. R. Cheeseman, G. Scalmani, V. Barone, B. Mennucci, 
 G. A. Petersson, H. Nakatsuji, M. Caricato, X. Li, H. P. Hratchian, 
 A. F. Izmaylov, J. Bloino, G. Zheng, J. L. Sonnenberg, M. Hada, 
 M. Ehara, K. Toyota, R. Fukuda, J. Hasegawa, M. Ishida, T. Nakajima, 
 Y. Honda, O. Kitao, H. Nakai, T. Vreven, J. A. Montgomery, Jr., 
 J. E. Peralta, F. Ogliaro, M. Bearpark, J. J. Heyd, E. Brothers, 
 K. N. Kudin, V. N. Staroverov, T. Keith, R. Kobayashi, J. Normand, 
 K. Raghavachari, A. Rendell, J. C. Burant, S. S. Iyengar, J. Tomasi, 
 M. Cossi, N. Rega, J. M. Millam, M. Klene, J. E. Knox, J. B. Cross, 
 V. Bakken, C. Adamo, J. Jaramillo, R. Gomperts, R. E. Stratmann, 
 O. Yazyev, A. J. Austin, R. Cammi, C. Pomelli, J. W. Ochterski, 
 R. L. Martin, K. Morokuma, V. G. Zakrzewski, G. A. Voth, 
 P. Salvador, J. J. Dannenberg, S. Dapprich, A. D. Daniels, 
 O. Farkas, J. B. Foresman, J. V. Ortiz, J. Cioslowski, 
 and D. J. Fox, Gaussian, Inc., Wallingford CT, 2013.
 
 ******************************************
 Gaussian 09:  ES64L-G09RevD.01 24-Apr-2013
                26-Aug-2020 
 ******************************************
 %chk=/home/boittier/MDCM/nms_sampling/butadiene_geom.xyz.dir/butadiene_2238.chk
 %nproc=8
 Will use up to    8 processors via shared memory.
 %mem=16000MB
 --------------------
 #p B2PLYPD3/Def2QZVP
 --------------------
 1/38=1/1;
 2/12=2,17=6,18=5,40=1/2;
 3/5=45,7=101,11=9,16=1,25=1,30=1,74=-60/1,2,3;
 4//1;
 5/5=2,38=5/2;
 8/10=1/1;
 9/16=-3/6;
 6/7=2,8=2,9=2,10=2/1;
 99/5=1,9=1/99;
 Leave Link    1 at Wed Aug 26 12:55:19 2020, MaxMem=  2097152000 cpu:         0.2
 (Enter /opt/cluster/programs/g09/g09_d.01/g09/l101.exe)
 ---------
 butadiene
 ---------
 Symbolic Z-matrix:
 Charge =  0 Multiplicity = 1
 C                    -3.82391   0.25199   0.0264 
 C                    -2.73733  -0.50732   0.00592 
 C                    -1.40308   0.00783   0.00079 
 C                    -0.23707  -0.61156   0.06268 
 H                    -4.76827  -0.27073   0.15218 
 H                    -3.80451   1.3513    0.19379 
 H                    -3.05794  -1.67779  -0.14877 
 H                    -1.35069   1.12517  -0.22807 
 H                    -0.08319  -1.69961   0.22464 
 H                     0.68594  -0.15935  -0.07416 
 
 NAtoms=     10 NQM=       10 NQMF=       0 NMMI=      0 NMMIF=      0
                NMic=       0 NMicF=      0.
                    Isotopes and Nuclear Properties:
 (Nuclear quadrupole moments (NQMom) in fm**2, nuclear magnetic moments (NMagM)
  in nuclear magnetons)

  Atom         1           2           3           4           5           6           7           8           9          10
 IAtWgt=          12          12          12          12           1           1           1           1           1           1
 AtmWgt=  12.0000000  12.0000000  12.0000000  12.0000000   1.0078250   1.0078250   1.0078250   1.0078250   1.0078250   1.0078250
 NucSpn=           0           0           0           0           1           1           1           1           1           1
 AtZEff=   0.0000000   0.0000000   0.0000000   0.0000000   0.0000000   0.0000000   0.0000000   0.0000000   0.0000000   0.0000000
 NQMom=    0.0000000   0.0000000   0.0000000   0.0000000   0.0000000   0.0000000   0.0000000   0.0000000   0.0000000   0.0000000
 NMagM=    0.0000000   0.0000000   0.0000000   0.0000000   2.7928460   2.7928460   2.7928460   2.7928460   2.7928460   2.7928460
 AtZNuc=   6.0000000   6.0000000   6.0000000   6.0000000   1.0000000   1.0000000   1.0000000   1.0000000   1.0000000   1.0000000
 Leave Link  101 at Wed Aug 26 12:55:20 2020, MaxMem=  2097152000 cpu:         0.5
 (Enter /opt/cluster/programs/g09/g09_d.01/g09/l202.exe)
                          Input orientation:                          
 ---------------------------------------------------------------------
 Center     Atomic      Atomic             Coordinates (Angstroms)
 Number     Number       Type             X           Y           Z
 ---------------------------------------------------------------------
      1          6           0       -3.823911    0.251985    0.026398
      2          6           0       -2.737325   -0.507322    0.005922
      3          6           0       -1.403083    0.007825    0.000786
      4          6           0       -0.237071   -0.611560    0.062679
      5          1           0       -4.768273   -0.270733    0.152179
      6          1           0       -3.804514    1.351296    0.193785
      7          1           0       -3.057943   -1.677793   -0.148768
      8          1           0       -1.350691    1.125170   -0.228072
      9          1           0       -0.083193   -1.699614    0.224639
     10          1           0        0.685938   -0.159352   -0.074163
 ---------------------------------------------------------------------
                    Distance matrix (angstroms):
                    1          2          3          4          5
     1  C    0.000000
     2  C    1.325758   0.000000
     3  C    2.433244   1.430246   0.000000
     4  C    3.689505   2.503070   1.321761   0.000000
     5  H    1.086681   2.049906   3.380091   4.544883   0.000000
     6  H    1.112151   2.151429   2.758448   4.073898   1.887204
     7  H    2.083611   1.223408   2.366904   3.023058   2.235087
     8  H    2.635152   2.154655   1.141745   2.083487   3.711200
     9  H    4.223862   2.917844   2.169693   1.110752   4.898666
    10  H    4.529685   3.441835   2.097039   1.036901   5.460042
                    6          7          8          9         10
     6  H    0.000000
     7  H    3.138485   0.000000
     8  H    2.500069   3.282926   0.000000
     9  H    4.812196   2.998174   3.129042   0.000000
    10  H    4.745315   4.040776   2.412787   1.747356   0.000000
 Stoichiometry    C4H6
 Framework group  C1[X(C4H6)]
 Deg. of freedom    24
 Full point group                 C1      NOp   1
 Largest Abelian subgroup         C1      NOp   1
 Largest concise Abelian subgroup C1      NOp   1
                         Standard orientation:                         
 ---------------------------------------------------------------------
 Center     Atomic      Atomic             Coordinates (Angstroms)
 Number     Number       Type             X           Y           Z
 ---------------------------------------------------------------------
      1          6           0       -1.825515   -0.152139   -0.004231
      2          6           0       -0.623150    0.405454    0.028059
      3          6           0        0.600838   -0.334304    0.013302
      4          6           0        1.856892    0.073719   -0.040533
      5          1           0       -2.664456    0.530070   -0.112138
      6          1           0       -1.998345   -1.233590   -0.197808
      7          1           0       -0.734537    1.609760    0.212361
      8          1           0        0.457947   -1.448928    0.215234
      9          1           0        2.197885    1.121929   -0.177465
     10          1           0        2.687117   -0.535629    0.080230
 ---------------------------------------------------------------------
 Rotational constants (GHZ):     42.2192932      4.4078975      4.0046109
 Leave Link  202 at Wed Aug 26 12:55:20 2020, MaxMem=  2097152000 cpu:         0.0
 (Enter /opt/cluster/programs/g09/g09_d.01/g09/l301.exe)
 Standard basis: def2QZVP (5D, 7F)
 Ernie: Thresh=  0.10000D-02 Tol=  0.10000D-05 Strict=F.
 There are   498 symmetry adapted cartesian basis functions of A   symmetry.
 There are   408 symmetry adapted basis functions of A   symmetry.
   408 basis functions,   596 primitive gaussians,   498 cartesian basis functions
    15 alpha electrons       15 beta electrons
       nuclear repulsion energy       103.5568132882 Hartrees.
 IExCor=  419 DFT=T Ex+Corr=B2PLYPD3 ExCW=0 ScaHFX=  0.530000
 ScaDFX=  0.470000  0.470000  0.730000  0.730000 ScalE2=  0.270000  0.270000
 IRadAn=      0 IRanWt=     -1 IRanGd=            0 ICorTp=0 IEmpDi=141
 NAtoms=   10 NActive=   10 NUniq=   10 SFac= 1.00D+00 NAtFMM=   60 NAOKFM=F Big=F
 Integral buffers will be    131072 words long.
 Regular integral format.
 Two-electron integral symmetry is turned on.
 R6Disp:  Grimme-D3(BJ) Dispersion energy=       -0.0047860668 Hartrees.
 Nuclear repulsion after empirical dispersion term =      103.5520272214 Hartrees.
 Leave Link  301 at Wed Aug 26 12:55:20 2020, MaxMem=  2097152000 cpu:         0.5
 (Enter /opt/cluster/programs/g09/g09_d.01/g09/l302.exe)
 NPDir=0 NMtPBC=     1 NCelOv=     1 NCel=       1 NClECP=     1 NCelD=      1
         NCelK=      1 NCelE2=     1 NClLst=     1 CellRange=     0.0.
 One-electron integrals computed using PRISM.
   1 Symmetry operations used in ECPInt.
 ECPInt:  NShTT=    8256 NPrTT=   19107 LenC2=    8054 LenP2D=   16055.
 LDataN:  DoStor=T MaxTD1= 8 Len=  415
 NBasis=   408 RedAO= T EigKep=  4.57D-05  NBF=   408
 NBsUse=   408 1.00D-06 EigRej= -1.00D+00 NBFU=   408
 Precomputing XC quadrature grid using
 IXCGrd= 4 IRadAn=           0 IRanWt=          -1 IRanGd=           0 AccXCQ= 0.00D+00.
 Generated NRdTot=       0 NPtTot=           0 NUsed=           0 NTot=          32
 NSgBfM=   498   498   498   498   498 MxSgAt=    10 MxSgA2=    10.
 Leave Link  302 at Wed Aug 26 12:55:20 2020, MaxMem=  2097152000 cpu:         3.4
 (Enter /opt/cluster/programs/g09/g09_d.01/g09/l303.exe)
 DipDrv:  MaxL=1.
 Leave Link  303 at Wed Aug 26 12:55:20 2020, MaxMem=  2097152000 cpu:         0.3
 (Enter /opt/cluster/programs/g09/g09_d.01/g09/l401.exe)
 ExpMin= 7.60D-02 ExpMax= 6.70D+04 ExpMxC= 6.47D+02 IAcc=2 IRadAn=         4 AccDes= 0.00D+00
 Harris functional with IExCor=  419 and IRadAn=       4 diagonalized for initial guess.
 HarFok:  IExCor=  419 AccDes= 0.00D+00 IRadAn=         4 IDoV= 1 UseB2=F ITyADJ=14
 ICtDFT=  3500011 ScaDFX=  1.000000  1.000000  1.000000  1.000000
 FoFCou: FMM=F IPFlag=           0 FMFlag=      100000 FMFlg1=           0
         NFxFlg=           0 DoJE=T BraDBF=F KetDBF=T FulRan=T
         wScrn=  0.000000 ICntrl=     500 IOpCl=  0 I1Cent=   200000004 NGrid=           0
         NMat0=    1 NMatS0=      1 NMatT0=    0 NMatD0=    1 NMtDS0=    0 NMtDT0=    0
 Petite list used in FoFCou.
 Harris En= -156.109533466019    
 JPrj=0 DoOrth=F DoCkMO=F.
 Leave Link  401 at Wed Aug 26 12:55:21 2020, MaxMem=  2097152000 cpu:         8.1
 (Enter /opt/cluster/programs/g09/g09_d.01/g09/l502.exe)
 Closed shell SCF:
 Using DIIS extrapolation, IDIIS=  1040.
 Integral symmetry usage will be decided dynamically.
 IVT=      770090 IEndB=      770090 NGot=  2097152000 MDV=  2096647053
 LenX=  2096647053 LenY=  2096398551
 Requested convergence on RMS density matrix=1.00D-08 within 128 cycles.
 Requested convergence on MAX density matrix=1.00D-06.
 Requested convergence on             energy=1.00D-06.
 No special actions if energy rises.
 Fock matrices will be formed incrementally for  20 cycles.
 Integral accuracy reduced to 1.0D-05 until final iterations.

 Cycle   1  Pass 0  IDiag  1:
 FoFJK:  IHMeth= 1 ICntrl=       0 DoSepK=F KAlg= 0 I1Cent=   0 FoldK=F
 IRaf= 940000000 NMat=   1 IRICut=       1 DoRegI=T DoRafI=F ISym2E= 0.
 FoFCou: FMM=F IPFlag=           0 FMFlag=      100000 FMFlg1=           0
         NFxFlg=           0 DoJE=F BraDBF=F KetDBF=F FulRan=T
         wScrn=  0.000000 ICntrl=       0 IOpCl=  0 I1Cent=           0 NGrid=           0
         NMat0=    1 NMatS0=      1 NMatT0=    0 NMatD0=    1 NMtDS0=    0 NMtDT0=    0
 Symmetry not used in FoFCou.
 E= -155.484167436464    
 DIIS: error= 2.57D-02 at cycle   1 NSaved=   1.
 NSaved= 1 IEnMin= 1 EnMin= -155.484167436464     IErMin= 1 ErrMin= 2.57D-02
 ErrMax= 2.57D-02  0.00D+00 EMaxC= 1.00D-01 BMatC= 2.57D-01 BMatP= 2.57D-01
 IDIUse=3 WtCom= 7.43D-01 WtEn= 2.57D-01
 Coeff-Com:  0.100D+01
 Coeff-En:   0.100D+01
 Coeff:      0.100D+01
 Gap=     0.299 Goal=   None    Shift=    0.000
 GapD=    0.299 DampG=1.000 DampE=0.500 DampFc=0.5000 IDamp=-1.
 Damping current iteration by 5.00D-01
 RMSDP=1.00D-03 MaxDP=5.83D-02              OVMax= 1.94D-01

 Cycle   2  Pass 0  IDiag  1:
 RMSU=  4.59D-04    CP:  9.48D-01
 E= -155.585375002888     Delta-E=       -0.101207566424 Rises=F Damp=T
 DIIS: error= 8.91D-03 at cycle   2 NSaved=   2.
 NSaved= 2 IEnMin= 2 EnMin= -155.585375002888     IErMin= 2 ErrMin= 8.91D-03
 ErrMax= 8.91D-03  0.00D+00 EMaxC= 1.00D-01 BMatC= 2.92D-02 BMatP= 2.57D-01
 IDIUse=3 WtCom= 9.11D-01 WtEn= 8.91D-02
 Coeff-Com: -0.281D+00 0.128D+01
 Coeff-En:   0.000D+00 0.100D+01
 Coeff:     -0.256D+00 0.126D+01
 Gap=     0.356 Goal=   None    Shift=    0.000
 RMSDP=2.74D-04 MaxDP=9.95D-03 DE=-1.01D-01 OVMax= 9.57D-02

 Cycle   3  Pass 0  IDiag  1:
 RMSU=  2.63D-04    CP:  9.29D-01  1.06D+00
 E= -155.673302444309     Delta-E=       -0.087927441421 Rises=F Damp=F
 DIIS: error= 3.69D-03 at cycle   3 NSaved=   3.
 NSaved= 3 IEnMin= 3 EnMin= -155.673302444309     IErMin= 3 ErrMin= 3.69D-03
 ErrMax= 3.69D-03  0.00D+00 EMaxC= 1.00D-01 BMatC= 2.07D-03 BMatP= 2.92D-02
 IDIUse=3 WtCom= 9.63D-01 WtEn= 3.69D-02
 Coeff-Com: -0.113D+00 0.225D+00 0.888D+00
 Coeff-En:   0.000D+00 0.000D+00 0.100D+01
 Coeff:     -0.109D+00 0.217D+00 0.892D+00
 Gap=     0.295 Goal=   None    Shift=    0.000
 RMSDP=7.68D-05 MaxDP=4.82D-03 DE=-8.79D-02 OVMax= 2.08D-02

 Cycle   4  Pass 0  IDiag  1:
 RMSU=  5.54D-05    CP:  9.25D-01  1.16D+00  9.22D-01
 E= -155.674899847908     Delta-E=       -0.001597403599 Rises=F Damp=F
 DIIS: error= 2.75D-03 at cycle   4 NSaved=   4.
 NSaved= 4 IEnMin= 4 EnMin= -155.674899847908     IErMin= 4 ErrMin= 2.75D-03
 ErrMax= 2.75D-03  0.00D+00 EMaxC= 1.00D-01 BMatC= 6.79D-04 BMatP= 2.07D-03
 IDIUse=3 WtCom= 9.72D-01 WtEn= 2.75D-02
 Coeff-Com: -0.528D-01 0.856D-01 0.480D+00 0.487D+00
 Coeff-En:   0.000D+00 0.000D+00 0.141D+00 0.859D+00
 Coeff:     -0.513D-01 0.832D-01 0.470D+00 0.498D+00
 Gap=     0.295 Goal=   None    Shift=    0.000
 RMSDP=3.09D-05 MaxDP=1.44D-03 DE=-1.60D-03 OVMax= 9.03D-03

 Cycle   5  Pass 0  IDiag  1:
 RMSU=  1.58D-05    CP:  9.25D-01  1.15D+00  9.68D-01  5.81D-01
 E= -155.675560016611     Delta-E=       -0.000660168703 Rises=F Damp=F
 DIIS: error= 2.17D-04 at cycle   5 NSaved=   5.
 NSaved= 5 IEnMin= 5 EnMin= -155.675560016611     IErMin= 5 ErrMin= 2.17D-04
 ErrMax= 2.17D-04  0.00D+00 EMaxC= 1.00D-01 BMatC= 5.11D-06 BMatP= 6.79D-04
 IDIUse=3 WtCom= 9.98D-01 WtEn= 2.17D-03
 Coeff-Com: -0.257D-02 0.181D-02 0.340D-01 0.961D-01 0.871D+00
 Coeff-En:   0.000D+00 0.000D+00 0.000D+00 0.000D+00 0.100D+01
 Coeff:     -0.256D-02 0.181D-02 0.339D-01 0.958D-01 0.871D+00
 Gap=     0.295 Goal=   None    Shift=    0.000
 RMSDP=4.35D-06 MaxDP=1.42D-04 DE=-6.60D-04 OVMax= 9.19D-04

 Initial convergence to 1.0D-05 achieved.  Increase integral accuracy.
 Cycle   6  Pass 1  IDiag  1:
 E= -155.675556320892     Delta-E=        0.000003695718 Rises=F Damp=F
 DIIS: error= 3.86D-05 at cycle   1 NSaved=   1.
 NSaved= 1 IEnMin= 1 EnMin= -155.675556320892     IErMin= 1 ErrMin= 3.86D-05
 ErrMax= 3.86D-05  0.00D+00 EMaxC= 1.00D-01 BMatC= 4.30D-07 BMatP= 4.30D-07
 IDIUse=1 WtCom= 1.00D+00 WtEn= 0.00D+00
 Coeff-Com:  0.100D+01
 Coeff:      0.100D+01
 Gap=     0.295 Goal=   None    Shift=    0.000
 RMSDP=4.35D-06 MaxDP=1.42D-04 DE= 3.70D-06 OVMax= 2.91D-04

 Cycle   7  Pass 1  IDiag  1:
 RMSU=  1.77D-05    CP:  1.00D+00
 E= -155.675556644064     Delta-E=       -0.000000323172 Rises=F Damp=F
 DIIS: error= 1.23D-05 at cycle   2 NSaved=   2.
 NSaved= 2 IEnMin= 2 EnMin= -155.675556644064     IErMin= 2 ErrMin= 1.23D-05
 ErrMax= 1.23D-05  0.00D+00 EMaxC= 1.00D-01 BMatC= 2.58D-08 BMatP= 4.30D-07
 IDIUse=1 WtCom= 1.00D+00 WtEn= 0.00D+00
 Coeff-Com:  0.754D-01 0.925D+00
 Coeff:      0.754D-01 0.925D+00
 Gap=     0.295 Goal=   None    Shift=    0.000
 RMSDP=7.88D-07 MaxDP=2.83D-05 DE=-3.23D-07 OVMax= 1.34D-04

 Cycle   8  Pass 1  IDiag  1:
 RMSU=  5.14D-07    CP:  1.00D+00  1.03D+00
 E= -155.675556663011     Delta-E=       -0.000000018947 Rises=F Damp=F
 DIIS: error= 9.17D-06 at cycle   3 NSaved=   3.
 NSaved= 3 IEnMin= 3 EnMin= -155.675556663011     IErMin= 3 ErrMin= 9.17D-06
 ErrMax= 9.17D-06  0.00D+00 EMaxC= 1.00D-01 BMatC= 1.68D-08 BMatP= 2.58D-08
 IDIUse=1 WtCom= 1.00D+00 WtEn= 0.00D+00
 Coeff-Com: -0.170D-01 0.440D+00 0.577D+00
 Coeff:     -0.170D-01 0.440D+00 0.577D+00
 Gap=     0.295 Goal=   None    Shift=    0.000
 RMSDP=1.97D-07 MaxDP=7.44D-06 DE=-1.89D-08 OVMax= 7.01D-05

 Cycle   9  Pass 1  IDiag  1:
 RMSU=  1.72D-07    CP:  1.00D+00  1.04D+00  9.31D-01
 E= -155.675556679649     Delta-E=       -0.000000016638 Rises=F Damp=F
 DIIS: error= 2.89D-06 at cycle   4 NSaved=   4.
 NSaved= 4 IEnMin= 4 EnMin= -155.675556679649     IErMin= 4 ErrMin= 2.89D-06
 ErrMax= 2.89D-06  0.00D+00 EMaxC= 1.00D-01 BMatC= 4.87D-10 BMatP= 1.68D-08
 IDIUse=1 WtCom= 1.00D+00 WtEn= 0.00D+00
 Coeff-Com: -0.103D-01 0.341D-01 0.140D+00 0.836D+00
 Coeff:     -0.103D-01 0.341D-01 0.140D+00 0.836D+00
 Gap=     0.295 Goal=   None    Shift=    0.000
 RMSDP=6.28D-08 MaxDP=1.80D-06 DE=-1.66D-08 OVMax= 1.94D-05

 Cycle  10  Pass 1  IDiag  1:
 RMSU=  4.68D-08    CP:  1.00D+00  1.04D+00  9.99D-01  1.06D+00
 E= -155.675556680416     Delta-E=       -0.000000000767 Rises=F Damp=F
 DIIS: error= 5.08D-07 at cycle   5 NSaved=   5.
 NSaved= 5 IEnMin= 5 EnMin= -155.675556680416     IErMin= 5 ErrMin= 5.08D-07
 ErrMax= 5.08D-07  0.00D+00 EMaxC= 1.00D-01 BMatC= 6.62D-11 BMatP= 4.87D-10
 IDIUse=1 WtCom= 1.00D+00 WtEn= 0.00D+00
 Coeff-Com: -0.739D-03-0.431D-01-0.319D-01 0.240D+00 0.836D+00
 Coeff:     -0.739D-03-0.431D-01-0.319D-01 0.240D+00 0.836D+00
 Gap=     0.295 Goal=   None    Shift=    0.000
 RMSDP=2.33D-08 MaxDP=7.42D-07 DE=-7.67D-10 OVMax= 7.13D-06

 Cycle  11  Pass 1  IDiag  1:
 RMSU=  1.66D-08    CP:  1.00D+00  1.04D+00  1.02D+00  1.14D+00  1.08D+00
 E= -155.675556680517     Delta-E=       -0.000000000101 Rises=F Damp=F
 DIIS: error= 1.64D-07 at cycle   6 NSaved=   6.
 NSaved= 6 IEnMin= 6 EnMin= -155.675556680517     IErMin= 6 ErrMin= 1.64D-07
 ErrMax= 1.64D-07  0.00D+00 EMaxC= 1.00D-01 BMatC= 6.96D-12 BMatP= 6.62D-11
 IDIUse=1 WtCom= 1.00D+00 WtEn= 0.00D+00
 Coeff-Com:  0.639D-03-0.206D-01-0.255D-01 0.184D-01 0.317D+00 0.710D+00
 Coeff:      0.639D-03-0.206D-01-0.255D-01 0.184D-01 0.317D+00 0.710D+00
 Gap=     0.295 Goal=   None    Shift=    0.000
 RMSDP=5.72D-09 MaxDP=1.82D-07 DE=-1.01D-10 OVMax= 1.34D-06

 SCF Done:  E(RB2PLYPD3) =  -155.675556681     A.U. after   11 cycles
            NFock= 11  Conv=0.57D-08     -V/T= 2.0044
 KE= 1.549862156357D+02 PE=-5.678768750139D+02 EE= 1.536630754762D+02
 Leave Link  502 at Wed Aug 26 12:57:57 2020, MaxMem=  2097152000 cpu:      1235.0
 (Enter /opt/cluster/programs/g09/g09_d.01/g09/l801.exe)
 DoSCS=T DFT=T ScalE2(SS,OS)=  0.270000  0.270000
 ExpMin= 7.60D-02 ExpMax= 6.70D+04 ExpMxC= 6.47D+02 IAcc=3 IRadAn=         5 AccDes= 0.00D+00
 HarFok:  IExCor=  205 AccDes= 0.00D+00 IRadAn=         5 IDoV=-2 UseB2=F ITyADJ=14
 ICtDFT= 12500011 ScaDFX=  1.000000  1.000000  1.000000  1.000000
 Largest valence mixing into a core orbital is  1.12D-04
 Largest core mixing into a valence orbital is  2.06D-05
 Range of M.O.s used for correlation:     5   408
 NBasis=   408 NAE=    15 NBE=    15 NFC=     4 NFV=     0
 NROrb=    404 NOA=    11 NOB=    11 NVA=   393 NVB=   393

 **** Warning!!: The largest alpha MO coefficient is  0.32547770D+02

 Leave Link  801 at Wed Aug 26 12:57:57 2020, MaxMem=  2097152000 cpu:         0.8
 (Enter /opt/cluster/programs/g09/g09_d.01/g09/l906.exe)
 DoSCS=T DFT=T ScalE2(SS,OS)=  0.270000  0.270000
 FulOut=F Deriv=F AODrv=F NAtomX=    10
   MMem=         881  MDisk=          11 MDiskD=          11
  W3Min=     2152854 MinDsk=     3857222 NBas6D=         498
 NBas2D=      125763    NTT=      124251    LW2=     4508827
    MDV=  2096384642 MDiskM=        9345 NBas2p=      117115
 Fully direct method using O(OVN) memory.
 IMap=   1   2   3   4   5   6   7   8   9  10  11
 JobTyp=1 Pass  1:  I=   1 to  11 NPSUse=  8 ParTrn=T ParDer=T DoDerP=F.
 Spin components of T(2) and E(2):
     alpha-alpha T2 =       0.4265255604D-01 E2=     -0.2556935796D-01
     alpha-beta  T2 =       0.2769462630D+00 E2=     -0.1758800984D+00
     beta-beta   T2 =       0.4265255604D-01 E2=     -0.2556935796D-01
 The integrals were generated   1 times.
 E2(B2PLYPD3) =    -0.2270188143D+00 E(B2PLYPD3) =    -0.15590257549482D+03
 Leave Link  906 at Wed Aug 26 12:59:31 2020, MaxMem=  2097152000 cpu:       752.9
 (Enter /opt/cluster/programs/g09/g09_d.01/g09/l601.exe)
 Copying SCF densities to generalized density rwf, IOpCl= 0 IROHF=0.

 **********************************************************************

            Population analysis using the SCF density.

 **********************************************************************

 Orbital symmetries:
       Occupied  (A) (A) (A) (A) (A) (A) (A) (A) (A) (A) (A) (A)
                 (A) (A) (A)
       Virtual   (A) (A) (A) (A) (A) (A) (A) (A) (A) (A) (A) (A)
                 (A) (A) (A) (A) (A) (A) (A) (A) (A) (A) (A) (A)
                 (A) (A) (A) (A) (A) (A) (A) (A) (A) (A) (A) (A)
                 (A) (A) (A) (A) (A) (A) (A) (A) (A) (A) (A) (A)
                 (A) (A) (A) (A) (A) (A) (A) (A) (A) (A) (A) (A)
                 (A) (A) (A) (A) (A) (A) (A) (A) (A) (A) (A) (A)
                 (A) (A) (A) (A) (A) (A) (A) (A) (A) (A) (A) (A)
                 (A) (A) (A) (A) (A) (A) (A) (A) (A) (A) (A) (A)
                 (A) (A) (A) (A) (A) (A) (A) (A) (A) (A) (A) (A)
                 (A) (A) (A) (A) (A) (A) (A) (A) (A) (A) (A) (A)
                 (A) (A) (A) (A) (A) (A) (A) (A) (A) (A) (A) (A)
                 (A) (A) (A) (A) (A) (A) (A) (A) (A) (A) (A) (A)
                 (A) (A) (A) (A) (A) (A) (A) (A) (A) (A) (A) (A)
                 (A) (A) (A) (A) (A) (A) (A) (A) (A) (A) (A) (A)
                 (A) (A) (A) (A) (A) (A) (A) (A) (A) (A) (A) (A)
                 (A) (A) (A) (A) (A) (A) (A) (A) (A) (A) (A) (A)
                 (A) (A) (A) (A) (A) (A) (A) (A) (A) (A) (A) (A)
                 (A) (A) (A) (A) (A) (A) (A) (A) (A) (A) (A) (A)
                 (A) (A) (A) (A) (A) (A) (A) (A) (A) (A) (A) (A)
                 (A) (A) (A) (A) (A) (A) (A) (A) (A) (A) (A) (A)
                 (A) (A) (A) (A) (A) (A) (A) (A) (A) (A) (A) (A)
                 (A) (A) (A) (A) (A) (A) (A) (A) (A) (A) (A) (A)
                 (A) (A) (A) (A) (A) (A) (A) (A) (A) (A) (A) (A)
                 (A) (A) (A) (A) (A) (A) (A) (A) (A) (A) (A) (A)
                 (A) (A) (A) (A) (A) (A) (A) (A) (A) (A) (A) (A)
                 (A) (A) (A) (A) (A) (A) (A) (A) (A) (A) (A) (A)
                 (A) (A) (A) (A) (A) (A) (A) (A) (A) (A) (A) (A)
                 (A) (A) (A) (A) (A) (A) (A) (A) (A) (A) (A) (A)
                 (A) (A) (A) (A) (A) (A) (A) (A) (A) (A) (A) (A)
                 (A) (A) (A) (A) (A) (A) (A) (A) (A) (A) (A) (A)
                 (A) (A) (A) (A) (A) (A) (A) (A) (A) (A) (A) (A)
                 (A) (A) (A) (A) (A) (A) (A) (A) (A) (A) (A) (A)
                 (A) (A) (A) (A) (A) (A) (A) (A) (A)
 The electronic state is 1-A.
 Alpha  occ. eigenvalues --  -10.63752 -10.63171 -10.61804 -10.61345  -0.93169
 Alpha  occ. eigenvalues --   -0.85441  -0.70719  -0.61888  -0.55205  -0.53670
 Alpha  occ. eigenvalues --   -0.46681  -0.44027  -0.40210  -0.37932  -0.28110
 Alpha virt. eigenvalues --    0.01434   0.06639   0.07143   0.07632   0.09774
 Alpha virt. eigenvalues --    0.11135   0.12511   0.14748   0.15478   0.16405
 Alpha virt. eigenvalues --    0.18767   0.19483   0.21990   0.22232   0.23290
 Alpha virt. eigenvalues --    0.26377   0.26722   0.29139   0.30237   0.32312
 Alpha virt. eigenvalues --    0.33661   0.34398   0.37140   0.37966   0.39243
 Alpha virt. eigenvalues --    0.41055   0.42647   0.45552   0.46549   0.48443
 Alpha virt. eigenvalues --    0.49996   0.50669   0.52890   0.54560   0.56919
 Alpha virt. eigenvalues --    0.60014   0.63133   0.65264   0.66136   0.68618
 Alpha virt. eigenvalues --    0.69641   0.71592   0.75620   0.76267   0.77837
 Alpha virt. eigenvalues --    0.79079   0.81244   0.82387   0.82929   0.83924
 Alpha virt. eigenvalues --    0.84802   0.86309   0.86769   0.88316   0.89619
 Alpha virt. eigenvalues --    0.90632   0.92899   0.93817   0.96649   0.97086
 Alpha virt. eigenvalues --    0.97647   0.99208   0.99597   1.03321   1.05365
 Alpha virt. eigenvalues --    1.06367   1.06949   1.09187   1.10789   1.11509
 Alpha virt. eigenvalues --    1.13327   1.15468   1.18064   1.20995   1.23676
 Alpha virt. eigenvalues --    1.25585   1.27171   1.30483   1.32252   1.36018
 Alpha virt. eigenvalues --    1.37626   1.39250   1.47630   1.53162   1.59049
 Alpha virt. eigenvalues --    1.60485   1.61456   1.65584   1.69379   1.73991
 Alpha virt. eigenvalues --    1.76527   1.81808   1.83583   1.85736   1.87575
 Alpha virt. eigenvalues --    1.90454   1.91216   1.92731   1.95284   1.96022
 Alpha virt. eigenvalues --    1.97067   1.98891   2.00537   2.01657   2.03098
 Alpha virt. eigenvalues --    2.05137   2.06186   2.07808   2.09094   2.10898
 Alpha virt. eigenvalues --    2.11537   2.12226   2.15363   2.16558   2.20329
 Alpha virt. eigenvalues --    2.21771   2.22379   2.24405   2.27656   2.28547
 Alpha virt. eigenvalues --    2.30113   2.31696   2.33746   2.39521   2.40426
 Alpha virt. eigenvalues --    2.41628   2.43397   2.44078   2.45702   2.47417
 Alpha virt. eigenvalues --    2.50754   2.52565   2.53608   2.55167   2.56542
 Alpha virt. eigenvalues --    2.57685   2.58325   2.59885   2.62238   2.66086
 Alpha virt. eigenvalues --    2.67301   2.67786   2.70539   2.71622   2.72868
 Alpha virt. eigenvalues --    2.74006   2.75466   2.78525   2.79765   2.81819
 Alpha virt. eigenvalues --    2.82666   2.85888   2.88418   2.91172   2.92600
 Alpha virt. eigenvalues --    2.94808   2.96280   3.02453   3.03990   3.06478
 Alpha virt. eigenvalues --    3.06793   3.11211   3.21652   3.28486   3.29673
 Alpha virt. eigenvalues --    3.33289   3.35490   3.36271   3.39599   3.42630
 Alpha virt. eigenvalues --    3.46605   3.47371   3.48749   3.50687   3.51745
 Alpha virt. eigenvalues --    3.58691   3.60748   3.63237   3.64839   3.70164
 Alpha virt. eigenvalues --    3.74872   3.81469   3.85906   3.87905   3.90581
 Alpha virt. eigenvalues --    3.92692   3.94384   3.95866   4.05126   4.12649
 Alpha virt. eigenvalues --    4.15803   4.19140   4.19714   4.21846   4.36601
 Alpha virt. eigenvalues --    4.41985   4.57157   4.64051   4.78502   5.01580
 Alpha virt. eigenvalues --    5.03598   5.04290   5.05178   5.08230   5.12671
 Alpha virt. eigenvalues --    5.14187   5.20337   5.24808   5.27743   5.29905
 Alpha virt. eigenvalues --    5.30899   5.37154   5.41664   5.46235   5.49239
 Alpha virt. eigenvalues --    5.51123   5.55062   5.59121   5.62374   5.66739
 Alpha virt. eigenvalues --    5.67860   5.70353   5.72718   5.75052   5.75506
 Alpha virt. eigenvalues --    5.77052   5.79585   5.80646   5.85157   5.86818
 Alpha virt. eigenvalues --    5.89684   5.91383   5.92789   5.97752   6.00528
 Alpha virt. eigenvalues --    6.02651   6.03061   6.05483   6.07374   6.10137
 Alpha virt. eigenvalues --    6.12861   6.13219   6.14445   6.15437   6.16048
 Alpha virt. eigenvalues --    6.17521   6.21562   6.22020   6.23123   6.26071
 Alpha virt. eigenvalues --    6.27153   6.29111   6.30310   6.33582   6.35760
 Alpha virt. eigenvalues --    6.39640   6.40913   6.41584   6.44554   6.46707
 Alpha virt. eigenvalues --    6.48283   6.50191   6.53461   6.56385   6.59066
 Alpha virt. eigenvalues --    6.59793   6.61645   6.63099   6.68649   6.74503
 Alpha virt. eigenvalues --    6.77576   6.80075   6.85130   6.85831   6.90142
 Alpha virt. eigenvalues --    6.91809   6.93811   6.95880   7.00626   7.07110
 Alpha virt. eigenvalues --    7.09490   7.12866   7.16209   7.18127   7.23240
 Alpha virt. eigenvalues --    7.24534   7.28357   7.30955   7.38599   7.39941
 Alpha virt. eigenvalues --    7.40241   7.45385   7.46291   7.48797   7.51696
 Alpha virt. eigenvalues --    7.55902   7.58270   7.60439   7.63457   7.67407
 Alpha virt. eigenvalues --    7.69674   7.70116   7.71604   7.74695   7.75283
 Alpha virt. eigenvalues --    7.79617   7.80519   7.84728   7.86636   7.87166
 Alpha virt. eigenvalues --    7.92210   7.94613   7.97401   8.00263   8.10043
 Alpha virt. eigenvalues --    8.12228   8.13841   8.14721   8.17175   8.20994
 Alpha virt. eigenvalues --    8.25192   8.27683   8.29146   8.31712   8.32906
 Alpha virt. eigenvalues --    8.36153   8.36863   8.39938   8.42024   8.44625
 Alpha virt. eigenvalues --    8.45988   8.46794   8.50356   8.52918   8.53323
 Alpha virt. eigenvalues --    8.56771   8.57803   8.59389   8.62084   8.66705
 Alpha virt. eigenvalues --    8.70559   8.72229   8.73069   8.77410   8.88330
 Alpha virt. eigenvalues --    8.89390   8.91900   8.96868   8.97031   9.04398
 Alpha virt. eigenvalues --    9.08504   9.11301   9.14884   9.19459   9.30113
 Alpha virt. eigenvalues --    9.34475   9.47186   9.51421   9.59857   9.67185
 Alpha virt. eigenvalues --    9.67434   9.76191   9.83813   9.89232   9.94176
 Alpha virt. eigenvalues --    9.98692  10.01264  10.10499  10.16772  10.21597
 Alpha virt. eigenvalues --   10.30505  10.40708  10.44485  10.77547  10.83452
 Alpha virt. eigenvalues --   10.96579  11.06982  11.36255  11.47305  11.78354
 Alpha virt. eigenvalues --   11.90295  12.22369  12.73718  13.00464  13.10698
 Alpha virt. eigenvalues --   28.46744  28.81242  29.42993  29.71197 148.06021
 Alpha virt. eigenvalues --  148.39147 149.02611 149.32448
          Condensed to atoms (all electrons):
               1          2          3          4          5          6
     1  C    4.847825   0.611074  -0.085493  -0.002468   0.426573   0.417978
     2  C    0.611074   4.885218   0.367542  -0.080308  -0.051900  -0.045794
     3  C   -0.085493   0.367542   4.852052   0.614429   0.008041  -0.006514
     4  C   -0.002468  -0.080308   0.614429   4.842842  -0.000660   0.000425
     5  H    0.426573  -0.051900   0.008041  -0.000660   0.600461  -0.045121
     6  H    0.417978  -0.045794  -0.006514   0.000425  -0.045121   0.601830
     7  H   -0.052138   0.406954  -0.048629   0.000031  -0.016101   0.009059
     8  H   -0.004097  -0.063406   0.415675  -0.052424  -0.000076   0.005309
     9  H    0.000109  -0.005247  -0.040269   0.418305  -0.000025   0.000068
    10  H   -0.000548   0.006837  -0.049153   0.428826   0.000027  -0.000045
               7          8          9         10
     1  C   -0.052138  -0.004097   0.000109  -0.000548
     2  C    0.406954  -0.063406  -0.005247   0.006837
     3  C   -0.048629   0.415675  -0.040269  -0.049153
     4  C    0.000031  -0.052424   0.418305   0.428826
     5  H   -0.016101  -0.000076  -0.000025   0.000027
     6  H    0.009059   0.005309   0.000068  -0.000045
     7  H    0.645982   0.006333   0.003329  -0.000263
     8  H    0.006333   0.644812   0.008553  -0.012256
     9  H    0.003329   0.008553   0.609963  -0.054608
    10  H   -0.000263  -0.012256  -0.054608   0.593151
 Mulliken charges:
               1
     1  C   -0.158815
     2  C   -0.030971
     3  C   -0.027681
     4  C   -0.168997
     5  H    0.078781
     6  H    0.062807
     7  H    0.045443
     8  H    0.051578
     9  H    0.059821
    10  H    0.088033
 Sum of Mulliken charges =   0.00000
 Mulliken charges with hydrogens summed into heavy atoms:
               1
     1  C   -0.017227
     2  C    0.014473
     3  C    0.023897
     4  C   -0.021142
 Electronic spatial extent (au):  <R**2>=            339.0267
 Charge=              0.0000 electrons
 Dipole moment (field-independent basis, Debye):
    X=              0.0249    Y=             -0.0179    Z=              0.0100  Tot=              0.0323
 Quadrupole moment (field-independent basis, Debye-Ang):
   XX=            -23.1590   YY=            -23.5556   ZZ=            -29.1778
   XY=             -0.0665   XZ=              0.5549   YZ=             -0.0778
 Traceless Quadrupole moment (field-independent basis, Debye-Ang):
   XX=              2.1385   YY=              1.7418   ZZ=             -3.8803
   XY=             -0.0665   XZ=              0.5549   YZ=             -0.0778
 Octapole moment (field-independent basis, Debye-Ang**2):
  XXX=              3.4707  YYY=             -0.2214  ZZZ=             -0.0076  XYY=             -0.9211
  XXY=              0.8864  XXZ=             -1.0782  XZZ=              0.1726  YZZ=             -0.1515
  YYZ=              0.4456  XYZ=             -1.1195
 Hexadecapole moment (field-independent basis, Debye-Ang**3):
 XXXX=           -347.1989 YYYY=            -68.7875 ZZZZ=            -37.3942 XXXY=             -3.9595
 XXXZ=              5.0221 YYYX=              0.5824 YYYZ=              0.1485 ZZZX=              0.9931
 ZZZY=             -0.1960 XXYY=            -68.4595 XXZZ=            -77.0748 YYZZ=            -19.7247
 XXYZ=             -0.7526 YYXZ=              0.4414 ZZXY=              0.3840
 N-N= 1.035520272214D+02 E-N=-5.678768733720D+02  KE= 1.549862156357D+02
 Leave Link  601 at Wed Aug 26 12:59:32 2020, MaxMem=  2097152000 cpu:         0.7
 (Enter /opt/cluster/programs/g09/g09_d.01/g09/l9999.exe)
 1\1\GINC-NODE27\SP\RB2PLYPD3-FC\def2QZVP\C4H6\BOITTIER\26-Aug-2020\0\\
 #p B2PLYPD3/Def2QZVP\\butadiene\\0,1\C,0,-3.823911,0.251985,0.026398\C
 ,0,-2.737325,-0.507322,0.005922\C,0,-1.403083,0.007825,0.000786\C,0,-0
 .237071,-0.61156,0.062679\H,0,-4.768273,-0.270733,0.152179\H,0,-3.8045
 14,1.351296,0.193785\H,0,-3.057943,-1.677793,-0.148768\H,0,-1.350691,1
 .12517,-0.228072\H,0,-0.083193,-1.699614,0.224639\H,0,0.685938,-0.1593
 52,-0.074163\\Version=ES64L-G09RevD.01\State=1-A\HF=-155.6755567\MP2=-
 155.9025755\RMSD=5.724e-09\PG=C01 [X(C4H6)]\\@


 CHEMISTRY BEGAN BY SAYING IT WOULD CHANGE THE BASER
 METALS INTO GOLD.  BY NOT DOING THAT IT HAS DONE MUCH
 GREATER THINGS.  --  RALPH WALDO EMERSON
 Job cpu time:       0 days  0 hours 33 minutes 22.8 seconds.
 File lengths (MBytes):  RWF=     92 Int=      0 D2E=      0 Chk=      9 Scr=      1
 Normal termination of Gaussian 09 at Wed Aug 26 12:59:32 2020.
