 Entering Gaussian System, Link 0=/opt/cluster/programs/g09/g09_d.01/g09//g09
 Input=/home/boittier/MDCM/nms_sampling/butadiene_geom.xyz.dir/energies/butadiene_2610_energy.com
 Output=/scratch/boittier/butadiene_2610_energy/butadiene_2610_energy.out
 Initial command:
 /opt/cluster/programs/g09/g09_d.01/g09/l1.exe "/scratch/boittier/butadiene_2610_energy/Gau-113540.inp" -scrdir="/scratch/boittier/butadiene_2610_energy/"
 Entering Link 1 = /opt/cluster/programs/g09/g09_d.01/g09/l1.exe PID=    113541.
  
 Copyright (c) 1988,1990,1992,1993,1995,1998,2003,2009,2013,
            Gaussian, Inc.  All Rights Reserved.
  
 This is part of the Gaussian(R) 09 program.  It is based on
 the Gaussian(R) 03 system (copyright 2003, Gaussian, Inc.),
 the Gaussian(R) 98 system (copyright 1998, Gaussian, Inc.),
 the Gaussian(R) 94 system (copyright 1995, Gaussian, Inc.),
 the Gaussian 92(TM) system (copyright 1992, Gaussian, Inc.),
 the Gaussian 90(TM) system (copyright 1990, Gaussian, Inc.),
 the Gaussian 88(TM) system (copyright 1988, Gaussian, Inc.),
 the Gaussian 86(TM) system (copyright 1986, Carnegie Mellon
 University), and the Gaussian 82(TM) system (copyright 1983,
 Carnegie Mellon University). Gaussian is a federally registered
 trademark of Gaussian, Inc.
  
 This software contains proprietary and confidential information,
 including trade secrets, belonging to Gaussian, Inc.
  
 This software is provided under written license and may be
 used, copied, transmitted, or stored only in accord with that
 written license.
  
 The following legend is applicable only to US Government
 contracts under FAR:
  
                    RESTRICTED RIGHTS LEGEND
  
 Use, reproduction and disclosure by the US Government is
 subject to restrictions as set forth in subparagraphs (a)
 and (c) of the Commercial Computer Software - Restricted
 Rights clause in FAR 52.227-19.
  
 Gaussian, Inc.
 340 Quinnipiac St., Bldg. 40, Wallingford CT 06492
  
  
 ---------------------------------------------------------------
 Warning -- This program may not be used in any manner that
 competes with the business of Gaussian, Inc. or will provide
 assistance to any competitor of Gaussian, Inc.  The licensee
 of this program is prohibited from giving any competitor of
 Gaussian, Inc. access to this program.  By using this program,
 the user acknowledges that Gaussian, Inc. is engaged in the
 business of creating and licensing software in the field of
 computational chemistry and represents and warrants to the
 licensee that it is not a competitor of Gaussian, Inc. and that
 it will not use this program in any manner prohibited above.
 ---------------------------------------------------------------
  

 Cite this work as:
 Gaussian 09, Revision D.01,
 M. J. Frisch, G. W. Trucks, H. B. Schlegel, G. E. Scuseria, 
 M. A. Robb, J. R. Cheeseman, G. Scalmani, V. Barone, B. Mennucci, 
 G. A. Petersson, H. Nakatsuji, M. Caricato, X. Li, H. P. Hratchian, 
 A. F. Izmaylov, J. Bloino, G. Zheng, J. L. Sonnenberg, M. Hada, 
 M. Ehara, K. Toyota, R. Fukuda, J. Hasegawa, M. Ishida, T. Nakajima, 
 Y. Honda, O. Kitao, H. Nakai, T. Vreven, J. A. Montgomery, Jr., 
 J. E. Peralta, F. Ogliaro, M. Bearpark, J. J. Heyd, E. Brothers, 
 K. N. Kudin, V. N. Staroverov, T. Keith, R. Kobayashi, J. Normand, 
 K. Raghavachari, A. Rendell, J. C. Burant, S. S. Iyengar, J. Tomasi, 
 M. Cossi, N. Rega, J. M. Millam, M. Klene, J. E. Knox, J. B. Cross, 
 V. Bakken, C. Adamo, J. Jaramillo, R. Gomperts, R. E. Stratmann, 
 O. Yazyev, A. J. Austin, R. Cammi, C. Pomelli, J. W. Ochterski, 
 R. L. Martin, K. Morokuma, V. G. Zakrzewski, G. A. Voth, 
 P. Salvador, J. J. Dannenberg, S. Dapprich, A. D. Daniels, 
 O. Farkas, J. B. Foresman, J. V. Ortiz, J. Cioslowski, 
 and D. J. Fox, Gaussian, Inc., Wallingford CT, 2013.
 
 ******************************************
 Gaussian 09:  ES64L-G09RevD.01 24-Apr-2013
                26-Aug-2020 
 ******************************************
 %chk=/home/boittier/MDCM/nms_sampling/butadiene_geom.xyz.dir/butadiene_2610.chk
 %nproc=8
 Will use up to    8 processors via shared memory.
 %mem=16000MB
 --------------------
 #p B2PLYPD3/Def2QZVP
 --------------------
 1/38=1/1;
 2/12=2,17=6,18=5,40=1/2;
 3/5=45,7=101,11=9,16=1,25=1,30=1,74=-60/1,2,3;
 4//1;
 5/5=2,38=5/2;
 8/10=1/1;
 9/16=-3/6;
 6/7=2,8=2,9=2,10=2/1;
 99/5=1,9=1/99;
 Leave Link    1 at Wed Aug 26 14:51:43 2020, MaxMem=  2097152000 cpu:         0.5
 (Enter /opt/cluster/programs/g09/g09_d.01/g09/l101.exe)
 ---------
 butadiene
 ---------
 Symbolic Z-matrix:
 Charge =  0 Multiplicity = 1
 C                    -3.85222   0.20538  -0.02502 
 C                    -2.71982  -0.47741   0.09449 
 C                    -1.366     0.11962   0.05733 
 C                    -0.27459  -0.67058  -0.01967 
 H                    -4.74865  -0.41782  -0.13914 
 H                    -3.91123   1.32577  -0.14546 
 H                    -2.65575  -1.59667   0.34016 
 H                    -1.28017   1.20708   0.19528 
 H                    -0.43494  -1.7879   -0.12804 
 H                     0.77841  -0.41902   0.00156 
 
 NAtoms=     10 NQM=       10 NQMF=       0 NMMI=      0 NMMIF=      0
                NMic=       0 NMicF=      0.
                    Isotopes and Nuclear Properties:
 (Nuclear quadrupole moments (NQMom) in fm**2, nuclear magnetic moments (NMagM)
  in nuclear magnetons)

  Atom         1           2           3           4           5           6           7           8           9          10
 IAtWgt=          12          12          12          12           1           1           1           1           1           1
 AtmWgt=  12.0000000  12.0000000  12.0000000  12.0000000   1.0078250   1.0078250   1.0078250   1.0078250   1.0078250   1.0078250
 NucSpn=           0           0           0           0           1           1           1           1           1           1
 AtZEff=   0.0000000   0.0000000   0.0000000   0.0000000   0.0000000   0.0000000   0.0000000   0.0000000   0.0000000   0.0000000
 NQMom=    0.0000000   0.0000000   0.0000000   0.0000000   0.0000000   0.0000000   0.0000000   0.0000000   0.0000000   0.0000000
 NMagM=    0.0000000   0.0000000   0.0000000   0.0000000   2.7928460   2.7928460   2.7928460   2.7928460   2.7928460   2.7928460
 AtZNuc=   6.0000000   6.0000000   6.0000000   6.0000000   1.0000000   1.0000000   1.0000000   1.0000000   1.0000000   1.0000000
 Leave Link  101 at Wed Aug 26 14:51:44 2020, MaxMem=  2097152000 cpu:         1.3
 (Enter /opt/cluster/programs/g09/g09_d.01/g09/l202.exe)
                          Input orientation:                          
 ---------------------------------------------------------------------
 Center     Atomic      Atomic             Coordinates (Angstroms)
 Number     Number       Type             X           Y           Z
 ---------------------------------------------------------------------
      1          6           0       -3.852217    0.205380   -0.025016
      2          6           0       -2.719822   -0.477411    0.094487
      3          6           0       -1.365995    0.119615    0.057326
      4          6           0       -0.274588   -0.670583   -0.019674
      5          1           0       -4.748648   -0.417820   -0.139137
      6          1           0       -3.911232    1.325773   -0.145455
      7          1           0       -2.655754   -1.596674    0.340161
      8          1           0       -1.280165    1.207076    0.195278
      9          1           0       -0.434941   -1.787904   -0.128040
     10          1           0        0.778409   -0.419017    0.001556
 ---------------------------------------------------------------------
                    Distance matrix (angstroms):
                    1          2          3          4          5
     1  C    0.000000
     2  C    1.327706   0.000000
     3  C    2.489063   1.480091   0.000000
     4  C    3.683310   2.455508   1.349634   0.000000
     5  H    1.097721   2.043102   3.430711   4.482786   0.000000
     6  H    1.128392   2.174512   2.823857   4.150474   1.934276
     7  H    2.193690   1.147698   2.165438   2.580131   2.449414
     8  H    2.769003   2.218168   1.099531   2.140793   3.844801
     9  H    3.957470   2.643405   2.130693   1.133959   4.526071
    10  H    4.672609   3.499952   2.211720   1.082838   5.528848
                    6          7          8          9         10
     6  H    0.000000
     7  H    3.217568   0.000000
     8  H    2.655692   3.126380   0.000000
     9  H    4.666893   2.277672   3.128713   0.000000
    10  H    5.005860   3.646232   2.630482   1.833812   0.000000
 Stoichiometry    C4H6
 Framework group  C1[X(C4H6)]
 Deg. of freedom    24
 Full point group                 C1      NOp   1
 Largest Abelian subgroup         C1      NOp   1
 Largest concise Abelian subgroup C1      NOp   1
                         Standard orientation:                         
 ---------------------------------------------------------------------
 Center     Atomic      Atomic             Coordinates (Angstroms)
 Number     Number       Type             X           Y           Z
 ---------------------------------------------------------------------
      1          6           0       -1.849204    0.087936   -0.039838
      2          6           0       -0.609853   -0.376452    0.065779
      3          6           0        0.610675    0.460273    0.036289
      4          6           0        1.828530   -0.113975   -0.056332
      5          1           0       -2.616106   -0.687758   -0.162928
      6          1           0       -2.114134    1.180119   -0.140927
      7          1           0       -0.339535   -1.468661    0.292093
      8          1           0        0.495475    1.542507    0.192713
      9          1           0        1.876130   -1.239770   -0.183545
     10          1           0        2.817286    0.326871   -0.032793
 ---------------------------------------------------------------------
 Rotational constants (GHZ):     39.1142033      4.4431274      4.0107526
 Leave Link  202 at Wed Aug 26 14:51:44 2020, MaxMem=  2097152000 cpu:         0.1
 (Enter /opt/cluster/programs/g09/g09_d.01/g09/l301.exe)
 Standard basis: def2QZVP (5D, 7F)
 Ernie: Thresh=  0.10000D-02 Tol=  0.10000D-05 Strict=F.
 There are   498 symmetry adapted cartesian basis functions of A   symmetry.
 There are   408 symmetry adapted basis functions of A   symmetry.
   408 basis functions,   596 primitive gaussians,   498 cartesian basis functions
    15 alpha electrons       15 beta electrons
       nuclear repulsion energy       102.8978361761 Hartrees.
 IExCor=  419 DFT=T Ex+Corr=B2PLYPD3 ExCW=0 ScaHFX=  0.530000
 ScaDFX=  0.470000  0.470000  0.730000  0.730000 ScalE2=  0.270000  0.270000
 IRadAn=      0 IRanWt=     -1 IRanGd=            0 ICorTp=0 IEmpDi=141
 NAtoms=   10 NActive=   10 NUniq=   10 SFac= 1.00D+00 NAtFMM=   60 NAOKFM=F Big=F
 Integral buffers will be    131072 words long.
 Regular integral format.
 Two-electron integral symmetry is turned on.
 R6Disp:  Grimme-D3(BJ) Dispersion energy=       -0.0048216934 Hartrees.
 Nuclear repulsion after empirical dispersion term =      102.8930144827 Hartrees.
 Leave Link  301 at Wed Aug 26 14:51:44 2020, MaxMem=  2097152000 cpu:         1.1
 (Enter /opt/cluster/programs/g09/g09_d.01/g09/l302.exe)
 NPDir=0 NMtPBC=     1 NCelOv=     1 NCel=       1 NClECP=     1 NCelD=      1
         NCelK=      1 NCelE2=     1 NClLst=     1 CellRange=     0.0.
 One-electron integrals computed using PRISM.
   1 Symmetry operations used in ECPInt.
 ECPInt:  NShTT=    8256 NPrTT=   19107 LenC2=    8060 LenP2D=   16095.
 LDataN:  DoStor=T MaxTD1= 8 Len=  415
 NBasis=   408 RedAO= T EigKep=  4.74D-05  NBF=   408
 NBsUse=   408 1.00D-06 EigRej= -1.00D+00 NBFU=   408
 Precomputing XC quadrature grid using
 IXCGrd= 4 IRadAn=           0 IRanWt=          -1 IRanGd=           0 AccXCQ= 0.00D+00.
 Generated NRdTot=       0 NPtTot=           0 NUsed=           0 NTot=          32
 NSgBfM=   498   498   498   498   498 MxSgAt=    10 MxSgA2=    10.
 Leave Link  302 at Wed Aug 26 14:51:45 2020, MaxMem=  2097152000 cpu:         5.5
 (Enter /opt/cluster/programs/g09/g09_d.01/g09/l303.exe)
 DipDrv:  MaxL=1.
 Leave Link  303 at Wed Aug 26 14:51:45 2020, MaxMem=  2097152000 cpu:         0.8
 (Enter /opt/cluster/programs/g09/g09_d.01/g09/l401.exe)
 ExpMin= 7.60D-02 ExpMax= 6.70D+04 ExpMxC= 6.47D+02 IAcc=2 IRadAn=         4 AccDes= 0.00D+00
 Harris functional with IExCor=  419 and IRadAn=       4 diagonalized for initial guess.
 HarFok:  IExCor=  419 AccDes= 0.00D+00 IRadAn=         4 IDoV= 1 UseB2=F ITyADJ=14
 ICtDFT=  3500011 ScaDFX=  1.000000  1.000000  1.000000  1.000000
 FoFCou: FMM=F IPFlag=           0 FMFlag=      100000 FMFlg1=           0
         NFxFlg=           0 DoJE=T BraDBF=F KetDBF=T FulRan=T
         wScrn=  0.000000 ICntrl=     500 IOpCl=  0 I1Cent=   200000004 NGrid=           0
         NMat0=    1 NMatS0=      1 NMatT0=    0 NMatD0=    1 NMtDS0=    0 NMtDT0=    0
 Petite list used in FoFCou.
 Harris En= -156.109553883535    
 JPrj=0 DoOrth=F DoCkMO=F.
 Leave Link  401 at Wed Aug 26 14:51:46 2020, MaxMem=  2097152000 cpu:        12.4
 (Enter /opt/cluster/programs/g09/g09_d.01/g09/l502.exe)
 Closed shell SCF:
 Using DIIS extrapolation, IDIIS=  1040.
 Integral symmetry usage will be decided dynamically.
 IVT=      770090 IEndB=      770090 NGot=  2097152000 MDV=  2096647053
 LenX=  2096647053 LenY=  2096398551
 Requested convergence on RMS density matrix=1.00D-08 within 128 cycles.
 Requested convergence on MAX density matrix=1.00D-06.
 Requested convergence on             energy=1.00D-06.
 No special actions if energy rises.
 Fock matrices will be formed incrementally for  20 cycles.
 Integral accuracy reduced to 1.0D-05 until final iterations.

 Cycle   1  Pass 0  IDiag  1:
 FoFJK:  IHMeth= 1 ICntrl=       0 DoSepK=F KAlg= 0 I1Cent=   0 FoldK=F
 IRaf= 940000000 NMat=   1 IRICut=       1 DoRegI=T DoRafI=F ISym2E= 0.
 FoFCou: FMM=F IPFlag=           0 FMFlag=      100000 FMFlg1=           0
         NFxFlg=           0 DoJE=F BraDBF=F KetDBF=F FulRan=T
         wScrn=  0.000000 ICntrl=       0 IOpCl=  0 I1Cent=           0 NGrid=           0
         NMat0=    1 NMatS0=      1 NMatT0=    0 NMatD0=    1 NMtDS0=    0 NMtDT0=    0
 Symmetry not used in FoFCou.
 E= -155.507590095970    
 DIIS: error= 3.00D-02 at cycle   1 NSaved=   1.
 NSaved= 1 IEnMin= 1 EnMin= -155.507590095970     IErMin= 1 ErrMin= 3.00D-02
 ErrMax= 3.00D-02  0.00D+00 EMaxC= 1.00D-01 BMatC= 2.42D-01 BMatP= 2.42D-01
 IDIUse=3 WtCom= 7.00D-01 WtEn= 3.00D-01
 Coeff-Com:  0.100D+01
 Coeff-En:   0.100D+01
 Coeff:      0.100D+01
 Gap=     0.301 Goal=   None    Shift=    0.000
 GapD=    0.301 DampG=1.000 DampE=0.500 DampFc=0.5000 IDamp=-1.
 Damping current iteration by 5.00D-01
 RMSDP=9.44D-04 MaxDP=5.71D-02              OVMax= 1.87D-01

 Cycle   2  Pass 0  IDiag  1:
 RMSU=  4.33D-04    CP:  9.51D-01
 E= -155.601618629730     Delta-E=       -0.094028533760 Rises=F Damp=T
 DIIS: error= 1.08D-02 at cycle   2 NSaved=   2.
 NSaved= 2 IEnMin= 2 EnMin= -155.601618629730     IErMin= 2 ErrMin= 1.08D-02
 ErrMax= 1.08D-02  0.00D+00 EMaxC= 1.00D-01 BMatC= 2.88D-02 BMatP= 2.42D-01
 IDIUse=3 WtCom= 8.92D-01 WtEn= 1.08D-01
 Coeff-Com: -0.291D+00 0.129D+01
 Coeff-En:   0.000D+00 0.100D+01
 Coeff:     -0.259D+00 0.126D+01
 Gap=     0.357 Goal=   None    Shift=    0.000
 RMSDP=2.63D-04 MaxDP=8.65D-03 DE=-9.40D-02 OVMax= 9.26D-02

 Cycle   3  Pass 0  IDiag  1:
 RMSU=  2.53D-04    CP:  9.34D-01  1.07D+00
 E= -155.683521382227     Delta-E=       -0.081902752497 Rises=F Damp=F
 DIIS: error= 4.28D-03 at cycle   3 NSaved=   3.
 NSaved= 3 IEnMin= 3 EnMin= -155.683521382227     IErMin= 3 ErrMin= 4.28D-03
 ErrMax= 4.28D-03  0.00D+00 EMaxC= 1.00D-01 BMatC= 1.94D-03 BMatP= 2.88D-02
 IDIUse=3 WtCom= 9.57D-01 WtEn= 4.28D-02
 Coeff-Com: -0.116D+00 0.227D+00 0.889D+00
 Coeff-En:   0.000D+00 0.000D+00 0.100D+01
 Coeff:     -0.111D+00 0.217D+00 0.894D+00
 Gap=     0.296 Goal=   None    Shift=    0.000
 RMSDP=7.14D-05 MaxDP=4.38D-03 DE=-8.19D-02 OVMax= 2.10D-02

 Cycle   4  Pass 0  IDiag  1:
 RMSU=  5.01D-05    CP:  9.30D-01  1.17D+00  9.26D-01
 E= -155.685099754733     Delta-E=       -0.001578372506 Rises=F Damp=F
 DIIS: error= 2.49D-03 at cycle   4 NSaved=   4.
 NSaved= 4 IEnMin= 4 EnMin= -155.685099754733     IErMin= 4 ErrMin= 2.49D-03
 ErrMax= 2.49D-03  0.00D+00 EMaxC= 1.00D-01 BMatC= 5.55D-04 BMatP= 1.94D-03
 IDIUse=3 WtCom= 9.75D-01 WtEn= 2.49D-02
 Coeff-Com: -0.540D-01 0.888D-01 0.474D+00 0.491D+00
 Coeff-En:   0.000D+00 0.000D+00 0.946D-01 0.905D+00
 Coeff:     -0.526D-01 0.865D-01 0.465D+00 0.501D+00
 Gap=     0.296 Goal=   None    Shift=    0.000
 RMSDP=2.78D-05 MaxDP=1.37D-03 DE=-1.58D-03 OVMax= 8.65D-03

 Cycle   5  Pass 0  IDiag  1:
 RMSU=  1.53D-05    CP:  9.30D-01  1.17D+00  9.67D-01  5.93D-01
 E= -155.685640245280     Delta-E=       -0.000540490547 Rises=F Damp=F
 DIIS: error= 2.55D-04 at cycle   5 NSaved=   5.
 NSaved= 5 IEnMin= 5 EnMin= -155.685640245280     IErMin= 5 ErrMin= 2.55D-04
 ErrMax= 2.55D-04  0.00D+00 EMaxC= 1.00D-01 BMatC= 5.40D-06 BMatP= 5.55D-04
 IDIUse=3 WtCom= 9.97D-01 WtEn= 2.55D-03
 Coeff-Com: -0.355D-02 0.357D-02 0.408D-01 0.110D+00 0.850D+00
 Coeff-En:   0.000D+00 0.000D+00 0.000D+00 0.000D+00 0.100D+01
 Coeff:     -0.354D-02 0.356D-02 0.407D-01 0.109D+00 0.850D+00
 Gap=     0.297 Goal=   None    Shift=    0.000
 RMSDP=3.90D-06 MaxDP=1.40D-04 DE=-5.40D-04 OVMax= 1.14D-03

 Initial convergence to 1.0D-05 achieved.  Increase integral accuracy.
 Cycle   6  Pass 1  IDiag  1:
 E= -155.685639631451     Delta-E=        0.000000613829 Rises=F Damp=F
 DIIS: error= 3.35D-05 at cycle   1 NSaved=   1.
 NSaved= 1 IEnMin= 1 EnMin= -155.685639631451     IErMin= 1 ErrMin= 3.35D-05
 ErrMax= 3.35D-05  0.00D+00 EMaxC= 1.00D-01 BMatC= 4.90D-07 BMatP= 4.90D-07
 IDIUse=1 WtCom= 1.00D+00 WtEn= 0.00D+00
 Coeff-Com:  0.100D+01
 Coeff:      0.100D+01
 Gap=     0.297 Goal=   None    Shift=    0.000
 RMSDP=3.90D-06 MaxDP=1.40D-04 DE= 6.14D-07 OVMax= 3.05D-04

 Cycle   7  Pass 1  IDiag  1:
 RMSU=  2.12D-05    CP:  1.00D+00
 E= -155.685639981560     Delta-E=       -0.000000350109 Rises=F Damp=F
 DIIS: error= 1.78D-05 at cycle   2 NSaved=   2.
 NSaved= 2 IEnMin= 2 EnMin= -155.685639981560     IErMin= 2 ErrMin= 1.78D-05
 ErrMax= 1.78D-05  0.00D+00 EMaxC= 1.00D-01 BMatC= 4.44D-08 BMatP= 4.90D-07
 IDIUse=1 WtCom= 1.00D+00 WtEn= 0.00D+00
 Coeff-Com:  0.125D+00 0.875D+00
 Coeff:      0.125D+00 0.875D+00
 Gap=     0.297 Goal=   None    Shift=    0.000
 RMSDP=1.04D-06 MaxDP=4.52D-05 DE=-3.50D-07 OVMax= 1.40D-04

 Cycle   8  Pass 1  IDiag  1:
 RMSU=  6.41D-07    CP:  1.00D+00  1.04D+00
 E= -155.685640009027     Delta-E=       -0.000000027468 Rises=F Damp=F
 DIIS: error= 1.44D-05 at cycle   3 NSaved=   3.
 NSaved= 3 IEnMin= 3 EnMin= -155.685640009027     IErMin= 3 ErrMin= 1.44D-05
 ErrMax= 1.44D-05  0.00D+00 EMaxC= 1.00D-01 BMatC= 2.56D-08 BMatP= 4.44D-08
 IDIUse=1 WtCom= 1.00D+00 WtEn= 0.00D+00
 Coeff-Com: -0.129D-01 0.425D+00 0.588D+00
 Coeff:     -0.129D-01 0.425D+00 0.588D+00
 Gap=     0.297 Goal=   None    Shift=    0.000
 RMSDP=3.05D-07 MaxDP=1.11D-05 DE=-2.75D-08 OVMax= 8.04D-05

 Cycle   9  Pass 1  IDiag  1:
 RMSU=  2.46D-07    CP:  1.00D+00  1.05D+00  1.03D+00
 E= -155.685640033837     Delta-E=       -0.000000024809 Rises=F Damp=F
 DIIS: error= 3.42D-06 at cycle   4 NSaved=   4.
 NSaved= 4 IEnMin= 4 EnMin= -155.685640033837     IErMin= 4 ErrMin= 3.42D-06
 ErrMax= 3.42D-06  0.00D+00 EMaxC= 1.00D-01 BMatC= 6.77D-10 BMatP= 2.56D-08
 IDIUse=1 WtCom= 1.00D+00 WtEn= 0.00D+00
 Coeff-Com: -0.111D-01 0.752D-01 0.173D+00 0.763D+00
 Coeff:     -0.111D-01 0.752D-01 0.173D+00 0.763D+00
 Gap=     0.297 Goal=   None    Shift=    0.000
 RMSDP=8.18D-08 MaxDP=3.13D-06 DE=-2.48D-08 OVMax= 1.72D-05

 Cycle  10  Pass 1  IDiag  1:
 RMSU=  5.24D-08    CP:  1.00D+00  1.05D+00  1.10D+00  1.08D+00
 E= -155.685640034796     Delta-E=       -0.000000000959 Rises=F Damp=F
 DIIS: error= 8.19D-07 at cycle   5 NSaved=   5.
 NSaved= 5 IEnMin= 5 EnMin= -155.685640034796     IErMin= 5 ErrMin= 8.19D-07
 ErrMax= 8.19D-07  0.00D+00 EMaxC= 1.00D-01 BMatC= 9.64D-11 BMatP= 6.77D-10
 IDIUse=1 WtCom= 1.00D+00 WtEn= 0.00D+00
 Coeff-Com: -0.124D-02-0.370D-01-0.374D-01 0.225D+00 0.851D+00
 Coeff:     -0.124D-02-0.370D-01-0.374D-01 0.225D+00 0.851D+00
 Gap=     0.297 Goal=   None    Shift=    0.000
 RMSDP=3.14D-08 MaxDP=1.32D-06 DE=-9.59D-10 OVMax= 8.06D-06

 Cycle  11  Pass 1  IDiag  1:
 RMSU=  2.10D-08    CP:  1.00D+00  1.05D+00  1.12D+00  1.15D+00  1.05D+00
 E= -155.685640034948     Delta-E=       -0.000000000152 Rises=F Damp=F
 DIIS: error= 2.06D-07 at cycle   6 NSaved=   6.
 NSaved= 6 IEnMin= 6 EnMin= -155.685640034948     IErMin= 6 ErrMin= 2.06D-07
 ErrMax= 2.06D-07  0.00D+00 EMaxC= 1.00D-01 BMatC= 9.69D-12 BMatP= 9.64D-11
 IDIUse=1 WtCom= 1.00D+00 WtEn= 0.00D+00
 Coeff-Com:  0.657D-03-0.218D-01-0.331D-01 0.133D-01 0.318D+00 0.723D+00
 Coeff:      0.657D-03-0.218D-01-0.331D-01 0.133D-01 0.318D+00 0.723D+00
 Gap=     0.297 Goal=   None    Shift=    0.000
 RMSDP=7.20D-09 MaxDP=2.25D-07 DE=-1.52D-10 OVMax= 2.08D-06

 SCF Done:  E(RB2PLYPD3) =  -155.685640035     A.U. after   11 cycles
            NFock= 11  Conv=0.72D-08     -V/T= 2.0057
 KE= 1.548025723948D+02 PE=-5.664501385485D+02 EE= 1.530689116361D+02
 Leave Link  502 at Wed Aug 26 14:56:03 2020, MaxMem=  2097152000 cpu:      2045.6
 (Enter /opt/cluster/programs/g09/g09_d.01/g09/l801.exe)
 DoSCS=T DFT=T ScalE2(SS,OS)=  0.270000  0.270000
 ExpMin= 7.60D-02 ExpMax= 6.70D+04 ExpMxC= 6.47D+02 IAcc=3 IRadAn=         5 AccDes= 0.00D+00
 HarFok:  IExCor=  205 AccDes= 0.00D+00 IRadAn=         5 IDoV=-2 UseB2=F ITyADJ=14
 ICtDFT= 12500011 ScaDFX=  1.000000  1.000000  1.000000  1.000000
 Largest valence mixing into a core orbital is  1.13D-04
 Largest core mixing into a valence orbital is  2.08D-05
 Range of M.O.s used for correlation:     5   408
 NBasis=   408 NAE=    15 NBE=    15 NFC=     4 NFV=     0
 NROrb=    404 NOA=    11 NOB=    11 NVA=   393 NVB=   393

 **** Warning!!: The largest alpha MO coefficient is  0.27419973D+02

 Leave Link  801 at Wed Aug 26 14:56:03 2020, MaxMem=  2097152000 cpu:         0.9
 (Enter /opt/cluster/programs/g09/g09_d.01/g09/l906.exe)
 DoSCS=T DFT=T ScalE2(SS,OS)=  0.270000  0.270000
 FulOut=F Deriv=F AODrv=F NAtomX=    10
   MMem=         881  MDisk=          11 MDiskD=          11
  W3Min=     2152854 MinDsk=     3857222 NBas6D=         498
 NBas2D=      125763    NTT=      124251    LW2=     4508827
    MDV=  2096384202 MDiskM=        9345 NBas2p=      117154
 Fully direct method using O(OVN) memory.
 IMap=   1   2   3   4   5   6   7   8   9  10  11
 JobTyp=1 Pass  1:  I=   1 to  11 NPSUse=  8 ParTrn=T ParDer=T DoDerP=F.
 Spin components of T(2) and E(2):
     alpha-alpha T2 =       0.4300449010D-01 E2=     -0.2556433025D-01
     alpha-beta  T2 =       0.2798325798D+00 E2=     -0.1762930332D+00
     beta-beta   T2 =       0.4300449010D-01 E2=     -0.2556433025D-01
 The integrals were generated   1 times.
 E2(B2PLYPD3) =    -0.2274216937D+00 E(B2PLYPD3) =    -0.15591306172867D+03
 Leave Link  906 at Wed Aug 26 14:58:23 2020, MaxMem=  2097152000 cpu:      1115.5
 (Enter /opt/cluster/programs/g09/g09_d.01/g09/l601.exe)
 Copying SCF densities to generalized density rwf, IOpCl= 0 IROHF=0.

 **********************************************************************

            Population analysis using the SCF density.

 **********************************************************************

 Orbital symmetries:
       Occupied  (A) (A) (A) (A) (A) (A) (A) (A) (A) (A) (A) (A)
                 (A) (A) (A)
       Virtual   (A) (A) (A) (A) (A) (A) (A) (A) (A) (A) (A) (A)
                 (A) (A) (A) (A) (A) (A) (A) (A) (A) (A) (A) (A)
                 (A) (A) (A) (A) (A) (A) (A) (A) (A) (A) (A) (A)
                 (A) (A) (A) (A) (A) (A) (A) (A) (A) (A) (A) (A)
                 (A) (A) (A) (A) (A) (A) (A) (A) (A) (A) (A) (A)
                 (A) (A) (A) (A) (A) (A) (A) (A) (A) (A) (A) (A)
                 (A) (A) (A) (A) (A) (A) (A) (A) (A) (A) (A) (A)
                 (A) (A) (A) (A) (A) (A) (A) (A) (A) (A) (A) (A)
                 (A) (A) (A) (A) (A) (A) (A) (A) (A) (A) (A) (A)
                 (A) (A) (A) (A) (A) (A) (A) (A) (A) (A) (A) (A)
                 (A) (A) (A) (A) (A) (A) (A) (A) (A) (A) (A) (A)
                 (A) (A) (A) (A) (A) (A) (A) (A) (A) (A) (A) (A)
                 (A) (A) (A) (A) (A) (A) (A) (A) (A) (A) (A) (A)
                 (A) (A) (A) (A) (A) (A) (A) (A) (A) (A) (A) (A)
                 (A) (A) (A) (A) (A) (A) (A) (A) (A) (A) (A) (A)
                 (A) (A) (A) (A) (A) (A) (A) (A) (A) (A) (A) (A)
                 (A) (A) (A) (A) (A) (A) (A) (A) (A) (A) (A) (A)
                 (A) (A) (A) (A) (A) (A) (A) (A) (A) (A) (A) (A)
                 (A) (A) (A) (A) (A) (A) (A) (A) (A) (A) (A) (A)
                 (A) (A) (A) (A) (A) (A) (A) (A) (A) (A) (A) (A)
                 (A) (A) (A) (A) (A) (A) (A) (A) (A) (A) (A) (A)
                 (A) (A) (A) (A) (A) (A) (A) (A) (A) (A) (A) (A)
                 (A) (A) (A) (A) (A) (A) (A) (A) (A) (A) (A) (A)
                 (A) (A) (A) (A) (A) (A) (A) (A) (A) (A) (A) (A)
                 (A) (A) (A) (A) (A) (A) (A) (A) (A) (A) (A) (A)
                 (A) (A) (A) (A) (A) (A) (A) (A) (A) (A) (A) (A)
                 (A) (A) (A) (A) (A) (A) (A) (A) (A) (A) (A) (A)
                 (A) (A) (A) (A) (A) (A) (A) (A) (A) (A) (A) (A)
                 (A) (A) (A) (A) (A) (A) (A) (A) (A) (A) (A) (A)
                 (A) (A) (A) (A) (A) (A) (A) (A) (A) (A) (A) (A)
                 (A) (A) (A) (A) (A) (A) (A) (A) (A) (A) (A) (A)
                 (A) (A) (A) (A) (A) (A) (A) (A) (A) (A) (A) (A)
                 (A) (A) (A) (A) (A) (A) (A) (A) (A)
 The electronic state is 1-A.
 Alpha  occ. eigenvalues --  -10.63386 -10.63231 -10.62397 -10.62149  -0.92452
 Alpha  occ. eigenvalues --   -0.84513  -0.69452  -0.63019  -0.54423  -0.52828
 Alpha  occ. eigenvalues --   -0.47024  -0.44505  -0.40657  -0.37109  -0.27881
 Alpha virt. eigenvalues --    0.01794   0.06861   0.07147   0.07841   0.09132
 Alpha virt. eigenvalues --    0.11350   0.12363   0.14328   0.15244   0.16306
 Alpha virt. eigenvalues --    0.18790   0.19948   0.21028   0.22289   0.23470
 Alpha virt. eigenvalues --    0.26373   0.27126   0.30175   0.30688   0.34563
 Alpha virt. eigenvalues --    0.34856   0.34927   0.36448   0.37221   0.39370
 Alpha virt. eigenvalues --    0.41593   0.41930   0.44350   0.45566   0.47740
 Alpha virt. eigenvalues --    0.48576   0.50021   0.52632   0.53449   0.55195
 Alpha virt. eigenvalues --    0.57530   0.63556   0.64213   0.66734   0.68526
 Alpha virt. eigenvalues --    0.69804   0.71785   0.75598   0.76917   0.77916
 Alpha virt. eigenvalues --    0.78668   0.80469   0.82000   0.82696   0.84038
 Alpha virt. eigenvalues --    0.84647   0.86035   0.86387   0.87170   0.89794
 Alpha virt. eigenvalues --    0.91826   0.92497   0.93931   0.95069   0.97220
 Alpha virt. eigenvalues --    0.98101   0.99354   1.00691   1.03572   1.03783
 Alpha virt. eigenvalues --    1.05461   1.06753   1.08028   1.10196   1.12074
 Alpha virt. eigenvalues --    1.13393   1.16273   1.18807   1.21802   1.24645
 Alpha virt. eigenvalues --    1.25119   1.25669   1.31250   1.31681   1.34977
 Alpha virt. eigenvalues --    1.36274   1.40245   1.46131   1.54042   1.60531
 Alpha virt. eigenvalues --    1.62552   1.63780   1.67199   1.70411   1.74861
 Alpha virt. eigenvalues --    1.77073   1.80601   1.82449   1.85408   1.88356
 Alpha virt. eigenvalues --    1.89501   1.90514   1.91673   1.92138   1.94571
 Alpha virt. eigenvalues --    1.97119   1.98426   1.99874   2.01108   2.02013
 Alpha virt. eigenvalues --    2.05098   2.05734   2.07104   2.08154   2.09067
 Alpha virt. eigenvalues --    2.10196   2.12459   2.13137   2.16552   2.17911
 Alpha virt. eigenvalues --    2.20007   2.22245   2.23780   2.26027   2.26987
 Alpha virt. eigenvalues --    2.29964   2.30811   2.33881   2.37321   2.38507
 Alpha virt. eigenvalues --    2.44172   2.44576   2.45998   2.47426   2.50464
 Alpha virt. eigenvalues --    2.51973   2.53431   2.55246   2.56047   2.56598
 Alpha virt. eigenvalues --    2.57618   2.59123   2.62518   2.62957   2.64665
 Alpha virt. eigenvalues --    2.65959   2.67613   2.68997   2.70003   2.70772
 Alpha virt. eigenvalues --    2.73786   2.74650   2.75560   2.78128   2.79702
 Alpha virt. eigenvalues --    2.84537   2.87195   2.87647   2.88253   2.91627
 Alpha virt. eigenvalues --    2.92615   2.96544   3.01392   3.05103   3.05464
 Alpha virt. eigenvalues --    3.08683   3.09580   3.21210   3.27857   3.29116
 Alpha virt. eigenvalues --    3.33994   3.35282   3.36294   3.40126   3.42560
 Alpha virt. eigenvalues --    3.43728   3.46901   3.49164   3.53423   3.54259
 Alpha virt. eigenvalues --    3.54757   3.57936   3.58858   3.63443   3.71054
 Alpha virt. eigenvalues --    3.74442   3.77990   3.81030   3.83886   3.85822
 Alpha virt. eigenvalues --    3.88354   3.92501   3.95162   4.05387   4.08945
 Alpha virt. eigenvalues --    4.10615   4.15321   4.18288   4.27570   4.39120
 Alpha virt. eigenvalues --    4.48964   4.51578   4.57695   4.85844   4.98080
 Alpha virt. eigenvalues --    4.98714   5.00014   5.05072   5.05822   5.10376
 Alpha virt. eigenvalues --    5.12958   5.16871   5.21424   5.27279   5.29855
 Alpha virt. eigenvalues --    5.31328   5.35169   5.35737   5.42516   5.45172
 Alpha virt. eigenvalues --    5.51034   5.55247   5.57720   5.61306   5.64179
 Alpha virt. eigenvalues --    5.66665   5.71469   5.72578   5.73695   5.75949
 Alpha virt. eigenvalues --    5.78090   5.79692   5.80746   5.83214   5.85590
 Alpha virt. eigenvalues --    5.89497   5.91211   5.94217   5.99668   6.01359
 Alpha virt. eigenvalues --    6.01830   6.04520   6.04897   6.08666   6.09955
 Alpha virt. eigenvalues --    6.10077   6.12749   6.15073   6.16321   6.17224
 Alpha virt. eigenvalues --    6.18385   6.20451   6.21360   6.24766   6.26149
 Alpha virt. eigenvalues --    6.26633   6.28912   6.32434   6.33148   6.33895
 Alpha virt. eigenvalues --    6.35481   6.38545   6.41363   6.43019   6.44554
 Alpha virt. eigenvalues --    6.45454   6.47296   6.51345   6.53290   6.55853
 Alpha virt. eigenvalues --    6.57275   6.59184   6.63804   6.64896   6.70521
 Alpha virt. eigenvalues --    6.72747   6.78418   6.80607   6.81642   6.87018
 Alpha virt. eigenvalues --    6.91105   6.91358   6.94825   6.96524   7.00978
 Alpha virt. eigenvalues --    7.04037   7.08558   7.14512   7.17018   7.20422
 Alpha virt. eigenvalues --    7.24519   7.25252   7.27840   7.28927   7.34678
 Alpha virt. eigenvalues --    7.43142   7.43264   7.46954   7.50556   7.53029
 Alpha virt. eigenvalues --    7.55795   7.59611   7.61468   7.63919   7.64837
 Alpha virt. eigenvalues --    7.65387   7.67867   7.70693   7.71539   7.73048
 Alpha virt. eigenvalues --    7.76485   7.77927   7.81200   7.83352   7.93875
 Alpha virt. eigenvalues --    7.94777   7.97012   7.99799   8.05761   8.08314
 Alpha virt. eigenvalues --    8.11305   8.13002   8.13073   8.14438   8.17121
 Alpha virt. eigenvalues --    8.19742   8.26604   8.28224   8.29070   8.30617
 Alpha virt. eigenvalues --    8.31754   8.33358   8.35601   8.36360   8.36853
 Alpha virt. eigenvalues --    8.40873   8.42920   8.44363   8.48804   8.51123
 Alpha virt. eigenvalues --    8.53148   8.55648   8.58447   8.62510   8.64546
 Alpha virt. eigenvalues --    8.65588   8.66795   8.68904   8.73622   8.81661
 Alpha virt. eigenvalues --    8.83461   8.87398   8.90944   8.98075   8.99570
 Alpha virt. eigenvalues --    9.02640   9.12840   9.20409   9.22757   9.27456
 Alpha virt. eigenvalues --    9.42457   9.51370   9.62581   9.66534   9.73506
 Alpha virt. eigenvalues --    9.74933   9.75879   9.78542   9.81485   9.85527
 Alpha virt. eigenvalues --    9.89718   9.97092  10.02491  10.05851  10.15844
 Alpha virt. eigenvalues --   10.19833  10.30757  10.33274  10.61016  10.67276
 Alpha virt. eigenvalues --   10.88370  11.03653  11.25747  11.32913  11.98351
 Alpha virt. eigenvalues --   12.02123  12.61494  12.79650  12.93947  13.08926
 Alpha virt. eigenvalues --   28.52797  28.69664  29.43086  29.54417 148.11384
 Alpha virt. eigenvalues --  148.27011 149.01285 149.12695
          Condensed to atoms (all electrons):
               1          2          3          4          5          6
     1  C    4.860398   0.595427  -0.080474  -0.001496   0.422534   0.421937
     2  C    0.595427   4.873839   0.393095  -0.082107  -0.053722  -0.042702
     3  C   -0.080474   0.393095   4.844415   0.620146   0.008682  -0.007040
     4  C   -0.001496  -0.082107   0.620146   4.840824  -0.000817   0.000348
     5  H    0.422534  -0.053722   0.008682  -0.000817   0.588086  -0.039701
     6  H    0.421937  -0.042702  -0.007040   0.000348  -0.039701   0.581983
     7  H   -0.041696   0.409793  -0.060743  -0.001853  -0.010123   0.006297
     8  H    0.002202  -0.058085   0.403945  -0.047162  -0.000226   0.003635
     9  H    0.000988  -0.011289  -0.046847   0.417316  -0.000084   0.000047
    10  H   -0.000533   0.006490  -0.035849   0.420594   0.000029  -0.000016
               7          8          9         10
     1  C   -0.041696   0.002202   0.000988  -0.000533
     2  C    0.409793  -0.058085  -0.011289   0.006490
     3  C   -0.060743   0.403945  -0.046847  -0.035849
     4  C   -0.001853  -0.047162   0.417316   0.420594
     5  H   -0.010123  -0.000226  -0.000084   0.000029
     6  H    0.006297   0.003635   0.000047  -0.000016
     7  H    0.627702   0.006435   0.005730  -0.000125
     8  H    0.006435   0.626575   0.007755  -0.006589
     9  H    0.005730   0.007755   0.630146  -0.050345
    10  H   -0.000125  -0.006589  -0.050345   0.578426
 Mulliken charges:
               1
     1  C   -0.179289
     2  C   -0.030739
     3  C   -0.039330
     4  C   -0.165793
     5  H    0.085341
     6  H    0.075211
     7  H    0.058583
     8  H    0.061515
     9  H    0.046583
    10  H    0.087917
 Sum of Mulliken charges =   0.00000
 Mulliken charges with hydrogens summed into heavy atoms:
               1
     1  C   -0.018737
     2  C    0.027844
     3  C    0.022185
     4  C   -0.031293
 Electronic spatial extent (au):  <R**2>=            337.9121
 Charge=              0.0000 electrons
 Dipole moment (field-independent basis, Debye):
    X=              0.0910    Y=              0.0418    Z=              0.0316  Tot=              0.1050
 Quadrupole moment (field-independent basis, Debye-Ang):
   XX=            -23.6466   YY=            -23.2879   ZZ=            -29.3814
   XY=             -0.4135   XZ=              0.3960   YZ=              0.0725
 Traceless Quadrupole moment (field-independent basis, Debye-Ang):
   XX=              1.7920   YY=              2.1507   ZZ=             -3.9428
   XY=             -0.4135   XZ=              0.3960   YZ=              0.0725
 Octapole moment (field-independent basis, Debye-Ang**2):
  XXX=              3.5489  YYY=              0.5608  ZZZ=              0.1372  XYY=             -1.1150
  XXY=              0.2566  XXZ=             -1.6979  XZZ=             -0.0403  YZZ=             -0.0472
  YYZ=              0.5988  XYZ=              0.4839
 Hexadecapole moment (field-independent basis, Debye-Ang**3):
 XXXX=           -345.2079 YYYY=            -69.1134 ZZZZ=            -38.3431 XXXY=              4.0594
 XXXZ=              3.4580 YYYX=             -2.4145 YYYZ=              0.0840 ZZZX=              0.6261
 ZZZY=              0.1274 XXYY=            -69.6027 XXZZ=            -77.6558 YYZZ=            -19.9296
 XXYZ=              1.0073 YYXZ=              0.4154 ZZXY=             -0.3793
 N-N= 1.028930144827D+02 E-N=-5.664501299697D+02  KE= 1.548025723948D+02
 Leave Link  601 at Wed Aug 26 14:58:24 2020, MaxMem=  2097152000 cpu:         0.8
 (Enter /opt/cluster/programs/g09/g09_d.01/g09/l9999.exe)
 1\1\GINC-NODE01\SP\RB2PLYPD3-FC\def2QZVP\C4H6\BOITTIER\26-Aug-2020\0\\
 #p B2PLYPD3/Def2QZVP\\butadiene\\0,1\C,0,-3.852217,0.20538,-0.025016\C
 ,0,-2.719822,-0.477411,0.094487\C,0,-1.365995,0.119615,0.057326\C,0,-0
 .274588,-0.670583,-0.019674\H,0,-4.748648,-0.41782,-0.139137\H,0,-3.91
 1232,1.325773,-0.145455\H,0,-2.655754,-1.596674,0.340161\H,0,-1.280165
 ,1.207076,0.195278\H,0,-0.434941,-1.787904,-0.12804\H,0,0.778409,-0.41
 9017,0.001556\\Version=ES64L-G09RevD.01\State=1-A\HF=-155.68564\MP2=-1
 55.9130617\RMSD=7.198e-09\PG=C01 [X(C4H6)]\\@


 MISERY NO LONGER LOVES COMPANY.  NOWADAYS IT INSISTS ON IT.

                                              -- BAKER'S LAW
 Job cpu time:       0 days  0 hours 53 minutes  5.6 seconds.
 File lengths (MBytes):  RWF=     92 Int=      0 D2E=      0 Chk=      9 Scr=      1
 Normal termination of Gaussian 09 at Wed Aug 26 14:58:25 2020.
