 Entering Gaussian System, Link 0=/opt/cluster/programs/g09/g09_d.01/g09//g09
 Input=/home/boittier/MDCM/nms_sampling/butadiene_geom.xyz.dir/energies/butadiene_460_energy.com
 Output=/scratch/boittier/butadiene_460_energy/butadiene_460_energy.out
 Initial command:
 /opt/cluster/programs/g09/g09_d.01/g09/l1.exe "/scratch/boittier/butadiene_460_energy/Gau-93455.inp" -scrdir="/scratch/boittier/butadiene_460_energy/"
 Entering Link 1 = /opt/cluster/programs/g09/g09_d.01/g09/l1.exe PID=     93456.
  
 Copyright (c) 1988,1990,1992,1993,1995,1998,2003,2009,2013,
            Gaussian, Inc.  All Rights Reserved.
  
 This is part of the Gaussian(R) 09 program.  It is based on
 the Gaussian(R) 03 system (copyright 2003, Gaussian, Inc.),
 the Gaussian(R) 98 system (copyright 1998, Gaussian, Inc.),
 the Gaussian(R) 94 system (copyright 1995, Gaussian, Inc.),
 the Gaussian 92(TM) system (copyright 1992, Gaussian, Inc.),
 the Gaussian 90(TM) system (copyright 1990, Gaussian, Inc.),
 the Gaussian 88(TM) system (copyright 1988, Gaussian, Inc.),
 the Gaussian 86(TM) system (copyright 1986, Carnegie Mellon
 University), and the Gaussian 82(TM) system (copyright 1983,
 Carnegie Mellon University). Gaussian is a federally registered
 trademark of Gaussian, Inc.
  
 This software contains proprietary and confidential information,
 including trade secrets, belonging to Gaussian, Inc.
  
 This software is provided under written license and may be
 used, copied, transmitted, or stored only in accord with that
 written license.
  
 The following legend is applicable only to US Government
 contracts under FAR:
  
                    RESTRICTED RIGHTS LEGEND
  
 Use, reproduction and disclosure by the US Government is
 subject to restrictions as set forth in subparagraphs (a)
 and (c) of the Commercial Computer Software - Restricted
 Rights clause in FAR 52.227-19.
  
 Gaussian, Inc.
 340 Quinnipiac St., Bldg. 40, Wallingford CT 06492
  
  
 ---------------------------------------------------------------
 Warning -- This program may not be used in any manner that
 competes with the business of Gaussian, Inc. or will provide
 assistance to any competitor of Gaussian, Inc.  The licensee
 of this program is prohibited from giving any competitor of
 Gaussian, Inc. access to this program.  By using this program,
 the user acknowledges that Gaussian, Inc. is engaged in the
 business of creating and licensing software in the field of
 computational chemistry and represents and warrants to the
 licensee that it is not a competitor of Gaussian, Inc. and that
 it will not use this program in any manner prohibited above.
 ---------------------------------------------------------------
  

 Cite this work as:
 Gaussian 09, Revision D.01,
 M. J. Frisch, G. W. Trucks, H. B. Schlegel, G. E. Scuseria, 
 M. A. Robb, J. R. Cheeseman, G. Scalmani, V. Barone, B. Mennucci, 
 G. A. Petersson, H. Nakatsuji, M. Caricato, X. Li, H. P. Hratchian, 
 A. F. Izmaylov, J. Bloino, G. Zheng, J. L. Sonnenberg, M. Hada, 
 M. Ehara, K. Toyota, R. Fukuda, J. Hasegawa, M. Ishida, T. Nakajima, 
 Y. Honda, O. Kitao, H. Nakai, T. Vreven, J. A. Montgomery, Jr., 
 J. E. Peralta, F. Ogliaro, M. Bearpark, J. J. Heyd, E. Brothers, 
 K. N. Kudin, V. N. Staroverov, T. Keith, R. Kobayashi, J. Normand, 
 K. Raghavachari, A. Rendell, J. C. Burant, S. S. Iyengar, J. Tomasi, 
 M. Cossi, N. Rega, J. M. Millam, M. Klene, J. E. Knox, J. B. Cross, 
 V. Bakken, C. Adamo, J. Jaramillo, R. Gomperts, R. E. Stratmann, 
 O. Yazyev, A. J. Austin, R. Cammi, C. Pomelli, J. W. Ochterski, 
 R. L. Martin, K. Morokuma, V. G. Zakrzewski, G. A. Voth, 
 P. Salvador, J. J. Dannenberg, S. Dapprich, A. D. Daniels, 
 O. Farkas, J. B. Foresman, J. V. Ortiz, J. Cioslowski, 
 and D. J. Fox, Gaussian, Inc., Wallingford CT, 2013.
 
 ******************************************
 Gaussian 09:  ES64L-G09RevD.01 24-Apr-2013
                26-Aug-2020 
 ******************************************
 %chk=/home/boittier/MDCM/nms_sampling/butadiene_geom.xyz.dir/butadiene_460.chk
 %nproc=8
 Will use up to    8 processors via shared memory.
 %mem=16000MB
 --------------------
 #p B2PLYPD3/Def2QZVP
 --------------------
 1/38=1/1;
 2/12=2,17=6,18=5,40=1/2;
 3/5=45,7=101,11=9,16=1,25=1,30=1,74=-60/1,2,3;
 4//1;
 5/5=2,38=5/2;
 8/10=1/1;
 9/16=-3/6;
 6/7=2,8=2,9=2,10=2/1;
 99/5=1,9=1/99;
 Leave Link    1 at Wed Aug 26 18:22:59 2020, MaxMem=  2097152000 cpu:         0.2
 (Enter /opt/cluster/programs/g09/g09_d.01/g09/l101.exe)
 ---------
 butadiene
 ---------
 Symbolic Z-matrix:
 Charge =  0 Multiplicity = 1
 C                    -3.83922   0.21236   0.02476 
 C                    -2.70464  -0.48221   0.01807 
 C                    -1.38773   0.08076  -0.00723 
 C                    -0.26926  -0.66725   0.04748 
 H                    -4.80043  -0.25885   0.12974 
 H                    -3.86457   1.29844   0.01443 
 H                    -2.78176  -1.56723   0.06946 
 H                    -1.34891   1.18427   0.0182 
 H                    -0.33297  -1.75528   0.07667 
 H                     0.71463  -0.22668   0.04359 
 
 NAtoms=     10 NQM=       10 NQMF=       0 NMMI=      0 NMMIF=      0
                NMic=       0 NMicF=      0.
                    Isotopes and Nuclear Properties:
 (Nuclear quadrupole moments (NQMom) in fm**2, nuclear magnetic moments (NMagM)
  in nuclear magnetons)

  Atom         1           2           3           4           5           6           7           8           9          10
 IAtWgt=          12          12          12          12           1           1           1           1           1           1
 AtmWgt=  12.0000000  12.0000000  12.0000000  12.0000000   1.0078250   1.0078250   1.0078250   1.0078250   1.0078250   1.0078250
 NucSpn=           0           0           0           0           1           1           1           1           1           1
 AtZEff=   0.0000000   0.0000000   0.0000000   0.0000000   0.0000000   0.0000000   0.0000000   0.0000000   0.0000000   0.0000000
 NQMom=    0.0000000   0.0000000   0.0000000   0.0000000   0.0000000   0.0000000   0.0000000   0.0000000   0.0000000   0.0000000
 NMagM=    0.0000000   0.0000000   0.0000000   0.0000000   2.7928460   2.7928460   2.7928460   2.7928460   2.7928460   2.7928460
 AtZNuc=   6.0000000   6.0000000   6.0000000   6.0000000   1.0000000   1.0000000   1.0000000   1.0000000   1.0000000   1.0000000
 Leave Link  101 at Wed Aug 26 18:22:59 2020, MaxMem=  2097152000 cpu:         0.5
 (Enter /opt/cluster/programs/g09/g09_d.01/g09/l202.exe)
                          Input orientation:                          
 ---------------------------------------------------------------------
 Center     Atomic      Atomic             Coordinates (Angstroms)
 Number     Number       Type             X           Y           Z
 ---------------------------------------------------------------------
      1          6           0       -3.839222    0.212355    0.024764
      2          6           0       -2.704637   -0.482208    0.018072
      3          6           0       -1.387725    0.080756   -0.007231
      4          6           0       -0.269257   -0.667250    0.047477
      5          1           0       -4.800432   -0.258852    0.129735
      6          1           0       -3.864574    1.298437    0.014428
      7          1           0       -2.781756   -1.567227    0.069463
      8          1           0       -1.348911    1.184270    0.018200
      9          1           0       -0.332968   -1.755279    0.076668
     10          1           0        0.714626   -0.226676    0.043588
 ---------------------------------------------------------------------
                    Distance matrix (angstroms):
                    1          2          3          4          5
     1  C    0.000000
     2  C    1.330318   0.000000
     3  C    2.455235   1.432420   0.000000
     4  C    3.676802   2.442577   1.346654   0.000000
     5  H    1.075630   2.110619   3.432297   4.550286   0.000000
     6  H    1.086427   2.125127   2.760072   4.097722   1.820515
     7  H    2.070542   1.088970   2.159873   2.668912   2.406352
     8  H    2.673258   2.148288   1.104489   2.143510   3.742731
     9  H    4.020957   2.692389   2.119098   1.090284   4.711724
    10  H    4.575001   3.428893   2.125318   1.078029   5.515825
                    6          7          8          9         10
     6  H    0.000000
     7  H    3.063912   0.000000
     8  H    2.518255   3.102645   0.000000
     9  H    4.669186   2.456009   3.110708   0.000000
    10  H    4.826582   3.744654   2.499920   1.853422   0.000000
 Stoichiometry    C4H6
 Framework group  C1[X(C4H6)]
 Deg. of freedom    24
 Full point group                 C1      NOp   1
 Largest Abelian subgroup         C1      NOp   1
 Largest concise Abelian subgroup C1      NOp   1
                         Standard orientation:                         
 ---------------------------------------------------------------------
 Center     Atomic      Atomic             Coordinates (Angstroms)
 Number     Number       Type             X           Y           Z
 ---------------------------------------------------------------------
      1          6           0       -1.833512    0.091590   -0.000232
      2          6           0       -0.590382   -0.381638   -0.020913
      3          6           0        0.600248    0.414739   -0.024031
      4          6           0        1.837409   -0.115713    0.015086
      5          1           0       -2.691404   -0.551390    0.086819
      6          1           0       -2.058544    1.154268    0.019785
      7          1           0       -0.466246   -1.463314   -0.000359
      8          1           0        0.435086    1.505343    0.032539
      9          1           0        1.975269   -1.197244    0.013430
     10          1           0        2.723270    0.498470    0.028326
 ---------------------------------------------------------------------
 Rotational constants (GHZ):     42.5393969      4.4813060      4.0557839
 Leave Link  202 at Wed Aug 26 18:22:59 2020, MaxMem=  2097152000 cpu:         0.0
 (Enter /opt/cluster/programs/g09/g09_d.01/g09/l301.exe)
 Standard basis: def2QZVP (5D, 7F)
 Ernie: Thresh=  0.10000D-02 Tol=  0.10000D-05 Strict=F.
 There are   498 symmetry adapted cartesian basis functions of A   symmetry.
 There are   408 symmetry adapted basis functions of A   symmetry.
   408 basis functions,   596 primitive gaussians,   498 cartesian basis functions
    15 alpha electrons       15 beta electrons
       nuclear repulsion energy       104.1559471957 Hartrees.
 IExCor=  419 DFT=T Ex+Corr=B2PLYPD3 ExCW=0 ScaHFX=  0.530000
 ScaDFX=  0.470000  0.470000  0.730000  0.730000 ScalE2=  0.270000  0.270000
 IRadAn=      0 IRanWt=     -1 IRanGd=            0 ICorTp=0 IEmpDi=141
 NAtoms=   10 NActive=   10 NUniq=   10 SFac= 1.00D+00 NAtFMM=   60 NAOKFM=F Big=F
 Integral buffers will be    131072 words long.
 Regular integral format.
 Two-electron integral symmetry is turned on.
 R6Disp:  Grimme-D3(BJ) Dispersion energy=       -0.0048412325 Hartrees.
 Nuclear repulsion after empirical dispersion term =      104.1511059632 Hartrees.
 Leave Link  301 at Wed Aug 26 18:22:59 2020, MaxMem=  2097152000 cpu:         0.5
 (Enter /opt/cluster/programs/g09/g09_d.01/g09/l302.exe)
 NPDir=0 NMtPBC=     1 NCelOv=     1 NCel=       1 NClECP=     1 NCelD=      1
         NCelK=      1 NCelE2=     1 NClLst=     1 CellRange=     0.0.
 One-electron integrals computed using PRISM.
   1 Symmetry operations used in ECPInt.
 ECPInt:  NShTT=    8256 NPrTT=   19107 LenC2=    8058 LenP2D=   16121.
 LDataN:  DoStor=T MaxTD1= 8 Len=  415
 NBasis=   408 RedAO= T EigKep=  4.33D-05  NBF=   408
 NBsUse=   408 1.00D-06 EigRej= -1.00D+00 NBFU=   408
 Precomputing XC quadrature grid using
 IXCGrd= 4 IRadAn=           0 IRanWt=          -1 IRanGd=           0 AccXCQ= 0.00D+00.
 Generated NRdTot=       0 NPtTot=           0 NUsed=           0 NTot=          32
 NSgBfM=   498   498   498   498   498 MxSgAt=    10 MxSgA2=    10.
 Leave Link  302 at Wed Aug 26 18:23:00 2020, MaxMem=  2097152000 cpu:         3.8
 (Enter /opt/cluster/programs/g09/g09_d.01/g09/l303.exe)
 DipDrv:  MaxL=1.
 Leave Link  303 at Wed Aug 26 18:23:00 2020, MaxMem=  2097152000 cpu:         0.4
 (Enter /opt/cluster/programs/g09/g09_d.01/g09/l401.exe)
 ExpMin= 7.60D-02 ExpMax= 6.70D+04 ExpMxC= 6.47D+02 IAcc=2 IRadAn=         4 AccDes= 0.00D+00
 Harris functional with IExCor=  419 and IRadAn=       4 diagonalized for initial guess.
 HarFok:  IExCor=  419 AccDes= 0.00D+00 IRadAn=         4 IDoV= 1 UseB2=F ITyADJ=14
 ICtDFT=  3500011 ScaDFX=  1.000000  1.000000  1.000000  1.000000
 FoFCou: FMM=F IPFlag=           0 FMFlag=      100000 FMFlg1=           0
         NFxFlg=           0 DoJE=T BraDBF=F KetDBF=T FulRan=T
         wScrn=  0.000000 ICntrl=     500 IOpCl=  0 I1Cent=   200000004 NGrid=           0
         NMat0=    1 NMatS0=      1 NMatT0=    0 NMatD0=    1 NMtDS0=    0 NMtDT0=    0
 Petite list used in FoFCou.
 Harris En= -156.134803664873    
 JPrj=0 DoOrth=F DoCkMO=F.
 Leave Link  401 at Wed Aug 26 18:23:01 2020, MaxMem=  2097152000 cpu:         9.7
 (Enter /opt/cluster/programs/g09/g09_d.01/g09/l502.exe)
 Closed shell SCF:
 Using DIIS extrapolation, IDIIS=  1040.
 Integral symmetry usage will be decided dynamically.
 IVT=      770090 IEndB=      770090 NGot=  2097152000 MDV=  2096647053
 LenX=  2096647053 LenY=  2096398551
 Requested convergence on RMS density matrix=1.00D-08 within 128 cycles.
 Requested convergence on MAX density matrix=1.00D-06.
 Requested convergence on             energy=1.00D-06.
 No special actions if energy rises.
 Fock matrices will be formed incrementally for  20 cycles.
 Integral accuracy reduced to 1.0D-05 until final iterations.

 Cycle   1  Pass 0  IDiag  1:
 FoFJK:  IHMeth= 1 ICntrl=       0 DoSepK=F KAlg= 0 I1Cent=   0 FoldK=F
 IRaf= 940000000 NMat=   1 IRICut=       1 DoRegI=T DoRafI=F ISym2E= 0.
 FoFCou: FMM=F IPFlag=           0 FMFlag=      100000 FMFlg1=           0
         NFxFlg=           0 DoJE=F BraDBF=F KetDBF=F FulRan=T
         wScrn=  0.000000 ICntrl=       0 IOpCl=  0 I1Cent=           0 NGrid=           0
         NMat0=    1 NMatS0=      1 NMatT0=    0 NMatD0=    1 NMtDS0=    0 NMtDT0=    0
 Symmetry not used in FoFCou.
 E= -155.512166451394    
 DIIS: error= 3.81D-02 at cycle   1 NSaved=   1.
 NSaved= 1 IEnMin= 1 EnMin= -155.512166451394     IErMin= 1 ErrMin= 3.81D-02
 ErrMax= 3.81D-02  0.00D+00 EMaxC= 1.00D-01 BMatC= 2.53D-01 BMatP= 2.53D-01
 IDIUse=3 WtCom= 6.19D-01 WtEn= 3.81D-01
 Coeff-Com:  0.100D+01
 Coeff-En:   0.100D+01
 Coeff:      0.100D+01
 Gap=     0.295 Goal=   None    Shift=    0.000
 GapD=    0.295 DampG=1.000 DampE=0.500 DampFc=0.5000 IDamp=-1.
 Damping current iteration by 5.00D-01
 RMSDP=9.53D-04 MaxDP=5.06D-02              OVMax= 1.95D-01

 Cycle   2  Pass 0  IDiag  1:
 RMSU=  4.38D-04    CP:  9.51D-01
 E= -155.611457818836     Delta-E=       -0.099291367441 Rises=F Damp=T
 DIIS: error= 1.04D-02 at cycle   2 NSaved=   2.
 NSaved= 2 IEnMin= 2 EnMin= -155.611457818836     IErMin= 2 ErrMin= 1.04D-02
 ErrMax= 1.04D-02  0.00D+00 EMaxC= 1.00D-01 BMatC= 2.97D-02 BMatP= 2.53D-01
 IDIUse=3 WtCom= 8.96D-01 WtEn= 1.04D-01
 Coeff-Com: -0.295D+00 0.129D+01
 Coeff-En:   0.000D+00 0.100D+01
 Coeff:     -0.264D+00 0.126D+01
 Gap=     0.355 Goal=   None    Shift=    0.000
 RMSDP=2.66D-04 MaxDP=7.81D-03 DE=-9.93D-02 OVMax= 9.60D-02

 Cycle   3  Pass 0  IDiag  1:
 RMSU=  2.55D-04    CP:  9.34D-01  1.08D+00
 E= -155.697508498103     Delta-E=       -0.086050679268 Rises=F Damp=F
 DIIS: error= 4.76D-03 at cycle   3 NSaved=   3.
 NSaved= 3 IEnMin= 3 EnMin= -155.697508498103     IErMin= 3 ErrMin= 4.76D-03
 ErrMax= 4.76D-03  0.00D+00 EMaxC= 1.00D-01 BMatC= 2.13D-03 BMatP= 2.97D-02
 IDIUse=3 WtCom= 9.52D-01 WtEn= 4.76D-02
 Coeff-Com: -0.117D+00 0.239D+00 0.877D+00
 Coeff-En:   0.000D+00 0.000D+00 0.100D+01
 Coeff:     -0.111D+00 0.228D+00 0.883D+00
 Gap=     0.289 Goal=   None    Shift=    0.000
 RMSDP=7.39D-05 MaxDP=4.31D-03 DE=-8.61D-02 OVMax= 2.52D-02

 Cycle   4  Pass 0  IDiag  1:
 RMSU=  5.49D-05    CP:  9.30D-01  1.18D+00  9.23D-01
 E= -155.699110167221     Delta-E=       -0.001601669118 Rises=F Damp=F
 DIIS: error= 3.24D-03 at cycle   4 NSaved=   4.
 NSaved= 4 IEnMin= 4 EnMin= -155.699110167221     IErMin= 4 ErrMin= 3.24D-03
 ErrMax= 3.24D-03  0.00D+00 EMaxC= 1.00D-01 BMatC= 7.17D-04 BMatP= 2.13D-03
 IDIUse=3 WtCom= 9.68D-01 WtEn= 3.24D-02
 Coeff-Com: -0.525D-01 0.862D-01 0.472D+00 0.494D+00
 Coeff-En:   0.000D+00 0.000D+00 0.155D+00 0.845D+00
 Coeff:     -0.508D-01 0.834D-01 0.462D+00 0.506D+00
 Gap=     0.289 Goal=   None    Shift=    0.000
 RMSDP=3.05D-05 MaxDP=1.48D-03 DE=-1.60D-03 OVMax= 9.67D-03

 Cycle   5  Pass 0  IDiag  1:
 RMSU=  1.58D-05    CP:  9.30D-01  1.17D+00  9.70D-01  5.79D-01
 E= -155.699799094839     Delta-E=       -0.000688927618 Rises=F Damp=F
 DIIS: error= 2.93D-04 at cycle   5 NSaved=   5.
 NSaved= 5 IEnMin= 5 EnMin= -155.699799094839     IErMin= 5 ErrMin= 2.93D-04
 ErrMax= 2.93D-04  0.00D+00 EMaxC= 1.00D-01 BMatC= 4.71D-06 BMatP= 7.17D-04
 IDIUse=3 WtCom= 9.97D-01 WtEn= 2.93D-03
 Coeff-Com: -0.286D-02 0.240D-02 0.360D-01 0.944D-01 0.870D+00
 Coeff-En:   0.000D+00 0.000D+00 0.000D+00 0.000D+00 0.100D+01
 Coeff:     -0.286D-02 0.240D-02 0.359D-01 0.941D-01 0.871D+00
 Gap=     0.290 Goal=   None    Shift=    0.000
 RMSDP=4.01D-06 MaxDP=1.33D-04 DE=-6.89D-04 OVMax= 1.24D-03

 Initial convergence to 1.0D-05 achieved.  Increase integral accuracy.
 Cycle   6  Pass 1  IDiag  1:
 E= -155.699831868057     Delta-E=       -0.000032773218 Rises=F Damp=F
 DIIS: error= 5.33D-05 at cycle   1 NSaved=   1.
 NSaved= 1 IEnMin= 1 EnMin= -155.699831868057     IErMin= 1 ErrMin= 5.33D-05
 ErrMax= 5.33D-05  0.00D+00 EMaxC= 1.00D-01 BMatC= 4.90D-07 BMatP= 4.90D-07
 IDIUse=1 WtCom= 1.00D+00 WtEn= 0.00D+00
 Coeff-Com:  0.100D+01
 Coeff:      0.100D+01
 Gap=     0.290 Goal=   None    Shift=    0.000
 RMSDP=4.01D-06 MaxDP=1.33D-04 DE=-3.28D-05 OVMax= 3.19D-04

 Cycle   7  Pass 1  IDiag  1:
 RMSU=  1.58D-05    CP:  1.00D+00
 E= -155.699832199446     Delta-E=       -0.000000331390 Rises=F Damp=F
 DIIS: error= 2.16D-05 at cycle   2 NSaved=   2.
 NSaved= 2 IEnMin= 2 EnMin= -155.699832199446     IErMin= 2 ErrMin= 2.16D-05
 ErrMax= 2.16D-05  0.00D+00 EMaxC= 1.00D-01 BMatC= 5.77D-08 BMatP= 4.90D-07
 IDIUse=1 WtCom= 1.00D+00 WtEn= 0.00D+00
 Coeff-Com:  0.153D+00 0.847D+00
 Coeff:      0.153D+00 0.847D+00
 Gap=     0.290 Goal=   None    Shift=    0.000
 RMSDP=7.70D-07 MaxDP=2.48D-05 DE=-3.31D-07 OVMax= 1.75D-04

 Cycle   8  Pass 1  IDiag  1:
 RMSU=  5.96D-07    CP:  1.00D+00  1.03D+00
 E= -155.699832233181     Delta-E=       -0.000000033734 Rises=F Damp=F
 DIIS: error= 1.80D-05 at cycle   3 NSaved=   3.
 NSaved= 3 IEnMin= 3 EnMin= -155.699832233181     IErMin= 3 ErrMin= 1.80D-05
 ErrMax= 1.80D-05  0.00D+00 EMaxC= 1.00D-01 BMatC= 3.40D-08 BMatP= 5.77D-08
 IDIUse=1 WtCom= 1.00D+00 WtEn= 0.00D+00
 Coeff-Com: -0.172D-01 0.429D+00 0.588D+00
 Coeff:     -0.172D-01 0.429D+00 0.588D+00
 Gap=     0.290 Goal=   None    Shift=    0.000
 RMSDP=2.72D-07 MaxDP=1.36D-05 DE=-3.37D-08 OVMax= 9.59D-05

 Cycle   9  Pass 1  IDiag  1:
 RMSU=  2.35D-07    CP:  1.00D+00  1.04D+00  8.94D-01
 E= -155.699832266598     Delta-E=       -0.000000033418 Rises=F Damp=F
 DIIS: error= 3.59D-06 at cycle   4 NSaved=   4.
 NSaved= 4 IEnMin= 4 EnMin= -155.699832266598     IErMin= 4 ErrMin= 3.59D-06
 ErrMax= 3.59D-06  0.00D+00 EMaxC= 1.00D-01 BMatC= 5.84D-10 BMatP= 3.40D-08
 IDIUse=1 WtCom= 1.00D+00 WtEn= 0.00D+00
 Coeff-Com: -0.113D-01 0.735D-01 0.146D+00 0.792D+00
 Coeff:     -0.113D-01 0.735D-01 0.146D+00 0.792D+00
 Gap=     0.290 Goal=   None    Shift=    0.000
 RMSDP=6.19D-08 MaxDP=2.12D-06 DE=-3.34D-08 OVMax= 1.76D-05

 Cycle  10  Pass 1  IDiag  1:
 RMSU=  4.62D-08    CP:  1.00D+00  1.04D+00  9.49D-01  1.07D+00
 E= -155.699832267488     Delta-E=       -0.000000000890 Rises=F Damp=F
 DIIS: error= 8.24D-07 at cycle   5 NSaved=   5.
 NSaved= 5 IEnMin= 5 EnMin= -155.699832267488     IErMin= 5 ErrMin= 8.24D-07
 ErrMax= 8.24D-07  0.00D+00 EMaxC= 1.00D-01 BMatC= 1.29D-10 BMatP= 5.84D-10
 IDIUse=1 WtCom= 1.00D+00 WtEn= 0.00D+00
 Coeff-Com: -0.766D-03-0.476D-01-0.565D-01 0.274D+00 0.831D+00
 Coeff:     -0.766D-03-0.476D-01-0.565D-01 0.274D+00 0.831D+00
 Gap=     0.290 Goal=   None    Shift=    0.000
 RMSDP=3.07D-08 MaxDP=1.51D-06 DE=-8.90D-10 OVMax= 8.36D-06

 Cycle  11  Pass 1  IDiag  1:
 RMSU=  1.89D-08    CP:  1.00D+00  1.04D+00  9.67D-01  1.16D+00  1.05D+00
 E= -155.699832267693     Delta-E=       -0.000000000205 Rises=F Damp=F
 DIIS: error= 2.33D-07 at cycle   6 NSaved=   6.
 NSaved= 6 IEnMin= 6 EnMin= -155.699832267693     IErMin= 6 ErrMin= 2.33D-07
 ErrMax= 2.33D-07  0.00D+00 EMaxC= 1.00D-01 BMatC= 4.51D-12 BMatP= 1.29D-10
 IDIUse=1 WtCom= 1.00D+00 WtEn= 0.00D+00
 Coeff-Com:  0.631D-03-0.189D-01-0.278D-01 0.234D-01 0.224D+00 0.799D+00
 Coeff:      0.631D-03-0.189D-01-0.278D-01 0.234D-01 0.224D+00 0.799D+00
 Gap=     0.290 Goal=   None    Shift=    0.000
 RMSDP=5.39D-09 MaxDP=1.96D-07 DE=-2.05D-10 OVMax= 1.74D-06

 SCF Done:  E(RB2PLYPD3) =  -155.699832268     A.U. after   11 cycles
            NFock= 11  Conv=0.54D-08     -V/T= 2.0038
 KE= 1.551155397314D+02 PE=-5.692140226317D+02 EE= 1.542475446694D+02
 Leave Link  502 at Wed Aug 26 18:26:21 2020, MaxMem=  2097152000 cpu:      1597.2
 (Enter /opt/cluster/programs/g09/g09_d.01/g09/l801.exe)
 DoSCS=T DFT=T ScalE2(SS,OS)=  0.270000  0.270000
 ExpMin= 7.60D-02 ExpMax= 6.70D+04 ExpMxC= 6.47D+02 IAcc=3 IRadAn=         5 AccDes= 0.00D+00
 HarFok:  IExCor=  205 AccDes= 0.00D+00 IRadAn=         5 IDoV=-2 UseB2=F ITyADJ=14
 ICtDFT= 12500011 ScaDFX=  1.000000  1.000000  1.000000  1.000000
 Largest valence mixing into a core orbital is  1.11D-04
 Largest core mixing into a valence orbital is  2.00D-05
 Range of M.O.s used for correlation:     5   408
 NBasis=   408 NAE=    15 NBE=    15 NFC=     4 NFV=     0
 NROrb=    404 NOA=    11 NOB=    11 NVA=   393 NVB=   393

 **** Warning!!: The largest alpha MO coefficient is  0.28138093D+02

 Leave Link  801 at Wed Aug 26 18:26:22 2020, MaxMem=  2097152000 cpu:         1.0
 (Enter /opt/cluster/programs/g09/g09_d.01/g09/l906.exe)
 DoSCS=T DFT=T ScalE2(SS,OS)=  0.270000  0.270000
 FulOut=F Deriv=F AODrv=F NAtomX=    10
   MMem=         881  MDisk=          11 MDiskD=          11
  W3Min=     2152854 MinDsk=     3857222 NBas6D=         498
 NBas2D=      125763    NTT=      124251    LW2=     4508827
    MDV=  2096382866 MDiskM=        9345 NBas2p=      117321
 Fully direct method using O(OVN) memory.
 IMap=   1   2   3   4   5   6   7   8   9  10  11
 JobTyp=1 Pass  1:  I=   1 to  11 NPSUse=  8 ParTrn=T ParDer=T DoDerP=F.
 Spin components of T(2) and E(2):
     alpha-alpha T2 =       0.4220431785D-01 E2=     -0.2547892118D-01
     alpha-beta  T2 =       0.2731228654D+00 E2=     -0.1750876480D+00
     beta-beta   T2 =       0.4220431785D-01 E2=     -0.2547892118D-01
 The integrals were generated   1 times.
 E2(B2PLYPD3) =    -0.2260454904D+00 E(B2PLYPD3) =    -0.15592587775805D+03
 Leave Link  906 at Wed Aug 26 18:28:12 2020, MaxMem=  2097152000 cpu:       876.4
 (Enter /opt/cluster/programs/g09/g09_d.01/g09/l601.exe)
 Copying SCF densities to generalized density rwf, IOpCl= 0 IROHF=0.

 **********************************************************************

            Population analysis using the SCF density.

 **********************************************************************

 Orbital symmetries:
       Occupied  (A) (A) (A) (A) (A) (A) (A) (A) (A) (A) (A) (A)
                 (A) (A) (A)
       Virtual   (A) (A) (A) (A) (A) (A) (A) (A) (A) (A) (A) (A)
                 (A) (A) (A) (A) (A) (A) (A) (A) (A) (A) (A) (A)
                 (A) (A) (A) (A) (A) (A) (A) (A) (A) (A) (A) (A)
                 (A) (A) (A) (A) (A) (A) (A) (A) (A) (A) (A) (A)
                 (A) (A) (A) (A) (A) (A) (A) (A) (A) (A) (A) (A)
                 (A) (A) (A) (A) (A) (A) (A) (A) (A) (A) (A) (A)
                 (A) (A) (A) (A) (A) (A) (A) (A) (A) (A) (A) (A)
                 (A) (A) (A) (A) (A) (A) (A) (A) (A) (A) (A) (A)
                 (A) (A) (A) (A) (A) (A) (A) (A) (A) (A) (A) (A)
                 (A) (A) (A) (A) (A) (A) (A) (A) (A) (A) (A) (A)
                 (A) (A) (A) (A) (A) (A) (A) (A) (A) (A) (A) (A)
                 (A) (A) (A) (A) (A) (A) (A) (A) (A) (A) (A) (A)
                 (A) (A) (A) (A) (A) (A) (A) (A) (A) (A) (A) (A)
                 (A) (A) (A) (A) (A) (A) (A) (A) (A) (A) (A) (A)
                 (A) (A) (A) (A) (A) (A) (A) (A) (A) (A) (A) (A)
                 (A) (A) (A) (A) (A) (A) (A) (A) (A) (A) (A) (A)
                 (A) (A) (A) (A) (A) (A) (A) (A) (A) (A) (A) (A)
                 (A) (A) (A) (A) (A) (A) (A) (A) (A) (A) (A) (A)
                 (A) (A) (A) (A) (A) (A) (A) (A) (A) (A) (A) (A)
                 (A) (A) (A) (A) (A) (A) (A) (A) (A) (A) (A) (A)
                 (A) (A) (A) (A) (A) (A) (A) (A) (A) (A) (A) (A)
                 (A) (A) (A) (A) (A) (A) (A) (A) (A) (A) (A) (A)
                 (A) (A) (A) (A) (A) (A) (A) (A) (A) (A) (A) (A)
                 (A) (A) (A) (A) (A) (A) (A) (A) (A) (A) (A) (A)
                 (A) (A) (A) (A) (A) (A) (A) (A) (A) (A) (A) (A)
                 (A) (A) (A) (A) (A) (A) (A) (A) (A) (A) (A) (A)
                 (A) (A) (A) (A) (A) (A) (A) (A) (A) (A) (A) (A)
                 (A) (A) (A) (A) (A) (A) (A) (A) (A) (A) (A) (A)
                 (A) (A) (A) (A) (A) (A) (A) (A) (A) (A) (A) (A)
                 (A) (A) (A) (A) (A) (A) (A) (A) (A) (A) (A) (A)
                 (A) (A) (A) (A) (A) (A) (A) (A) (A) (A) (A) (A)
                 (A) (A) (A) (A) (A) (A) (A) (A) (A) (A) (A) (A)
                 (A) (A) (A) (A) (A) (A) (A) (A) (A)
 The electronic state is 1-A.
 Alpha  occ. eigenvalues --  -10.62815 -10.62273 -10.61859 -10.61351  -0.93218
 Alpha  occ. eigenvalues --   -0.84764  -0.70468  -0.63867  -0.54828  -0.53758
 Alpha  occ. eigenvalues --   -0.46690  -0.45419  -0.41156  -0.38344  -0.27508
 Alpha virt. eigenvalues --    0.01487   0.07028   0.07332   0.08050   0.09697
 Alpha virt. eigenvalues --    0.11660   0.12458   0.14775   0.15793   0.16214
 Alpha virt. eigenvalues --    0.18769   0.20352   0.21827   0.22676   0.23805
 Alpha virt. eigenvalues --    0.26723   0.27073   0.29362   0.31680   0.35251
 Alpha virt. eigenvalues --    0.35895   0.36500   0.37553   0.38393   0.40276
 Alpha virt. eigenvalues --    0.42790   0.43607   0.45713   0.47441   0.47822
 Alpha virt. eigenvalues --    0.49032   0.50429   0.51294   0.55232   0.56712
 Alpha virt. eigenvalues --    0.58821   0.60384   0.64354   0.66321   0.68760
 Alpha virt. eigenvalues --    0.68859   0.72813   0.77039   0.77362   0.79005
 Alpha virt. eigenvalues --    0.80535   0.80758   0.81739   0.82493   0.84176
 Alpha virt. eigenvalues --    0.84345   0.86115   0.86131   0.86992   0.90547
 Alpha virt. eigenvalues --    0.92426   0.93406   0.93960   0.95791   0.96239
 Alpha virt. eigenvalues --    0.98504   0.99105   1.00637   1.03121   1.05385
 Alpha virt. eigenvalues --    1.06075   1.08781   1.10935   1.11609   1.12945
 Alpha virt. eigenvalues --    1.14010   1.17583   1.19891   1.21617   1.22751
 Alpha virt. eigenvalues --    1.24840   1.25221   1.34117   1.35014   1.36077
 Alpha virt. eigenvalues --    1.37541   1.40517   1.47169   1.63068   1.64808
 Alpha virt. eigenvalues --    1.66606   1.67477   1.69962   1.71769   1.72294
 Alpha virt. eigenvalues --    1.74102   1.81131   1.82307   1.84491   1.87848
 Alpha virt. eigenvalues --    1.90032   1.90882   1.91508   1.93277   1.94467
 Alpha virt. eigenvalues --    1.95345   1.99097   2.00164   2.01506   2.02350
 Alpha virt. eigenvalues --    2.03871   2.06257   2.07141   2.08369   2.09731
 Alpha virt. eigenvalues --    2.10378   2.11675   2.13884   2.16831   2.18969
 Alpha virt. eigenvalues --    2.19766   2.22308   2.24095   2.26519   2.28489
 Alpha virt. eigenvalues --    2.30536   2.32719   2.33537   2.37789   2.43062
 Alpha virt. eigenvalues --    2.44923   2.45878   2.47075   2.48282   2.50301
 Alpha virt. eigenvalues --    2.52786   2.53209   2.55561   2.56269   2.57363
 Alpha virt. eigenvalues --    2.59346   2.62603   2.63552   2.64794   2.65929
 Alpha virt. eigenvalues --    2.67052   2.69414   2.71014   2.71643   2.71859
 Alpha virt. eigenvalues --    2.73430   2.75308   2.76426   2.78618   2.79639
 Alpha virt. eigenvalues --    2.81201   2.88264   2.90936   2.92185   2.93826
 Alpha virt. eigenvalues --    2.95147   3.03022   3.06351   3.08695   3.09470
 Alpha virt. eigenvalues --    3.11385   3.14273   3.26077   3.33983   3.36119
 Alpha virt. eigenvalues --    3.39475   3.40828   3.42749   3.45617   3.47874
 Alpha virt. eigenvalues --    3.47997   3.49513   3.52062   3.57025   3.57837
 Alpha virt. eigenvalues --    3.59991   3.61298   3.62818   3.69791   3.79297
 Alpha virt. eigenvalues --    3.80190   3.83534   3.86795   3.87873   3.90624
 Alpha virt. eigenvalues --    3.93737   3.96811   3.99294   4.05801   4.14971
 Alpha virt. eigenvalues --    4.16906   4.17703   4.21509   4.24346   4.46369
 Alpha virt. eigenvalues --    4.56888   4.57760   4.58935   4.86428   4.99465
 Alpha virt. eigenvalues --    5.00702   5.03877   5.05747   5.06501   5.08377
 Alpha virt. eigenvalues --    5.12409   5.18954   5.21037   5.28444   5.30884
 Alpha virt. eigenvalues --    5.33605   5.39621   5.44023   5.46087   5.50717
 Alpha virt. eigenvalues --    5.51483   5.54658   5.58013   5.60647   5.62671
 Alpha virt. eigenvalues --    5.65807   5.69811   5.75742   5.76545   5.77745
 Alpha virt. eigenvalues --    5.78821   5.79919   5.82677   5.85709   5.86502
 Alpha virt. eigenvalues --    5.88647   5.91173   6.00473   6.01182   6.03463
 Alpha virt. eigenvalues --    6.05895   6.07351   6.08439   6.10133   6.11706
 Alpha virt. eigenvalues --    6.12744   6.15944   6.16914   6.17880   6.21193
 Alpha virt. eigenvalues --    6.22570   6.23826   6.27952   6.29599   6.33193
 Alpha virt. eigenvalues --    6.35024   6.35632   6.36394   6.37881   6.38698
 Alpha virt. eigenvalues --    6.40017   6.40512   6.42300   6.49895   6.51403
 Alpha virt. eigenvalues --    6.52529   6.54636   6.56171   6.57488   6.62707
 Alpha virt. eigenvalues --    6.63717   6.64745   6.70244   6.71093   6.80120
 Alpha virt. eigenvalues --    6.81682   6.87251   6.88260   6.89985   6.92299
 Alpha virt. eigenvalues --    6.92997   6.95329   6.98875   7.02174   7.08808
 Alpha virt. eigenvalues --    7.14288   7.16037   7.19048   7.21289   7.22076
 Alpha virt. eigenvalues --    7.27281   7.28551   7.34988   7.36737   7.43836
 Alpha virt. eigenvalues --    7.47029   7.50798   7.53228   7.54607   7.59208
 Alpha virt. eigenvalues --    7.62521   7.64573   7.64937   7.66195   7.68845
 Alpha virt. eigenvalues --    7.69368   7.71063   7.74567   7.76074   7.77443
 Alpha virt. eigenvalues --    7.78033   7.81406   7.87607   7.92305   7.93294
 Alpha virt. eigenvalues --    7.96307   7.97705   8.07019   8.10665   8.14081
 Alpha virt. eigenvalues --    8.15097   8.15967   8.18432   8.20654   8.23693
 Alpha virt. eigenvalues --    8.31422   8.34028   8.34721   8.35272   8.36080
 Alpha virt. eigenvalues --    8.36573   8.38230   8.40396   8.42205   8.44837
 Alpha virt. eigenvalues --    8.47477   8.49521   8.53108   8.55867   8.56553
 Alpha virt. eigenvalues --    8.59895   8.60017   8.60410   8.65901   8.70079
 Alpha virt. eigenvalues --    8.74672   8.75670   8.77122   8.81216   8.83031
 Alpha virt. eigenvalues --    8.88285   8.89347   8.93382   9.03531   9.15178
 Alpha virt. eigenvalues --    9.17937   9.22968   9.30484   9.32798   9.43426
 Alpha virt. eigenvalues --    9.58418   9.67802   9.72835   9.84954   9.85396
 Alpha virt. eigenvalues --    9.89025   9.93704   9.95272  10.01515  10.01923
 Alpha virt. eigenvalues --   10.08569  10.15032  10.23076  10.26083  10.28132
 Alpha virt. eigenvalues --   10.36454  10.38467  10.44451  10.69098  10.82152
 Alpha virt. eigenvalues --   11.04997  11.16269  11.46399  11.66219  11.90313
 Alpha virt. eigenvalues --   11.91967  12.85614  13.04732  13.16378  13.20204
 Alpha virt. eigenvalues --   28.60176  28.80163  29.46729  29.68644 148.19502
 Alpha virt. eigenvalues --  148.38338 149.05716 149.29198
          Condensed to atoms (all electrons):
               1          2          3          4          5          6
     1  C    4.845395   0.617902  -0.082249  -0.002847   0.426291   0.423789
     2  C    0.617902   4.829416   0.396025  -0.082297  -0.045675  -0.046144
     3  C   -0.082249   0.396025   4.840821   0.620578   0.007334  -0.007409
     4  C   -0.002847  -0.082297   0.620578   4.841373  -0.000618   0.000185
     5  H    0.426291  -0.045675   0.007334  -0.000618   0.587106  -0.047562
     6  H    0.423789  -0.046144  -0.007409   0.000185  -0.047562   0.603809
     7  H   -0.050804   0.411856  -0.061394  -0.003030  -0.010299   0.008199
     8  H   -0.001333  -0.062156   0.410666  -0.046385  -0.000148   0.004744
     9  H    0.000298  -0.007796  -0.045495   0.424235  -0.000034   0.000039
    10  H   -0.000630   0.007604  -0.045792   0.424358   0.000024  -0.000023
               7          8          9         10
     1  C   -0.050804  -0.001333   0.000298  -0.000630
     2  C    0.411856  -0.062156  -0.007796   0.007604
     3  C   -0.061394   0.410666  -0.045495  -0.045792
     4  C   -0.003030  -0.046385   0.424235   0.424358
     5  H   -0.010299  -0.000148  -0.000034   0.000024
     6  H    0.008199   0.004744   0.000039  -0.000023
     7  H    0.643048   0.007425   0.004631  -0.000033
     8  H    0.007425   0.634452   0.007173  -0.008056
     9  H    0.004631   0.007173   0.593901  -0.043836
    10  H   -0.000033  -0.008056  -0.043836   0.578058
 Mulliken charges:
               1
     1  C   -0.175811
     2  C   -0.018734
     3  C   -0.033085
     4  C   -0.175553
     5  H    0.083580
     6  H    0.060374
     7  H    0.050401
     8  H    0.053618
     9  H    0.066884
    10  H    0.088326
 Sum of Mulliken charges =   0.00000
 Mulliken charges with hydrogens summed into heavy atoms:
               1
     1  C   -0.031857
     2  C    0.031667
     3  C    0.020533
     4  C   -0.020343
 Electronic spatial extent (au):  <R**2>=            333.7501
 Charge=              0.0000 electrons
 Dipole moment (field-independent basis, Debye):
    X=              0.0110    Y=             -0.0033    Z=              0.1329  Tot=              0.1334
 Quadrupole moment (field-independent basis, Debye-Ang):
   XX=            -23.4051   YY=            -23.1788   ZZ=            -29.2779
   XY=             -0.2118   XZ=             -0.1774   YZ=              0.0084
 Traceless Quadrupole moment (field-independent basis, Debye-Ang):
   XX=              1.8822   YY=              2.1085   ZZ=             -3.9907
   XY=             -0.2118   XZ=             -0.1774   YZ=              0.0084
 Octapole moment (field-independent basis, Debye-Ang**2):
  XXX=              0.0522  YYY=             -0.0834  ZZZ=              0.2212  XYY=             -0.0906
  XXY=              0.0909  XXZ=              0.9279  XZZ=             -0.1132  YZZ=             -0.0255
  YYZ=              0.2781  XYZ=              0.1452
 Hexadecapole moment (field-independent basis, Debye-Ang**3):
 XXXX=           -341.1495 YYYY=            -65.6100 ZZZZ=            -36.8353 XXXY=              5.3721
 XXXZ=             -1.6910 YYYX=             -2.0832 YYYZ=              0.1448 ZZZX=             -0.2604
 ZZZY=             -0.0091 XXYY=            -68.1039 XXZZ=            -76.7622 YYZZ=            -19.2957
 XXYZ=             -0.2845 YYXZ=             -0.1338 ZZXY=             -0.4248
 N-N= 1.041511059632D+02 E-N=-5.692140191188D+02  KE= 1.551155397314D+02
 Leave Link  601 at Wed Aug 26 18:28:12 2020, MaxMem=  2097152000 cpu:         0.7
 (Enter /opt/cluster/programs/g09/g09_d.01/g09/l9999.exe)
 1\1\GINC-NODE12\SP\RB2PLYPD3-FC\def2QZVP\C4H6\BOITTIER\26-Aug-2020\0\\
 #p B2PLYPD3/Def2QZVP\\butadiene\\0,1\C,0,-3.839222,0.212355,0.024764\C
 ,0,-2.704637,-0.482208,0.018072\C,0,-1.387725,0.080756,-0.007231\C,0,-
 0.269257,-0.66725,0.047477\H,0,-4.800432,-0.258852,0.129735\H,0,-3.864
 574,1.298437,0.014428\H,0,-2.781756,-1.567227,0.069463\H,0,-1.348911,1
 .18427,0.0182\H,0,-0.332968,-1.755279,0.076668\H,0,0.714626,-0.226676,
 0.043588\\Version=ES64L-G09RevD.01\State=1-A\HF=-155.6998323\MP2=-155.
 9258778\RMSD=5.390e-09\PG=C01 [X(C4H6)]\\@


 Discoveries are often made by not following instructions,
 by going off the main road, by trying the untried.
 -- Frank Tyger
 Job cpu time:       0 days  0 hours 41 minutes 30.8 seconds.
 File lengths (MBytes):  RWF=     92 Int=      0 D2E=      0 Chk=      9 Scr=      1
 Normal termination of Gaussian 09 at Wed Aug 26 18:28:12 2020.
