 Entering Gaussian System, Link 0=/opt/cluster/programs/g09/g09_d.01/g09//g09
 Input=/home/boittier/MDCM/nms_sampling/butadiene_geom.xyz.dir/energies/butadiene_212_energy.com
 Output=/scratch/boittier/butadiene_212_energy/butadiene_212_energy.out
 Initial command:
 /opt/cluster/programs/g09/g09_d.01/g09/l1.exe "/scratch/boittier/butadiene_212_energy/Gau-80581.inp" -scrdir="/scratch/boittier/butadiene_212_energy/"
 Entering Link 1 = /opt/cluster/programs/g09/g09_d.01/g09/l1.exe PID=     80582.
  
 Copyright (c) 1988,1990,1992,1993,1995,1998,2003,2009,2013,
            Gaussian, Inc.  All Rights Reserved.
  
 This is part of the Gaussian(R) 09 program.  It is based on
 the Gaussian(R) 03 system (copyright 2003, Gaussian, Inc.),
 the Gaussian(R) 98 system (copyright 1998, Gaussian, Inc.),
 the Gaussian(R) 94 system (copyright 1995, Gaussian, Inc.),
 the Gaussian 92(TM) system (copyright 1992, Gaussian, Inc.),
 the Gaussian 90(TM) system (copyright 1990, Gaussian, Inc.),
 the Gaussian 88(TM) system (copyright 1988, Gaussian, Inc.),
 the Gaussian 86(TM) system (copyright 1986, Carnegie Mellon
 University), and the Gaussian 82(TM) system (copyright 1983,
 Carnegie Mellon University). Gaussian is a federally registered
 trademark of Gaussian, Inc.
  
 This software contains proprietary and confidential information,
 including trade secrets, belonging to Gaussian, Inc.
  
 This software is provided under written license and may be
 used, copied, transmitted, or stored only in accord with that
 written license.
  
 The following legend is applicable only to US Government
 contracts under FAR:
  
                    RESTRICTED RIGHTS LEGEND
  
 Use, reproduction and disclosure by the US Government is
 subject to restrictions as set forth in subparagraphs (a)
 and (c) of the Commercial Computer Software - Restricted
 Rights clause in FAR 52.227-19.
  
 Gaussian, Inc.
 340 Quinnipiac St., Bldg. 40, Wallingford CT 06492
  
  
 ---------------------------------------------------------------
 Warning -- This program may not be used in any manner that
 competes with the business of Gaussian, Inc. or will provide
 assistance to any competitor of Gaussian, Inc.  The licensee
 of this program is prohibited from giving any competitor of
 Gaussian, Inc. access to this program.  By using this program,
 the user acknowledges that Gaussian, Inc. is engaged in the
 business of creating and licensing software in the field of
 computational chemistry and represents and warrants to the
 licensee that it is not a competitor of Gaussian, Inc. and that
 it will not use this program in any manner prohibited above.
 ---------------------------------------------------------------
  

 Cite this work as:
 Gaussian 09, Revision D.01,
 M. J. Frisch, G. W. Trucks, H. B. Schlegel, G. E. Scuseria, 
 M. A. Robb, J. R. Cheeseman, G. Scalmani, V. Barone, B. Mennucci, 
 G. A. Petersson, H. Nakatsuji, M. Caricato, X. Li, H. P. Hratchian, 
 A. F. Izmaylov, J. Bloino, G. Zheng, J. L. Sonnenberg, M. Hada, 
 M. Ehara, K. Toyota, R. Fukuda, J. Hasegawa, M. Ishida, T. Nakajima, 
 Y. Honda, O. Kitao, H. Nakai, T. Vreven, J. A. Montgomery, Jr., 
 J. E. Peralta, F. Ogliaro, M. Bearpark, J. J. Heyd, E. Brothers, 
 K. N. Kudin, V. N. Staroverov, T. Keith, R. Kobayashi, J. Normand, 
 K. Raghavachari, A. Rendell, J. C. Burant, S. S. Iyengar, J. Tomasi, 
 M. Cossi, N. Rega, J. M. Millam, M. Klene, J. E. Knox, J. B. Cross, 
 V. Bakken, C. Adamo, J. Jaramillo, R. Gomperts, R. E. Stratmann, 
 O. Yazyev, A. J. Austin, R. Cammi, C. Pomelli, J. W. Ochterski, 
 R. L. Martin, K. Morokuma, V. G. Zakrzewski, G. A. Voth, 
 P. Salvador, J. J. Dannenberg, S. Dapprich, A. D. Daniels, 
 O. Farkas, J. B. Foresman, J. V. Ortiz, J. Cioslowski, 
 and D. J. Fox, Gaussian, Inc., Wallingford CT, 2013.
 
 ******************************************
 Gaussian 09:  ES64L-G09RevD.01 24-Apr-2013
                26-Aug-2020 
 ******************************************
 %chk=/home/boittier/MDCM/nms_sampling/butadiene_geom.xyz.dir/butadiene_212.chk
 %nproc=8
 Will use up to    8 processors via shared memory.
 %mem=16000MB
 --------------------
 #p B2PLYPD3/Def2QZVP
 --------------------
 1/38=1/1;
 2/12=2,17=6,18=5,40=1/2;
 3/5=45,7=101,11=9,16=1,25=1,30=1,74=-60/1,2,3;
 4//1;
 5/5=2,38=5/2;
 8/10=1/1;
 9/16=-3/6;
 6/7=2,8=2,9=2,10=2/1;
 99/5=1,9=1/99;
 Leave Link    1 at Wed Aug 26 12:21:11 2020, MaxMem=  2097152000 cpu:         0.2
 (Enter /opt/cluster/programs/g09/g09_d.01/g09/l101.exe)
 ---------
 butadiene
 ---------
 Symbolic Z-matrix:
 Charge =  0 Multiplicity = 1
 C                    -3.83384   0.22571   0.01109 
 C                    -2.71529  -0.50875   0.03547 
 C                    -1.38582   0.06714   0.02584 
 C                    -0.27202  -0.65395   0.01632 
 H                    -4.8184   -0.22473   0.0722 
 H                    -3.75138   1.33478  -0.05918 
 H                    -2.80827  -1.57429   0.10807 
 H                    -1.32831   1.1537    0.05414 
 H                    -0.28902  -1.73183   0.09812 
 H                     0.66194  -0.14069   0.01975 
 
 NAtoms=     10 NQM=       10 NQMF=       0 NMMI=      0 NMMIF=      0
                NMic=       0 NMicF=      0.
                    Isotopes and Nuclear Properties:
 (Nuclear quadrupole moments (NQMom) in fm**2, nuclear magnetic moments (NMagM)
  in nuclear magnetons)

  Atom         1           2           3           4           5           6           7           8           9          10
 IAtWgt=          12          12          12          12           1           1           1           1           1           1
 AtmWgt=  12.0000000  12.0000000  12.0000000  12.0000000   1.0078250   1.0078250   1.0078250   1.0078250   1.0078250   1.0078250
 NucSpn=           0           0           0           0           1           1           1           1           1           1
 AtZEff=   0.0000000   0.0000000   0.0000000   0.0000000   0.0000000   0.0000000   0.0000000   0.0000000   0.0000000   0.0000000
 NQMom=    0.0000000   0.0000000   0.0000000   0.0000000   0.0000000   0.0000000   0.0000000   0.0000000   0.0000000   0.0000000
 NMagM=    0.0000000   0.0000000   0.0000000   0.0000000   2.7928460   2.7928460   2.7928460   2.7928460   2.7928460   2.7928460
 AtZNuc=   6.0000000   6.0000000   6.0000000   6.0000000   1.0000000   1.0000000   1.0000000   1.0000000   1.0000000   1.0000000
 Leave Link  101 at Wed Aug 26 12:21:11 2020, MaxMem=  2097152000 cpu:         0.5
 (Enter /opt/cluster/programs/g09/g09_d.01/g09/l202.exe)
                          Input orientation:                          
 ---------------------------------------------------------------------
 Center     Atomic      Atomic             Coordinates (Angstroms)
 Number     Number       Type             X           Y           Z
 ---------------------------------------------------------------------
      1          6           0       -3.833844    0.225714    0.011094
      2          6           0       -2.715287   -0.508747    0.035472
      3          6           0       -1.385819    0.067144    0.025840
      4          6           0       -0.272015   -0.653946    0.016318
      5          1           0       -4.818401   -0.224732    0.072198
      6          1           0       -3.751382    1.334775   -0.059184
      7          1           0       -2.808269   -1.574292    0.108069
      8          1           0       -1.328313    1.153696    0.054135
      9          1           0       -0.289020   -1.731830    0.098123
     10          1           0        0.661943   -0.140692    0.019748
 ---------------------------------------------------------------------
                    Distance matrix (angstroms):
                    1          2          3          4          5
     1  C    0.000000
     2  C    1.338356   0.000000
     3  C    2.453200   1.448871   0.000000
     4  C    3.668849   2.447658   1.326884   0.000000
     5  H    1.084430   2.122523   3.445281   4.566943   0.000000
     6  H    1.114341   2.116843   2.685145   4.008330   1.894163
     7  H    2.073941   1.072055   2.173577   2.699637   2.421411
     8  H    2.672207   2.165124   1.088441   2.093983   3.752480
     9  H    4.050349   2.717835   2.108198   1.081118   4.773605
    10  H    4.510702   3.397263   2.058291   1.065701   5.481239
                    6          7          8          9         10
     6  H    0.000000
     7  H    3.062696   0.000000
     8  H    2.432467   3.104045   0.000000
     9  H    4.627825   2.524190   3.067299   0.000000
    10  H    4.654103   3.755713   2.374393   1.855315   0.000000
 Stoichiometry    C4H6
 Framework group  C1[X(C4H6)]
 Deg. of freedom    24
 Full point group                 C1      NOp   1
 Largest Abelian subgroup         C1      NOp   1
 Largest concise Abelian subgroup C1      NOp   1
                         Standard orientation:                         
 ---------------------------------------------------------------------
 Center     Atomic      Atomic             Coordinates (Angstroms)
 Number     Number       Type             X           Y           Z
 ---------------------------------------------------------------------
      1          6           0       -1.831303    0.111862   -0.008323
      2          6           0       -0.598822   -0.409835   -0.003952
      3          6           0        0.605344    0.395785    0.009764
      4          6           0        1.830662   -0.112516   -0.019328
      5          1           0       -2.718624   -0.510069    0.034682
      6          1           0       -1.949852    1.219361   -0.042218
      7          1           0       -0.498443   -1.476518    0.033639
      8          1           0        0.466535    1.473451    0.073571
      9          1           0        2.008021   -1.177965    0.027328
     10          1           0        2.657069    0.559961    0.004033
 ---------------------------------------------------------------------
 Rotational constants (GHZ):     41.8625462      4.5079691      4.0708048
 Leave Link  202 at Wed Aug 26 12:21:11 2020, MaxMem=  2097152000 cpu:         0.0
 (Enter /opt/cluster/programs/g09/g09_d.01/g09/l301.exe)
 Standard basis: def2QZVP (5D, 7F)
 Ernie: Thresh=  0.10000D-02 Tol=  0.10000D-05 Strict=F.
 There are   498 symmetry adapted cartesian basis functions of A   symmetry.
 There are   408 symmetry adapted basis functions of A   symmetry.
   408 basis functions,   596 primitive gaussians,   498 cartesian basis functions
    15 alpha electrons       15 beta electrons
       nuclear repulsion energy       104.2844166655 Hartrees.
 IExCor=  419 DFT=T Ex+Corr=B2PLYPD3 ExCW=0 ScaHFX=  0.530000
 ScaDFX=  0.470000  0.470000  0.730000  0.730000 ScalE2=  0.270000  0.270000
 IRadAn=      0 IRanWt=     -1 IRanGd=            0 ICorTp=0 IEmpDi=141
 NAtoms=   10 NActive=   10 NUniq=   10 SFac= 1.00D+00 NAtFMM=   60 NAOKFM=F Big=F
 Integral buffers will be    131072 words long.
 Regular integral format.
 Two-electron integral symmetry is turned on.
 R6Disp:  Grimme-D3(BJ) Dispersion energy=       -0.0048527376 Hartrees.
 Nuclear repulsion after empirical dispersion term =      104.2795639280 Hartrees.
 Leave Link  301 at Wed Aug 26 12:21:11 2020, MaxMem=  2097152000 cpu:         0.4
 (Enter /opt/cluster/programs/g09/g09_d.01/g09/l302.exe)
 NPDir=0 NMtPBC=     1 NCelOv=     1 NCel=       1 NClECP=     1 NCelD=      1
         NCelK=      1 NCelE2=     1 NClLst=     1 CellRange=     0.0.
 One-electron integrals computed using PRISM.
   1 Symmetry operations used in ECPInt.
 ECPInt:  NShTT=    8256 NPrTT=   19107 LenC2=    8062 LenP2D=   16136.
 LDataN:  DoStor=T MaxTD1= 8 Len=  415
 NBasis=   408 RedAO= T EigKep=  4.25D-05  NBF=   408
 NBsUse=   408 1.00D-06 EigRej= -1.00D+00 NBFU=   408
 Precomputing XC quadrature grid using
 IXCGrd= 4 IRadAn=           0 IRanWt=          -1 IRanGd=           0 AccXCQ= 0.00D+00.
 Generated NRdTot=       0 NPtTot=           0 NUsed=           0 NTot=          32
 NSgBfM=   498   498   498   498   498 MxSgAt=    10 MxSgA2=    10.
 Leave Link  302 at Wed Aug 26 12:21:12 2020, MaxMem=  2097152000 cpu:         3.9
 (Enter /opt/cluster/programs/g09/g09_d.01/g09/l303.exe)
 DipDrv:  MaxL=1.
 Leave Link  303 at Wed Aug 26 12:21:12 2020, MaxMem=  2097152000 cpu:         0.4
 (Enter /opt/cluster/programs/g09/g09_d.01/g09/l401.exe)
 ExpMin= 7.60D-02 ExpMax= 6.70D+04 ExpMxC= 6.47D+02 IAcc=2 IRadAn=         4 AccDes= 0.00D+00
 Harris functional with IExCor=  419 and IRadAn=       4 diagonalized for initial guess.
 HarFok:  IExCor=  419 AccDes= 0.00D+00 IRadAn=         4 IDoV= 1 UseB2=F ITyADJ=14
 ICtDFT=  3500011 ScaDFX=  1.000000  1.000000  1.000000  1.000000
 FoFCou: FMM=F IPFlag=           0 FMFlag=      100000 FMFlg1=           0
         NFxFlg=           0 DoJE=T BraDBF=F KetDBF=T FulRan=T
         wScrn=  0.000000 ICntrl=     500 IOpCl=  0 I1Cent=   200000004 NGrid=           0
         NMat0=    1 NMatS0=      1 NMatT0=    0 NMatD0=    1 NMtDS0=    0 NMtDT0=    0
 Petite list used in FoFCou.
 Harris En= -156.137049211453    
 JPrj=0 DoOrth=F DoCkMO=F.
 Leave Link  401 at Wed Aug 26 12:21:13 2020, MaxMem=  2097152000 cpu:         9.2
 (Enter /opt/cluster/programs/g09/g09_d.01/g09/l502.exe)
 Closed shell SCF:
 Using DIIS extrapolation, IDIIS=  1040.
 Integral symmetry usage will be decided dynamically.
 IVT=      770090 IEndB=      770090 NGot=  2097152000 MDV=  2096647053
 LenX=  2096647053 LenY=  2096398551
 Requested convergence on RMS density matrix=1.00D-08 within 128 cycles.
 Requested convergence on MAX density matrix=1.00D-06.
 Requested convergence on             energy=1.00D-06.
 No special actions if energy rises.
 Fock matrices will be formed incrementally for  20 cycles.
 Integral accuracy reduced to 1.0D-05 until final iterations.

 Cycle   1  Pass 0  IDiag  1:
 FoFJK:  IHMeth= 1 ICntrl=       0 DoSepK=F KAlg= 0 I1Cent=   0 FoldK=F
 IRaf= 940000000 NMat=   1 IRICut=       1 DoRegI=T DoRafI=F ISym2E= 0.
 FoFCou: FMM=F IPFlag=           0 FMFlag=      100000 FMFlg1=           0
         NFxFlg=           0 DoJE=F BraDBF=F KetDBF=F FulRan=T
         wScrn=  0.000000 ICntrl=       0 IOpCl=  0 I1Cent=           0 NGrid=           0
         NMat0=    1 NMatS0=      1 NMatT0=    0 NMatD0=    1 NMtDS0=    0 NMtDT0=    0
 Symmetry not used in FoFCou.
 E= -155.509520327667    
 DIIS: error= 3.80D-02 at cycle   1 NSaved=   1.
 NSaved= 1 IEnMin= 1 EnMin= -155.509520327667     IErMin= 1 ErrMin= 3.80D-02
 ErrMax= 3.80D-02  0.00D+00 EMaxC= 1.00D-01 BMatC= 2.56D-01 BMatP= 2.56D-01
 IDIUse=3 WtCom= 6.20D-01 WtEn= 3.80D-01
 Coeff-Com:  0.100D+01
 Coeff-En:   0.100D+01
 Coeff:      0.100D+01
 Gap=     0.300 Goal=   None    Shift=    0.000
 GapD=    0.300 DampG=1.000 DampE=0.500 DampFc=0.5000 IDamp=-1.
 Damping current iteration by 5.00D-01
 RMSDP=9.58D-04 MaxDP=5.23D-02              OVMax= 1.96D-01

 Cycle   2  Pass 0  IDiag  1:
 RMSU=  4.39D-04    CP:  9.50D-01
 E= -155.610253064996     Delta-E=       -0.100732737329 Rises=F Damp=T
 DIIS: error= 1.15D-02 at cycle   2 NSaved=   2.
 NSaved= 2 IEnMin= 2 EnMin= -155.610253064996     IErMin= 2 ErrMin= 1.15D-02
 ErrMax= 1.15D-02  0.00D+00 EMaxC= 1.00D-01 BMatC= 2.98D-02 BMatP= 2.56D-01
 IDIUse=3 WtCom= 8.85D-01 WtEn= 1.15D-01
 Coeff-Com: -0.295D+00 0.129D+01
 Coeff-En:   0.000D+00 0.100D+01
 Coeff:     -0.261D+00 0.126D+01
 Gap=     0.358 Goal=   None    Shift=    0.000
 RMSDP=2.62D-04 MaxDP=8.93D-03 DE=-1.01D-01 OVMax= 9.63D-02

 Cycle   3  Pass 0  IDiag  1:
 RMSU=  2.50D-04    CP:  9.33D-01  1.10D+00
 E= -155.697590288538     Delta-E=       -0.087337223542 Rises=F Damp=F
 DIIS: error= 4.50D-03 at cycle   3 NSaved=   3.
 NSaved= 3 IEnMin= 3 EnMin= -155.697590288538     IErMin= 3 ErrMin= 4.50D-03
 ErrMax= 4.50D-03  0.00D+00 EMaxC= 1.00D-01 BMatC= 1.99D-03 BMatP= 2.98D-02
 IDIUse=3 WtCom= 9.55D-01 WtEn= 4.50D-02
 Coeff-Com: -0.112D+00 0.229D+00 0.883D+00
 Coeff-En:   0.000D+00 0.000D+00 0.100D+01
 Coeff:     -0.107D+00 0.219D+00 0.888D+00
 Gap=     0.295 Goal=   None    Shift=    0.000
 RMSDP=7.15D-05 MaxDP=4.11D-03 DE=-8.73D-02 OVMax= 2.40D-02

 Cycle   4  Pass 0  IDiag  1:
 RMSU=  5.38D-05    CP:  9.29D-01  1.19D+00  9.29D-01
 E= -155.699082947753     Delta-E=       -0.001492659215 Rises=F Damp=F
 DIIS: error= 2.96D-03 at cycle   4 NSaved=   4.
 NSaved= 4 IEnMin= 4 EnMin= -155.699082947753     IErMin= 4 ErrMin= 2.96D-03
 ErrMax= 2.96D-03  0.00D+00 EMaxC= 1.00D-01 BMatC= 6.71D-04 BMatP= 1.99D-03
 IDIUse=3 WtCom= 9.70D-01 WtEn= 2.96D-02
 Coeff-Com: -0.503D-01 0.819D-01 0.472D+00 0.496D+00
 Coeff-En:   0.000D+00 0.000D+00 0.153D+00 0.847D+00
 Coeff:     -0.488D-01 0.795D-01 0.463D+00 0.507D+00
 Gap=     0.295 Goal=   None    Shift=    0.000
 RMSDP=2.93D-05 MaxDP=1.57D-03 DE=-1.49D-03 OVMax= 9.19D-03

 Cycle   5  Pass 0  IDiag  1:
 RMSU=  1.55D-05    CP:  9.29D-01  1.18D+00  9.71D-01  5.84D-01
 E= -155.699726459475     Delta-E=       -0.000643511722 Rises=F Damp=F
 DIIS: error= 2.70D-04 at cycle   5 NSaved=   5.
 NSaved= 5 IEnMin= 5 EnMin= -155.699726459475     IErMin= 5 ErrMin= 2.70D-04
 ErrMax= 2.70D-04  0.00D+00 EMaxC= 1.00D-01 BMatC= 4.56D-06 BMatP= 6.71D-04
 IDIUse=3 WtCom= 9.97D-01 WtEn= 2.70D-03
 Coeff-Com: -0.305D-02 0.268D-02 0.391D-01 0.969D-01 0.864D+00
 Coeff-En:   0.000D+00 0.000D+00 0.000D+00 0.000D+00 0.100D+01
 Coeff:     -0.304D-02 0.267D-02 0.390D-01 0.967D-01 0.865D+00
 Gap=     0.295 Goal=   None    Shift=    0.000
 RMSDP=3.83D-06 MaxDP=1.39D-04 DE=-6.44D-04 OVMax= 1.17D-03

 Initial convergence to 1.0D-05 achieved.  Increase integral accuracy.
 Cycle   6  Pass 1  IDiag  1:
 E= -155.699751374666     Delta-E=       -0.000024915192 Rises=F Damp=F
 DIIS: error= 6.09D-05 at cycle   1 NSaved=   1.
 NSaved= 1 IEnMin= 1 EnMin= -155.699751374666     IErMin= 1 ErrMin= 6.09D-05
 ErrMax= 6.09D-05  0.00D+00 EMaxC= 1.00D-01 BMatC= 4.86D-07 BMatP= 4.86D-07
 IDIUse=1 WtCom= 1.00D+00 WtEn= 0.00D+00
 Coeff-Com:  0.100D+01
 Coeff:      0.100D+01
 Gap=     0.295 Goal=   None    Shift=    0.000
 RMSDP=3.83D-06 MaxDP=1.39D-04 DE=-2.49D-05 OVMax= 2.82D-04

 Cycle   7  Pass 1  IDiag  1:
 RMSU=  1.52D-05    CP:  1.00D+00
 E= -155.699751712388     Delta-E=       -0.000000337722 Rises=F Damp=F
 DIIS: error= 1.83D-05 at cycle   2 NSaved=   2.
 NSaved= 2 IEnMin= 2 EnMin= -155.699751712388     IErMin= 2 ErrMin= 1.83D-05
 ErrMax= 1.83D-05  0.00D+00 EMaxC= 1.00D-01 BMatC= 3.01D-08 BMatP= 4.86D-07
 IDIUse=1 WtCom= 1.00D+00 WtEn= 0.00D+00
 Coeff-Com:  0.805D-01 0.920D+00
 Coeff:      0.805D-01 0.920D+00
 Gap=     0.295 Goal=   None    Shift=    0.000
 RMSDP=6.72D-07 MaxDP=2.54D-05 DE=-3.38D-07 OVMax= 1.62D-04

 Cycle   8  Pass 1  IDiag  1:
 RMSU=  4.80D-07    CP:  1.00D+00  1.03D+00
 E= -155.699751729181     Delta-E=       -0.000000016793 Rises=F Damp=F
 DIIS: error= 1.37D-05 at cycle   3 NSaved=   3.
 NSaved= 3 IEnMin= 3 EnMin= -155.699751729181     IErMin= 3 ErrMin= 1.37D-05
 ErrMax= 1.37D-05  0.00D+00 EMaxC= 1.00D-01 BMatC= 2.65D-08 BMatP= 3.01D-08
 IDIUse=1 WtCom= 1.00D+00 WtEn= 0.00D+00
 Coeff-Com: -0.163D-01 0.483D+00 0.533D+00
 Coeff:     -0.163D-01 0.483D+00 0.533D+00
 Gap=     0.295 Goal=   None    Shift=    0.000
 RMSDP=2.21D-07 MaxDP=1.44D-05 DE=-1.68D-08 OVMax= 8.06D-05

 Cycle   9  Pass 1  IDiag  1:
 RMSU=  1.99D-07    CP:  1.00D+00  1.04D+00  8.61D-01
 E= -155.699751755628     Delta-E=       -0.000000026447 Rises=F Damp=F
 DIIS: error= 3.13D-06 at cycle   4 NSaved=   4.
 NSaved= 4 IEnMin= 4 EnMin= -155.699751755628     IErMin= 4 ErrMin= 3.13D-06
 ErrMax= 3.13D-06  0.00D+00 EMaxC= 1.00D-01 BMatC= 3.09D-10 BMatP= 2.65D-08
 IDIUse=1 WtCom= 1.00D+00 WtEn= 0.00D+00
 Coeff-Com: -0.913D-02 0.232D-01 0.721D-01 0.914D+00
 Coeff:     -0.913D-02 0.232D-01 0.721D-01 0.914D+00
 Gap=     0.295 Goal=   None    Shift=    0.000
 RMSDP=5.91D-08 MaxDP=1.73D-06 DE=-2.64D-08 OVMax= 1.81D-05

 Cycle  10  Pass 1  IDiag  1:
 RMSU=  4.30D-08    CP:  1.00D+00  1.04D+00  9.20D-01  1.13D+00
 E= -155.699751756355     Delta-E=       -0.000000000727 Rises=F Damp=F
 DIIS: error= 7.34D-07 at cycle   5 NSaved=   5.
 NSaved= 5 IEnMin= 5 EnMin= -155.699751756355     IErMin= 5 ErrMin= 7.34D-07
 ErrMax= 7.34D-07  0.00D+00 EMaxC= 1.00D-01 BMatC= 4.89D-11 BMatP= 3.09D-10
 IDIUse=1 WtCom= 1.00D+00 WtEn= 0.00D+00
 Coeff-Com:  0.901D-03-0.480D-01-0.656D-01 0.119D+00 0.993D+00
 Coeff:      0.901D-03-0.480D-01-0.656D-01 0.119D+00 0.993D+00
 Gap=     0.295 Goal=   None    Shift=    0.000
 RMSDP=2.51D-08 MaxDP=1.19D-06 DE=-7.27D-10 OVMax= 6.18D-06

 Cycle  11  Pass 1  IDiag  1:
 RMSU=  1.45D-08    CP:  1.00D+00  1.04D+00  9.34D-01  1.22D+00  1.17D+00
 E= -155.699751756444     Delta-E=       -0.000000000089 Rises=F Damp=F
 DIIS: error= 1.48D-07 at cycle   6 NSaved=   6.
 NSaved= 6 IEnMin= 6 EnMin= -155.699751756444     IErMin= 6 ErrMin= 1.48D-07
 ErrMax= 1.48D-07  0.00D+00 EMaxC= 1.00D-01 BMatC= 2.81D-12 BMatP= 4.89D-11
 IDIUse=1 WtCom= 1.00D+00 WtEn= 0.00D+00
 Coeff-Com:  0.598D-03-0.177D-01-0.277D-01 0.209D-01 0.346D+00 0.678D+00
 Coeff:      0.598D-03-0.177D-01-0.277D-01 0.209D-01 0.346D+00 0.678D+00
 Gap=     0.295 Goal=   None    Shift=    0.000
 RMSDP=3.24D-09 MaxDP=1.86D-07 DE=-8.88D-11 OVMax= 8.80D-07

 SCF Done:  E(RB2PLYPD3) =  -155.699751756     A.U. after   11 cycles
            NFock= 11  Conv=0.32D-08     -V/T= 2.0035
 KE= 1.551514221581D+02 PE=-5.695200001725D+02 EE= 1.543892623300D+02
 Leave Link  502 at Wed Aug 26 12:24:17 2020, MaxMem=  2097152000 cpu:      1445.2
 (Enter /opt/cluster/programs/g09/g09_d.01/g09/l801.exe)
 DoSCS=T DFT=T ScalE2(SS,OS)=  0.270000  0.270000
 ExpMin= 7.60D-02 ExpMax= 6.70D+04 ExpMxC= 6.47D+02 IAcc=3 IRadAn=         5 AccDes= 0.00D+00
 HarFok:  IExCor=  205 AccDes= 0.00D+00 IRadAn=         5 IDoV=-2 UseB2=F ITyADJ=14
 ICtDFT= 12500011 ScaDFX=  1.000000  1.000000  1.000000  1.000000
 Largest valence mixing into a core orbital is  1.12D-04
 Largest core mixing into a valence orbital is  1.98D-05
 Range of M.O.s used for correlation:     5   408
 NBasis=   408 NAE=    15 NBE=    15 NFC=     4 NFV=     0
 NROrb=    404 NOA=    11 NOB=    11 NVA=   393 NVB=   393

 **** Warning!!: The largest alpha MO coefficient is  0.25920706D+02

 Leave Link  801 at Wed Aug 26 12:24:17 2020, MaxMem=  2097152000 cpu:         1.0
 (Enter /opt/cluster/programs/g09/g09_d.01/g09/l906.exe)
 DoSCS=T DFT=T ScalE2(SS,OS)=  0.270000  0.270000
 FulOut=F Deriv=F AODrv=F NAtomX=    10
   MMem=         881  MDisk=          11 MDiskD=          11
  W3Min=     2152854 MinDsk=     3857222 NBas6D=         498
 NBas2D=      125763    NTT=      124251    LW2=     4508827
    MDV=  2096381564 MDiskM=        9345 NBas2p=      117725
 Fully direct method using O(OVN) memory.
 IMap=   1   2   3   4   5   6   7   8   9  10  11
 JobTyp=1 Pass  1:  I=   1 to  11 NPSUse=  8 ParTrn=T ParDer=T DoDerP=F.
 Spin components of T(2) and E(2):
     alpha-alpha T2 =       0.4192290213D-01 E2=     -0.2542118859D-01
     alpha-beta  T2 =       0.2710704183D+00 E2=     -0.1748165667D+00
     beta-beta   T2 =       0.4192290213D-01 E2=     -0.2542118859D-01
 The integrals were generated   1 times.
 E2(B2PLYPD3) =    -0.2256589439D+00 E(B2PLYPD3) =    -0.15592541070031D+03
 Leave Link  906 at Wed Aug 26 12:25:59 2020, MaxMem=  2097152000 cpu:       811.2
 (Enter /opt/cluster/programs/g09/g09_d.01/g09/l601.exe)
 Copying SCF densities to generalized density rwf, IOpCl= 0 IROHF=0.

 **********************************************************************

            Population analysis using the SCF density.

 **********************************************************************

 Orbital symmetries:
       Occupied  (A) (A) (A) (A) (A) (A) (A) (A) (A) (A) (A) (A)
                 (A) (A) (A)
       Virtual   (A) (A) (A) (A) (A) (A) (A) (A) (A) (A) (A) (A)
                 (A) (A) (A) (A) (A) (A) (A) (A) (A) (A) (A) (A)
                 (A) (A) (A) (A) (A) (A) (A) (A) (A) (A) (A) (A)
                 (A) (A) (A) (A) (A) (A) (A) (A) (A) (A) (A) (A)
                 (A) (A) (A) (A) (A) (A) (A) (A) (A) (A) (A) (A)
                 (A) (A) (A) (A) (A) (A) (A) (A) (A) (A) (A) (A)
                 (A) (A) (A) (A) (A) (A) (A) (A) (A) (A) (A) (A)
                 (A) (A) (A) (A) (A) (A) (A) (A) (A) (A) (A) (A)
                 (A) (A) (A) (A) (A) (A) (A) (A) (A) (A) (A) (A)
                 (A) (A) (A) (A) (A) (A) (A) (A) (A) (A) (A) (A)
                 (A) (A) (A) (A) (A) (A) (A) (A) (A) (A) (A) (A)
                 (A) (A) (A) (A) (A) (A) (A) (A) (A) (A) (A) (A)
                 (A) (A) (A) (A) (A) (A) (A) (A) (A) (A) (A) (A)
                 (A) (A) (A) (A) (A) (A) (A) (A) (A) (A) (A) (A)
                 (A) (A) (A) (A) (A) (A) (A) (A) (A) (A) (A) (A)
                 (A) (A) (A) (A) (A) (A) (A) (A) (A) (A) (A) (A)
                 (A) (A) (A) (A) (A) (A) (A) (A) (A) (A) (A) (A)
                 (A) (A) (A) (A) (A) (A) (A) (A) (A) (A) (A) (A)
                 (A) (A) (A) (A) (A) (A) (A) (A) (A) (A) (A) (A)
                 (A) (A) (A) (A) (A) (A) (A) (A) (A) (A) (A) (A)
                 (A) (A) (A) (A) (A) (A) (A) (A) (A) (A) (A) (A)
                 (A) (A) (A) (A) (A) (A) (A) (A) (A) (A) (A) (A)
                 (A) (A) (A) (A) (A) (A) (A) (A) (A) (A) (A) (A)
                 (A) (A) (A) (A) (A) (A) (A) (A) (A) (A) (A) (A)
                 (A) (A) (A) (A) (A) (A) (A) (A) (A) (A) (A) (A)
                 (A) (A) (A) (A) (A) (A) (A) (A) (A) (A) (A) (A)
                 (A) (A) (A) (A) (A) (A) (A) (A) (A) (A) (A) (A)
                 (A) (A) (A) (A) (A) (A) (A) (A) (A) (A) (A) (A)
                 (A) (A) (A) (A) (A) (A) (A) (A) (A) (A) (A) (A)
                 (A) (A) (A) (A) (A) (A) (A) (A) (A) (A) (A) (A)
                 (A) (A) (A) (A) (A) (A) (A) (A) (A) (A) (A) (A)
                 (A) (A) (A) (A) (A) (A) (A) (A) (A) (A) (A) (A)
                 (A) (A) (A) (A) (A) (A) (A) (A) (A)
 The electronic state is 1-A.
 Alpha  occ. eigenvalues --  -10.62341 -10.62254 -10.61828 -10.61131  -0.93155
 Alpha  occ. eigenvalues --   -0.84987  -0.69922  -0.64070  -0.54463  -0.54140
 Alpha  occ. eigenvalues --   -0.46492  -0.45516  -0.41385  -0.38149  -0.27675
 Alpha virt. eigenvalues --    0.01848   0.07035   0.07365   0.08056   0.09603
 Alpha virt. eigenvalues --    0.11748   0.12359   0.14683   0.15858   0.16113
 Alpha virt. eigenvalues --    0.18685   0.20501   0.21368   0.22825   0.24141
 Alpha virt. eigenvalues --    0.26937   0.27056   0.29169   0.32052   0.34664
 Alpha virt. eigenvalues --    0.35700   0.36965   0.37917   0.38532   0.40183
 Alpha virt. eigenvalues --    0.42686   0.43703   0.44913   0.47179   0.48335
 Alpha virt. eigenvalues --    0.49091   0.49652   0.51757   0.55174   0.57085
 Alpha virt. eigenvalues --    0.58474   0.60853   0.64433   0.66930   0.68664
 Alpha virt. eigenvalues --    0.68981   0.71763   0.76895   0.77478   0.79258
 Alpha virt. eigenvalues --    0.79569   0.80526   0.81345   0.82441   0.84160
 Alpha virt. eigenvalues --    0.84597   0.85899   0.86594   0.87029   0.90731
 Alpha virt. eigenvalues --    0.92152   0.93514   0.94135   0.95876   0.96814
 Alpha virt. eigenvalues --    0.98791   0.99279   1.00311   1.03355   1.05481
 Alpha virt. eigenvalues --    1.06437   1.09175   1.10861   1.11832   1.12464
 Alpha virt. eigenvalues --    1.13963   1.17345   1.19395   1.21636   1.23281
 Alpha virt. eigenvalues --    1.24927   1.25520   1.34281   1.34775   1.36919
 Alpha virt. eigenvalues --    1.38124   1.40488   1.47223   1.63512   1.64027
 Alpha virt. eigenvalues --    1.66942   1.68360   1.69920   1.72829   1.73192
 Alpha virt. eigenvalues --    1.74610   1.81020   1.82699   1.84151   1.87696
 Alpha virt. eigenvalues --    1.89983   1.90770   1.91036   1.92678   1.94136
 Alpha virt. eigenvalues --    1.95110   1.98815   1.99959   2.01009   2.01997
 Alpha virt. eigenvalues --    2.04096   2.05791   2.06845   2.08426   2.09877
 Alpha virt. eigenvalues --    2.10369   2.11872   2.14198   2.16861   2.18249
 Alpha virt. eigenvalues --    2.19561   2.21626   2.23589   2.27021   2.29106
 Alpha virt. eigenvalues --    2.31314   2.32629   2.33651   2.38205   2.42650
 Alpha virt. eigenvalues --    2.44607   2.45739   2.46358   2.47736   2.50671
 Alpha virt. eigenvalues --    2.52491   2.53881   2.56412   2.57686   2.58077
 Alpha virt. eigenvalues --    2.59366   2.62190   2.63882   2.64026   2.64674
 Alpha virt. eigenvalues --    2.66820   2.69271   2.70896   2.71478   2.71638
 Alpha virt. eigenvalues --    2.73232   2.75552   2.76704   2.78882   2.80001
 Alpha virt. eigenvalues --    2.80968   2.88975   2.89701   2.92003   2.92520
 Alpha virt. eigenvalues --    2.95532   3.03964   3.07727   3.09357   3.10554
 Alpha virt. eigenvalues --    3.13108   3.14933   3.25661   3.35281   3.36193
 Alpha virt. eigenvalues --    3.38951   3.41203   3.43708   3.46207   3.47083
 Alpha virt. eigenvalues --    3.48813   3.50127   3.52506   3.56682   3.59791
 Alpha virt. eigenvalues --    3.60610   3.62496   3.64351   3.71010   3.77855
 Alpha virt. eigenvalues --    3.79600   3.83437   3.87583   3.90012   3.93521
 Alpha virt. eigenvalues --    3.95877   3.96911   4.00871   4.05322   4.16229
 Alpha virt. eigenvalues --    4.17317   4.18813   4.22328   4.25975   4.44264
 Alpha virt. eigenvalues --    4.51799   4.57483   4.59132   4.86965   4.99918
 Alpha virt. eigenvalues --    5.01542   5.03935   5.05121   5.06662   5.07661
 Alpha virt. eigenvalues --    5.13026   5.18866   5.20599   5.28667   5.31047
 Alpha virt. eigenvalues --    5.32782   5.39978   5.41808   5.47857   5.49612
 Alpha virt. eigenvalues --    5.52179   5.54516   5.58399   5.59512   5.61386
 Alpha virt. eigenvalues --    5.65897   5.69328   5.74926   5.76718   5.77738
 Alpha virt. eigenvalues --    5.79877   5.81283   5.82980   5.85704   5.86917
 Alpha virt. eigenvalues --    5.88163   5.91358   5.99343   6.01162   6.03009
 Alpha virt. eigenvalues --    6.05798   6.06955   6.08382   6.08732   6.11801
 Alpha virt. eigenvalues --    6.13819   6.16052   6.17450   6.17758   6.21796
 Alpha virt. eigenvalues --    6.22371   6.23862   6.27858   6.31062   6.34720
 Alpha virt. eigenvalues --    6.35892   6.36567   6.37170   6.37902   6.38745
 Alpha virt. eigenvalues --    6.39647   6.41573   6.44978   6.51438   6.52390
 Alpha virt. eigenvalues --    6.52756   6.54683   6.57276   6.58599   6.61157
 Alpha virt. eigenvalues --    6.64073   6.65860   6.68236   6.72683   6.80643
 Alpha virt. eigenvalues --    6.82170   6.86108   6.88889   6.91271   6.92663
 Alpha virt. eigenvalues --    6.93357   6.95092   6.99675   7.05610   7.08801
 Alpha virt. eigenvalues --    7.14913   7.15536   7.18704   7.21514   7.24191
 Alpha virt. eigenvalues --    7.26765   7.29498   7.36577   7.38560   7.43432
 Alpha virt. eigenvalues --    7.47438   7.48084   7.56300   7.58286   7.59970
 Alpha virt. eigenvalues --    7.62062   7.65248   7.65452   7.66130   7.67513
 Alpha virt. eigenvalues --    7.69813   7.71618   7.75884   7.76662   7.77753
 Alpha virt. eigenvalues --    7.80021   7.83810   7.86751   7.90701   7.93716
 Alpha virt. eigenvalues --    7.96464   7.97204   8.08339   8.09461   8.12884
 Alpha virt. eigenvalues --    8.14871   8.15808   8.18423   8.20192   8.21097
 Alpha virt. eigenvalues --    8.27830   8.32714   8.33676   8.34641   8.35824
 Alpha virt. eigenvalues --    8.36781   8.37828   8.39238   8.42464   8.47244
 Alpha virt. eigenvalues --    8.48972   8.51035   8.52466   8.57946   8.58393
 Alpha virt. eigenvalues --    8.58854   8.60190   8.62357   8.70070   8.70712
 Alpha virt. eigenvalues --    8.75086   8.76812   8.79285   8.80693   8.83372
 Alpha virt. eigenvalues --    8.89534   8.92326   8.95875   9.05387   9.14509
 Alpha virt. eigenvalues --    9.21949   9.25296   9.30999   9.35172   9.45271
 Alpha virt. eigenvalues --    9.60031   9.65927   9.75739   9.79715   9.87159
 Alpha virt. eigenvalues --    9.87818   9.93821   9.97421   9.98428  10.00529
 Alpha virt. eigenvalues --   10.04933  10.10050  10.28329  10.33345  10.36327
 Alpha virt. eigenvalues --   10.39377  10.42953  10.53185  10.72326  10.82970
 Alpha virt. eigenvalues --   10.91766  11.09847  11.57561  11.72706  11.82744
 Alpha virt. eigenvalues --   11.93436  12.87392  13.03351  13.15270  13.25734
 Alpha virt. eigenvalues --   28.64183  28.79703  29.47287  29.67184 148.23393
 Alpha virt. eigenvalues --  148.37794 149.06860 149.28233
          Condensed to atoms (all electrons):
               1          2          3          4          5          6
     1  C    4.848878   0.617961  -0.081221  -0.002316   0.423448   0.422356
     2  C    0.617961   4.836456   0.400586  -0.082972  -0.044724  -0.047505
     3  C   -0.081221   0.400586   4.840250   0.613789   0.007406  -0.008908
     4  C   -0.002316  -0.082972   0.613789   4.843774  -0.000648   0.000395
     5  H    0.423448  -0.044724   0.007406  -0.000648   0.578430  -0.042574
     6  H    0.422356  -0.047505  -0.008908   0.000395  -0.042574   0.602377
     7  H   -0.050304   0.410180  -0.059666  -0.001000  -0.008969   0.008098
     8  H   -0.001807  -0.060161   0.413425  -0.048219  -0.000085   0.005014
     9  H    0.000266  -0.007815  -0.046307   0.427021  -0.000032   0.000045
    10  H   -0.000743   0.008313  -0.051738   0.428068   0.000029  -0.000044
               7          8          9         10
     1  C   -0.050304  -0.001807   0.000266  -0.000743
     2  C    0.410180  -0.060161  -0.007815   0.008313
     3  C   -0.059666   0.413425  -0.046307  -0.051738
     4  C   -0.001000  -0.048219   0.427021   0.428068
     5  H   -0.008969  -0.000085  -0.000032   0.000029
     6  H    0.008098   0.005014   0.000045  -0.000044
     7  H    0.635092   0.006750   0.004260  -0.000080
     8  H    0.006750   0.634650   0.007547  -0.010217
     9  H    0.004260   0.007547   0.587574  -0.042644
    10  H   -0.000080  -0.010217  -0.042644   0.584008
 Mulliken charges:
               1
     1  C   -0.176518
     2  C   -0.030318
     3  C   -0.027616
     4  C   -0.177892
     5  H    0.087720
     6  H    0.060748
     7  H    0.055640
     8  H    0.053100
     9  H    0.070084
    10  H    0.085050
 Sum of Mulliken charges =   0.00000
 Mulliken charges with hydrogens summed into heavy atoms:
               1
     1  C   -0.028050
     2  C    0.025322
     3  C    0.025485
     4  C   -0.022757
 Electronic spatial extent (au):  <R**2>=            332.3193
 Charge=              0.0000 electrons
 Dipole moment (field-independent basis, Debye):
    X=              0.0074    Y=             -0.0271    Z=              0.1268  Tot=              0.1298
 Quadrupole moment (field-independent basis, Debye-Ang):
   XX=            -23.7394   YY=            -22.9752   ZZ=            -29.2529
   XY=              0.0115   XZ=              0.0557   YZ=             -0.0653
 Traceless Quadrupole moment (field-independent basis, Debye-Ang):
   XX=              1.5831   YY=              2.3473   ZZ=             -3.9304
   XY=              0.0115   XZ=              0.0557   YZ=             -0.0653
 Octapole moment (field-independent basis, Debye-Ang**2):
  XXX=             -0.3345  YYY=             -0.0801  ZZZ=              0.2346  XYY=              0.2836
  XXY=             -0.4610  XXZ=              0.4876  XZZ=              0.1861  YZZ=             -0.0470
  YYZ=              0.3356  XYZ=              0.1360
 Hexadecapole moment (field-independent basis, Debye-Ang**3):
 XXXX=           -343.8728 YYYY=            -65.4980 ZZZZ=            -36.7550 XXXY=              7.0879
 XXXZ=             -0.1312 YYYX=             -1.5650 YYYZ=             -0.1140 ZZZX=              0.0838
 ZZZY=             -0.0603 XXYY=            -67.3766 XXZZ=            -76.3527 YYZZ=            -19.2897
 XXYZ=             -0.5719 YYXZ=              0.3010 ZZXY=             -0.3068
 N-N= 1.042795639280D+02 E-N=-5.695199836212D+02  KE= 1.551514221581D+02
 Leave Link  601 at Wed Aug 26 12:25:59 2020, MaxMem=  2097152000 cpu:         0.7
 (Enter /opt/cluster/programs/g09/g09_d.01/g09/l9999.exe)
 1\1\GINC-NODE08\SP\RB2PLYPD3-FC\def2QZVP\C4H6\BOITTIER\26-Aug-2020\0\\
 #p B2PLYPD3/Def2QZVP\\butadiene\\0,1\C,0,-3.833844,0.225714,0.011094\C
 ,0,-2.715287,-0.508747,0.035472\C,0,-1.385819,0.067144,0.02584\C,0,-0.
 272015,-0.653946,0.016318\H,0,-4.818401,-0.224732,0.072198\H,0,-3.7513
 82,1.334775,-0.059184\H,0,-2.808269,-1.574292,0.108069\H,0,-1.328313,1
 .153696,0.054135\H,0,-0.28902,-1.73183,0.098123\H,0,0.661943,-0.140692
 ,0.019748\\Version=ES64L-G09RevD.01\State=1-A\HF=-155.6997518\MP2=-155
 .9254107\RMSD=3.244e-09\PG=C01 [X(C4H6)]\\@


 A COMPUTER IS LIKE A HORSE, IT WILL SENSE WEAKNESS.
     -- GREG WETTSTEIN
 Job cpu time:       0 days  0 hours 37 minutes 53.1 seconds.
 File lengths (MBytes):  RWF=     92 Int=      0 D2E=      0 Chk=      9 Scr=      1
 Normal termination of Gaussian 09 at Wed Aug 26 12:26:00 2020.
