 Entering Gaussian System, Link 0=/opt/cluster/programs/g09/g09_d.01/g09//g09
 Input=/home/boittier/MDCM/nms_sampling/butadiene_geom.xyz.dir/energies/butadiene_85_energy.com
 Output=/scratch/boittier/butadiene_85_energy/butadiene_85_energy.out
 Initial command:
 /opt/cluster/programs/g09/g09_d.01/g09/l1.exe "/scratch/boittier/butadiene_85_energy/Gau-82081.inp" -scrdir="/scratch/boittier/butadiene_85_energy/"
 Entering Link 1 = /opt/cluster/programs/g09/g09_d.01/g09/l1.exe PID=     82082.
  
 Copyright (c) 1988,1990,1992,1993,1995,1998,2003,2009,2013,
            Gaussian, Inc.  All Rights Reserved.
  
 This is part of the Gaussian(R) 09 program.  It is based on
 the Gaussian(R) 03 system (copyright 2003, Gaussian, Inc.),
 the Gaussian(R) 98 system (copyright 1998, Gaussian, Inc.),
 the Gaussian(R) 94 system (copyright 1995, Gaussian, Inc.),
 the Gaussian 92(TM) system (copyright 1992, Gaussian, Inc.),
 the Gaussian 90(TM) system (copyright 1990, Gaussian, Inc.),
 the Gaussian 88(TM) system (copyright 1988, Gaussian, Inc.),
 the Gaussian 86(TM) system (copyright 1986, Carnegie Mellon
 University), and the Gaussian 82(TM) system (copyright 1983,
 Carnegie Mellon University). Gaussian is a federally registered
 trademark of Gaussian, Inc.
  
 This software contains proprietary and confidential information,
 including trade secrets, belonging to Gaussian, Inc.
  
 This software is provided under written license and may be
 used, copied, transmitted, or stored only in accord with that
 written license.
  
 The following legend is applicable only to US Government
 contracts under FAR:
  
                    RESTRICTED RIGHTS LEGEND
  
 Use, reproduction and disclosure by the US Government is
 subject to restrictions as set forth in subparagraphs (a)
 and (c) of the Commercial Computer Software - Restricted
 Rights clause in FAR 52.227-19.
  
 Gaussian, Inc.
 340 Quinnipiac St., Bldg. 40, Wallingford CT 06492
  
  
 ---------------------------------------------------------------
 Warning -- This program may not be used in any manner that
 competes with the business of Gaussian, Inc. or will provide
 assistance to any competitor of Gaussian, Inc.  The licensee
 of this program is prohibited from giving any competitor of
 Gaussian, Inc. access to this program.  By using this program,
 the user acknowledges that Gaussian, Inc. is engaged in the
 business of creating and licensing software in the field of
 computational chemistry and represents and warrants to the
 licensee that it is not a competitor of Gaussian, Inc. and that
 it will not use this program in any manner prohibited above.
 ---------------------------------------------------------------
  

 Cite this work as:
 Gaussian 09, Revision D.01,
 M. J. Frisch, G. W. Trucks, H. B. Schlegel, G. E. Scuseria, 
 M. A. Robb, J. R. Cheeseman, G. Scalmani, V. Barone, B. Mennucci, 
 G. A. Petersson, H. Nakatsuji, M. Caricato, X. Li, H. P. Hratchian, 
 A. F. Izmaylov, J. Bloino, G. Zheng, J. L. Sonnenberg, M. Hada, 
 M. Ehara, K. Toyota, R. Fukuda, J. Hasegawa, M. Ishida, T. Nakajima, 
 Y. Honda, O. Kitao, H. Nakai, T. Vreven, J. A. Montgomery, Jr., 
 J. E. Peralta, F. Ogliaro, M. Bearpark, J. J. Heyd, E. Brothers, 
 K. N. Kudin, V. N. Staroverov, T. Keith, R. Kobayashi, J. Normand, 
 K. Raghavachari, A. Rendell, J. C. Burant, S. S. Iyengar, J. Tomasi, 
 M. Cossi, N. Rega, J. M. Millam, M. Klene, J. E. Knox, J. B. Cross, 
 V. Bakken, C. Adamo, J. Jaramillo, R. Gomperts, R. E. Stratmann, 
 O. Yazyev, A. J. Austin, R. Cammi, C. Pomelli, J. W. Ochterski, 
 R. L. Martin, K. Morokuma, V. G. Zakrzewski, G. A. Voth, 
 P. Salvador, J. J. Dannenberg, S. Dapprich, A. D. Daniels, 
 O. Farkas, J. B. Foresman, J. V. Ortiz, J. Cioslowski, 
 and D. J. Fox, Gaussian, Inc., Wallingford CT, 2013.
 
 ******************************************
 Gaussian 09:  ES64L-G09RevD.01 24-Apr-2013
                26-Aug-2020 
 ******************************************
 %chk=/home/boittier/MDCM/nms_sampling/butadiene_geom.xyz.dir/butadiene_85.chk
 %nproc=8
 Will use up to    8 processors via shared memory.
 %mem=16000MB
 --------------------
 #p B2PLYPD3/Def2QZVP
 --------------------
 1/38=1/1;
 2/12=2,17=6,18=5,40=1/2;
 3/5=45,7=101,11=9,16=1,25=1,30=1,74=-60/1,2,3;
 4//1;
 5/5=2,38=5/2;
 8/10=1/1;
 9/16=-3/6;
 6/7=2,8=2,9=2,10=2/1;
 99/5=1,9=1/99;
 Leave Link    1 at Wed Aug 26 21:40:50 2020, MaxMem=  2097152000 cpu:         0.2
 (Enter /opt/cluster/programs/g09/g09_d.01/g09/l101.exe)
 ---------
 butadiene
 ---------
 Symbolic Z-matrix:
 Charge =  0 Multiplicity = 1
 C                    -3.83337   0.22789  -0.00462 
 C                    -2.72754  -0.51579   0.07316 
 C                    -1.38678   0.06821   0.03219 
 C                    -0.26727  -0.64518   0.01922 
 H                    -4.80827  -0.20052  -0.03307 
 H                    -3.71209   1.32308  -0.04696 
 H                    -2.80769  -1.60302   0.05177 
 H                    -1.32752   1.14167   0.00444 
 H                    -0.27161  -1.72083  -0.01882 
 H                     0.69735  -0.1799   -0.06148 
 
 NAtoms=     10 NQM=       10 NQMF=       0 NMMI=      0 NMMIF=      0
                NMic=       0 NMicF=      0.
                    Isotopes and Nuclear Properties:
 (Nuclear quadrupole moments (NQMom) in fm**2, nuclear magnetic moments (NMagM)
  in nuclear magnetons)

  Atom         1           2           3           4           5           6           7           8           9          10
 IAtWgt=          12          12          12          12           1           1           1           1           1           1
 AtmWgt=  12.0000000  12.0000000  12.0000000  12.0000000   1.0078250   1.0078250   1.0078250   1.0078250   1.0078250   1.0078250
 NucSpn=           0           0           0           0           1           1           1           1           1           1
 AtZEff=   0.0000000   0.0000000   0.0000000   0.0000000   0.0000000   0.0000000   0.0000000   0.0000000   0.0000000   0.0000000
 NQMom=    0.0000000   0.0000000   0.0000000   0.0000000   0.0000000   0.0000000   0.0000000   0.0000000   0.0000000   0.0000000
 NMagM=    0.0000000   0.0000000   0.0000000   0.0000000   2.7928460   2.7928460   2.7928460   2.7928460   2.7928460   2.7928460
 AtZNuc=   6.0000000   6.0000000   6.0000000   6.0000000   1.0000000   1.0000000   1.0000000   1.0000000   1.0000000   1.0000000
 Leave Link  101 at Wed Aug 26 21:40:50 2020, MaxMem=  2097152000 cpu:         0.6
 (Enter /opt/cluster/programs/g09/g09_d.01/g09/l202.exe)
                          Input orientation:                          
 ---------------------------------------------------------------------
 Center     Atomic      Atomic             Coordinates (Angstroms)
 Number     Number       Type             X           Y           Z
 ---------------------------------------------------------------------
      1          6           0       -3.833367    0.227887   -0.004619
      2          6           0       -2.727538   -0.515787    0.073158
      3          6           0       -1.386776    0.068214    0.032192
      4          6           0       -0.267268   -0.645179    0.019221
      5          1           0       -4.808267   -0.200522   -0.033070
      6          1           0       -3.712090    1.323081   -0.046959
      7          1           0       -2.807685   -1.603017    0.051773
      8          1           0       -1.327524    1.141674    0.004442
      9          1           0       -0.271611   -1.720827   -0.018819
     10          1           0        0.697353   -0.179900   -0.061483
 ---------------------------------------------------------------------
                    Distance matrix (angstroms):
                    1          2          3          4          5
     1  C    0.000000
     2  C    1.334900   0.000000
     3  C    2.452072   1.463003   0.000000
     4  C    3.671495   2.464261   1.327553   0.000000
     5  H    1.065258   2.107157   3.432649   4.563017   0.000000
     6  H    1.102702   2.089308   2.643490   3.968025   1.877009
     7  H    2.099384   1.090390   2.193713   2.715185   2.444692
     8  H    2.667272   2.170700   1.075452   2.077788   3.730746
     9  H    4.060024   2.737181   2.108759   1.076329   4.784640
    10  H    4.549390   3.443955   2.100935   1.074007   5.505732
                    6          7          8          9         10
     6  H    0.000000
     7  H    3.064269   0.000000
     8  H    2.392009   3.118725   0.000000
     9  H    4.593807   2.539790   3.051132   0.000000
    10  H    4.658578   3.784624   2.418890   1.820760   0.000000
 Stoichiometry    C4H6
 Framework group  C1[X(C4H6)]
 Deg. of freedom    24
 Full point group                 C1      NOp   1
 Largest Abelian subgroup         C1      NOp   1
 Largest concise Abelian subgroup C1      NOp   1
                         Standard orientation:                         
 ---------------------------------------------------------------------
 Center     Atomic      Atomic             Coordinates (Angstroms)
 Number     Number       Type             X           Y           Z
 ---------------------------------------------------------------------
      1          6           0       -1.833047   -0.117246    0.020553
      2          6           0       -0.612114    0.418728   -0.042793
      3          6           0        0.602761   -0.396123   -0.020983
      4          6           0        1.831662    0.105366    0.005596
      5          1           0       -2.715792    0.477508    0.063007
      6          1           0       -1.909346   -1.217204    0.035461
      7          1           0       -0.496827    1.501923    0.005662
      8          1           0        0.469329   -1.463265   -0.019905
      9          1           0        2.019451    1.163219    0.070147
     10          1           0        2.697609   -0.526535    0.071391
 ---------------------------------------------------------------------
 Rotational constants (GHZ):     41.6729680      4.4919110      4.0579099
 Leave Link  202 at Wed Aug 26 21:40:50 2020, MaxMem=  2097152000 cpu:         0.0
 (Enter /opt/cluster/programs/g09/g09_d.01/g09/l301.exe)
 Standard basis: def2QZVP (5D, 7F)
 Ernie: Thresh=  0.10000D-02 Tol=  0.10000D-05 Strict=F.
 There are   498 symmetry adapted cartesian basis functions of A   symmetry.
 There are   408 symmetry adapted basis functions of A   symmetry.
   408 basis functions,   596 primitive gaussians,   498 cartesian basis functions
    15 alpha electrons       15 beta electrons
       nuclear repulsion energy       104.1690462016 Hartrees.
 IExCor=  419 DFT=T Ex+Corr=B2PLYPD3 ExCW=0 ScaHFX=  0.530000
 ScaDFX=  0.470000  0.470000  0.730000  0.730000 ScalE2=  0.270000  0.270000
 IRadAn=      0 IRanWt=     -1 IRanGd=            0 ICorTp=0 IEmpDi=141
 NAtoms=   10 NActive=   10 NUniq=   10 SFac= 1.00D+00 NAtFMM=   60 NAOKFM=F Big=F
 Integral buffers will be    131072 words long.
 Regular integral format.
 Two-electron integral symmetry is turned on.
 R6Disp:  Grimme-D3(BJ) Dispersion energy=       -0.0048492100 Hartrees.
 Nuclear repulsion after empirical dispersion term =      104.1641969916 Hartrees.
 Leave Link  301 at Wed Aug 26 21:40:50 2020, MaxMem=  2097152000 cpu:         0.5
 (Enter /opt/cluster/programs/g09/g09_d.01/g09/l302.exe)
 NPDir=0 NMtPBC=     1 NCelOv=     1 NCel=       1 NClECP=     1 NCelD=      1
         NCelK=      1 NCelE2=     1 NClLst=     1 CellRange=     0.0.
 One-electron integrals computed using PRISM.
   1 Symmetry operations used in ECPInt.
 ECPInt:  NShTT=    8256 NPrTT=   19107 LenC2=    8061 LenP2D=   16132.
 LDataN:  DoStor=T MaxTD1= 8 Len=  415
 NBasis=   408 RedAO= T EigKep=  4.28D-05  NBF=   408
 NBsUse=   408 1.00D-06 EigRej= -1.00D+00 NBFU=   408
 Precomputing XC quadrature grid using
 IXCGrd= 4 IRadAn=           0 IRanWt=          -1 IRanGd=           0 AccXCQ= 0.00D+00.
 Generated NRdTot=       0 NPtTot=           0 NUsed=           0 NTot=          32
 NSgBfM=   498   498   498   498   498 MxSgAt=    10 MxSgA2=    10.
 Leave Link  302 at Wed Aug 26 21:40:51 2020, MaxMem=  2097152000 cpu:         3.4
 (Enter /opt/cluster/programs/g09/g09_d.01/g09/l303.exe)
 DipDrv:  MaxL=1.
 Leave Link  303 at Wed Aug 26 21:40:51 2020, MaxMem=  2097152000 cpu:         0.4
 (Enter /opt/cluster/programs/g09/g09_d.01/g09/l401.exe)
 ExpMin= 7.60D-02 ExpMax= 6.70D+04 ExpMxC= 6.47D+02 IAcc=2 IRadAn=         4 AccDes= 0.00D+00
 Harris functional with IExCor=  419 and IRadAn=       4 diagonalized for initial guess.
 HarFok:  IExCor=  419 AccDes= 0.00D+00 IRadAn=         4 IDoV= 1 UseB2=F ITyADJ=14
 ICtDFT=  3500011 ScaDFX=  1.000000  1.000000  1.000000  1.000000
 FoFCou: FMM=F IPFlag=           0 FMFlag=      100000 FMFlg1=           0
         NFxFlg=           0 DoJE=T BraDBF=F KetDBF=T FulRan=T
         wScrn=  0.000000 ICntrl=     500 IOpCl=  0 I1Cent=   200000004 NGrid=           0
         NMat0=    1 NMatS0=      1 NMatT0=    0 NMatD0=    1 NMtDS0=    0 NMtDT0=    0
 Petite list used in FoFCou.
 Harris En= -156.138022584708    
 JPrj=0 DoOrth=F DoCkMO=F.
 Leave Link  401 at Wed Aug 26 21:40:52 2020, MaxMem=  2097152000 cpu:         8.4
 (Enter /opt/cluster/programs/g09/g09_d.01/g09/l502.exe)
 Closed shell SCF:
 Using DIIS extrapolation, IDIIS=  1040.
 Integral symmetry usage will be decided dynamically.
 IVT=      770090 IEndB=      770090 NGot=  2097152000 MDV=  2096647053
 LenX=  2096647053 LenY=  2096398551
 Requested convergence on RMS density matrix=1.00D-08 within 128 cycles.
 Requested convergence on MAX density matrix=1.00D-06.
 Requested convergence on             energy=1.00D-06.
 No special actions if energy rises.
 Fock matrices will be formed incrementally for  20 cycles.
 Integral accuracy reduced to 1.0D-05 until final iterations.

 Cycle   1  Pass 0  IDiag  1:
 FoFJK:  IHMeth= 1 ICntrl=       0 DoSepK=F KAlg= 0 I1Cent=   0 FoldK=F
 IRaf= 940000000 NMat=   1 IRICut=       1 DoRegI=T DoRafI=F ISym2E= 0.
 FoFCou: FMM=F IPFlag=           0 FMFlag=      100000 FMFlg1=           0
         NFxFlg=           0 DoJE=F BraDBF=F KetDBF=F FulRan=T
         wScrn=  0.000000 ICntrl=       0 IOpCl=  0 I1Cent=           0 NGrid=           0
         NMat0=    1 NMatS0=      1 NMatT0=    0 NMatD0=    1 NMtDS0=    0 NMtDT0=    0
 Symmetry not used in FoFCou.
 E= -155.510539052149    
 DIIS: error= 3.83D-02 at cycle   1 NSaved=   1.
 NSaved= 1 IEnMin= 1 EnMin= -155.510539052149     IErMin= 1 ErrMin= 3.83D-02
 ErrMax= 3.83D-02  0.00D+00 EMaxC= 1.00D-01 BMatC= 2.56D-01 BMatP= 2.56D-01
 IDIUse=3 WtCom= 6.17D-01 WtEn= 3.83D-01
 Coeff-Com:  0.100D+01
 Coeff-En:   0.100D+01
 Coeff:      0.100D+01
 Gap=     0.302 Goal=   None    Shift=    0.000
 GapD=    0.302 DampG=1.000 DampE=0.500 DampFc=0.5000 IDamp=-1.
 Damping current iteration by 5.00D-01
 RMSDP=9.56D-04 MaxDP=5.15D-02              OVMax= 1.94D-01

 Cycle   2  Pass 0  IDiag  1:
 RMSU=  4.39D-04    CP:  9.50D-01
 E= -155.611318322913     Delta-E=       -0.100779270763 Rises=F Damp=T
 DIIS: error= 1.13D-02 at cycle   2 NSaved=   2.
 NSaved= 2 IEnMin= 2 EnMin= -155.611318322913     IErMin= 2 ErrMin= 1.13D-02
 ErrMax= 1.13D-02  0.00D+00 EMaxC= 1.00D-01 BMatC= 2.99D-02 BMatP= 2.56D-01
 IDIUse=3 WtCom= 8.87D-01 WtEn= 1.13D-01
 Coeff-Com: -0.299D+00 0.130D+01
 Coeff-En:   0.000D+00 0.100D+01
 Coeff:     -0.265D+00 0.127D+01
 Gap=     0.358 Goal=   None    Shift=    0.000
 RMSDP=2.65D-04 MaxDP=7.63D-03 DE=-1.01D-01 OVMax= 9.31D-02

 Cycle   3  Pass 0  IDiag  1:
 RMSU=  2.53D-04    CP:  9.33D-01  1.09D+00
 E= -155.698473873937     Delta-E=       -0.087155551024 Rises=F Damp=F
 DIIS: error= 4.31D-03 at cycle   3 NSaved=   3.
 NSaved= 3 IEnMin= 3 EnMin= -155.698473873937     IErMin= 3 ErrMin= 4.31D-03
 ErrMax= 4.31D-03  0.00D+00 EMaxC= 1.00D-01 BMatC= 1.70D-03 BMatP= 2.99D-02
 IDIUse=3 WtCom= 9.57D-01 WtEn= 4.31D-02
 Coeff-Com: -0.107D+00 0.210D+00 0.898D+00
 Coeff-En:   0.000D+00 0.000D+00 0.100D+01
 Coeff:     -0.103D+00 0.201D+00 0.902D+00
 Gap=     0.297 Goal=   None    Shift=    0.000
 RMSDP=6.58D-05 MaxDP=3.82D-03 DE=-8.72D-02 OVMax= 2.10D-02

 Cycle   4  Pass 0  IDiag  1:
 RMSU=  4.78D-05    CP:  9.29D-01  1.19D+00  9.43D-01
 E= -155.699826727263     Delta-E=       -0.001352853326 Rises=F Damp=F
 DIIS: error= 2.36D-03 at cycle   4 NSaved=   4.
 NSaved= 4 IEnMin= 4 EnMin= -155.699826727263     IErMin= 4 ErrMin= 2.36D-03
 ErrMax= 2.36D-03  0.00D+00 EMaxC= 1.00D-01 BMatC= 4.95D-04 BMatP= 1.70D-03
 IDIUse=3 WtCom= 9.76D-01 WtEn= 2.36D-02
 Coeff-Com: -0.488D-01 0.795D-01 0.471D+00 0.499D+00
 Coeff-En:   0.000D+00 0.000D+00 0.951D-01 0.905D+00
 Coeff:     -0.477D-01 0.776D-01 0.462D+00 0.508D+00
 Gap=     0.297 Goal=   None    Shift=    0.000
 RMSDP=2.61D-05 MaxDP=1.29D-03 DE=-1.35D-03 OVMax= 8.20D-03

 Cycle   5  Pass 0  IDiag  1:
 RMSU=  1.52D-05    CP:  9.29D-01  1.18D+00  9.82D-01  6.11D-01
 E= -155.700302805905     Delta-E=       -0.000476078642 Rises=F Damp=F
 DIIS: error= 2.63D-04 at cycle   5 NSaved=   5.
 NSaved= 5 IEnMin= 5 EnMin= -155.700302805905     IErMin= 5 ErrMin= 2.63D-04
 ErrMax= 2.63D-04  0.00D+00 EMaxC= 1.00D-01 BMatC= 5.15D-06 BMatP= 4.95D-04
 IDIUse=3 WtCom= 9.97D-01 WtEn= 2.63D-03
 Coeff-Com: -0.304D-02 0.272D-02 0.392D-01 0.112D+00 0.849D+00
 Coeff-En:   0.000D+00 0.000D+00 0.000D+00 0.000D+00 0.100D+01
 Coeff:     -0.303D-02 0.271D-02 0.391D-01 0.112D+00 0.850D+00
 Gap=     0.297 Goal=   None    Shift=    0.000
 RMSDP=3.74D-06 MaxDP=1.26D-04 DE=-4.76D-04 OVMax= 1.20D-03

 Initial convergence to 1.0D-05 achieved.  Increase integral accuracy.
 Cycle   6  Pass 1  IDiag  1:
 E= -155.700323370808     Delta-E=       -0.000020564903 Rises=F Damp=F
 DIIS: error= 4.95D-05 at cycle   1 NSaved=   1.
 NSaved= 1 IEnMin= 1 EnMin= -155.700323370808     IErMin= 1 ErrMin= 4.95D-05
 ErrMax= 4.95D-05  0.00D+00 EMaxC= 1.00D-01 BMatC= 4.82D-07 BMatP= 4.82D-07
 IDIUse=1 WtCom= 1.00D+00 WtEn= 0.00D+00
 Coeff-Com:  0.100D+01
 Coeff:      0.100D+01
 Gap=     0.297 Goal=   None    Shift=    0.000
 RMSDP=3.74D-06 MaxDP=1.26D-04 DE=-2.06D-05 OVMax= 2.73D-04

 Cycle   7  Pass 1  IDiag  1:
 RMSU=  1.63D-05    CP:  1.00D+00
 E= -155.700323696179     Delta-E=       -0.000000325371 Rises=F Damp=F
 DIIS: error= 1.18D-05 at cycle   2 NSaved=   2.
 NSaved= 2 IEnMin= 2 EnMin= -155.700323696179     IErMin= 2 ErrMin= 1.18D-05
 ErrMax= 1.18D-05  0.00D+00 EMaxC= 1.00D-01 BMatC= 1.71D-08 BMatP= 4.82D-07
 IDIUse=1 WtCom= 1.00D+00 WtEn= 0.00D+00
 Coeff-Com:  0.361D-01 0.964D+00
 Coeff:      0.361D-01 0.964D+00
 Gap=     0.297 Goal=   None    Shift=    0.000
 RMSDP=8.16D-07 MaxDP=2.55D-05 DE=-3.25D-07 OVMax= 1.17D-04

 Cycle   8  Pass 1  IDiag  1:
 RMSU=  5.32D-07    CP:  1.00D+00  1.04D+00
 E= -155.700323709648     Delta-E=       -0.000000013469 Rises=F Damp=F
 DIIS: error= 9.77D-06 at cycle   3 NSaved=   3.
 NSaved= 3 IEnMin= 3 EnMin= -155.700323709648     IErMin= 3 ErrMin= 9.77D-06
 ErrMax= 9.77D-06  0.00D+00 EMaxC= 1.00D-01 BMatC= 1.29D-08 BMatP= 1.71D-08
 IDIUse=1 WtCom= 1.00D+00 WtEn= 0.00D+00
 Coeff-Com: -0.154D-01 0.461D+00 0.554D+00
 Coeff:     -0.154D-01 0.461D+00 0.554D+00
 Gap=     0.297 Goal=   None    Shift=    0.000
 RMSDP=1.68D-07 MaxDP=9.92D-06 DE=-1.35D-08 OVMax= 5.79D-05

 Cycle   9  Pass 1  IDiag  1:
 RMSU=  1.58D-07    CP:  1.00D+00  1.04D+00  1.02D+00
 E= -155.700323722172     Delta-E=       -0.000000012524 Rises=F Damp=F
 DIIS: error= 2.92D-06 at cycle   4 NSaved=   4.
 NSaved= 4 IEnMin= 4 EnMin= -155.700323722172     IErMin= 4 ErrMin= 2.92D-06
 ErrMax= 2.92D-06  0.00D+00 EMaxC= 1.00D-01 BMatC= 4.09D-10 BMatP= 1.29D-08
 IDIUse=1 WtCom= 1.00D+00 WtEn= 0.00D+00
 Coeff-Com: -0.744D-02 0.229D-01 0.137D+00 0.847D+00
 Coeff:     -0.744D-02 0.229D-01 0.137D+00 0.847D+00
 Gap=     0.297 Goal=   None    Shift=    0.000
 RMSDP=5.79D-08 MaxDP=1.65D-06 DE=-1.25D-08 OVMax= 1.74D-05

 Cycle  10  Pass 1  IDiag  1:
 RMSU=  3.66D-08    CP:  1.00D+00  1.04D+00  1.09D+00  1.06D+00
 E= -155.700323722862     Delta-E=       -0.000000000689 Rises=F Damp=F
 DIIS: error= 7.23D-07 at cycle   5 NSaved=   5.
 NSaved= 5 IEnMin= 5 EnMin= -155.700323722862     IErMin= 5 ErrMin= 7.23D-07
 ErrMax= 7.23D-07  0.00D+00 EMaxC= 1.00D-01 BMatC= 4.25D-11 BMatP= 4.09D-10
 IDIUse=1 WtCom= 1.00D+00 WtEn= 0.00D+00
 Coeff-Com:  0.242D-03-0.468D-01-0.398D-01 0.189D+00 0.897D+00
 Coeff:      0.242D-03-0.468D-01-0.398D-01 0.189D+00 0.897D+00
 Gap=     0.297 Goal=   None    Shift=    0.000
 RMSDP=2.14D-08 MaxDP=1.02D-06 DE=-6.89D-10 OVMax= 5.84D-06

 Cycle  11  Pass 1  IDiag  1:
 RMSU=  1.28D-08    CP:  1.00D+00  1.04D+00  1.11D+00  1.13D+00  1.17D+00
 E= -155.700323722931     Delta-E=       -0.000000000069 Rises=F Damp=F
 DIIS: error= 2.17D-07 at cycle   6 NSaved=   6.
 NSaved= 6 IEnMin= 6 EnMin= -155.700323722931     IErMin= 6 ErrMin= 2.17D-07
 ErrMax= 2.17D-07  0.00D+00 EMaxC= 1.00D-01 BMatC= 5.04D-12 BMatP= 4.25D-11
 IDIUse=1 WtCom= 1.00D+00 WtEn= 0.00D+00
 Coeff-Com:  0.592D-03-0.216D-01-0.268D-01 0.298D-01 0.372D+00 0.646D+00
 Coeff:      0.592D-03-0.216D-01-0.268D-01 0.298D-01 0.372D+00 0.646D+00
 Gap=     0.297 Goal=   None    Shift=    0.000
 RMSDP=3.90D-09 MaxDP=1.87D-07 DE=-6.95D-11 OVMax= 1.13D-06

 SCF Done:  E(RB2PLYPD3) =  -155.700323723     A.U. after   11 cycles
            NFock= 11  Conv=0.39D-08     -V/T= 2.0035
 KE= 1.551587645492D+02 PE=-5.692904681605D+02 EE= 1.542671828968D+02
 Leave Link  502 at Wed Aug 26 21:43:31 2020, MaxMem=  2097152000 cpu:      1269.0
 (Enter /opt/cluster/programs/g09/g09_d.01/g09/l801.exe)
 DoSCS=T DFT=T ScalE2(SS,OS)=  0.270000  0.270000
 ExpMin= 7.60D-02 ExpMax= 6.70D+04 ExpMxC= 6.47D+02 IAcc=3 IRadAn=         5 AccDes= 0.00D+00
 HarFok:  IExCor=  205 AccDes= 0.00D+00 IRadAn=         5 IDoV=-2 UseB2=F ITyADJ=14
 ICtDFT= 12500011 ScaDFX=  1.000000  1.000000  1.000000  1.000000
 Largest valence mixing into a core orbital is  1.10D-04
 Largest core mixing into a valence orbital is  1.99D-05
 Range of M.O.s used for correlation:     5   408
 NBasis=   408 NAE=    15 NBE=    15 NFC=     4 NFV=     0
 NROrb=    404 NOA=    11 NOB=    11 NVA=   393 NVB=   393

 **** Warning!!: The largest alpha MO coefficient is  0.28534063D+02

 Leave Link  801 at Wed Aug 26 21:43:31 2020, MaxMem=  2097152000 cpu:         0.9
 (Enter /opt/cluster/programs/g09/g09_d.01/g09/l906.exe)
 DoSCS=T DFT=T ScalE2(SS,OS)=  0.270000  0.270000
 FulOut=F Deriv=F AODrv=F NAtomX=    10
   MMem=         881  MDisk=          11 MDiskD=          11
  W3Min=     2152854 MinDsk=     3857222 NBas6D=         498
 NBas2D=      125763    NTT=      124251    LW2=     4508827
    MDV=  2096381610 MDiskM=        9345 NBas2p=      117709
 Fully direct method using O(OVN) memory.
 IMap=   1   2   3   4   5   6   7   8   9  10  11
 JobTyp=1 Pass  1:  I=   1 to  11 NPSUse=  8 ParTrn=T ParDer=T DoDerP=F.
 Spin components of T(2) and E(2):
     alpha-alpha T2 =       0.4182043895D-01 E2=     -0.2538448037D-01
     alpha-beta  T2 =       0.2704144346D+00 E2=     -0.1747155279D+00
     beta-beta   T2 =       0.4182043895D-01 E2=     -0.2538448037D-01
 The integrals were generated   1 times.
 E2(B2PLYPD3) =    -0.2254844887D+00 E(B2PLYPD3) =    -0.15592580821159D+03
 Leave Link  906 at Wed Aug 26 21:45:01 2020, MaxMem=  2097152000 cpu:       719.6
 (Enter /opt/cluster/programs/g09/g09_d.01/g09/l601.exe)
 Copying SCF densities to generalized density rwf, IOpCl= 0 IROHF=0.

 **********************************************************************

            Population analysis using the SCF density.

 **********************************************************************

 Orbital symmetries:
       Occupied  (A) (A) (A) (A) (A) (A) (A) (A) (A) (A) (A) (A)
                 (A) (A) (A)
       Virtual   (A) (A) (A) (A) (A) (A) (A) (A) (A) (A) (A) (A)
                 (A) (A) (A) (A) (A) (A) (A) (A) (A) (A) (A) (A)
                 (A) (A) (A) (A) (A) (A) (A) (A) (A) (A) (A) (A)
                 (A) (A) (A) (A) (A) (A) (A) (A) (A) (A) (A) (A)
                 (A) (A) (A) (A) (A) (A) (A) (A) (A) (A) (A) (A)
                 (A) (A) (A) (A) (A) (A) (A) (A) (A) (A) (A) (A)
                 (A) (A) (A) (A) (A) (A) (A) (A) (A) (A) (A) (A)
                 (A) (A) (A) (A) (A) (A) (A) (A) (A) (A) (A) (A)
                 (A) (A) (A) (A) (A) (A) (A) (A) (A) (A) (A) (A)
                 (A) (A) (A) (A) (A) (A) (A) (A) (A) (A) (A) (A)
                 (A) (A) (A) (A) (A) (A) (A) (A) (A) (A) (A) (A)
                 (A) (A) (A) (A) (A) (A) (A) (A) (A) (A) (A) (A)
                 (A) (A) (A) (A) (A) (A) (A) (A) (A) (A) (A) (A)
                 (A) (A) (A) (A) (A) (A) (A) (A) (A) (A) (A) (A)
                 (A) (A) (A) (A) (A) (A) (A) (A) (A) (A) (A) (A)
                 (A) (A) (A) (A) (A) (A) (A) (A) (A) (A) (A) (A)
                 (A) (A) (A) (A) (A) (A) (A) (A) (A) (A) (A) (A)
                 (A) (A) (A) (A) (A) (A) (A) (A) (A) (A) (A) (A)
                 (A) (A) (A) (A) (A) (A) (A) (A) (A) (A) (A) (A)
                 (A) (A) (A) (A) (A) (A) (A) (A) (A) (A) (A) (A)
                 (A) (A) (A) (A) (A) (A) (A) (A) (A) (A) (A) (A)
                 (A) (A) (A) (A) (A) (A) (A) (A) (A) (A) (A) (A)
                 (A) (A) (A) (A) (A) (A) (A) (A) (A) (A) (A) (A)
                 (A) (A) (A) (A) (A) (A) (A) (A) (A) (A) (A) (A)
                 (A) (A) (A) (A) (A) (A) (A) (A) (A) (A) (A) (A)
                 (A) (A) (A) (A) (A) (A) (A) (A) (A) (A) (A) (A)
                 (A) (A) (A) (A) (A) (A) (A) (A) (A) (A) (A) (A)
                 (A) (A) (A) (A) (A) (A) (A) (A) (A) (A) (A) (A)
                 (A) (A) (A) (A) (A) (A) (A) (A) (A) (A) (A) (A)
                 (A) (A) (A) (A) (A) (A) (A) (A) (A) (A) (A) (A)
                 (A) (A) (A) (A) (A) (A) (A) (A) (A) (A) (A) (A)
                 (A) (A) (A) (A) (A) (A) (A) (A) (A) (A) (A) (A)
                 (A) (A) (A) (A) (A) (A) (A) (A) (A)
 The electronic state is 1-A.
 Alpha  occ. eigenvalues --  -10.62574 -10.62369 -10.61528 -10.61146  -0.92990
 Alpha  occ. eigenvalues --   -0.85057  -0.69945  -0.64149  -0.54881  -0.53848
 Alpha  occ. eigenvalues --   -0.46826  -0.45381  -0.41243  -0.38099  -0.27790
 Alpha virt. eigenvalues --    0.01952   0.07053   0.07385   0.08111   0.09482
 Alpha virt. eigenvalues --    0.11705   0.12522   0.14619   0.15796   0.16271
 Alpha virt. eigenvalues --    0.18749   0.20311   0.21696   0.22960   0.24007
 Alpha virt. eigenvalues --    0.26804   0.27023   0.29217   0.31904   0.34681
 Alpha virt. eigenvalues --    0.36084   0.36916   0.37747   0.38063   0.40483
 Alpha virt. eigenvalues --    0.42670   0.43424   0.45576   0.47102   0.48257
 Alpha virt. eigenvalues --    0.49260   0.50139   0.51706   0.55354   0.56590
 Alpha virt. eigenvalues --    0.59420   0.60156   0.64562   0.66320   0.68729
 Alpha virt. eigenvalues --    0.69050   0.72042   0.77099   0.77572   0.79509
 Alpha virt. eigenvalues --    0.79536   0.80602   0.81201   0.82507   0.84379
 Alpha virt. eigenvalues --    0.84844   0.85955   0.86376   0.86894   0.90576
 Alpha virt. eigenvalues --    0.92420   0.93628   0.94662   0.95679   0.96248
 Alpha virt. eigenvalues --    0.98517   0.99012   1.00970   1.03205   1.05045
 Alpha virt. eigenvalues --    1.05813   1.08732   1.10803   1.12165   1.12620
 Alpha virt. eigenvalues --    1.14886   1.17591   1.19424   1.21114   1.22842
 Alpha virt. eigenvalues --    1.24855   1.26928   1.34340   1.35063   1.36476
 Alpha virt. eigenvalues --    1.37791   1.40667   1.47608   1.62138   1.64139
 Alpha virt. eigenvalues --    1.66869   1.68400   1.71183   1.71504   1.73061
 Alpha virt. eigenvalues --    1.74394   1.80701   1.83032   1.84601   1.86929
 Alpha virt. eigenvalues --    1.90502   1.90911   1.91714   1.93089   1.94525
 Alpha virt. eigenvalues --    1.94582   1.99153   1.99873   2.01406   2.02318
 Alpha virt. eigenvalues --    2.03502   2.05906   2.07240   2.08396   2.09446
 Alpha virt. eigenvalues --    2.09861   2.11611   2.15282   2.17328   2.18093
 Alpha virt. eigenvalues --    2.19430   2.21669   2.23320   2.26064   2.28887
 Alpha virt. eigenvalues --    2.30805   2.33105   2.33765   2.38560   2.43018
 Alpha virt. eigenvalues --    2.43983   2.46046   2.46341   2.47854   2.51131
 Alpha virt. eigenvalues --    2.52600   2.53418   2.56199   2.57018   2.58800
 Alpha virt. eigenvalues --    2.60366   2.62426   2.63501   2.64562   2.64738
 Alpha virt. eigenvalues --    2.66376   2.69826   2.69921   2.71997   2.72055
 Alpha virt. eigenvalues --    2.73126   2.76554   2.77168   2.78956   2.80015
 Alpha virt. eigenvalues --    2.81450   2.89017   2.89946   2.92906   2.94077
 Alpha virt. eigenvalues --    2.95097   3.03668   3.06890   3.08627   3.09375
 Alpha virt. eigenvalues --    3.13434   3.15043   3.25354   3.34906   3.35584
 Alpha virt. eigenvalues --    3.39681   3.41291   3.43271   3.46748   3.47022
 Alpha virt. eigenvalues --    3.49008   3.50065   3.53445   3.57245   3.59999
 Alpha virt. eigenvalues --    3.60642   3.62697   3.63743   3.70357   3.78260
 Alpha virt. eigenvalues --    3.79809   3.82642   3.87896   3.90618   3.92235
 Alpha virt. eigenvalues --    3.94987   3.97187   4.02151   4.06007   4.15971
 Alpha virt. eigenvalues --    4.17643   4.18028   4.20354   4.25817   4.45058
 Alpha virt. eigenvalues --    4.53363   4.56970   4.58996   4.87921   5.00411
 Alpha virt. eigenvalues --    5.00955   5.04591   5.04847   5.06796   5.08514
 Alpha virt. eigenvalues --    5.12276   5.18110   5.20378   5.28866   5.30777
 Alpha virt. eigenvalues --    5.32680   5.39487   5.40660   5.46197   5.50254
 Alpha virt. eigenvalues --    5.52111   5.55303   5.57228   5.59577   5.61904
 Alpha virt. eigenvalues --    5.66129   5.69500   5.76250   5.77160   5.77575
 Alpha virt. eigenvalues --    5.79664   5.81561   5.83062   5.86025   5.87057
 Alpha virt. eigenvalues --    5.90028   5.90788   5.99825   6.01188   6.04836
 Alpha virt. eigenvalues --    6.05310   6.06449   6.08371   6.08952   6.12783
 Alpha virt. eigenvalues --    6.13386   6.16258   6.17481   6.18906   6.21534
 Alpha virt. eigenvalues --    6.22383   6.24258   6.28902   6.31007   6.35385
 Alpha virt. eigenvalues --    6.36499   6.37046   6.37590   6.38549   6.39312
 Alpha virt. eigenvalues --    6.39974   6.40170   6.43656   6.51087   6.52433
 Alpha virt. eigenvalues --    6.53635   6.54161   6.56776   6.58877   6.63076
 Alpha virt. eigenvalues --    6.64214   6.66816   6.70843   6.73702   6.79672
 Alpha virt. eigenvalues --    6.81132   6.87358   6.87539   6.91486   6.92462
 Alpha virt. eigenvalues --    6.94093   6.96518   7.01044   7.07199   7.09896
 Alpha virt. eigenvalues --    7.13449   7.16317   7.19265   7.20395   7.21748
 Alpha virt. eigenvalues --    7.26866   7.27237   7.35851   7.37392   7.42834
 Alpha virt. eigenvalues --    7.47510   7.51030   7.57876   7.59027   7.59388
 Alpha virt. eigenvalues --    7.62051   7.65254   7.66025   7.67884   7.68126
 Alpha virt. eigenvalues --    7.70529   7.72423   7.76043   7.76879   7.77130
 Alpha virt. eigenvalues --    7.79677   7.82531   7.86345   7.92516   7.93475
 Alpha virt. eigenvalues --    7.95645   7.97392   8.06959   8.09376   8.13226
 Alpha virt. eigenvalues --    8.15018   8.17007   8.19409   8.20033   8.20947
 Alpha virt. eigenvalues --    8.31041   8.31184   8.32904   8.34513   8.35916
 Alpha virt. eigenvalues --    8.36535   8.37769   8.38946   8.41761   8.45382
 Alpha virt. eigenvalues --    8.48866   8.50909   8.53665   8.57861   8.58781
 Alpha virt. eigenvalues --    8.59747   8.62007   8.62945   8.69115   8.71178
 Alpha virt. eigenvalues --    8.75461   8.77092   8.78729   8.83389   8.87356
 Alpha virt. eigenvalues --    8.89245   8.91145   8.95938   9.05515   9.16500
 Alpha virt. eigenvalues --    9.23582   9.23804   9.31621   9.35528   9.45452
 Alpha virt. eigenvalues --    9.58789   9.67058   9.76458   9.79421   9.88135
 Alpha virt. eigenvalues --    9.93794   9.94520   9.96283   9.99548  10.00992
 Alpha virt. eigenvalues --   10.05806  10.13336  10.30177  10.34108  10.35090
 Alpha virt. eigenvalues --   10.40291  10.42010  10.52840  10.72893  10.84907
 Alpha virt. eigenvalues --   10.98157  11.18958  11.53740  11.69442  11.87894
 Alpha virt. eigenvalues --   11.89283  12.88471  13.06717  13.20830  13.23747
 Alpha virt. eigenvalues --   28.64705  28.78969  29.50285  29.66931 148.24000
 Alpha virt. eigenvalues --  148.37013 149.10148 149.27890
          Condensed to atoms (all electrons):
               1          2          3          4          5          6
     1  C    4.841905   0.616725  -0.080146  -0.002294   0.425998   0.424673
     2  C    0.616725   4.835789   0.406141  -0.081839  -0.045538  -0.048475
     3  C   -0.080146   0.406141   4.829679   0.616855   0.007588  -0.010028
     4  C   -0.002294  -0.081839   0.616855   4.838098  -0.000662   0.000441
     5  H    0.425998  -0.045538   0.007588  -0.000662   0.573166  -0.042402
     6  H    0.424673  -0.048475  -0.010028   0.000441  -0.042402   0.601222
     7  H   -0.049437   0.408310  -0.058398  -0.000281  -0.008659   0.008103
     8  H   -0.002198  -0.059532   0.411589  -0.049154  -0.000078   0.005094
     9  H    0.000243  -0.008026  -0.046775   0.426066  -0.000032   0.000043
    10  H   -0.000651   0.007681  -0.046329   0.425990   0.000026  -0.000046
               7          8          9         10
     1  C   -0.049437  -0.002198   0.000243  -0.000651
     2  C    0.408310  -0.059532  -0.008026   0.007681
     3  C   -0.058398   0.411589  -0.046775  -0.046329
     4  C   -0.000281  -0.049154   0.426066   0.425990
     5  H   -0.008659  -0.000078  -0.000032   0.000026
     6  H    0.008103   0.005094   0.000043  -0.000046
     7  H    0.634598   0.006585   0.004232  -0.000116
     8  H    0.006585   0.634154   0.007837  -0.009763
     9  H    0.004232   0.007837   0.598492  -0.046692
    10  H   -0.000116  -0.009763  -0.046692   0.587555
 Mulliken charges:
               1
     1  C   -0.174816
     2  C   -0.031237
     3  C   -0.030177
     4  C   -0.173221
     5  H    0.090592
     6  H    0.061373
     7  H    0.055062
     8  H    0.055465
     9  H    0.064611
    10  H    0.082345
 Sum of Mulliken charges =   0.00000
 Mulliken charges with hydrogens summed into heavy atoms:
               1
     1  C   -0.022850
     2  C    0.023826
     3  C    0.025289
     4  C   -0.026264
 Electronic spatial extent (au):  <R**2>=            333.0460
 Charge=              0.0000 electrons
 Dipole moment (field-independent basis, Debye):
    X=             -0.0103    Y=              0.0218    Z=              0.1667  Tot=              0.1684
 Quadrupole moment (field-independent basis, Debye-Ang):
   XX=            -23.5393   YY=            -23.0697   ZZ=            -29.2295
   XY=              0.0099   XZ=              0.0696   YZ=              0.0789
 Traceless Quadrupole moment (field-independent basis, Debye-Ang):
   XX=              1.7402   YY=              2.2098   ZZ=             -3.9500
   XY=              0.0099   XZ=              0.0696   YZ=              0.0789
 Octapole moment (field-independent basis, Debye-Ang**2):
  XXX=              0.1169  YYY=              0.0049  ZZZ=              0.2781  XYY=              0.0893
  XXY=              0.6108  XXZ=              1.2462  XZZ=              0.0819  YZZ=              0.0232
  YYZ=              0.3110  XYZ=              0.0234
 Hexadecapole moment (field-independent basis, Debye-Ang**3):
 XXXX=           -340.5666 YYYY=            -65.5587 ZZZZ=            -36.8012 XXXY=             -6.8337
 XXXZ=              0.5514 YYYX=              1.5272 YYYZ=              0.2921 ZZZX=              0.0597
 ZZZY=              0.0728 XXYY=            -68.2697 XXZZ=            -76.2438 YYZZ=            -19.2999
 XXYZ=              0.1731 YYXZ=              0.1276 ZZXY=              0.3616
 N-N= 1.041641969916D+02 E-N=-5.692904602892D+02  KE= 1.551587645492D+02
 Leave Link  601 at Wed Aug 26 21:45:02 2020, MaxMem=  2097152000 cpu:         0.6
 (Enter /opt/cluster/programs/g09/g09_d.01/g09/l9999.exe)
 1\1\GINC-NODE25\SP\RB2PLYPD3-FC\def2QZVP\C4H6\BOITTIER\26-Aug-2020\0\\
 #p B2PLYPD3/Def2QZVP\\butadiene\\0,1\C,0,-3.833367,0.227887,-0.004619\
 C,0,-2.727538,-0.515787,0.073158\C,0,-1.386776,0.068214,0.032192\C,0,-
 0.267268,-0.645179,0.019221\H,0,-4.808267,-0.200522,-0.03307\H,0,-3.71
 209,1.323081,-0.046959\H,0,-2.807685,-1.603017,0.051773\H,0,-1.327524,
 1.141674,0.004442\H,0,-0.271611,-1.720827,-0.018819\H,0,0.697353,-0.17
 99,-0.061483\\Version=ES64L-G09RevD.01\State=1-A\HF=-155.7003237\MP2=-
 155.9258082\RMSD=3.898e-09\PG=C01 [X(C4H6)]\\@


 AND HERE I AM, FOR ALL MY LORE,
 THE WRETCHED FOOL I WAS BEFORE.
 CALLED MASTER OF ARTS, AND DOCTOR TO BOOT,
 FOR TEN YEARS ALMOST I CONFUTE
 AND UP AND DOWN, WHEREVER IT GOES
 I DRAG MY STUDENTS BY THE NOSE --
 AND SEE THAT FOR ALL OUR SCIENCE AND ART
 WE CAN KNOW NOTHING.  IT BURNS MY HEART.

                                       -- FAUST
 Job cpu time:       0 days  0 hours 33 minutes 24.1 seconds.
 File lengths (MBytes):  RWF=     92 Int=      0 D2E=      0 Chk=      9 Scr=      1
 Normal termination of Gaussian 09 at Wed Aug 26 21:45:02 2020.
