 Entering Gaussian System, Link 0=/opt/cluster/programs/g09/g09_d.01/g09//g09
 Input=/home/boittier/MDCM/nms_sampling/butadiene_geom.xyz.dir/energies/butadiene_1591_energy.com
 Output=/scratch/boittier/butadiene_1591_energy/butadiene_1591_energy.out
 Initial command:
 /opt/cluster/programs/g09/g09_d.01/g09/l1.exe "/scratch/boittier/butadiene_1591_energy/Gau-237785.inp" -scrdir="/scratch/boittier/butadiene_1591_energy/"
 Entering Link 1 = /opt/cluster/programs/g09/g09_d.01/g09/l1.exe PID=    237786.
  
 Copyright (c) 1988,1990,1992,1993,1995,1998,2003,2009,2013,
            Gaussian, Inc.  All Rights Reserved.
  
 This is part of the Gaussian(R) 09 program.  It is based on
 the Gaussian(R) 03 system (copyright 2003, Gaussian, Inc.),
 the Gaussian(R) 98 system (copyright 1998, Gaussian, Inc.),
 the Gaussian(R) 94 system (copyright 1995, Gaussian, Inc.),
 the Gaussian 92(TM) system (copyright 1992, Gaussian, Inc.),
 the Gaussian 90(TM) system (copyright 1990, Gaussian, Inc.),
 the Gaussian 88(TM) system (copyright 1988, Gaussian, Inc.),
 the Gaussian 86(TM) system (copyright 1986, Carnegie Mellon
 University), and the Gaussian 82(TM) system (copyright 1983,
 Carnegie Mellon University). Gaussian is a federally registered
 trademark of Gaussian, Inc.
  
 This software contains proprietary and confidential information,
 including trade secrets, belonging to Gaussian, Inc.
  
 This software is provided under written license and may be
 used, copied, transmitted, or stored only in accord with that
 written license.
  
 The following legend is applicable only to US Government
 contracts under FAR:
  
                    RESTRICTED RIGHTS LEGEND
  
 Use, reproduction and disclosure by the US Government is
 subject to restrictions as set forth in subparagraphs (a)
 and (c) of the Commercial Computer Software - Restricted
 Rights clause in FAR 52.227-19.
  
 Gaussian, Inc.
 340 Quinnipiac St., Bldg. 40, Wallingford CT 06492
  
  
 ---------------------------------------------------------------
 Warning -- This program may not be used in any manner that
 competes with the business of Gaussian, Inc. or will provide
 assistance to any competitor of Gaussian, Inc.  The licensee
 of this program is prohibited from giving any competitor of
 Gaussian, Inc. access to this program.  By using this program,
 the user acknowledges that Gaussian, Inc. is engaged in the
 business of creating and licensing software in the field of
 computational chemistry and represents and warrants to the
 licensee that it is not a competitor of Gaussian, Inc. and that
 it will not use this program in any manner prohibited above.
 ---------------------------------------------------------------
  

 Cite this work as:
 Gaussian 09, Revision D.01,
 M. J. Frisch, G. W. Trucks, H. B. Schlegel, G. E. Scuseria, 
 M. A. Robb, J. R. Cheeseman, G. Scalmani, V. Barone, B. Mennucci, 
 G. A. Petersson, H. Nakatsuji, M. Caricato, X. Li, H. P. Hratchian, 
 A. F. Izmaylov, J. Bloino, G. Zheng, J. L. Sonnenberg, M. Hada, 
 M. Ehara, K. Toyota, R. Fukuda, J. Hasegawa, M. Ishida, T. Nakajima, 
 Y. Honda, O. Kitao, H. Nakai, T. Vreven, J. A. Montgomery, Jr., 
 J. E. Peralta, F. Ogliaro, M. Bearpark, J. J. Heyd, E. Brothers, 
 K. N. Kudin, V. N. Staroverov, T. Keith, R. Kobayashi, J. Normand, 
 K. Raghavachari, A. Rendell, J. C. Burant, S. S. Iyengar, J. Tomasi, 
 M. Cossi, N. Rega, J. M. Millam, M. Klene, J. E. Knox, J. B. Cross, 
 V. Bakken, C. Adamo, J. Jaramillo, R. Gomperts, R. E. Stratmann, 
 O. Yazyev, A. J. Austin, R. Cammi, C. Pomelli, J. W. Ochterski, 
 R. L. Martin, K. Morokuma, V. G. Zakrzewski, G. A. Voth, 
 P. Salvador, J. J. Dannenberg, S. Dapprich, A. D. Daniels, 
 O. Farkas, J. B. Foresman, J. V. Ortiz, J. Cioslowski, 
 and D. J. Fox, Gaussian, Inc., Wallingford CT, 2013.
 
 ******************************************
 Gaussian 09:  ES64L-G09RevD.01 24-Apr-2013
                26-Aug-2020 
 ******************************************
 %chk=/home/boittier/MDCM/nms_sampling/butadiene_geom.xyz.dir/butadiene_1591.chk
 %nproc=8
 Will use up to    8 processors via shared memory.
 %mem=16000MB
 --------------------
 #p B2PLYPD3/Def2QZVP
 --------------------
 1/38=1/1;
 2/12=2,17=6,18=5,40=1/2;
 3/5=45,7=101,11=9,16=1,25=1,30=1,74=-60/1,2,3;
 4//1;
 5/5=2,38=5/2;
 8/10=1/1;
 9/16=-3/6;
 6/7=2,8=2,9=2,10=2/1;
 99/5=1,9=1/99;
 Leave Link    1 at Wed Aug 26 09:44:30 2020, MaxMem=  2097152000 cpu:         0.3
 (Enter /opt/cluster/programs/g09/g09_d.01/g09/l101.exe)
 ---------
 butadiene
 ---------
 Symbolic Z-matrix:
 Charge =  0 Multiplicity = 1
 C                    -3.83851   0.23803   0.06654 
 C                    -2.71914  -0.52337  -0.00896 
 C                    -1.39378   0.06373  -0.02737 
 C                    -0.26481  -0.64008   0.06861 
 H                    -4.8501   -0.21515  -0.04539 
 H                    -3.71293   1.30856   0.09419 
 H                    -2.71088  -1.56601   0.01675 
 H                    -1.33802   1.13783  -0.14507 
 H                    -0.32034  -1.71467   0.1486 
 H                     0.72653  -0.22784   0.04716 
 
 NAtoms=     10 NQM=       10 NQMF=       0 NMMI=      0 NMMIF=      0
                NMic=       0 NMicF=      0.
                    Isotopes and Nuclear Properties:
 (Nuclear quadrupole moments (NQMom) in fm**2, nuclear magnetic moments (NMagM)
  in nuclear magnetons)

  Atom         1           2           3           4           5           6           7           8           9          10
 IAtWgt=          12          12          12          12           1           1           1           1           1           1
 AtmWgt=  12.0000000  12.0000000  12.0000000  12.0000000   1.0078250   1.0078250   1.0078250   1.0078250   1.0078250   1.0078250
 NucSpn=           0           0           0           0           1           1           1           1           1           1
 AtZEff=   0.0000000   0.0000000   0.0000000   0.0000000   0.0000000   0.0000000   0.0000000   0.0000000   0.0000000   0.0000000
 NQMom=    0.0000000   0.0000000   0.0000000   0.0000000   0.0000000   0.0000000   0.0000000   0.0000000   0.0000000   0.0000000
 NMagM=    0.0000000   0.0000000   0.0000000   0.0000000   2.7928460   2.7928460   2.7928460   2.7928460   2.7928460   2.7928460
 AtZNuc=   6.0000000   6.0000000   6.0000000   6.0000000   1.0000000   1.0000000   1.0000000   1.0000000   1.0000000   1.0000000
 Leave Link  101 at Wed Aug 26 09:44:30 2020, MaxMem=  2097152000 cpu:         0.6
 (Enter /opt/cluster/programs/g09/g09_d.01/g09/l202.exe)
                          Input orientation:                          
 ---------------------------------------------------------------------
 Center     Atomic      Atomic             Coordinates (Angstroms)
 Number     Number       Type             X           Y           Z
 ---------------------------------------------------------------------
      1          6           0       -3.838512    0.238028    0.066536
      2          6           0       -2.719135   -0.523369   -0.008961
      3          6           0       -1.393776    0.063730   -0.027370
      4          6           0       -0.264813   -0.640075    0.068612
      5          1           0       -4.850095   -0.215152   -0.045389
      6          1           0       -3.712925    1.308560    0.094189
      7          1           0       -2.710879   -1.566010    0.016751
      8          1           0       -1.338019    1.137828   -0.145068
      9          1           0       -0.320339   -1.714666    0.148595
     10          1           0        0.726526   -0.227843    0.047156
 ---------------------------------------------------------------------
                    Distance matrix (angstroms):
                    1          2          3          4          5
     1  C    0.000000
     2  C    1.355887   0.000000
     3  C    2.452740   1.449690   0.000000
     4  C    3.679999   2.458319   1.333833   0.000000
     5  H    1.114091   2.153443   3.467599   4.606340   0.000000
     6  H    1.078228   2.086677   2.634925   3.960721   1.906393
     7  H    2.128048   1.042991   2.095891   2.615967   2.530795
     8  H    2.665874   2.164621   1.081965   2.087671   3.764993
     9  H    4.024586   2.682953   2.084688   1.078993   4.775444
    10  H    4.588789   3.458766   2.141553   1.073848   5.577403
                    6          7          8          9         10
     6  H    0.000000
     7  H    3.045200   0.000000
     8  H    2.393026   3.036720   0.000000
     9  H    4.544502   2.398784   3.042800   0.000000
    10  H    4.698028   3.688817   2.482812   1.821225   0.000000
 Stoichiometry    C4H6
 Framework group  C1[X(C4H6)]
 Deg. of freedom    24
 Full point group                 C1      NOp   1
 Largest Abelian subgroup         C1      NOp   1
 Largest concise Abelian subgroup C1      NOp   1
                         Standard orientation:                         
 ---------------------------------------------------------------------
 Center     Atomic      Atomic             Coordinates (Angstroms)
 Number     Number       Type             X           Y           Z
 ---------------------------------------------------------------------
      1          6           0        1.840780    0.118724   -0.053180
      2          6           0        0.601914   -0.423874    0.042881
      3          6           0       -0.594538    0.394723    0.041594
      4          6           0       -1.832989   -0.094573   -0.035471
      5          1           0        2.753515   -0.507353    0.073873
      6          1           0        1.911820    1.192960   -0.112736
      7          1           0        0.404138   -1.447929    0.048037
      8          1           0       -0.453650    1.464043    0.127340
      9          1           0       -1.974056   -1.163226   -0.083505
     10          1           0       -2.732772    0.491501   -0.027954
 ---------------------------------------------------------------------
 Rotational constants (GHZ):     42.0830970      4.4779409      4.0561331
 Leave Link  202 at Wed Aug 26 09:44:30 2020, MaxMem=  2097152000 cpu:         0.0
 (Enter /opt/cluster/programs/g09/g09_d.01/g09/l301.exe)
 Standard basis: def2QZVP (5D, 7F)
 Ernie: Thresh=  0.10000D-02 Tol=  0.10000D-05 Strict=F.
 There are   498 symmetry adapted cartesian basis functions of A   symmetry.
 There are   408 symmetry adapted basis functions of A   symmetry.
   408 basis functions,   596 primitive gaussians,   498 cartesian basis functions
    15 alpha electrons       15 beta electrons
       nuclear repulsion energy       104.1068435458 Hartrees.
 IExCor=  419 DFT=T Ex+Corr=B2PLYPD3 ExCW=0 ScaHFX=  0.530000
 ScaDFX=  0.470000  0.470000  0.730000  0.730000 ScalE2=  0.270000  0.270000
 IRadAn=      0 IRanWt=     -1 IRanGd=            0 ICorTp=0 IEmpDi=141
 NAtoms=   10 NActive=   10 NUniq=   10 SFac= 1.00D+00 NAtFMM=   60 NAOKFM=F Big=F
 Integral buffers will be    131072 words long.
 Regular integral format.
 Two-electron integral symmetry is turned on.
 R6Disp:  Grimme-D3(BJ) Dispersion energy=       -0.0048566763 Hartrees.
 Nuclear repulsion after empirical dispersion term =      104.1019868695 Hartrees.
 Leave Link  301 at Wed Aug 26 09:44:30 2020, MaxMem=  2097152000 cpu:         0.5
 (Enter /opt/cluster/programs/g09/g09_d.01/g09/l302.exe)
 NPDir=0 NMtPBC=     1 NCelOv=     1 NCel=       1 NClECP=     1 NCelD=      1
         NCelK=      1 NCelE2=     1 NClLst=     1 CellRange=     0.0.
 One-electron integrals computed using PRISM.
   1 Symmetry operations used in ECPInt.
 ECPInt:  NShTT=    8256 NPrTT=   19107 LenC2=    8060 LenP2D=   16142.
 LDataN:  DoStor=T MaxTD1= 8 Len=  415
 NBasis=   408 RedAO= T EigKep=  4.37D-05  NBF=   408
 NBsUse=   408 1.00D-06 EigRej= -1.00D+00 NBFU=   408
 Precomputing XC quadrature grid using
 IXCGrd= 4 IRadAn=           0 IRanWt=          -1 IRanGd=           0 AccXCQ= 0.00D+00.
 Generated NRdTot=       0 NPtTot=           0 NUsed=           0 NTot=          32
 NSgBfM=   498   498   498   498   498 MxSgAt=    10 MxSgA2=    10.
 Leave Link  302 at Wed Aug 26 09:44:31 2020, MaxMem=  2097152000 cpu:         4.0
 (Enter /opt/cluster/programs/g09/g09_d.01/g09/l303.exe)
 DipDrv:  MaxL=1.
 Leave Link  303 at Wed Aug 26 09:44:31 2020, MaxMem=  2097152000 cpu:         0.4
 (Enter /opt/cluster/programs/g09/g09_d.01/g09/l401.exe)
 ExpMin= 7.60D-02 ExpMax= 6.70D+04 ExpMxC= 6.47D+02 IAcc=2 IRadAn=         4 AccDes= 0.00D+00
 Harris functional with IExCor=  419 and IRadAn=       4 diagonalized for initial guess.
 HarFok:  IExCor=  419 AccDes= 0.00D+00 IRadAn=         4 IDoV= 1 UseB2=F ITyADJ=14
 ICtDFT=  3500011 ScaDFX=  1.000000  1.000000  1.000000  1.000000
 FoFCou: FMM=F IPFlag=           0 FMFlag=      100000 FMFlg1=           0
         NFxFlg=           0 DoJE=T BraDBF=F KetDBF=T FulRan=T
         wScrn=  0.000000 ICntrl=     500 IOpCl=  0 I1Cent=   200000004 NGrid=           0
         NMat0=    1 NMatS0=      1 NMatT0=    0 NMatD0=    1 NMtDS0=    0 NMtDT0=    0
 Petite list used in FoFCou.
 Harris En= -156.131349267746    
 JPrj=0 DoOrth=F DoCkMO=F.
 Leave Link  401 at Wed Aug 26 09:44:32 2020, MaxMem=  2097152000 cpu:        10.6
 (Enter /opt/cluster/programs/g09/g09_d.01/g09/l502.exe)
 Closed shell SCF:
 Using DIIS extrapolation, IDIIS=  1040.
 Integral symmetry usage will be decided dynamically.
 IVT=      770090 IEndB=      770090 NGot=  2097152000 MDV=  2096647053
 LenX=  2096647053 LenY=  2096398551
 Requested convergence on RMS density matrix=1.00D-08 within 128 cycles.
 Requested convergence on MAX density matrix=1.00D-06.
 Requested convergence on             energy=1.00D-06.
 No special actions if energy rises.
 Fock matrices will be formed incrementally for  20 cycles.
 Integral accuracy reduced to 1.0D-05 until final iterations.

 Cycle   1  Pass 0  IDiag  1:
 FoFJK:  IHMeth= 1 ICntrl=       0 DoSepK=F KAlg= 0 I1Cent=   0 FoldK=F
 IRaf= 940000000 NMat=   1 IRICut=       1 DoRegI=T DoRafI=F ISym2E= 0.
 FoFCou: FMM=F IPFlag=           0 FMFlag=      100000 FMFlg1=           0
         NFxFlg=           0 DoJE=F BraDBF=F KetDBF=F FulRan=T
         wScrn=  0.000000 ICntrl=       0 IOpCl=  0 I1Cent=           0 NGrid=           0
         NMat0=    1 NMatS0=      1 NMatT0=    0 NMatD0=    1 NMtDS0=    0 NMtDT0=    0
 Symmetry not used in FoFCou.
 E= -155.510785066444    
 DIIS: error= 3.50D-02 at cycle   1 NSaved=   1.
 NSaved= 1 IEnMin= 1 EnMin= -155.510785066444     IErMin= 1 ErrMin= 3.50D-02
 ErrMax= 3.50D-02  0.00D+00 EMaxC= 1.00D-01 BMatC= 2.50D-01 BMatP= 2.50D-01
 IDIUse=3 WtCom= 6.50D-01 WtEn= 3.50D-01
 Coeff-Com:  0.100D+01
 Coeff-En:   0.100D+01
 Coeff:      0.100D+01
 Gap=     0.294 Goal=   None    Shift=    0.000
 GapD=    0.294 DampG=1.000 DampE=0.500 DampFc=0.5000 IDamp=-1.
 Damping current iteration by 5.00D-01
 RMSDP=9.85D-04 MaxDP=5.05D-02              OVMax= 1.95D-01

 Cycle   2  Pass 0  IDiag  1:
 RMSU=  4.57D-04    CP:  9.52D-01
 E= -155.608848452790     Delta-E=       -0.098063386346 Rises=F Damp=T
 DIIS: error= 1.08D-02 at cycle   2 NSaved=   2.
 NSaved= 2 IEnMin= 2 EnMin= -155.608848452790     IErMin= 2 ErrMin= 1.08D-02
 ErrMax= 1.08D-02  0.00D+00 EMaxC= 1.00D-01 BMatC= 2.98D-02 BMatP= 2.50D-01
 IDIUse=3 WtCom= 8.92D-01 WtEn= 1.08D-01
 Coeff-Com: -0.300D+00 0.130D+01
 Coeff-En:   0.000D+00 0.100D+01
 Coeff:     -0.267D+00 0.127D+01
 Gap=     0.356 Goal=   None    Shift=    0.000
 RMSDP=3.01D-04 MaxDP=9.21D-03 DE=-9.81D-02 OVMax= 9.69D-02

 Cycle   3  Pass 0  IDiag  1:
 RMSU=  2.93D-04    CP:  9.34D-01  9.79D-01
 E= -155.693764759523     Delta-E=       -0.084916306733 Rises=F Damp=F
 DIIS: error= 4.36D-03 at cycle   3 NSaved=   3.
 NSaved= 3 IEnMin= 3 EnMin= -155.693764759523     IErMin= 3 ErrMin= 4.36D-03
 ErrMax= 4.36D-03  0.00D+00 EMaxC= 1.00D-01 BMatC= 2.20D-03 BMatP= 2.98D-02
 IDIUse=3 WtCom= 9.56D-01 WtEn= 4.36D-02
 Coeff-Com: -0.119D+00 0.249D+00 0.871D+00
 Coeff-En:   0.000D+00 0.000D+00 0.100D+01
 Coeff:     -0.114D+00 0.238D+00 0.876D+00
 Gap=     0.289 Goal=   None    Shift=    0.000
 RMSDP=7.67D-05 MaxDP=4.20D-03 DE=-8.49D-02 OVMax= 2.56D-02

 Cycle   4  Pass 0  IDiag  1:
 RMSU=  5.84D-05    CP:  9.30D-01  1.08D+00  9.43D-01
 E= -155.695395815277     Delta-E=       -0.001631055754 Rises=F Damp=F
 DIIS: error= 2.53D-03 at cycle   4 NSaved=   4.
 NSaved= 4 IEnMin= 4 EnMin= -155.695395815277     IErMin= 4 ErrMin= 2.53D-03
 ErrMax= 2.53D-03  0.00D+00 EMaxC= 1.00D-01 BMatC= 7.62D-04 BMatP= 2.20D-03
 IDIUse=3 WtCom= 9.75D-01 WtEn= 2.53D-02
 Coeff-Com: -0.534D-01 0.885D-01 0.471D+00 0.494D+00
 Coeff-En:   0.000D+00 0.000D+00 0.168D+00 0.832D+00
 Coeff:     -0.521D-01 0.863D-01 0.463D+00 0.503D+00
 Gap=     0.288 Goal=   None    Shift=    0.000
 RMSDP=3.25D-05 MaxDP=1.78D-03 DE=-1.63D-03 OVMax= 1.01D-02

 Cycle   5  Pass 0  IDiag  1:
 RMSU=  1.71D-05    CP:  9.30D-01  1.07D+00  9.90D-01  5.99D-01
 E= -155.696130475657     Delta-E=       -0.000734660380 Rises=F Damp=F
 DIIS: error= 2.05D-04 at cycle   5 NSaved=   5.
 NSaved= 5 IEnMin= 5 EnMin= -155.696130475657     IErMin= 5 ErrMin= 2.05D-04
 ErrMax= 2.05D-04  0.00D+00 EMaxC= 1.00D-01 BMatC= 4.21D-06 BMatP= 7.62D-04
 IDIUse=3 WtCom= 9.98D-01 WtEn= 2.05D-03
 Coeff-Com: -0.339D-02 0.331D-02 0.397D-01 0.900D-01 0.870D+00
 Coeff-En:   0.000D+00 0.000D+00 0.000D+00 0.000D+00 0.100D+01
 Coeff:     -0.339D-02 0.330D-02 0.396D-01 0.898D-01 0.871D+00
 Gap=     0.289 Goal=   None    Shift=    0.000
 RMSDP=5.10D-06 MaxDP=1.60D-04 DE=-7.35D-04 OVMax= 1.21D-03

 Initial convergence to 1.0D-05 achieved.  Increase integral accuracy.
 Cycle   6  Pass 1  IDiag  1:
 E= -155.696135634582     Delta-E=       -0.000005158926 Rises=F Damp=F
 DIIS: error= 5.82D-05 at cycle   1 NSaved=   1.
 NSaved= 1 IEnMin= 1 EnMin= -155.696135634582     IErMin= 1 ErrMin= 5.82D-05
 ErrMax= 5.82D-05  0.00D+00 EMaxC= 1.00D-01 BMatC= 5.97D-07 BMatP= 5.97D-07
 IDIUse=1 WtCom= 1.00D+00 WtEn= 0.00D+00
 Coeff-Com:  0.100D+01
 Coeff:      0.100D+01
 Gap=     0.289 Goal=   None    Shift=    0.000
 RMSDP=5.10D-06 MaxDP=1.60D-04 DE=-5.16D-06 OVMax= 3.50D-04

 Cycle   7  Pass 1  IDiag  1:
 RMSU=  1.81D-05    CP:  1.00D+00
 E= -155.696135999001     Delta-E=       -0.000000364418 Rises=F Damp=F
 DIIS: error= 3.60D-05 at cycle   2 NSaved=   2.
 NSaved= 2 IEnMin= 2 EnMin= -155.696135999001     IErMin= 2 ErrMin= 3.60D-05
 ErrMax= 3.60D-05  0.00D+00 EMaxC= 1.00D-01 BMatC= 1.30D-07 BMatP= 5.97D-07
 IDIUse=1 WtCom= 1.00D+00 WtEn= 0.00D+00
 Coeff-Com:  0.253D+00 0.747D+00
 Coeff:      0.253D+00 0.747D+00
 Gap=     0.289 Goal=   None    Shift=    0.000
 RMSDP=1.15D-06 MaxDP=4.73D-05 DE=-3.64D-07 OVMax= 2.62D-04

 Cycle   8  Pass 1  IDiag  1:
 RMSU=  8.55D-07    CP:  1.00D+00  1.04D+00
 E= -155.696136094806     Delta-E=       -0.000000095805 Rises=F Damp=F
 DIIS: error= 1.51D-05 at cycle   3 NSaved=   3.
 NSaved= 3 IEnMin= 3 EnMin= -155.696136094806     IErMin= 3 ErrMin= 1.51D-05
 ErrMax= 1.51D-05  0.00D+00 EMaxC= 1.00D-01 BMatC= 4.81D-08 BMatP= 1.30D-07
 IDIUse=1 WtCom= 1.00D+00 WtEn= 0.00D+00
 Coeff-Com: -0.140D-01 0.369D+00 0.645D+00
 Coeff:     -0.140D-01 0.369D+00 0.645D+00
 Gap=     0.289 Goal=   None    Shift=    0.000
 RMSDP=5.11D-07 MaxDP=2.01D-05 DE=-9.58D-08 OVMax= 1.06D-04

 Cycle   9  Pass 1  IDiag  1:
 RMSU=  3.65D-07    CP:  1.00D+00  1.06D+00  1.02D+00
 E= -155.696136141656     Delta-E=       -0.000000046849 Rises=F Damp=F
 DIIS: error= 3.30D-06 at cycle   4 NSaved=   4.
 NSaved= 4 IEnMin= 4 EnMin= -155.696136141656     IErMin= 4 ErrMin= 3.30D-06
 ErrMax= 3.30D-06  0.00D+00 EMaxC= 1.00D-01 BMatC= 1.02D-09 BMatP= 4.81D-08
 IDIUse=1 WtCom= 1.00D+00 WtEn= 0.00D+00
 Coeff-Com: -0.147D-01 0.917D-01 0.186D+00 0.737D+00
 Coeff:     -0.147D-01 0.917D-01 0.186D+00 0.737D+00
 Gap=     0.289 Goal=   None    Shift=    0.000
 RMSDP=1.03D-07 MaxDP=4.54D-06 DE=-4.68D-08 OVMax= 2.22D-05

 Cycle  10  Pass 1  IDiag  1:
 RMSU=  6.36D-08    CP:  1.00D+00  1.07D+00  1.07D+00  1.10D+00
 E= -155.696136143063     Delta-E=       -0.000000001407 Rises=F Damp=F
 DIIS: error= 1.08D-06 at cycle   5 NSaved=   5.
 NSaved= 5 IEnMin= 5 EnMin= -155.696136143063     IErMin= 5 ErrMin= 1.08D-06
 ErrMax= 1.08D-06  0.00D+00 EMaxC= 1.00D-01 BMatC= 2.00D-10 BMatP= 1.02D-09
 IDIUse=1 WtCom= 1.00D+00 WtEn= 0.00D+00
 Coeff-Com: -0.123D-02-0.356D-01-0.776D-01 0.206D+00 0.909D+00
 Coeff:     -0.123D-02-0.356D-01-0.776D-01 0.206D+00 0.909D+00
 Gap=     0.289 Goal=   None    Shift=    0.000
 RMSDP=4.77D-08 MaxDP=2.15D-06 DE=-1.41D-09 OVMax= 8.68D-06

 Cycle  11  Pass 1  IDiag  1:
 RMSU=  2.51D-08    CP:  1.00D+00  1.07D+00  1.09D+00  1.19D+00  1.04D+00
 E= -155.696136143368     Delta-E=       -0.000000000305 Rises=F Damp=F
 DIIS: error= 3.38D-07 at cycle   6 NSaved=   6.
 NSaved= 6 IEnMin= 6 EnMin= -155.696136143368     IErMin= 6 ErrMin= 3.38D-07
 ErrMax= 3.38D-07  0.00D+00 EMaxC= 1.00D-01 BMatC= 1.06D-11 BMatP= 2.00D-10
 IDIUse=1 WtCom= 1.00D+00 WtEn= 0.00D+00
 Coeff-Com:  0.759D-03-0.172D-01-0.413D-01 0.147D-01 0.274D+00 0.769D+00
 Coeff:      0.759D-03-0.172D-01-0.413D-01 0.147D-01 0.274D+00 0.769D+00
 Gap=     0.289 Goal=   None    Shift=    0.000
 RMSDP=8.31D-09 MaxDP=3.14D-07 DE=-3.05D-10 OVMax= 2.34D-06

 SCF Done:  E(RB2PLYPD3) =  -155.696136143     A.U. after   11 cycles
            NFock= 11  Conv=0.83D-08     -V/T= 2.0036
 KE= 1.551307889261D+02 PE=-5.691154109263D+02 EE= 1.541864989873D+02
 Leave Link  502 at Wed Aug 26 09:47:50 2020, MaxMem=  2097152000 cpu:      1577.2
 (Enter /opt/cluster/programs/g09/g09_d.01/g09/l801.exe)
 DoSCS=T DFT=T ScalE2(SS,OS)=  0.270000  0.270000
 ExpMin= 7.60D-02 ExpMax= 6.70D+04 ExpMxC= 6.47D+02 IAcc=3 IRadAn=         5 AccDes= 0.00D+00
 HarFok:  IExCor=  205 AccDes= 0.00D+00 IRadAn=         5 IDoV=-2 UseB2=F ITyADJ=14
 ICtDFT= 12500011 ScaDFX=  1.000000  1.000000  1.000000  1.000000
 Largest valence mixing into a core orbital is  1.14D-04
 Largest core mixing into a valence orbital is  1.98D-05
 Range of M.O.s used for correlation:     5   408
 NBasis=   408 NAE=    15 NBE=    15 NFC=     4 NFV=     0
 NROrb=    404 NOA=    11 NOB=    11 NVA=   393 NVB=   393

 **** Warning!!: The largest alpha MO coefficient is  0.27228748D+02

 Leave Link  801 at Wed Aug 26 09:47:50 2020, MaxMem=  2097152000 cpu:         1.0
 (Enter /opt/cluster/programs/g09/g09_d.01/g09/l906.exe)
 DoSCS=T DFT=T ScalE2(SS,OS)=  0.270000  0.270000
 FulOut=F Deriv=F AODrv=F NAtomX=    10
   MMem=         881  MDisk=          11 MDiskD=          11
  W3Min=     2152854 MinDsk=     3857222 NBas6D=         498
 NBas2D=      125763    NTT=      124251    LW2=     4508827
    MDV=  2096381388 MDiskM=        9345 NBas2p=      117741
 Fully direct method using O(OVN) memory.
 IMap=   1   2   3   4   5   6   7   8   9  10  11
 JobTyp=1 Pass  1:  I=   1 to  11 NPSUse=  8 ParTrn=T ParDer=T DoDerP=F.
 Spin components of T(2) and E(2):
     alpha-alpha T2 =       0.4226893800D-01 E2=     -0.2548718527D-01
     alpha-beta  T2 =       0.2738005151D+00 E2=     -0.1752245865D+00
     beta-beta   T2 =       0.4226893800D-01 E2=     -0.2548718527D-01
 The integrals were generated   1 times.
 E2(B2PLYPD3) =    -0.2261989570D+00 E(B2PLYPD3) =    -0.15592233510042D+03
 Leave Link  906 at Wed Aug 26 09:49:25 2020, MaxMem=  2097152000 cpu:       758.7
 (Enter /opt/cluster/programs/g09/g09_d.01/g09/l601.exe)
 Copying SCF densities to generalized density rwf, IOpCl= 0 IROHF=0.

 **********************************************************************

            Population analysis using the SCF density.

 **********************************************************************

 Orbital symmetries:
       Occupied  (A) (A) (A) (A) (A) (A) (A) (A) (A) (A) (A) (A)
                 (A) (A) (A)
       Virtual   (A) (A) (A) (A) (A) (A) (A) (A) (A) (A) (A) (A)
                 (A) (A) (A) (A) (A) (A) (A) (A) (A) (A) (A) (A)
                 (A) (A) (A) (A) (A) (A) (A) (A) (A) (A) (A) (A)
                 (A) (A) (A) (A) (A) (A) (A) (A) (A) (A) (A) (A)
                 (A) (A) (A) (A) (A) (A) (A) (A) (A) (A) (A) (A)
                 (A) (A) (A) (A) (A) (A) (A) (A) (A) (A) (A) (A)
                 (A) (A) (A) (A) (A) (A) (A) (A) (A) (A) (A) (A)
                 (A) (A) (A) (A) (A) (A) (A) (A) (A) (A) (A) (A)
                 (A) (A) (A) (A) (A) (A) (A) (A) (A) (A) (A) (A)
                 (A) (A) (A) (A) (A) (A) (A) (A) (A) (A) (A) (A)
                 (A) (A) (A) (A) (A) (A) (A) (A) (A) (A) (A) (A)
                 (A) (A) (A) (A) (A) (A) (A) (A) (A) (A) (A) (A)
                 (A) (A) (A) (A) (A) (A) (A) (A) (A) (A) (A) (A)
                 (A) (A) (A) (A) (A) (A) (A) (A) (A) (A) (A) (A)
                 (A) (A) (A) (A) (A) (A) (A) (A) (A) (A) (A) (A)
                 (A) (A) (A) (A) (A) (A) (A) (A) (A) (A) (A) (A)
                 (A) (A) (A) (A) (A) (A) (A) (A) (A) (A) (A) (A)
                 (A) (A) (A) (A) (A) (A) (A) (A) (A) (A) (A) (A)
                 (A) (A) (A) (A) (A) (A) (A) (A) (A) (A) (A) (A)
                 (A) (A) (A) (A) (A) (A) (A) (A) (A) (A) (A) (A)
                 (A) (A) (A) (A) (A) (A) (A) (A) (A) (A) (A) (A)
                 (A) (A) (A) (A) (A) (A) (A) (A) (A) (A) (A) (A)
                 (A) (A) (A) (A) (A) (A) (A) (A) (A) (A) (A) (A)
                 (A) (A) (A) (A) (A) (A) (A) (A) (A) (A) (A) (A)
                 (A) (A) (A) (A) (A) (A) (A) (A) (A) (A) (A) (A)
                 (A) (A) (A) (A) (A) (A) (A) (A) (A) (A) (A) (A)
                 (A) (A) (A) (A) (A) (A) (A) (A) (A) (A) (A) (A)
                 (A) (A) (A) (A) (A) (A) (A) (A) (A) (A) (A) (A)
                 (A) (A) (A) (A) (A) (A) (A) (A) (A) (A) (A) (A)
                 (A) (A) (A) (A) (A) (A) (A) (A) (A) (A) (A) (A)
                 (A) (A) (A) (A) (A) (A) (A) (A) (A) (A) (A) (A)
                 (A) (A) (A) (A) (A) (A) (A) (A) (A) (A) (A) (A)
                 (A) (A) (A) (A) (A) (A) (A) (A) (A)
 The electronic state is 1-A.
 Alpha  occ. eigenvalues --  -10.62428 -10.62317 -10.62191 -10.61343  -0.93129
 Alpha  occ. eigenvalues --   -0.84571  -0.70194  -0.64793  -0.54489  -0.53747
 Alpha  occ. eigenvalues --   -0.46938  -0.45701  -0.41411  -0.37922  -0.27466
 Alpha virt. eigenvalues --    0.01437   0.07012   0.07479   0.08120   0.09445
 Alpha virt. eigenvalues --    0.11722   0.12577   0.14603   0.15703   0.16185
 Alpha virt. eigenvalues --    0.18816   0.20113   0.21712   0.22888   0.23859
 Alpha virt. eigenvalues --    0.26702   0.27099   0.29510   0.32012   0.34217
 Alpha virt. eigenvalues --    0.35196   0.36593   0.37446   0.38294   0.40294
 Alpha virt. eigenvalues --    0.42436   0.43272   0.44554   0.46654   0.47923
 Alpha virt. eigenvalues --    0.48840   0.50843   0.53629   0.55965   0.57053
 Alpha virt. eigenvalues --    0.58310   0.60584   0.64715   0.66988   0.67632
 Alpha virt. eigenvalues --    0.68762   0.71644   0.76709   0.76988   0.78965
 Alpha virt. eigenvalues --    0.80308   0.80653   0.81316   0.82534   0.84433
 Alpha virt. eigenvalues --    0.84992   0.86215   0.86532   0.87683   0.90887
 Alpha virt. eigenvalues --    0.92969   0.93626   0.94069   0.95699   0.96549
 Alpha virt. eigenvalues --    0.98674   0.98986   1.00116   1.02945   1.03833
 Alpha virt. eigenvalues --    1.06395   1.08082   1.09798   1.12047   1.12810
 Alpha virt. eigenvalues --    1.14348   1.18318   1.19463   1.22013   1.23766
 Alpha virt. eigenvalues --    1.24542   1.26225   1.33262   1.34442   1.36676
 Alpha virt. eigenvalues --    1.37159   1.41045   1.46998   1.59821   1.63941
 Alpha virt. eigenvalues --    1.64650   1.66805   1.70469   1.72093   1.74943
 Alpha virt. eigenvalues --    1.75715   1.81339   1.81525   1.83980   1.86727
 Alpha virt. eigenvalues --    1.90143   1.91368   1.91981   1.92828   1.94720
 Alpha virt. eigenvalues --    1.95752   1.98798   2.00936   2.01200   2.01727
 Alpha virt. eigenvalues --    2.03471   2.05854   2.06522   2.08752   2.09432
 Alpha virt. eigenvalues --    2.09791   2.12044   2.15012   2.16754   2.18922
 Alpha virt. eigenvalues --    2.19277   2.21421   2.22781   2.26474   2.28018
 Alpha virt. eigenvalues --    2.29754   2.31912   2.33161   2.39156   2.42107
 Alpha virt. eigenvalues --    2.43635   2.45842   2.47397   2.48622   2.50688
 Alpha virt. eigenvalues --    2.52048   2.54351   2.56460   2.57144   2.58802
 Alpha virt. eigenvalues --    2.61415   2.62283   2.63307   2.64864   2.67017
 Alpha virt. eigenvalues --    2.68869   2.69264   2.69777   2.71419   2.72827
 Alpha virt. eigenvalues --    2.73700   2.76579   2.77081   2.78045   2.79518
 Alpha virt. eigenvalues --    2.81549   2.88460   2.88865   2.92595   2.93551
 Alpha virt. eigenvalues --    2.94486   3.03272   3.05850   3.07312   3.11561
 Alpha virt. eigenvalues --    3.14290   3.15955   3.25006   3.33283   3.35936
 Alpha virt. eigenvalues --    3.36465   3.40170   3.42675   3.43734   3.48781
 Alpha virt. eigenvalues --    3.49207   3.51536   3.54261   3.55723   3.57283
 Alpha virt. eigenvalues --    3.60911   3.62074   3.68038   3.69600   3.76719
 Alpha virt. eigenvalues --    3.80827   3.81593   3.85517   3.90872   3.92223
 Alpha virt. eigenvalues --    3.94596   3.97461   4.02840   4.06038   4.12575
 Alpha virt. eigenvalues --    4.15510   4.19034   4.22789   4.27814   4.43124
 Alpha virt. eigenvalues --    4.53406   4.57335   4.62381   4.87961   4.98170
 Alpha virt. eigenvalues --    4.99352   5.03344   5.05437   5.06846   5.09103
 Alpha virt. eigenvalues --    5.12300   5.16815   5.19977   5.28738   5.31954
 Alpha virt. eigenvalues --    5.32501   5.37756   5.40933   5.44154   5.49025
 Alpha virt. eigenvalues --    5.53188   5.55728   5.56792   5.60737   5.62848
 Alpha virt. eigenvalues --    5.66546   5.69809   5.71990   5.74176   5.77558
 Alpha virt. eigenvalues --    5.78482   5.80329   5.83835   5.85419   5.86837
 Alpha virt. eigenvalues --    5.89211   5.90300   5.97923   6.01945   6.03859
 Alpha virt. eigenvalues --    6.06495   6.06861   6.08386   6.11295   6.13226
 Alpha virt. eigenvalues --    6.14073   6.16077   6.18328   6.19147   6.20779
 Alpha virt. eigenvalues --    6.21737   6.24127   6.27596   6.31628   6.32309
 Alpha virt. eigenvalues --    6.34687   6.36290   6.37341   6.38647   6.40003
 Alpha virt. eigenvalues --    6.41335   6.42001   6.44652   6.50899   6.52218
 Alpha virt. eigenvalues --    6.54633   6.55431   6.57783   6.59976   6.62891
 Alpha virt. eigenvalues --    6.64930   6.66134   6.70512   6.72491   6.79207
 Alpha virt. eigenvalues --    6.80198   6.86546   6.87715   6.90615   6.92417
 Alpha virt. eigenvalues --    6.95575   6.98804   7.00284   7.05502   7.10541
 Alpha virt. eigenvalues --    7.13791   7.15073   7.16689   7.18639   7.21542
 Alpha virt. eigenvalues --    7.22339   7.26051   7.35569   7.37033   7.39913
 Alpha virt. eigenvalues --    7.47791   7.49552   7.58289   7.58543   7.61260
 Alpha virt. eigenvalues --    7.63404   7.65410   7.66926   7.68662   7.69629
 Alpha virt. eigenvalues --    7.70698   7.71734   7.76508   7.78358   7.80024
 Alpha virt. eigenvalues --    7.82196   7.83376   7.88110   7.91028   7.91444
 Alpha virt. eigenvalues --    7.95047   7.95859   8.06410   8.08374   8.10357
 Alpha virt. eigenvalues --    8.13202   8.16847   8.18355   8.21141   8.23641
 Alpha virt. eigenvalues --    8.28414   8.31389   8.34543   8.35042   8.35967
 Alpha virt. eigenvalues --    8.37169   8.38848   8.40080   8.42132   8.42720
 Alpha virt. eigenvalues --    8.46119   8.50988   8.53019   8.55849   8.56356
 Alpha virt. eigenvalues --    8.60987   8.62600   8.63391   8.68949   8.71844
 Alpha virt. eigenvalues --    8.75276   8.75666   8.80580   8.82167   8.86543
 Alpha virt. eigenvalues --    8.88544   8.92092   8.94623   9.03874   9.14713
 Alpha virt. eigenvalues --    9.22533   9.23402   9.32006   9.37358   9.43671
 Alpha virt. eigenvalues --    9.50947   9.65477   9.76098   9.84360   9.86350
 Alpha virt. eigenvalues --    9.90086   9.96768   9.97813  10.03714  10.08431
 Alpha virt. eigenvalues --   10.10018  10.10921  10.30179  10.32097  10.42610
 Alpha virt. eigenvalues --   10.45290  10.54726  10.60217  10.67923  10.75812
 Alpha virt. eigenvalues --   10.84841  11.18284  11.42358  11.75409  11.90151
 Alpha virt. eigenvalues --   11.96173  12.88659  13.05765  13.08867  13.24956
 Alpha virt. eigenvalues --   28.70672  28.80150  29.42952  29.65410 148.30199
 Alpha virt. eigenvalues --  148.38697 149.02251 149.26106
          Condensed to atoms (all electrons):
               1          2          3          4          5          6
     1  C    4.842269   0.616056  -0.082743  -0.002056   0.420157   0.426937
     2  C    0.616056   4.844427   0.404337  -0.079860  -0.042968  -0.050287
     3  C   -0.082743   0.404337   4.830325   0.616989   0.007553  -0.008136
     4  C   -0.002056  -0.079860   0.616989   4.844087  -0.000676   0.000494
     5  H    0.420157  -0.042968   0.007553  -0.000676   0.576954  -0.040994
     6  H    0.426937  -0.050287  -0.008136   0.000494  -0.040994   0.591805
     7  H   -0.043759   0.411523  -0.065668  -0.000392  -0.006785   0.006889
     8  H   -0.002383  -0.059514   0.408354  -0.050556   0.000006   0.004658
     9  H    0.000321  -0.008864  -0.049902   0.425658  -0.000034   0.000043
    10  H   -0.000598   0.006870  -0.041210   0.425356   0.000024  -0.000038
               7          8          9         10
     1  C   -0.043759  -0.002383   0.000321  -0.000598
     2  C    0.411523  -0.059514  -0.008864   0.006870
     3  C   -0.065668   0.408354  -0.049902  -0.041210
     4  C   -0.000392  -0.050556   0.425658   0.425356
     5  H   -0.006785   0.000006  -0.000034   0.000024
     6  H    0.006889   0.004658   0.000043  -0.000038
     7  H    0.622496   0.007298   0.004969  -0.000093
     8  H    0.007298   0.640410   0.008262  -0.008481
     9  H    0.004969   0.008262   0.609731  -0.047093
    10  H   -0.000093  -0.008481  -0.047093   0.578161
 Mulliken charges:
               1
     1  C   -0.174202
     2  C   -0.041720
     3  C   -0.019900
     4  C   -0.179043
     5  H    0.086763
     6  H    0.068628
     7  H    0.063520
     8  H    0.051947
     9  H    0.056908
    10  H    0.087101
 Sum of Mulliken charges =   0.00000
 Mulliken charges with hydrogens summed into heavy atoms:
               1
     1  C   -0.018812
     2  C    0.021799
     3  C    0.032047
     4  C   -0.035035
 Electronic spatial extent (au):  <R**2>=            333.3030
 Charge=              0.0000 electrons
 Dipole moment (field-independent basis, Debye):
    X=             -0.0547    Y=             -0.0154    Z=              0.0842  Tot=              0.1015
 Quadrupole moment (field-independent basis, Debye-Ang):
   XX=            -23.5208   YY=            -23.2033   ZZ=            -29.2730
   XY=              0.1220   XZ=              0.2272   YZ=             -0.0280
 Traceless Quadrupole moment (field-independent basis, Debye-Ang):
   XX=              1.8115   YY=              2.1291   ZZ=             -3.9406
   XY=              0.1220   XZ=              0.2272   YZ=             -0.0280
 Octapole moment (field-independent basis, Debye-Ang**2):
  XXX=             -1.1690  YYY=              0.0407  ZZZ=              0.1921  XYY=              0.0078
  XXY=             -0.1828  XXZ=              0.3225  XZZ=             -0.2058  YZZ=             -0.0042
  YYZ=              0.1290  XYZ=             -0.6232
 Hexadecapole moment (field-independent basis, Debye-Ang**3):
 XXXX=           -340.3002 YYYY=            -64.9205 ZZZZ=            -37.3408 XXXY=             -7.5877
 XXXZ=              2.7329 YYYX=              2.2318 YYYZ=              0.1483 ZZZX=              0.2970
 ZZZY=             -0.0494 XXYY=            -69.0027 XXZZ=            -77.0305 YYZZ=            -19.0724
 XXYZ=             -0.7538 YYXZ=             -0.0198 ZZXY=              0.4978
 N-N= 1.041019868695D+02 E-N=-5.691154023106D+02  KE= 1.551307889261D+02
 Leave Link  601 at Wed Aug 26 09:49:25 2020, MaxMem=  2097152000 cpu:         0.7
 (Enter /opt/cluster/programs/g09/g09_d.01/g09/l9999.exe)
 1\1\GINC-NODE01\SP\RB2PLYPD3-FC\def2QZVP\C4H6\BOITTIER\26-Aug-2020\0\\
 #p B2PLYPD3/Def2QZVP\\butadiene\\0,1\C,0,-3.838512,0.238028,0.066536\C
 ,0,-2.719135,-0.523369,-0.008961\C,0,-1.393776,0.06373,-0.02737\C,0,-0
 .264813,-0.640075,0.068612\H,0,-4.850095,-0.215152,-0.045389\H,0,-3.71
 2925,1.30856,0.094189\H,0,-2.710879,-1.56601,0.016751\H,0,-1.338019,1.
 137828,-0.145068\H,0,-0.320339,-1.714666,0.148595\H,0,0.726526,-0.2278
 43,0.047156\\Version=ES64L-G09RevD.01\State=1-A\HF=-155.6961361\MP2=-1
 55.9223351\RMSD=8.308e-09\PG=C01 [X(C4H6)]\\@


 I FIND THAT THE THREE TRULY GREAT TIMES FOR THINKING THOUGHTS
 ARE WHEN I AM STANDING IN THE SHOWER, SITTING ON THE JOHN, OR WALKING.

                                    -- COLIN FLETCHER
 Job cpu time:       0 days  0 hours 39 minutes 14.5 seconds.
 File lengths (MBytes):  RWF=     92 Int=      0 D2E=      0 Chk=      9 Scr=      1
 Normal termination of Gaussian 09 at Wed Aug 26 09:49:26 2020.
