 Entering Gaussian System, Link 0=/opt/cluster/programs/g09/g09_d.01/g09//g09
 Input=/home/boittier/MDCM/nms_sampling/butadiene_geom.xyz.dir/energies/butadiene_1243_energy.com
 Output=/scratch/boittier/butadiene_1243_energy/butadiene_1243_energy.out
 Initial command:
 /opt/cluster/programs/g09/g09_d.01/g09/l1.exe "/scratch/boittier/butadiene_1243_energy/Gau-219558.inp" -scrdir="/scratch/boittier/butadiene_1243_energy/"
 Entering Link 1 = /opt/cluster/programs/g09/g09_d.01/g09/l1.exe PID=    219559.
  
 Copyright (c) 1988,1990,1992,1993,1995,1998,2003,2009,2013,
            Gaussian, Inc.  All Rights Reserved.
  
 This is part of the Gaussian(R) 09 program.  It is based on
 the Gaussian(R) 03 system (copyright 2003, Gaussian, Inc.),
 the Gaussian(R) 98 system (copyright 1998, Gaussian, Inc.),
 the Gaussian(R) 94 system (copyright 1995, Gaussian, Inc.),
 the Gaussian 92(TM) system (copyright 1992, Gaussian, Inc.),
 the Gaussian 90(TM) system (copyright 1990, Gaussian, Inc.),
 the Gaussian 88(TM) system (copyright 1988, Gaussian, Inc.),
 the Gaussian 86(TM) system (copyright 1986, Carnegie Mellon
 University), and the Gaussian 82(TM) system (copyright 1983,
 Carnegie Mellon University). Gaussian is a federally registered
 trademark of Gaussian, Inc.
  
 This software contains proprietary and confidential information,
 including trade secrets, belonging to Gaussian, Inc.
  
 This software is provided under written license and may be
 used, copied, transmitted, or stored only in accord with that
 written license.
  
 The following legend is applicable only to US Government
 contracts under FAR:
  
                    RESTRICTED RIGHTS LEGEND
  
 Use, reproduction and disclosure by the US Government is
 subject to restrictions as set forth in subparagraphs (a)
 and (c) of the Commercial Computer Software - Restricted
 Rights clause in FAR 52.227-19.
  
 Gaussian, Inc.
 340 Quinnipiac St., Bldg. 40, Wallingford CT 06492
  
  
 ---------------------------------------------------------------
 Warning -- This program may not be used in any manner that
 competes with the business of Gaussian, Inc. or will provide
 assistance to any competitor of Gaussian, Inc.  The licensee
 of this program is prohibited from giving any competitor of
 Gaussian, Inc. access to this program.  By using this program,
 the user acknowledges that Gaussian, Inc. is engaged in the
 business of creating and licensing software in the field of
 computational chemistry and represents and warrants to the
 licensee that it is not a competitor of Gaussian, Inc. and that
 it will not use this program in any manner prohibited above.
 ---------------------------------------------------------------
  

 Cite this work as:
 Gaussian 09, Revision D.01,
 M. J. Frisch, G. W. Trucks, H. B. Schlegel, G. E. Scuseria, 
 M. A. Robb, J. R. Cheeseman, G. Scalmani, V. Barone, B. Mennucci, 
 G. A. Petersson, H. Nakatsuji, M. Caricato, X. Li, H. P. Hratchian, 
 A. F. Izmaylov, J. Bloino, G. Zheng, J. L. Sonnenberg, M. Hada, 
 M. Ehara, K. Toyota, R. Fukuda, J. Hasegawa, M. Ishida, T. Nakajima, 
 Y. Honda, O. Kitao, H. Nakai, T. Vreven, J. A. Montgomery, Jr., 
 J. E. Peralta, F. Ogliaro, M. Bearpark, J. J. Heyd, E. Brothers, 
 K. N. Kudin, V. N. Staroverov, T. Keith, R. Kobayashi, J. Normand, 
 K. Raghavachari, A. Rendell, J. C. Burant, S. S. Iyengar, J. Tomasi, 
 M. Cossi, N. Rega, J. M. Millam, M. Klene, J. E. Knox, J. B. Cross, 
 V. Bakken, C. Adamo, J. Jaramillo, R. Gomperts, R. E. Stratmann, 
 O. Yazyev, A. J. Austin, R. Cammi, C. Pomelli, J. W. Ochterski, 
 R. L. Martin, K. Morokuma, V. G. Zakrzewski, G. A. Voth, 
 P. Salvador, J. J. Dannenberg, S. Dapprich, A. D. Daniels, 
 O. Farkas, J. B. Foresman, J. V. Ortiz, J. Cioslowski, 
 and D. J. Fox, Gaussian, Inc., Wallingford CT, 2013.
 
 ******************************************
 Gaussian 09:  ES64L-G09RevD.01 24-Apr-2013
                26-Aug-2020 
 ******************************************
 %chk=/home/boittier/MDCM/nms_sampling/butadiene_geom.xyz.dir/butadiene_1243.chk
 %nproc=8
 Will use up to    8 processors via shared memory.
 %mem=16000MB
 --------------------
 #p B2PLYPD3/Def2QZVP
 --------------------
 1/38=1/1;
 2/12=2,17=6,18=5,40=1/2;
 3/5=45,7=101,11=9,16=1,25=1,30=1,74=-60/1,2,3;
 4//1;
 5/5=2,38=5/2;
 8/10=1/1;
 9/16=-3/6;
 6/7=2,8=2,9=2,10=2/1;
 99/5=1,9=1/99;
 Leave Link    1 at Wed Aug 26 08:58:04 2020, MaxMem=  2097152000 cpu:         0.2
 (Enter /opt/cluster/programs/g09/g09_d.01/g09/l101.exe)
 ---------
 butadiene
 ---------
 Symbolic Z-matrix:
 Charge =  0 Multiplicity = 1
 C                    -3.85522   0.2147    0.00684 
 C                    -2.71905  -0.47568   0.06057 
 C                    -1.38803   0.09289   0.04481 
 C                    -0.26175  -0.6775    0.00584 
 H                    -4.80679  -0.30512   0.03918 
 H                    -3.8972    1.25495  -0.24574 
 H                    -2.69926  -1.54724   0.10319 
 H                    -1.21733   1.14003   0.08096 
 H                    -0.23539  -1.75805  -0.05067 
 H                     0.73121  -0.21635   0.02204 
 
 NAtoms=     10 NQM=       10 NQMF=       0 NMMI=      0 NMMIF=      0
                NMic=       0 NMicF=      0.
                    Isotopes and Nuclear Properties:
 (Nuclear quadrupole moments (NQMom) in fm**2, nuclear magnetic moments (NMagM)
  in nuclear magnetons)

  Atom         1           2           3           4           5           6           7           8           9          10
 IAtWgt=          12          12          12          12           1           1           1           1           1           1
 AtmWgt=  12.0000000  12.0000000  12.0000000  12.0000000   1.0078250   1.0078250   1.0078250   1.0078250   1.0078250   1.0078250
 NucSpn=           0           0           0           0           1           1           1           1           1           1
 AtZEff=   0.0000000   0.0000000   0.0000000   0.0000000   0.0000000   0.0000000   0.0000000   0.0000000   0.0000000   0.0000000
 NQMom=    0.0000000   0.0000000   0.0000000   0.0000000   0.0000000   0.0000000   0.0000000   0.0000000   0.0000000   0.0000000
 NMagM=    0.0000000   0.0000000   0.0000000   0.0000000   2.7928460   2.7928460   2.7928460   2.7928460   2.7928460   2.7928460
 AtZNuc=   6.0000000   6.0000000   6.0000000   6.0000000   1.0000000   1.0000000   1.0000000   1.0000000   1.0000000   1.0000000
 Leave Link  101 at Wed Aug 26 08:58:04 2020, MaxMem=  2097152000 cpu:         0.5
 (Enter /opt/cluster/programs/g09/g09_d.01/g09/l202.exe)
                          Input orientation:                          
 ---------------------------------------------------------------------
 Center     Atomic      Atomic             Coordinates (Angstroms)
 Number     Number       Type             X           Y           Z
 ---------------------------------------------------------------------
      1          6           0       -3.855217    0.214696    0.006839
      2          6           0       -2.719055   -0.475681    0.060574
      3          6           0       -1.388026    0.092885    0.044806
      4          6           0       -0.261751   -0.677504    0.005837
      5          1           0       -4.806789   -0.305115    0.039181
      6          1           0       -3.897198    1.254949   -0.245741
      7          1           0       -2.699263   -1.547240    0.103188
      8          1           0       -1.217329    1.140026    0.080956
      9          1           0       -0.235388   -1.758046   -0.050668
     10          1           0        0.731208   -0.216350    0.022038
 ---------------------------------------------------------------------
                    Distance matrix (angstroms):
                    1          2          3          4          5
     1  C    0.000000
     2  C    1.330553   0.000000
     3  C    2.470488   1.447465   0.000000
     4  C    3.702569   2.466186   1.365106   0.000000
     5  H    1.084776   2.094799   3.441856   4.560390   0.000000
     6  H    1.071301   2.115876   2.780423   4.124820   1.828206
     7  H    2.109486   1.072589   2.100657   2.589862   2.447169
     8  H    2.796459   2.205925   1.061578   2.054796   3.869677
     9  H    4.122885   2.797398   2.182575   1.082340   4.797582
    10  H    4.606661   3.460210   2.141798   1.094940   5.538735
                    6          7          8          9         10
     6  H    0.000000
     7  H    3.067420   0.000000
     8  H    2.702154   3.068879   0.000000
     9  H    4.746056   2.477658   3.062736   0.000000
    10  H    4.864007   3.680487   2.374873   1.821104   0.000000
 Stoichiometry    C4H6
 Framework group  C1[X(C4H6)]
 Deg. of freedom    24
 Full point group                 C1      NOp   1
 Largest Abelian subgroup         C1      NOp   1
 Largest concise Abelian subgroup C1      NOp   1
                         Standard orientation:                         
 ---------------------------------------------------------------------
 Center     Atomic      Atomic             Coordinates (Angstroms)
 Number     Number       Type             X           Y           Z
 ---------------------------------------------------------------------
      1          6           0        1.854600    0.097099    0.004385
      2          6           0        0.611888   -0.377066   -0.030332
      3          6           0       -0.593930    0.423654   -0.032684
      4          6           0       -1.841031   -0.128266    0.027619
      5          1           0        2.696021   -0.587366   -0.011672
      6          1           0        2.085546    1.119377    0.226415
      7          1           0        0.397979   -1.428049   -0.041545
      8          1           0       -0.572112    1.482890   -0.099693
      9          1           0       -2.062610   -1.184010    0.115739
     10          1           0       -2.733992    0.504636   -0.003172
 ---------------------------------------------------------------------
 Rotational constants (GHZ):     42.7221430      4.4021450      3.9978010
 Leave Link  202 at Wed Aug 26 08:58:04 2020, MaxMem=  2097152000 cpu:         0.0
 (Enter /opt/cluster/programs/g09/g09_d.01/g09/l301.exe)
 Standard basis: def2QZVP (5D, 7F)
 Ernie: Thresh=  0.10000D-02 Tol=  0.10000D-05 Strict=F.
 There are   498 symmetry adapted cartesian basis functions of A   symmetry.
 There are   408 symmetry adapted basis functions of A   symmetry.
   408 basis functions,   596 primitive gaussians,   498 cartesian basis functions
    15 alpha electrons       15 beta electrons
       nuclear repulsion energy       103.7012586295 Hartrees.
 IExCor=  419 DFT=T Ex+Corr=B2PLYPD3 ExCW=0 ScaHFX=  0.530000
 ScaDFX=  0.470000  0.470000  0.730000  0.730000 ScalE2=  0.270000  0.270000
 IRadAn=      0 IRanWt=     -1 IRanGd=            0 ICorTp=0 IEmpDi=141
 NAtoms=   10 NActive=   10 NUniq=   10 SFac= 1.00D+00 NAtFMM=   60 NAOKFM=F Big=F
 Integral buffers will be    131072 words long.
 Regular integral format.
 Two-electron integral symmetry is turned on.
 R6Disp:  Grimme-D3(BJ) Dispersion energy=       -0.0048138191 Hartrees.
 Nuclear repulsion after empirical dispersion term =      103.6964448103 Hartrees.
 Leave Link  301 at Wed Aug 26 08:58:05 2020, MaxMem=  2097152000 cpu:         0.4
 (Enter /opt/cluster/programs/g09/g09_d.01/g09/l302.exe)
 NPDir=0 NMtPBC=     1 NCelOv=     1 NCel=       1 NClECP=     1 NCelD=      1
         NCelK=      1 NCelE2=     1 NClLst=     1 CellRange=     0.0.
 One-electron integrals computed using PRISM.
   1 Symmetry operations used in ECPInt.
 ECPInt:  NShTT=    8256 NPrTT=   19107 LenC2=    8054 LenP2D=   16094.
 LDataN:  DoStor=T MaxTD1= 8 Len=  415
 NBasis=   408 RedAO= T EigKep=  4.49D-05  NBF=   408
 NBsUse=   408 1.00D-06 EigRej= -1.00D+00 NBFU=   408
 Precomputing XC quadrature grid using
 IXCGrd= 4 IRadAn=           0 IRanWt=          -1 IRanGd=           0 AccXCQ= 0.00D+00.
 Generated NRdTot=       0 NPtTot=           0 NUsed=           0 NTot=          32
 NSgBfM=   498   498   498   498   498 MxSgAt=    10 MxSgA2=    10.
 Leave Link  302 at Wed Aug 26 08:58:05 2020, MaxMem=  2097152000 cpu:         3.8
 (Enter /opt/cluster/programs/g09/g09_d.01/g09/l303.exe)
 DipDrv:  MaxL=1.
 Leave Link  303 at Wed Aug 26 08:58:05 2020, MaxMem=  2097152000 cpu:         0.4
 (Enter /opt/cluster/programs/g09/g09_d.01/g09/l401.exe)
 ExpMin= 7.60D-02 ExpMax= 6.70D+04 ExpMxC= 6.47D+02 IAcc=2 IRadAn=         4 AccDes= 0.00D+00
 Harris functional with IExCor=  419 and IRadAn=       4 diagonalized for initial guess.
 HarFok:  IExCor=  419 AccDes= 0.00D+00 IRadAn=         4 IDoV= 1 UseB2=F ITyADJ=14
 ICtDFT=  3500011 ScaDFX=  1.000000  1.000000  1.000000  1.000000
 FoFCou: FMM=F IPFlag=           0 FMFlag=      100000 FMFlg1=           0
         NFxFlg=           0 DoJE=T BraDBF=F KetDBF=T FulRan=T
         wScrn=  0.000000 ICntrl=     500 IOpCl=  0 I1Cent=   200000004 NGrid=           0
         NMat0=    1 NMatS0=      1 NMatT0=    0 NMatD0=    1 NMtDS0=    0 NMtDT0=    0
 Petite list used in FoFCou.
 Harris En= -156.130722826823    
 JPrj=0 DoOrth=F DoCkMO=F.
 Leave Link  401 at Wed Aug 26 08:58:06 2020, MaxMem=  2097152000 cpu:         9.5
 (Enter /opt/cluster/programs/g09/g09_d.01/g09/l502.exe)
 Closed shell SCF:
 Using DIIS extrapolation, IDIIS=  1040.
 Integral symmetry usage will be decided dynamically.
 IVT=      770090 IEndB=      770090 NGot=  2097152000 MDV=  2096647053
 LenX=  2096647053 LenY=  2096398551
 Requested convergence on RMS density matrix=1.00D-08 within 128 cycles.
 Requested convergence on MAX density matrix=1.00D-06.
 Requested convergence on             energy=1.00D-06.
 No special actions if energy rises.
 Fock matrices will be formed incrementally for  20 cycles.
 Integral accuracy reduced to 1.0D-05 until final iterations.

 Cycle   1  Pass 0  IDiag  1:
 FoFJK:  IHMeth= 1 ICntrl=       0 DoSepK=F KAlg= 0 I1Cent=   0 FoldK=F
 IRaf= 940000000 NMat=   1 IRICut=       1 DoRegI=T DoRafI=F ISym2E= 0.
 FoFCou: FMM=F IPFlag=           0 FMFlag=      100000 FMFlg1=           0
         NFxFlg=           0 DoJE=F BraDBF=F KetDBF=F FulRan=T
         wScrn=  0.000000 ICntrl=       0 IOpCl=  0 I1Cent=           0 NGrid=           0
         NMat0=    1 NMatS0=      1 NMatT0=    0 NMatD0=    1 NMtDS0=    0 NMtDT0=    0
 Symmetry not used in FoFCou.
 E= -155.512158147517    
 DIIS: error= 3.41D-02 at cycle   1 NSaved=   1.
 NSaved= 1 IEnMin= 1 EnMin= -155.512158147517     IErMin= 1 ErrMin= 3.41D-02
 ErrMax= 3.41D-02  0.00D+00 EMaxC= 1.00D-01 BMatC= 2.49D-01 BMatP= 2.49D-01
 IDIUse=3 WtCom= 6.59D-01 WtEn= 3.41D-01
 Coeff-Com:  0.100D+01
 Coeff-En:   0.100D+01
 Coeff:      0.100D+01
 Gap=     0.291 Goal=   None    Shift=    0.000
 GapD=    0.291 DampG=1.000 DampE=0.500 DampFc=0.5000 IDamp=-1.
 Damping current iteration by 5.00D-01
 RMSDP=9.34D-04 MaxDP=5.16D-02              OVMax= 1.94D-01

 Cycle   2  Pass 0  IDiag  1:
 RMSU=  4.29D-04    CP:  9.52D-01
 E= -155.609501738694     Delta-E=       -0.097343591177 Rises=F Damp=T
 DIIS: error= 1.11D-02 at cycle   2 NSaved=   2.
 NSaved= 2 IEnMin= 2 EnMin= -155.609501738694     IErMin= 2 ErrMin= 1.11D-02
 ErrMax= 1.11D-02  0.00D+00 EMaxC= 1.00D-01 BMatC= 2.98D-02 BMatP= 2.49D-01
 IDIUse=3 WtCom= 8.89D-01 WtEn= 1.11D-01
 Coeff-Com: -0.304D+00 0.130D+01
 Coeff-En:   0.000D+00 0.100D+01
 Coeff:     -0.270D+00 0.127D+01
 Gap=     0.353 Goal=   None    Shift=    0.000
 RMSDP=2.61D-04 MaxDP=8.41D-03 DE=-9.73D-02 OVMax= 9.48D-02

 Cycle   3  Pass 0  IDiag  1:
 RMSU=  2.49D-04    CP:  9.35D-01  1.10D+00
 E= -155.693667910827     Delta-E=       -0.084166172133 Rises=F Damp=F
 DIIS: error= 4.02D-03 at cycle   3 NSaved=   3.
 NSaved= 3 IEnMin= 3 EnMin= -155.693667910827     IErMin= 3 ErrMin= 4.02D-03
 ErrMax= 4.02D-03  0.00D+00 EMaxC= 1.00D-01 BMatC= 2.03D-03 BMatP= 2.98D-02
 IDIUse=3 WtCom= 9.60D-01 WtEn= 4.02D-02
 Coeff-Com: -0.117D+00 0.239D+00 0.878D+00
 Coeff-En:   0.000D+00 0.000D+00 0.100D+01
 Coeff:     -0.112D+00 0.229D+00 0.883D+00
 Gap=     0.286 Goal=   None    Shift=    0.000
 RMSDP=7.20D-05 MaxDP=4.13D-03 DE=-8.42D-02 OVMax= 2.43D-02

 Cycle   4  Pass 0  IDiag  1:
 RMSU=  5.35D-05    CP:  9.31D-01  1.19D+00  9.20D-01
 E= -155.695206528055     Delta-E=       -0.001538617228 Rises=F Damp=F
 DIIS: error= 2.61D-03 at cycle   4 NSaved=   4.
 NSaved= 4 IEnMin= 4 EnMin= -155.695206528055     IErMin= 4 ErrMin= 2.61D-03
 ErrMax= 2.61D-03  0.00D+00 EMaxC= 1.00D-01 BMatC= 6.74D-04 BMatP= 2.03D-03
 IDIUse=3 WtCom= 9.74D-01 WtEn= 2.61D-02
 Coeff-Com: -0.529D-01 0.880D-01 0.472D+00 0.493D+00
 Coeff-En:   0.000D+00 0.000D+00 0.150D+00 0.850D+00
 Coeff:     -0.516D-01 0.857D-01 0.463D+00 0.503D+00
 Gap=     0.286 Goal=   None    Shift=    0.000
 RMSDP=2.97D-05 MaxDP=1.70D-03 DE=-1.54D-03 OVMax= 9.71D-03

 Cycle   5  Pass 0  IDiag  1:
 RMSU=  1.57D-05    CP:  9.31D-01  1.19D+00  9.64D-01  5.77D-01
 E= -155.695859358735     Delta-E=       -0.000652830680 Rises=F Damp=F
 DIIS: error= 2.39D-04 at cycle   5 NSaved=   5.
 NSaved= 5 IEnMin= 5 EnMin= -155.695859358735     IErMin= 5 ErrMin= 2.39D-04
 ErrMax= 2.39D-04  0.00D+00 EMaxC= 1.00D-01 BMatC= 5.18D-06 BMatP= 6.74D-04
 IDIUse=3 WtCom= 9.98D-01 WtEn= 2.39D-03
 Coeff-Com: -0.386D-02 0.399D-02 0.450D-01 0.104D+00 0.850D+00
 Coeff-En:   0.000D+00 0.000D+00 0.000D+00 0.000D+00 0.100D+01
 Coeff:     -0.385D-02 0.398D-02 0.449D-01 0.104D+00 0.851D+00
 Gap=     0.286 Goal=   None    Shift=    0.000
 RMSDP=3.94D-06 MaxDP=1.58D-04 DE=-6.53D-04 OVMax= 1.26D-03

 Initial convergence to 1.0D-05 achieved.  Increase integral accuracy.
 Cycle   6  Pass 1  IDiag  1:
 E= -155.695878645242     Delta-E=       -0.000019286507 Rises=F Damp=F
 DIIS: error= 4.76D-05 at cycle   1 NSaved=   1.
 NSaved= 1 IEnMin= 1 EnMin= -155.695878645242     IErMin= 1 ErrMin= 4.76D-05
 ErrMax= 4.76D-05  0.00D+00 EMaxC= 1.00D-01 BMatC= 5.25D-07 BMatP= 5.25D-07
 IDIUse=1 WtCom= 1.00D+00 WtEn= 0.00D+00
 Coeff-Com:  0.100D+01
 Coeff:      0.100D+01
 Gap=     0.286 Goal=   None    Shift=    0.000
 RMSDP=3.94D-06 MaxDP=1.58D-04 DE=-1.93D-05 OVMax= 3.90D-04

 Cycle   7  Pass 1  IDiag  1:
 RMSU=  1.66D-05    CP:  1.00D+00
 E= -155.695878957284     Delta-E=       -0.000000312042 Rises=F Damp=F
 DIIS: error= 3.62D-05 at cycle   2 NSaved=   2.
 NSaved= 2 IEnMin= 2 EnMin= -155.695878957284     IErMin= 2 ErrMin= 3.62D-05
 ErrMax= 3.62D-05  0.00D+00 EMaxC= 1.00D-01 BMatC= 1.47D-07 BMatP= 5.25D-07
 IDIUse=1 WtCom= 1.00D+00 WtEn= 0.00D+00
 Coeff-Com:  0.291D+00 0.709D+00
 Coeff:      0.291D+00 0.709D+00
 Gap=     0.286 Goal=   None    Shift=    0.000
 RMSDP=8.36D-07 MaxDP=3.45D-05 DE=-3.12D-07 OVMax= 2.89D-04

 Cycle   8  Pass 1  IDiag  1:
 RMSU=  7.18D-07    CP:  1.00D+00  1.03D+00
 E= -155.695879070266     Delta-E=       -0.000000112982 Rises=F Damp=F
 DIIS: error= 1.79D-05 at cycle   3 NSaved=   3.
 NSaved= 3 IEnMin= 3 EnMin= -155.695879070266     IErMin= 3 ErrMin= 1.79D-05
 ErrMax= 1.79D-05  0.00D+00 EMaxC= 1.00D-01 BMatC= 4.50D-08 BMatP= 1.47D-07
 IDIUse=1 WtCom= 1.00D+00 WtEn= 0.00D+00
 Coeff-Com: -0.167D-01 0.347D+00 0.670D+00
 Coeff:     -0.167D-01 0.347D+00 0.670D+00
 Gap=     0.286 Goal=   None    Shift=    0.000
 RMSDP=3.85D-07 MaxDP=1.66D-05 DE=-1.13D-07 OVMax= 1.13D-04

 Cycle   9  Pass 1  IDiag  1:
 RMSU=  2.84D-07    CP:  1.00D+00  1.04D+00  8.41D-01
 E= -155.695879116574     Delta-E=       -0.000000046308 Rises=F Damp=F
 DIIS: error= 3.52D-06 at cycle   4 NSaved=   4.
 NSaved= 4 IEnMin= 4 EnMin= -155.695879116574     IErMin= 4 ErrMin= 3.52D-06
 ErrMax= 3.52D-06  0.00D+00 EMaxC= 1.00D-01 BMatC= 7.69D-10 BMatP= 4.50D-08
 IDIUse=1 WtCom= 1.00D+00 WtEn= 0.00D+00
 Coeff-Com: -0.146D-01 0.716D-01 0.172D+00 0.771D+00
 Coeff:     -0.146D-01 0.716D-01 0.172D+00 0.771D+00
 Gap=     0.286 Goal=   None    Shift=    0.000
 RMSDP=6.54D-08 MaxDP=2.98D-06 DE=-4.63D-08 OVMax= 1.96D-05

 Cycle  10  Pass 1  IDiag  1:
 RMSU=  5.23D-08    CP:  1.00D+00  1.04D+00  8.76D-01  1.08D+00
 E= -155.695879117737     Delta-E=       -0.000000001163 Rises=F Damp=F
 DIIS: error= 7.62D-07 at cycle   5 NSaved=   5.
 NSaved= 5 IEnMin= 5 EnMin= -155.695879117737     IErMin= 5 ErrMin= 7.62D-07
 ErrMax= 7.62D-07  0.00D+00 EMaxC= 1.00D-01 BMatC= 1.59D-10 BMatP= 7.69D-10
 IDIUse=1 WtCom= 1.00D+00 WtEn= 0.00D+00
 Coeff-Com: -0.122D-02-0.374D-01-0.741D-01 0.239D+00 0.874D+00
 Coeff:     -0.122D-02-0.374D-01-0.741D-01 0.239D+00 0.874D+00
 Gap=     0.286 Goal=   None    Shift=    0.000
 RMSDP=3.60D-08 MaxDP=1.69D-06 DE=-1.16D-09 OVMax= 9.46D-06

 Cycle  11  Pass 1  IDiag  1:
 RMSU=  2.35D-08    CP:  1.00D+00  1.04D+00  8.83D-01  1.17D+00  1.09D+00
 E= -155.695879117997     Delta-E=       -0.000000000260 Rises=F Damp=F
 DIIS: error= 3.85D-07 at cycle   6 NSaved=   6.
 NSaved= 6 IEnMin= 6 EnMin= -155.695879117997     IErMin= 6 ErrMin= 3.85D-07
 ErrMax= 3.85D-07  0.00D+00 EMaxC= 1.00D-01 BMatC= 7.79D-12 BMatP= 1.59D-10
 IDIUse=1 WtCom= 1.00D+00 WtEn= 0.00D+00
 Coeff-Com:  0.654D-03-0.160D-01-0.363D-01 0.259D-01 0.264D+00 0.762D+00
 Coeff:      0.654D-03-0.160D-01-0.363D-01 0.259D-01 0.264D+00 0.762D+00
 Gap=     0.286 Goal=   None    Shift=    0.000
 RMSDP=6.56D-09 MaxDP=1.94D-07 DE=-2.60D-10 OVMax= 2.58D-06

 SCF Done:  E(RB2PLYPD3) =  -155.695879118     A.U. after   11 cycles
            NFock= 11  Conv=0.66D-08     -V/T= 2.0038
 KE= 1.551128534434D+02 PE=-5.682875933861D+02 EE= 1.537824160144D+02
 Leave Link  502 at Wed Aug 26 09:01:32 2020, MaxMem=  2097152000 cpu:      1633.3
 (Enter /opt/cluster/programs/g09/g09_d.01/g09/l801.exe)
 DoSCS=T DFT=T ScalE2(SS,OS)=  0.270000  0.270000
 ExpMin= 7.60D-02 ExpMax= 6.70D+04 ExpMxC= 6.47D+02 IAcc=3 IRadAn=         5 AccDes= 0.00D+00
 HarFok:  IExCor=  205 AccDes= 0.00D+00 IRadAn=         5 IDoV=-2 UseB2=F ITyADJ=14
 ICtDFT= 12500011 ScaDFX=  1.000000  1.000000  1.000000  1.000000
 Largest valence mixing into a core orbital is  1.13D-04
 Largest core mixing into a valence orbital is  2.00D-05
 Range of M.O.s used for correlation:     5   408
 NBasis=   408 NAE=    15 NBE=    15 NFC=     4 NFV=     0
 NROrb=    404 NOA=    11 NOB=    11 NVA=   393 NVB=   393

 **** Warning!!: The largest alpha MO coefficient is  0.33021143D+02

 Leave Link  801 at Wed Aug 26 09:01:32 2020, MaxMem=  2097152000 cpu:         1.0
 (Enter /opt/cluster/programs/g09/g09_d.01/g09/l906.exe)
 DoSCS=T DFT=T ScalE2(SS,OS)=  0.270000  0.270000
 FulOut=F Deriv=F AODrv=F NAtomX=    10
   MMem=         881  MDisk=          11 MDiskD=          11
  W3Min=     2152854 MinDsk=     3857222 NBas6D=         498
 NBas2D=      125763    NTT=      124251    LW2=     4508827
    MDV=  2096384010 MDiskM=        9345 NBas2p=      116991
 Fully direct method using O(OVN) memory.
 IMap=   1   2   3   4   5   6   7   8   9  10  11
 JobTyp=1 Pass  1:  I=   1 to  11 NPSUse=  8 ParTrn=T ParDer=T DoDerP=F.
 Spin components of T(2) and E(2):
     alpha-alpha T2 =       0.4231219349D-01 E2=     -0.2547036347D-01
     alpha-beta  T2 =       0.2745683974D+00 E2=     -0.1752803951D+00
     beta-beta   T2 =       0.4231219349D-01 E2=     -0.2547036347D-01
 The integrals were generated   1 times.
 E2(B2PLYPD3) =    -0.2262211220D+00 E(B2PLYPD3) =    -0.15592210024002D+03
 Leave Link  906 at Wed Aug 26 09:03:31 2020, MaxMem=  2097152000 cpu:       955.3
 (Enter /opt/cluster/programs/g09/g09_d.01/g09/l601.exe)
 Copying SCF densities to generalized density rwf, IOpCl= 0 IROHF=0.

 **********************************************************************

            Population analysis using the SCF density.

 **********************************************************************

 Orbital symmetries:
       Occupied  (A) (A) (A) (A) (A) (A) (A) (A) (A) (A) (A) (A)
                 (A) (A) (A)
       Virtual   (A) (A) (A) (A) (A) (A) (A) (A) (A) (A) (A) (A)
                 (A) (A) (A) (A) (A) (A) (A) (A) (A) (A) (A) (A)
                 (A) (A) (A) (A) (A) (A) (A) (A) (A) (A) (A) (A)
                 (A) (A) (A) (A) (A) (A) (A) (A) (A) (A) (A) (A)
                 (A) (A) (A) (A) (A) (A) (A) (A) (A) (A) (A) (A)
                 (A) (A) (A) (A) (A) (A) (A) (A) (A) (A) (A) (A)
                 (A) (A) (A) (A) (A) (A) (A) (A) (A) (A) (A) (A)
                 (A) (A) (A) (A) (A) (A) (A) (A) (A) (A) (A) (A)
                 (A) (A) (A) (A) (A) (A) (A) (A) (A) (A) (A) (A)
                 (A) (A) (A) (A) (A) (A) (A) (A) (A) (A) (A) (A)
                 (A) (A) (A) (A) (A) (A) (A) (A) (A) (A) (A) (A)
                 (A) (A) (A) (A) (A) (A) (A) (A) (A) (A) (A) (A)
                 (A) (A) (A) (A) (A) (A) (A) (A) (A) (A) (A) (A)
                 (A) (A) (A) (A) (A) (A) (A) (A) (A) (A) (A) (A)
                 (A) (A) (A) (A) (A) (A) (A) (A) (A) (A) (A) (A)
                 (A) (A) (A) (A) (A) (A) (A) (A) (A) (A) (A) (A)
                 (A) (A) (A) (A) (A) (A) (A) (A) (A) (A) (A) (A)
                 (A) (A) (A) (A) (A) (A) (A) (A) (A) (A) (A) (A)
                 (A) (A) (A) (A) (A) (A) (A) (A) (A) (A) (A) (A)
                 (A) (A) (A) (A) (A) (A) (A) (A) (A) (A) (A) (A)
                 (A) (A) (A) (A) (A) (A) (A) (A) (A) (A) (A) (A)
                 (A) (A) (A) (A) (A) (A) (A) (A) (A) (A) (A) (A)
                 (A) (A) (A) (A) (A) (A) (A) (A) (A) (A) (A) (A)
                 (A) (A) (A) (A) (A) (A) (A) (A) (A) (A) (A) (A)
                 (A) (A) (A) (A) (A) (A) (A) (A) (A) (A) (A) (A)
                 (A) (A) (A) (A) (A) (A) (A) (A) (A) (A) (A) (A)
                 (A) (A) (A) (A) (A) (A) (A) (A) (A) (A) (A) (A)
                 (A) (A) (A) (A) (A) (A) (A) (A) (A) (A) (A) (A)
                 (A) (A) (A) (A) (A) (A) (A) (A) (A) (A) (A) (A)
                 (A) (A) (A) (A) (A) (A) (A) (A) (A) (A) (A) (A)
                 (A) (A) (A) (A) (A) (A) (A) (A) (A) (A) (A) (A)
                 (A) (A) (A) (A) (A) (A) (A) (A) (A) (A) (A) (A)
                 (A) (A) (A) (A) (A) (A) (A) (A) (A)
 The electronic state is 1-A.
 Alpha  occ. eigenvalues --  -10.62687 -10.62439 -10.62095 -10.61378  -0.92896
 Alpha  occ. eigenvalues --   -0.84616  -0.70479  -0.64571  -0.54443  -0.54097
 Alpha  occ. eigenvalues --   -0.46455  -0.45801  -0.41395  -0.37881  -0.27384
 Alpha virt. eigenvalues --    0.01254   0.06974   0.07565   0.08056   0.09429
 Alpha virt. eigenvalues --    0.11620   0.12401   0.14914   0.15917   0.16195
 Alpha virt. eigenvalues --    0.18898   0.20509   0.21516   0.22751   0.23429
 Alpha virt. eigenvalues --    0.26688   0.26954   0.29172   0.32103   0.33736
 Alpha virt. eigenvalues --    0.34985   0.36683   0.37207   0.38335   0.40379
 Alpha virt. eigenvalues --    0.41915   0.44367   0.46415   0.46769   0.48604
 Alpha virt. eigenvalues --    0.48928   0.49959   0.50733   0.55383   0.56563
 Alpha virt. eigenvalues --    0.59142   0.62110   0.64397   0.66771   0.68155
 Alpha virt. eigenvalues --    0.69707   0.72118   0.76271   0.77132   0.78813
 Alpha virt. eigenvalues --    0.79995   0.81082   0.81743   0.82370   0.83757
 Alpha virt. eigenvalues --    0.84649   0.86058   0.86829   0.87192   0.89365
 Alpha virt. eigenvalues --    0.92288   0.92708   0.93660   0.95604   0.96137
 Alpha virt. eigenvalues --    0.98300   0.99814   1.00025   1.02450   1.05200
 Alpha virt. eigenvalues --    1.05859   1.07377   1.10588   1.11609   1.12585
 Alpha virt. eigenvalues --    1.14542   1.16435   1.18982   1.20953   1.23441
 Alpha virt. eigenvalues --    1.24385   1.26703   1.33119   1.33619   1.35131
 Alpha virt. eigenvalues --    1.37787   1.42483   1.48101   1.60052   1.63272
 Alpha virt. eigenvalues --    1.66147   1.66987   1.68718   1.71287   1.74192
 Alpha virt. eigenvalues --    1.74965   1.81602   1.82156   1.84520   1.88459
 Alpha virt. eigenvalues --    1.90141   1.90305   1.91913   1.93098   1.94718
 Alpha virt. eigenvalues --    1.95803   1.97831   2.00417   2.01360   2.02939
 Alpha virt. eigenvalues --    2.03842   2.06143   2.06730   2.08039   2.09416
 Alpha virt. eigenvalues --    2.10367   2.11285   2.14781   2.16244   2.18815
 Alpha virt. eigenvalues --    2.20379   2.22744   2.23892   2.25338   2.28530
 Alpha virt. eigenvalues --    2.28879   2.32539   2.33224   2.36383   2.43798
 Alpha virt. eigenvalues --    2.44299   2.45442   2.46935   2.47290   2.50790
 Alpha virt. eigenvalues --    2.52234   2.52623   2.54649   2.55473   2.58166
 Alpha virt. eigenvalues --    2.59745   2.61426   2.63142   2.65331   2.67300
 Alpha virt. eigenvalues --    2.68104   2.69507   2.70613   2.72576   2.73171
 Alpha virt. eigenvalues --    2.74293   2.76183   2.77248   2.78406   2.79300
 Alpha virt. eigenvalues --    2.82169   2.85864   2.89520   2.92467   2.93017
 Alpha virt. eigenvalues --    2.94969   3.02428   3.04619   3.08685   3.09839
 Alpha virt. eigenvalues --    3.10664   3.14342   3.24647   3.32360   3.36063
 Alpha virt. eigenvalues --    3.37193   3.38145   3.43599   3.44870   3.48111
 Alpha virt. eigenvalues --    3.49306   3.50723   3.52745   3.53575   3.58110
 Alpha virt. eigenvalues --    3.59910   3.62758   3.64905   3.69555   3.78016
 Alpha virt. eigenvalues --    3.81801   3.85200   3.86465   3.88839   3.92617
 Alpha virt. eigenvalues --    3.94684   3.95427   3.99005   4.07479   4.12901
 Alpha virt. eigenvalues --    4.16627   4.17762   4.21668   4.23768   4.45018
 Alpha virt. eigenvalues --    4.52792   4.56663   4.64422   4.82809   4.99405
 Alpha virt. eigenvalues --    5.00662   5.03784   5.03978   5.05915   5.08348
 Alpha virt. eigenvalues --    5.12030   5.18635   5.21477   5.28813   5.32109
 Alpha virt. eigenvalues --    5.34300   5.39083   5.44534   5.45331   5.48975
 Alpha virt. eigenvalues --    5.52859   5.54556   5.57474   5.61751   5.62827
 Alpha virt. eigenvalues --    5.66682   5.69758   5.74415   5.74521   5.76462
 Alpha virt. eigenvalues --    5.78156   5.79901   5.82980   5.86050   5.87596
 Alpha virt. eigenvalues --    5.87855   5.91610   5.99648   6.01094   6.03870
 Alpha virt. eigenvalues --    6.05853   6.07015   6.08835   6.10901   6.11905
 Alpha virt. eigenvalues --    6.13242   6.16142   6.16893   6.19037   6.20420
 Alpha virt. eigenvalues --    6.22064   6.25713   6.25934   6.30957   6.31232
 Alpha virt. eigenvalues --    6.32627   6.34260   6.36255   6.37038   6.39584
 Alpha virt. eigenvalues --    6.41106   6.43850   6.45144   6.48892   6.51702
 Alpha virt. eigenvalues --    6.54607   6.56895   6.56948   6.58486   6.61250
 Alpha virt. eigenvalues --    6.64091   6.67566   6.69498   6.71729   6.79713
 Alpha virt. eigenvalues --    6.83040   6.86090   6.86855   6.89484   6.91969
 Alpha virt. eigenvalues --    6.92902   6.93355   7.01603   7.02850   7.08229
 Alpha virt. eigenvalues --    7.12181   7.15460   7.19911   7.20932   7.22728
 Alpha virt. eigenvalues --    7.27220   7.30692   7.33444   7.38588   7.45970
 Alpha virt. eigenvalues --    7.46597   7.51271   7.53784   7.55835   7.60065
 Alpha virt. eigenvalues --    7.63129   7.64561   7.66899   7.67618   7.69684
 Alpha virt. eigenvalues --    7.70541   7.70865   7.72585   7.77303   7.78753
 Alpha virt. eigenvalues --    7.81179   7.85206   7.87217   7.90859   7.95425
 Alpha virt. eigenvalues --    7.97455   7.98180   8.07034   8.08318   8.11168
 Alpha virt. eigenvalues --    8.12557   8.16792   8.19203   8.21974   8.25448
 Alpha virt. eigenvalues --    8.28015   8.31499   8.31737   8.35099   8.36340
 Alpha virt. eigenvalues --    8.37206   8.37916   8.38756   8.42012   8.45442
 Alpha virt. eigenvalues --    8.47724   8.50016   8.53880   8.54597   8.56291
 Alpha virt. eigenvalues --    8.58241   8.60739   8.63765   8.69514   8.71193
 Alpha virt. eigenvalues --    8.72149   8.75354   8.76860   8.79872   8.85482
 Alpha virt. eigenvalues --    8.86775   8.90679   8.94851   9.02967   9.12505
 Alpha virt. eigenvalues --    9.20249   9.22449   9.28444   9.34165   9.45028
 Alpha virt. eigenvalues --    9.62748   9.68384   9.78612   9.89088   9.90110
 Alpha virt. eigenvalues --    9.94406   9.94572   9.97069   9.99981  10.09407
 Alpha virt. eigenvalues --   10.11288  10.17148  10.28494  10.32591  10.33644
 Alpha virt. eigenvalues --   10.37376  10.45037  10.50928  10.60971  10.80690
 Alpha virt. eigenvalues --   11.08019  11.16000  11.50130  11.68957  11.89567
 Alpha virt. eigenvalues --   11.92057  12.87908  13.08566  13.13794  13.20889
 Alpha virt. eigenvalues --   28.68980  28.80513  29.41678  29.67621 148.28634
 Alpha virt. eigenvalues --  148.39207 149.00106 149.28330
          Condensed to atoms (all electrons):
               1          2          3          4          5          6
     1  C    4.841710   0.611397  -0.082534  -0.002231   0.426831   0.425760
     2  C    0.611397   4.843934   0.395236  -0.083275  -0.050417  -0.046419
     3  C   -0.082534   0.395236   4.843455   0.623482   0.008229  -0.006171
     4  C   -0.002231  -0.083275   0.623482   4.849353  -0.000694   0.000185
     5  H    0.426831  -0.050417   0.008229  -0.000694   0.591723  -0.045631
     6  H    0.425760  -0.046419  -0.006171   0.000185  -0.045631   0.588059
     7  H   -0.047768   0.418365  -0.067528  -0.002176  -0.009902   0.007157
     8  H    0.000487  -0.055134   0.408378  -0.049864  -0.000158   0.003669
     9  H    0.000223  -0.005648  -0.041850   0.421590  -0.000036   0.000044
    10  H   -0.000590   0.007160  -0.043974   0.420638   0.000028  -0.000028
               7          8          9         10
     1  C   -0.047768   0.000487   0.000223  -0.000590
     2  C    0.418365  -0.055134  -0.005648   0.007160
     3  C   -0.067528   0.408378  -0.041850  -0.043974
     4  C   -0.002176  -0.049864   0.421590   0.420638
     5  H   -0.009902  -0.000158  -0.000036   0.000028
     6  H    0.007157   0.003669   0.000044  -0.000028
     7  H    0.629049   0.006701   0.004284  -0.000011
     8  H    0.006701   0.622870   0.007175  -0.008881
     9  H    0.004284   0.007175   0.597096  -0.048194
    10  H   -0.000011  -0.008881  -0.048194   0.596949
 Mulliken charges:
               1
     1  C   -0.173285
     2  C   -0.035198
     3  C   -0.036723
     4  C   -0.177007
     5  H    0.080028
     6  H    0.073376
     7  H    0.061831
     8  H    0.064757
     9  H    0.065317
    10  H    0.076903
 Sum of Mulliken charges =   0.00000
 Mulliken charges with hydrogens summed into heavy atoms:
               1
     1  C   -0.019880
     2  C    0.026632
     3  C    0.028035
     4  C   -0.034787
 Electronic spatial extent (au):  <R**2>=            337.9265
 Charge=              0.0000 electrons
 Dipole moment (field-independent basis, Debye):
    X=             -0.0636    Y=             -0.0083    Z=              0.1416  Tot=              0.1555
 Quadrupole moment (field-independent basis, Debye-Ang):
   XX=            -23.4461   YY=            -23.1385   ZZ=            -29.2507
   XY=              0.2890   XZ=              0.2764   YZ=              0.0613
 Traceless Quadrupole moment (field-independent basis, Debye-Ang):
   XX=              1.8324   YY=              2.1399   ZZ=             -3.9723
   XY=              0.2890   XZ=              0.2764   YZ=              0.0613
 Octapole moment (field-independent basis, Debye-Ang**2):
  XXX=             -0.3167  YYY=              0.1033  ZZZ=              0.2297  XYY=             -0.2832
  XXY=             -0.1859  XXZ=              0.9908  XZZ=              0.2937  YZZ=              0.0695
  YYZ=              0.2859  XYZ=              1.0157
 Hexadecapole moment (field-independent basis, Debye-Ang**3):
 XXXX=           -349.7185 YYYY=            -64.3867 ZZZZ=            -37.3494 XXXY=             -3.5759
 XXXZ=              1.4567 YYYX=              1.8304 YYYZ=              0.0250 ZZZX=              0.5160
 ZZZY=              0.0684 XXYY=            -68.3002 XXZZ=            -78.0611 YYZZ=            -18.9173
 XXYZ=              0.7066 YYXZ=              0.6109 ZZXY=              0.6813
 N-N= 1.036964448103D+02 E-N=-5.682875818242D+02  KE= 1.551128534434D+02
 Leave Link  601 at Wed Aug 26 09:03:32 2020, MaxMem=  2097152000 cpu:         0.8
 (Enter /opt/cluster/programs/g09/g09_d.01/g09/l9999.exe)
 1\1\GINC-NODE16\SP\RB2PLYPD3-FC\def2QZVP\C4H6\BOITTIER\26-Aug-2020\0\\
 #p B2PLYPD3/Def2QZVP\\butadiene\\0,1\C,0,-3.855217,0.214696,0.006839\C
 ,0,-2.719055,-0.475681,0.060574\C,0,-1.388026,0.092885,0.044806\C,0,-0
 .261751,-0.677504,0.005837\H,0,-4.806789,-0.305115,0.039181\H,0,-3.897
 198,1.254949,-0.245741\H,0,-2.699263,-1.54724,0.103188\H,0,-1.217329,1
 .140026,0.080956\H,0,-0.235388,-1.758046,-0.050668\H,0,0.731208,-0.216
 35,0.022038\\Version=ES64L-G09RevD.01\State=1-A\HF=-155.6958791\MP2=-1
 55.9221002\RMSD=6.562e-09\PG=C01 [X(C4H6)]\\@


 MAN IS A SINGULAR CREATURE.  HE HAS A SET OF GIFTS
 WHICH MAKE HIM UNIQUE AMONG THE ANIMALS: SO THAT, 
 UNLIKE THEM, HE IS NOT A FIGURE IN THE LANDSCAPE --
 HE IS A SHAPER OF THE LANDSCAPE.

                       -- JACOB BRONOWSKI
 Job cpu time:       0 days  0 hours 43 minutes 25.9 seconds.
 File lengths (MBytes):  RWF=     92 Int=      0 D2E=      0 Chk=      9 Scr=      1
 Normal termination of Gaussian 09 at Wed Aug 26 09:03:32 2020.
