 Entering Gaussian System, Link 0=/opt/cluster/programs/g09/g09_d.01/g09//g09
 Input=/home/boittier/MDCM/nms_sampling/butadiene_geom.xyz.dir/energies/butadiene_1717_energy.com
 Output=/scratch/boittier/butadiene_1717_energy/butadiene_1717_energy.out
 Initial command:
 /opt/cluster/programs/g09/g09_d.01/g09/l1.exe "/scratch/boittier/butadiene_1717_energy/Gau-40817.inp" -scrdir="/scratch/boittier/butadiene_1717_energy/"
 Entering Link 1 = /opt/cluster/programs/g09/g09_d.01/g09/l1.exe PID=     40818.
  
 Copyright (c) 1988,1990,1992,1993,1995,1998,2003,2009,2013,
            Gaussian, Inc.  All Rights Reserved.
  
 This is part of the Gaussian(R) 09 program.  It is based on
 the Gaussian(R) 03 system (copyright 2003, Gaussian, Inc.),
 the Gaussian(R) 98 system (copyright 1998, Gaussian, Inc.),
 the Gaussian(R) 94 system (copyright 1995, Gaussian, Inc.),
 the Gaussian 92(TM) system (copyright 1992, Gaussian, Inc.),
 the Gaussian 90(TM) system (copyright 1990, Gaussian, Inc.),
 the Gaussian 88(TM) system (copyright 1988, Gaussian, Inc.),
 the Gaussian 86(TM) system (copyright 1986, Carnegie Mellon
 University), and the Gaussian 82(TM) system (copyright 1983,
 Carnegie Mellon University). Gaussian is a federally registered
 trademark of Gaussian, Inc.
  
 This software contains proprietary and confidential information,
 including trade secrets, belonging to Gaussian, Inc.
  
 This software is provided under written license and may be
 used, copied, transmitted, or stored only in accord with that
 written license.
  
 The following legend is applicable only to US Government
 contracts under FAR:
  
                    RESTRICTED RIGHTS LEGEND
  
 Use, reproduction and disclosure by the US Government is
 subject to restrictions as set forth in subparagraphs (a)
 and (c) of the Commercial Computer Software - Restricted
 Rights clause in FAR 52.227-19.
  
 Gaussian, Inc.
 340 Quinnipiac St., Bldg. 40, Wallingford CT 06492
  
  
 ---------------------------------------------------------------
 Warning -- This program may not be used in any manner that
 competes with the business of Gaussian, Inc. or will provide
 assistance to any competitor of Gaussian, Inc.  The licensee
 of this program is prohibited from giving any competitor of
 Gaussian, Inc. access to this program.  By using this program,
 the user acknowledges that Gaussian, Inc. is engaged in the
 business of creating and licensing software in the field of
 computational chemistry and represents and warrants to the
 licensee that it is not a competitor of Gaussian, Inc. and that
 it will not use this program in any manner prohibited above.
 ---------------------------------------------------------------
  

 Cite this work as:
 Gaussian 09, Revision D.01,
 M. J. Frisch, G. W. Trucks, H. B. Schlegel, G. E. Scuseria, 
 M. A. Robb, J. R. Cheeseman, G. Scalmani, V. Barone, B. Mennucci, 
 G. A. Petersson, H. Nakatsuji, M. Caricato, X. Li, H. P. Hratchian, 
 A. F. Izmaylov, J. Bloino, G. Zheng, J. L. Sonnenberg, M. Hada, 
 M. Ehara, K. Toyota, R. Fukuda, J. Hasegawa, M. Ishida, T. Nakajima, 
 Y. Honda, O. Kitao, H. Nakai, T. Vreven, J. A. Montgomery, Jr., 
 J. E. Peralta, F. Ogliaro, M. Bearpark, J. J. Heyd, E. Brothers, 
 K. N. Kudin, V. N. Staroverov, T. Keith, R. Kobayashi, J. Normand, 
 K. Raghavachari, A. Rendell, J. C. Burant, S. S. Iyengar, J. Tomasi, 
 M. Cossi, N. Rega, J. M. Millam, M. Klene, J. E. Knox, J. B. Cross, 
 V. Bakken, C. Adamo, J. Jaramillo, R. Gomperts, R. E. Stratmann, 
 O. Yazyev, A. J. Austin, R. Cammi, C. Pomelli, J. W. Ochterski, 
 R. L. Martin, K. Morokuma, V. G. Zakrzewski, G. A. Voth, 
 P. Salvador, J. J. Dannenberg, S. Dapprich, A. D. Daniels, 
 O. Farkas, J. B. Foresman, J. V. Ortiz, J. Cioslowski, 
 and D. J. Fox, Gaussian, Inc., Wallingford CT, 2013.
 
 ******************************************
 Gaussian 09:  ES64L-G09RevD.01 24-Apr-2013
                26-Aug-2020 
 ******************************************
 %chk=/home/boittier/MDCM/nms_sampling/butadiene_geom.xyz.dir/butadiene_1717.chk
 %nproc=8
 Will use up to    8 processors via shared memory.
 %mem=16000MB
 --------------------
 #p B2PLYPD3/Def2QZVP
 --------------------
 1/38=1/1;
 2/12=2,17=6,18=5,40=1/2;
 3/5=45,7=101,11=9,16=1,25=1,30=1,74=-60/1,2,3;
 4//1;
 5/5=2,38=5/2;
 8/10=1/1;
 9/16=-3/6;
 6/7=2,8=2,9=2,10=2/1;
 99/5=1,9=1/99;
 Leave Link    1 at Wed Aug 26 10:19:51 2020, MaxMem=  2097152000 cpu:         0.2
 (Enter /opt/cluster/programs/g09/g09_d.01/g09/l101.exe)
 ---------
 butadiene
 ---------
 Symbolic Z-matrix:
 Charge =  0 Multiplicity = 1
 C                    -3.85509   0.23526   0.04189 
 C                    -2.73264  -0.50973  -0.01654 
 C                    -1.38517   0.04724  -0.02641 
 C                    -0.2473   -0.64386   0.07113 
 H                    -4.83525  -0.2079    0.2349 
 H                    -3.79382   1.30812   0.06722 
 H                    -2.7389   -1.56198   0.05554 
 H                    -1.32061   1.16205  -0.03642 
 H                    -0.21211  -1.6644    0.10247 
 H                     0.74711  -0.20008   0.07914 
 
 NAtoms=     10 NQM=       10 NQMF=       0 NMMI=      0 NMMIF=      0
                NMic=       0 NMicF=      0.
                    Isotopes and Nuclear Properties:
 (Nuclear quadrupole moments (NQMom) in fm**2, nuclear magnetic moments (NMagM)
  in nuclear magnetons)

  Atom         1           2           3           4           5           6           7           8           9          10
 IAtWgt=          12          12          12          12           1           1           1           1           1           1
 AtmWgt=  12.0000000  12.0000000  12.0000000  12.0000000   1.0078250   1.0078250   1.0078250   1.0078250   1.0078250   1.0078250
 NucSpn=           0           0           0           0           1           1           1           1           1           1
 AtZEff=   0.0000000   0.0000000   0.0000000   0.0000000   0.0000000   0.0000000   0.0000000   0.0000000   0.0000000   0.0000000
 NQMom=    0.0000000   0.0000000   0.0000000   0.0000000   0.0000000   0.0000000   0.0000000   0.0000000   0.0000000   0.0000000
 NMagM=    0.0000000   0.0000000   0.0000000   0.0000000   2.7928460   2.7928460   2.7928460   2.7928460   2.7928460   2.7928460
 AtZNuc=   6.0000000   6.0000000   6.0000000   6.0000000   1.0000000   1.0000000   1.0000000   1.0000000   1.0000000   1.0000000
 Leave Link  101 at Wed Aug 26 10:19:52 2020, MaxMem=  2097152000 cpu:         0.5
 (Enter /opt/cluster/programs/g09/g09_d.01/g09/l202.exe)
                          Input orientation:                          
 ---------------------------------------------------------------------
 Center     Atomic      Atomic             Coordinates (Angstroms)
 Number     Number       Type             X           Y           Z
 ---------------------------------------------------------------------
      1          6           0       -3.855089    0.235264    0.041887
      2          6           0       -2.732643   -0.509732   -0.016544
      3          6           0       -1.385165    0.047242   -0.026408
      4          6           0       -0.247296   -0.643856    0.071134
      5          1           0       -4.835251   -0.207903    0.234899
      6          1           0       -3.793822    1.308125    0.067216
      7          1           0       -2.738901   -1.561975    0.055537
      8          1           0       -1.320614    1.162049   -0.036416
      9          1           0       -0.212105   -1.664403    0.102473
     10          1           0        0.747110   -0.200080    0.079139
 ---------------------------------------------------------------------
                    Distance matrix (angstroms):
                    1          2          3          4          5
     1  C    0.000000
     2  C    1.348450   0.000000
     3  C    2.478012   1.458086   0.000000
     4  C    3.713472   2.490507   1.334870   0.000000
     5  H    1.092872   2.138992   3.469362   4.611530   0.000000
     6  H    1.074907   2.106590   2.720335   4.048221   1.846898
     7  H    2.115687   1.054728   2.104494   2.655425   2.502072
     8  H    2.699745   2.188395   1.116719   2.103538   3.781938
     9  H    4.108983   2.774985   2.079040   1.021634   4.848959
    10  H    4.622894   3.494813   2.149164   1.088965   5.584539
                    6          7          8          9         10
     6  H    0.000000
     7  H    3.057854   0.000000
     8  H    2.479685   3.072507   0.000000
     9  H    4.654660   2.529307   3.039229   0.000000
    10  H    4.784860   3.742671   2.478756   1.750680   0.000000
 Stoichiometry    C4H6
 Framework group  C1[X(C4H6)]
 Deg. of freedom    24
 Full point group                 C1      NOp   1
 Largest Abelian subgroup         C1      NOp   1
 Largest concise Abelian subgroup C1      NOp   1
                         Standard orientation:                         
 ---------------------------------------------------------------------
 Center     Atomic      Atomic             Coordinates (Angstroms)
 Number     Number       Type             X           Y           Z
 ---------------------------------------------------------------------
      1          6           0       -1.857144    0.115531    0.011799
      2          6           0       -0.618828   -0.413316   -0.060402
      3          6           0        0.606369    0.377048   -0.045231
      4          6           0        1.849924   -0.100615    0.040121
      5          1           0       -2.741785   -0.502232    0.185431
      6          1           0       -1.990070    1.180691    0.068275
      7          1           0       -0.435647   -1.451171   -0.018549
      8          1           0        0.469174    1.485081   -0.022853
      9          1           0        2.068230   -1.098650    0.042437
     10          1           0        2.748173    0.514399    0.067533
 ---------------------------------------------------------------------
 Rotational constants (GHZ):     43.3608611      4.3755206      3.9827792
 Leave Link  202 at Wed Aug 26 10:19:52 2020, MaxMem=  2097152000 cpu:         0.0
 (Enter /opt/cluster/programs/g09/g09_d.01/g09/l301.exe)
 Standard basis: def2QZVP (5D, 7F)
 Ernie: Thresh=  0.10000D-02 Tol=  0.10000D-05 Strict=F.
 There are   498 symmetry adapted cartesian basis functions of A   symmetry.
 There are   408 symmetry adapted basis functions of A   symmetry.
   408 basis functions,   596 primitive gaussians,   498 cartesian basis functions
    15 alpha electrons       15 beta electrons
       nuclear repulsion energy       103.7375684434 Hartrees.
 IExCor=  419 DFT=T Ex+Corr=B2PLYPD3 ExCW=0 ScaHFX=  0.530000
 ScaDFX=  0.470000  0.470000  0.730000  0.730000 ScalE2=  0.270000  0.270000
 IRadAn=      0 IRanWt=     -1 IRanGd=            0 ICorTp=0 IEmpDi=141
 NAtoms=   10 NActive=   10 NUniq=   10 SFac= 1.00D+00 NAtFMM=   60 NAOKFM=F Big=F
 Integral buffers will be    131072 words long.
 Regular integral format.
 Two-electron integral symmetry is turned on.
 R6Disp:  Grimme-D3(BJ) Dispersion energy=       -0.0048193097 Hartrees.
 Nuclear repulsion after empirical dispersion term =      103.7327491337 Hartrees.
 Leave Link  301 at Wed Aug 26 10:19:52 2020, MaxMem=  2097152000 cpu:         0.4
 (Enter /opt/cluster/programs/g09/g09_d.01/g09/l302.exe)
 NPDir=0 NMtPBC=     1 NCelOv=     1 NCel=       1 NClECP=     1 NCelD=      1
         NCelK=      1 NCelE2=     1 NClLst=     1 CellRange=     0.0.
 One-electron integrals computed using PRISM.
   1 Symmetry operations used in ECPInt.
 ECPInt:  NShTT=    8256 NPrTT=   19107 LenC2=    8053 LenP2D=   16106.
 LDataN:  DoStor=T MaxTD1= 8 Len=  415
 NBasis=   408 RedAO= T EigKep=  4.51D-05  NBF=   408
 NBsUse=   408 1.00D-06 EigRej= -1.00D+00 NBFU=   408
 Precomputing XC quadrature grid using
 IXCGrd= 4 IRadAn=           0 IRanWt=          -1 IRanGd=           0 AccXCQ= 0.00D+00.
 Generated NRdTot=       0 NPtTot=           0 NUsed=           0 NTot=          32
 NSgBfM=   498   498   498   498   498 MxSgAt=    10 MxSgA2=    10.
 Leave Link  302 at Wed Aug 26 10:19:52 2020, MaxMem=  2097152000 cpu:         3.1
 (Enter /opt/cluster/programs/g09/g09_d.01/g09/l303.exe)
 DipDrv:  MaxL=1.
 Leave Link  303 at Wed Aug 26 10:19:52 2020, MaxMem=  2097152000 cpu:         0.3
 (Enter /opt/cluster/programs/g09/g09_d.01/g09/l401.exe)
 ExpMin= 7.60D-02 ExpMax= 6.70D+04 ExpMxC= 6.47D+02 IAcc=2 IRadAn=         4 AccDes= 0.00D+00
 Harris functional with IExCor=  419 and IRadAn=       4 diagonalized for initial guess.
 HarFok:  IExCor=  419 AccDes= 0.00D+00 IRadAn=         4 IDoV= 1 UseB2=F ITyADJ=14
 ICtDFT=  3500011 ScaDFX=  1.000000  1.000000  1.000000  1.000000
 FoFCou: FMM=F IPFlag=           0 FMFlag=      100000 FMFlg1=           0
         NFxFlg=           0 DoJE=T BraDBF=F KetDBF=T FulRan=T
         wScrn=  0.000000 ICntrl=     500 IOpCl=  0 I1Cent=   200000004 NGrid=           0
         NMat0=    1 NMatS0=      1 NMatT0=    0 NMatD0=    1 NMtDS0=    0 NMtDT0=    0
 Petite list used in FoFCou.
 Harris En= -156.131890914753    
 JPrj=0 DoOrth=F DoCkMO=F.
 Leave Link  401 at Wed Aug 26 10:19:53 2020, MaxMem=  2097152000 cpu:         8.1
 (Enter /opt/cluster/programs/g09/g09_d.01/g09/l502.exe)
 Closed shell SCF:
 Using DIIS extrapolation, IDIIS=  1040.
 Integral symmetry usage will be decided dynamically.
 IVT=      770090 IEndB=      770090 NGot=  2097152000 MDV=  2096647053
 LenX=  2096647053 LenY=  2096398551
 Requested convergence on RMS density matrix=1.00D-08 within 128 cycles.
 Requested convergence on MAX density matrix=1.00D-06.
 Requested convergence on             energy=1.00D-06.
 No special actions if energy rises.
 Fock matrices will be formed incrementally for  20 cycles.
 Integral accuracy reduced to 1.0D-05 until final iterations.

 Cycle   1  Pass 0  IDiag  1:
 FoFJK:  IHMeth= 1 ICntrl=       0 DoSepK=F KAlg= 0 I1Cent=   0 FoldK=F
 IRaf= 940000000 NMat=   1 IRICut=       1 DoRegI=T DoRafI=F ISym2E= 0.
 FoFCou: FMM=F IPFlag=           0 FMFlag=      100000 FMFlg1=           0
         NFxFlg=           0 DoJE=F BraDBF=F KetDBF=F FulRan=T
         wScrn=  0.000000 ICntrl=       0 IOpCl=  0 I1Cent=           0 NGrid=           0
         NMat0=    1 NMatS0=      1 NMatT0=    0 NMatD0=    1 NMtDS0=    0 NMtDT0=    0
 Symmetry not used in FoFCou.
 E= -155.507647123043    
 DIIS: error= 3.25D-02 at cycle   1 NSaved=   1.
 NSaved= 1 IEnMin= 1 EnMin= -155.507647123043     IErMin= 1 ErrMin= 3.25D-02
 ErrMax= 3.25D-02  0.00D+00 EMaxC= 1.00D-01 BMatC= 2.53D-01 BMatP= 2.53D-01
 IDIUse=3 WtCom= 6.75D-01 WtEn= 3.25D-01
 Coeff-Com:  0.100D+01
 Coeff-En:   0.100D+01
 Coeff:      0.100D+01
 Gap=     0.294 Goal=   None    Shift=    0.000
 GapD=    0.294 DampG=1.000 DampE=0.500 DampFc=0.5000 IDamp=-1.
 Damping current iteration by 5.00D-01
 RMSDP=9.45D-04 MaxDP=5.16D-02              OVMax= 1.95D-01

 Cycle   2  Pass 0  IDiag  1:
 RMSU=  4.35D-04    CP:  9.51D-01
 E= -155.606950835395     Delta-E=       -0.099303712352 Rises=F Damp=T
 DIIS: error= 1.06D-02 at cycle   2 NSaved=   2.
 NSaved= 2 IEnMin= 2 EnMin= -155.606950835395     IErMin= 2 ErrMin= 1.06D-02
 ErrMax= 1.06D-02  0.00D+00 EMaxC= 1.00D-01 BMatC= 2.99D-02 BMatP= 2.53D-01
 IDIUse=3 WtCom= 8.94D-01 WtEn= 1.06D-01
 Coeff-Com: -0.304D+00 0.130D+01
 Coeff-En:   0.000D+00 0.100D+01
 Coeff:     -0.272D+00 0.127D+01
 Gap=     0.357 Goal=   None    Shift=    0.000
 RMSDP=2.69D-04 MaxDP=8.65D-03 DE=-9.93D-02 OVMax= 9.41D-02

 Cycle   3  Pass 0  IDiag  1:
 RMSU=  2.58D-04    CP:  9.34D-01  1.08D+00
 E= -155.692554508490     Delta-E=       -0.085603673095 Rises=F Damp=F
 DIIS: error= 4.01D-03 at cycle   3 NSaved=   3.
 NSaved= 3 IEnMin= 3 EnMin= -155.692554508490     IErMin= 3 ErrMin= 4.01D-03
 ErrMax= 4.01D-03  0.00D+00 EMaxC= 1.00D-01 BMatC= 1.76D-03 BMatP= 2.99D-02
 IDIUse=3 WtCom= 9.60D-01 WtEn= 4.01D-02
 Coeff-Com: -0.110D+00 0.218D+00 0.893D+00
 Coeff-En:   0.000D+00 0.000D+00 0.100D+01
 Coeff:     -0.106D+00 0.209D+00 0.897D+00
 Gap=     0.290 Goal=   None    Shift=    0.000
 RMSDP=6.83D-05 MaxDP=3.56D-03 DE=-8.56D-02 OVMax= 2.08D-02

 Cycle   4  Pass 0  IDiag  1:
 RMSU=  4.99D-05    CP:  9.30D-01  1.18D+00  9.38D-01
 E= -155.693927384861     Delta-E=       -0.001372876371 Rises=F Damp=F
 DIIS: error= 2.55D-03 at cycle   4 NSaved=   4.
 NSaved= 4 IEnMin= 4 EnMin= -155.693927384861     IErMin= 4 ErrMin= 2.55D-03
 ErrMax= 2.55D-03  0.00D+00 EMaxC= 1.00D-01 BMatC= 5.38D-04 BMatP= 1.76D-03
 IDIUse=3 WtCom= 9.74D-01 WtEn= 2.55D-02
 Coeff-Com: -0.507D-01 0.833D-01 0.475D+00 0.492D+00
 Coeff-En:   0.000D+00 0.000D+00 0.118D+00 0.882D+00
 Coeff:     -0.494D-01 0.812D-01 0.466D+00 0.502D+00
 Gap=     0.290 Goal=   None    Shift=    0.000
 RMSDP=2.78D-05 MaxDP=1.59D-03 DE=-1.37D-03 OVMax= 9.33D-03

 Cycle   5  Pass 0  IDiag  1:
 RMSU=  1.58D-05    CP:  9.30D-01  1.17D+00  9.80D-01  5.99D-01
 E= -155.694454052957     Delta-E=       -0.000526668096 Rises=F Damp=F
 DIIS: error= 2.88D-04 at cycle   5 NSaved=   5.
 NSaved= 5 IEnMin= 5 EnMin= -155.694454052957     IErMin= 5 ErrMin= 2.88D-04
 ErrMax= 2.88D-04  0.00D+00 EMaxC= 1.00D-01 BMatC= 5.08D-06 BMatP= 5.38D-04
 IDIUse=3 WtCom= 9.97D-01 WtEn= 2.88D-03
 Coeff-Com: -0.277D-02 0.223D-02 0.371D-01 0.106D+00 0.858D+00
 Coeff-En:   0.000D+00 0.000D+00 0.000D+00 0.000D+00 0.100D+01
 Coeff:     -0.276D-02 0.222D-02 0.370D-01 0.106D+00 0.858D+00
 Gap=     0.290 Goal=   None    Shift=    0.000
 RMSDP=4.06D-06 MaxDP=1.49D-04 DE=-5.27D-04 OVMax= 1.23D-03

 Initial convergence to 1.0D-05 achieved.  Increase integral accuracy.
 Cycle   6  Pass 1  IDiag  1:
 E= -155.694479337898     Delta-E=       -0.000025284940 Rises=F Damp=F
 DIIS: error= 4.89D-05 at cycle   1 NSaved=   1.
 NSaved= 1 IEnMin= 1 EnMin= -155.694479337898     IErMin= 1 ErrMin= 4.89D-05
 ErrMax= 4.89D-05  0.00D+00 EMaxC= 1.00D-01 BMatC= 4.60D-07 BMatP= 4.60D-07
 IDIUse=1 WtCom= 1.00D+00 WtEn= 0.00D+00
 Coeff-Com:  0.100D+01
 Coeff:      0.100D+01
 Gap=     0.291 Goal=   None    Shift=    0.000
 RMSDP=4.06D-06 MaxDP=1.49D-04 DE=-2.53D-05 OVMax= 3.18D-04

 Cycle   7  Pass 1  IDiag  1:
 RMSU=  1.76D-05    CP:  1.00D+00
 E= -155.694479680457     Delta-E=       -0.000000342559 Rises=F Damp=F
 DIIS: error= 2.26D-05 at cycle   2 NSaved=   2.
 NSaved= 2 IEnMin= 2 EnMin= -155.694479680457     IErMin= 2 ErrMin= 2.26D-05
 ErrMax= 2.26D-05  0.00D+00 EMaxC= 1.00D-01 BMatC= 3.23D-08 BMatP= 4.60D-07
 IDIUse=1 WtCom= 1.00D+00 WtEn= 0.00D+00
 Coeff-Com:  0.916D-01 0.908D+00
 Coeff:      0.916D-01 0.908D+00
 Gap=     0.291 Goal=   None    Shift=    0.000
 RMSDP=9.07D-07 MaxDP=2.80D-05 DE=-3.43D-07 OVMax= 1.56D-04

 Cycle   8  Pass 1  IDiag  1:
 RMSU=  6.08D-07    CP:  1.00D+00  1.04D+00
 E= -155.694479705732     Delta-E=       -0.000000025275 Rises=F Damp=F
 DIIS: error= 1.04D-05 at cycle   3 NSaved=   3.
 NSaved= 3 IEnMin= 3 EnMin= -155.694479705732     IErMin= 3 ErrMin= 1.04D-05
 ErrMax= 1.04D-05  0.00D+00 EMaxC= 1.00D-01 BMatC= 2.05D-08 BMatP= 3.23D-08
 IDIUse=1 WtCom= 1.00D+00 WtEn= 0.00D+00
 Coeff-Com: -0.214D-01 0.436D+00 0.585D+00
 Coeff:     -0.214D-01 0.436D+00 0.585D+00
 Gap=     0.291 Goal=   None    Shift=    0.000
 RMSDP=2.66D-07 MaxDP=1.68D-05 DE=-2.53D-08 OVMax= 5.87D-05

 Cycle   9  Pass 1  IDiag  1:
 RMSU=  2.20D-07    CP:  1.00D+00  1.05D+00  1.09D+00
 E= -155.694479725439     Delta-E=       -0.000000019707 Rises=F Damp=F
 DIIS: error= 4.30D-06 at cycle   4 NSaved=   4.
 NSaved= 4 IEnMin= 4 EnMin= -155.694479725439     IErMin= 4 ErrMin= 4.30D-06
 ErrMax= 4.30D-06  0.00D+00 EMaxC= 1.00D-01 BMatC= 5.44D-10 BMatP= 2.05D-08
 IDIUse=1 WtCom= 1.00D+00 WtEn= 0.00D+00
 Coeff-Com: -0.112D-01 0.577D-01 0.134D+00 0.820D+00
 Coeff:     -0.112D-01 0.577D-01 0.134D+00 0.820D+00
 Gap=     0.291 Goal=   None    Shift=    0.000
 RMSDP=6.90D-08 MaxDP=2.26D-06 DE=-1.97D-08 OVMax= 2.20D-05

 Cycle  10  Pass 1  IDiag  1:
 RMSU=  4.61D-08    CP:  1.00D+00  1.05D+00  1.16D+00  1.08D+00
 E= -155.694479726270     Delta-E=       -0.000000000831 Rises=F Damp=F
 DIIS: error= 1.32D-06 at cycle   5 NSaved=   5.
 NSaved= 5 IEnMin= 5 EnMin= -155.694479726270     IErMin= 5 ErrMin= 1.32D-06
 ErrMax= 1.32D-06  0.00D+00 EMaxC= 1.00D-01 BMatC= 1.81D-10 BMatP= 5.44D-10
 IDIUse=1 WtCom= 1.00D+00 WtEn= 0.00D+00
 Coeff-Com: -0.337D-03-0.602D-01-0.696D-01 0.348D+00 0.782D+00
 Coeff:     -0.337D-03-0.602D-01-0.696D-01 0.348D+00 0.782D+00
 Gap=     0.291 Goal=   None    Shift=    0.000
 RMSDP=3.53D-08 MaxDP=1.64D-06 DE=-8.31D-10 OVMax= 9.74D-06

 Cycle  11  Pass 1  IDiag  1:
 RMSU=  2.35D-08    CP:  1.00D+00  1.05D+00  1.19D+00  1.17D+00  1.06D+00
 E= -155.694479726517     Delta-E=       -0.000000000247 Rises=F Damp=F
 DIIS: error= 1.43D-07 at cycle   6 NSaved=   6.
 NSaved= 6 IEnMin= 6 EnMin= -155.694479726517     IErMin= 6 ErrMin= 1.43D-07
 ErrMax= 1.43D-07  0.00D+00 EMaxC= 1.00D-01 BMatC= 5.69D-12 BMatP= 1.81D-10
 IDIUse=1 WtCom= 1.00D+00 WtEn= 0.00D+00
 Coeff-Com:  0.764D-03-0.209D-01-0.323D-01 0.393D-01 0.210D+00 0.803D+00
 Coeff:      0.764D-03-0.209D-01-0.323D-01 0.393D-01 0.210D+00 0.803D+00
 Gap=     0.291 Goal=   None    Shift=    0.000
 RMSDP=6.66D-09 MaxDP=2.29D-07 DE=-2.47D-10 OVMax= 1.53D-06

 SCF Done:  E(RB2PLYPD3) =  -155.694479727     A.U. after   11 cycles
            NFock= 11  Conv=0.67D-08     -V/T= 2.0035
 KE= 1.551514582727D+02 PE=-5.683715691487D+02 EE= 1.537928820158D+02
 Leave Link  502 at Wed Aug 26 10:22:40 2020, MaxMem=  2097152000 cpu:      1331.7
 (Enter /opt/cluster/programs/g09/g09_d.01/g09/l801.exe)
 DoSCS=T DFT=T ScalE2(SS,OS)=  0.270000  0.270000
 ExpMin= 7.60D-02 ExpMax= 6.70D+04 ExpMxC= 6.47D+02 IAcc=3 IRadAn=         5 AccDes= 0.00D+00
 HarFok:  IExCor=  205 AccDes= 0.00D+00 IRadAn=         5 IDoV=-2 UseB2=F ITyADJ=14
 ICtDFT= 12500011 ScaDFX=  1.000000  1.000000  1.000000  1.000000
 Largest valence mixing into a core orbital is  1.11D-04
 Largest core mixing into a valence orbital is  2.01D-05
 Range of M.O.s used for correlation:     5   408
 NBasis=   408 NAE=    15 NBE=    15 NFC=     4 NFV=     0
 NROrb=    404 NOA=    11 NOB=    11 NVA=   393 NVB=   393

 **** Warning!!: The largest alpha MO coefficient is  0.29460535D+02

 Leave Link  801 at Wed Aug 26 10:22:40 2020, MaxMem=  2097152000 cpu:         0.8
 (Enter /opt/cluster/programs/g09/g09_d.01/g09/l906.exe)
 DoSCS=T DFT=T ScalE2(SS,OS)=  0.270000  0.270000
 FulOut=F Deriv=F AODrv=F NAtomX=    10
   MMem=         881  MDisk=          11 MDiskD=          11
  W3Min=     2152854 MinDsk=     3857222 NBas6D=         498
 NBas2D=      125763    NTT=      124251    LW2=     4508827
    MDV=  2096383912 MDiskM=        9345 NBas2p=      117183
 Fully direct method using O(OVN) memory.
 IMap=   1   2   3   4   5   6   7   8   9  10  11
 JobTyp=1 Pass  1:  I=   1 to  11 NPSUse=  8 ParTrn=T ParDer=T DoDerP=F.
 Spin components of T(2) and E(2):
     alpha-alpha T2 =       0.4210442937D-01 E2=     -0.2542496281D-01
     alpha-beta  T2 =       0.2728307088D+00 E2=     -0.1750318503D+00
     beta-beta   T2 =       0.4210442937D-01 E2=     -0.2542496281D-01
 The integrals were generated   1 times.
 E2(B2PLYPD3) =    -0.2258817759D+00 E(B2PLYPD3) =    -0.15592036150239D+03
 Leave Link  906 at Wed Aug 26 10:24:07 2020, MaxMem=  2097152000 cpu:       692.5
 (Enter /opt/cluster/programs/g09/g09_d.01/g09/l601.exe)
 Copying SCF densities to generalized density rwf, IOpCl= 0 IROHF=0.

 **********************************************************************

            Population analysis using the SCF density.

 **********************************************************************

 Orbital symmetries:
       Occupied  (A) (A) (A) (A) (A) (A) (A) (A) (A) (A) (A) (A)
                 (A) (A) (A)
       Virtual   (A) (A) (A) (A) (A) (A) (A) (A) (A) (A) (A) (A)
                 (A) (A) (A) (A) (A) (A) (A) (A) (A) (A) (A) (A)
                 (A) (A) (A) (A) (A) (A) (A) (A) (A) (A) (A) (A)
                 (A) (A) (A) (A) (A) (A) (A) (A) (A) (A) (A) (A)
                 (A) (A) (A) (A) (A) (A) (A) (A) (A) (A) (A) (A)
                 (A) (A) (A) (A) (A) (A) (A) (A) (A) (A) (A) (A)
                 (A) (A) (A) (A) (A) (A) (A) (A) (A) (A) (A) (A)
                 (A) (A) (A) (A) (A) (A) (A) (A) (A) (A) (A) (A)
                 (A) (A) (A) (A) (A) (A) (A) (A) (A) (A) (A) (A)
                 (A) (A) (A) (A) (A) (A) (A) (A) (A) (A) (A) (A)
                 (A) (A) (A) (A) (A) (A) (A) (A) (A) (A) (A) (A)
                 (A) (A) (A) (A) (A) (A) (A) (A) (A) (A) (A) (A)
                 (A) (A) (A) (A) (A) (A) (A) (A) (A) (A) (A) (A)
                 (A) (A) (A) (A) (A) (A) (A) (A) (A) (A) (A) (A)
                 (A) (A) (A) (A) (A) (A) (A) (A) (A) (A) (A) (A)
                 (A) (A) (A) (A) (A) (A) (A) (A) (A) (A) (A) (A)
                 (A) (A) (A) (A) (A) (A) (A) (A) (A) (A) (A) (A)
                 (A) (A) (A) (A) (A) (A) (A) (A) (A) (A) (A) (A)
                 (A) (A) (A) (A) (A) (A) (A) (A) (A) (A) (A) (A)
                 (A) (A) (A) (A) (A) (A) (A) (A) (A) (A) (A) (A)
                 (A) (A) (A) (A) (A) (A) (A) (A) (A) (A) (A) (A)
                 (A) (A) (A) (A) (A) (A) (A) (A) (A) (A) (A) (A)
                 (A) (A) (A) (A) (A) (A) (A) (A) (A) (A) (A) (A)
                 (A) (A) (A) (A) (A) (A) (A) (A) (A) (A) (A) (A)
                 (A) (A) (A) (A) (A) (A) (A) (A) (A) (A) (A) (A)
                 (A) (A) (A) (A) (A) (A) (A) (A) (A) (A) (A) (A)
                 (A) (A) (A) (A) (A) (A) (A) (A) (A) (A) (A) (A)
                 (A) (A) (A) (A) (A) (A) (A) (A) (A) (A) (A) (A)
                 (A) (A) (A) (A) (A) (A) (A) (A) (A) (A) (A) (A)
                 (A) (A) (A) (A) (A) (A) (A) (A) (A) (A) (A) (A)
                 (A) (A) (A) (A) (A) (A) (A) (A) (A) (A) (A) (A)
                 (A) (A) (A) (A) (A) (A) (A) (A) (A) (A) (A) (A)
                 (A) (A) (A) (A) (A) (A) (A) (A) (A)
 The electronic state is 1-A.
 Alpha  occ. eigenvalues --  -10.62909 -10.62659 -10.61979 -10.60989  -0.92844
 Alpha  occ. eigenvalues --   -0.84892  -0.70784  -0.64488  -0.54936  -0.53729
 Alpha  occ. eigenvalues --   -0.47167  -0.45830  -0.40795  -0.38006  -0.27668
 Alpha virt. eigenvalues --    0.01388   0.06937   0.07548   0.08101   0.09544
 Alpha virt. eigenvalues --    0.11640   0.12630   0.14754   0.15873   0.16173
 Alpha virt. eigenvalues --    0.18966   0.20229   0.22113   0.23170   0.23333
 Alpha virt. eigenvalues --    0.26342   0.26722   0.29605   0.31578   0.34622
 Alpha virt. eigenvalues --    0.35471   0.36437   0.36720   0.38180   0.40523
 Alpha virt. eigenvalues --    0.42891   0.43647   0.46120   0.46386   0.47776
 Alpha virt. eigenvalues --    0.49358   0.50170   0.52032   0.55910   0.56741
 Alpha virt. eigenvalues --    0.59055   0.61160   0.64165   0.65336   0.69083
 Alpha virt. eigenvalues --    0.69160   0.72396   0.76486   0.77532   0.79510
 Alpha virt. eigenvalues --    0.80281   0.80536   0.81901   0.82814   0.84471
 Alpha virt. eigenvalues --    0.84938   0.85952   0.86418   0.87132   0.90624
 Alpha virt. eigenvalues --    0.92806   0.93233   0.94100   0.94608   0.95514
 Alpha virt. eigenvalues --    0.98451   0.98760   1.01175   1.02131   1.03939
 Alpha virt. eigenvalues --    1.05448   1.08182   1.09523   1.12104   1.12951
 Alpha virt. eigenvalues --    1.14489   1.17649   1.19867   1.21465   1.22892
 Alpha virt. eigenvalues --    1.24992   1.27131   1.33803   1.34827   1.35341
 Alpha virt. eigenvalues --    1.36230   1.41879   1.48144   1.59783   1.62044
 Alpha virt. eigenvalues --    1.65176   1.66459   1.69277   1.71765   1.72722
 Alpha virt. eigenvalues --    1.77191   1.80926   1.82198   1.84701   1.87048
 Alpha virt. eigenvalues --    1.89852   1.91344   1.92180   1.93322   1.94260
 Alpha virt. eigenvalues --    1.95764   1.98530   2.00330   2.01996   2.02980
 Alpha virt. eigenvalues --    2.03479   2.05728   2.06936   2.08351   2.09782
 Alpha virt. eigenvalues --    2.09965   2.11827   2.14133   2.16638   2.19376
 Alpha virt. eigenvalues --    2.20076   2.21829   2.22794   2.25331   2.28826
 Alpha virt. eigenvalues --    2.29594   2.31921   2.33695   2.38945   2.42810
 Alpha virt. eigenvalues --    2.44023   2.45850   2.47141   2.47879   2.50593
 Alpha virt. eigenvalues --    2.52291   2.53039   2.54464   2.57397   2.58228
 Alpha virt. eigenvalues --    2.60123   2.62299   2.64027   2.64853   2.66304
 Alpha virt. eigenvalues --    2.68034   2.69175   2.70058   2.71482   2.73369
 Alpha virt. eigenvalues --    2.74225   2.75505   2.76906   2.77950   2.78815
 Alpha virt. eigenvalues --    2.83683   2.88008   2.88266   2.93321   2.93989
 Alpha virt. eigenvalues --    2.96197   3.02767   3.05466   3.07681   3.10694
 Alpha virt. eigenvalues --    3.11953   3.15094   3.23141   3.30038   3.36571
 Alpha virt. eigenvalues --    3.38448   3.40166   3.41806   3.44652   3.47416
 Alpha virt. eigenvalues --    3.49542   3.50817   3.53525   3.55243   3.58062
 Alpha virt. eigenvalues --    3.62660   3.63330   3.66111   3.68204   3.79716
 Alpha virt. eigenvalues --    3.81081   3.82996   3.87357   3.90651   3.93095
 Alpha virt. eigenvalues --    3.93250   3.97756   4.00557   4.05824   4.11823
 Alpha virt. eigenvalues --    4.16683   4.17463   4.23145   4.25140   4.45277
 Alpha virt. eigenvalues --    4.55580   4.58948   4.61195   4.83750   4.98571
 Alpha virt. eigenvalues --    5.00706   5.03621   5.06363   5.06709   5.09411
 Alpha virt. eigenvalues --    5.12599   5.17543   5.21121   5.29494   5.30225
 Alpha virt. eigenvalues --    5.34168   5.39147   5.39917   5.44083   5.48736
 Alpha virt. eigenvalues --    5.52679   5.54953   5.58158   5.62546   5.64604
 Alpha virt. eigenvalues --    5.66033   5.68106   5.73222   5.73424   5.76187
 Alpha virt. eigenvalues --    5.78567   5.80289   5.84247   5.85268   5.86907
 Alpha virt. eigenvalues --    5.90167   5.91793   5.99654   6.00188   6.02151
 Alpha virt. eigenvalues --    6.07624   6.08074   6.09831   6.11622   6.12613
 Alpha virt. eigenvalues --    6.14870   6.15785   6.17263   6.19092   6.21709
 Alpha virt. eigenvalues --    6.22394   6.24355   6.27873   6.30013   6.32882
 Alpha virt. eigenvalues --    6.35014   6.35240   6.36263   6.37923   6.39741
 Alpha virt. eigenvalues --    6.41063   6.43396   6.43908   6.49904   6.52524
 Alpha virt. eigenvalues --    6.54466   6.55199   6.56852   6.57930   6.64018
 Alpha virt. eigenvalues --    6.66468   6.68693   6.70540   6.76435   6.79448
 Alpha virt. eigenvalues --    6.80948   6.85444   6.89853   6.91204   6.94660
 Alpha virt. eigenvalues --    6.95246   6.97527   7.03707   7.06362   7.13589
 Alpha virt. eigenvalues --    7.14342   7.14814   7.16330   7.19314   7.19932
 Alpha virt. eigenvalues --    7.24077   7.26022   7.32611   7.35308   7.44769
 Alpha virt. eigenvalues --    7.48019   7.51689   7.55240   7.56474   7.59373
 Alpha virt. eigenvalues --    7.63779   7.64921   7.66144   7.68582   7.69839
 Alpha virt. eigenvalues --    7.72343   7.74246   7.76190   7.77195   7.79170
 Alpha virt. eigenvalues --    7.81417   7.84606   7.86071   7.90750   7.92973
 Alpha virt. eigenvalues --    7.96251   7.98124   8.05480   8.08945   8.11106
 Alpha virt. eigenvalues --    8.14072   8.17767   8.18355   8.22169   8.23542
 Alpha virt. eigenvalues --    8.30907   8.31970   8.33312   8.34204   8.35635
 Alpha virt. eigenvalues --    8.37608   8.39189   8.40960   8.43294   8.44158
 Alpha virt. eigenvalues --    8.45640   8.51251   8.54211   8.54895   8.57265
 Alpha virt. eigenvalues --    8.60337   8.61819   8.65855   8.71163   8.72288
 Alpha virt. eigenvalues --    8.74577   8.76913   8.78777   8.81610   8.88304
 Alpha virt. eigenvalues --    8.89572   8.92184   8.97551   9.04630   9.15614
 Alpha virt. eigenvalues --    9.22826   9.23953   9.30178   9.36061   9.45139
 Alpha virt. eigenvalues --    9.52846   9.68150   9.71513   9.80091   9.88913
 Alpha virt. eigenvalues --    9.90914   9.95656  10.02231  10.09540  10.10957
 Alpha virt. eigenvalues --   10.15733  10.18714  10.21662  10.37543  10.43051
 Alpha virt. eigenvalues --   10.45564  10.48355  10.60403  10.67496  10.79086
 Alpha virt. eigenvalues --   11.04385  11.27193  11.53007  11.66910  11.82809
 Alpha virt. eigenvalues --   11.88823  12.80872  13.04222  13.15296  13.21072
 Alpha virt. eigenvalues --   28.67234  28.78518  29.47254  29.68167 148.27115
 Alpha virt. eigenvalues --  148.37221 149.07101 149.29661
          Condensed to atoms (all electrons):
               1          2          3          4          5          6
     1  C    4.828763   0.620444  -0.078875  -0.002435   0.422995   0.425265
     2  C    0.620444   4.841695   0.399935  -0.076467  -0.043549  -0.046968
     3  C   -0.078875   0.399935   4.830621   0.617456   0.007329  -0.007270
     4  C   -0.002435  -0.076467   0.617456   4.832762  -0.000605   0.000275
     5  H    0.422995  -0.043549   0.007329  -0.000605   0.581938  -0.044805
     6  H    0.425265  -0.046968  -0.007270   0.000275  -0.044805   0.594043
     7  H   -0.045942   0.408529  -0.066699   0.000090  -0.007899   0.007197
     8  H   -0.002468  -0.061308   0.407653  -0.049753  -0.000111   0.004723
     9  H    0.000118  -0.006342  -0.049721   0.426873  -0.000027   0.000048
    10  H   -0.000528   0.006750  -0.041177   0.427218   0.000023  -0.000037
               7          8          9         10
     1  C   -0.045942  -0.002468   0.000118  -0.000528
     2  C    0.408529  -0.061308  -0.006342   0.006750
     3  C   -0.066699   0.407653  -0.049721  -0.041177
     4  C    0.000090  -0.049753   0.426873   0.427218
     5  H   -0.007899  -0.000111  -0.000027   0.000023
     6  H    0.007197   0.004723   0.000048  -0.000037
     7  H    0.631129   0.007703   0.004475  -0.000192
     8  H    0.007703   0.648673   0.008193  -0.009930
     9  H    0.004475   0.008193   0.604120  -0.051395
    10  H   -0.000192  -0.009930  -0.051395   0.588676
 Mulliken charges:
               1
     1  C   -0.167337
     2  C   -0.042718
     3  C   -0.019252
     4  C   -0.175415
     5  H    0.084711
     6  H    0.067528
     7  H    0.061608
     8  H    0.046625
     9  H    0.063659
    10  H    0.080591
 Sum of Mulliken charges =   0.00000
 Mulliken charges with hydrogens summed into heavy atoms:
               1
     1  C   -0.015098
     2  C    0.018890
     3  C    0.027373
     4  C   -0.031164
 Electronic spatial extent (au):  <R**2>=            338.3582
 Charge=              0.0000 electrons
 Dipole moment (field-independent basis, Debye):
    X=              0.0309    Y=             -0.0654    Z=              0.2228  Tot=              0.2342
 Quadrupole moment (field-independent basis, Debye-Ang):
   XX=            -23.1552   YY=            -23.3354   ZZ=            -29.2186
   XY=             -0.3742   XZ=             -0.4442   YZ=             -0.0452
 Traceless Quadrupole moment (field-independent basis, Debye-Ang):
   XX=              2.0812   YY=              1.9010   ZZ=             -3.9822
   XY=             -0.3742   XZ=             -0.4442   YZ=             -0.0452
 Octapole moment (field-independent basis, Debye-Ang**2):
  XXX=              1.2771  YYY=             -0.1250  ZZZ=              0.3727  XYY=             -0.0217
  XXY=             -0.4138  XXZ=              2.0554  XZZ=              0.0616  YZZ=             -0.1781
  YYZ=              0.3276  XYZ=              0.1671
 Hexadecapole moment (field-independent basis, Debye-Ang**3):
 XXXX=           -344.5993 YYYY=            -64.4229 ZZZZ=            -37.2099 XXXY=              4.1241
 XXXZ=             -3.8437 YYYX=             -2.5968 YYYZ=             -0.0083 ZZZX=             -0.7349
 ZZZY=             -0.0657 XXYY=            -69.5153 XXZZ=            -77.8654 YYZZ=            -18.9450
 XXYZ=             -0.4606 YYXZ=             -0.4629 ZZXY=             -0.6538
 N-N= 1.037327491337D+02 E-N=-5.683715663297D+02  KE= 1.551514582727D+02
 Leave Link  601 at Wed Aug 26 10:24:07 2020, MaxMem=  2097152000 cpu:         0.7
 (Enter /opt/cluster/programs/g09/g09_d.01/g09/l9999.exe)
 1\1\GINC-NODE28\SP\RB2PLYPD3-FC\def2QZVP\C4H6\BOITTIER\26-Aug-2020\0\\
 #p B2PLYPD3/Def2QZVP\\butadiene\\0,1\C,0,-3.855089,0.235264,0.041887\C
 ,0,-2.732643,-0.509732,-0.016544\C,0,-1.385165,0.047242,-0.026408\C,0,
 -0.247296,-0.643856,0.071134\H,0,-4.835251,-0.207903,0.234899\H,0,-3.7
 93822,1.308125,0.067216\H,0,-2.738901,-1.561975,0.055537\H,0,-1.320614
 ,1.162049,-0.036416\H,0,-0.212105,-1.664403,0.102473\H,0,0.74711,-0.20
 008,0.079139\\Version=ES64L-G09RevD.01\State=1-A\HF=-155.6944797\MP2=-
 155.9203615\RMSD=6.657e-09\PG=C01 [X(C4H6)]\\@


 ... SUBJECTS WHICH DISCLOSE THEIR FULL POWER, MEANING AND BEAUTY AS SOON
 AS THEY ARE PRESENTED TO THE MIND HAVE VERY LITTLE OF THOSE QUALITIES
 TO DISCLOSE.
                           -- CHARLES DUTTON (1882)
 Job cpu time:       0 days  0 hours 33 minutes 59.2 seconds.
 File lengths (MBytes):  RWF=     92 Int=      0 D2E=      0 Chk=      9 Scr=      1
 Normal termination of Gaussian 09 at Wed Aug 26 10:24:08 2020.
