 Entering Gaussian System, Link 0=/opt/cluster/programs/g09/g09_d.01/g09//g09
 Input=/home/boittier/MDCM/nms_sampling/butadiene_geom.xyz.dir/energies/butadiene_1690_energy.com
 Output=/scratch/boittier/butadiene_1690_energy/butadiene_1690_energy.out
 Initial command:
 /opt/cluster/programs/g09/g09_d.01/g09/l1.exe "/scratch/boittier/butadiene_1690_energy/Gau-28773.inp" -scrdir="/scratch/boittier/butadiene_1690_energy/"
 Entering Link 1 = /opt/cluster/programs/g09/g09_d.01/g09/l1.exe PID=     28774.
  
 Copyright (c) 1988,1990,1992,1993,1995,1998,2003,2009,2013,
            Gaussian, Inc.  All Rights Reserved.
  
 This is part of the Gaussian(R) 09 program.  It is based on
 the Gaussian(R) 03 system (copyright 2003, Gaussian, Inc.),
 the Gaussian(R) 98 system (copyright 1998, Gaussian, Inc.),
 the Gaussian(R) 94 system (copyright 1995, Gaussian, Inc.),
 the Gaussian 92(TM) system (copyright 1992, Gaussian, Inc.),
 the Gaussian 90(TM) system (copyright 1990, Gaussian, Inc.),
 the Gaussian 88(TM) system (copyright 1988, Gaussian, Inc.),
 the Gaussian 86(TM) system (copyright 1986, Carnegie Mellon
 University), and the Gaussian 82(TM) system (copyright 1983,
 Carnegie Mellon University). Gaussian is a federally registered
 trademark of Gaussian, Inc.
  
 This software contains proprietary and confidential information,
 including trade secrets, belonging to Gaussian, Inc.
  
 This software is provided under written license and may be
 used, copied, transmitted, or stored only in accord with that
 written license.
  
 The following legend is applicable only to US Government
 contracts under FAR:
  
                    RESTRICTED RIGHTS LEGEND
  
 Use, reproduction and disclosure by the US Government is
 subject to restrictions as set forth in subparagraphs (a)
 and (c) of the Commercial Computer Software - Restricted
 Rights clause in FAR 52.227-19.
  
 Gaussian, Inc.
 340 Quinnipiac St., Bldg. 40, Wallingford CT 06492
  
  
 ---------------------------------------------------------------
 Warning -- This program may not be used in any manner that
 competes with the business of Gaussian, Inc. or will provide
 assistance to any competitor of Gaussian, Inc.  The licensee
 of this program is prohibited from giving any competitor of
 Gaussian, Inc. access to this program.  By using this program,
 the user acknowledges that Gaussian, Inc. is engaged in the
 business of creating and licensing software in the field of
 computational chemistry and represents and warrants to the
 licensee that it is not a competitor of Gaussian, Inc. and that
 it will not use this program in any manner prohibited above.
 ---------------------------------------------------------------
  

 Cite this work as:
 Gaussian 09, Revision D.01,
 M. J. Frisch, G. W. Trucks, H. B. Schlegel, G. E. Scuseria, 
 M. A. Robb, J. R. Cheeseman, G. Scalmani, V. Barone, B. Mennucci, 
 G. A. Petersson, H. Nakatsuji, M. Caricato, X. Li, H. P. Hratchian, 
 A. F. Izmaylov, J. Bloino, G. Zheng, J. L. Sonnenberg, M. Hada, 
 M. Ehara, K. Toyota, R. Fukuda, J. Hasegawa, M. Ishida, T. Nakajima, 
 Y. Honda, O. Kitao, H. Nakai, T. Vreven, J. A. Montgomery, Jr., 
 J. E. Peralta, F. Ogliaro, M. Bearpark, J. J. Heyd, E. Brothers, 
 K. N. Kudin, V. N. Staroverov, T. Keith, R. Kobayashi, J. Normand, 
 K. Raghavachari, A. Rendell, J. C. Burant, S. S. Iyengar, J. Tomasi, 
 M. Cossi, N. Rega, J. M. Millam, M. Klene, J. E. Knox, J. B. Cross, 
 V. Bakken, C. Adamo, J. Jaramillo, R. Gomperts, R. E. Stratmann, 
 O. Yazyev, A. J. Austin, R. Cammi, C. Pomelli, J. W. Ochterski, 
 R. L. Martin, K. Morokuma, V. G. Zakrzewski, G. A. Voth, 
 P. Salvador, J. J. Dannenberg, S. Dapprich, A. D. Daniels, 
 O. Farkas, J. B. Foresman, J. V. Ortiz, J. Cioslowski, 
 and D. J. Fox, Gaussian, Inc., Wallingford CT, 2013.
 
 ******************************************
 Gaussian 09:  ES64L-G09RevD.01 24-Apr-2013
                26-Aug-2020 
 ******************************************
 %chk=/home/boittier/MDCM/nms_sampling/butadiene_geom.xyz.dir/butadiene_1690.chk
 %nproc=8
 Will use up to    8 processors via shared memory.
 %mem=16000MB
 --------------------
 #p B2PLYPD3/Def2QZVP
 --------------------
 1/38=1/1;
 2/12=2,17=6,18=5,40=1/2;
 3/5=45,7=101,11=9,16=1,25=1,30=1,74=-60/1,2,3;
 4//1;
 5/5=2,38=5/2;
 8/10=1/1;
 9/16=-3/6;
 6/7=2,8=2,9=2,10=2/1;
 99/5=1,9=1/99;
 Leave Link    1 at Wed Aug 26 10:11:53 2020, MaxMem=  2097152000 cpu:         0.2
 (Enter /opt/cluster/programs/g09/g09_d.01/g09/l101.exe)
 ---------
 butadiene
 ---------
 Symbolic Z-matrix:
 Charge =  0 Multiplicity = 1
 C                    -3.85487   0.21666  -0.03304 
 C                    -2.71408  -0.49451   0.09574 
 C                    -1.37474   0.06292   0.04056 
 C                    -0.26486  -0.6499   -0.00028 
 H                    -4.88227  -0.19197   0.07186 
 H                    -3.83976   1.31405  -0.07079 
 H                    -2.72689  -1.57191   0.09055 
 H                    -1.29736   1.16973   0.08804 
 H                    -0.27335  -1.73603  -0.06587 
 H                     0.70405  -0.22174   0.01703 
 
 NAtoms=     10 NQM=       10 NQMF=       0 NMMI=      0 NMMIF=      0
                NMic=       0 NMicF=      0.
                    Isotopes and Nuclear Properties:
 (Nuclear quadrupole moments (NQMom) in fm**2, nuclear magnetic moments (NMagM)
  in nuclear magnetons)

  Atom         1           2           3           4           5           6           7           8           9          10
 IAtWgt=          12          12          12          12           1           1           1           1           1           1
 AtmWgt=  12.0000000  12.0000000  12.0000000  12.0000000   1.0078250   1.0078250   1.0078250   1.0078250   1.0078250   1.0078250
 NucSpn=           0           0           0           0           1           1           1           1           1           1
 AtZEff=   0.0000000   0.0000000   0.0000000   0.0000000   0.0000000   0.0000000   0.0000000   0.0000000   0.0000000   0.0000000
 NQMom=    0.0000000   0.0000000   0.0000000   0.0000000   0.0000000   0.0000000   0.0000000   0.0000000   0.0000000   0.0000000
 NMagM=    0.0000000   0.0000000   0.0000000   0.0000000   2.7928460   2.7928460   2.7928460   2.7928460   2.7928460   2.7928460
 AtZNuc=   6.0000000   6.0000000   6.0000000   6.0000000   1.0000000   1.0000000   1.0000000   1.0000000   1.0000000   1.0000000
 Leave Link  101 at Wed Aug 26 10:11:53 2020, MaxMem=  2097152000 cpu:         0.6
 (Enter /opt/cluster/programs/g09/g09_d.01/g09/l202.exe)
                          Input orientation:                          
 ---------------------------------------------------------------------
 Center     Atomic      Atomic             Coordinates (Angstroms)
 Number     Number       Type             X           Y           Z
 ---------------------------------------------------------------------
      1          6           0       -3.854865    0.216659   -0.033035
      2          6           0       -2.714077   -0.494512    0.095739
      3          6           0       -1.374736    0.062922    0.040559
      4          6           0       -0.264861   -0.649902   -0.000284
      5          1           0       -4.882269   -0.191972    0.071861
      6          1           0       -3.839761    1.314054   -0.070791
      7          1           0       -2.726885   -1.571914    0.090554
      8          1           0       -1.297355    1.169725    0.088044
      9          1           0       -0.273351   -1.736032   -0.065866
     10          1           0        0.704045   -0.221738    0.017030
 ---------------------------------------------------------------------
                    Distance matrix (angstroms):
                    1          2          3          4          5
     1  C    0.000000
     2  C    1.350461   0.000000
     3  C    2.485979   1.451762   0.000000
     4  C    3.693255   2.456018   1.319700   0.000000
     5  H    1.110649   2.189328   3.516922   4.640621   0.000000
     6  H    1.098148   2.136775   2.766601   4.079461   1.837195
     7  H    2.118161   1.077491   2.122144   2.630574   2.559349
     8  H    2.732005   2.185600   1.110520   2.094012   3.834852
     9  H    4.079378   2.743106   2.112016   1.088141   4.862635
    10  H    4.580214   3.429892   2.098313   1.059435   5.586662
                    6          7          8          9         10
     6  H    0.000000
     7  H    3.097311   0.000000
     8  H    2.551448   3.091949   0.000000
     9  H    4.692795   2.463987   3.084752   0.000000
    10  H    4.797139   3.687772   2.438609   1.804234   0.000000
 Stoichiometry    C4H6
 Framework group  C1[X(C4H6)]
 Deg. of freedom    24
 Full point group                 C1      NOp   1
 Largest Abelian subgroup         C1      NOp   1
 Largest concise Abelian subgroup C1      NOp   1
                         Standard orientation:                         
 ---------------------------------------------------------------------
 Center     Atomic      Atomic             Coordinates (Angstroms)
 Number     Number       Type             X           Y           Z
 ---------------------------------------------------------------------
      1          6           0        1.851023    0.095844    0.055324
      2          6           0        0.599571   -0.397624   -0.063431
      3          6           0       -0.615560    0.395740   -0.022926
      4          6           0       -1.836842   -0.101735    0.028031
      5          1           0        2.786579   -0.495292   -0.038662
      6          1           0        2.036409    1.178099    0.072219
      7          1           0        0.415594   -1.458982   -0.037779
      8          1           0       -0.489727    1.496968   -0.091625
      9          1           0       -2.026630   -1.169725    0.114221
     10          1           0       -2.711374    0.495584   -0.000362
 ---------------------------------------------------------------------
 Rotational constants (GHZ):     42.7824612      4.4111802      4.0070639
 Leave Link  202 at Wed Aug 26 10:11:53 2020, MaxMem=  2097152000 cpu:         0.0
 (Enter /opt/cluster/programs/g09/g09_d.01/g09/l301.exe)
 Standard basis: def2QZVP (5D, 7F)
 Ernie: Thresh=  0.10000D-02 Tol=  0.10000D-05 Strict=F.
 There are   498 symmetry adapted cartesian basis functions of A   symmetry.
 There are   408 symmetry adapted basis functions of A   symmetry.
   408 basis functions,   596 primitive gaussians,   498 cartesian basis functions
    15 alpha electrons       15 beta electrons
       nuclear repulsion energy       103.7152172889 Hartrees.
 IExCor=  419 DFT=T Ex+Corr=B2PLYPD3 ExCW=0 ScaHFX=  0.530000
 ScaDFX=  0.470000  0.470000  0.730000  0.730000 ScalE2=  0.270000  0.270000
 IRadAn=      0 IRanWt=     -1 IRanGd=            0 ICorTp=0 IEmpDi=141
 NAtoms=   10 NActive=   10 NUniq=   10 SFac= 1.00D+00 NAtFMM=   60 NAOKFM=F Big=F
 Integral buffers will be    131072 words long.
 Regular integral format.
 Two-electron integral symmetry is turned on.
 R6Disp:  Grimme-D3(BJ) Dispersion energy=       -0.0048194714 Hartrees.
 Nuclear repulsion after empirical dispersion term =      103.7103978175 Hartrees.
 Leave Link  301 at Wed Aug 26 10:11:53 2020, MaxMem=  2097152000 cpu:         0.5
 (Enter /opt/cluster/programs/g09/g09_d.01/g09/l302.exe)
 NPDir=0 NMtPBC=     1 NCelOv=     1 NCel=       1 NClECP=     1 NCelD=      1
         NCelK=      1 NCelE2=     1 NClLst=     1 CellRange=     0.0.
 One-electron integrals computed using PRISM.
   1 Symmetry operations used in ECPInt.
 ECPInt:  NShTT=    8256 NPrTT=   19107 LenC2=    8054 LenP2D=   16105.
 LDataN:  DoStor=T MaxTD1= 8 Len=  415
 NBasis=   408 RedAO= T EigKep=  4.64D-05  NBF=   408
 NBsUse=   408 1.00D-06 EigRej= -1.00D+00 NBFU=   408
 Precomputing XC quadrature grid using
 IXCGrd= 4 IRadAn=           0 IRanWt=          -1 IRanGd=           0 AccXCQ= 0.00D+00.
 Generated NRdTot=       0 NPtTot=           0 NUsed=           0 NTot=          32
 NSgBfM=   498   498   498   498   498 MxSgAt=    10 MxSgA2=    10.
 Leave Link  302 at Wed Aug 26 10:11:53 2020, MaxMem=  2097152000 cpu:         3.2
 (Enter /opt/cluster/programs/g09/g09_d.01/g09/l303.exe)
 DipDrv:  MaxL=1.
 Leave Link  303 at Wed Aug 26 10:11:53 2020, MaxMem=  2097152000 cpu:         0.3
 (Enter /opt/cluster/programs/g09/g09_d.01/g09/l401.exe)
 ExpMin= 7.60D-02 ExpMax= 6.70D+04 ExpMxC= 6.47D+02 IAcc=2 IRadAn=         4 AccDes= 0.00D+00
 Harris functional with IExCor=  419 and IRadAn=       4 diagonalized for initial guess.
 HarFok:  IExCor=  419 AccDes= 0.00D+00 IRadAn=         4 IDoV= 1 UseB2=F ITyADJ=14
 ICtDFT=  3500011 ScaDFX=  1.000000  1.000000  1.000000  1.000000
 FoFCou: FMM=F IPFlag=           0 FMFlag=      100000 FMFlg1=           0
         NFxFlg=           0 DoJE=T BraDBF=F KetDBF=T FulRan=T
         wScrn=  0.000000 ICntrl=     500 IOpCl=  0 I1Cent=   200000004 NGrid=           0
         NMat0=    1 NMatS0=      1 NMatT0=    0 NMatD0=    1 NMtDS0=    0 NMtDT0=    0
 Petite list used in FoFCou.
 Harris En= -156.129665678885    
 JPrj=0 DoOrth=F DoCkMO=F.
 Leave Link  401 at Wed Aug 26 10:11:54 2020, MaxMem=  2097152000 cpu:         8.3
 (Enter /opt/cluster/programs/g09/g09_d.01/g09/l502.exe)
 Closed shell SCF:
 Using DIIS extrapolation, IDIIS=  1040.
 Integral symmetry usage will be decided dynamically.
 IVT=      770090 IEndB=      770090 NGot=  2097152000 MDV=  2096647053
 LenX=  2096647053 LenY=  2096398551
 Requested convergence on RMS density matrix=1.00D-08 within 128 cycles.
 Requested convergence on MAX density matrix=1.00D-06.
 Requested convergence on             energy=1.00D-06.
 No special actions if energy rises.
 Fock matrices will be formed incrementally for  20 cycles.
 Integral accuracy reduced to 1.0D-05 until final iterations.

 Cycle   1  Pass 0  IDiag  1:
 FoFJK:  IHMeth= 1 ICntrl=       0 DoSepK=F KAlg= 0 I1Cent=   0 FoldK=F
 IRaf= 940000000 NMat=   1 IRICut=       1 DoRegI=T DoRafI=F ISym2E= 0.
 FoFCou: FMM=F IPFlag=           0 FMFlag=      100000 FMFlg1=           0
         NFxFlg=           0 DoJE=F BraDBF=F KetDBF=F FulRan=T
         wScrn=  0.000000 ICntrl=       0 IOpCl=  0 I1Cent=           0 NGrid=           0
         NMat0=    1 NMatS0=      1 NMatT0=    0 NMatD0=    1 NMtDS0=    0 NMtDT0=    0
 Symmetry not used in FoFCou.
 E= -155.510578852303    
 DIIS: error= 3.43D-02 at cycle   1 NSaved=   1.
 NSaved= 1 IEnMin= 1 EnMin= -155.510578852303     IErMin= 1 ErrMin= 3.43D-02
 ErrMax= 3.43D-02  0.00D+00 EMaxC= 1.00D-01 BMatC= 2.51D-01 BMatP= 2.51D-01
 IDIUse=3 WtCom= 6.57D-01 WtEn= 3.43D-01
 Coeff-Com:  0.100D+01
 Coeff-En:   0.100D+01
 Coeff:      0.100D+01
 Gap=     0.297 Goal=   None    Shift=    0.000
 GapD=    0.297 DampG=1.000 DampE=0.500 DampFc=0.5000 IDamp=-1.
 Damping current iteration by 5.00D-01
 RMSDP=9.91D-04 MaxDP=5.24D-02              OVMax= 1.95D-01

 Cycle   2  Pass 0  IDiag  1:
 RMSU=  4.60D-04    CP:  9.51D-01
 E= -155.608900503588     Delta-E=       -0.098321651286 Rises=F Damp=T
 DIIS: error= 9.56D-03 at cycle   2 NSaved=   2.
 NSaved= 2 IEnMin= 2 EnMin= -155.608900503588     IErMin= 2 ErrMin= 9.56D-03
 ErrMax= 9.56D-03  0.00D+00 EMaxC= 1.00D-01 BMatC= 2.96D-02 BMatP= 2.51D-01
 IDIUse=3 WtCom= 9.04D-01 WtEn= 9.56D-02
 Coeff-Com: -0.294D+00 0.129D+01
 Coeff-En:   0.000D+00 0.100D+01
 Coeff:     -0.266D+00 0.127D+01
 Gap=     0.361 Goal=   None    Shift=    0.000
 RMSDP=3.05D-04 MaxDP=9.38D-03 DE=-9.83D-02 OVMax= 9.71D-02

 Cycle   3  Pass 0  IDiag  1:
 RMSU=  2.98D-04    CP:  9.34D-01  9.66D-01
 E= -155.694092126615     Delta-E=       -0.085191623027 Rises=F Damp=F
 DIIS: error= 4.54D-03 at cycle   3 NSaved=   3.
 NSaved= 3 IEnMin= 3 EnMin= -155.694092126615     IErMin= 3 ErrMin= 4.54D-03
 ErrMax= 4.54D-03  0.00D+00 EMaxC= 1.00D-01 BMatC= 2.17D-03 BMatP= 2.96D-02
 IDIUse=3 WtCom= 9.55D-01 WtEn= 4.54D-02
 Coeff-Com: -0.119D+00 0.243D+00 0.876D+00
 Coeff-En:   0.000D+00 0.000D+00 0.100D+01
 Coeff:     -0.113D+00 0.232D+00 0.882D+00
 Gap=     0.292 Goal=   None    Shift=    0.000
 RMSDP=7.68D-05 MaxDP=4.18D-03 DE=-8.52D-02 OVMax= 2.41D-02

 Cycle   4  Pass 0  IDiag  1:
 RMSU=  5.78D-05    CP:  9.30D-01  1.07D+00  9.48D-01
 E= -155.695747154560     Delta-E=       -0.001655027944 Rises=F Damp=F
 DIIS: error= 2.98D-03 at cycle   4 NSaved=   4.
 NSaved= 4 IEnMin= 4 EnMin= -155.695747154560     IErMin= 4 ErrMin= 2.98D-03
 ErrMax= 2.98D-03  0.00D+00 EMaxC= 1.00D-01 BMatC= 7.19D-04 BMatP= 2.17D-03
 IDIUse=3 WtCom= 9.70D-01 WtEn= 2.98D-02
 Coeff-Com: -0.540D-01 0.892D-01 0.474D+00 0.491D+00
 Coeff-En:   0.000D+00 0.000D+00 0.151D+00 0.849D+00
 Coeff:     -0.524D-01 0.865D-01 0.464D+00 0.502D+00
 Gap=     0.292 Goal=   None    Shift=    0.000
 RMSDP=3.25D-05 MaxDP=1.80D-03 DE=-1.66D-03 OVMax= 1.03D-02

 Cycle   5  Pass 0  IDiag  1:
 RMSU=  1.74D-05    CP:  9.30D-01  1.05D+00  9.95D-01  6.06D-01
 E= -155.696446094879     Delta-E=       -0.000698940319 Rises=F Damp=F
 DIIS: error= 2.68D-04 at cycle   5 NSaved=   5.
 NSaved= 5 IEnMin= 5 EnMin= -155.696446094879     IErMin= 5 ErrMin= 2.68D-04
 ErrMax= 2.68D-04  0.00D+00 EMaxC= 1.00D-01 BMatC= 4.82D-06 BMatP= 7.19D-04
 IDIUse=3 WtCom= 9.97D-01 WtEn= 2.68D-03
 Coeff-Com: -0.310D-02 0.276D-02 0.376D-01 0.951D-01 0.868D+00
 Coeff-En:   0.000D+00 0.000D+00 0.000D+00 0.000D+00 0.100D+01
 Coeff:     -0.309D-02 0.275D-02 0.375D-01 0.949D-01 0.868D+00
 Gap=     0.293 Goal=   None    Shift=    0.000
 RMSDP=5.29D-06 MaxDP=2.06D-04 DE=-6.99D-04 OVMax= 1.18D-03

 Initial convergence to 1.0D-05 achieved.  Increase integral accuracy.
 Cycle   6  Pass 1  IDiag  1:
 E= -155.696471430704     Delta-E=       -0.000025335825 Rises=F Damp=F
 DIIS: error= 4.43D-05 at cycle   1 NSaved=   1.
 NSaved= 1 IEnMin= 1 EnMin= -155.696471430704     IErMin= 1 ErrMin= 4.43D-05
 ErrMax= 4.43D-05  0.00D+00 EMaxC= 1.00D-01 BMatC= 5.45D-07 BMatP= 5.45D-07
 IDIUse=1 WtCom= 1.00D+00 WtEn= 0.00D+00
 Coeff-Com:  0.100D+01
 Coeff:      0.100D+01
 Gap=     0.293 Goal=   None    Shift=    0.000
 RMSDP=5.29D-06 MaxDP=2.06D-04 DE=-2.53D-05 OVMax= 3.10D-04

 Cycle   7  Pass 1  IDiag  1:
 RMSU=  1.83D-05    CP:  1.00D+00
 E= -155.696471788809     Delta-E=       -0.000000358105 Rises=F Damp=F
 DIIS: error= 2.83D-05 at cycle   2 NSaved=   2.
 NSaved= 2 IEnMin= 2 EnMin= -155.696471788809     IErMin= 2 ErrMin= 2.83D-05
 ErrMax= 2.83D-05  0.00D+00 EMaxC= 1.00D-01 BMatC= 8.53D-08 BMatP= 5.45D-07
 IDIUse=1 WtCom= 1.00D+00 WtEn= 0.00D+00
 Coeff-Com:  0.201D+00 0.799D+00
 Coeff:      0.201D+00 0.799D+00
 Gap=     0.293 Goal=   None    Shift=    0.000
 RMSDP=1.05D-06 MaxDP=4.08D-05 DE=-3.58D-07 OVMax= 2.39D-04

 Cycle   8  Pass 1  IDiag  1:
 RMSU=  7.98D-07    CP:  1.00D+00  1.04D+00
 E= -155.696471846815     Delta-E=       -0.000000058006 Rises=F Damp=F
 DIIS: error= 2.00D-05 at cycle   3 NSaved=   3.
 NSaved= 3 IEnMin= 3 EnMin= -155.696471846815     IErMin= 3 ErrMin= 2.00D-05
 ErrMax= 2.00D-05  0.00D+00 EMaxC= 1.00D-01 BMatC= 4.20D-08 BMatP= 8.53D-08
 IDIUse=1 WtCom= 1.00D+00 WtEn= 0.00D+00
 Coeff-Com: -0.165D-01 0.405D+00 0.612D+00
 Coeff:     -0.165D-01 0.405D+00 0.612D+00
 Gap=     0.293 Goal=   None    Shift=    0.000
 RMSDP=3.79D-07 MaxDP=1.68D-05 DE=-5.80D-08 OVMax= 9.61D-05

 Cycle   9  Pass 1  IDiag  1:
 RMSU=  3.02D-07    CP:  1.00D+00  1.05D+00  9.86D-01
 E= -155.696471887537     Delta-E=       -0.000000040722 Rises=F Damp=F
 DIIS: error= 3.26D-06 at cycle   4 NSaved=   4.
 NSaved= 4 IEnMin= 4 EnMin= -155.696471887537     IErMin= 4 ErrMin= 3.26D-06
 ErrMax= 3.26D-06  0.00D+00 EMaxC= 1.00D-01 BMatC= 7.05D-10 BMatP= 4.20D-08
 IDIUse=1 WtCom= 1.00D+00 WtEn= 0.00D+00
 Coeff-Com: -0.132D-01 0.813D-01 0.146D+00 0.786D+00
 Coeff:     -0.132D-01 0.813D-01 0.146D+00 0.786D+00
 Gap=     0.293 Goal=   None    Shift=    0.000
 RMSDP=8.61D-08 MaxDP=3.68D-06 DE=-4.07D-08 OVMax= 2.16D-05

 Cycle  10  Pass 1  IDiag  1:
 RMSU=  5.66D-08    CP:  1.00D+00  1.05D+00  1.04D+00  1.10D+00
 E= -155.696471888611     Delta-E=       -0.000000001073 Rises=F Damp=F
 DIIS: error= 9.22D-07 at cycle   5 NSaved=   5.
 NSaved= 5 IEnMin= 5 EnMin= -155.696471888611     IErMin= 5 ErrMin= 9.22D-07
 ErrMax= 9.22D-07  0.00D+00 EMaxC= 1.00D-01 BMatC= 1.87D-10 BMatP= 7.05D-10
 IDIUse=1 WtCom= 1.00D+00 WtEn= 0.00D+00
 Coeff-Com: -0.103D-02-0.418D-01-0.767D-01 0.254D+00 0.865D+00
 Coeff:     -0.103D-02-0.418D-01-0.767D-01 0.254D+00 0.865D+00
 Gap=     0.293 Goal=   None    Shift=    0.000
 RMSDP=4.03D-08 MaxDP=1.98D-06 DE=-1.07D-09 OVMax= 8.68D-06

 Cycle  11  Pass 1  IDiag  1:
 RMSU=  2.42D-08    CP:  1.00D+00  1.05D+00  1.06D+00  1.20D+00  1.05D+00
 E= -155.696471888887     Delta-E=       -0.000000000277 Rises=F Damp=F
 DIIS: error= 2.70D-07 at cycle   6 NSaved=   6.
 NSaved= 6 IEnMin= 6 EnMin= -155.696471888887     IErMin= 6 ErrMin= 2.70D-07
 ErrMax= 2.70D-07  0.00D+00 EMaxC= 1.00D-01 BMatC= 1.14D-11 BMatP= 1.87D-10
 IDIUse=1 WtCom= 1.00D+00 WtEn= 0.00D+00
 Coeff-Com:  0.723D-03-0.202D-01-0.414D-01 0.310D-01 0.288D+00 0.742D+00
 Coeff:      0.723D-03-0.202D-01-0.414D-01 0.310D-01 0.288D+00 0.742D+00
 Gap=     0.293 Goal=   None    Shift=    0.000
 RMSDP=8.60D-09 MaxDP=3.75D-07 DE=-2.77D-10 OVMax= 2.20D-06

 SCF Done:  E(RB2PLYPD3) =  -155.696471889     A.U. after   11 cycles
            NFock= 11  Conv=0.86D-08     -V/T= 2.0041
 KE= 1.550655276413D+02 PE=-5.682792210587D+02 EE= 1.538068237109D+02
 Leave Link  502 at Wed Aug 26 10:14:40 2020, MaxMem=  2097152000 cpu:      1321.6
 (Enter /opt/cluster/programs/g09/g09_d.01/g09/l801.exe)
 DoSCS=T DFT=T ScalE2(SS,OS)=  0.270000  0.270000
 ExpMin= 7.60D-02 ExpMax= 6.70D+04 ExpMxC= 6.47D+02 IAcc=3 IRadAn=         5 AccDes= 0.00D+00
 HarFok:  IExCor=  205 AccDes= 0.00D+00 IRadAn=         5 IDoV=-2 UseB2=F ITyADJ=14
 ICtDFT= 12500011 ScaDFX=  1.000000  1.000000  1.000000  1.000000
 Largest valence mixing into a core orbital is  1.13D-04
 Largest core mixing into a valence orbital is  2.01D-05
 Range of M.O.s used for correlation:     5   408
 NBasis=   408 NAE=    15 NBE=    15 NFC=     4 NFV=     0
 NROrb=    404 NOA=    11 NOB=    11 NVA=   393 NVB=   393

 **** Warning!!: The largest alpha MO coefficient is  0.27124858D+02

 Leave Link  801 at Wed Aug 26 10:14:40 2020, MaxMem=  2097152000 cpu:         0.9
 (Enter /opt/cluster/programs/g09/g09_d.01/g09/l906.exe)
 DoSCS=T DFT=T ScalE2(SS,OS)=  0.270000  0.270000
 FulOut=F Deriv=F AODrv=F NAtomX=    10
   MMem=         881  MDisk=          11 MDiskD=          11
  W3Min=     2152854 MinDsk=     3857222 NBas6D=         498
 NBas2D=      125763    NTT=      124251    LW2=     4508827
    MDV=  2096383802 MDiskM=        9345 NBas2p=      117196
 Fully direct method using O(OVN) memory.
 IMap=   1   2   3   4   5   6   7   8   9  10  11
 JobTyp=1 Pass  1:  I=   1 to  11 NPSUse=  8 ParTrn=T ParDer=T DoDerP=F.
 Spin components of T(2) and E(2):
     alpha-alpha T2 =       0.4223087407D-01 E2=     -0.2544637813D-01
     alpha-beta  T2 =       0.2738404846D+00 E2=     -0.1752144910D+00
     beta-beta   T2 =       0.4223087407D-01 E2=     -0.2544637813D-01
 The integrals were generated   1 times.
 E2(B2PLYPD3) =    -0.2261072473D+00 E(B2PLYPD3) =    -0.15592257913617D+03
 Leave Link  906 at Wed Aug 26 10:16:18 2020, MaxMem=  2097152000 cpu:       782.5
 (Enter /opt/cluster/programs/g09/g09_d.01/g09/l601.exe)
 Copying SCF densities to generalized density rwf, IOpCl= 0 IROHF=0.

 **********************************************************************

            Population analysis using the SCF density.

 **********************************************************************

 Orbital symmetries:
       Occupied  (A) (A) (A) (A) (A) (A) (A) (A) (A) (A) (A) (A)
                 (A) (A) (A)
       Virtual   (A) (A) (A) (A) (A) (A) (A) (A) (A) (A) (A) (A)
                 (A) (A) (A) (A) (A) (A) (A) (A) (A) (A) (A) (A)
                 (A) (A) (A) (A) (A) (A) (A) (A) (A) (A) (A) (A)
                 (A) (A) (A) (A) (A) (A) (A) (A) (A) (A) (A) (A)
                 (A) (A) (A) (A) (A) (A) (A) (A) (A) (A) (A) (A)
                 (A) (A) (A) (A) (A) (A) (A) (A) (A) (A) (A) (A)
                 (A) (A) (A) (A) (A) (A) (A) (A) (A) (A) (A) (A)
                 (A) (A) (A) (A) (A) (A) (A) (A) (A) (A) (A) (A)
                 (A) (A) (A) (A) (A) (A) (A) (A) (A) (A) (A) (A)
                 (A) (A) (A) (A) (A) (A) (A) (A) (A) (A) (A) (A)
                 (A) (A) (A) (A) (A) (A) (A) (A) (A) (A) (A) (A)
                 (A) (A) (A) (A) (A) (A) (A) (A) (A) (A) (A) (A)
                 (A) (A) (A) (A) (A) (A) (A) (A) (A) (A) (A) (A)
                 (A) (A) (A) (A) (A) (A) (A) (A) (A) (A) (A) (A)
                 (A) (A) (A) (A) (A) (A) (A) (A) (A) (A) (A) (A)
                 (A) (A) (A) (A) (A) (A) (A) (A) (A) (A) (A) (A)
                 (A) (A) (A) (A) (A) (A) (A) (A) (A) (A) (A) (A)
                 (A) (A) (A) (A) (A) (A) (A) (A) (A) (A) (A) (A)
                 (A) (A) (A) (A) (A) (A) (A) (A) (A) (A) (A) (A)
                 (A) (A) (A) (A) (A) (A) (A) (A) (A) (A) (A) (A)
                 (A) (A) (A) (A) (A) (A) (A) (A) (A) (A) (A) (A)
                 (A) (A) (A) (A) (A) (A) (A) (A) (A) (A) (A) (A)
                 (A) (A) (A) (A) (A) (A) (A) (A) (A) (A) (A) (A)
                 (A) (A) (A) (A) (A) (A) (A) (A) (A) (A) (A) (A)
                 (A) (A) (A) (A) (A) (A) (A) (A) (A) (A) (A) (A)
                 (A) (A) (A) (A) (A) (A) (A) (A) (A) (A) (A) (A)
                 (A) (A) (A) (A) (A) (A) (A) (A) (A) (A) (A) (A)
                 (A) (A) (A) (A) (A) (A) (A) (A) (A) (A) (A) (A)
                 (A) (A) (A) (A) (A) (A) (A) (A) (A) (A) (A) (A)
                 (A) (A) (A) (A) (A) (A) (A) (A) (A) (A) (A) (A)
                 (A) (A) (A) (A) (A) (A) (A) (A) (A) (A) (A) (A)
                 (A) (A) (A) (A) (A) (A) (A) (A) (A) (A) (A) (A)
                 (A) (A) (A) (A) (A) (A) (A) (A) (A)
 The electronic state is 1-A.
 Alpha  occ. eigenvalues --  -10.62874 -10.62609 -10.62364 -10.61222  -0.92996
 Alpha  occ. eigenvalues --   -0.84807  -0.70387  -0.63888  -0.54982  -0.53360
 Alpha  occ. eigenvalues --   -0.47329  -0.44977  -0.40645  -0.38134  -0.27799
 Alpha virt. eigenvalues --    0.01466   0.06993   0.07376   0.08046   0.09615
 Alpha virt. eigenvalues --    0.11562   0.12539   0.14611   0.15644   0.16398
 Alpha virt. eigenvalues --    0.19003   0.19948   0.22129   0.22533   0.23380
 Alpha virt. eigenvalues --    0.26604   0.27057   0.29303   0.31168   0.33438
 Alpha virt. eigenvalues --    0.35673   0.36534   0.36804   0.37869   0.39768
 Alpha virt. eigenvalues --    0.41944   0.43078   0.45292   0.46590   0.49214
 Alpha virt. eigenvalues --    0.49454   0.50478   0.54416   0.55732   0.56893
 Alpha virt. eigenvalues --    0.58404   0.59843   0.64356   0.66663   0.67329
 Alpha virt. eigenvalues --    0.69103   0.72207   0.76632   0.77299   0.78898
 Alpha virt. eigenvalues --    0.80474   0.81114   0.81392   0.82578   0.83729
 Alpha virt. eigenvalues --    0.84567   0.85972   0.86207   0.87308   0.90297
 Alpha virt. eigenvalues --    0.92856   0.93249   0.94429   0.95736   0.95892
 Alpha virt. eigenvalues --    0.98627   0.98873   0.99918   1.03282   1.03963
 Alpha virt. eigenvalues --    1.06102   1.07191   1.09564   1.12200   1.13427
 Alpha virt. eigenvalues --    1.13746   1.18920   1.19650   1.21039   1.22577
 Alpha virt. eigenvalues --    1.23642   1.25814   1.32791   1.34081   1.35870
 Alpha virt. eigenvalues --    1.36805   1.40613   1.46767   1.56007   1.62211
 Alpha virt. eigenvalues --    1.63131   1.67084   1.68840   1.71887   1.73928
 Alpha virt. eigenvalues --    1.77729   1.81375   1.83774   1.85340   1.87857
 Alpha virt. eigenvalues --    1.90077   1.91652   1.92513   1.93694   1.94079
 Alpha virt. eigenvalues --    1.95265   1.99926   2.00938   2.01406   2.02453
 Alpha virt. eigenvalues --    2.02858   2.06235   2.06906   2.08254   2.08604
 Alpha virt. eigenvalues --    2.10209   2.12474   2.14761   2.17931   2.18702
 Alpha virt. eigenvalues --    2.19889   2.22915   2.23693   2.25448   2.27551
 Alpha virt. eigenvalues --    2.28306   2.32484   2.35272   2.36959   2.42794
 Alpha virt. eigenvalues --    2.43230   2.45670   2.46359   2.48593   2.49018
 Alpha virt. eigenvalues --    2.52332   2.53681   2.53812   2.55984   2.57974
 Alpha virt. eigenvalues --    2.60025   2.61642   2.62810   2.65273   2.65772
 Alpha virt. eigenvalues --    2.68235   2.69239   2.70253   2.71826   2.72259
 Alpha virt. eigenvalues --    2.73660   2.75749   2.76650   2.78405   2.79536
 Alpha virt. eigenvalues --    2.80370   2.87681   2.90328   2.91871   2.93809
 Alpha virt. eigenvalues --    2.94162   3.01501   3.04454   3.06694   3.09561
 Alpha virt. eigenvalues --    3.10670   3.12627   3.24522   3.31970   3.33377
 Alpha virt. eigenvalues --    3.34861   3.38655   3.40111   3.43906   3.46426
 Alpha virt. eigenvalues --    3.48632   3.50245   3.53427   3.54858   3.56742
 Alpha virt. eigenvalues --    3.60502   3.60735   3.63605   3.68891   3.76784
 Alpha virt. eigenvalues --    3.78367   3.80142   3.84535   3.85366   3.90532
 Alpha virt. eigenvalues --    3.92665   3.95075   3.99997   4.07660   4.12341
 Alpha virt. eigenvalues --    4.15618   4.16363   4.20915   4.23806   4.46971
 Alpha virt. eigenvalues --    4.54656   4.56861   4.59680   4.82954   4.98830
 Alpha virt. eigenvalues --    5.00279   5.03712   5.06570   5.07787   5.10120
 Alpha virt. eigenvalues --    5.13399   5.18156   5.21523   5.26515   5.31362
 Alpha virt. eigenvalues --    5.34942   5.36539   5.41199   5.43900   5.48866
 Alpha virt. eigenvalues --    5.52450   5.55385   5.57139   5.60973   5.66020
 Alpha virt. eigenvalues --    5.67131   5.70645   5.71622   5.75592   5.78209
 Alpha virt. eigenvalues --    5.79174   5.81422   5.82837   5.84542   5.86594
 Alpha virt. eigenvalues --    5.89159   5.90866   5.98839   6.01865   6.03810
 Alpha virt. eigenvalues --    6.06138   6.07328   6.08286   6.09889   6.12678
 Alpha virt. eigenvalues --    6.14384   6.14474   6.17984   6.18399   6.19844
 Alpha virt. eigenvalues --    6.20642   6.23634   6.25611   6.28392   6.29859
 Alpha virt. eigenvalues --    6.32816   6.34442   6.35580   6.37241   6.38024
 Alpha virt. eigenvalues --    6.38718   6.41494   6.42422   6.46487   6.49032
 Alpha virt. eigenvalues --    6.50756   6.52378   6.55455   6.57864   6.61412
 Alpha virt. eigenvalues --    6.62643   6.65255   6.69930   6.70289   6.76354
 Alpha virt. eigenvalues --    6.78935   6.84733   6.85582   6.88065   6.91179
 Alpha virt. eigenvalues --    6.95133   6.96433   6.99228   7.01555   7.08665
 Alpha virt. eigenvalues --    7.12385   7.15126   7.17033   7.17992   7.21679
 Alpha virt. eigenvalues --    7.24043   7.27886   7.34376   7.36734   7.45057
 Alpha virt. eigenvalues --    7.45919   7.51128   7.54612   7.55911   7.57448
 Alpha virt. eigenvalues --    7.60771   7.62394   7.63643   7.65803   7.68072
 Alpha virt. eigenvalues --    7.70218   7.72322   7.73794   7.74577   7.76975
 Alpha virt. eigenvalues --    7.78229   7.80987   7.88363   7.89324   7.92528
 Alpha virt. eigenvalues --    7.93926   7.96889   8.04954   8.10454   8.12478
 Alpha virt. eigenvalues --    8.15073   8.16798   8.18400   8.21292   8.25264
 Alpha virt. eigenvalues --    8.29185   8.30593   8.32325   8.33384   8.36473
 Alpha virt. eigenvalues --    8.37205   8.37750   8.38548   8.39852   8.40513
 Alpha virt. eigenvalues --    8.42783   8.45437   8.52061   8.54601   8.55159
 Alpha virt. eigenvalues --    8.56833   8.60299   8.61677   8.63104   8.68940
 Alpha virt. eigenvalues --    8.73711   8.75204   8.78327   8.81728   8.82471
 Alpha virt. eigenvalues --    8.85498   8.89930   8.93904   9.01796   9.13335
 Alpha virt. eigenvalues --    9.14554   9.19134   9.26753   9.32454   9.40148
 Alpha virt. eigenvalues --    9.52287   9.64468   9.69685   9.83039   9.84850
 Alpha virt. eigenvalues --    9.86638   9.88519   9.94590   9.96540  10.03779
 Alpha virt. eigenvalues --   10.07672  10.13527  10.19094  10.23684  10.28371
 Alpha virt. eigenvalues --   10.32677  10.34038  10.46578  10.64603  10.85777
 Alpha virt. eigenvalues --   10.99917  11.17807  11.34297  11.60859  11.87275
 Alpha virt. eigenvalues --   12.05474  12.83636  12.96832  13.02349  13.23812
 Alpha virt. eigenvalues --   28.60978  28.75693  29.44685  29.68663 148.20245
 Alpha virt. eigenvalues --  148.33533 149.03194 149.29767
          Condensed to atoms (all electrons):
               1          2          3          4          5          6
     1  C    4.835412   0.619955  -0.079937  -0.002081   0.418965   0.419061
     2  C    0.619955   4.835896   0.403832  -0.078966  -0.039008  -0.045977
     3  C   -0.079937   0.403832   4.827473   0.616326   0.007135  -0.007505
     4  C   -0.002081  -0.078966   0.616326   4.838175  -0.000597   0.000424
     5  H    0.418965  -0.039008   0.007135  -0.000597   0.589142  -0.049152
     6  H    0.419061  -0.045977  -0.007505   0.000424  -0.049152   0.611191
     7  H   -0.046649   0.407722  -0.066064  -0.001250  -0.008264   0.007672
     8  H   -0.001278  -0.060422   0.408652  -0.051123  -0.000120   0.004486
     9  H    0.000255  -0.008230  -0.045485   0.424439  -0.000028   0.000043
    10  H   -0.000586   0.007227  -0.045904   0.428164   0.000022  -0.000035
               7          8          9         10
     1  C   -0.046649  -0.001278   0.000255  -0.000586
     2  C    0.407722  -0.060422  -0.008230   0.007227
     3  C   -0.066064   0.408652  -0.045485  -0.045904
     4  C   -0.001250  -0.051123   0.424439   0.428164
     5  H   -0.008264  -0.000120  -0.000028   0.000022
     6  H    0.007672   0.004486   0.000043  -0.000035
     7  H    0.634783   0.007598   0.005064  -0.000178
     8  H    0.007598   0.644411   0.008197  -0.010096
     9  H    0.005064   0.008197   0.604551  -0.047977
    10  H   -0.000178  -0.010096  -0.047977   0.582312
 Mulliken charges:
               1
     1  C   -0.163119
     2  C   -0.042029
     3  C   -0.018523
     4  C   -0.173511
     5  H    0.081905
     6  H    0.059793
     7  H    0.059566
     8  H    0.049697
     9  H    0.059170
    10  H    0.087051
 Sum of Mulliken charges =   0.00000
 Mulliken charges with hydrogens summed into heavy atoms:
               1
     1  C   -0.021420
     2  C    0.017537
     3  C    0.031173
     4  C   -0.027290
 Electronic spatial extent (au):  <R**2>=            337.4196
 Charge=              0.0000 electrons
 Dipole moment (field-independent basis, Debye):
    X=             -0.0581    Y=              0.0057    Z=             -0.0422  Tot=              0.0721
 Quadrupole moment (field-independent basis, Debye-Ang):
   XX=            -23.0529   YY=            -23.4147   ZZ=            -29.2773
   XY=              0.3148   XZ=             -0.1557   YZ=             -0.1092
 Traceless Quadrupole moment (field-independent basis, Debye-Ang):
   XX=              2.1954   YY=              1.8336   ZZ=             -4.0290
   XY=              0.3148   XZ=             -0.1557   YZ=             -0.1092
 Octapole moment (field-independent basis, Debye-Ang**2):
  XXX=              0.1182  YYY=              0.0918  ZZZ=             -0.1090  XYY=             -0.3781
  XXY=              0.0978  XXZ=             -0.1834  XZZ=             -0.3736  YZZ=             -0.0113
  YYZ=             -0.0071  XYZ=              0.5574
 Hexadecapole moment (field-independent basis, Debye-Ang**3):
 XXXX=           -340.8096 YYYY=            -65.7271 ZZZZ=            -37.1199 XXXY=             -4.7251
 XXXZ=             -1.5233 YYYX=              2.3141 YYYZ=             -0.4674 ZZZX=             -0.1472
 ZZZY=             -0.0793 XXYY=            -69.7295 XXZZ=            -77.8031 YYZZ=            -19.2612
 XXYZ=             -0.0260 YYXZ=             -0.1774 ZZXY=              0.5128
 N-N= 1.037103978175D+02 E-N=-5.682792096576D+02  KE= 1.550655276413D+02
 Leave Link  601 at Wed Aug 26 10:16:19 2020, MaxMem=  2097152000 cpu:         0.6
 (Enter /opt/cluster/programs/g09/g09_d.01/g09/l9999.exe)
 1\1\GINC-NODE33\SP\RB2PLYPD3-FC\def2QZVP\C4H6\BOITTIER\26-Aug-2020\0\\
 #p B2PLYPD3/Def2QZVP\\butadiene\\0,1\C,0,-3.854865,0.216659,-0.033035\
 C,0,-2.714077,-0.494512,0.095739\C,0,-1.374736,0.062922,0.040559\C,0,-
 0.264861,-0.649902,-0.000284\H,0,-4.882269,-0.191972,0.071861\H,0,-3.8
 39761,1.314054,-0.070791\H,0,-2.726885,-1.571914,0.090554\H,0,-1.29735
 5,1.169725,0.088044\H,0,-0.273351,-1.736032,-0.065866\H,0,0.704045,-0.
 221738,0.01703\\Version=ES64L-G09RevD.01\State=1-A\HF=-155.6964719\MP2
 =-155.9225791\RMSD=8.602e-09\PG=C01 [X(C4H6)]\\@


 In the beginning the Universe was created.
 This has made a lot of people very angry
 and been widely regarded as a bad move.
                               -D.Adams
 Job cpu time:       0 days  0 hours 35 minutes 19.4 seconds.
 File lengths (MBytes):  RWF=     92 Int=      0 D2E=      0 Chk=      9 Scr=      1
 Normal termination of Gaussian 09 at Wed Aug 26 10:16:19 2020.
