 Entering Gaussian System, Link 0=/opt/cluster/programs/g09/g09_d.01/g09//g09
 Input=/home/boittier/MDCM/nms_sampling/butadiene_geom.xyz.dir/energies/butadiene_2265_energy.com
 Output=/scratch/boittier/butadiene_2265_energy/butadiene_2265_energy.out
 Initial command:
 /opt/cluster/programs/g09/g09_d.01/g09/l1.exe "/scratch/boittier/butadiene_2265_energy/Gau-102931.inp" -scrdir="/scratch/boittier/butadiene_2265_energy/"
 Entering Link 1 = /opt/cluster/programs/g09/g09_d.01/g09/l1.exe PID=    102932.
  
 Copyright (c) 1988,1990,1992,1993,1995,1998,2003,2009,2013,
            Gaussian, Inc.  All Rights Reserved.
  
 This is part of the Gaussian(R) 09 program.  It is based on
 the Gaussian(R) 03 system (copyright 2003, Gaussian, Inc.),
 the Gaussian(R) 98 system (copyright 1998, Gaussian, Inc.),
 the Gaussian(R) 94 system (copyright 1995, Gaussian, Inc.),
 the Gaussian 92(TM) system (copyright 1992, Gaussian, Inc.),
 the Gaussian 90(TM) system (copyright 1990, Gaussian, Inc.),
 the Gaussian 88(TM) system (copyright 1988, Gaussian, Inc.),
 the Gaussian 86(TM) system (copyright 1986, Carnegie Mellon
 University), and the Gaussian 82(TM) system (copyright 1983,
 Carnegie Mellon University). Gaussian is a federally registered
 trademark of Gaussian, Inc.
  
 This software contains proprietary and confidential information,
 including trade secrets, belonging to Gaussian, Inc.
  
 This software is provided under written license and may be
 used, copied, transmitted, or stored only in accord with that
 written license.
  
 The following legend is applicable only to US Government
 contracts under FAR:
  
                    RESTRICTED RIGHTS LEGEND
  
 Use, reproduction and disclosure by the US Government is
 subject to restrictions as set forth in subparagraphs (a)
 and (c) of the Commercial Computer Software - Restricted
 Rights clause in FAR 52.227-19.
  
 Gaussian, Inc.
 340 Quinnipiac St., Bldg. 40, Wallingford CT 06492
  
  
 ---------------------------------------------------------------
 Warning -- This program may not be used in any manner that
 competes with the business of Gaussian, Inc. or will provide
 assistance to any competitor of Gaussian, Inc.  The licensee
 of this program is prohibited from giving any competitor of
 Gaussian, Inc. access to this program.  By using this program,
 the user acknowledges that Gaussian, Inc. is engaged in the
 business of creating and licensing software in the field of
 computational chemistry and represents and warrants to the
 licensee that it is not a competitor of Gaussian, Inc. and that
 it will not use this program in any manner prohibited above.
 ---------------------------------------------------------------
  

 Cite this work as:
 Gaussian 09, Revision D.01,
 M. J. Frisch, G. W. Trucks, H. B. Schlegel, G. E. Scuseria, 
 M. A. Robb, J. R. Cheeseman, G. Scalmani, V. Barone, B. Mennucci, 
 G. A. Petersson, H. Nakatsuji, M. Caricato, X. Li, H. P. Hratchian, 
 A. F. Izmaylov, J. Bloino, G. Zheng, J. L. Sonnenberg, M. Hada, 
 M. Ehara, K. Toyota, R. Fukuda, J. Hasegawa, M. Ishida, T. Nakajima, 
 Y. Honda, O. Kitao, H. Nakai, T. Vreven, J. A. Montgomery, Jr., 
 J. E. Peralta, F. Ogliaro, M. Bearpark, J. J. Heyd, E. Brothers, 
 K. N. Kudin, V. N. Staroverov, T. Keith, R. Kobayashi, J. Normand, 
 K. Raghavachari, A. Rendell, J. C. Burant, S. S. Iyengar, J. Tomasi, 
 M. Cossi, N. Rega, J. M. Millam, M. Klene, J. E. Knox, J. B. Cross, 
 V. Bakken, C. Adamo, J. Jaramillo, R. Gomperts, R. E. Stratmann, 
 O. Yazyev, A. J. Austin, R. Cammi, C. Pomelli, J. W. Ochterski, 
 R. L. Martin, K. Morokuma, V. G. Zakrzewski, G. A. Voth, 
 P. Salvador, J. J. Dannenberg, S. Dapprich, A. D. Daniels, 
 O. Farkas, J. B. Foresman, J. V. Ortiz, J. Cioslowski, 
 and D. J. Fox, Gaussian, Inc., Wallingford CT, 2013.
 
 ******************************************
 Gaussian 09:  ES64L-G09RevD.01 24-Apr-2013
                26-Aug-2020 
 ******************************************
 %chk=/home/boittier/MDCM/nms_sampling/butadiene_geom.xyz.dir/butadiene_2265.chk
 %nproc=8
 Will use up to    8 processors via shared memory.
 %mem=16000MB
 --------------------
 #p B2PLYPD3/Def2QZVP
 --------------------
 1/38=1/1;
 2/12=2,17=6,18=5,40=1/2;
 3/5=45,7=101,11=9,16=1,25=1,30=1,74=-60/1,2,3;
 4//1;
 5/5=2,38=5/2;
 8/10=1/1;
 9/16=-3/6;
 6/7=2,8=2,9=2,10=2/1;
 99/5=1,9=1/99;
 Leave Link    1 at Wed Aug 26 13:04:28 2020, MaxMem=  2097152000 cpu:         0.3
 (Enter /opt/cluster/programs/g09/g09_d.01/g09/l101.exe)
 ---------
 butadiene
 ---------
 Symbolic Z-matrix:
 Charge =  0 Multiplicity = 1
 C                    -3.83761   0.22059   0.08568 
 C                    -2.68005  -0.48705  -0.03152 
 C                    -1.39672   0.09842  -0.09308 
 C                    -0.29725  -0.69403   0.12665 
 H                    -4.82367  -0.2758    0.20112 
 H                    -3.74232   1.26714   0.07852 
 H                    -2.59211  -1.52565  -0.08122 
 H                    -1.3638    1.18899  -0.10447 
 H                    -0.36844  -1.72949   0.02135 
 H                     0.60229  -0.17646   0.14447 
 
 NAtoms=     10 NQM=       10 NQMF=       0 NMMI=      0 NMMIF=      0
                NMic=       0 NMicF=      0.
                    Isotopes and Nuclear Properties:
 (Nuclear quadrupole moments (NQMom) in fm**2, nuclear magnetic moments (NMagM)
  in nuclear magnetons)

  Atom         1           2           3           4           5           6           7           8           9          10
 IAtWgt=          12          12          12          12           1           1           1           1           1           1
 AtmWgt=  12.0000000  12.0000000  12.0000000  12.0000000   1.0078250   1.0078250   1.0078250   1.0078250   1.0078250   1.0078250
 NucSpn=           0           0           0           0           1           1           1           1           1           1
 AtZEff=   0.0000000   0.0000000   0.0000000   0.0000000   0.0000000   0.0000000   0.0000000   0.0000000   0.0000000   0.0000000
 NQMom=    0.0000000   0.0000000   0.0000000   0.0000000   0.0000000   0.0000000   0.0000000   0.0000000   0.0000000   0.0000000
 NMagM=    0.0000000   0.0000000   0.0000000   0.0000000   2.7928460   2.7928460   2.7928460   2.7928460   2.7928460   2.7928460
 AtZNuc=   6.0000000   6.0000000   6.0000000   6.0000000   1.0000000   1.0000000   1.0000000   1.0000000   1.0000000   1.0000000
 Leave Link  101 at Wed Aug 26 13:04:28 2020, MaxMem=  2097152000 cpu:         0.5
 (Enter /opt/cluster/programs/g09/g09_d.01/g09/l202.exe)
                          Input orientation:                          
 ---------------------------------------------------------------------
 Center     Atomic      Atomic             Coordinates (Angstroms)
 Number     Number       Type             X           Y           Z
 ---------------------------------------------------------------------
      1          6           0       -3.837612    0.220591    0.085676
      2          6           0       -2.680051   -0.487049   -0.031515
      3          6           0       -1.396717    0.098415   -0.093079
      4          6           0       -0.297248   -0.694034    0.126648
      5          1           0       -4.823669   -0.275800    0.201120
      6          1           0       -3.742320    1.267140    0.078516
      7          1           0       -2.592106   -1.525651   -0.081221
      8          1           0       -1.363804    1.188986   -0.104472
      9          1           0       -0.368438   -1.729489    0.021352
     10          1           0        0.602285   -0.176456    0.144472
 ---------------------------------------------------------------------
                    Distance matrix (angstroms):
                    1          2          3          4          5
     1  C    0.000000
     2  C    1.361777   0.000000
     3  C    2.450479   1.411915   0.000000
     4  C    3.656829   2.397000   1.372985   0.000000
     5  H    1.109973   2.166528   3.459854   4.546312   0.000000
     6  H    1.050903   2.053704   2.626255   3.964472   1.888124
     7  H    2.151395   1.043503   2.016603   2.449728   2.573270
     8  H    2.663395   2.132351   1.091127   2.176401   3.769569
     9  H    3.980216   2.624882   2.100401   1.043227   4.689841
    10  H    4.458003   3.301692   2.031746   1.037962   5.427159
                    6          7          8          9         10
     6  H    0.000000
     7  H    3.024597   0.000000
     8  H    2.386824   2.979685   0.000000
     9  H    4.512885   2.235346   3.086111   0.000000
    10  H    4.578637   3.474967   2.406639   1.835585   0.000000
 Stoichiometry    C4H6
 Framework group  C1[X(C4H6)]
 Deg. of freedom    24
 Full point group                 C1      NOp   1
 Largest Abelian subgroup         C1      NOp   1
 Largest concise Abelian subgroup C1      NOp   1
                         Standard orientation:                         
 ---------------------------------------------------------------------
 Center     Atomic      Atomic             Coordinates (Angstroms)
 Number     Number       Type             X           Y           Z
 ---------------------------------------------------------------------
      1          6           0       -1.835981    0.082710    0.059302
      2          6           0       -0.564060   -0.386629   -0.068655
      3          6           0        0.583276    0.435349   -0.107101
      4          6           0        1.814011   -0.137205    0.099203
      5          1           0       -2.708705   -0.596324    0.155768
      6          1           0       -1.943124    1.127940    0.079544
      7          1           0       -0.278530   -1.387447   -0.144382
      8          1           0        0.406476    1.511927   -0.090358
      9          1           0        1.942826   -1.163969   -0.033019
     10          1           0        2.597582    0.542523    0.135955
 ---------------------------------------------------------------------
 Rotational constants (GHZ):     40.9075410      4.5810199      4.1488173
 Leave Link  202 at Wed Aug 26 13:04:28 2020, MaxMem=  2097152000 cpu:         0.0
 (Enter /opt/cluster/programs/g09/g09_d.01/g09/l301.exe)
 Standard basis: def2QZVP (5D, 7F)
 Ernie: Thresh=  0.10000D-02 Tol=  0.10000D-05 Strict=F.
 There are   498 symmetry adapted cartesian basis functions of A   symmetry.
 There are   408 symmetry adapted basis functions of A   symmetry.
   408 basis functions,   596 primitive gaussians,   498 cartesian basis functions
    15 alpha electrons       15 beta electrons
       nuclear repulsion energy       104.8168667232 Hartrees.
 IExCor=  419 DFT=T Ex+Corr=B2PLYPD3 ExCW=0 ScaHFX=  0.530000
 ScaDFX=  0.470000  0.470000  0.730000  0.730000 ScalE2=  0.270000  0.270000
 IRadAn=      0 IRanWt=     -1 IRanGd=            0 ICorTp=0 IEmpDi=141
 NAtoms=   10 NActive=   10 NUniq=   10 SFac= 1.00D+00 NAtFMM=   60 NAOKFM=F Big=F
 Integral buffers will be    131072 words long.
 Regular integral format.
 Two-electron integral symmetry is turned on.
 R6Disp:  Grimme-D3(BJ) Dispersion energy=       -0.0048990390 Hartrees.
 Nuclear repulsion after empirical dispersion term =      104.8119676842 Hartrees.
 Leave Link  301 at Wed Aug 26 13:04:28 2020, MaxMem=  2097152000 cpu:         0.4
 (Enter /opt/cluster/programs/g09/g09_d.01/g09/l302.exe)
 NPDir=0 NMtPBC=     1 NCelOv=     1 NCel=       1 NClECP=     1 NCelD=      1
         NCelK=      1 NCelE2=     1 NClLst=     1 CellRange=     0.0.
 One-electron integrals computed using PRISM.
   1 Symmetry operations used in ECPInt.
 ECPInt:  NShTT=    8256 NPrTT=   19107 LenC2=    8071 LenP2D=   16188.
 LDataN:  DoStor=T MaxTD1= 8 Len=  415
 NBasis=   408 RedAO= T EigKep=  4.90D-05  NBF=   408
 NBsUse=   408 1.00D-06 EigRej= -1.00D+00 NBFU=   408
 Precomputing XC quadrature grid using
 IXCGrd= 4 IRadAn=           0 IRanWt=          -1 IRanGd=           0 AccXCQ= 0.00D+00.
 Generated NRdTot=       0 NPtTot=           0 NUsed=           0 NTot=          32
 NSgBfM=   498   498   498   498   498 MxSgAt=    10 MxSgA2=    10.
 Leave Link  302 at Wed Aug 26 13:04:29 2020, MaxMem=  2097152000 cpu:         3.8
 (Enter /opt/cluster/programs/g09/g09_d.01/g09/l303.exe)
 DipDrv:  MaxL=1.
 Leave Link  303 at Wed Aug 26 13:04:29 2020, MaxMem=  2097152000 cpu:         0.4
 (Enter /opt/cluster/programs/g09/g09_d.01/g09/l401.exe)
 ExpMin= 7.60D-02 ExpMax= 6.70D+04 ExpMxC= 6.47D+02 IAcc=2 IRadAn=         4 AccDes= 0.00D+00
 Harris functional with IExCor=  419 and IRadAn=       4 diagonalized for initial guess.
 HarFok:  IExCor=  419 AccDes= 0.00D+00 IRadAn=         4 IDoV= 1 UseB2=F ITyADJ=14
 ICtDFT=  3500011 ScaDFX=  1.000000  1.000000  1.000000  1.000000
 FoFCou: FMM=F IPFlag=           0 FMFlag=      100000 FMFlg1=           0
         NFxFlg=           0 DoJE=T BraDBF=F KetDBF=T FulRan=T
         wScrn=  0.000000 ICntrl=     500 IOpCl=  0 I1Cent=   200000004 NGrid=           0
         NMat0=    1 NMatS0=      1 NMatT0=    0 NMatD0=    1 NMtDS0=    0 NMtDT0=    0
 Petite list used in FoFCou.
 Harris En= -156.123937055342    
 JPrj=0 DoOrth=F DoCkMO=F.
 Leave Link  401 at Wed Aug 26 13:04:30 2020, MaxMem=  2097152000 cpu:         9.7
 (Enter /opt/cluster/programs/g09/g09_d.01/g09/l502.exe)
 Closed shell SCF:
 Using DIIS extrapolation, IDIIS=  1040.
 Integral symmetry usage will be decided dynamically.
 IVT=      770090 IEndB=      770090 NGot=  2097152000 MDV=  2096647053
 LenX=  2096647053 LenY=  2096398551
 Requested convergence on RMS density matrix=1.00D-08 within 128 cycles.
 Requested convergence on MAX density matrix=1.00D-06.
 Requested convergence on             energy=1.00D-06.
 No special actions if energy rises.
 Fock matrices will be formed incrementally for  20 cycles.
 Integral accuracy reduced to 1.0D-05 until final iterations.

 Cycle   1  Pass 0  IDiag  1:
 FoFJK:  IHMeth= 1 ICntrl=       0 DoSepK=F KAlg= 0 I1Cent=   0 FoldK=F
 IRaf= 950000000 NMat=   1 IRICut=       1 DoRegI=T DoRafI=F ISym2E= 0.
 FoFCou: FMM=F IPFlag=           0 FMFlag=      100000 FMFlg1=           0
         NFxFlg=           0 DoJE=F BraDBF=F KetDBF=F FulRan=T
         wScrn=  0.000000 ICntrl=       0 IOpCl=  0 I1Cent=           0 NGrid=           0
         NMat0=    1 NMatS0=      1 NMatT0=    0 NMatD0=    1 NMtDS0=    0 NMtDT0=    0
 Symmetry not used in FoFCou.
 E= -155.496528253970    
 DIIS: error= 3.44D-02 at cycle   1 NSaved=   1.
 NSaved= 1 IEnMin= 1 EnMin= -155.496528253970     IErMin= 1 ErrMin= 3.44D-02
 ErrMax= 3.44D-02  0.00D+00 EMaxC= 1.00D-01 BMatC= 2.52D-01 BMatP= 2.52D-01
 IDIUse=3 WtCom= 6.56D-01 WtEn= 3.44D-01
 Coeff-Com:  0.100D+01
 Coeff-En:   0.100D+01
 Coeff:      0.100D+01
 Gap=     0.281 Goal=   None    Shift=    0.000
 GapD=    0.281 DampG=1.000 DampE=0.500 DampFc=0.5000 IDamp=-1.
 Damping current iteration by 5.00D-01
 RMSDP=9.86D-04 MaxDP=4.88D-02              OVMax= 2.00D-01

 Cycle   2  Pass 0  IDiag  1:
 RMSU=  4.58D-04    CP:  9.52D-01
 E= -155.595584260050     Delta-E=       -0.099056006080 Rises=F Damp=T
 DIIS: error= 9.16D-03 at cycle   2 NSaved=   2.
 NSaved= 2 IEnMin= 2 EnMin= -155.595584260050     IErMin= 2 ErrMin= 9.16D-03
 ErrMax= 9.16D-03  0.00D+00 EMaxC= 1.00D-01 BMatC= 3.01D-02 BMatP= 2.52D-01
 IDIUse=3 WtCom= 9.08D-01 WtEn= 9.16D-02
 Coeff-Com: -0.305D+00 0.131D+01
 Coeff-En:   0.000D+00 0.100D+01
 Coeff:     -0.277D+00 0.128D+01
 Gap=     0.349 Goal=   None    Shift=    0.000
 RMSDP=3.12D-04 MaxDP=9.54D-03 DE=-9.91D-02 OVMax= 9.85D-02

 Cycle   3  Pass 0  IDiag  1:
 RMSU=  3.05D-04    CP:  9.35D-01  9.62D-01
 E= -155.680996471885     Delta-E=       -0.085412211835 Rises=F Damp=F
 DIIS: error= 4.22D-03 at cycle   3 NSaved=   3.
 NSaved= 3 IEnMin= 3 EnMin= -155.680996471885     IErMin= 3 ErrMin= 4.22D-03
 ErrMax= 4.22D-03  0.00D+00 EMaxC= 1.00D-01 BMatC= 2.37D-03 BMatP= 3.01D-02
 IDIUse=3 WtCom= 9.58D-01 WtEn= 4.22D-02
 Coeff-Com: -0.124D+00 0.263D+00 0.861D+00
 Coeff-En:   0.000D+00 0.000D+00 0.100D+01
 Coeff:     -0.119D+00 0.252D+00 0.867D+00
 Gap=     0.275 Goal=   None    Shift=    0.000
 RMSDP=8.12D-05 MaxDP=4.70D-03 DE=-8.54D-02 OVMax= 2.67D-02

 Cycle   4  Pass 0  IDiag  1:
 RMSU=  6.15D-05    CP:  9.31D-01  1.06D+00  9.37D-01
 E= -155.682730930616     Delta-E=       -0.001734458731 Rises=F Damp=F
 DIIS: error= 2.60D-03 at cycle   4 NSaved=   4.
 NSaved= 4 IEnMin= 4 EnMin= -155.682730930616     IErMin= 4 ErrMin= 2.60D-03
 ErrMax= 2.60D-03  0.00D+00 EMaxC= 1.00D-01 BMatC= 8.24D-04 BMatP= 2.37D-03
 IDIUse=3 WtCom= 9.74D-01 WtEn= 2.60D-02
 Coeff-Com: -0.548D-01 0.917D-01 0.467D+00 0.496D+00
 Coeff-En:   0.000D+00 0.000D+00 0.173D+00 0.827D+00
 Coeff:     -0.534D-01 0.893D-01 0.459D+00 0.505D+00
 Gap=     0.275 Goal=   None    Shift=    0.000
 RMSDP=3.52D-05 MaxDP=1.93D-03 DE=-1.73D-03 OVMax= 1.09D-02

 Cycle   5  Pass 0  IDiag  1:
 RMSU=  1.89D-05    CP:  9.31D-01  1.05D+00  9.90D-01  6.08D-01
 E= -155.683523698445     Delta-E=       -0.000792767829 Rises=F Damp=F
 DIIS: error= 2.00D-04 at cycle   5 NSaved=   5.
 NSaved= 5 IEnMin= 5 EnMin= -155.683523698445     IErMin= 5 ErrMin= 2.00D-04
 ErrMax= 2.00D-04  0.00D+00 EMaxC= 1.00D-01 BMatC= 4.67D-06 BMatP= 8.24D-04
 IDIUse=3 WtCom= 9.98D-01 WtEn= 2.00D-03
 Coeff-Com: -0.414D-02 0.452D-02 0.448D-01 0.940D-01 0.861D+00
 Coeff-En:   0.000D+00 0.000D+00 0.000D+00 0.000D+00 0.100D+01
 Coeff:     -0.413D-02 0.451D-02 0.447D-01 0.938D-01 0.861D+00
 Gap=     0.275 Goal=   None    Shift=    0.000
 RMSDP=5.86D-06 MaxDP=2.38D-04 DE=-7.93D-04 OVMax= 1.32D-03

 Initial convergence to 1.0D-05 achieved.  Increase integral accuracy.
 Cycle   6  Pass 1  IDiag  1:
 E= -155.683525107031     Delta-E=       -0.000001408586 Rises=F Damp=F
 DIIS: error= 5.91D-05 at cycle   1 NSaved=   1.
 NSaved= 1 IEnMin= 1 EnMin= -155.683525107031     IErMin= 1 ErrMin= 5.91D-05
 ErrMax= 5.91D-05  0.00D+00 EMaxC= 1.00D-01 BMatC= 5.99D-07 BMatP= 5.99D-07
 IDIUse=1 WtCom= 1.00D+00 WtEn= 0.00D+00
 Coeff-Com:  0.100D+01
 Coeff:      0.100D+01
 Gap=     0.275 Goal=   None    Shift=    0.000
 RMSDP=5.86D-06 MaxDP=2.38D-04 DE=-1.41D-06 OVMax= 4.51D-04

 Cycle   7  Pass 1  IDiag  1:
 RMSU=  1.65D-05    CP:  1.00D+00
 E= -155.683525591479     Delta-E=       -0.000000484447 Rises=F Damp=F
 DIIS: error= 2.80D-05 at cycle   2 NSaved=   2.
 NSaved= 2 IEnMin= 2 EnMin= -155.683525591479     IErMin= 2 ErrMin= 2.80D-05
 ErrMax= 2.80D-05  0.00D+00 EMaxC= 1.00D-01 BMatC= 1.32D-07 BMatP= 5.99D-07
 IDIUse=1 WtCom= 1.00D+00 WtEn= 0.00D+00
 Coeff-Com:  0.255D+00 0.745D+00
 Coeff:      0.255D+00 0.745D+00
 Gap=     0.275 Goal=   None    Shift=    0.000
 RMSDP=1.12D-06 MaxDP=3.73D-05 DE=-4.84D-07 OVMax= 2.63D-04

 Cycle   8  Pass 1  IDiag  1:
 RMSU=  8.67D-07    CP:  1.00D+00  1.04D+00
 E= -155.683525708623     Delta-E=       -0.000000117145 Rises=F Damp=F
 DIIS: error= 1.96D-05 at cycle   3 NSaved=   3.
 NSaved= 3 IEnMin= 3 EnMin= -155.683525708623     IErMin= 3 ErrMin= 1.96D-05
 ErrMax= 1.96D-05  0.00D+00 EMaxC= 1.00D-01 BMatC= 4.44D-08 BMatP= 1.32D-07
 IDIUse=1 WtCom= 1.00D+00 WtEn= 0.00D+00
 Coeff-Com: -0.118D-01 0.352D+00 0.660D+00
 Coeff:     -0.118D-01 0.352D+00 0.660D+00
 Gap=     0.275 Goal=   None    Shift=    0.000
 RMSDP=5.85D-07 MaxDP=2.54D-05 DE=-1.17D-07 OVMax= 1.14D-04

 Cycle   9  Pass 1  IDiag  1:
 RMSU=  4.43D-07    CP:  1.00D+00  1.07D+00  1.04D+00
 E= -155.683525755952     Delta-E=       -0.000000047328 Rises=F Damp=F
 DIIS: error= 6.55D-06 at cycle   4 NSaved=   4.
 NSaved= 4 IEnMin= 4 EnMin= -155.683525755952     IErMin= 4 ErrMin= 6.55D-06
 ErrMax= 6.55D-06  0.00D+00 EMaxC= 1.00D-01 BMatC= 1.91D-09 BMatP= 4.44D-08
 IDIUse=1 WtCom= 1.00D+00 WtEn= 0.00D+00
 Coeff-Com: -0.205D-01 0.818D-01 0.218D+00 0.720D+00
 Coeff:     -0.205D-01 0.818D-01 0.218D+00 0.720D+00
 Gap=     0.275 Goal=   None    Shift=    0.000
 RMSDP=1.39D-07 MaxDP=5.72D-06 DE=-4.73D-08 OVMax= 3.17D-05

 Cycle  10  Pass 1  IDiag  1:
 RMSU=  9.58D-08    CP:  1.00D+00  1.07D+00  1.09D+00  1.12D+00
 E= -155.683525758761     Delta-E=       -0.000000002810 Rises=F Damp=F
 DIIS: error= 1.21D-06 at cycle   5 NSaved=   5.
 NSaved= 5 IEnMin= 5 EnMin= -155.683525758761     IErMin= 5 ErrMin= 1.21D-06
 ErrMax= 1.21D-06  0.00D+00 EMaxC= 1.00D-01 BMatC= 3.41D-10 BMatP= 1.91D-09
 IDIUse=1 WtCom= 1.00D+00 WtEn= 0.00D+00
 Coeff-Com: -0.285D-02-0.368D-01-0.735D-01 0.201D+00 0.912D+00
 Coeff:     -0.285D-02-0.368D-01-0.735D-01 0.201D+00 0.912D+00
 Gap=     0.275 Goal=   None    Shift=    0.000
 RMSDP=6.55D-08 MaxDP=3.34D-06 DE=-2.81D-09 OVMax= 1.16D-05

 Cycle  11  Pass 1  IDiag  1:
 RMSU=  3.10D-08    CP:  1.00D+00  1.07D+00  1.12D+00  1.23D+00  1.10D+00
 E= -155.683525759269     Delta-E=       -0.000000000508 Rises=F Damp=F
 DIIS: error= 2.69D-07 at cycle   6 NSaved=   6.
 NSaved= 6 IEnMin= 6 EnMin= -155.683525759269     IErMin= 6 ErrMin= 2.69D-07
 ErrMax= 2.69D-07  0.00D+00 EMaxC= 1.00D-01 BMatC= 1.97D-11 BMatP= 3.41D-10
 IDIUse=1 WtCom= 1.00D+00 WtEn= 0.00D+00
 Coeff-Com:  0.107D-02-0.193D-01-0.478D-01 0.136D-01 0.284D+00 0.769D+00
 Coeff:      0.107D-02-0.193D-01-0.478D-01 0.136D-01 0.284D+00 0.769D+00
 Gap=     0.275 Goal=   None    Shift=    0.000
 RMSDP=1.32D-08 MaxDP=4.35D-07 DE=-5.08D-10 OVMax= 3.40D-06

 Cycle  12  Pass 1  IDiag  1:
 RMSU=  1.02D-08    CP:  1.00D+00  1.07D+00  1.12D+00  1.24D+00  1.12D+00
                    CP:  1.18D+00
 E= -155.683525759295     Delta-E=       -0.000000000026 Rises=F Damp=F
 DIIS: error= 6.96D-08 at cycle   7 NSaved=   7.
 NSaved= 7 IEnMin= 7 EnMin= -155.683525759295     IErMin= 7 ErrMin= 6.96D-08
 ErrMax= 6.96D-08  0.00D+00 EMaxC= 1.00D-01 BMatC= 1.47D-12 BMatP= 1.97D-11
 IDIUse=1 WtCom= 1.00D+00 WtEn= 0.00D+00
 Coeff-Com:  0.423D-03-0.415D-02-0.119D-01-0.325D-03 0.407D-01 0.236D+00
 Coeff-Com:  0.739D+00
 Coeff:      0.423D-03-0.415D-02-0.119D-01-0.325D-03 0.407D-01 0.236D+00
 Coeff:      0.739D+00
 Gap=     0.275 Goal=   None    Shift=    0.000
 RMSDP=4.16D-09 MaxDP=1.65D-07 DE=-2.60D-11 OVMax= 4.74D-07

 SCF Done:  E(RB2PLYPD3) =  -155.683525759     A.U. after   12 cycles
            NFock= 12  Conv=0.42D-08     -V/T= 2.0028
 KE= 1.552516615980D+02 PE=-5.705935513675D+02 EE= 1.548463963261D+02
 Leave Link  502 at Wed Aug 26 13:07:59 2020, MaxMem=  2097152000 cpu:      1663.7
 (Enter /opt/cluster/programs/g09/g09_d.01/g09/l801.exe)
 DoSCS=T DFT=T ScalE2(SS,OS)=  0.270000  0.270000
 ExpMin= 7.60D-02 ExpMax= 6.70D+04 ExpMxC= 6.47D+02 IAcc=3 IRadAn=         5 AccDes= 0.00D+00
 HarFok:  IExCor=  205 AccDes= 0.00D+00 IRadAn=         5 IDoV=-2 UseB2=F ITyADJ=14
 ICtDFT= 12500011 ScaDFX=  1.000000  1.000000  1.000000  1.000000
 Largest valence mixing into a core orbital is  1.14D-04
 Largest core mixing into a valence orbital is  1.94D-05
 Range of M.O.s used for correlation:     5   408
 NBasis=   408 NAE=    15 NBE=    15 NFC=     4 NFV=     0
 NROrb=    404 NOA=    11 NOB=    11 NVA=   393 NVB=   393

 **** Warning!!: The largest alpha MO coefficient is  0.28644814D+02

 Leave Link  801 at Wed Aug 26 13:07:59 2020, MaxMem=  2097152000 cpu:         1.0
 (Enter /opt/cluster/programs/g09/g09_d.01/g09/l906.exe)
 DoSCS=T DFT=T ScalE2(SS,OS)=  0.270000  0.270000
 FulOut=F Deriv=F AODrv=F NAtomX=    10
   MMem=         881  MDisk=          11 MDiskD=          11
  W3Min=     2152854 MinDsk=     3857222 NBas6D=         498
 NBas2D=      125763    NTT=      124251    LW2=     4508827
    MDV=  2096379188 MDiskM=        9345 NBas2p=      118217
 Fully direct method using O(OVN) memory.
 IMap=   1   2   3   4   5   6   7   8   9  10  11
 JobTyp=1 Pass  1:  I=   1 to  11 NPSUse=  8 ParTrn=T ParDer=T DoDerP=F.
 Spin components of T(2) and E(2):
     alpha-alpha T2 =       0.4289051335D-01 E2=     -0.2572298050D-01
     alpha-beta  T2 =       0.2779196319D+00 E2=     -0.1759227492D+00
     beta-beta   T2 =       0.4289051335D-01 E2=     -0.2572298050D-01
 The integrals were generated   1 times.
 E2(B2PLYPD3) =    -0.2273687102D+00 E(B2PLYPD3) =    -0.15591089446946D+03
 Leave Link  906 at Wed Aug 26 13:10:24 2020, MaxMem=  2097152000 cpu:      1154.0
 (Enter /opt/cluster/programs/g09/g09_d.01/g09/l601.exe)
 Copying SCF densities to generalized density rwf, IOpCl= 0 IROHF=0.

 **********************************************************************

            Population analysis using the SCF density.

 **********************************************************************

 Orbital symmetries:
       Occupied  (A) (A) (A) (A) (A) (A) (A) (A) (A) (A) (A) (A)
                 (A) (A) (A)
       Virtual   (A) (A) (A) (A) (A) (A) (A) (A) (A) (A) (A) (A)
                 (A) (A) (A) (A) (A) (A) (A) (A) (A) (A) (A) (A)
                 (A) (A) (A) (A) (A) (A) (A) (A) (A) (A) (A) (A)
                 (A) (A) (A) (A) (A) (A) (A) (A) (A) (A) (A) (A)
                 (A) (A) (A) (A) (A) (A) (A) (A) (A) (A) (A) (A)
                 (A) (A) (A) (A) (A) (A) (A) (A) (A) (A) (A) (A)
                 (A) (A) (A) (A) (A) (A) (A) (A) (A) (A) (A) (A)
                 (A) (A) (A) (A) (A) (A) (A) (A) (A) (A) (A) (A)
                 (A) (A) (A) (A) (A) (A) (A) (A) (A) (A) (A) (A)
                 (A) (A) (A) (A) (A) (A) (A) (A) (A) (A) (A) (A)
                 (A) (A) (A) (A) (A) (A) (A) (A) (A) (A) (A) (A)
                 (A) (A) (A) (A) (A) (A) (A) (A) (A) (A) (A) (A)
                 (A) (A) (A) (A) (A) (A) (A) (A) (A) (A) (A) (A)
                 (A) (A) (A) (A) (A) (A) (A) (A) (A) (A) (A) (A)
                 (A) (A) (A) (A) (A) (A) (A) (A) (A) (A) (A) (A)
                 (A) (A) (A) (A) (A) (A) (A) (A) (A) (A) (A) (A)
                 (A) (A) (A) (A) (A) (A) (A) (A) (A) (A) (A) (A)
                 (A) (A) (A) (A) (A) (A) (A) (A) (A) (A) (A) (A)
                 (A) (A) (A) (A) (A) (A) (A) (A) (A) (A) (A) (A)
                 (A) (A) (A) (A) (A) (A) (A) (A) (A) (A) (A) (A)
                 (A) (A) (A) (A) (A) (A) (A) (A) (A) (A) (A) (A)
                 (A) (A) (A) (A) (A) (A) (A) (A) (A) (A) (A) (A)
                 (A) (A) (A) (A) (A) (A) (A) (A) (A) (A) (A) (A)
                 (A) (A) (A) (A) (A) (A) (A) (A) (A) (A) (A) (A)
                 (A) (A) (A) (A) (A) (A) (A) (A) (A) (A) (A) (A)
                 (A) (A) (A) (A) (A) (A) (A) (A) (A) (A) (A) (A)
                 (A) (A) (A) (A) (A) (A) (A) (A) (A) (A) (A) (A)
                 (A) (A) (A) (A) (A) (A) (A) (A) (A) (A) (A) (A)
                 (A) (A) (A) (A) (A) (A) (A) (A) (A) (A) (A) (A)
                 (A) (A) (A) (A) (A) (A) (A) (A) (A) (A) (A) (A)
                 (A) (A) (A) (A) (A) (A) (A) (A) (A) (A) (A) (A)
                 (A) (A) (A) (A) (A) (A) (A) (A) (A) (A) (A) (A)
                 (A) (A) (A) (A) (A) (A) (A) (A) (A)
 The electronic state is 1-A.
 Alpha  occ. eigenvalues --  -10.62650 -10.61905 -10.61752 -10.61237  -0.93687
 Alpha  occ. eigenvalues --   -0.84230  -0.71150  -0.65038  -0.54494  -0.53907
 Alpha  occ. eigenvalues --   -0.47319  -0.45842  -0.42101  -0.37993  -0.26728
 Alpha virt. eigenvalues --    0.00820   0.07073   0.07466   0.08211   0.09236
 Alpha virt. eigenvalues --    0.11882   0.12488   0.14956   0.15749   0.16065
 Alpha virt. eigenvalues --    0.18606   0.19836   0.21771   0.23702   0.23948
 Alpha virt. eigenvalues --    0.25786   0.26797   0.29722   0.30996   0.33350
 Alpha virt. eigenvalues --    0.34905   0.36122   0.37523   0.39721   0.40834
 Alpha virt. eigenvalues --    0.42270   0.42529   0.45293   0.46402   0.47200
 Alpha virt. eigenvalues --    0.48323   0.50546   0.54113   0.57591   0.58184
 Alpha virt. eigenvalues --    0.59654   0.60040   0.64695   0.65393   0.68593
 Alpha virt. eigenvalues --    0.70262   0.71733   0.76701   0.77423   0.77791
 Alpha virt. eigenvalues --    0.80814   0.81367   0.82023   0.82164   0.83653
 Alpha virt. eigenvalues --    0.85282   0.86108   0.86969   0.87718   0.89819
 Alpha virt. eigenvalues --    0.92391   0.93022   0.93659   0.95429   0.96462
 Alpha virt. eigenvalues --    0.97776   0.99712   1.01743   1.02423   1.05800
 Alpha virt. eigenvalues --    1.06882   1.07776   1.09908   1.11464   1.12612
 Alpha virt. eigenvalues --    1.15430   1.18467   1.19864   1.22665   1.23970
 Alpha virt. eigenvalues --    1.24095   1.26302   1.34014   1.34367   1.35272
 Alpha virt. eigenvalues --    1.40973   1.43284   1.46671   1.54737   1.61152
 Alpha virt. eigenvalues --    1.64515   1.68273   1.69996   1.73504   1.75713
 Alpha virt. eigenvalues --    1.78760   1.80231   1.82807   1.83425   1.86925
 Alpha virt. eigenvalues --    1.89900   1.91864   1.92394   1.92499   1.94734
 Alpha virt. eigenvalues --    1.96003   1.96718   1.99586   1.99864   2.02852
 Alpha virt. eigenvalues --    2.03749   2.05847   2.07390   2.08737   2.09650
 Alpha virt. eigenvalues --    2.10321   2.13690   2.15226   2.16397   2.17481
 Alpha virt. eigenvalues --    2.18340   2.20573   2.24594   2.26637   2.28649
 Alpha virt. eigenvalues --    2.30482   2.32477   2.33098   2.40251   2.42583
 Alpha virt. eigenvalues --    2.43872   2.45376   2.47295   2.48851   2.51242
 Alpha virt. eigenvalues --    2.53601   2.55147   2.56390   2.57892   2.59830
 Alpha virt. eigenvalues --    2.62072   2.62759   2.64762   2.66720   2.67919
 Alpha virt. eigenvalues --    2.68983   2.71117   2.71571   2.72298   2.73426
 Alpha virt. eigenvalues --    2.75025   2.75966   2.79112   2.79883   2.81439
 Alpha virt. eigenvalues --    2.83120   2.86465   2.89857   2.91810   2.94689
 Alpha virt. eigenvalues --    2.96214   3.03168   3.04885   3.12565   3.14498
 Alpha virt. eigenvalues --    3.15214   3.18347   3.22945   3.32212   3.35074
 Alpha virt. eigenvalues --    3.38712   3.41128   3.45501   3.47107   3.50812
 Alpha virt. eigenvalues --    3.52623   3.53170   3.55353   3.56841   3.58416
 Alpha virt. eigenvalues --    3.63890   3.64178   3.67378   3.70557   3.75322
 Alpha virt. eigenvalues --    3.83573   3.86935   3.87541   3.90791   3.95188
 Alpha virt. eigenvalues --    3.98202   4.01529   4.02229   4.05564   4.12198
 Alpha virt. eigenvalues --    4.17157   4.18135   4.24545   4.28684   4.37968
 Alpha virt. eigenvalues --    4.47211   4.55582   4.65526   4.86491   4.96759
 Alpha virt. eigenvalues --    4.99218   5.01801   5.05065   5.10768   5.12153
 Alpha virt. eigenvalues --    5.15472   5.17982   5.20779   5.29769   5.32752
 Alpha virt. eigenvalues --    5.34056   5.36904   5.43964   5.45334   5.53102
 Alpha virt. eigenvalues --    5.54397   5.57074   5.58587   5.59120   5.61176
 Alpha virt. eigenvalues --    5.66395   5.70019   5.73525   5.76077   5.77634
 Alpha virt. eigenvalues --    5.78166   5.80171   5.84908   5.85444   5.89179
 Alpha virt. eigenvalues --    5.91394   5.93899   5.98322   5.99317   6.04151
 Alpha virt. eigenvalues --    6.07374   6.08957   6.09697   6.09863   6.12070
 Alpha virt. eigenvalues --    6.13848   6.16246   6.20194   6.20705   6.21985
 Alpha virt. eigenvalues --    6.24313   6.26740   6.29489   6.30642   6.31247
 Alpha virt. eigenvalues --    6.34385   6.36368   6.39146   6.40477   6.41725
 Alpha virt. eigenvalues --    6.43756   6.45793   6.48089   6.53853   6.54839
 Alpha virt. eigenvalues --    6.54943   6.57871   6.61031   6.62489   6.67070
 Alpha virt. eigenvalues --    6.69667   6.73597   6.77660   6.78975   6.82208
 Alpha virt. eigenvalues --    6.85626   6.86724   6.91318   6.91711   6.98290
 Alpha virt. eigenvalues --    7.00351   7.02064   7.03576   7.07888   7.10481
 Alpha virt. eigenvalues --    7.12534   7.13702   7.19095   7.19955   7.21934
 Alpha virt. eigenvalues --    7.27363   7.32769   7.35507   7.38492   7.42581
 Alpha virt. eigenvalues --    7.49599   7.51923   7.53406   7.56283   7.58588
 Alpha virt. eigenvalues --    7.63540   7.64819   7.66586   7.68301   7.69380
 Alpha virt. eigenvalues --    7.72240   7.73763   7.78454   7.79067   7.82923
 Alpha virt. eigenvalues --    7.83483   7.84976   7.91005   7.91810   7.95571
 Alpha virt. eigenvalues --    7.96647   7.99998   8.05222   8.07125   8.11276
 Alpha virt. eigenvalues --    8.12217   8.13480   8.16077   8.19644   8.21974
 Alpha virt. eigenvalues --    8.25252   8.32390   8.36232   8.37158   8.37670
 Alpha virt. eigenvalues --    8.39982   8.42862   8.44504   8.48341   8.51525
 Alpha virt. eigenvalues --    8.53610   8.55766   8.59337   8.59859   8.63375
 Alpha virt. eigenvalues --    8.64501   8.65904   8.70188   8.70751   8.74375
 Alpha virt. eigenvalues --    8.77057   8.78189   8.80776   8.82500   8.89969
 Alpha virt. eigenvalues --    8.93424   8.99272   9.04911   9.08098   9.17555
 Alpha virt. eigenvalues --    9.25627   9.29840   9.34667   9.39930   9.42628
 Alpha virt. eigenvalues --    9.53753   9.68447   9.84854   9.87079   9.89292
 Alpha virt. eigenvalues --    9.98139  10.02907  10.04490  10.10683  10.21779
 Alpha virt. eigenvalues --   10.24216  10.28096  10.34971  10.44309  10.47502
 Alpha virt. eigenvalues --   10.51104  10.56445  10.66486  10.74384  10.84634
 Alpha virt. eigenvalues --   11.00583  11.20653  11.59953  11.62329  11.78942
 Alpha virt. eigenvalues --   11.87618  12.86005  13.11666  13.12554  13.29395
 Alpha virt. eigenvalues --   28.75147  28.91822  29.42614  29.60234 148.35577
 Alpha virt. eigenvalues --  148.51658 149.03307 149.20799
          Condensed to atoms (all electrons):
               1          2          3          4          5          6
     1  C    4.857215   0.614593  -0.078661  -0.004789   0.422219   0.431230
     2  C    0.614593   4.831972   0.397850  -0.086087  -0.042322  -0.054360
     3  C   -0.078661   0.397850   4.854795   0.617134   0.007111  -0.007945
     4  C   -0.004789  -0.086087   0.617134   4.848965  -0.000583   0.000035
     5  H    0.422219  -0.042322   0.007111  -0.000583   0.570337  -0.040212
     6  H    0.431230  -0.054360  -0.007945   0.000035  -0.040212   0.589733
     7  H   -0.043838   0.413184  -0.072581  -0.006441  -0.006186   0.006921
     8  H   -0.002287  -0.060275   0.410375  -0.042376  -0.000074   0.004706
     9  H    0.000347  -0.008067  -0.042966   0.430361  -0.000022   0.000003
    10  H   -0.000756   0.009333  -0.054170   0.427609   0.000033   0.000001
               7          8          9         10
     1  C   -0.043838  -0.002287   0.000347  -0.000756
     2  C    0.413184  -0.060275  -0.008067   0.009333
     3  C   -0.072581   0.410375  -0.042966  -0.054170
     4  C   -0.006441  -0.042376   0.430361   0.427609
     5  H   -0.006186  -0.000074  -0.000022   0.000033
     6  H    0.006921   0.004706   0.000003   0.000001
     7  H    0.641793   0.008587   0.004106   0.000333
     8  H    0.008587   0.630793   0.006181  -0.007896
     9  H    0.004106   0.006181   0.575875  -0.042477
    10  H    0.000333  -0.007896  -0.042477   0.584761
 Mulliken charges:
               1
     1  C   -0.195272
     2  C   -0.015821
     3  C   -0.030943
     4  C   -0.183827
     5  H    0.089699
     6  H    0.069887
     7  H    0.054123
     8  H    0.052266
     9  H    0.076659
    10  H    0.083230
 Sum of Mulliken charges =   0.00000
 Mulliken charges with hydrogens summed into heavy atoms:
               1
     1  C   -0.035686
     2  C    0.038302
     3  C    0.021323
     4  C   -0.023939
 Electronic spatial extent (au):  <R**2>=            327.1926
 Charge=              0.0000 electrons
 Dipole moment (field-independent basis, Debye):
    X=              0.0933    Y=              0.0157    Z=             -0.0335  Tot=              0.1003
 Quadrupole moment (field-independent basis, Debye-Ang):
   XX=            -24.1366   YY=            -22.9545   ZZ=            -29.2520
   XY=             -0.2710   XZ=             -0.2852   YZ=              0.1912
 Traceless Quadrupole moment (field-independent basis, Debye-Ang):
   XX=              1.3111   YY=              2.4932   ZZ=             -3.8043
   XY=             -0.2710   XZ=             -0.2852   YZ=              0.1912
 Octapole moment (field-independent basis, Debye-Ang**2):
  XXX=             -0.7443  YYY=              0.3193  ZZZ=             -0.1552  XYY=              0.5990
  XXY=             -0.6845  XXZ=              1.3454  XZZ=              0.2478  YZZ=             -0.0458
  YYZ=             -0.3299  XYZ=              0.4839
 Hexadecapole moment (field-independent basis, Debye-Ang**3):
 XXXX=           -340.6902 YYYY=            -64.5589 ZZZZ=            -38.4797 XXXY=              6.9906
 XXXZ=             -1.9370 YYYX=             -2.7488 YYYZ=              0.6393 ZZZX=             -0.2954
 ZZZY=              0.2235 XXYY=            -65.8011 XXZZ=            -75.4126 YYZZ=            -19.1221
 XXYZ=              0.4024 YYXZ=             -0.5090 ZZXY=             -0.5341
 N-N= 1.048119676842D+02 E-N=-5.705935462557D+02  KE= 1.552516615980D+02
 Leave Link  601 at Wed Aug 26 13:10:29 2020, MaxMem=  2097152000 cpu:         1.0
 (Enter /opt/cluster/programs/g09/g09_d.01/g09/l9999.exe)
 1\1\GINC-NODE08\SP\RB2PLYPD3-FC\def2QZVP\C4H6\BOITTIER\26-Aug-2020\0\\
 #p B2PLYPD3/Def2QZVP\\butadiene\\0,1\C,0,-3.837612,0.220591,0.085676\C
 ,0,-2.680051,-0.487049,-0.031515\C,0,-1.396717,0.098415,-0.093079\C,0,
 -0.297248,-0.694034,0.126648\H,0,-4.823669,-0.2758,0.20112\H,0,-3.7423
 2,1.26714,0.078516\H,0,-2.592106,-1.525651,-0.081221\H,0,-1.363804,1.1
 88986,-0.104472\H,0,-0.368438,-1.729489,0.021352\H,0,0.602285,-0.17645
 6,0.144472\\Version=ES64L-G09RevD.01\State=1-A\HF=-155.6835258\MP2=-15
 5.9108945\RMSD=4.159e-09\PG=C01 [X(C4H6)]\\@


 THE ATTENTION SPAN OF A COMPUTER IS AS LONG
 AS ITS EXTENSION CORD.
 Job cpu time:       0 days  0 hours 47 minutes 15.8 seconds.
 File lengths (MBytes):  RWF=     92 Int=      0 D2E=      0 Chk=      9 Scr=      1
 Normal termination of Gaussian 09 at Wed Aug 26 13:10:30 2020.
