 Entering Gaussian System, Link 0=/opt/cluster/programs/g09/g09_d.01/g09//g09
 Input=/home/boittier/MDCM/nms_sampling/butadiene_geom.xyz.dir/energies/butadiene_803_energy.com
 Output=/scratch/boittier/butadiene_803_energy/butadiene_803_energy.out
 Initial command:
 /opt/cluster/programs/g09/g09_d.01/g09/l1.exe "/scratch/boittier/butadiene_803_energy/Gau-85173.inp" -scrdir="/scratch/boittier/butadiene_803_energy/"
 Entering Link 1 = /opt/cluster/programs/g09/g09_d.01/g09/l1.exe PID=     85174.
  
 Copyright (c) 1988,1990,1992,1993,1995,1998,2003,2009,2013,
            Gaussian, Inc.  All Rights Reserved.
  
 This is part of the Gaussian(R) 09 program.  It is based on
 the Gaussian(R) 03 system (copyright 2003, Gaussian, Inc.),
 the Gaussian(R) 98 system (copyright 1998, Gaussian, Inc.),
 the Gaussian(R) 94 system (copyright 1995, Gaussian, Inc.),
 the Gaussian 92(TM) system (copyright 1992, Gaussian, Inc.),
 the Gaussian 90(TM) system (copyright 1990, Gaussian, Inc.),
 the Gaussian 88(TM) system (copyright 1988, Gaussian, Inc.),
 the Gaussian 86(TM) system (copyright 1986, Carnegie Mellon
 University), and the Gaussian 82(TM) system (copyright 1983,
 Carnegie Mellon University). Gaussian is a federally registered
 trademark of Gaussian, Inc.
  
 This software contains proprietary and confidential information,
 including trade secrets, belonging to Gaussian, Inc.
  
 This software is provided under written license and may be
 used, copied, transmitted, or stored only in accord with that
 written license.
  
 The following legend is applicable only to US Government
 contracts under FAR:
  
                    RESTRICTED RIGHTS LEGEND
  
 Use, reproduction and disclosure by the US Government is
 subject to restrictions as set forth in subparagraphs (a)
 and (c) of the Commercial Computer Software - Restricted
 Rights clause in FAR 52.227-19.
  
 Gaussian, Inc.
 340 Quinnipiac St., Bldg. 40, Wallingford CT 06492
  
  
 ---------------------------------------------------------------
 Warning -- This program may not be used in any manner that
 competes with the business of Gaussian, Inc. or will provide
 assistance to any competitor of Gaussian, Inc.  The licensee
 of this program is prohibited from giving any competitor of
 Gaussian, Inc. access to this program.  By using this program,
 the user acknowledges that Gaussian, Inc. is engaged in the
 business of creating and licensing software in the field of
 computational chemistry and represents and warrants to the
 licensee that it is not a competitor of Gaussian, Inc. and that
 it will not use this program in any manner prohibited above.
 ---------------------------------------------------------------
  

 Cite this work as:
 Gaussian 09, Revision D.01,
 M. J. Frisch, G. W. Trucks, H. B. Schlegel, G. E. Scuseria, 
 M. A. Robb, J. R. Cheeseman, G. Scalmani, V. Barone, B. Mennucci, 
 G. A. Petersson, H. Nakatsuji, M. Caricato, X. Li, H. P. Hratchian, 
 A. F. Izmaylov, J. Bloino, G. Zheng, J. L. Sonnenberg, M. Hada, 
 M. Ehara, K. Toyota, R. Fukuda, J. Hasegawa, M. Ishida, T. Nakajima, 
 Y. Honda, O. Kitao, H. Nakai, T. Vreven, J. A. Montgomery, Jr., 
 J. E. Peralta, F. Ogliaro, M. Bearpark, J. J. Heyd, E. Brothers, 
 K. N. Kudin, V. N. Staroverov, T. Keith, R. Kobayashi, J. Normand, 
 K. Raghavachari, A. Rendell, J. C. Burant, S. S. Iyengar, J. Tomasi, 
 M. Cossi, N. Rega, J. M. Millam, M. Klene, J. E. Knox, J. B. Cross, 
 V. Bakken, C. Adamo, J. Jaramillo, R. Gomperts, R. E. Stratmann, 
 O. Yazyev, A. J. Austin, R. Cammi, C. Pomelli, J. W. Ochterski, 
 R. L. Martin, K. Morokuma, V. G. Zakrzewski, G. A. Voth, 
 P. Salvador, J. J. Dannenberg, S. Dapprich, A. D. Daniels, 
 O. Farkas, J. B. Foresman, J. V. Ortiz, J. Cioslowski, 
 and D. J. Fox, Gaussian, Inc., Wallingford CT, 2013.
 
 ******************************************
 Gaussian 09:  ES64L-G09RevD.01 24-Apr-2013
                26-Aug-2020 
 ******************************************
 %chk=/home/boittier/MDCM/nms_sampling/butadiene_geom.xyz.dir/butadiene_803.chk
 %nproc=8
 Will use up to    8 processors via shared memory.
 %mem=16000MB
 --------------------
 #p B2PLYPD3/Def2QZVP
 --------------------
 1/38=1/1;
 2/12=2,17=6,18=5,40=1/2;
 3/5=45,7=101,11=9,16=1,25=1,30=1,74=-60/1,2,3;
 4//1;
 5/5=2,38=5/2;
 8/10=1/1;
 9/16=-3/6;
 6/7=2,8=2,9=2,10=2/1;
 99/5=1,9=1/99;
 Leave Link    1 at Wed Aug 26 21:24:49 2020, MaxMem=  2097152000 cpu:         0.2
 (Enter /opt/cluster/programs/g09/g09_d.01/g09/l101.exe)
 ---------
 butadiene
 ---------
 Symbolic Z-matrix:
 Charge =  0 Multiplicity = 1
 C                    -3.83835   0.22265   0.00422 
 C                    -2.7183   -0.50804   0.04588 
 C                    -1.38888   0.06239   0.03393 
 C                    -0.26621  -0.64519   0.02365 
 H                    -4.86169  -0.18655   0.05639 
 H                    -3.75232   1.32893  -0.08136 
 H                    -2.78251  -1.59029   0.13958 
 H                    -1.30432   1.14402   0.0024 
 H                    -0.2939   -1.71877  -0.05475 
 H                     0.72407  -0.17899   0.00264 
 
 NAtoms=     10 NQM=       10 NQMF=       0 NMMI=      0 NMMIF=      0
                NMic=       0 NMicF=      0.
                    Isotopes and Nuclear Properties:
 (Nuclear quadrupole moments (NQMom) in fm**2, nuclear magnetic moments (NMagM)
  in nuclear magnetons)

  Atom         1           2           3           4           5           6           7           8           9          10
 IAtWgt=          12          12          12          12           1           1           1           1           1           1
 AtmWgt=  12.0000000  12.0000000  12.0000000  12.0000000   1.0078250   1.0078250   1.0078250   1.0078250   1.0078250   1.0078250
 NucSpn=           0           0           0           0           1           1           1           1           1           1
 AtZEff=   0.0000000   0.0000000   0.0000000   0.0000000   0.0000000   0.0000000   0.0000000   0.0000000   0.0000000   0.0000000
 NQMom=    0.0000000   0.0000000   0.0000000   0.0000000   0.0000000   0.0000000   0.0000000   0.0000000   0.0000000   0.0000000
 NMagM=    0.0000000   0.0000000   0.0000000   0.0000000   2.7928460   2.7928460   2.7928460   2.7928460   2.7928460   2.7928460
 AtZNuc=   6.0000000   6.0000000   6.0000000   6.0000000   1.0000000   1.0000000   1.0000000   1.0000000   1.0000000   1.0000000
 Leave Link  101 at Wed Aug 26 21:24:49 2020, MaxMem=  2097152000 cpu:         0.5
 (Enter /opt/cluster/programs/g09/g09_d.01/g09/l202.exe)
                          Input orientation:                          
 ---------------------------------------------------------------------
 Center     Atomic      Atomic             Coordinates (Angstroms)
 Number     Number       Type             X           Y           Z
 ---------------------------------------------------------------------
      1          6           0       -3.838349    0.222649    0.004220
      2          6           0       -2.718303   -0.508038    0.045877
      3          6           0       -1.388881    0.062390    0.033927
      4          6           0       -0.266210   -0.645188    0.023645
      5          1           0       -4.861685   -0.186546    0.056394
      6          1           0       -3.752322    1.328925   -0.081361
      7          1           0       -2.782511   -1.590290    0.139576
      8          1           0       -1.304317    1.144019    0.002396
      9          1           0       -0.293902   -1.718772   -0.054745
     10          1           0        0.724073   -0.178989    0.002641
 ---------------------------------------------------------------------
                    Distance matrix (angstroms):
                    1          2          3          4          5
     1  C    0.000000
     2  C    1.337962   0.000000
     3  C    2.454885   1.446684   0.000000
     4  C    3.676098   2.456026   1.327088   0.000000
     5  H    1.103349   2.167384   3.481787   4.618421   0.000000
     6  H    1.112911   2.111828   2.683888   4.007633   1.883166
     7  H    2.102347   1.088196   2.164421   2.690433   2.510056
     8  H    2.696339   2.174980   1.085388   2.068666   3.798445
     9  H    4.041744   2.711775   2.092697   1.076798   4.819202
    10  H    4.580067   3.458337   2.126927   1.094734   5.586022
                    6          7          8          9         10
     6  H    0.000000
     7  H    3.084017   0.000000
     8  H    2.456407   3.111322   0.000000
     9  H    4.609754   2.499489   3.036408   0.000000
    10  H    4.724296   3.782414   2.421718   1.846753   0.000000
 Stoichiometry    C4H6
 Framework group  C1[X(C4H6)]
 Deg. of freedom    24
 Full point group                 C1      NOp   1
 Largest Abelian subgroup         C1      NOp   1
 Largest concise Abelian subgroup C1      NOp   1
                         Standard orientation:                         
 ---------------------------------------------------------------------
 Center     Atomic      Atomic             Coordinates (Angstroms)
 Number     Number       Type             X           Y           Z
 ---------------------------------------------------------------------
      1          6           0        1.836175    0.110797    0.015820
      2          6           0        0.603652   -0.409205   -0.009231
      3          6           0       -0.602545    0.389422   -0.022566
      4          6           0       -1.833520   -0.105735    0.003558
      5          1           0        2.769992   -0.475918   -0.017804
      6          1           0        1.949079    1.216816    0.066277
      7          1           0        0.473569   -1.487962   -0.068676
      8          1           0       -0.492607    1.469224   -0.025353
      9          1           0       -1.997970   -1.163982    0.115640
     10          1           0       -2.724639    0.530149    0.004430
 ---------------------------------------------------------------------
 Rotational constants (GHZ):     42.4059943      4.4683183      4.0445412
 Leave Link  202 at Wed Aug 26 21:24:49 2020, MaxMem=  2097152000 cpu:         0.0
 (Enter /opt/cluster/programs/g09/g09_d.01/g09/l301.exe)
 Standard basis: def2QZVP (5D, 7F)
 Ernie: Thresh=  0.10000D-02 Tol=  0.10000D-05 Strict=F.
 There are   498 symmetry adapted cartesian basis functions of A   symmetry.
 There are   408 symmetry adapted basis functions of A   symmetry.
   408 basis functions,   596 primitive gaussians,   498 cartesian basis functions
    15 alpha electrons       15 beta electrons
       nuclear repulsion energy       103.9840504508 Hartrees.
 IExCor=  419 DFT=T Ex+Corr=B2PLYPD3 ExCW=0 ScaHFX=  0.530000
 ScaDFX=  0.470000  0.470000  0.730000  0.730000 ScalE2=  0.270000  0.270000
 IRadAn=      0 IRanWt=     -1 IRanGd=            0 ICorTp=0 IEmpDi=141
 NAtoms=   10 NActive=   10 NUniq=   10 SFac= 1.00D+00 NAtFMM=   60 NAOKFM=F Big=F
 Integral buffers will be    131072 words long.
 Regular integral format.
 Two-electron integral symmetry is turned on.
 R6Disp:  Grimme-D3(BJ) Dispersion energy=       -0.0048372357 Hartrees.
 Nuclear repulsion after empirical dispersion term =      103.9792132151 Hartrees.
 Leave Link  301 at Wed Aug 26 21:24:49 2020, MaxMem=  2097152000 cpu:         0.4
 (Enter /opt/cluster/programs/g09/g09_d.01/g09/l302.exe)
 NPDir=0 NMtPBC=     1 NCelOv=     1 NCel=       1 NClECP=     1 NCelD=      1
         NCelK=      1 NCelE2=     1 NClLst=     1 CellRange=     0.0.
 One-electron integrals computed using PRISM.
   1 Symmetry operations used in ECPInt.
 ECPInt:  NShTT=    8256 NPrTT=   19107 LenC2=    8055 LenP2D=   16113.
 LDataN:  DoStor=T MaxTD1= 8 Len=  415
 NBasis=   408 RedAO= T EigKep=  4.14D-05  NBF=   408
 NBsUse=   408 1.00D-06 EigRej= -1.00D+00 NBFU=   408
 Precomputing XC quadrature grid using
 IXCGrd= 4 IRadAn=           0 IRanWt=          -1 IRanGd=           0 AccXCQ= 0.00D+00.
 Generated NRdTot=       0 NPtTot=           0 NUsed=           0 NTot=          32
 NSgBfM=   498   498   498   498   498 MxSgAt=    10 MxSgA2=    10.
 Leave Link  302 at Wed Aug 26 21:24:49 2020, MaxMem=  2097152000 cpu:         3.2
 (Enter /opt/cluster/programs/g09/g09_d.01/g09/l303.exe)
 DipDrv:  MaxL=1.
 Leave Link  303 at Wed Aug 26 21:24:49 2020, MaxMem=  2097152000 cpu:         0.4
 (Enter /opt/cluster/programs/g09/g09_d.01/g09/l401.exe)
 ExpMin= 7.60D-02 ExpMax= 6.70D+04 ExpMxC= 6.47D+02 IAcc=2 IRadAn=         4 AccDes= 0.00D+00
 Harris functional with IExCor=  419 and IRadAn=       4 diagonalized for initial guess.
 HarFok:  IExCor=  419 AccDes= 0.00D+00 IRadAn=         4 IDoV= 1 UseB2=F ITyADJ=14
 ICtDFT=  3500011 ScaDFX=  1.000000  1.000000  1.000000  1.000000
 FoFCou: FMM=F IPFlag=           0 FMFlag=      100000 FMFlg1=           0
         NFxFlg=           0 DoJE=T BraDBF=F KetDBF=T FulRan=T
         wScrn=  0.000000 ICntrl=     500 IOpCl=  0 I1Cent=   200000004 NGrid=           0
         NMat0=    1 NMatS0=      1 NMatT0=    0 NMatD0=    1 NMtDS0=    0 NMtDT0=    0
 Petite list used in FoFCou.
 Harris En= -156.132675996664    
 JPrj=0 DoOrth=F DoCkMO=F.
 Leave Link  401 at Wed Aug 26 21:24:51 2020, MaxMem=  2097152000 cpu:         8.1
 (Enter /opt/cluster/programs/g09/g09_d.01/g09/l502.exe)
 Closed shell SCF:
 Using DIIS extrapolation, IDIIS=  1040.
 Integral symmetry usage will be decided dynamically.
 IVT=      770090 IEndB=      770090 NGot=  2097152000 MDV=  2096647053
 LenX=  2096647053 LenY=  2096398551
 Requested convergence on RMS density matrix=1.00D-08 within 128 cycles.
 Requested convergence on MAX density matrix=1.00D-06.
 Requested convergence on             energy=1.00D-06.
 No special actions if energy rises.
 Fock matrices will be formed incrementally for  20 cycles.
 Integral accuracy reduced to 1.0D-05 until final iterations.

 Cycle   1  Pass 0  IDiag  1:
 FoFJK:  IHMeth= 1 ICntrl=       0 DoSepK=F KAlg= 0 I1Cent=   0 FoldK=F
 IRaf= 940000000 NMat=   1 IRICut=       1 DoRegI=T DoRafI=F ISym2E= 0.
 FoFCou: FMM=F IPFlag=           0 FMFlag=      100000 FMFlg1=           0
         NFxFlg=           0 DoJE=F BraDBF=F KetDBF=F FulRan=T
         wScrn=  0.000000 ICntrl=       0 IOpCl=  0 I1Cent=           0 NGrid=           0
         NMat0=    1 NMatS0=      1 NMatT0=    0 NMatD0=    1 NMtDS0=    0 NMtDT0=    0
 Symmetry not used in FoFCou.
 E= -155.512163702552    
 DIIS: error= 3.77D-02 at cycle   1 NSaved=   1.
 NSaved= 1 IEnMin= 1 EnMin= -155.512163702552     IErMin= 1 ErrMin= 3.77D-02
 ErrMax= 3.77D-02  0.00D+00 EMaxC= 1.00D-01 BMatC= 2.52D-01 BMatP= 2.52D-01
 IDIUse=3 WtCom= 6.23D-01 WtEn= 3.77D-01
 Coeff-Com:  0.100D+01
 Coeff-En:   0.100D+01
 Coeff:      0.100D+01
 Gap=     0.299 Goal=   None    Shift=    0.000
 GapD=    0.299 DampG=1.000 DampE=0.500 DampFc=0.5000 IDamp=-1.
 Damping current iteration by 5.00D-01
 RMSDP=9.53D-04 MaxDP=5.17D-02              OVMax= 1.94D-01

 Cycle   2  Pass 0  IDiag  1:
 RMSU=  4.38D-04    CP:  9.50D-01
 E= -155.611015474743     Delta-E=       -0.098851772190 Rises=F Damp=T
 DIIS: error= 1.21D-02 at cycle   2 NSaved=   2.
 NSaved= 2 IEnMin= 2 EnMin= -155.611015474743     IErMin= 2 ErrMin= 1.21D-02
 ErrMax= 1.21D-02  0.00D+00 EMaxC= 1.00D-01 BMatC= 2.95D-02 BMatP= 2.52D-01
 IDIUse=3 WtCom= 8.79D-01 WtEn= 1.21D-01
 Coeff-Com: -0.290D+00 0.129D+01
 Coeff-En:   0.000D+00 0.100D+01
 Coeff:     -0.255D+00 0.126D+01
 Gap=     0.358 Goal=   None    Shift=    0.000
 RMSDP=2.66D-04 MaxDP=9.15D-03 DE=-9.89D-02 OVMax= 9.68D-02

 Cycle   3  Pass 0  IDiag  1:
 RMSU=  2.55D-04    CP:  9.33D-01  1.09D+00
 E= -155.697041989976     Delta-E=       -0.086026515233 Rises=F Damp=F
 DIIS: error= 4.58D-03 at cycle   3 NSaved=   3.
 NSaved= 3 IEnMin= 3 EnMin= -155.697041989976     IErMin= 3 ErrMin= 4.58D-03
 ErrMax= 4.58D-03  0.00D+00 EMaxC= 1.00D-01 BMatC= 2.12D-03 BMatP= 2.95D-02
 IDIUse=3 WtCom= 9.54D-01 WtEn= 4.58D-02
 Coeff-Com: -0.115D+00 0.237D+00 0.878D+00
 Coeff-En:   0.000D+00 0.000D+00 0.100D+01
 Coeff:     -0.110D+00 0.226D+00 0.883D+00
 Gap=     0.294 Goal=   None    Shift=    0.000
 RMSDP=7.36D-05 MaxDP=4.29D-03 DE=-8.60D-02 OVMax= 2.53D-02

 Cycle   4  Pass 0  IDiag  1:
 RMSU=  5.56D-05    CP:  9.29D-01  1.18D+00  9.25D-01
 E= -155.698621721565     Delta-E=       -0.001579731589 Rises=F Damp=F
 DIIS: error= 3.05D-03 at cycle   4 NSaved=   4.
 NSaved= 4 IEnMin= 4 EnMin= -155.698621721565     IErMin= 4 ErrMin= 3.05D-03
 ErrMax= 3.05D-03  0.00D+00 EMaxC= 1.00D-01 BMatC= 7.37D-04 BMatP= 2.12D-03
 IDIUse=3 WtCom= 9.69D-01 WtEn= 3.05D-02
 Coeff-Com: -0.515D-01 0.839D-01 0.472D+00 0.495D+00
 Coeff-En:   0.000D+00 0.000D+00 0.165D+00 0.835D+00
 Coeff:     -0.499D-01 0.814D-01 0.463D+00 0.506D+00
 Gap=     0.294 Goal=   None    Shift=    0.000
 RMSDP=3.05D-05 MaxDP=1.55D-03 DE=-1.58D-03 OVMax= 9.62D-03

 Cycle   5  Pass 0  IDiag  1:
 RMSU=  1.55D-05    CP:  9.29D-01  1.18D+00  9.70D-01  5.77D-01
 E= -155.699327941179     Delta-E=       -0.000706219614 Rises=F Damp=F
 DIIS: error= 2.56D-04 at cycle   5 NSaved=   5.
 NSaved= 5 IEnMin= 5 EnMin= -155.699327941179     IErMin= 5 ErrMin= 2.56D-04
 ErrMax= 2.56D-04  0.00D+00 EMaxC= 1.00D-01 BMatC= 4.22D-06 BMatP= 7.37D-04
 IDIUse=3 WtCom= 9.97D-01 WtEn= 2.56D-03
 Coeff-Com: -0.255D-02 0.185D-02 0.340D-01 0.882D-01 0.879D+00
 Coeff-En:   0.000D+00 0.000D+00 0.000D+00 0.000D+00 0.100D+01
 Coeff:     -0.254D-02 0.185D-02 0.339D-01 0.880D-01 0.879D+00
 Gap=     0.294 Goal=   None    Shift=    0.000
 RMSDP=3.89D-06 MaxDP=1.32D-04 DE=-7.06D-04 OVMax= 1.17D-03

 Initial convergence to 1.0D-05 achieved.  Increase integral accuracy.
 Cycle   6  Pass 1  IDiag  1:
 E= -155.699346971975     Delta-E=       -0.000019030796 Rises=F Damp=F
 DIIS: error= 5.58D-05 at cycle   1 NSaved=   1.
 NSaved= 1 IEnMin= 1 EnMin= -155.699346971975     IErMin= 1 ErrMin= 5.58D-05
 ErrMax= 5.58D-05  0.00D+00 EMaxC= 1.00D-01 BMatC= 4.75D-07 BMatP= 4.75D-07
 IDIUse=1 WtCom= 1.00D+00 WtEn= 0.00D+00
 Coeff-Com:  0.100D+01
 Coeff:      0.100D+01
 Gap=     0.294 Goal=   None    Shift=    0.000
 RMSDP=3.89D-06 MaxDP=1.32D-04 DE=-1.90D-05 OVMax= 2.70D-04

 Cycle   7  Pass 1  IDiag  1:
 RMSU=  1.52D-05    CP:  1.00D+00
 E= -155.699347302850     Delta-E=       -0.000000330875 Rises=F Damp=F
 DIIS: error= 2.02D-05 at cycle   2 NSaved=   2.
 NSaved= 2 IEnMin= 2 EnMin= -155.699347302850     IErMin= 2 ErrMin= 2.02D-05
 ErrMax= 2.02D-05  0.00D+00 EMaxC= 1.00D-01 BMatC= 2.61D-08 BMatP= 4.75D-07
 IDIUse=1 WtCom= 1.00D+00 WtEn= 0.00D+00
 Coeff-Com:  0.663D-01 0.934D+00
 Coeff:      0.663D-01 0.934D+00
 Gap=     0.294 Goal=   None    Shift=    0.000
 RMSDP=6.66D-07 MaxDP=2.37D-05 DE=-3.31D-07 OVMax= 1.49D-04

 Cycle   8  Pass 1  IDiag  1:
 RMSU=  4.66D-07    CP:  1.00D+00  1.03D+00
 E= -155.699347317617     Delta-E=       -0.000000014767 Rises=F Damp=F
 DIIS: error= 1.65D-05 at cycle   3 NSaved=   3.
 NSaved= 3 IEnMin= 3 EnMin= -155.699347317617     IErMin= 3 ErrMin= 1.65D-05
 ErrMax= 1.65D-05  0.00D+00 EMaxC= 1.00D-01 BMatC= 2.41D-08 BMatP= 2.61D-08
 IDIUse=1 WtCom= 1.00D+00 WtEn= 0.00D+00
 Coeff-Com: -0.182D-01 0.490D+00 0.528D+00
 Coeff:     -0.182D-01 0.490D+00 0.528D+00
 Gap=     0.294 Goal=   None    Shift=    0.000
 RMSDP=2.10D-07 MaxDP=1.34D-05 DE=-1.48D-08 OVMax= 7.75D-05

 Cycle   9  Pass 1  IDiag  1:
 RMSU=  1.91D-07    CP:  1.00D+00  1.04D+00  8.81D-01
 E= -155.699347341547     Delta-E=       -0.000000023930 Rises=F Damp=F
 DIIS: error= 3.23D-06 at cycle   4 NSaved=   4.
 NSaved= 4 IEnMin= 4 EnMin= -155.699347341547     IErMin= 4 ErrMin= 3.23D-06
 ErrMax= 3.23D-06  0.00D+00 EMaxC= 1.00D-01 BMatC= 2.73D-10 BMatP= 2.41D-08
 IDIUse=1 WtCom= 1.00D+00 WtEn= 0.00D+00
 Coeff-Com: -0.809D-02 0.448D-02 0.565D-01 0.947D+00
 Coeff:     -0.809D-02 0.448D-02 0.565D-01 0.947D+00
 Gap=     0.294 Goal=   None    Shift=    0.000
 RMSDP=5.68D-08 MaxDP=1.82D-06 DE=-2.39D-08 OVMax= 1.85D-05

 Cycle  10  Pass 1  IDiag  1:
 RMSU=  3.79D-08    CP:  1.00D+00  1.04D+00  9.49D-01  1.13D+00
 E= -155.699347342236     Delta-E=       -0.000000000689 Rises=F Damp=F
 DIIS: error= 5.98D-07 at cycle   5 NSaved=   5.
 NSaved= 5 IEnMin= 5 EnMin= -155.699347342236     IErMin= 5 ErrMin= 5.98D-07
 ErrMax= 5.98D-07  0.00D+00 EMaxC= 1.00D-01 BMatC= 4.52D-11 BMatP= 2.73D-10
 IDIUse=1 WtCom= 1.00D+00 WtEn= 0.00D+00
 Coeff-Com:  0.653D-03-0.480D-01-0.580D-01 0.170D+00 0.936D+00
 Coeff:      0.653D-03-0.480D-01-0.580D-01 0.170D+00 0.936D+00
 Gap=     0.294 Goal=   None    Shift=    0.000
 RMSDP=2.16D-08 MaxDP=9.60D-07 DE=-6.89D-10 OVMax= 5.35D-06

 Cycle  11  Pass 1  IDiag  1:
 RMSU=  1.23D-08    CP:  1.00D+00  1.04D+00  9.62D-01  1.20D+00  1.19D+00
 E= -155.699347342310     Delta-E=       -0.000000000074 Rises=F Damp=F
 DIIS: error= 1.73D-07 at cycle   6 NSaved=   6.
 NSaved= 6 IEnMin= 6 EnMin= -155.699347342310     IErMin= 6 ErrMin= 1.73D-07
 ErrMax= 1.73D-07  0.00D+00 EMaxC= 1.00D-01 BMatC= 4.42D-12 BMatP= 4.52D-11
 IDIUse=1 WtCom= 1.00D+00 WtEn= 0.00D+00
 Coeff-Com:  0.632D-03-0.204D-01-0.288D-01 0.349D-01 0.386D+00 0.627D+00
 Coeff:      0.632D-03-0.204D-01-0.288D-01 0.349D-01 0.386D+00 0.627D+00
 Gap=     0.294 Goal=   None    Shift=    0.000
 RMSDP=3.32D-09 MaxDP=1.93D-07 DE=-7.42D-11 OVMax= 1.03D-06

 SCF Done:  E(RB2PLYPD3) =  -155.699347342     A.U. after   11 cycles
            NFock= 11  Conv=0.33D-08     -V/T= 2.0041
 KE= 1.550681539602D+02 PE=-5.688399024184D+02 EE= 1.540931879007D+02
 Leave Link  502 at Wed Aug 26 21:27:29 2020, MaxMem=  2097152000 cpu:      1265.1
 (Enter /opt/cluster/programs/g09/g09_d.01/g09/l801.exe)
 DoSCS=T DFT=T ScalE2(SS,OS)=  0.270000  0.270000
 ExpMin= 7.60D-02 ExpMax= 6.70D+04 ExpMxC= 6.47D+02 IAcc=3 IRadAn=         5 AccDes= 0.00D+00
 HarFok:  IExCor=  205 AccDes= 0.00D+00 IRadAn=         5 IDoV=-2 UseB2=F ITyADJ=14
 ICtDFT= 12500011 ScaDFX=  1.000000  1.000000  1.000000  1.000000
 Largest valence mixing into a core orbital is  1.13D-04
 Largest core mixing into a valence orbital is  2.00D-05
 Range of M.O.s used for correlation:     5   408
 NBasis=   408 NAE=    15 NBE=    15 NFC=     4 NFV=     0
 NROrb=    404 NOA=    11 NOB=    11 NVA=   393 NVB=   393

 **** Warning!!: The largest alpha MO coefficient is  0.28211969D+02

 Leave Link  801 at Wed Aug 26 21:27:30 2020, MaxMem=  2097152000 cpu:         0.8
 (Enter /opt/cluster/programs/g09/g09_d.01/g09/l906.exe)
 DoSCS=T DFT=T ScalE2(SS,OS)=  0.270000  0.270000
 FulOut=F Deriv=F AODrv=F NAtomX=    10
   MMem=         881  MDisk=          11 MDiskD=          11
  W3Min=     2152854 MinDsk=     3857222 NBas6D=         498
 NBas2D=      125763    NTT=      124251    LW2=     4508827
    MDV=  2096382924 MDiskM=        9345 NBas2p=      117407
 Fully direct method using O(OVN) memory.
 IMap=   1   2   3   4   5   6   7   8   9  10  11
 JobTyp=1 Pass  1:  I=   1 to  11 NPSUse=  8 ParTrn=T ParDer=T DoDerP=F.
 Spin components of T(2) and E(2):
     alpha-alpha T2 =       0.4212893126D-01 E2=     -0.2544190586D-01
     alpha-beta  T2 =       0.2727900387D+00 E2=     -0.1750683006D+00
     beta-beta   T2 =       0.4212893126D-01 E2=     -0.2544190586D-01
 The integrals were generated   1 times.
 E2(B2PLYPD3) =    -0.2259521123D+00 E(B2PLYPD3) =    -0.15592529945466D+03
 Leave Link  906 at Wed Aug 26 21:28:59 2020, MaxMem=  2097152000 cpu:       711.3
 (Enter /opt/cluster/programs/g09/g09_d.01/g09/l601.exe)
 Copying SCF densities to generalized density rwf, IOpCl= 0 IROHF=0.

 **********************************************************************

            Population analysis using the SCF density.

 **********************************************************************

 Orbital symmetries:
       Occupied  (A) (A) (A) (A) (A) (A) (A) (A) (A) (A) (A) (A)
                 (A) (A) (A)
       Virtual   (A) (A) (A) (A) (A) (A) (A) (A) (A) (A) (A) (A)
                 (A) (A) (A) (A) (A) (A) (A) (A) (A) (A) (A) (A)
                 (A) (A) (A) (A) (A) (A) (A) (A) (A) (A) (A) (A)
                 (A) (A) (A) (A) (A) (A) (A) (A) (A) (A) (A) (A)
                 (A) (A) (A) (A) (A) (A) (A) (A) (A) (A) (A) (A)
                 (A) (A) (A) (A) (A) (A) (A) (A) (A) (A) (A) (A)
                 (A) (A) (A) (A) (A) (A) (A) (A) (A) (A) (A) (A)
                 (A) (A) (A) (A) (A) (A) (A) (A) (A) (A) (A) (A)
                 (A) (A) (A) (A) (A) (A) (A) (A) (A) (A) (A) (A)
                 (A) (A) (A) (A) (A) (A) (A) (A) (A) (A) (A) (A)
                 (A) (A) (A) (A) (A) (A) (A) (A) (A) (A) (A) (A)
                 (A) (A) (A) (A) (A) (A) (A) (A) (A) (A) (A) (A)
                 (A) (A) (A) (A) (A) (A) (A) (A) (A) (A) (A) (A)
                 (A) (A) (A) (A) (A) (A) (A) (A) (A) (A) (A) (A)
                 (A) (A) (A) (A) (A) (A) (A) (A) (A) (A) (A) (A)
                 (A) (A) (A) (A) (A) (A) (A) (A) (A) (A) (A) (A)
                 (A) (A) (A) (A) (A) (A) (A) (A) (A) (A) (A) (A)
                 (A) (A) (A) (A) (A) (A) (A) (A) (A) (A) (A) (A)
                 (A) (A) (A) (A) (A) (A) (A) (A) (A) (A) (A) (A)
                 (A) (A) (A) (A) (A) (A) (A) (A) (A) (A) (A) (A)
                 (A) (A) (A) (A) (A) (A) (A) (A) (A) (A) (A) (A)
                 (A) (A) (A) (A) (A) (A) (A) (A) (A) (A) (A) (A)
                 (A) (A) (A) (A) (A) (A) (A) (A) (A) (A) (A) (A)
                 (A) (A) (A) (A) (A) (A) (A) (A) (A) (A) (A) (A)
                 (A) (A) (A) (A) (A) (A) (A) (A) (A) (A) (A) (A)
                 (A) (A) (A) (A) (A) (A) (A) (A) (A) (A) (A) (A)
                 (A) (A) (A) (A) (A) (A) (A) (A) (A) (A) (A) (A)
                 (A) (A) (A) (A) (A) (A) (A) (A) (A) (A) (A) (A)
                 (A) (A) (A) (A) (A) (A) (A) (A) (A) (A) (A) (A)
                 (A) (A) (A) (A) (A) (A) (A) (A) (A) (A) (A) (A)
                 (A) (A) (A) (A) (A) (A) (A) (A) (A) (A) (A) (A)
                 (A) (A) (A) (A) (A) (A) (A) (A) (A) (A) (A) (A)
                 (A) (A) (A) (A) (A) (A) (A) (A) (A)
 The electronic state is 1-A.
 Alpha  occ. eigenvalues --  -10.62663 -10.62362 -10.62168 -10.61429  -0.93146
 Alpha  occ. eigenvalues --   -0.84851  -0.69846  -0.64018  -0.54521  -0.53780
 Alpha  occ. eigenvalues --   -0.46784  -0.44987  -0.41074  -0.38277  -0.27725
 Alpha virt. eigenvalues --    0.01724   0.06991   0.07384   0.07966   0.09617
 Alpha virt. eigenvalues --    0.11634   0.12489   0.14536   0.15818   0.16244
 Alpha virt. eigenvalues --    0.18768   0.20450   0.21500   0.22676   0.23732
 Alpha virt. eigenvalues --    0.26853   0.27096   0.29114   0.31459   0.35070
 Alpha virt. eigenvalues --    0.35868   0.36753   0.37469   0.37848   0.40212
 Alpha virt. eigenvalues --    0.43125   0.43319   0.45592   0.47144   0.48669
 Alpha virt. eigenvalues --    0.48900   0.49757   0.51305   0.55364   0.57287
 Alpha virt. eigenvalues --    0.58596   0.60685   0.64578   0.66681   0.67744
 Alpha virt. eigenvalues --    0.68906   0.72059   0.76801   0.77052   0.78927
 Alpha virt. eigenvalues --    0.79661   0.80945   0.81661   0.82494   0.84344
 Alpha virt. eigenvalues --    0.84569   0.85517   0.86407   0.86968   0.91071
 Alpha virt. eigenvalues --    0.92565   0.93496   0.94378   0.95494   0.96134
 Alpha virt. eigenvalues --    0.98859   0.99118   1.00119   1.03377   1.04692
 Alpha virt. eigenvalues --    1.05779   1.09144   1.10399   1.12058   1.12529
 Alpha virt. eigenvalues --    1.14034   1.18432   1.19158   1.20894   1.23068
 Alpha virt. eigenvalues --    1.24748   1.27086   1.33325   1.34570   1.36225
 Alpha virt. eigenvalues --    1.36621   1.40658   1.47215   1.61995   1.64676
 Alpha virt. eigenvalues --    1.65583   1.66996   1.69228   1.71920   1.72856
 Alpha virt. eigenvalues --    1.74066   1.80282   1.83110   1.84712   1.86928
 Alpha virt. eigenvalues --    1.89895   1.91133   1.91299   1.93655   1.94970
 Alpha virt. eigenvalues --    1.95206   1.99856   2.00513   2.01367   2.01869
 Alpha virt. eigenvalues --    2.03025   2.06325   2.07248   2.08456   2.09788
 Alpha virt. eigenvalues --    2.10139   2.11351   2.15016   2.18172   2.19026
 Alpha virt. eigenvalues --    2.19628   2.22070   2.23014   2.26088   2.28372
 Alpha virt. eigenvalues --    2.29974   2.33180   2.33791   2.38469   2.42724
 Alpha virt. eigenvalues --    2.44128   2.45221   2.45912   2.47561   2.49322
 Alpha virt. eigenvalues --    2.52705   2.53710   2.56339   2.56657   2.58335
 Alpha virt. eigenvalues --    2.59495   2.61307   2.63382   2.63699   2.65871
 Alpha virt. eigenvalues --    2.66286   2.70088   2.70130   2.71465   2.71717
 Alpha virt. eigenvalues --    2.73207   2.75462   2.77377   2.77614   2.78913
 Alpha virt. eigenvalues --    2.80707   2.87951   2.89511   2.91674   2.92901
 Alpha virt. eigenvalues --    2.94459   3.02868   3.05634   3.07799   3.09639
 Alpha virt. eigenvalues --    3.12475   3.13509   3.25378   3.33264   3.34856
 Alpha virt. eigenvalues --    3.37593   3.39614   3.41356   3.43377   3.47131
 Alpha virt. eigenvalues --    3.48031   3.48613   3.52003   3.53588   3.58200
 Alpha virt. eigenvalues --    3.59329   3.61821   3.63720   3.69332   3.75932
 Alpha virt. eigenvalues --    3.78003   3.82855   3.85736   3.89398   3.90492
 Alpha virt. eigenvalues --    3.94862   3.95718   3.99940   4.05116   4.13849
 Alpha virt. eigenvalues --    4.16621   4.16934   4.20881   4.26685   4.46381
 Alpha virt. eigenvalues --    4.54264   4.56552   4.58618   4.87935   4.99889
 Alpha virt. eigenvalues --    5.01035   5.04208   5.05432   5.06656   5.07769
 Alpha virt. eigenvalues --    5.11659   5.17369   5.20767   5.28096   5.30704
 Alpha virt. eigenvalues --    5.33129   5.39955   5.42091   5.43641   5.48792
 Alpha virt. eigenvalues --    5.52812   5.54678   5.56680   5.59163   5.63840
 Alpha virt. eigenvalues --    5.65382   5.71370   5.74148   5.74477   5.77170
 Alpha virt. eigenvalues --    5.78692   5.80550   5.82099   5.84968   5.85682
 Alpha virt. eigenvalues --    5.88837   5.89794   6.01157   6.02125   6.03534
 Alpha virt. eigenvalues --    6.04177   6.06126   6.07901   6.09184   6.11569
 Alpha virt. eigenvalues --    6.13685   6.14956   6.16104   6.18490   6.20052
 Alpha virt. eigenvalues --    6.21683   6.22859   6.26484   6.30313   6.32330
 Alpha virt. eigenvalues --    6.33649   6.34729   6.36643   6.38034   6.39366
 Alpha virt. eigenvalues --    6.39551   6.40212   6.42237   6.48360   6.50027
 Alpha virt. eigenvalues --    6.51146   6.53522   6.54481   6.54740   6.60707
 Alpha virt. eigenvalues --    6.62898   6.64622   6.66618   6.69050   6.78841
 Alpha virt. eigenvalues --    6.79925   6.85272   6.86485   6.89288   6.90099
 Alpha virt. eigenvalues --    6.92700   6.94776   6.98545   7.02564   7.07250
 Alpha virt. eigenvalues --    7.12673   7.14951   7.17321   7.20256   7.22416
 Alpha virt. eigenvalues --    7.24781   7.25342   7.35981   7.37107   7.38819
 Alpha virt. eigenvalues --    7.46424   7.49366   7.56213   7.56923   7.59539
 Alpha virt. eigenvalues --    7.61338   7.63601   7.64605   7.65115   7.67185
 Alpha virt. eigenvalues --    7.70516   7.72391   7.75215   7.75908   7.76717
 Alpha virt. eigenvalues --    7.78966   7.83107   7.86611   7.91330   7.93640
 Alpha virt. eigenvalues --    7.95098   7.96942   8.04854   8.10534   8.13432
 Alpha virt. eigenvalues --    8.14560   8.15610   8.17511   8.20552   8.21795
 Alpha virt. eigenvalues --    8.28088   8.30810   8.31841   8.33780   8.34781
 Alpha virt. eigenvalues --    8.35953   8.37408   8.38049   8.41039   8.42346
 Alpha virt. eigenvalues --    8.43720   8.47039   8.51141   8.52628   8.55058
 Alpha virt. eigenvalues --    8.58071   8.58986   8.61218   8.65382   8.69577
 Alpha virt. eigenvalues --    8.72638   8.76954   8.77547   8.78342   8.84566
 Alpha virt. eigenvalues --    8.85686   8.90599   8.92545   9.02736   9.09918
 Alpha virt. eigenvalues --    9.18923   9.21948   9.28618   9.33415   9.44026
 Alpha virt. eigenvalues --    9.53691   9.62551   9.71585   9.76351   9.84408
 Alpha virt. eigenvalues --    9.86890   9.87569   9.89336   9.93138   9.97337
 Alpha virt. eigenvalues --   10.07723  10.11095  10.19430  10.24412  10.26221
 Alpha virt. eigenvalues --   10.31960  10.36304  10.52951  10.70473  10.81529
 Alpha virt. eigenvalues --   10.91171  11.05915  11.38563  11.64871  11.93790
 Alpha virt. eigenvalues --   11.99836  12.85692  12.99529  13.10671  13.16948
 Alpha virt. eigenvalues --   28.60991  28.76772  29.45399  29.65970 148.19874
 Alpha virt. eigenvalues --  148.34427 149.04381 149.26534
          Condensed to atoms (all electrons):
               1          2          3          4          5          6
     1  C    4.844081   0.618766  -0.080867  -0.002143   0.421612   0.420632
     2  C    0.618766   4.836425   0.400724  -0.081524  -0.041405  -0.047871
     3  C   -0.080867   0.400724   4.832419   0.616062   0.007117  -0.008905
     4  C   -0.002143  -0.081524   0.616062   4.843851  -0.000611   0.000421
     5  H    0.421612  -0.041405   0.007117  -0.000611   0.578879  -0.044513
     6  H    0.420632  -0.047871  -0.008905   0.000421  -0.044513   0.608251
     7  H   -0.049870   0.409980  -0.060979  -0.000953  -0.008301   0.008025
     8  H   -0.002058  -0.059775   0.411693  -0.051206  -0.000041   0.004838
     9  H    0.000259  -0.007594  -0.049430   0.424391  -0.000029   0.000051
    10  H   -0.000611   0.007162  -0.044283   0.425847   0.000023  -0.000042
               7          8          9         10
     1  C   -0.049870  -0.002058   0.000259  -0.000611
     2  C    0.409980  -0.059775  -0.007594   0.007162
     3  C   -0.060979   0.411693  -0.049430  -0.044283
     4  C   -0.000953  -0.051206   0.424391   0.425847
     5  H   -0.008301  -0.000041  -0.000029   0.000023
     6  H    0.008025   0.004838   0.000051  -0.000042
     7  H    0.634834   0.006947   0.004716  -0.000100
     8  H    0.006947   0.638168   0.008278  -0.009808
     9  H    0.004716   0.008278   0.600882  -0.045118
    10  H   -0.000100  -0.009808  -0.045118   0.583200
 Mulliken charges:
               1
     1  C   -0.169799
     2  C   -0.034886
     3  C   -0.023552
     4  C   -0.174136
     5  H    0.087270
     6  H    0.059113
     7  H    0.055701
     8  H    0.052964
     9  H    0.063596
    10  H    0.083730
 Sum of Mulliken charges =   0.00000
 Mulliken charges with hydrogens summed into heavy atoms:
               1
     1  C   -0.023417
     2  C    0.020815
     3  C    0.029412
     4  C   -0.026811
 Electronic spatial extent (au):  <R**2>=            334.6870
 Charge=              0.0000 electrons
 Dipole moment (field-independent basis, Debye):
    X=              0.0023    Y=             -0.0083    Z=              0.0501  Tot=              0.0508
 Quadrupole moment (field-independent basis, Debye-Ang):
   XX=            -23.3770   YY=            -23.2443   ZZ=            -29.2851
   XY=             -0.0004   XZ=             -0.2180   YZ=              0.0158
 Traceless Quadrupole moment (field-independent basis, Debye-Ang):
   XX=              1.9251   YY=              2.0578   ZZ=             -3.9829
   XY=             -0.0004   XZ=             -0.2180   YZ=              0.0158
 Octapole moment (field-independent basis, Debye-Ang**2):
  XXX=              0.3628  YYY=              0.0135  ZZZ=              0.0700  XYY=             -0.2508
  XXY=             -0.1174  XXZ=              0.3405  XZZ=             -0.1808  YZZ=             -0.0513
  YYZ=              0.1048  XYZ=              0.5193
 Hexadecapole moment (field-independent basis, Debye-Ang**3):
 XXXX=           -340.9474 YYYY=            -65.6925 ZZZZ=            -36.8293 XXXY=             -7.3067
 XXXZ=             -1.4590 YYYX=              1.6506 YYYZ=              0.1085 ZZZX=             -0.4103
 ZZZY=              0.0078 XXYY=            -69.2018 XXZZ=            -77.2368 YYZZ=            -19.2659
 XXYZ=             -0.1950 YYXZ=             -0.3670 ZZXY=              0.4392
 N-N= 1.039792132151D+02 E-N=-5.688398905116D+02  KE= 1.550681539602D+02
 Leave Link  601 at Wed Aug 26 21:28:59 2020, MaxMem=  2097152000 cpu:         0.7
 (Enter /opt/cluster/programs/g09/g09_d.01/g09/l9999.exe)
 1\1\GINC-NODE29\SP\RB2PLYPD3-FC\def2QZVP\C4H6\BOITTIER\26-Aug-2020\0\\
 #p B2PLYPD3/Def2QZVP\\butadiene\\0,1\C,0,-3.838349,0.222649,0.00422\C,
 0,-2.718303,-0.508038,0.045877\C,0,-1.388881,0.06239,0.033927\C,0,-0.2
 6621,-0.645188,0.023645\H,0,-4.861685,-0.186546,0.056394\H,0,-3.752322
 ,1.328925,-0.081361\H,0,-2.782511,-1.59029,0.139576\H,0,-1.304317,1.14
 4019,0.002396\H,0,-0.293902,-1.718772,-0.054745\H,0,0.724073,-0.178989
 ,0.002641\\Version=ES64L-G09RevD.01\State=1-A\HF=-155.6993473\MP2=-155
 .9252995\RMSD=3.323e-09\PG=C01 [X(C4H6)]\\@


 I DON'T PRETEND TO UNDERSTAND THE UNIVERSE --
 IT'S A GREAT DEAL BIGGER THAN I AM.
       -- ATTR. TO WILLIAM ALLINGHAM (1828-89)
 Job cpu time:       0 days  0 hours 33 minutes 11.5 seconds.
 File lengths (MBytes):  RWF=     92 Int=      0 D2E=      0 Chk=      9 Scr=      1
 Normal termination of Gaussian 09 at Wed Aug 26 21:29:00 2020.
