 Entering Gaussian System, Link 0=/opt/cluster/programs/g09/g09_d.01/g09//g09
 Input=/home/boittier/MDCM/nms_sampling/butadiene_geom.xyz.dir/energies/butadiene_1311_energy.com
 Output=/scratch/boittier/butadiene_1311_energy/butadiene_1311_energy.out
 Initial command:
 /opt/cluster/programs/g09/g09_d.01/g09/l1.exe "/scratch/boittier/butadiene_1311_energy/Gau-13351.inp" -scrdir="/scratch/boittier/butadiene_1311_energy/"
 Entering Link 1 = /opt/cluster/programs/g09/g09_d.01/g09/l1.exe PID=     13352.
  
 Copyright (c) 1988,1990,1992,1993,1995,1998,2003,2009,2013,
            Gaussian, Inc.  All Rights Reserved.
  
 This is part of the Gaussian(R) 09 program.  It is based on
 the Gaussian(R) 03 system (copyright 2003, Gaussian, Inc.),
 the Gaussian(R) 98 system (copyright 1998, Gaussian, Inc.),
 the Gaussian(R) 94 system (copyright 1995, Gaussian, Inc.),
 the Gaussian 92(TM) system (copyright 1992, Gaussian, Inc.),
 the Gaussian 90(TM) system (copyright 1990, Gaussian, Inc.),
 the Gaussian 88(TM) system (copyright 1988, Gaussian, Inc.),
 the Gaussian 86(TM) system (copyright 1986, Carnegie Mellon
 University), and the Gaussian 82(TM) system (copyright 1983,
 Carnegie Mellon University). Gaussian is a federally registered
 trademark of Gaussian, Inc.
  
 This software contains proprietary and confidential information,
 including trade secrets, belonging to Gaussian, Inc.
  
 This software is provided under written license and may be
 used, copied, transmitted, or stored only in accord with that
 written license.
  
 The following legend is applicable only to US Government
 contracts under FAR:
  
                    RESTRICTED RIGHTS LEGEND
  
 Use, reproduction and disclosure by the US Government is
 subject to restrictions as set forth in subparagraphs (a)
 and (c) of the Commercial Computer Software - Restricted
 Rights clause in FAR 52.227-19.
  
 Gaussian, Inc.
 340 Quinnipiac St., Bldg. 40, Wallingford CT 06492
  
  
 ---------------------------------------------------------------
 Warning -- This program may not be used in any manner that
 competes with the business of Gaussian, Inc. or will provide
 assistance to any competitor of Gaussian, Inc.  The licensee
 of this program is prohibited from giving any competitor of
 Gaussian, Inc. access to this program.  By using this program,
 the user acknowledges that Gaussian, Inc. is engaged in the
 business of creating and licensing software in the field of
 computational chemistry and represents and warrants to the
 licensee that it is not a competitor of Gaussian, Inc. and that
 it will not use this program in any manner prohibited above.
 ---------------------------------------------------------------
  

 Cite this work as:
 Gaussian 09, Revision D.01,
 M. J. Frisch, G. W. Trucks, H. B. Schlegel, G. E. Scuseria, 
 M. A. Robb, J. R. Cheeseman, G. Scalmani, V. Barone, B. Mennucci, 
 G. A. Petersson, H. Nakatsuji, M. Caricato, X. Li, H. P. Hratchian, 
 A. F. Izmaylov, J. Bloino, G. Zheng, J. L. Sonnenberg, M. Hada, 
 M. Ehara, K. Toyota, R. Fukuda, J. Hasegawa, M. Ishida, T. Nakajima, 
 Y. Honda, O. Kitao, H. Nakai, T. Vreven, J. A. Montgomery, Jr., 
 J. E. Peralta, F. Ogliaro, M. Bearpark, J. J. Heyd, E. Brothers, 
 K. N. Kudin, V. N. Staroverov, T. Keith, R. Kobayashi, J. Normand, 
 K. Raghavachari, A. Rendell, J. C. Burant, S. S. Iyengar, J. Tomasi, 
 M. Cossi, N. Rega, J. M. Millam, M. Klene, J. E. Knox, J. B. Cross, 
 V. Bakken, C. Adamo, J. Jaramillo, R. Gomperts, R. E. Stratmann, 
 O. Yazyev, A. J. Austin, R. Cammi, C. Pomelli, J. W. Ochterski, 
 R. L. Martin, K. Morokuma, V. G. Zakrzewski, G. A. Voth, 
 P. Salvador, J. J. Dannenberg, S. Dapprich, A. D. Daniels, 
 O. Farkas, J. B. Foresman, J. V. Ortiz, J. Cioslowski, 
 and D. J. Fox, Gaussian, Inc., Wallingford CT, 2013.
 
 ******************************************
 Gaussian 09:  ES64L-G09RevD.01 24-Apr-2013
                26-Aug-2020 
 ******************************************
 %chk=/home/boittier/MDCM/nms_sampling/butadiene_geom.xyz.dir/butadiene_1311.chk
 %nproc=8
 Will use up to    8 processors via shared memory.
 %mem=16000MB
 --------------------
 #p B2PLYPD3/Def2QZVP
 --------------------
 1/38=1/1;
 2/12=2,17=6,18=5,40=1/2;
 3/5=45,7=101,11=9,16=1,25=1,30=1,74=-60/1,2,3;
 4//1;
 5/5=2,38=5/2;
 8/10=1/1;
 9/16=-3/6;
 6/7=2,8=2,9=2,10=2/1;
 99/5=1,9=1/99;
 Leave Link    1 at Wed Aug 26 09:05:18 2020, MaxMem=  2097152000 cpu:         0.2
 (Enter /opt/cluster/programs/g09/g09_d.01/g09/l101.exe)
 ---------
 butadiene
 ---------
 Symbolic Z-matrix:
 Charge =  0 Multiplicity = 1
 C                    -3.85219   0.22269  -0.00111 
 C                    -2.72158  -0.48818   0.07172 
 C                    -1.38743   0.08008   0.02669 
 C                    -0.25239  -0.66035   0.01074 
 H                    -4.76147  -0.30778  -0.0349 
 H                    -3.87247   1.28345  -0.13175 
 H                    -2.72077  -1.55435   0.1346 
 H                    -1.31411   1.13455   0.15032 
 H                    -0.36154  -1.73421  -0.01253 
 H                     0.78785  -0.26384  -0.03032 
 
 NAtoms=     10 NQM=       10 NQMF=       0 NMMI=      0 NMMIF=      0
                NMic=       0 NMicF=      0.
                    Isotopes and Nuclear Properties:
 (Nuclear quadrupole moments (NQMom) in fm**2, nuclear magnetic moments (NMagM)
  in nuclear magnetons)

  Atom         1           2           3           4           5           6           7           8           9          10
 IAtWgt=          12          12          12          12           1           1           1           1           1           1
 AtmWgt=  12.0000000  12.0000000  12.0000000  12.0000000   1.0078250   1.0078250   1.0078250   1.0078250   1.0078250   1.0078250
 NucSpn=           0           0           0           0           1           1           1           1           1           1
 AtZEff=   0.0000000   0.0000000   0.0000000   0.0000000   0.0000000   0.0000000   0.0000000   0.0000000   0.0000000   0.0000000
 NQMom=    0.0000000   0.0000000   0.0000000   0.0000000   0.0000000   0.0000000   0.0000000   0.0000000   0.0000000   0.0000000
 NMagM=    0.0000000   0.0000000   0.0000000   0.0000000   2.7928460   2.7928460   2.7928460   2.7928460   2.7928460   2.7928460
 AtZNuc=   6.0000000   6.0000000   6.0000000   6.0000000   1.0000000   1.0000000   1.0000000   1.0000000   1.0000000   1.0000000
 Leave Link  101 at Wed Aug 26 09:05:18 2020, MaxMem=  2097152000 cpu:         0.5
 (Enter /opt/cluster/programs/g09/g09_d.01/g09/l202.exe)
                          Input orientation:                          
 ---------------------------------------------------------------------
 Center     Atomic      Atomic             Coordinates (Angstroms)
 Number     Number       Type             X           Y           Z
 ---------------------------------------------------------------------
      1          6           0       -3.852191    0.222687   -0.001107
      2          6           0       -2.721578   -0.488182    0.071715
      3          6           0       -1.387434    0.080076    0.026689
      4          6           0       -0.252390   -0.660349    0.010741
      5          1           0       -4.761465   -0.307779   -0.034895
      6          1           0       -3.872467    1.283449   -0.131752
      7          1           0       -2.720768   -1.554349    0.134596
      8          1           0       -1.314109    1.134550    0.150316
      9          1           0       -0.361541   -1.734213   -0.012533
     10          1           0        0.787845   -0.263843   -0.030318
 ---------------------------------------------------------------------
                    Distance matrix (angstroms):
                    1          2          3          4          5
     1  C    0.000000
     2  C    1.337506   0.000000
     3  C    2.469036   1.450822   0.000000
     4  C    3.706543   2.475934   1.355289   0.000000
     5  H    1.053240   2.050622   3.396809   4.523068   0.000000
     6  H    1.068969   2.122409   2.765610   4.111400   1.825296
     7  H    2.111016   1.068020   2.112053   2.628206   2.397313
     8  H    2.701163   2.149513   1.064225   2.090070   3.741508
     9  H    4.001778   2.670106   2.084620   1.079648   4.625424
    10  H    4.665565   3.518066   2.203036   1.113998   5.549486
                    6          7          8          9         10
     6  H    0.000000
     7  H    3.074158   0.000000
     8  H    2.578164   3.034652   0.000000
     9  H    4.631101   2.370643   3.027161   0.000000
    10  H    4.911508   3.742054   2.531075   1.866385   0.000000
 Stoichiometry    C4H6
 Framework group  C1[X(C4H6)]
 Deg. of freedom    24
 Full point group                 C1      NOp   1
 Largest Abelian subgroup         C1      NOp   1
 Largest concise Abelian subgroup C1      NOp   1
                         Standard orientation:                         
 ---------------------------------------------------------------------
 Center     Atomic      Atomic             Coordinates (Angstroms)
 Number     Number       Type             X           Y           Z
 ---------------------------------------------------------------------
      1          6           0        1.851371   -0.106371   -0.016493
      2          6           0        0.610357    0.389111    0.040986
      3          6           0       -0.598466   -0.412547    0.009754
      4          6           0       -1.848893    0.109201   -0.022181
      5          1           0        2.649493    0.579313   -0.062908
      6          1           0        2.064107   -1.148520   -0.123095
      7          1           0        0.416017    1.438587    0.079706
      8          1           0       -0.479793   -1.459795    0.157280
      9          1           0       -1.936195    1.184257   -0.069843
     10          1           0       -2.799838   -0.470205   -0.053538
 ---------------------------------------------------------------------
 Rotational constants (GHZ):     42.9703268      4.4151556      4.0093701
 Leave Link  202 at Wed Aug 26 09:05:18 2020, MaxMem=  2097152000 cpu:         0.0
 (Enter /opt/cluster/programs/g09/g09_d.01/g09/l301.exe)
 Standard basis: def2QZVP (5D, 7F)
 Ernie: Thresh=  0.10000D-02 Tol=  0.10000D-05 Strict=F.
 There are   498 symmetry adapted cartesian basis functions of A   symmetry.
 There are   408 symmetry adapted basis functions of A   symmetry.
   408 basis functions,   596 primitive gaussians,   498 cartesian basis functions
    15 alpha electrons       15 beta electrons
       nuclear repulsion energy       103.8978873135 Hartrees.
 IExCor=  419 DFT=T Ex+Corr=B2PLYPD3 ExCW=0 ScaHFX=  0.530000
 ScaDFX=  0.470000  0.470000  0.730000  0.730000 ScalE2=  0.270000  0.270000
 IRadAn=      0 IRanWt=     -1 IRanGd=            0 ICorTp=0 IEmpDi=141
 NAtoms=   10 NActive=   10 NUniq=   10 SFac= 1.00D+00 NAtFMM=   60 NAOKFM=F Big=F
 Integral buffers will be    131072 words long.
 Regular integral format.
 Two-electron integral symmetry is turned on.
 R6Disp:  Grimme-D3(BJ) Dispersion energy=       -0.0048358977 Hartrees.
 Nuclear repulsion after empirical dispersion term =      103.8930514158 Hartrees.
 Leave Link  301 at Wed Aug 26 09:05:18 2020, MaxMem=  2097152000 cpu:         0.4
 (Enter /opt/cluster/programs/g09/g09_d.01/g09/l302.exe)
 NPDir=0 NMtPBC=     1 NCelOv=     1 NCel=       1 NClECP=     1 NCelD=      1
         NCelK=      1 NCelE2=     1 NClLst=     1 CellRange=     0.0.
 One-electron integrals computed using PRISM.
   1 Symmetry operations used in ECPInt.
 ECPInt:  NShTT=    8256 NPrTT=   19107 LenC2=    8057 LenP2D=   16123.
 LDataN:  DoStor=T MaxTD1= 8 Len=  415
 NBasis=   408 RedAO= T EigKep=  4.40D-05  NBF=   408
 NBsUse=   408 1.00D-06 EigRej= -1.00D+00 NBFU=   408
 Precomputing XC quadrature grid using
 IXCGrd= 4 IRadAn=           0 IRanWt=          -1 IRanGd=           0 AccXCQ= 0.00D+00.
 Generated NRdTot=       0 NPtTot=           0 NUsed=           0 NTot=          32
 NSgBfM=   498   498   498   498   498 MxSgAt=    10 MxSgA2=    10.
 Leave Link  302 at Wed Aug 26 09:05:18 2020, MaxMem=  2097152000 cpu:         3.1
 (Enter /opt/cluster/programs/g09/g09_d.01/g09/l303.exe)
 DipDrv:  MaxL=1.
 Leave Link  303 at Wed Aug 26 09:05:18 2020, MaxMem=  2097152000 cpu:         0.4
 (Enter /opt/cluster/programs/g09/g09_d.01/g09/l401.exe)
 ExpMin= 7.60D-02 ExpMax= 6.70D+04 ExpMxC= 6.47D+02 IAcc=2 IRadAn=         4 AccDes= 0.00D+00
 Harris functional with IExCor=  419 and IRadAn=       4 diagonalized for initial guess.
 HarFok:  IExCor=  419 AccDes= 0.00D+00 IRadAn=         4 IDoV= 1 UseB2=F ITyADJ=14
 ICtDFT=  3500011 ScaDFX=  1.000000  1.000000  1.000000  1.000000
 FoFCou: FMM=F IPFlag=           0 FMFlag=      100000 FMFlg1=           0
         NFxFlg=           0 DoJE=T BraDBF=F KetDBF=T FulRan=T
         wScrn=  0.000000 ICntrl=     500 IOpCl=  0 I1Cent=   200000004 NGrid=           0
         NMat0=    1 NMatS0=      1 NMatT0=    0 NMatD0=    1 NMtDS0=    0 NMtDT0=    0
 Petite list used in FoFCou.
 Harris En= -156.132617066654    
 JPrj=0 DoOrth=F DoCkMO=F.
 Leave Link  401 at Wed Aug 26 09:05:19 2020, MaxMem=  2097152000 cpu:         8.1
 (Enter /opt/cluster/programs/g09/g09_d.01/g09/l502.exe)
 Closed shell SCF:
 Using DIIS extrapolation, IDIIS=  1040.
 Integral symmetry usage will be decided dynamically.
 IVT=      770090 IEndB=      770090 NGot=  2097152000 MDV=  2096647053
 LenX=  2096647053 LenY=  2096398551
 Requested convergence on RMS density matrix=1.00D-08 within 128 cycles.
 Requested convergence on MAX density matrix=1.00D-06.
 Requested convergence on             energy=1.00D-06.
 No special actions if energy rises.
 Fock matrices will be formed incrementally for  20 cycles.
 Integral accuracy reduced to 1.0D-05 until final iterations.

 Cycle   1  Pass 0  IDiag  1:
 FoFJK:  IHMeth= 1 ICntrl=       0 DoSepK=F KAlg= 0 I1Cent=   0 FoldK=F
 IRaf= 940000000 NMat=   1 IRICut=       1 DoRegI=T DoRafI=F ISym2E= 0.
 FoFCou: FMM=F IPFlag=           0 FMFlag=      100000 FMFlg1=           0
         NFxFlg=           0 DoJE=F BraDBF=F KetDBF=F FulRan=T
         wScrn=  0.000000 ICntrl=       0 IOpCl=  0 I1Cent=           0 NGrid=           0
         NMat0=    1 NMatS0=      1 NMatT0=    0 NMatD0=    1 NMtDS0=    0 NMtDT0=    0
 Symmetry not used in FoFCou.
 E= -155.511223080409    
 DIIS: error= 3.62D-02 at cycle   1 NSaved=   1.
 NSaved= 1 IEnMin= 1 EnMin= -155.511223080409     IErMin= 1 ErrMin= 3.62D-02
 ErrMax= 3.62D-02  0.00D+00 EMaxC= 1.00D-01 BMatC= 2.50D-01 BMatP= 2.50D-01
 IDIUse=3 WtCom= 6.38D-01 WtEn= 3.62D-01
 Coeff-Com:  0.100D+01
 Coeff-En:   0.100D+01
 Coeff:      0.100D+01
 Gap=     0.294 Goal=   None    Shift=    0.000
 GapD=    0.294 DampG=1.000 DampE=0.500 DampFc=0.5000 IDamp=-1.
 Damping current iteration by 5.00D-01
 RMSDP=9.47D-04 MaxDP=5.01D-02              OVMax= 1.95D-01

 Cycle   2  Pass 0  IDiag  1:
 RMSU=  4.36D-04    CP:  9.51D-01
 E= -155.609418636679     Delta-E=       -0.098195556270 Rises=F Damp=T
 DIIS: error= 9.51D-03 at cycle   2 NSaved=   2.
 NSaved= 2 IEnMin= 2 EnMin= -155.609418636679     IErMin= 2 ErrMin= 9.51D-03
 ErrMax= 9.51D-03  0.00D+00 EMaxC= 1.00D-01 BMatC= 2.99D-02 BMatP= 2.50D-01
 IDIUse=3 WtCom= 9.05D-01 WtEn= 9.51D-02
 Coeff-Com: -0.305D+00 0.130D+01
 Coeff-En:   0.000D+00 0.100D+01
 Coeff:     -0.276D+00 0.128D+01
 Gap=     0.355 Goal=   None    Shift=    0.000
 RMSDP=2.75D-04 MaxDP=9.14D-03 DE=-9.82D-02 OVMax= 9.55D-02

 Cycle   3  Pass 0  IDiag  1:
 RMSU=  2.65D-04    CP:  9.34D-01  1.06D+00
 E= -155.694116423212     Delta-E=       -0.084697786533 Rises=F Damp=F
 DIIS: error= 4.40D-03 at cycle   3 NSaved=   3.
 NSaved= 3 IEnMin= 3 EnMin= -155.694116423212     IErMin= 3 ErrMin= 4.40D-03
 ErrMax= 4.40D-03  0.00D+00 EMaxC= 1.00D-01 BMatC= 2.08D-03 BMatP= 2.99D-02
 IDIUse=3 WtCom= 9.56D-01 WtEn= 4.40D-02
 Coeff-Com: -0.119D+00 0.243D+00 0.876D+00
 Coeff-En:   0.000D+00 0.000D+00 0.100D+01
 Coeff:     -0.113D+00 0.232D+00 0.882D+00
 Gap=     0.289 Goal=   None    Shift=    0.000
 RMSDP=7.36D-05 MaxDP=4.13D-03 DE=-8.47D-02 OVMax= 2.41D-02

 Cycle   4  Pass 0  IDiag  1:
 RMSU=  5.44D-05    CP:  9.30D-01  1.16D+00  9.29D-01
 E= -155.695693715963     Delta-E=       -0.001577292751 Rises=F Damp=F
 DIIS: error= 2.97D-03 at cycle   4 NSaved=   4.
 NSaved= 4 IEnMin= 4 EnMin= -155.695693715963     IErMin= 4 ErrMin= 2.97D-03
 ErrMax= 2.97D-03  0.00D+00 EMaxC= 1.00D-01 BMatC= 6.85D-04 BMatP= 2.08D-03
 IDIUse=3 WtCom= 9.70D-01 WtEn= 2.97D-02
 Coeff-Com: -0.539D-01 0.896D-01 0.472D+00 0.492D+00
 Coeff-En:   0.000D+00 0.000D+00 0.148D+00 0.852D+00
 Coeff:     -0.523D-01 0.869D-01 0.463D+00 0.503D+00
 Gap=     0.288 Goal=   None    Shift=    0.000
 RMSDP=3.03D-05 MaxDP=1.69D-03 DE=-1.58D-03 OVMax= 9.77D-03

 Cycle   5  Pass 0  IDiag  1:
 RMSU=  1.60D-05    CP:  9.30D-01  1.16D+00  9.74D-01  5.84D-01
 E= -155.696355467086     Delta-E=       -0.000661751123 Rises=F Damp=F
 DIIS: error= 2.85D-04 at cycle   5 NSaved=   5.
 NSaved= 5 IEnMin= 5 EnMin= -155.696355467086     IErMin= 5 ErrMin= 2.85D-04
 ErrMax= 2.85D-04  0.00D+00 EMaxC= 1.00D-01 BMatC= 4.79D-06 BMatP= 6.85D-04
 IDIUse=3 WtCom= 9.97D-01 WtEn= 2.85D-03
 Coeff-Com: -0.321D-02 0.301D-02 0.381D-01 0.973D-01 0.865D+00
 Coeff-En:   0.000D+00 0.000D+00 0.000D+00 0.000D+00 0.100D+01
 Coeff:     -0.320D-02 0.300D-02 0.380D-01 0.970D-01 0.865D+00
 Gap=     0.289 Goal=   None    Shift=    0.000
 RMSDP=4.22D-06 MaxDP=1.53D-04 DE=-6.62D-04 OVMax= 1.23D-03

 Initial convergence to 1.0D-05 achieved.  Increase integral accuracy.
 Cycle   6  Pass 1  IDiag  1:
 E= -155.696365812856     Delta-E=       -0.000010345770 Rises=F Damp=F
 DIIS: error= 3.66D-05 at cycle   1 NSaved=   1.
 NSaved= 1 IEnMin= 1 EnMin= -155.696365812856     IErMin= 1 ErrMin= 3.66D-05
 ErrMax= 3.66D-05  0.00D+00 EMaxC= 1.00D-01 BMatC= 4.89D-07 BMatP= 4.89D-07
 IDIUse=1 WtCom= 1.00D+00 WtEn= 0.00D+00
 Coeff-Com:  0.100D+01
 Coeff:      0.100D+01
 Gap=     0.289 Goal=   None    Shift=    0.000
 RMSDP=4.22D-06 MaxDP=1.53D-04 DE=-1.03D-05 OVMax= 2.93D-04

 Cycle   7  Pass 1  IDiag  1:
 RMSU=  1.77D-05    CP:  1.00D+00
 E= -155.696366167075     Delta-E=       -0.000000354218 Rises=F Damp=F
 DIIS: error= 2.72D-05 at cycle   2 NSaved=   2.
 NSaved= 2 IEnMin= 2 EnMin= -155.696366167075     IErMin= 2 ErrMin= 2.72D-05
 ErrMax= 2.72D-05  0.00D+00 EMaxC= 1.00D-01 BMatC= 4.49D-08 BMatP= 4.89D-07
 IDIUse=1 WtCom= 1.00D+00 WtEn= 0.00D+00
 Coeff-Com:  0.118D+00 0.882D+00
 Coeff:      0.118D+00 0.882D+00
 Gap=     0.289 Goal=   None    Shift=    0.000
 RMSDP=8.23D-07 MaxDP=3.22D-05 DE=-3.54D-07 OVMax= 2.27D-04

 Cycle   8  Pass 1  IDiag  1:
 RMSU=  5.76D-07    CP:  1.00D+00  1.03D+00
 E= -155.696366189328     Delta-E=       -0.000000022253 Rises=F Damp=F
 DIIS: error= 2.19D-05 at cycle   3 NSaved=   3.
 NSaved= 3 IEnMin= 3 EnMin= -155.696366189328     IErMin= 3 ErrMin= 2.19D-05
 ErrMax= 2.19D-05  0.00D+00 EMaxC= 1.00D-01 BMatC= 4.02D-08 BMatP= 4.49D-08
 IDIUse=1 WtCom= 1.00D+00 WtEn= 0.00D+00
 Coeff-Com: -0.209D-01 0.486D+00 0.535D+00
 Coeff:     -0.209D-01 0.486D+00 0.535D+00
 Gap=     0.289 Goal=   None    Shift=    0.000
 RMSDP=2.88D-07 MaxDP=1.52D-05 DE=-2.23D-08 OVMax= 9.86D-05

 Cycle   9  Pass 1  IDiag  1:
 RMSU=  2.42D-07    CP:  1.00D+00  1.04D+00  8.45D-01
 E= -155.696366230167     Delta-E=       -0.000000040839 Rises=F Damp=F
 DIIS: error= 3.13D-06 at cycle   4 NSaved=   4.
 NSaved= 4 IEnMin= 4 EnMin= -155.696366230167     IErMin= 4 ErrMin= 3.13D-06
 ErrMax= 3.13D-06  0.00D+00 EMaxC= 1.00D-01 BMatC= 2.60D-10 BMatP= 4.02D-08
 IDIUse=1 WtCom= 1.00D+00 WtEn= 0.00D+00
 Coeff-Com: -0.862D-02-0.669D-03 0.103D-01 0.999D+00
 Coeff:     -0.862D-02-0.669D-03 0.103D-01 0.999D+00
 Gap=     0.289 Goal=   None    Shift=    0.000
 RMSDP=7.24D-08 MaxDP=2.19D-06 DE=-4.08D-08 OVMax= 2.03D-05

 Cycle  10  Pass 1  IDiag  1:
 RMSU=  4.49D-08    CP:  1.00D+00  1.04D+00  8.99D-01  1.18D+00
 E= -155.696366230961     Delta-E=       -0.000000000795 Rises=F Damp=F
 DIIS: error= 5.36D-07 at cycle   5 NSaved=   5.
 NSaved= 5 IEnMin= 5 EnMin= -155.696366230961     IErMin= 5 ErrMin= 5.36D-07
 ErrMax= 5.36D-07  0.00D+00 EMaxC= 1.00D-01 BMatC= 6.09D-11 BMatP= 2.60D-10
 IDIUse=1 WtCom= 1.00D+00 WtEn= 0.00D+00
 Coeff-Com:  0.951D-03-0.489D-01-0.706D-01 0.166D+00 0.952D+00
 Coeff:      0.951D-03-0.489D-01-0.706D-01 0.166D+00 0.952D+00
 Gap=     0.289 Goal=   None    Shift=    0.000
 RMSDP=2.61D-08 MaxDP=1.35D-06 DE=-7.95D-10 OVMax= 6.74D-06

 Cycle  11  Pass 1  IDiag  1:
 RMSU=  1.73D-08    CP:  1.00D+00  1.04D+00  9.06D-01  1.25D+00  1.20D+00
 E= -155.696366231063     Delta-E=       -0.000000000101 Rises=F Damp=F
 DIIS: error= 2.80D-07 at cycle   6 NSaved=   6.
 NSaved= 6 IEnMin= 6 EnMin= -155.696366231063     IErMin= 6 ErrMin= 2.80D-07
 ErrMax= 2.80D-07  0.00D+00 EMaxC= 1.00D-01 BMatC= 7.10D-12 BMatP= 6.09D-11
 IDIUse=1 WtCom= 1.00D+00 WtEn= 0.00D+00
 Coeff-Com:  0.782D-03-0.217D-01-0.344D-01 0.417D-01 0.427D+00 0.587D+00
 Coeff:      0.782D-03-0.217D-01-0.344D-01 0.417D-01 0.427D+00 0.587D+00
 Gap=     0.289 Goal=   None    Shift=    0.000
 RMSDP=4.36D-09 MaxDP=1.83D-07 DE=-1.01D-10 OVMax= 1.39D-06

 SCF Done:  E(RB2PLYPD3) =  -155.696366231     A.U. after   11 cycles
            NFock= 11  Conv=0.44D-08     -V/T= 2.0036
 KE= 1.551448606459D+02 PE=-5.687041003349D+02 EE= 1.539698220422D+02
 Leave Link  502 at Wed Aug 26 09:08:07 2020, MaxMem=  2097152000 cpu:      1339.8
 (Enter /opt/cluster/programs/g09/g09_d.01/g09/l801.exe)
 DoSCS=T DFT=T ScalE2(SS,OS)=  0.270000  0.270000
 ExpMin= 7.60D-02 ExpMax= 6.70D+04 ExpMxC= 6.47D+02 IAcc=3 IRadAn=         5 AccDes= 0.00D+00
 HarFok:  IExCor=  205 AccDes= 0.00D+00 IRadAn=         5 IDoV=-2 UseB2=F ITyADJ=14
 ICtDFT= 12500011 ScaDFX=  1.000000  1.000000  1.000000  1.000000
 Largest valence mixing into a core orbital is  1.13D-04
 Largest core mixing into a valence orbital is  1.99D-05
 Range of M.O.s used for correlation:     5   408
 NBasis=   408 NAE=    15 NBE=    15 NFC=     4 NFV=     0
 NROrb=    404 NOA=    11 NOB=    11 NVA=   393 NVB=   393

 **** Warning!!: The largest alpha MO coefficient is  0.24403041D+02

 Leave Link  801 at Wed Aug 26 09:08:07 2020, MaxMem=  2097152000 cpu:         0.8
 (Enter /opt/cluster/programs/g09/g09_d.01/g09/l906.exe)
 DoSCS=T DFT=T ScalE2(SS,OS)=  0.270000  0.270000
 FulOut=F Deriv=F AODrv=F NAtomX=    10
   MMem=         881  MDisk=          11 MDiskD=          11
  W3Min=     2152854 MinDsk=     3857222 NBas6D=         498
 NBas2D=      125763    NTT=      124251    LW2=     4508827
    MDV=  2096382384 MDiskM=        9345 NBas2p=      117494
 Fully direct method using O(OVN) memory.
 IMap=   1   2   3   4   5   6   7   8   9  10  11
 JobTyp=1 Pass  1:  I=   1 to  11 NPSUse=  8 ParTrn=T ParDer=T DoDerP=F.
 Spin components of T(2) and E(2):
     alpha-alpha T2 =       0.4222385708D-01 E2=     -0.2546792967D-01
     alpha-beta  T2 =       0.2735149466D+00 E2=     -0.1751519899D+00
     beta-beta   T2 =       0.4222385708D-01 E2=     -0.2546792967D-01
 The integrals were generated   1 times.
 E2(B2PLYPD3) =    -0.2260878492D+00 E(B2PLYPD3) =    -0.15592245408029D+03
 Leave Link  906 at Wed Aug 26 09:09:37 2020, MaxMem=  2097152000 cpu:       711.5
 (Enter /opt/cluster/programs/g09/g09_d.01/g09/l601.exe)
 Copying SCF densities to generalized density rwf, IOpCl= 0 IROHF=0.

 **********************************************************************

            Population analysis using the SCF density.

 **********************************************************************

 Orbital symmetries:
       Occupied  (A) (A) (A) (A) (A) (A) (A) (A) (A) (A) (A) (A)
                 (A) (A) (A)
       Virtual   (A) (A) (A) (A) (A) (A) (A) (A) (A) (A) (A) (A)
                 (A) (A) (A) (A) (A) (A) (A) (A) (A) (A) (A) (A)
                 (A) (A) (A) (A) (A) (A) (A) (A) (A) (A) (A) (A)
                 (A) (A) (A) (A) (A) (A) (A) (A) (A) (A) (A) (A)
                 (A) (A) (A) (A) (A) (A) (A) (A) (A) (A) (A) (A)
                 (A) (A) (A) (A) (A) (A) (A) (A) (A) (A) (A) (A)
                 (A) (A) (A) (A) (A) (A) (A) (A) (A) (A) (A) (A)
                 (A) (A) (A) (A) (A) (A) (A) (A) (A) (A) (A) (A)
                 (A) (A) (A) (A) (A) (A) (A) (A) (A) (A) (A) (A)
                 (A) (A) (A) (A) (A) (A) (A) (A) (A) (A) (A) (A)
                 (A) (A) (A) (A) (A) (A) (A) (A) (A) (A) (A) (A)
                 (A) (A) (A) (A) (A) (A) (A) (A) (A) (A) (A) (A)
                 (A) (A) (A) (A) (A) (A) (A) (A) (A) (A) (A) (A)
                 (A) (A) (A) (A) (A) (A) (A) (A) (A) (A) (A) (A)
                 (A) (A) (A) (A) (A) (A) (A) (A) (A) (A) (A) (A)
                 (A) (A) (A) (A) (A) (A) (A) (A) (A) (A) (A) (A)
                 (A) (A) (A) (A) (A) (A) (A) (A) (A) (A) (A) (A)
                 (A) (A) (A) (A) (A) (A) (A) (A) (A) (A) (A) (A)
                 (A) (A) (A) (A) (A) (A) (A) (A) (A) (A) (A) (A)
                 (A) (A) (A) (A) (A) (A) (A) (A) (A) (A) (A) (A)
                 (A) (A) (A) (A) (A) (A) (A) (A) (A) (A) (A) (A)
                 (A) (A) (A) (A) (A) (A) (A) (A) (A) (A) (A) (A)
                 (A) (A) (A) (A) (A) (A) (A) (A) (A) (A) (A) (A)
                 (A) (A) (A) (A) (A) (A) (A) (A) (A) (A) (A) (A)
                 (A) (A) (A) (A) (A) (A) (A) (A) (A) (A) (A) (A)
                 (A) (A) (A) (A) (A) (A) (A) (A) (A) (A) (A) (A)
                 (A) (A) (A) (A) (A) (A) (A) (A) (A) (A) (A) (A)
                 (A) (A) (A) (A) (A) (A) (A) (A) (A) (A) (A) (A)
                 (A) (A) (A) (A) (A) (A) (A) (A) (A) (A) (A) (A)
                 (A) (A) (A) (A) (A) (A) (A) (A) (A) (A) (A) (A)
                 (A) (A) (A) (A) (A) (A) (A) (A) (A) (A) (A) (A)
                 (A) (A) (A) (A) (A) (A) (A) (A) (A) (A) (A) (A)
                 (A) (A) (A) (A) (A) (A) (A) (A) (A)
 The electronic state is 1-A.
 Alpha  occ. eigenvalues --  -10.62498 -10.62412 -10.62161 -10.61190  -0.92968
 Alpha  occ. eigenvalues --   -0.84702  -0.70477  -0.64568  -0.54550  -0.53988
 Alpha  occ. eigenvalues --   -0.46903  -0.45848  -0.41394  -0.37801  -0.27503
 Alpha virt. eigenvalues --    0.01401   0.07023   0.07547   0.08111   0.09425
 Alpha virt. eigenvalues --    0.11646   0.12522   0.14727   0.15598   0.16227
 Alpha virt. eigenvalues --    0.18766   0.20245   0.21886   0.22844   0.23698
 Alpha virt. eigenvalues --    0.26630   0.26823   0.29486   0.31986   0.35093
 Alpha virt. eigenvalues --    0.35474   0.35955   0.38012   0.38716   0.40453
 Alpha virt. eigenvalues --    0.41990   0.43123   0.45950   0.46280   0.48356
 Alpha virt. eigenvalues --    0.49087   0.49621   0.50717   0.54824   0.56936
 Alpha virt. eigenvalues --    0.58800   0.62896   0.64315   0.66628   0.68318
 Alpha virt. eigenvalues --    0.69440   0.72040   0.76766   0.77179   0.78577
 Alpha virt. eigenvalues --    0.79586   0.80606   0.82314   0.82501   0.84380
 Alpha virt. eigenvalues --    0.85032   0.85810   0.86770   0.87070   0.90342
 Alpha virt. eigenvalues --    0.92447   0.93280   0.94328   0.95005   0.96817
 Alpha virt. eigenvalues --    0.98823   0.99341   1.00131   1.02675   1.05377
 Alpha virt. eigenvalues --    1.05602   1.07506   1.10402   1.11220   1.12445
 Alpha virt. eigenvalues --    1.13814   1.16896   1.19949   1.22587   1.23266
 Alpha virt. eigenvalues --    1.24731   1.27167   1.32849   1.33581   1.35768
 Alpha virt. eigenvalues --    1.38948   1.41084   1.47460   1.58192   1.64178
 Alpha virt. eigenvalues --    1.64598   1.68610   1.71304   1.71906   1.74040
 Alpha virt. eigenvalues --    1.74705   1.79893   1.82790   1.85684   1.86864
 Alpha virt. eigenvalues --    1.89910   1.90713   1.91941   1.93114   1.93874
 Alpha virt. eigenvalues --    1.95897   1.99156   2.00237   2.01641   2.02396
 Alpha virt. eigenvalues --    2.02790   2.05655   2.07236   2.07620   2.09344
 Alpha virt. eigenvalues --    2.10636   2.12490   2.13473   2.16794   2.18270
 Alpha virt. eigenvalues --    2.20241   2.21486   2.24395   2.25934   2.28334
 Alpha virt. eigenvalues --    2.29214   2.31982   2.32755   2.39207   2.42810
 Alpha virt. eigenvalues --    2.44191   2.45830   2.47386   2.47948   2.49702
 Alpha virt. eigenvalues --    2.53090   2.54497   2.55736   2.56603   2.58044
 Alpha virt. eigenvalues --    2.60012   2.60983   2.64754   2.65103   2.66846
 Alpha virt. eigenvalues --    2.68308   2.69075   2.70596   2.71497   2.73015
 Alpha virt. eigenvalues --    2.73853   2.74346   2.77478   2.78340   2.79052
 Alpha virt. eigenvalues --    2.82914   2.88291   2.90000   2.92246   2.93732
 Alpha virt. eigenvalues --    2.95246   3.01430   3.05725   3.07318   3.10895
 Alpha virt. eigenvalues --    3.14452   3.15791   3.25048   3.32289   3.35826
 Alpha virt. eigenvalues --    3.38149   3.39146   3.42181   3.44742   3.48734
 Alpha virt. eigenvalues --    3.50726   3.51953   3.54446   3.56393   3.57678
 Alpha virt. eigenvalues --    3.61464   3.62986   3.65561   3.69659   3.76044
 Alpha virt. eigenvalues --    3.78666   3.84437   3.87210   3.91885   3.92974
 Alpha virt. eigenvalues --    3.94066   3.97961   4.00481   4.06443   4.12420
 Alpha virt. eigenvalues --    4.16419   4.19882   4.23814   4.26711   4.46489
 Alpha virt. eigenvalues --    4.52906   4.54134   4.61367   4.84565   4.98060
 Alpha virt. eigenvalues --    4.99504   5.04059   5.05419   5.07780   5.10121
 Alpha virt. eigenvalues --    5.12704   5.18590   5.20956   5.28398   5.32127
 Alpha virt. eigenvalues --    5.33285   5.38529   5.41642   5.45187   5.48324
 Alpha virt. eigenvalues --    5.53131   5.55137   5.57646   5.60083   5.62766
 Alpha virt. eigenvalues --    5.66414   5.69416   5.72005   5.74587   5.76878
 Alpha virt. eigenvalues --    5.79964   5.81006   5.83066   5.85569   5.85922
 Alpha virt. eigenvalues --    5.88545   5.91907   5.97766   6.01712   6.03693
 Alpha virt. eigenvalues --    6.06033   6.07474   6.08637   6.10584   6.12714
 Alpha virt. eigenvalues --    6.13835   6.15402   6.17706   6.19836   6.21270
 Alpha virt. eigenvalues --    6.22343   6.23425   6.28103   6.29961   6.31703
 Alpha virt. eigenvalues --    6.34570   6.36664   6.37252   6.38180   6.39058
 Alpha virt. eigenvalues --    6.40954   6.43454   6.45182   6.50917   6.53730
 Alpha virt. eigenvalues --    6.54675   6.57360   6.60323   6.61572   6.63597
 Alpha virt. eigenvalues --    6.65366   6.68504   6.70059   6.74559   6.79320
 Alpha virt. eigenvalues --    6.83229   6.84267   6.88689   6.90543   6.92900
 Alpha virt. eigenvalues --    6.95006   6.98131   7.01162   7.04640   7.11501
 Alpha virt. eigenvalues --    7.13054   7.13273   7.19187   7.20226   7.21367
 Alpha virt. eigenvalues --    7.26224   7.30480   7.35984   7.38222   7.41507
 Alpha virt. eigenvalues --    7.46209   7.51619   7.56171   7.59626   7.61492
 Alpha virt. eigenvalues --    7.63121   7.64708   7.65533   7.66742   7.68204
 Alpha virt. eigenvalues --    7.70686   7.73445   7.74142   7.77165   7.79396
 Alpha virt. eigenvalues --    7.83667   7.86138   7.88286   7.89894   7.92736
 Alpha virt. eigenvalues --    7.93259   7.95955   8.05297   8.08658   8.13439
 Alpha virt. eigenvalues --    8.15126   8.16239   8.18010   8.20960   8.23279
 Alpha virt. eigenvalues --    8.26525   8.31757   8.33642   8.34632   8.35164
 Alpha virt. eigenvalues --    8.37862   8.39415   8.40372   8.44106   8.45811
 Alpha virt. eigenvalues --    8.48068   8.50659   8.55664   8.57353   8.58673
 Alpha virt. eigenvalues --    8.60562   8.61464   8.62363   8.68550   8.72047
 Alpha virt. eigenvalues --    8.73394   8.75392   8.78331   8.83737   8.85766
 Alpha virt. eigenvalues --    8.87488   8.91225   8.95450   9.04319   9.17198
 Alpha virt. eigenvalues --    9.23591   9.27439   9.30408   9.38295   9.47866
 Alpha virt. eigenvalues --    9.54771   9.66804   9.78851   9.84712   9.86655
 Alpha virt. eigenvalues --    9.96420  10.00137  10.03071  10.05933  10.08108
 Alpha virt. eigenvalues --   10.09548  10.18484  10.26900  10.32235  10.37074
 Alpha virt. eigenvalues --   10.42211  10.56391  10.59527  10.62431  10.80979
 Alpha virt. eigenvalues --   10.97010  11.19057  11.46193  11.73699  11.76957
 Alpha virt. eigenvalues --   11.97644  12.88054  13.02405  13.12298  13.29386
 Alpha virt. eigenvalues --   28.70255  28.81017  29.42792  29.66881 148.30015
 Alpha virt. eigenvalues --  148.39997 149.01686 149.28009
          Condensed to atoms (all electrons):
               1          2          3          4          5          6
     1  C    4.833773   0.616161  -0.081536  -0.002473   0.429204   0.428230
     2  C    0.616161   4.845452   0.398434  -0.076879  -0.053038  -0.045227
     3  C   -0.081536   0.398434   4.840435   0.620762   0.008137  -0.006110
     4  C   -0.002473  -0.076879   0.620762   4.845527  -0.000675   0.000178
     5  H    0.429204  -0.053038   0.008137  -0.000675   0.583432  -0.043350
     6  H    0.428230  -0.045227  -0.006110   0.000178  -0.043350   0.581750
     7  H   -0.046056   0.414579  -0.065269  -0.001790  -0.009470   0.006858
     8  H    0.000106  -0.061562   0.404413  -0.048837  -0.000134   0.003988
     9  H    0.000351  -0.007989  -0.051509   0.422393  -0.000043   0.000045
    10  H   -0.000540   0.006501  -0.037638   0.421301   0.000023  -0.000019
               7          8          9         10
     1  C   -0.046056   0.000106   0.000351  -0.000540
     2  C    0.414579  -0.061562  -0.007989   0.006501
     3  C   -0.065269   0.404413  -0.051509  -0.037638
     4  C   -0.001790  -0.048837   0.422393   0.421301
     5  H   -0.009470  -0.000134  -0.000043   0.000023
     6  H    0.006858   0.003988   0.000045  -0.000019
     7  H    0.632604   0.007303   0.005187  -0.000043
     8  H    0.007303   0.632027   0.008110  -0.007343
     9  H    0.005187   0.008110   0.609383  -0.044766
    10  H   -0.000043  -0.007343  -0.044766   0.575678
 Mulliken charges:
               1
     1  C   -0.177221
     2  C   -0.036434
     3  C   -0.030119
     4  C   -0.179506
     5  H    0.085914
     6  H    0.073657
     7  H    0.056098
     8  H    0.061928
     9  H    0.058838
    10  H    0.086845
 Sum of Mulliken charges =   0.00000
 Mulliken charges with hydrogens summed into heavy atoms:
               1
     1  C   -0.017650
     2  C    0.019664
     3  C    0.031809
     4  C   -0.033823
 Electronic spatial extent (au):  <R**2>=            336.1998
 Charge=              0.0000 electrons
 Dipole moment (field-independent basis, Debye):
    X=             -0.0006    Y=              0.0034    Z=             -0.0413  Tot=              0.0414
 Quadrupole moment (field-independent basis, Debye-Ang):
   XX=            -23.3959   YY=            -23.2097   ZZ=            -29.2508
   XY=             -0.1871   XZ=             -0.2316   YZ=             -0.0523
 Traceless Quadrupole moment (field-independent basis, Debye-Ang):
   XX=              1.8895   YY=              2.0758   ZZ=             -3.9653
   XY=             -0.1871   XZ=             -0.2316   YZ=             -0.0523
 Octapole moment (field-independent basis, Debye-Ang**2):
  XXX=             -1.1272  YYY=              0.0830  ZZZ=             -0.0312  XYY=              0.6316
  XXY=             -0.6500  XXZ=             -1.2574  XZZ=              0.3210  YZZ=             -0.0241
  YYZ=              0.2113  XYZ=              0.3594
 Hexadecapole moment (field-independent basis, Debye-Ang**3):
 XXXX=           -344.8378 YYYY=            -64.5933 ZZZZ=            -37.2379 XXXY=              6.1872
 XXXZ=             -1.1906 YYYX=             -2.1639 YYYZ=             -0.2914 ZZZX=             -0.5224
 ZZZY=             -0.0673 XXYY=            -68.7316 XXZZ=            -77.7346 YYZZ=            -18.9022
 XXYZ=              0.3137 YYXZ=             -0.5115 ZZXY=             -0.4846
 N-N= 1.038930514158D+02 E-N=-5.687040815519D+02  KE= 1.551448606459D+02
 Leave Link  601 at Wed Aug 26 09:09:37 2020, MaxMem=  2097152000 cpu:         0.6
 (Enter /opt/cluster/programs/g09/g09_d.01/g09/l9999.exe)
 1\1\GINC-NODE32\SP\RB2PLYPD3-FC\def2QZVP\C4H6\BOITTIER\26-Aug-2020\0\\
 #p B2PLYPD3/Def2QZVP\\butadiene\\0,1\C,0,-3.852191,0.222687,-0.001107\
 C,0,-2.721578,-0.488182,0.071715\C,0,-1.387434,0.080076,0.026689\C,0,-
 0.25239,-0.660349,0.010741\H,0,-4.761465,-0.307779,-0.034895\H,0,-3.87
 2467,1.283449,-0.131752\H,0,-2.720768,-1.554349,0.134596\H,0,-1.314109
 ,1.13455,0.150316\H,0,-0.361541,-1.734213,-0.012533\H,0,0.787845,-0.26
 3843,-0.030318\\Version=ES64L-G09RevD.01\State=1-A\HF=-155.6963662\MP2
 =-155.9224541\RMSD=4.361e-09\PG=C01 [X(C4H6)]\\@


 UNDER MOST GREENE GRASSE LY MOST GREATE SNAKES.
 -- PROVERBS AND REASONS OF THE YEAR 1585
           AS REPRINTED IN PAISLEY MAGAZINE 1828.
 Job cpu time:       0 days  0 hours 34 minutes 26.1 seconds.
 File lengths (MBytes):  RWF=     92 Int=      0 D2E=      0 Chk=      9 Scr=      1
 Normal termination of Gaussian 09 at Wed Aug 26 09:09:37 2020.
