 Entering Gaussian System, Link 0=/opt/cluster/programs/g09/g09_d.01/g09//g09
 Input=/home/boittier/MDCM/nms_sampling/butadiene_geom.xyz.dir/energies/butadiene_1924_energy.com
 Output=/scratch/boittier/butadiene_1924_energy/butadiene_1924_energy.out
 Initial command:
 /opt/cluster/programs/g09/g09_d.01/g09/l1.exe "/scratch/boittier/butadiene_1924_energy/Gau-47260.inp" -scrdir="/scratch/boittier/butadiene_1924_energy/"
 Entering Link 1 = /opt/cluster/programs/g09/g09_d.01/g09/l1.exe PID=     47261.
  
 Copyright (c) 1988,1990,1992,1993,1995,1998,2003,2009,2013,
            Gaussian, Inc.  All Rights Reserved.
  
 This is part of the Gaussian(R) 09 program.  It is based on
 the Gaussian(R) 03 system (copyright 2003, Gaussian, Inc.),
 the Gaussian(R) 98 system (copyright 1998, Gaussian, Inc.),
 the Gaussian(R) 94 system (copyright 1995, Gaussian, Inc.),
 the Gaussian 92(TM) system (copyright 1992, Gaussian, Inc.),
 the Gaussian 90(TM) system (copyright 1990, Gaussian, Inc.),
 the Gaussian 88(TM) system (copyright 1988, Gaussian, Inc.),
 the Gaussian 86(TM) system (copyright 1986, Carnegie Mellon
 University), and the Gaussian 82(TM) system (copyright 1983,
 Carnegie Mellon University). Gaussian is a federally registered
 trademark of Gaussian, Inc.
  
 This software contains proprietary and confidential information,
 including trade secrets, belonging to Gaussian, Inc.
  
 This software is provided under written license and may be
 used, copied, transmitted, or stored only in accord with that
 written license.
  
 The following legend is applicable only to US Government
 contracts under FAR:
  
                    RESTRICTED RIGHTS LEGEND
  
 Use, reproduction and disclosure by the US Government is
 subject to restrictions as set forth in subparagraphs (a)
 and (c) of the Commercial Computer Software - Restricted
 Rights clause in FAR 52.227-19.
  
 Gaussian, Inc.
 340 Quinnipiac St., Bldg. 40, Wallingford CT 06492
  
  
 ---------------------------------------------------------------
 Warning -- This program may not be used in any manner that
 competes with the business of Gaussian, Inc. or will provide
 assistance to any competitor of Gaussian, Inc.  The licensee
 of this program is prohibited from giving any competitor of
 Gaussian, Inc. access to this program.  By using this program,
 the user acknowledges that Gaussian, Inc. is engaged in the
 business of creating and licensing software in the field of
 computational chemistry and represents and warrants to the
 licensee that it is not a competitor of Gaussian, Inc. and that
 it will not use this program in any manner prohibited above.
 ---------------------------------------------------------------
  

 Cite this work as:
 Gaussian 09, Revision D.01,
 M. J. Frisch, G. W. Trucks, H. B. Schlegel, G. E. Scuseria, 
 M. A. Robb, J. R. Cheeseman, G. Scalmani, V. Barone, B. Mennucci, 
 G. A. Petersson, H. Nakatsuji, M. Caricato, X. Li, H. P. Hratchian, 
 A. F. Izmaylov, J. Bloino, G. Zheng, J. L. Sonnenberg, M. Hada, 
 M. Ehara, K. Toyota, R. Fukuda, J. Hasegawa, M. Ishida, T. Nakajima, 
 Y. Honda, O. Kitao, H. Nakai, T. Vreven, J. A. Montgomery, Jr., 
 J. E. Peralta, F. Ogliaro, M. Bearpark, J. J. Heyd, E. Brothers, 
 K. N. Kudin, V. N. Staroverov, T. Keith, R. Kobayashi, J. Normand, 
 K. Raghavachari, A. Rendell, J. C. Burant, S. S. Iyengar, J. Tomasi, 
 M. Cossi, N. Rega, J. M. Millam, M. Klene, J. E. Knox, J. B. Cross, 
 V. Bakken, C. Adamo, J. Jaramillo, R. Gomperts, R. E. Stratmann, 
 O. Yazyev, A. J. Austin, R. Cammi, C. Pomelli, J. W. Ochterski, 
 R. L. Martin, K. Morokuma, V. G. Zakrzewski, G. A. Voth, 
 P. Salvador, J. J. Dannenberg, S. Dapprich, A. D. Daniels, 
 O. Farkas, J. B. Foresman, J. V. Ortiz, J. Cioslowski, 
 and D. J. Fox, Gaussian, Inc., Wallingford CT, 2013.
 
 ******************************************
 Gaussian 09:  ES64L-G09RevD.01 24-Apr-2013
                26-Aug-2020 
 ******************************************
 %chk=/home/boittier/MDCM/nms_sampling/butadiene_geom.xyz.dir/butadiene_1924.chk
 %nproc=8
 Will use up to    8 processors via shared memory.
 %mem=16000MB
 --------------------
 #p B2PLYPD3/Def2QZVP
 --------------------
 1/38=1/1;
 2/12=2,17=6,18=5,40=1/2;
 3/5=45,7=101,11=9,16=1,25=1,30=1,74=-60/1,2,3;
 4//1;
 5/5=2,38=5/2;
 8/10=1/1;
 9/16=-3/6;
 6/7=2,8=2,9=2,10=2/1;
 99/5=1,9=1/99;
 Leave Link    1 at Wed Aug 26 11:18:01 2020, MaxMem=  2097152000 cpu:         0.2
 (Enter /opt/cluster/programs/g09/g09_d.01/g09/l101.exe)
 ---------
 butadiene
 ---------
 Symbolic Z-matrix:
 Charge =  0 Multiplicity = 1
 C                    -3.81606   0.25079  -0.02692 
 C                    -2.7229   -0.54199   0.07101 
 C                    -1.39583   0.04115   0.06521 
 C                    -0.26978  -0.64008  -0.02284 
 H                    -4.89832  -0.07507   0.11779 
 H                    -3.61706   1.33656  -0.23832 
 H                    -2.75348  -1.57655   0.22321 
 H                    -1.52316   1.1008    0.2819 
 H                    -0.20176  -1.76851   0.03125 
 H                     0.6211    0.00733  -0.03804 
 
 NAtoms=     10 NQM=       10 NQMF=       0 NMMI=      0 NMMIF=      0
                NMic=       0 NMicF=      0.
                    Isotopes and Nuclear Properties:
 (Nuclear quadrupole moments (NQMom) in fm**2, nuclear magnetic moments (NMagM)
  in nuclear magnetons)

  Atom         1           2           3           4           5           6           7           8           9          10
 IAtWgt=          12          12          12          12           1           1           1           1           1           1
 AtmWgt=  12.0000000  12.0000000  12.0000000  12.0000000   1.0078250   1.0078250   1.0078250   1.0078250   1.0078250   1.0078250
 NucSpn=           0           0           0           0           1           1           1           1           1           1
 AtZEff=   0.0000000   0.0000000   0.0000000   0.0000000   0.0000000   0.0000000   0.0000000   0.0000000   0.0000000   0.0000000
 NQMom=    0.0000000   0.0000000   0.0000000   0.0000000   0.0000000   0.0000000   0.0000000   0.0000000   0.0000000   0.0000000
 NMagM=    0.0000000   0.0000000   0.0000000   0.0000000   2.7928460   2.7928460   2.7928460   2.7928460   2.7928460   2.7928460
 AtZNuc=   6.0000000   6.0000000   6.0000000   6.0000000   1.0000000   1.0000000   1.0000000   1.0000000   1.0000000   1.0000000
 Leave Link  101 at Wed Aug 26 11:18:02 2020, MaxMem=  2097152000 cpu:         0.5
 (Enter /opt/cluster/programs/g09/g09_d.01/g09/l202.exe)
                          Input orientation:                          
 ---------------------------------------------------------------------
 Center     Atomic      Atomic             Coordinates (Angstroms)
 Number     Number       Type             X           Y           Z
 ---------------------------------------------------------------------
      1          6           0       -3.816059    0.250793   -0.026916
      2          6           0       -2.722899   -0.541994    0.071008
      3          6           0       -1.395832    0.041148    0.065212
      4          6           0       -0.269784   -0.640078   -0.022841
      5          1           0       -4.898321   -0.075070    0.117787
      6          1           0       -3.617058    1.336563   -0.238315
      7          1           0       -2.753476   -1.576550    0.223213
      8          1           0       -1.523157    1.100799    0.281902
      9          1           0       -0.201763   -1.768514    0.031251
     10          1           0        0.621102    0.007330   -0.038039
 ---------------------------------------------------------------------
                    Distance matrix (angstroms):
                    1          2          3          4          5
     1  C    0.000000
     2  C    1.353920   0.000000
     3  C    2.431036   1.449550   0.000000
     4  C    3.656465   2.456868   1.319017   0.000000
     5  H    1.139481   2.225459   3.504811   4.665015   0.000000
     6  H    1.123916   2.103373   2.589223   3.893300   1.939369
     7  H    2.128575   1.046139   2.117807   2.665755   2.620289
     8  H    2.464808   2.045147   1.089048   2.166671   3.577895
     9  H    4.140546   2.803936   2.168371   1.131778   4.993285
    10  H    4.443849   3.390574   2.019858   1.101384   5.522237
                    6          7          8          9         10
     6  H    0.000000
     7  H    3.073273   0.000000
     8  H    2.170399   2.947088   0.000000
     9  H    4.623679   2.566114   3.168890   0.000000
    10  H    4.446231   3.736938   2.428144   1.958451   0.000000
 Stoichiometry    C4H6
 Framework group  C1[X(C4H6)]
 Deg. of freedom    24
 Full point group                 C1      NOp   1
 Largest Abelian subgroup         C1      NOp   1
 Largest concise Abelian subgroup C1      NOp   1
                         Standard orientation:                         
 ---------------------------------------------------------------------
 Center     Atomic      Atomic             Coordinates (Angstroms)
 Number     Number       Type             X           Y           Z
 ---------------------------------------------------------------------
      1          6           0        1.818230   -0.121667   -0.049786
      2          6           0        0.594716    0.453476    0.023171
      3          6           0       -0.598054   -0.369797    0.049895
      4          6           0       -1.832546    0.082030   -0.058221
      5          1           0        2.819134    0.408613    0.074353
      6          1           0        1.828476   -1.233235   -0.215616
      7          1           0        0.428844    1.480520    0.133059
      8          1           0       -0.272801   -1.376441    0.308556
      9          1           0       -2.112886    1.178503   -0.049515
     10          1           0       -2.584844   -0.722211   -0.041192
 ---------------------------------------------------------------------
 Rotational constants (GHZ):     40.8156327      4.5260484      4.0924799
 Leave Link  202 at Wed Aug 26 11:18:02 2020, MaxMem=  2097152000 cpu:         0.0
 (Enter /opt/cluster/programs/g09/g09_d.01/g09/l301.exe)
 Standard basis: def2QZVP (5D, 7F)
 Ernie: Thresh=  0.10000D-02 Tol=  0.10000D-05 Strict=F.
 There are   498 symmetry adapted cartesian basis functions of A   symmetry.
 There are   408 symmetry adapted basis functions of A   symmetry.
   408 basis functions,   596 primitive gaussians,   498 cartesian basis functions
    15 alpha electrons       15 beta electrons
       nuclear repulsion energy       104.0013153820 Hartrees.
 IExCor=  419 DFT=T Ex+Corr=B2PLYPD3 ExCW=0 ScaHFX=  0.530000
 ScaDFX=  0.470000  0.470000  0.730000  0.730000 ScalE2=  0.270000  0.270000
 IRadAn=      0 IRanWt=     -1 IRanGd=            0 ICorTp=0 IEmpDi=141
 NAtoms=   10 NActive=   10 NUniq=   10 SFac= 1.00D+00 NAtFMM=   60 NAOKFM=F Big=F
 Integral buffers will be    131072 words long.
 Regular integral format.
 Two-electron integral symmetry is turned on.
 R6Disp:  Grimme-D3(BJ) Dispersion energy=       -0.0048665895 Hartrees.
 Nuclear repulsion after empirical dispersion term =      103.9964487925 Hartrees.
 Leave Link  301 at Wed Aug 26 11:18:02 2020, MaxMem=  2097152000 cpu:         0.5
 (Enter /opt/cluster/programs/g09/g09_d.01/g09/l302.exe)
 NPDir=0 NMtPBC=     1 NCelOv=     1 NCel=       1 NClECP=     1 NCelD=      1
         NCelK=      1 NCelE2=     1 NClLst=     1 CellRange=     0.0.
 One-electron integrals computed using PRISM.
   1 Symmetry operations used in ECPInt.
 ECPInt:  NShTT=    8256 NPrTT=   19107 LenC2=    8062 LenP2D=   16139.
 LDataN:  DoStor=T MaxTD1= 8 Len=  415
 NBasis=   408 RedAO= T EigKep=  4.63D-05  NBF=   408
 NBsUse=   408 1.00D-06 EigRej= -1.00D+00 NBFU=   408
 Precomputing XC quadrature grid using
 IXCGrd= 4 IRadAn=           0 IRanWt=          -1 IRanGd=           0 AccXCQ= 0.00D+00.
 Generated NRdTot=       0 NPtTot=           0 NUsed=           0 NTot=          32
 NSgBfM=   498   498   498   498   498 MxSgAt=    10 MxSgA2=    10.
 Leave Link  302 at Wed Aug 26 11:18:03 2020, MaxMem=  2097152000 cpu:         4.0
 (Enter /opt/cluster/programs/g09/g09_d.01/g09/l303.exe)
 DipDrv:  MaxL=1.
 Leave Link  303 at Wed Aug 26 11:18:03 2020, MaxMem=  2097152000 cpu:         0.4
 (Enter /opt/cluster/programs/g09/g09_d.01/g09/l401.exe)
 ExpMin= 7.60D-02 ExpMax= 6.70D+04 ExpMxC= 6.47D+02 IAcc=2 IRadAn=         4 AccDes= 0.00D+00
 Harris functional with IExCor=  419 and IRadAn=       4 diagonalized for initial guess.
 HarFok:  IExCor=  419 AccDes= 0.00D+00 IRadAn=         4 IDoV= 1 UseB2=F ITyADJ=14
 ICtDFT=  3500011 ScaDFX=  1.000000  1.000000  1.000000  1.000000
 FoFCou: FMM=F IPFlag=           0 FMFlag=      100000 FMFlg1=           0
         NFxFlg=           0 DoJE=T BraDBF=F KetDBF=T FulRan=T
         wScrn=  0.000000 ICntrl=     500 IOpCl=  0 I1Cent=   200000004 NGrid=           0
         NMat0=    1 NMatS0=      1 NMatT0=    0 NMatD0=    1 NMtDS0=    0 NMtDT0=    0
 Petite list used in FoFCou.
 Harris En= -156.111728029461    
 JPrj=0 DoOrth=F DoCkMO=F.
 Leave Link  401 at Wed Aug 26 11:18:04 2020, MaxMem=  2097152000 cpu:         9.3
 (Enter /opt/cluster/programs/g09/g09_d.01/g09/l502.exe)
 Closed shell SCF:
 Using DIIS extrapolation, IDIIS=  1040.
 Integral symmetry usage will be decided dynamically.
 IVT=      770090 IEndB=      770090 NGot=  2097152000 MDV=  2096647053
 LenX=  2096647053 LenY=  2096398551
 Requested convergence on RMS density matrix=1.00D-08 within 128 cycles.
 Requested convergence on MAX density matrix=1.00D-06.
 Requested convergence on             energy=1.00D-06.
 No special actions if energy rises.
 Fock matrices will be formed incrementally for  20 cycles.
 Integral accuracy reduced to 1.0D-05 until final iterations.

 Cycle   1  Pass 0  IDiag  1:
 FoFJK:  IHMeth= 1 ICntrl=       0 DoSepK=F KAlg= 0 I1Cent=   0 FoldK=F
 IRaf= 940000000 NMat=   1 IRICut=       1 DoRegI=T DoRafI=F ISym2E= 0.
 FoFCou: FMM=F IPFlag=           0 FMFlag=      100000 FMFlg1=           0
         NFxFlg=           0 DoJE=F BraDBF=F KetDBF=F FulRan=T
         wScrn=  0.000000 ICntrl=       0 IOpCl=  0 I1Cent=           0 NGrid=           0
         NMat0=    1 NMatS0=      1 NMatT0=    0 NMatD0=    1 NMtDS0=    0 NMtDT0=    0
 Symmetry not used in FoFCou.
 E= -155.496003406676    
 DIIS: error= 3.01D-02 at cycle   1 NSaved=   1.
 NSaved= 1 IEnMin= 1 EnMin= -155.496003406676     IErMin= 1 ErrMin= 3.01D-02
 ErrMax= 3.01D-02  0.00D+00 EMaxC= 1.00D-01 BMatC= 2.49D-01 BMatP= 2.49D-01
 IDIUse=3 WtCom= 6.99D-01 WtEn= 3.01D-01
 Coeff-Com:  0.100D+01
 Coeff-En:   0.100D+01
 Coeff:      0.100D+01
 Gap=     0.296 Goal=   None    Shift=    0.000
 GapD=    0.296 DampG=1.000 DampE=0.500 DampFc=0.5000 IDamp=-1.
 Damping current iteration by 5.00D-01
 RMSDP=9.87D-04 MaxDP=5.60D-02              OVMax= 1.97D-01

 Cycle   2  Pass 0  IDiag  1:
 RMSU=  4.55D-04    CP:  9.50D-01
 E= -155.593104171130     Delta-E=       -0.097100764454 Rises=F Damp=T
 DIIS: error= 8.74D-03 at cycle   2 NSaved=   2.
 NSaved= 2 IEnMin= 2 EnMin= -155.593104171130     IErMin= 2 ErrMin= 8.74D-03
 ErrMax= 8.74D-03  0.00D+00 EMaxC= 1.00D-01 BMatC= 2.92D-02 BMatP= 2.49D-01
 IDIUse=3 WtCom= 9.13D-01 WtEn= 8.74D-02
 Coeff-Com: -0.277D+00 0.128D+01
 Coeff-En:   0.000D+00 0.100D+01
 Coeff:     -0.252D+00 0.125D+01
 Gap=     0.357 Goal=   None    Shift=    0.000
 RMSDP=2.85D-04 MaxDP=1.11D-02 DE=-9.71D-02 OVMax= 1.04D-01

 Cycle   3  Pass 0  IDiag  1:
 RMSU=  2.78D-04    CP:  9.34D-01  1.00D+00
 E= -155.678111224990     Delta-E=       -0.085007053860 Rises=F Damp=F
 DIIS: error= 5.05D-03 at cycle   3 NSaved=   3.
 NSaved= 3 IEnMin= 3 EnMin= -155.678111224990     IErMin= 3 ErrMin= 5.05D-03
 ErrMax= 5.05D-03  0.00D+00 EMaxC= 1.00D-01 BMatC= 3.14D-03 BMatP= 2.92D-02
 IDIUse=3 WtCom= 9.49D-01 WtEn= 5.05D-02
 Coeff-Com: -0.134D+00 0.294D+00 0.840D+00
 Coeff-En:   0.000D+00 0.000D+00 0.100D+01
 Coeff:     -0.127D+00 0.279D+00 0.848D+00
 Gap=     0.292 Goal=   None    Shift=    0.000
 RMSDP=8.95D-05 MaxDP=5.12D-03 DE=-8.50D-02 OVMax= 2.98D-02

 Cycle   4  Pass 0  IDiag  1:
 RMSU=  6.80D-05    CP:  9.29D-01  1.11D+00  9.09D-01
 E= -155.680482820918     Delta-E=       -0.002371595928 Rises=F Damp=F
 DIIS: error= 2.78D-03 at cycle   4 NSaved=   4.
 NSaved= 4 IEnMin= 4 EnMin= -155.680482820918     IErMin= 4 ErrMin= 2.78D-03
 ErrMax= 2.78D-03  0.00D+00 EMaxC= 1.00D-01 BMatC= 1.04D-03 BMatP= 3.14D-03
 IDIUse=3 WtCom= 9.72D-01 WtEn= 2.78D-02
 Coeff-Com: -0.583D-01 0.970D-01 0.459D+00 0.503D+00
 Coeff-En:   0.000D+00 0.000D+00 0.169D+00 0.831D+00
 Coeff:     -0.567D-01 0.943D-01 0.451D+00 0.512D+00
 Gap=     0.292 Goal=   None    Shift=    0.000
 RMSDP=3.63D-05 MaxDP=2.26D-03 DE=-2.37D-03 OVMax= 1.14D-02

 Cycle   5  Pass 0  IDiag  1:
 RMSU=  1.76D-05    CP:  9.29D-01  1.11D+00  9.63D-01  5.92D-01
 E= -155.681480236869     Delta-E=       -0.000997415951 Rises=F Damp=F
 DIIS: error= 1.82D-04 at cycle   5 NSaved=   5.
 NSaved= 5 IEnMin= 5 EnMin= -155.681480236869     IErMin= 5 ErrMin= 1.82D-04
 ErrMax= 1.82D-04  0.00D+00 EMaxC= 1.00D-01 BMatC= 4.00D-06 BMatP= 1.04D-03
 IDIUse=3 WtCom= 9.98D-01 WtEn= 1.82D-03
 Coeff-Com: -0.419D-02 0.456D-02 0.414D-01 0.814D-01 0.877D+00
 Coeff-En:   0.000D+00 0.000D+00 0.000D+00 0.000D+00 0.100D+01
 Coeff:     -0.418D-02 0.455D-02 0.413D-01 0.812D-01 0.877D+00
 Gap=     0.293 Goal=   None    Shift=    0.000
 RMSDP=4.88D-06 MaxDP=1.73D-04 DE=-9.97D-04 OVMax= 1.15D-03

 Initial convergence to 1.0D-05 achieved.  Increase integral accuracy.
 Cycle   6  Pass 1  IDiag  1:
 E= -155.681486838377     Delta-E=       -0.000006601508 Rises=F Damp=F
 DIIS: error= 5.35D-05 at cycle   1 NSaved=   1.
 NSaved= 1 IEnMin= 1 EnMin= -155.681486838377     IErMin= 1 ErrMin= 5.35D-05
 ErrMax= 5.35D-05  0.00D+00 EMaxC= 1.00D-01 BMatC= 7.33D-07 BMatP= 7.33D-07
 IDIUse=1 WtCom= 1.00D+00 WtEn= 0.00D+00
 Coeff-Com:  0.100D+01
 Coeff:      0.100D+01
 Gap=     0.293 Goal=   None    Shift=    0.000
 RMSDP=4.88D-06 MaxDP=1.73D-04 DE=-6.60D-06 OVMax= 5.00D-04

 Cycle   7  Pass 1  IDiag  1:
 RMSU=  1.87D-05    CP:  1.00D+00
 E= -155.681487197922     Delta-E=       -0.000000359544 Rises=F Damp=F
 DIIS: error= 4.74D-05 at cycle   2 NSaved=   2.
 NSaved= 2 IEnMin= 2 EnMin= -155.681487197922     IErMin= 2 ErrMin= 4.74D-05
 ErrMax= 4.74D-05  0.00D+00 EMaxC= 1.00D-01 BMatC= 3.14D-07 BMatP= 7.33D-07
 IDIUse=1 WtCom= 1.00D+00 WtEn= 0.00D+00
 Coeff-Com:  0.367D+00 0.633D+00
 Coeff:      0.367D+00 0.633D+00
 Gap=     0.293 Goal=   None    Shift=    0.000
 RMSDP=1.12D-06 MaxDP=5.09D-05 DE=-3.60D-07 OVMax= 3.99D-04

 Cycle   8  Pass 1  IDiag  1:
 RMSU=  9.69D-07    CP:  1.00D+00  1.03D+00
 E= -155.681487478832     Delta-E=       -0.000000280911 Rises=F Damp=F
 DIIS: error= 1.78D-05 at cycle   3 NSaved=   3.
 NSaved= 3 IEnMin= 3 EnMin= -155.681487478832     IErMin= 3 ErrMin= 1.78D-05
 ErrMax= 1.78D-05  0.00D+00 EMaxC= 1.00D-01 BMatC= 5.44D-08 BMatP= 3.14D-07
 IDIUse=1 WtCom= 1.00D+00 WtEn= 0.00D+00
 Coeff-Com: -0.130D-01 0.281D+00 0.732D+00
 Coeff:     -0.130D-01 0.281D+00 0.732D+00
 Gap=     0.293 Goal=   None    Shift=    0.000
 RMSDP=6.20D-07 MaxDP=2.40D-05 DE=-2.81D-07 OVMax= 1.09D-04

 Cycle   9  Pass 1  IDiag  1:
 RMSU=  4.44D-07    CP:  1.00D+00  1.05D+00  9.41D-01
 E= -155.681487535636     Delta-E=       -0.000000056804 Rises=F Damp=F
 DIIS: error= 3.57D-06 at cycle   4 NSaved=   4.
 NSaved= 4 IEnMin= 4 EnMin= -155.681487535636     IErMin= 4 ErrMin= 3.57D-06
 ErrMax= 3.57D-06  0.00D+00 EMaxC= 1.00D-01 BMatC= 1.08D-09 BMatP= 5.44D-08
 IDIUse=1 WtCom= 1.00D+00 WtEn= 0.00D+00
 Coeff-Com: -0.180D-01 0.529D-01 0.169D+00 0.796D+00
 Coeff:     -0.180D-01 0.529D-01 0.169D+00 0.796D+00
 Gap=     0.293 Goal=   None    Shift=    0.000
 RMSDP=1.25D-07 MaxDP=5.49D-06 DE=-5.68D-08 OVMax= 2.39D-05

 Cycle  10  Pass 1  IDiag  1:
 RMSU=  7.65D-08    CP:  1.00D+00  1.06D+00  9.82D-01  1.15D+00
 E= -155.681487537290     Delta-E=       -0.000000001654 Rises=F Damp=F
 DIIS: error= 8.01D-07 at cycle   5 NSaved=   5.
 NSaved= 5 IEnMin= 5 EnMin= -155.681487537290     IErMin= 5 ErrMin= 8.01D-07
 ErrMax= 8.01D-07  0.00D+00 EMaxC= 1.00D-01 BMatC= 2.23D-10 BMatP= 1.08D-09
 IDIUse=1 WtCom= 1.00D+00 WtEn= 0.00D+00
 Coeff-Com: -0.231D-02-0.233D-01-0.762D-01 0.200D+00 0.901D+00
 Coeff:     -0.231D-02-0.233D-01-0.762D-01 0.200D+00 0.901D+00
 Gap=     0.293 Goal=   None    Shift=    0.000
 RMSDP=4.68D-08 MaxDP=2.40D-06 DE=-1.65D-09 OVMax= 8.32D-06

 Cycle  11  Pass 1  IDiag  1:
 RMSU=  2.94D-08    CP:  1.00D+00  1.06D+00  9.87D-01  1.23D+00  1.05D+00
 E= -155.681487537620     Delta-E=       -0.000000000330 Rises=F Damp=F
 DIIS: error= 5.55D-07 at cycle   6 NSaved=   6.
 NSaved= 6 IEnMin= 6 EnMin= -155.681487537620     IErMin= 6 ErrMin= 5.55D-07
 ErrMax= 5.55D-07  0.00D+00 EMaxC= 1.00D-01 BMatC= 2.44D-11 BMatP= 2.23D-10
 IDIUse=1 WtCom= 1.00D+00 WtEn= 0.00D+00
 Coeff-Com:  0.827D-03-0.126D-01-0.469D-01 0.941D-02 0.349D+00 0.700D+00
 Coeff:      0.827D-03-0.126D-01-0.469D-01 0.941D-02 0.349D+00 0.700D+00
 Gap=     0.293 Goal=   None    Shift=    0.000
 RMSDP=1.00D-08 MaxDP=3.37D-07 DE=-3.30D-10 OVMax= 3.52D-06

 Cycle  12  Pass 1  IDiag  1:
 RMSU=  8.62D-09    CP:  1.00D+00  1.06D+00  9.86D-01  1.23D+00  1.06D+00
                    CP:  1.08D+00
 E= -155.681487537650     Delta-E=       -0.000000000030 Rises=F Damp=F
 DIIS: error= 9.58D-08 at cycle   7 NSaved=   7.
 NSaved= 7 IEnMin= 7 EnMin= -155.681487537650     IErMin= 7 ErrMin= 9.58D-08
 ErrMax= 9.58D-08  0.00D+00 EMaxC= 1.00D-01 BMatC= 2.09D-12 BMatP= 2.44D-11
 IDIUse=1 WtCom= 1.00D+00 WtEn= 0.00D+00
 Coeff-Com:  0.477D-03-0.406D-02-0.170D-01-0.756D-02 0.934D-01 0.289D+00
 Coeff-Com:  0.645D+00
 Coeff:      0.477D-03-0.406D-02-0.170D-01-0.756D-02 0.934D-01 0.289D+00
 Coeff:      0.645D+00
 Gap=     0.293 Goal=   None    Shift=    0.000
 RMSDP=3.26D-09 MaxDP=1.72D-07 DE=-2.96D-11 OVMax= 5.61D-07

 SCF Done:  E(RB2PLYPD3) =  -155.681487538     A.U. after   12 cycles
            NFock= 12  Conv=0.33D-08     -V/T= 2.0045
 KE= 1.549767952181D+02 PE=-5.687900222578D+02 EE= 1.541352907096D+02
 Leave Link  502 at Wed Aug 26 11:21:14 2020, MaxMem=  2097152000 cpu:      1512.1
 (Enter /opt/cluster/programs/g09/g09_d.01/g09/l801.exe)
 DoSCS=T DFT=T ScalE2(SS,OS)=  0.270000  0.270000
 ExpMin= 7.60D-02 ExpMax= 6.70D+04 ExpMxC= 6.47D+02 IAcc=3 IRadAn=         5 AccDes= 0.00D+00
 HarFok:  IExCor=  205 AccDes= 0.00D+00 IRadAn=         5 IDoV=-2 UseB2=F ITyADJ=14
 ICtDFT= 12500011 ScaDFX=  1.000000  1.000000  1.000000  1.000000
 Largest valence mixing into a core orbital is  1.15D-04
 Largest core mixing into a valence orbital is  1.98D-05
 Range of M.O.s used for correlation:     5   408
 NBasis=   408 NAE=    15 NBE=    15 NFC=     4 NFV=     0
 NROrb=    404 NOA=    11 NOB=    11 NVA=   393 NVB=   393

 **** Warning!!: The largest alpha MO coefficient is  0.27065959D+02

 Leave Link  801 at Wed Aug 26 11:21:14 2020, MaxMem=  2097152000 cpu:         0.9
 (Enter /opt/cluster/programs/g09/g09_d.01/g09/l906.exe)
 DoSCS=T DFT=T ScalE2(SS,OS)=  0.270000  0.270000
 FulOut=F Deriv=F AODrv=F NAtomX=    10
   MMem=         881  MDisk=          11 MDiskD=          11
  W3Min=     2152854 MinDsk=     3857222 NBas6D=         498
 NBas2D=      125763    NTT=      124251    LW2=     4508827
    MDV=  2096381716 MDiskM=        9345 NBas2p=      117602
 Fully direct method using O(OVN) memory.
 IMap=   1   2   3   4   5   6   7   8   9  10  11
 JobTyp=1 Pass  1:  I=   1 to  11 NPSUse=  8 ParTrn=T ParDer=T DoDerP=F.
 Spin components of T(2) and E(2):
     alpha-alpha T2 =       0.4277642050D-01 E2=     -0.2561728823D-01
     alpha-beta  T2 =       0.2773763717D+00 E2=     -0.1760065066D+00
     beta-beta   T2 =       0.4277642050D-01 E2=     -0.2561728823D-01
 The integrals were generated   1 times.
 E2(B2PLYPD3) =    -0.2272410831D+00 E(B2PLYPD3) =    -0.15590872862076D+03
 Leave Link  906 at Wed Aug 26 11:22:42 2020, MaxMem=  2097152000 cpu:       705.4
 (Enter /opt/cluster/programs/g09/g09_d.01/g09/l601.exe)
 Copying SCF densities to generalized density rwf, IOpCl= 0 IROHF=0.

 **********************************************************************

            Population analysis using the SCF density.

 **********************************************************************

 Orbital symmetries:
       Occupied  (A) (A) (A) (A) (A) (A) (A) (A) (A) (A) (A) (A)
                 (A) (A) (A)
       Virtual   (A) (A) (A) (A) (A) (A) (A) (A) (A) (A) (A) (A)
                 (A) (A) (A) (A) (A) (A) (A) (A) (A) (A) (A) (A)
                 (A) (A) (A) (A) (A) (A) (A) (A) (A) (A) (A) (A)
                 (A) (A) (A) (A) (A) (A) (A) (A) (A) (A) (A) (A)
                 (A) (A) (A) (A) (A) (A) (A) (A) (A) (A) (A) (A)
                 (A) (A) (A) (A) (A) (A) (A) (A) (A) (A) (A) (A)
                 (A) (A) (A) (A) (A) (A) (A) (A) (A) (A) (A) (A)
                 (A) (A) (A) (A) (A) (A) (A) (A) (A) (A) (A) (A)
                 (A) (A) (A) (A) (A) (A) (A) (A) (A) (A) (A) (A)
                 (A) (A) (A) (A) (A) (A) (A) (A) (A) (A) (A) (A)
                 (A) (A) (A) (A) (A) (A) (A) (A) (A) (A) (A) (A)
                 (A) (A) (A) (A) (A) (A) (A) (A) (A) (A) (A) (A)
                 (A) (A) (A) (A) (A) (A) (A) (A) (A) (A) (A) (A)
                 (A) (A) (A) (A) (A) (A) (A) (A) (A) (A) (A) (A)
                 (A) (A) (A) (A) (A) (A) (A) (A) (A) (A) (A) (A)
                 (A) (A) (A) (A) (A) (A) (A) (A) (A) (A) (A) (A)
                 (A) (A) (A) (A) (A) (A) (A) (A) (A) (A) (A) (A)
                 (A) (A) (A) (A) (A) (A) (A) (A) (A) (A) (A) (A)
                 (A) (A) (A) (A) (A) (A) (A) (A) (A) (A) (A) (A)
                 (A) (A) (A) (A) (A) (A) (A) (A) (A) (A) (A) (A)
                 (A) (A) (A) (A) (A) (A) (A) (A) (A) (A) (A) (A)
                 (A) (A) (A) (A) (A) (A) (A) (A) (A) (A) (A) (A)
                 (A) (A) (A) (A) (A) (A) (A) (A) (A) (A) (A) (A)
                 (A) (A) (A) (A) (A) (A) (A) (A) (A) (A) (A) (A)
                 (A) (A) (A) (A) (A) (A) (A) (A) (A) (A) (A) (A)
                 (A) (A) (A) (A) (A) (A) (A) (A) (A) (A) (A) (A)
                 (A) (A) (A) (A) (A) (A) (A) (A) (A) (A) (A) (A)
                 (A) (A) (A) (A) (A) (A) (A) (A) (A) (A) (A) (A)
                 (A) (A) (A) (A) (A) (A) (A) (A) (A) (A) (A) (A)
                 (A) (A) (A) (A) (A) (A) (A) (A) (A) (A) (A) (A)
                 (A) (A) (A) (A) (A) (A) (A) (A) (A) (A) (A) (A)
                 (A) (A) (A) (A) (A) (A) (A) (A) (A) (A) (A) (A)
                 (A) (A) (A) (A) (A) (A) (A) (A) (A)
 The electronic state is 1-A.
 Alpha  occ. eigenvalues --  -10.62891 -10.62223 -10.62153 -10.62058  -0.93341
 Alpha  occ. eigenvalues --   -0.84435  -0.69534  -0.64243  -0.53857  -0.53077
 Alpha  occ. eigenvalues --   -0.47181  -0.45319  -0.40628  -0.37356  -0.27681
 Alpha virt. eigenvalues --    0.01600   0.07025   0.07153   0.07963   0.09261
 Alpha virt. eigenvalues --    0.11679   0.12165   0.14486   0.15041   0.16232
 Alpha virt. eigenvalues --    0.18378   0.19757   0.21221   0.22380   0.24070
 Alpha virt. eigenvalues --    0.26599   0.27236   0.30567   0.31113   0.33723
 Alpha virt. eigenvalues --    0.34347   0.35536   0.36617   0.38390   0.39247
 Alpha virt. eigenvalues --    0.41584   0.42433   0.43351   0.46004   0.46755
 Alpha virt. eigenvalues --    0.48855   0.50635   0.51931   0.53862   0.56376
 Alpha virt. eigenvalues --    0.58252   0.63992   0.64830   0.67737   0.67862
 Alpha virt. eigenvalues --    0.70393   0.71577   0.74955   0.76641   0.78313
 Alpha virt. eigenvalues --    0.80434   0.81023   0.81210   0.82462   0.84178
 Alpha virt. eigenvalues --    0.84380   0.87267   0.87660   0.88182   0.90750
 Alpha virt. eigenvalues --    0.92117   0.92702   0.93699   0.94324   0.97390
 Alpha virt. eigenvalues --    0.99434   0.99807   1.00499   1.03560   1.04662
 Alpha virt. eigenvalues --    1.06270   1.06851   1.08933   1.10185   1.11279
 Alpha virt. eigenvalues --    1.12997   1.16666   1.19102   1.21371   1.24198
 Alpha virt. eigenvalues --    1.25316   1.27578   1.31008   1.33503   1.35925
 Alpha virt. eigenvalues --    1.37859   1.39297   1.44720   1.57207   1.59611
 Alpha virt. eigenvalues --    1.63002   1.65814   1.69620   1.70857   1.76120
 Alpha virt. eigenvalues --    1.77179   1.80414   1.80617   1.84599   1.87071
 Alpha virt. eigenvalues --    1.88822   1.89917   1.92091   1.92809   1.95464
 Alpha virt. eigenvalues --    1.98246   1.98953   2.00184   2.00764   2.02330
 Alpha virt. eigenvalues --    2.05202   2.05558   2.07294   2.08778   2.09449
 Alpha virt. eigenvalues --    2.10077   2.13008   2.14639   2.17059   2.19258
 Alpha virt. eigenvalues --    2.19503   2.22168   2.24211   2.26563   2.27704
 Alpha virt. eigenvalues --    2.29045   2.30372   2.34660   2.37480   2.39775
 Alpha virt. eigenvalues --    2.43231   2.44814   2.46093   2.48038   2.50030
 Alpha virt. eigenvalues --    2.51580   2.53532   2.55188   2.57724   2.59616
 Alpha virt. eigenvalues --    2.60281   2.62093   2.62859   2.63636   2.66253
 Alpha virt. eigenvalues --    2.66812   2.68763   2.69613   2.70025   2.71228
 Alpha virt. eigenvalues --    2.73734   2.76126   2.76651   2.79378   2.81167
 Alpha virt. eigenvalues --    2.83774   2.85655   2.86844   2.90496   2.91836
 Alpha virt. eigenvalues --    2.94594   2.99590   3.05242   3.07129   3.09915
 Alpha virt. eigenvalues --    3.11688   3.13486   3.23882   3.28081   3.32316
 Alpha virt. eigenvalues --    3.33798   3.38037   3.39731   3.40952   3.43859
 Alpha virt. eigenvalues --    3.46753   3.49734   3.51434   3.51840   3.54824
 Alpha virt. eigenvalues --    3.57625   3.58784   3.63343   3.69237   3.73708
 Alpha virt. eigenvalues --    3.77615   3.79434   3.83980   3.85206   3.89590
 Alpha virt. eigenvalues --    3.92677   3.98370   4.00137   4.04239   4.10457
 Alpha virt. eigenvalues --    4.15050   4.18244   4.20622   4.29100   4.39541
 Alpha virt. eigenvalues --    4.47333   4.53834   4.63943   4.88120   4.95667
 Alpha virt. eigenvalues --    5.00348   5.00515   5.05074   5.06238   5.11954
 Alpha virt. eigenvalues --    5.14961   5.19612   5.21081   5.28693   5.29785
 Alpha virt. eigenvalues --    5.33628   5.35388   5.37593   5.45532   5.47719
 Alpha virt. eigenvalues --    5.51887   5.57264   5.58763   5.60609   5.63387
 Alpha virt. eigenvalues --    5.65181   5.69408   5.71277   5.73520   5.77008
 Alpha virt. eigenvalues --    5.79916   5.80382   5.81652   5.84226   5.85443
 Alpha virt. eigenvalues --    5.89501   5.91714   5.92618   5.99271   6.01663
 Alpha virt. eigenvalues --    6.04539   6.05141   6.06612   6.09094   6.09877
 Alpha virt. eigenvalues --    6.10158   6.12263   6.14668   6.16729   6.19011
 Alpha virt. eigenvalues --    6.20325   6.22050   6.24115   6.26321   6.26435
 Alpha virt. eigenvalues --    6.30629   6.31895   6.32815   6.35516   6.37667
 Alpha virt. eigenvalues --    6.39417   6.40903   6.43726   6.44041   6.46506
 Alpha virt. eigenvalues --    6.48759   6.50308   6.53680   6.55934   6.56494
 Alpha virt. eigenvalues --    6.59304   6.64453   6.68292   6.70657   6.73723
 Alpha virt. eigenvalues --    6.79083   6.82556   6.84085   6.86509   6.89185
 Alpha virt. eigenvalues --    6.91207   6.93050   6.97004   7.01622   7.03933
 Alpha virt. eigenvalues --    7.07438   7.12140   7.15816   7.17555   7.21862
 Alpha virt. eigenvalues --    7.26278   7.28957   7.31722   7.35292   7.36925
 Alpha virt. eigenvalues --    7.37058   7.50632   7.52759   7.55755   7.59668
 Alpha virt. eigenvalues --    7.60491   7.63026   7.65004   7.65600   7.66202
 Alpha virt. eigenvalues --    7.68433   7.68909   7.72718   7.74686   7.77137
 Alpha virt. eigenvalues --    7.80282   7.81825   7.83744   7.87157   7.93711
 Alpha virt. eigenvalues --    7.98005   7.99253   8.04621   8.06976   8.08117
 Alpha virt. eigenvalues --    8.11570   8.12154   8.14544   8.17697   8.19144
 Alpha virt. eigenvalues --    8.23662   8.27753   8.30255   8.31657   8.31917
 Alpha virt. eigenvalues --    8.33692   8.35691   8.36740   8.39332   8.40765
 Alpha virt. eigenvalues --    8.42280   8.48329   8.49111   8.52862   8.53646
 Alpha virt. eigenvalues --    8.54284   8.56821   8.58920   8.64560   8.68747
 Alpha virt. eigenvalues --    8.70377   8.73536   8.74420   8.80921   8.85736
 Alpha virt. eigenvalues --    8.87511   8.89561   8.94748   9.00532   9.04413
 Alpha virt. eigenvalues --    9.11219   9.14470   9.20749   9.28356   9.29225
 Alpha virt. eigenvalues --    9.44869   9.54161   9.69344   9.71070   9.72165
 Alpha virt. eigenvalues --    9.77736   9.78518   9.81617   9.89719   9.95043
 Alpha virt. eigenvalues --    9.99337  10.08452  10.17685  10.20633  10.33023
 Alpha virt. eigenvalues --   10.37850  10.40876  10.53208  10.61310  10.75025
 Alpha virt. eigenvalues --   10.82559  10.95106  11.32700  11.54482  12.00602
 Alpha virt. eigenvalues --   12.05180  12.78355  12.86643  12.96549  13.03427
 Alpha virt. eigenvalues --   28.65197  28.73098  29.41084  29.61224 148.23876
 Alpha virt. eigenvalues --  148.30708 149.00103 149.21643
          Condensed to atoms (all electrons):
               1          2          3          4          5          6
     1  C    4.858292   0.616591  -0.084504  -0.001387   0.415934   0.420961
     2  C    0.616591   4.855815   0.392383  -0.084498  -0.036697  -0.052221
     3  C   -0.084504   0.392383   4.880008   0.594186   0.006734  -0.010498
     4  C   -0.001387  -0.084498   0.594186   4.869111  -0.000553   0.000988
     5  H    0.415934  -0.036697   0.006734  -0.000553   0.576402  -0.042107
     6  H    0.420961  -0.052221  -0.010498   0.000988  -0.042107   0.611027
     7  H   -0.045282   0.407457  -0.066527   0.001976  -0.006080   0.007285
     8  H   -0.001679  -0.068541   0.415497  -0.042509  -0.000188   0.006783
     9  H    0.000427  -0.007323  -0.043595   0.424341  -0.000023   0.000055
    10  H   -0.001015   0.009428  -0.057068   0.423218   0.000036  -0.000100
               7          8          9         10
     1  C   -0.045282  -0.001679   0.000427  -0.001015
     2  C    0.407457  -0.068541  -0.007323   0.009428
     3  C   -0.066527   0.415497  -0.043595  -0.057068
     4  C    0.001976  -0.042509   0.424341   0.423218
     5  H   -0.006080  -0.000188  -0.000023   0.000036
     6  H    0.007285   0.006783   0.000055  -0.000100
     7  H    0.629253   0.008226   0.003941  -0.000227
     8  H    0.008226   0.628573   0.006168  -0.010173
     9  H    0.003941   0.006168   0.576558  -0.038498
    10  H   -0.000227  -0.010173  -0.038498   0.592313
 Mulliken charges:
               1
     1  C   -0.178337
     2  C   -0.032394
     3  C   -0.026617
     4  C   -0.184874
     5  H    0.086542
     6  H    0.057827
     7  H    0.059976
     8  H    0.057843
     9  H    0.077948
    10  H    0.082087
 Sum of Mulliken charges =   0.00000
 Mulliken charges with hydrogens summed into heavy atoms:
               1
     1  C   -0.033968
     2  C    0.027581
     3  C    0.031226
     4  C   -0.024839
 Electronic spatial extent (au):  <R**2>=            332.0111
 Charge=              0.0000 electrons
 Dipole moment (field-independent basis, Debye):
    X=              0.0315    Y=              0.0726    Z=              0.2432  Tot=              0.2557
 Quadrupole moment (field-independent basis, Debye-Ang):
   XX=            -24.0030   YY=            -23.2599   ZZ=            -29.2696
   XY=             -0.4409   XZ=              0.0919   YZ=              0.1263
 Traceless Quadrupole moment (field-independent basis, Debye-Ang):
   XX=              1.5079   YY=              2.2509   ZZ=             -3.7588
   XY=             -0.4409   XZ=              0.0919   YZ=              0.1263
 Octapole moment (field-independent basis, Debye-Ang**2):
  XXX=              2.4787  YYY=              0.5938  ZZZ=              0.5571  XYY=             -1.2262
  XXY=              0.9050  XXZ=              0.3962  XZZ=             -0.1110  YZZ=             -0.1293
  YYZ=              0.6787  XYZ=              0.6728
 Hexadecapole moment (field-independent basis, Debye-Ang**3):
 XXXX=           -346.0835 YYYY=            -67.2877 ZZZZ=            -37.8903 XXXY=              5.9906
 XXXZ=              2.2267 YYYX=             -3.0190 YYYZ=              0.2203 ZZZX=              0.0410
 ZZZY=              0.1205 XXYY=            -67.7252 XXZZ=            -77.1538 YYZZ=            -19.2787
 XXYZ=              1.5319 YYXZ=             -0.4171 ZZXY=             -0.4429
 N-N= 1.039964487925D+02 E-N=-5.687900259792D+02  KE= 1.549767952181D+02
 Leave Link  601 at Wed Aug 26 11:22:42 2020, MaxMem=  2097152000 cpu:         0.7
 (Enter /opt/cluster/programs/g09/g09_d.01/g09/l9999.exe)
 1\1\GINC-NODE28\SP\RB2PLYPD3-FC\def2QZVP\C4H6\BOITTIER\26-Aug-2020\0\\
 #p B2PLYPD3/Def2QZVP\\butadiene\\0,1\C,0,-3.816059,0.250793,-0.026916\
 C,0,-2.722899,-0.541994,0.071008\C,0,-1.395832,0.041148,0.065212\C,0,-
 0.269784,-0.640078,-0.022841\H,0,-4.898321,-0.07507,0.117787\H,0,-3.61
 7058,1.336563,-0.238315\H,0,-2.753476,-1.57655,0.223213\H,0,-1.523157,
 1.100799,0.281902\H,0,-0.201763,-1.768514,0.031251\H,0,0.621102,0.0073
 3,-0.038039\\Version=ES64L-G09RevD.01\State=1-A\HF=-155.6814875\MP2=-1
 55.9087286\RMSD=3.263e-09\PG=C01 [X(C4H6)]\\@


 ... SUBJECTS WHICH DISCLOSE THEIR FULL POWER, MEANING AND BEAUTY AS SOON
 AS THEY ARE PRESENTED TO THE MIND HAVE VERY LITTLE OF THOSE QUALITIES
 TO DISCLOSE.
                           -- CHARLES DUTTON (1882)
 Job cpu time:       0 days  0 hours 37 minutes 14.6 seconds.
 File lengths (MBytes):  RWF=     92 Int=      0 D2E=      0 Chk=      9 Scr=      1
 Normal termination of Gaussian 09 at Wed Aug 26 11:22:42 2020.
