 Entering Gaussian System, Link 0=/opt/cluster/programs/g09/g09_d.01/g09//g09
 Input=/home/boittier/MDCM/nms_sampling/butadiene_geom.xyz.dir/energies/butadiene_2067_energy.com
 Output=/scratch/boittier/butadiene_2067_energy/butadiene_2067_energy.out
 Initial command:
 /opt/cluster/programs/g09/g09_d.01/g09/l1.exe "/scratch/boittier/butadiene_2067_energy/Gau-164168.inp" -scrdir="/scratch/boittier/butadiene_2067_energy/"
 Entering Link 1 = /opt/cluster/programs/g09/g09_d.01/g09/l1.exe PID=    164169.
  
 Copyright (c) 1988,1990,1992,1993,1995,1998,2003,2009,2013,
            Gaussian, Inc.  All Rights Reserved.
  
 This is part of the Gaussian(R) 09 program.  It is based on
 the Gaussian(R) 03 system (copyright 2003, Gaussian, Inc.),
 the Gaussian(R) 98 system (copyright 1998, Gaussian, Inc.),
 the Gaussian(R) 94 system (copyright 1995, Gaussian, Inc.),
 the Gaussian 92(TM) system (copyright 1992, Gaussian, Inc.),
 the Gaussian 90(TM) system (copyright 1990, Gaussian, Inc.),
 the Gaussian 88(TM) system (copyright 1988, Gaussian, Inc.),
 the Gaussian 86(TM) system (copyright 1986, Carnegie Mellon
 University), and the Gaussian 82(TM) system (copyright 1983,
 Carnegie Mellon University). Gaussian is a federally registered
 trademark of Gaussian, Inc.
  
 This software contains proprietary and confidential information,
 including trade secrets, belonging to Gaussian, Inc.
  
 This software is provided under written license and may be
 used, copied, transmitted, or stored only in accord with that
 written license.
  
 The following legend is applicable only to US Government
 contracts under FAR:
  
                    RESTRICTED RIGHTS LEGEND
  
 Use, reproduction and disclosure by the US Government is
 subject to restrictions as set forth in subparagraphs (a)
 and (c) of the Commercial Computer Software - Restricted
 Rights clause in FAR 52.227-19.
  
 Gaussian, Inc.
 340 Quinnipiac St., Bldg. 40, Wallingford CT 06492
  
  
 ---------------------------------------------------------------
 Warning -- This program may not be used in any manner that
 competes with the business of Gaussian, Inc. or will provide
 assistance to any competitor of Gaussian, Inc.  The licensee
 of this program is prohibited from giving any competitor of
 Gaussian, Inc. access to this program.  By using this program,
 the user acknowledges that Gaussian, Inc. is engaged in the
 business of creating and licensing software in the field of
 computational chemistry and represents and warrants to the
 licensee that it is not a competitor of Gaussian, Inc. and that
 it will not use this program in any manner prohibited above.
 ---------------------------------------------------------------
  

 Cite this work as:
 Gaussian 09, Revision D.01,
 M. J. Frisch, G. W. Trucks, H. B. Schlegel, G. E. Scuseria, 
 M. A. Robb, J. R. Cheeseman, G. Scalmani, V. Barone, B. Mennucci, 
 G. A. Petersson, H. Nakatsuji, M. Caricato, X. Li, H. P. Hratchian, 
 A. F. Izmaylov, J. Bloino, G. Zheng, J. L. Sonnenberg, M. Hada, 
 M. Ehara, K. Toyota, R. Fukuda, J. Hasegawa, M. Ishida, T. Nakajima, 
 Y. Honda, O. Kitao, H. Nakai, T. Vreven, J. A. Montgomery, Jr., 
 J. E. Peralta, F. Ogliaro, M. Bearpark, J. J. Heyd, E. Brothers, 
 K. N. Kudin, V. N. Staroverov, T. Keith, R. Kobayashi, J. Normand, 
 K. Raghavachari, A. Rendell, J. C. Burant, S. S. Iyengar, J. Tomasi, 
 M. Cossi, N. Rega, J. M. Millam, M. Klene, J. E. Knox, J. B. Cross, 
 V. Bakken, C. Adamo, J. Jaramillo, R. Gomperts, R. E. Stratmann, 
 O. Yazyev, A. J. Austin, R. Cammi, C. Pomelli, J. W. Ochterski, 
 R. L. Martin, K. Morokuma, V. G. Zakrzewski, G. A. Voth, 
 P. Salvador, J. J. Dannenberg, S. Dapprich, A. D. Daniels, 
 O. Farkas, J. B. Foresman, J. V. Ortiz, J. Cioslowski, 
 and D. J. Fox, Gaussian, Inc., Wallingford CT, 2013.
 
 ******************************************
 Gaussian 09:  ES64L-G09RevD.01 24-Apr-2013
                26-Aug-2020 
 ******************************************
 %chk=/home/boittier/MDCM/nms_sampling/butadiene_geom.xyz.dir/butadiene_2067.chk
 %nproc=8
 Will use up to    8 processors via shared memory.
 %mem=16000MB
 --------------------
 #p B2PLYPD3/Def2QZVP
 --------------------
 1/38=1/1;
 2/12=2,17=6,18=5,40=1/2;
 3/5=45,7=101,11=9,16=1,25=1,30=1,74=-60/1,2,3;
 4//1;
 5/5=2,38=5/2;
 8/10=1/1;
 9/16=-3/6;
 6/7=2,8=2,9=2,10=2/1;
 99/5=1,9=1/99;
 Leave Link    1 at Wed Aug 26 12:01:15 2020, MaxMem=  2097152000 cpu:         0.4
 (Enter /opt/cluster/programs/g09/g09_d.01/g09/l101.exe)
 ---------
 butadiene
 ---------
 Symbolic Z-matrix:
 Charge =  0 Multiplicity = 1
 C                    -3.86163   0.2267    0.05811 
 C                    -2.76918  -0.50619  -0.03377 
 C                    -1.36978   0.03899  -0.03422 
 C                    -0.22038  -0.62173   0.09456 
 H                    -4.74614  -0.23143   0.24594 
 H                    -3.75379   1.30208   0.22601 
 H                    -2.80981  -1.56394  -0.19404 
 H                    -1.27244   1.14714  -0.29902 
 H                    -0.33578  -1.70756   0.24349 
 H                     0.78059  -0.21001   0.01974 
 
 NAtoms=     10 NQM=       10 NQMF=       0 NMMI=      0 NMMIF=      0
                NMic=       0 NMicF=      0.
                    Isotopes and Nuclear Properties:
 (Nuclear quadrupole moments (NQMom) in fm**2, nuclear magnetic moments (NMagM)
  in nuclear magnetons)

  Atom         1           2           3           4           5           6           7           8           9          10
 IAtWgt=          12          12          12          12           1           1           1           1           1           1
 AtmWgt=  12.0000000  12.0000000  12.0000000  12.0000000   1.0078250   1.0078250   1.0078250   1.0078250   1.0078250   1.0078250
 NucSpn=           0           0           0           0           1           1           1           1           1           1
 AtZEff=   0.0000000   0.0000000   0.0000000   0.0000000   0.0000000   0.0000000   0.0000000   0.0000000   0.0000000   0.0000000
 NQMom=    0.0000000   0.0000000   0.0000000   0.0000000   0.0000000   0.0000000   0.0000000   0.0000000   0.0000000   0.0000000
 NMagM=    0.0000000   0.0000000   0.0000000   0.0000000   2.7928460   2.7928460   2.7928460   2.7928460   2.7928460   2.7928460
 AtZNuc=   6.0000000   6.0000000   6.0000000   6.0000000   1.0000000   1.0000000   1.0000000   1.0000000   1.0000000   1.0000000
 Leave Link  101 at Wed Aug 26 12:01:16 2020, MaxMem=  2097152000 cpu:         0.5
 (Enter /opt/cluster/programs/g09/g09_d.01/g09/l202.exe)
                          Input orientation:                          
 ---------------------------------------------------------------------
 Center     Atomic      Atomic             Coordinates (Angstroms)
 Number     Number       Type             X           Y           Z
 ---------------------------------------------------------------------
      1          6           0       -3.861627    0.226704    0.058107
      2          6           0       -2.769176   -0.506190   -0.033770
      3          6           0       -1.369781    0.038991   -0.034217
      4          6           0       -0.220377   -0.621734    0.094559
      5          1           0       -4.746138   -0.231434    0.245941
      6          1           0       -3.753786    1.302075    0.226006
      7          1           0       -2.809809   -1.563944   -0.194043
      8          1           0       -1.272442    1.147143   -0.299019
      9          1           0       -0.335776   -1.707556    0.243493
     10          1           0        0.780588   -0.210012    0.019739
 ---------------------------------------------------------------------
                    Distance matrix (angstroms):
                    1          2          3          4          5
     1  C    0.000000
     2  C    1.318721   0.000000
     3  C    2.500611   1.501842   0.000000
     4  C    3.738967   2.554642   1.332017   0.000000
     5  H    1.013672   2.015467   3.398736   4.545081   0.000000
     6  H    1.093729   2.075274   2.710457   4.025332   1.826694
     7  H    2.091966   1.070599   2.160700   2.770597   2.391347
     8  H    2.771033   2.245903   1.143502   2.095393   3.776774
     9  H    4.025836   2.727928   2.048589   1.102047   4.650832
    10  H    4.662870   3.562500   2.165410   1.084917   5.531395
                    6          7          8          9         10
     6  H    0.000000
     7  H    3.046572   0.000000
     8  H    2.541008   3.118415   0.000000
     9  H    4.554226   2.516526   3.053026   0.000000
    10  H    4.784297   3.843148   2.481614   1.881216   0.000000
 Stoichiometry    C4H6
 Framework group  C1[X(C4H6)]
 Deg. of freedom    24
 Full point group                 C1      NOp   1
 Largest Abelian subgroup         C1      NOp   1
 Largest concise Abelian subgroup C1      NOp   1
                         Standard orientation:                         
 ---------------------------------------------------------------------
 Center     Atomic      Atomic             Coordinates (Angstroms)
 Number     Number       Type             X           Y           Z
 ---------------------------------------------------------------------
      1          6           0        1.861357    0.128918   -0.031528
      2          6           0        0.660859   -0.406701    0.073070
      3          6           0       -0.626790    0.365809    0.046323
      4          6           0       -1.870629   -0.095804   -0.072203
      5          1           0        2.656677   -0.476915   -0.198755
      6          1           0        1.936571    1.201527   -0.231765
      7          1           0        0.522385   -1.450881    0.264630
      8          1           0       -0.536983    1.482049    0.277709
      9          1           0       -1.939217   -1.189572   -0.188285
     10          1           0       -2.788221    0.480458   -0.017507
 ---------------------------------------------------------------------
 Rotational constants (GHZ):     42.0590842      4.3176575      3.9425272
 Leave Link  202 at Wed Aug 26 12:01:16 2020, MaxMem=  2097152000 cpu:         0.0
 (Enter /opt/cluster/programs/g09/g09_d.01/g09/l301.exe)
 Standard basis: def2QZVP (5D, 7F)
 Ernie: Thresh=  0.10000D-02 Tol=  0.10000D-05 Strict=F.
 There are   498 symmetry adapted cartesian basis functions of A   symmetry.
 There are   408 symmetry adapted basis functions of A   symmetry.
   408 basis functions,   596 primitive gaussians,   498 cartesian basis functions
    15 alpha electrons       15 beta electrons
       nuclear repulsion energy       103.2902783580 Hartrees.
 IExCor=  419 DFT=T Ex+Corr=B2PLYPD3 ExCW=0 ScaHFX=  0.530000
 ScaDFX=  0.470000  0.470000  0.730000  0.730000 ScalE2=  0.270000  0.270000
 IRadAn=      0 IRanWt=     -1 IRanGd=            0 ICorTp=0 IEmpDi=141
 NAtoms=   10 NActive=   10 NUniq=   10 SFac= 1.00D+00 NAtFMM=   60 NAOKFM=F Big=F
 Integral buffers will be    131072 words long.
 Regular integral format.
 Two-electron integral symmetry is turned on.
 R6Disp:  Grimme-D3(BJ) Dispersion energy=       -0.0048106523 Hartrees.
 Nuclear repulsion after empirical dispersion term =      103.2854677057 Hartrees.
 Leave Link  301 at Wed Aug 26 12:01:16 2020, MaxMem=  2097152000 cpu:         0.4
 (Enter /opt/cluster/programs/g09/g09_d.01/g09/l302.exe)
 NPDir=0 NMtPBC=     1 NCelOv=     1 NCel=       1 NClECP=     1 NCelD=      1
         NCelK=      1 NCelE2=     1 NClLst=     1 CellRange=     0.0.
 One-electron integrals computed using PRISM.
   1 Symmetry operations used in ECPInt.
 ECPInt:  NShTT=    8256 NPrTT=   19107 LenC2=    8056 LenP2D=   16086.
 LDataN:  DoStor=T MaxTD1= 8 Len=  415
 NBasis=   408 RedAO= T EigKep=  4.68D-05  NBF=   408
 NBsUse=   408 1.00D-06 EigRej= -1.00D+00 NBFU=   408
 Precomputing XC quadrature grid using
 IXCGrd= 4 IRadAn=           0 IRanWt=          -1 IRanGd=           0 AccXCQ= 0.00D+00.
 Generated NRdTot=       0 NPtTot=           0 NUsed=           0 NTot=          32
 NSgBfM=   498   498   498   498   498 MxSgAt=    10 MxSgA2=    10.
 Leave Link  302 at Wed Aug 26 12:01:16 2020, MaxMem=  2097152000 cpu:         3.8
 (Enter /opt/cluster/programs/g09/g09_d.01/g09/l303.exe)
 DipDrv:  MaxL=1.
 Leave Link  303 at Wed Aug 26 12:01:16 2020, MaxMem=  2097152000 cpu:         0.4
 (Enter /opt/cluster/programs/g09/g09_d.01/g09/l401.exe)
 ExpMin= 7.60D-02 ExpMax= 6.70D+04 ExpMxC= 6.47D+02 IAcc=2 IRadAn=         4 AccDes= 0.00D+00
 Harris functional with IExCor=  419 and IRadAn=       4 diagonalized for initial guess.
 HarFok:  IExCor=  419 AccDes= 0.00D+00 IRadAn=         4 IDoV= 1 UseB2=F ITyADJ=14
 ICtDFT=  3500011 ScaDFX=  1.000000  1.000000  1.000000  1.000000
 FoFCou: FMM=F IPFlag=           0 FMFlag=      100000 FMFlg1=           0
         NFxFlg=           0 DoJE=T BraDBF=F KetDBF=T FulRan=T
         wScrn=  0.000000 ICntrl=     500 IOpCl=  0 I1Cent=   200000004 NGrid=           0
         NMat0=    1 NMatS0=      1 NMatT0=    0 NMatD0=    1 NMtDS0=    0 NMtDT0=    0
 Petite list used in FoFCou.
 Harris En= -156.124481029477    
 JPrj=0 DoOrth=F DoCkMO=F.
 Leave Link  401 at Wed Aug 26 12:01:17 2020, MaxMem=  2097152000 cpu:         9.4
 (Enter /opt/cluster/programs/g09/g09_d.01/g09/l502.exe)
 Closed shell SCF:
 Using DIIS extrapolation, IDIIS=  1040.
 Integral symmetry usage will be decided dynamically.
 IVT=      770090 IEndB=      770090 NGot=  2097152000 MDV=  2096647053
 LenX=  2096647053 LenY=  2096398551
 Requested convergence on RMS density matrix=1.00D-08 within 128 cycles.
 Requested convergence on MAX density matrix=1.00D-06.
 Requested convergence on             energy=1.00D-06.
 No special actions if energy rises.
 Fock matrices will be formed incrementally for  20 cycles.
 Integral accuracy reduced to 1.0D-05 until final iterations.

 Cycle   1  Pass 0  IDiag  1:
 FoFJK:  IHMeth= 1 ICntrl=       0 DoSepK=F KAlg= 0 I1Cent=   0 FoldK=F
 IRaf= 940000000 NMat=   1 IRICut=       1 DoRegI=T DoRafI=F ISym2E= 0.
 FoFCou: FMM=F IPFlag=           0 FMFlag=      100000 FMFlg1=           0
         NFxFlg=           0 DoJE=F BraDBF=F KetDBF=F FulRan=T
         wScrn=  0.000000 ICntrl=       0 IOpCl=  0 I1Cent=           0 NGrid=           0
         NMat0=    1 NMatS0=      1 NMatT0=    0 NMatD0=    1 NMtDS0=    0 NMtDT0=    0
 Symmetry not used in FoFCou.
 E= -155.497404201878    
 DIIS: error= 2.73D-02 at cycle   1 NSaved=   1.
 NSaved= 1 IEnMin= 1 EnMin= -155.497404201878     IErMin= 1 ErrMin= 2.73D-02
 ErrMax= 2.73D-02  0.00D+00 EMaxC= 1.00D-01 BMatC= 2.56D-01 BMatP= 2.56D-01
 IDIUse=3 WtCom= 7.27D-01 WtEn= 2.73D-01
 Coeff-Com:  0.100D+01
 Coeff-En:   0.100D+01
 Coeff:      0.100D+01
 Gap=     0.309 Goal=   None    Shift=    0.000
 GapD=    0.309 DampG=1.000 DampE=0.500 DampFc=0.5000 IDamp=-1.
 Damping current iteration by 5.00D-01
 RMSDP=9.59D-04 MaxDP=5.56D-02              OVMax= 1.90D-01

 Cycle   2  Pass 0  IDiag  1:
 RMSU=  4.39D-04    CP:  9.49D-01
 E= -155.598396763532     Delta-E=       -0.100992561655 Rises=F Damp=T
 DIIS: error= 8.48D-03 at cycle   2 NSaved=   2.
 NSaved= 2 IEnMin= 2 EnMin= -155.598396763532     IErMin= 2 ErrMin= 8.48D-03
 ErrMax= 8.48D-03  0.00D+00 EMaxC= 1.00D-01 BMatC= 2.98D-02 BMatP= 2.56D-01
 IDIUse=3 WtCom= 9.15D-01 WtEn= 8.48D-02
 Coeff-Com: -0.304D+00 0.130D+01
 Coeff-En:   0.000D+00 0.100D+01
 Coeff:     -0.278D+00 0.128D+01
 Gap=     0.359 Goal=   None    Shift=    0.000
 RMSDP=2.54D-04 MaxDP=8.78D-03 DE=-1.01D-01 OVMax= 8.80D-02

 Cycle   3  Pass 0  IDiag  1:
 RMSU=  2.39D-04    CP:  9.31D-01  1.12D+00
 E= -155.685129714296     Delta-E=       -0.086732950763 Rises=F Damp=F
 DIIS: error= 3.31D-03 at cycle   3 NSaved=   3.
 NSaved= 3 IEnMin= 3 EnMin= -155.685129714296     IErMin= 3 ErrMin= 3.31D-03
 ErrMax= 3.31D-03  0.00D+00 EMaxC= 1.00D-01 BMatC= 1.34D-03 BMatP= 2.98D-02
 IDIUse=3 WtCom= 9.67D-01 WtEn= 3.31D-02
 Coeff-Com: -0.102D+00 0.182D+00 0.920D+00
 Coeff-En:   0.000D+00 0.000D+00 0.100D+01
 Coeff:     -0.986D-01 0.176D+00 0.923D+00
 Gap=     0.304 Goal=   None    Shift=    0.000
 RMSDP=5.65D-05 MaxDP=3.04D-03 DE=-8.67D-02 OVMax= 1.25D-02

 Cycle   4  Pass 0  IDiag  1:
 RMSU=  3.50D-05    CP:  9.27D-01  1.21D+00  9.58D-01
 E= -155.686394203544     Delta-E=       -0.001264489249 Rises=F Damp=F
 DIIS: error= 1.13D-03 at cycle   4 NSaved=   4.
 NSaved= 4 IEnMin= 4 EnMin= -155.686394203544     IErMin= 4 ErrMin= 1.13D-03
 ErrMax= 1.13D-03  0.00D+00 EMaxC= 1.00D-01 BMatC= 1.67D-04 BMatP= 1.34D-03
 IDIUse=3 WtCom= 9.89D-01 WtEn= 1.13D-02
 Coeff-Com: -0.448D-01 0.728D-01 0.436D+00 0.536D+00
 Coeff-En:   0.000D+00 0.000D+00 0.000D+00 0.100D+01
 Coeff:     -0.443D-01 0.720D-01 0.431D+00 0.541D+00
 Gap=     0.304 Goal=   None    Shift=    0.000
 RMSDP=1.78D-05 MaxDP=1.00D-03 DE=-1.26D-03 OVMax= 5.37D-03

 Cycle   5  Pass 0  IDiag  1:
 RMSU=  1.34D-05    CP:  9.27D-01  1.21D+00  9.84D-01  7.30D-01
 E= -155.686553113257     Delta-E=       -0.000158909713 Rises=F Damp=F
 DIIS: error= 2.81D-04 at cycle   5 NSaved=   5.
 NSaved= 5 IEnMin= 5 EnMin= -155.686553113257     IErMin= 5 ErrMin= 2.81D-04
 ErrMax= 2.81D-04  0.00D+00 EMaxC= 1.00D-01 BMatC= 7.56D-06 BMatP= 1.67D-04
 IDIUse=3 WtCom= 9.97D-01 WtEn= 2.81D-03
 Coeff-Com: -0.295D-02 0.261D-02 0.402D-01 0.187D+00 0.773D+00
 Coeff-En:   0.000D+00 0.000D+00 0.000D+00 0.000D+00 0.100D+01
 Coeff:     -0.294D-02 0.261D-02 0.400D-01 0.187D+00 0.774D+00
 Gap=     0.304 Goal=   None    Shift=    0.000
 RMSDP=3.70D-06 MaxDP=1.52D-04 DE=-1.59D-04 OVMax= 1.17D-03

 Initial convergence to 1.0D-05 achieved.  Increase integral accuracy.
 Cycle   6  Pass 1  IDiag  1:
 E= -155.686545580610     Delta-E=        0.000007532647 Rises=F Damp=F
 DIIS: error= 3.93D-05 at cycle   1 NSaved=   1.
 NSaved= 1 IEnMin= 1 EnMin= -155.686545580610     IErMin= 1 ErrMin= 3.93D-05
 ErrMax= 3.93D-05  0.00D+00 EMaxC= 1.00D-01 BMatC= 4.78D-07 BMatP= 4.78D-07
 IDIUse=1 WtCom= 1.00D+00 WtEn= 0.00D+00
 Coeff-Com:  0.100D+01
 Coeff:      0.100D+01
 Gap=     0.304 Goal=   None    Shift=    0.000
 RMSDP=3.70D-06 MaxDP=1.52D-04 DE= 7.53D-06 OVMax= 3.23D-04

 Cycle   7  Pass 1  IDiag  1:
 RMSU=  2.17D-05    CP:  1.00D+00
 E= -155.686545893094     Delta-E=       -0.000000312484 Rises=F Damp=F
 DIIS: error= 2.12D-05 at cycle   2 NSaved=   2.
 NSaved= 2 IEnMin= 2 EnMin= -155.686545893094     IErMin= 2 ErrMin= 2.12D-05
 ErrMax= 2.12D-05  0.00D+00 EMaxC= 1.00D-01 BMatC= 4.40D-08 BMatP= 4.78D-07
 IDIUse=1 WtCom= 1.00D+00 WtEn= 0.00D+00
 Coeff-Com:  0.122D+00 0.878D+00
 Coeff:      0.122D+00 0.878D+00
 Gap=     0.304 Goal=   None    Shift=    0.000
 RMSDP=1.04D-06 MaxDP=4.13D-05 DE=-3.12D-07 OVMax= 1.32D-04

 Cycle   8  Pass 1  IDiag  1:
 RMSU=  6.27D-07    CP:  1.00D+00  1.04D+00
 E= -155.686545917580     Delta-E=       -0.000000024487 Rises=F Damp=F
 DIIS: error= 1.33D-05 at cycle   3 NSaved=   3.
 NSaved= 3 IEnMin= 3 EnMin= -155.686545917580     IErMin= 3 ErrMin= 1.33D-05
 ErrMax= 1.33D-05  0.00D+00 EMaxC= 1.00D-01 BMatC= 2.34D-08 BMatP= 4.40D-08
 IDIUse=1 WtCom= 1.00D+00 WtEn= 0.00D+00
 Coeff-Com: -0.114D-01 0.416D+00 0.595D+00
 Coeff:     -0.114D-01 0.416D+00 0.595D+00
 Gap=     0.304 Goal=   None    Shift=    0.000
 RMSDP=2.83D-07 MaxDP=1.44D-05 DE=-2.45D-08 OVMax= 7.01D-05

 Cycle   9  Pass 1  IDiag  1:
 RMSU=  2.22D-07    CP:  1.00D+00  1.05D+00  1.01D+00
 E= -155.686545940840     Delta-E=       -0.000000023260 Rises=F Damp=F
 DIIS: error= 3.41D-06 at cycle   4 NSaved=   4.
 NSaved= 4 IEnMin= 4 EnMin= -155.686545940840     IErMin= 4 ErrMin= 3.41D-06
 ErrMax= 3.41D-06  0.00D+00 EMaxC= 1.00D-01 BMatC= 8.46D-10 BMatP= 2.34D-08
 IDIUse=1 WtCom= 1.00D+00 WtEn= 0.00D+00
 Coeff-Com: -0.103D-01 0.893D-01 0.213D+00 0.708D+00
 Coeff:     -0.103D-01 0.893D-01 0.213D+00 0.708D+00
 Gap=     0.304 Goal=   None    Shift=    0.000
 RMSDP=7.57D-08 MaxDP=3.16D-06 DE=-2.33D-08 OVMax= 1.53D-05

 Cycle  10  Pass 1  IDiag  1:
 RMSU=  5.08D-08    CP:  1.00D+00  1.05D+00  1.07D+00  1.06D+00
 E= -155.686545941789     Delta-E=       -0.000000000949 Rises=F Damp=F
 DIIS: error= 6.24D-07 at cycle   5 NSaved=   5.
 NSaved= 5 IEnMin= 5 EnMin= -155.686545941789     IErMin= 5 ErrMin= 6.24D-07
 ErrMax= 6.24D-07  0.00D+00 EMaxC= 1.00D-01 BMatC= 8.08D-11 BMatP= 8.46D-10
 IDIUse=1 WtCom= 1.00D+00 WtEn= 0.00D+00
 Coeff-Com: -0.132D-02-0.380D-01-0.167D-01 0.193D+00 0.863D+00
 Coeff:     -0.132D-02-0.380D-01-0.167D-01 0.193D+00 0.863D+00
 Gap=     0.304 Goal=   None    Shift=    0.000
 RMSDP=2.87D-08 MaxDP=1.36D-06 DE=-9.49D-10 OVMax= 8.31D-06

 Cycle  11  Pass 1  IDiag  1:
 RMSU=  1.94D-08    CP:  1.00D+00  1.05D+00  1.10D+00  1.12D+00  1.08D+00
 E= -155.686545941913     Delta-E=       -0.000000000125 Rises=F Damp=F
 DIIS: error= 1.93D-07 at cycle   6 NSaved=   6.
 NSaved= 6 IEnMin= 6 EnMin= -155.686545941913     IErMin= 6 ErrMin= 1.93D-07
 ErrMax= 1.93D-07  0.00D+00 EMaxC= 1.00D-01 BMatC= 9.26D-12 BMatP= 8.08D-11
 IDIUse=1 WtCom= 1.00D+00 WtEn= 0.00D+00
 Coeff-Com:  0.648D-03-0.230D-01-0.254D-01-0.116D-01 0.300D+00 0.760D+00
 Coeff:      0.648D-03-0.230D-01-0.254D-01-0.116D-01 0.300D+00 0.760D+00
 Gap=     0.304 Goal=   None    Shift=    0.000
 RMSDP=7.41D-09 MaxDP=2.08D-07 DE=-1.25D-10 OVMax= 1.77D-06

 SCF Done:  E(RB2PLYPD3) =  -155.686545942     A.U. after   11 cycles
            NFock= 11  Conv=0.74D-08     -V/T= 2.0038
 KE= 1.550995914717D+02 PE=-5.674462468922D+02 EE= 1.533746417729D+02
 Leave Link  502 at Wed Aug 26 12:04:26 2020, MaxMem=  2097152000 cpu:      1507.5
 (Enter /opt/cluster/programs/g09/g09_d.01/g09/l801.exe)
 DoSCS=T DFT=T ScalE2(SS,OS)=  0.270000  0.270000
 ExpMin= 7.60D-02 ExpMax= 6.70D+04 ExpMxC= 6.47D+02 IAcc=3 IRadAn=         5 AccDes= 0.00D+00
 HarFok:  IExCor=  205 AccDes= 0.00D+00 IRadAn=         5 IDoV=-2 UseB2=F ITyADJ=14
 ICtDFT= 12500011 ScaDFX=  1.000000  1.000000  1.000000  1.000000
 Largest valence mixing into a core orbital is  1.12D-04
 Largest core mixing into a valence orbital is  2.01D-05
 Range of M.O.s used for correlation:     5   408
 NBasis=   408 NAE=    15 NBE=    15 NFC=     4 NFV=     0
 NROrb=    404 NOA=    11 NOB=    11 NVA=   393 NVB=   393

 **** Warning!!: The largest alpha MO coefficient is  0.26454657D+02

 Leave Link  801 at Wed Aug 26 12:04:26 2020, MaxMem=  2097152000 cpu:         1.1
 (Enter /opt/cluster/programs/g09/g09_d.01/g09/l906.exe)
 DoSCS=T DFT=T ScalE2(SS,OS)=  0.270000  0.270000
 FulOut=F Deriv=F AODrv=F NAtomX=    10
   MMem=         881  MDisk=          11 MDiskD=          11
  W3Min=     2152854 MinDsk=     3857222 NBas6D=         498
 NBas2D=      125763    NTT=      124251    LW2=     4508827
    MDV=  2096382998 MDiskM=        9345 NBas2p=      117476
 Fully direct method using O(OVN) memory.
 IMap=   1   2   3   4   5   6   7   8   9  10  11
 JobTyp=1 Pass  1:  I=   1 to  11 NPSUse=  8 ParTrn=T ParDer=T DoDerP=F.
 Spin components of T(2) and E(2):
     alpha-alpha T2 =       0.4193176316D-01 E2=     -0.2536478218D-01
     alpha-beta  T2 =       0.2719041633D+00 E2=     -0.1750488164D+00
     beta-beta   T2 =       0.4193176316D-01 E2=     -0.2536478218D-01
 The integrals were generated   1 times.
 E2(B2PLYPD3) =    -0.2257783807D+00 E(B2PLYPD3) =    -0.15591232432266D+03
 Leave Link  906 at Wed Aug 26 12:06:39 2020, MaxMem=  2097152000 cpu:      1038.1
 (Enter /opt/cluster/programs/g09/g09_d.01/g09/l601.exe)
 Copying SCF densities to generalized density rwf, IOpCl= 0 IROHF=0.

 **********************************************************************

            Population analysis using the SCF density.

 **********************************************************************

 Orbital symmetries:
       Occupied  (A) (A) (A) (A) (A) (A) (A) (A) (A) (A) (A) (A)
                 (A) (A) (A)
       Virtual   (A) (A) (A) (A) (A) (A) (A) (A) (A) (A) (A) (A)
                 (A) (A) (A) (A) (A) (A) (A) (A) (A) (A) (A) (A)
                 (A) (A) (A) (A) (A) (A) (A) (A) (A) (A) (A) (A)
                 (A) (A) (A) (A) (A) (A) (A) (A) (A) (A) (A) (A)
                 (A) (A) (A) (A) (A) (A) (A) (A) (A) (A) (A) (A)
                 (A) (A) (A) (A) (A) (A) (A) (A) (A) (A) (A) (A)
                 (A) (A) (A) (A) (A) (A) (A) (A) (A) (A) (A) (A)
                 (A) (A) (A) (A) (A) (A) (A) (A) (A) (A) (A) (A)
                 (A) (A) (A) (A) (A) (A) (A) (A) (A) (A) (A) (A)
                 (A) (A) (A) (A) (A) (A) (A) (A) (A) (A) (A) (A)
                 (A) (A) (A) (A) (A) (A) (A) (A) (A) (A) (A) (A)
                 (A) (A) (A) (A) (A) (A) (A) (A) (A) (A) (A) (A)
                 (A) (A) (A) (A) (A) (A) (A) (A) (A) (A) (A) (A)
                 (A) (A) (A) (A) (A) (A) (A) (A) (A) (A) (A) (A)
                 (A) (A) (A) (A) (A) (A) (A) (A) (A) (A) (A) (A)
                 (A) (A) (A) (A) (A) (A) (A) (A) (A) (A) (A) (A)
                 (A) (A) (A) (A) (A) (A) (A) (A) (A) (A) (A) (A)
                 (A) (A) (A) (A) (A) (A) (A) (A) (A) (A) (A) (A)
                 (A) (A) (A) (A) (A) (A) (A) (A) (A) (A) (A) (A)
                 (A) (A) (A) (A) (A) (A) (A) (A) (A) (A) (A) (A)
                 (A) (A) (A) (A) (A) (A) (A) (A) (A) (A) (A) (A)
                 (A) (A) (A) (A) (A) (A) (A) (A) (A) (A) (A) (A)
                 (A) (A) (A) (A) (A) (A) (A) (A) (A) (A) (A) (A)
                 (A) (A) (A) (A) (A) (A) (A) (A) (A) (A) (A) (A)
                 (A) (A) (A) (A) (A) (A) (A) (A) (A) (A) (A) (A)
                 (A) (A) (A) (A) (A) (A) (A) (A) (A) (A) (A) (A)
                 (A) (A) (A) (A) (A) (A) (A) (A) (A) (A) (A) (A)
                 (A) (A) (A) (A) (A) (A) (A) (A) (A) (A) (A) (A)
                 (A) (A) (A) (A) (A) (A) (A) (A) (A) (A) (A) (A)
                 (A) (A) (A) (A) (A) (A) (A) (A) (A) (A) (A) (A)
                 (A) (A) (A) (A) (A) (A) (A) (A) (A) (A) (A) (A)
                 (A) (A) (A) (A) (A) (A) (A) (A) (A) (A) (A) (A)
                 (A) (A) (A) (A) (A) (A) (A) (A) (A)
 The electronic state is 1-A.
 Alpha  occ. eigenvalues --  -10.63315 -10.62849 -10.61796 -10.60880  -0.92524
 Alpha  occ. eigenvalues --   -0.85607  -0.70104  -0.63210  -0.55335  -0.53580
 Alpha  occ. eigenvalues --   -0.47926  -0.45077  -0.40525  -0.36895  -0.28517
 Alpha virt. eigenvalues --    0.01896   0.07147   0.07454   0.07913   0.09342
 Alpha virt. eigenvalues --    0.11506   0.12611   0.14398   0.15390   0.16186
 Alpha virt. eigenvalues --    0.18901   0.19752   0.21374   0.22316   0.23430
 Alpha virt. eigenvalues --    0.26330   0.26923   0.29885   0.31060   0.32118
 Alpha virt. eigenvalues --    0.34929   0.35260   0.36976   0.38103   0.39722
 Alpha virt. eigenvalues --    0.41639   0.42331   0.44625   0.46680   0.47371
 Alpha virt. eigenvalues --    0.48571   0.50137   0.53116   0.54126   0.56521
 Alpha virt. eigenvalues --    0.58908   0.64347   0.65756   0.66579   0.68478
 Alpha virt. eigenvalues --    0.69810   0.70438   0.75868   0.76729   0.77479
 Alpha virt. eigenvalues --    0.79013   0.80764   0.82165   0.82981   0.84718
 Alpha virt. eigenvalues --    0.85164   0.85885   0.86842   0.87096   0.91021
 Alpha virt. eigenvalues --    0.92653   0.93425   0.94753   0.95567   0.96989
 Alpha virt. eigenvalues --    0.98261   0.98963   1.00166   1.02405   1.04406
 Alpha virt. eigenvalues --    1.05090   1.06484   1.08647   1.10142   1.10947
 Alpha virt. eigenvalues --    1.13417   1.15825   1.19421   1.22122   1.24932
 Alpha virt. eigenvalues --    1.25972   1.28394   1.30082   1.30543   1.35963
 Alpha virt. eigenvalues --    1.38058   1.40243   1.47462   1.54316   1.57954
 Alpha virt. eigenvalues --    1.60208   1.64375   1.68193   1.69105   1.74449
 Alpha virt. eigenvalues --    1.76417   1.81326   1.82985   1.84905   1.87137
 Alpha virt. eigenvalues --    1.90389   1.91873   1.92417   1.93392   1.94190
 Alpha virt. eigenvalues --    1.97764   1.98136   1.99420   2.00732   2.03114
 Alpha virt. eigenvalues --    2.03716   2.05244   2.07919   2.08814   2.09699
 Alpha virt. eigenvalues --    2.11518   2.11837   2.15504   2.18797   2.19720
 Alpha virt. eigenvalues --    2.21064   2.21602   2.23008   2.24824   2.28201
 Alpha virt. eigenvalues --    2.30259   2.33554   2.33957   2.37693   2.41104
 Alpha virt. eigenvalues --    2.43256   2.44026   2.45171   2.45606   2.48013
 Alpha virt. eigenvalues --    2.49905   2.55157   2.55524   2.57751   2.58639
 Alpha virt. eigenvalues --    2.60463   2.61229   2.62105   2.64039   2.65495
 Alpha virt. eigenvalues --    2.67179   2.68178   2.69064   2.70526   2.71154
 Alpha virt. eigenvalues --    2.72542   2.77159   2.78542   2.79780   2.80748
 Alpha virt. eigenvalues --    2.84130   2.87519   2.88917   2.91330   2.92090
 Alpha virt. eigenvalues --    2.95146   2.98189   3.01667   3.04805   3.09682
 Alpha virt. eigenvalues --    3.11380   3.12835   3.23404   3.28906   3.33203
 Alpha virt. eigenvalues --    3.34199   3.35540   3.41077   3.43332   3.46233
 Alpha virt. eigenvalues --    3.46555   3.49194   3.50078   3.57801   3.58499
 Alpha virt. eigenvalues --    3.59154   3.62121   3.65759   3.67007   3.72151
 Alpha virt. eigenvalues --    3.73957   3.83813   3.87468   3.90350   3.92143
 Alpha virt. eigenvalues --    3.94486   3.98038   3.99998   4.08613   4.11859
 Alpha virt. eigenvalues --    4.15062   4.17497   4.19469   4.27458   4.38021
 Alpha virt. eigenvalues --    4.43034   4.52796   4.57229   4.80509   5.00606
 Alpha virt. eigenvalues --    5.03261   5.04506   5.07049   5.09566   5.11403
 Alpha virt. eigenvalues --    5.15054   5.17598   5.23303   5.27797   5.30273
 Alpha virt. eigenvalues --    5.33051   5.33788   5.34870   5.43898   5.47727
 Alpha virt. eigenvalues --    5.52750   5.57065   5.58908   5.60974   5.62890
 Alpha virt. eigenvalues --    5.68521   5.71016   5.71919   5.73880   5.75164
 Alpha virt. eigenvalues --    5.78577   5.79977   5.83360   5.86451   5.87896
 Alpha virt. eigenvalues --    5.89372   5.93802   5.96542   5.98944   6.00360
 Alpha virt. eigenvalues --    6.01317   6.05796   6.07143   6.10644   6.11365
 Alpha virt. eigenvalues --    6.13289   6.14493   6.18214   6.18646   6.19548
 Alpha virt. eigenvalues --    6.23011   6.24963   6.26174   6.27099   6.29048
 Alpha virt. eigenvalues --    6.33527   6.35203   6.36048   6.37257   6.38956
 Alpha virt. eigenvalues --    6.39908   6.41431   6.44481   6.45345   6.48755
 Alpha virt. eigenvalues --    6.52513   6.55024   6.57420   6.59880   6.62271
 Alpha virt. eigenvalues --    6.63728   6.66672   6.67804   6.72521   6.75215
 Alpha virt. eigenvalues --    6.76511   6.82374   6.85520   6.90515   6.94781
 Alpha virt. eigenvalues --    6.96367   6.98503   7.03274   7.05104   7.07974
 Alpha virt. eigenvalues --    7.11209   7.13712   7.17240   7.19331   7.21952
 Alpha virt. eigenvalues --    7.25530   7.31726   7.33961   7.35566   7.39564
 Alpha virt. eigenvalues --    7.45896   7.50255   7.52328   7.56483   7.58961
 Alpha virt. eigenvalues --    7.61887   7.62990   7.64968   7.65881   7.66877
 Alpha virt. eigenvalues --    7.69048   7.72046   7.74048   7.75791   7.76749
 Alpha virt. eigenvalues --    7.79157   7.83177   7.83885   7.88997   7.91999
 Alpha virt. eigenvalues --    7.92812   7.94930   7.97365   8.05792   8.09512
 Alpha virt. eigenvalues --    8.12782   8.14984   8.15680   8.17231   8.18899
 Alpha virt. eigenvalues --    8.20551   8.24626   8.29636   8.30000   8.32369
 Alpha virt. eigenvalues --    8.36982   8.37849   8.41568   8.42730   8.44216
 Alpha virt. eigenvalues --    8.47575   8.48601   8.50661   8.53335   8.56419
 Alpha virt. eigenvalues --    8.60469   8.62849   8.64183   8.67025   8.69008
 Alpha virt. eigenvalues --    8.70418   8.78967   8.79534   8.86242   8.89911
 Alpha virt. eigenvalues --    8.92719   8.94368   8.97775   9.06257   9.11653
 Alpha virt. eigenvalues --    9.18715   9.22322   9.28814   9.34630   9.44285
 Alpha virt. eigenvalues --    9.50236   9.58297   9.64141   9.66078   9.71632
 Alpha virt. eigenvalues --    9.83495   9.85608   9.93846  10.00594  10.01418
 Alpha virt. eigenvalues --   10.09332  10.11160  10.17081  10.18544  10.40147
 Alpha virt. eigenvalues --   10.42752  10.56247  10.57997  10.75281  10.91079
 Alpha virt. eigenvalues --   10.95143  11.18712  11.26899  11.61626  11.66977
 Alpha virt. eigenvalues --   11.96139  12.62262  12.93860  13.13259  13.17841
 Alpha virt. eigenvalues --   28.62335  28.78440  29.47342  29.64824 148.21049
 Alpha virt. eigenvalues --  148.37638 149.06802 149.27733
          Condensed to atoms (all electrons):
               1          2          3          4          5          6
     1  C    4.807440   0.618506  -0.074978  -0.001487   0.431085   0.428050
     2  C    0.618506   4.860612   0.388276  -0.066114  -0.051008  -0.050272
     3  C   -0.074978   0.388276   4.869266   0.607878   0.008097  -0.009088
     4  C   -0.001487  -0.066114   0.607878   4.844853  -0.000585   0.000384
     5  H    0.431085  -0.051008   0.008097  -0.000585   0.575935  -0.043303
     6  H    0.428050  -0.050272  -0.009088   0.000384  -0.043303   0.594880
     7  H   -0.047720   0.407033  -0.062967   0.001618  -0.009836   0.008119
     8  H   -0.000095  -0.059276   0.400472  -0.052899  -0.000159   0.004966
     9  H    0.000421  -0.008124  -0.058106   0.419609  -0.000035   0.000089
    10  H   -0.000428   0.005887  -0.038230   0.424982   0.000023  -0.000049
               7          8          9         10
     1  C   -0.047720  -0.000095   0.000421  -0.000428
     2  C    0.407033  -0.059276  -0.008124   0.005887
     3  C   -0.062967   0.400472  -0.058106  -0.038230
     4  C    0.001618  -0.052899   0.419609   0.424982
     5  H   -0.009836  -0.000159  -0.000035   0.000023
     6  H    0.008119   0.004966   0.000089  -0.000049
     7  H    0.630742   0.006688   0.005240  -0.000294
     8  H    0.006688   0.654270   0.010018  -0.009925
     9  H    0.005240   0.010018   0.620144  -0.043430
    10  H   -0.000294  -0.009925  -0.043430   0.563791
 Mulliken charges:
               1
     1  C   -0.160794
     2  C   -0.045521
     3  C   -0.030621
     4  C   -0.178240
     5  H    0.089786
     6  H    0.066225
     7  H    0.061378
     8  H    0.045941
     9  H    0.054173
    10  H    0.097673
 Sum of Mulliken charges =   0.00000
 Mulliken charges with hydrogens summed into heavy atoms:
               1
     1  C   -0.004783
     2  C    0.015857
     3  C    0.015320
     4  C   -0.026394
 Electronic spatial extent (au):  <R**2>=            340.6668
 Charge=              0.0000 electrons
 Dipole moment (field-independent basis, Debye):
    X=              0.0152    Y=             -0.0850    Z=             -0.0285  Tot=              0.0909
 Quadrupole moment (field-independent basis, Debye-Ang):
   XX=            -23.3245   YY=            -23.5445   ZZ=            -29.0418
   XY=             -0.2816   XZ=             -0.6968   YZ=              0.0416
 Traceless Quadrupole moment (field-independent basis, Debye-Ang):
   XX=              1.9791   YY=              1.7591   ZZ=             -3.7382
   XY=             -0.2816   XZ=             -0.6968   YZ=              0.0416
 Octapole moment (field-independent basis, Debye-Ang**2):
  XXX=             -1.5639  YYY=             -0.4337  ZZZ=             -0.0183  XYY=              0.5395
  XXY=              0.5315  XXZ=             -2.0097  XZZ=              0.5946  YZZ=             -0.1685
  YYZ=              0.4874  XYZ=             -0.7915
 Hexadecapole moment (field-independent basis, Debye-Ang**3):
 XXXX=           -347.2438 YYYY=            -66.6826 ZZZZ=            -38.1493 XXXY=             -9.8411
 XXXZ=             -5.7572 YYYX=              1.1106 YYYZ=             -0.0644 ZZZX=             -1.2528
 ZZZY=             -0.0080 XXYY=            -70.7506 XXZZ=            -77.5494 YYZZ=            -19.0674
 XXYZ=              0.5412 YYXZ=             -0.7881 ZZXY=              0.1695
 N-N= 1.032854677057D+02 E-N=-5.674462374047D+02  KE= 1.550995914717D+02
 Leave Link  601 at Wed Aug 26 12:06:39 2020, MaxMem=  2097152000 cpu:         0.8
 (Enter /opt/cluster/programs/g09/g09_d.01/g09/l9999.exe)
 1\1\GINC-NODE19\SP\RB2PLYPD3-FC\def2QZVP\C4H6\BOITTIER\26-Aug-2020\0\\
 #p B2PLYPD3/Def2QZVP\\butadiene\\0,1\C,0,-3.861627,0.226704,0.058107\C
 ,0,-2.769176,-0.50619,-0.03377\C,0,-1.369781,0.038991,-0.034217\C,0,-0
 .220377,-0.621734,0.094559\H,0,-4.746138,-0.231434,0.245941\H,0,-3.753
 786,1.302075,0.226006\H,0,-2.809809,-1.563944,-0.194043\H,0,-1.272442,
 1.147143,-0.299019\H,0,-0.335776,-1.707556,0.243493\H,0,0.780588,-0.21
 0012,0.019739\\Version=ES64L-G09RevD.01\State=1-A\HF=-155.6865459\MP2=
 -155.9123243\RMSD=7.413e-09\PG=C01 [X(C4H6)]\\@


 NATURE REVEALS EVERY SECRET ONCE.
                    - RALPH WALDO EMERSON
 Job cpu time:       0 days  0 hours 42 minutes 42.8 seconds.
 File lengths (MBytes):  RWF=     92 Int=      0 D2E=      0 Chk=      9 Scr=      1
 Normal termination of Gaussian 09 at Wed Aug 26 12:06:39 2020.
