 Entering Gaussian System, Link 0=/opt/cluster/programs/g09/g09_d.01/g09//g09
 Input=/home/boittier/MDCM/nms_sampling/butadiene_geom.xyz.dir/energies/butadiene_1950_energy.com
 Output=/scratch/boittier/butadiene_1950_energy/butadiene_1950_energy.out
 Initial command:
 /opt/cluster/programs/g09/g09_d.01/g09/l1.exe "/scratch/boittier/butadiene_1950_energy/Gau-96439.inp" -scrdir="/scratch/boittier/butadiene_1950_energy/"
 Entering Link 1 = /opt/cluster/programs/g09/g09_d.01/g09/l1.exe PID=     96440.
  
 Copyright (c) 1988,1990,1992,1993,1995,1998,2003,2009,2013,
            Gaussian, Inc.  All Rights Reserved.
  
 This is part of the Gaussian(R) 09 program.  It is based on
 the Gaussian(R) 03 system (copyright 2003, Gaussian, Inc.),
 the Gaussian(R) 98 system (copyright 1998, Gaussian, Inc.),
 the Gaussian(R) 94 system (copyright 1995, Gaussian, Inc.),
 the Gaussian 92(TM) system (copyright 1992, Gaussian, Inc.),
 the Gaussian 90(TM) system (copyright 1990, Gaussian, Inc.),
 the Gaussian 88(TM) system (copyright 1988, Gaussian, Inc.),
 the Gaussian 86(TM) system (copyright 1986, Carnegie Mellon
 University), and the Gaussian 82(TM) system (copyright 1983,
 Carnegie Mellon University). Gaussian is a federally registered
 trademark of Gaussian, Inc.
  
 This software contains proprietary and confidential information,
 including trade secrets, belonging to Gaussian, Inc.
  
 This software is provided under written license and may be
 used, copied, transmitted, or stored only in accord with that
 written license.
  
 The following legend is applicable only to US Government
 contracts under FAR:
  
                    RESTRICTED RIGHTS LEGEND
  
 Use, reproduction and disclosure by the US Government is
 subject to restrictions as set forth in subparagraphs (a)
 and (c) of the Commercial Computer Software - Restricted
 Rights clause in FAR 52.227-19.
  
 Gaussian, Inc.
 340 Quinnipiac St., Bldg. 40, Wallingford CT 06492
  
  
 ---------------------------------------------------------------
 Warning -- This program may not be used in any manner that
 competes with the business of Gaussian, Inc. or will provide
 assistance to any competitor of Gaussian, Inc.  The licensee
 of this program is prohibited from giving any competitor of
 Gaussian, Inc. access to this program.  By using this program,
 the user acknowledges that Gaussian, Inc. is engaged in the
 business of creating and licensing software in the field of
 computational chemistry and represents and warrants to the
 licensee that it is not a competitor of Gaussian, Inc. and that
 it will not use this program in any manner prohibited above.
 ---------------------------------------------------------------
  

 Cite this work as:
 Gaussian 09, Revision D.01,
 M. J. Frisch, G. W. Trucks, H. B. Schlegel, G. E. Scuseria, 
 M. A. Robb, J. R. Cheeseman, G. Scalmani, V. Barone, B. Mennucci, 
 G. A. Petersson, H. Nakatsuji, M. Caricato, X. Li, H. P. Hratchian, 
 A. F. Izmaylov, J. Bloino, G. Zheng, J. L. Sonnenberg, M. Hada, 
 M. Ehara, K. Toyota, R. Fukuda, J. Hasegawa, M. Ishida, T. Nakajima, 
 Y. Honda, O. Kitao, H. Nakai, T. Vreven, J. A. Montgomery, Jr., 
 J. E. Peralta, F. Ogliaro, M. Bearpark, J. J. Heyd, E. Brothers, 
 K. N. Kudin, V. N. Staroverov, T. Keith, R. Kobayashi, J. Normand, 
 K. Raghavachari, A. Rendell, J. C. Burant, S. S. Iyengar, J. Tomasi, 
 M. Cossi, N. Rega, J. M. Millam, M. Klene, J. E. Knox, J. B. Cross, 
 V. Bakken, C. Adamo, J. Jaramillo, R. Gomperts, R. E. Stratmann, 
 O. Yazyev, A. J. Austin, R. Cammi, C. Pomelli, J. W. Ochterski, 
 R. L. Martin, K. Morokuma, V. G. Zakrzewski, G. A. Voth, 
 P. Salvador, J. J. Dannenberg, S. Dapprich, A. D. Daniels, 
 O. Farkas, J. B. Foresman, J. V. Ortiz, J. Cioslowski, 
 and D. J. Fox, Gaussian, Inc., Wallingford CT, 2013.
 
 ******************************************
 Gaussian 09:  ES64L-G09RevD.01 24-Apr-2013
                26-Aug-2020 
 ******************************************
 %chk=/home/boittier/MDCM/nms_sampling/butadiene_geom.xyz.dir/butadiene_1950.chk
 %nproc=8
 Will use up to    8 processors via shared memory.
 %mem=16000MB
 --------------------
 #p B2PLYPD3/Def2QZVP
 --------------------
 1/38=1/1;
 2/12=2,17=6,18=5,40=1/2;
 3/5=45,7=101,11=9,16=1,25=1,30=1,74=-60/1,2,3;
 4//1;
 5/5=2,38=5/2;
 8/10=1/1;
 9/16=-3/6;
 6/7=2,8=2,9=2,10=2/1;
 99/5=1,9=1/99;
 Leave Link    1 at Wed Aug 26 11:25:56 2020, MaxMem=  2097152000 cpu:         0.2
 (Enter /opt/cluster/programs/g09/g09_d.01/g09/l101.exe)
 ---------
 butadiene
 ---------
 Symbolic Z-matrix:
 Charge =  0 Multiplicity = 1
 C                    -3.82791   0.21616  -0.05112 
 C                    -2.70112  -0.51564   0.08704 
 C                    -1.38978   0.13188   0.10408 
 C                    -0.29162  -0.67356  -0.02608 
 H                    -4.79531  -0.33568   0.03659 
 H                    -3.81434   1.36605  -0.00815 
 H                    -2.78206  -1.61134   0.1372 
 H                    -1.33214   1.18159  -0.07433 
 H                    -0.37273  -1.74959  -0.00604 
 H                     0.81373  -0.34311  -0.11191 
 
 NAtoms=     10 NQM=       10 NQMF=       0 NMMI=      0 NMMIF=      0
                NMic=       0 NMicF=      0.
                    Isotopes and Nuclear Properties:
 (Nuclear quadrupole moments (NQMom) in fm**2, nuclear magnetic moments (NMagM)
  in nuclear magnetons)

  Atom         1           2           3           4           5           6           7           8           9          10
 IAtWgt=          12          12          12          12           1           1           1           1           1           1
 AtmWgt=  12.0000000  12.0000000  12.0000000  12.0000000   1.0078250   1.0078250   1.0078250   1.0078250   1.0078250   1.0078250
 NucSpn=           0           0           0           0           1           1           1           1           1           1
 AtZEff=   0.0000000   0.0000000   0.0000000   0.0000000   0.0000000   0.0000000   0.0000000   0.0000000   0.0000000   0.0000000
 NQMom=    0.0000000   0.0000000   0.0000000   0.0000000   0.0000000   0.0000000   0.0000000   0.0000000   0.0000000   0.0000000
 NMagM=    0.0000000   0.0000000   0.0000000   0.0000000   2.7928460   2.7928460   2.7928460   2.7928460   2.7928460   2.7928460
 AtZNuc=   6.0000000   6.0000000   6.0000000   6.0000000   1.0000000   1.0000000   1.0000000   1.0000000   1.0000000   1.0000000
 Leave Link  101 at Wed Aug 26 11:25:56 2020, MaxMem=  2097152000 cpu:         0.6
 (Enter /opt/cluster/programs/g09/g09_d.01/g09/l202.exe)
                          Input orientation:                          
 ---------------------------------------------------------------------
 Center     Atomic      Atomic             Coordinates (Angstroms)
 Number     Number       Type             X           Y           Z
 ---------------------------------------------------------------------
      1          6           0       -3.827911    0.216161   -0.051116
      2          6           0       -2.701124   -0.515636    0.087038
      3          6           0       -1.389782    0.131877    0.104078
      4          6           0       -0.291621   -0.673556   -0.026081
      5          1           0       -4.795310   -0.335677    0.036592
      6          1           0       -3.814340    1.366051   -0.008154
      7          1           0       -2.782063   -1.611335    0.137203
      8          1           0       -1.332140    1.181585   -0.074327
      9          1           0       -0.372732   -1.749591   -0.006035
     10          1           0        0.813733   -0.343113   -0.111914
 ---------------------------------------------------------------------
                    Distance matrix (angstroms):
                    1          2          3          4          5
     1  C    0.000000
     2  C    1.350653   0.000000
     3  C    2.444517   1.462594   0.000000
     4  C    3.646583   2.417321   1.368072   0.000000
     5  H    1.117174   2.102509   3.438136   4.516780   0.000000
     6  H    1.150772   2.188391   2.722914   4.070610   1.964735
     7  H    2.114002   1.099829   2.231218   2.666157   2.385496
     8  H    2.676090   2.186485   1.066320   2.127570   3.782583
     9  H    3.975484   2.636800   2.141597   1.079274   4.643293
    10  H    4.675611   3.524708   2.264453   1.156878   5.611014
                    6          7          8          9         10
     6  H    0.000000
     7  H    3.154608   0.000000
     8  H    2.489924   3.153954   0.000000
     9  H    4.642402   2.417542   3.084951   0.000000
    10  H    4.934680   3.821020   2.632658   1.843120   0.000000
 Stoichiometry    C4H6
 Framework group  C1[X(C4H6)]
 Deg. of freedom    24
 Full point group                 C1      NOp   1
 Largest Abelian subgroup         C1      NOp   1
 Largest concise Abelian subgroup C1      NOp   1
                         Standard orientation:                         
 ---------------------------------------------------------------------
 Center     Atomic      Atomic             Coordinates (Angstroms)
 Number     Number       Type             X           Y           Z
 ---------------------------------------------------------------------
      1          6           0       -1.825733    0.102619   -0.074464
      2          6           0       -0.583994   -0.413786    0.050723
      3          6           0        0.585950    0.462659    0.098211
      4          6           0        1.813766   -0.122944   -0.047252
      5          1           0       -2.675445   -0.619950   -0.011516
      6          1           0       -2.023848    1.233528    0.003463
      7          1           0       -0.462296   -1.506741    0.066965
      8          1           0        0.450130    1.510167   -0.047795
      9          1           0        1.931757   -1.195667   -0.060520
     10          1           0        2.839769    0.407378   -0.113902
 ---------------------------------------------------------------------
 Rotational constants (GHZ):     37.9888972      4.5282962      4.0629169
 Leave Link  202 at Wed Aug 26 11:25:56 2020, MaxMem=  2097152000 cpu:         0.0
 (Enter /opt/cluster/programs/g09/g09_d.01/g09/l301.exe)
 Standard basis: def2QZVP (5D, 7F)
 Ernie: Thresh=  0.10000D-02 Tol=  0.10000D-05 Strict=F.
 There are   498 symmetry adapted cartesian basis functions of A   symmetry.
 There are   408 symmetry adapted basis functions of A   symmetry.
   408 basis functions,   596 primitive gaussians,   498 cartesian basis functions
    15 alpha electrons       15 beta electrons
       nuclear repulsion energy       102.9778692806 Hartrees.
 IExCor=  419 DFT=T Ex+Corr=B2PLYPD3 ExCW=0 ScaHFX=  0.530000
 ScaDFX=  0.470000  0.470000  0.730000  0.730000 ScalE2=  0.270000  0.270000
 IRadAn=      0 IRanWt=     -1 IRanGd=            0 ICorTp=0 IEmpDi=141
 NAtoms=   10 NActive=   10 NUniq=   10 SFac= 1.00D+00 NAtFMM=   60 NAOKFM=F Big=F
 Integral buffers will be    131072 words long.
 Regular integral format.
 Two-electron integral symmetry is turned on.
 R6Disp:  Grimme-D3(BJ) Dispersion energy=       -0.0048359608 Hartrees.
 Nuclear repulsion after empirical dispersion term =      102.9730333198 Hartrees.
 Leave Link  301 at Wed Aug 26 11:25:56 2020, MaxMem=  2097152000 cpu:         0.5
 (Enter /opt/cluster/programs/g09/g09_d.01/g09/l302.exe)
 NPDir=0 NMtPBC=     1 NCelOv=     1 NCel=       1 NClECP=     1 NCelD=      1
         NCelK=      1 NCelE2=     1 NClLst=     1 CellRange=     0.0.
 One-electron integrals computed using PRISM.
   1 Symmetry operations used in ECPInt.
 ECPInt:  NShTT=    8256 NPrTT=   19107 LenC2=    8058 LenP2D=   16110.
 LDataN:  DoStor=T MaxTD1= 8 Len=  415
 NBasis=   408 RedAO= T EigKep=  4.99D-05  NBF=   408
 NBsUse=   408 1.00D-06 EigRej= -1.00D+00 NBFU=   408
 Precomputing XC quadrature grid using
 IXCGrd= 4 IRadAn=           0 IRanWt=          -1 IRanGd=           0 AccXCQ= 0.00D+00.
 Generated NRdTot=       0 NPtTot=           0 NUsed=           0 NTot=          32
 NSgBfM=   498   498   498   498   498 MxSgAt=    10 MxSgA2=    10.
 Leave Link  302 at Wed Aug 26 11:25:57 2020, MaxMem=  2097152000 cpu:         3.3
 (Enter /opt/cluster/programs/g09/g09_d.01/g09/l303.exe)
 DipDrv:  MaxL=1.
 Leave Link  303 at Wed Aug 26 11:25:57 2020, MaxMem=  2097152000 cpu:         0.4
 (Enter /opt/cluster/programs/g09/g09_d.01/g09/l401.exe)
 ExpMin= 7.60D-02 ExpMax= 6.70D+04 ExpMxC= 6.47D+02 IAcc=2 IRadAn=         4 AccDes= 0.00D+00
 Harris functional with IExCor=  419 and IRadAn=       4 diagonalized for initial guess.
 HarFok:  IExCor=  419 AccDes= 0.00D+00 IRadAn=         4 IDoV= 1 UseB2=F ITyADJ=14
 ICtDFT=  3500011 ScaDFX=  1.000000  1.000000  1.000000  1.000000
 FoFCou: FMM=F IPFlag=           0 FMFlag=      100000 FMFlg1=           0
         NFxFlg=           0 DoJE=T BraDBF=F KetDBF=T FulRan=T
         wScrn=  0.000000 ICntrl=     500 IOpCl=  0 I1Cent=   200000004 NGrid=           0
         NMat0=    1 NMatS0=      1 NMatT0=    0 NMatD0=    1 NMtDS0=    0 NMtDT0=    0
 Petite list used in FoFCou.
 Harris En= -156.104312354747    
 JPrj=0 DoOrth=F DoCkMO=F.
 Leave Link  401 at Wed Aug 26 11:25:58 2020, MaxMem=  2097152000 cpu:         8.2
 (Enter /opt/cluster/programs/g09/g09_d.01/g09/l502.exe)
 Closed shell SCF:
 Using DIIS extrapolation, IDIIS=  1040.
 Integral symmetry usage will be decided dynamically.
 IVT=      770090 IEndB=      770090 NGot=  2097152000 MDV=  2096647053
 LenX=  2096647053 LenY=  2096398551
 Requested convergence on RMS density matrix=1.00D-08 within 128 cycles.
 Requested convergence on MAX density matrix=1.00D-06.
 Requested convergence on             energy=1.00D-06.
 No special actions if energy rises.
 Fock matrices will be formed incrementally for  20 cycles.
 Integral accuracy reduced to 1.0D-05 until final iterations.

 Cycle   1  Pass 0  IDiag  1:
 FoFJK:  IHMeth= 1 ICntrl=       0 DoSepK=F KAlg= 0 I1Cent=   0 FoldK=F
 IRaf= 940000000 NMat=   1 IRICut=       1 DoRegI=T DoRafI=F ISym2E= 0.
 FoFCou: FMM=F IPFlag=           0 FMFlag=      100000 FMFlg1=           0
         NFxFlg=           0 DoJE=F BraDBF=F KetDBF=F FulRan=T
         wScrn=  0.000000 ICntrl=       0 IOpCl=  0 I1Cent=           0 NGrid=           0
         NMat0=    1 NMatS0=      1 NMatT0=    0 NMatD0=    1 NMtDS0=    0 NMtDT0=    0
 Symmetry not used in FoFCou.
 E= -155.509603417384    
 DIIS: error= 3.34D-02 at cycle   1 NSaved=   1.
 NSaved= 1 IEnMin= 1 EnMin= -155.509603417384     IErMin= 1 ErrMin= 3.34D-02
 ErrMax= 3.34D-02  0.00D+00 EMaxC= 1.00D-01 BMatC= 2.36D-01 BMatP= 2.36D-01
 IDIUse=3 WtCom= 6.66D-01 WtEn= 3.34D-01
 Coeff-Com:  0.100D+01
 Coeff-En:   0.100D+01
 Coeff:      0.100D+01
 Gap=     0.289 Goal=   None    Shift=    0.000
 GapD=    0.289 DampG=1.000 DampE=0.500 DampFc=0.5000 IDamp=-1.
 Damping current iteration by 5.00D-01
 RMSDP=1.01D-03 MaxDP=5.52D-02              OVMax= 1.89D-01

 Cycle   2  Pass 0  IDiag  1:
 RMSU=  4.73D-04    CP:  9.53D-01
 E= -155.600472419594     Delta-E=       -0.090869002210 Rises=F Damp=T
 DIIS: error= 1.23D-02 at cycle   2 NSaved=   2.
 NSaved= 2 IEnMin= 2 EnMin= -155.600472419594     IErMin= 2 ErrMin= 1.23D-02
 ErrMax= 1.23D-02  0.00D+00 EMaxC= 1.00D-01 BMatC= 2.87D-02 BMatP= 2.36D-01
 IDIUse=3 WtCom= 8.77D-01 WtEn= 1.23D-01
 Coeff-Com: -0.290D+00 0.129D+01
 Coeff-En:   0.000D+00 0.100D+01
 Coeff:     -0.254D+00 0.125D+01
 Gap=     0.352 Goal=   None    Shift=    0.000
 RMSDP=3.40D-04 MaxDP=9.54D-03 DE=-9.09D-02 OVMax= 9.58D-02

 Cycle   3  Pass 0  IDiag  1:
 RMSU=  3.26D-04    CP:  9.36D-01  8.49D-01
 E= -155.680120188711     Delta-E=       -0.079647769117 Rises=F Damp=F
 DIIS: error= 4.62D-03 at cycle   3 NSaved=   3.
 NSaved= 3 IEnMin= 3 EnMin= -155.680120188711     IErMin= 3 ErrMin= 4.62D-03
 ErrMax= 4.62D-03  0.00D+00 EMaxC= 1.00D-01 BMatC= 2.31D-03 BMatP= 2.87D-02
 IDIUse=3 WtCom= 9.54D-01 WtEn= 4.62D-02
 Coeff-Com: -0.125D+00 0.255D+00 0.869D+00
 Coeff-En:   0.000D+00 0.000D+00 0.100D+01
 Coeff:     -0.119D+00 0.244D+00 0.875D+00
 Gap=     0.285 Goal=   None    Shift=    0.000
 RMSDP=7.95D-05 MaxDP=4.74D-03 DE=-7.96D-02 OVMax= 2.59D-02

 Cycle   4  Pass 0  IDiag  1:
 RMSU=  5.82D-05    CP:  9.32D-01  9.53D-01  9.51D-01
 E= -155.681938914004     Delta-E=       -0.001818725293 Rises=F Damp=F
 DIIS: error= 2.45D-03 at cycle   4 NSaved=   4.
 NSaved= 4 IEnMin= 4 EnMin= -155.681938914004     IErMin= 4 ErrMin= 2.45D-03
 ErrMax= 2.45D-03  0.00D+00 EMaxC= 1.00D-01 BMatC= 7.19D-04 BMatP= 2.31D-03
 IDIUse=3 WtCom= 9.75D-01 WtEn= 2.45D-02
 Coeff-Com: -0.566D-01 0.945D-01 0.468D+00 0.495D+00
 Coeff-En:   0.000D+00 0.000D+00 0.132D+00 0.868D+00
 Coeff:     -0.552D-01 0.922D-01 0.459D+00 0.504D+00
 Gap=     0.285 Goal=   None    Shift=    0.000
 RMSDP=3.41D-05 MaxDP=1.56D-03 DE=-1.82D-03 OVMax= 9.64D-03

 Cycle   5  Pass 0  IDiag  1:
 RMSU=  1.82D-05    CP:  9.32D-01  9.36D-01  1.00D+00  6.12D-01
 E= -155.682634655949     Delta-E=       -0.000695741945 Rises=F Damp=F
 DIIS: error= 2.15D-04 at cycle   5 NSaved=   5.
 NSaved= 5 IEnMin= 5 EnMin= -155.682634655949     IErMin= 5 ErrMin= 2.15D-04
 ErrMax= 2.15D-04  0.00D+00 EMaxC= 1.00D-01 BMatC= 5.60D-06 BMatP= 7.19D-04
 IDIUse=3 WtCom= 9.98D-01 WtEn= 2.15D-03
 Coeff-Com: -0.443D-02 0.492D-02 0.463D-01 0.106D+00 0.847D+00
 Coeff-En:   0.000D+00 0.000D+00 0.000D+00 0.000D+00 0.100D+01
 Coeff:     -0.442D-02 0.491D-02 0.463D-01 0.106D+00 0.848D+00
 Gap=     0.285 Goal=   None    Shift=    0.000
 RMSDP=6.07D-06 MaxDP=1.90D-04 DE=-6.96D-04 OVMax= 1.31D-03

 Initial convergence to 1.0D-05 achieved.  Increase integral accuracy.
 Cycle   6  Pass 1  IDiag  1:
 E= -155.682631442713     Delta-E=        0.000003213237 Rises=F Damp=F
 DIIS: error= 5.07D-05 at cycle   1 NSaved=   1.
 NSaved= 1 IEnMin= 1 EnMin= -155.682631442713     IErMin= 1 ErrMin= 5.07D-05
 ErrMax= 5.07D-05  0.00D+00 EMaxC= 1.00D-01 BMatC= 5.54D-07 BMatP= 5.54D-07
 IDIUse=1 WtCom= 1.00D+00 WtEn= 0.00D+00
 Coeff-Com:  0.100D+01
 Coeff:      0.100D+01
 Gap=     0.286 Goal=   None    Shift=    0.000
 RMSDP=6.07D-06 MaxDP=1.90D-04 DE= 3.21D-06 OVMax= 4.06D-04

 Cycle   7  Pass 1  IDiag  1:
 RMSU=  1.57D-05    CP:  1.00D+00
 E= -155.682631849751     Delta-E=       -0.000000407039 Rises=F Damp=F
 DIIS: error= 3.64D-05 at cycle   2 NSaved=   2.
 NSaved= 2 IEnMin= 2 EnMin= -155.682631849751     IErMin= 2 ErrMin= 3.64D-05
 ErrMax= 3.64D-05  0.00D+00 EMaxC= 1.00D-01 BMatC= 1.26D-07 BMatP= 5.54D-07
 IDIUse=1 WtCom= 1.00D+00 WtEn= 0.00D+00
 Coeff-Com:  0.254D+00 0.746D+00
 Coeff:      0.254D+00 0.746D+00
 Gap=     0.286 Goal=   None    Shift=    0.000
 RMSDP=1.05D-06 MaxDP=3.42D-05 DE=-4.07D-07 OVMax= 2.15D-04

 Cycle   8  Pass 1  IDiag  1:
 RMSU=  8.39D-07    CP:  1.00D+00  1.04D+00
 E= -155.682631939231     Delta-E=       -0.000000089480 Rises=F Damp=F
 DIIS: error= 1.79D-05 at cycle   3 NSaved=   3.
 NSaved= 3 IEnMin= 3 EnMin= -155.682631939231     IErMin= 3 ErrMin= 1.79D-05
 ErrMax= 1.79D-05  0.00D+00 EMaxC= 1.00D-01 BMatC= 4.51D-08 BMatP= 1.26D-07
 IDIUse=1 WtCom= 1.00D+00 WtEn= 0.00D+00
 Coeff-Com: -0.134D-01 0.364D+00 0.649D+00
 Coeff:     -0.134D-01 0.364D+00 0.649D+00
 Gap=     0.286 Goal=   None    Shift=    0.000
 RMSDP=5.23D-07 MaxDP=2.19D-05 DE=-8.95D-08 OVMax= 1.20D-04

 Cycle   9  Pass 1  IDiag  1:
 RMSU=  4.00D-07    CP:  1.00D+00  1.06D+00  1.05D+00
 E= -155.682631985267     Delta-E=       -0.000000046035 Rises=F Damp=F
 DIIS: error= 3.41D-06 at cycle   4 NSaved=   4.
 NSaved= 4 IEnMin= 4 EnMin= -155.682631985267     IErMin= 4 ErrMin= 3.41D-06
 ErrMax= 3.41D-06  0.00D+00 EMaxC= 1.00D-01 BMatC= 1.46D-09 BMatP= 4.51D-08
 IDIUse=1 WtCom= 1.00D+00 WtEn= 0.00D+00
 Coeff-Com: -0.174D-01 0.813D-01 0.217D+00 0.719D+00
 Coeff:     -0.174D-01 0.813D-01 0.217D+00 0.719D+00
 Gap=     0.286 Goal=   None    Shift=    0.000
 RMSDP=1.25D-07 MaxDP=5.15D-06 DE=-4.60D-08 OVMax= 2.11D-05

 Cycle  10  Pass 1  IDiag  1:
 RMSU=  7.44D-08    CP:  1.00D+00  1.07D+00  1.13D+00  1.11D+00
 E= -155.682631987220     Delta-E=       -0.000000001953 Rises=F Damp=F
 DIIS: error= 1.15D-06 at cycle   5 NSaved=   5.
 NSaved= 5 IEnMin= 5 EnMin= -155.682631987220     IErMin= 5 ErrMin= 1.15D-06
 ErrMax= 1.15D-06  0.00D+00 EMaxC= 1.00D-01 BMatC= 1.58D-10 BMatP= 1.46D-09
 IDIUse=1 WtCom= 1.00D+00 WtEn= 0.00D+00
 Coeff-Com: -0.224D-02-0.339D-01-0.438D-01 0.186D+00 0.894D+00
 Coeff:     -0.224D-02-0.339D-01-0.438D-01 0.186D+00 0.894D+00
 Gap=     0.286 Goal=   None    Shift=    0.000
 RMSDP=5.22D-08 MaxDP=2.22D-06 DE=-1.95D-09 OVMax= 9.60D-06

 Cycle  11  Pass 1  IDiag  1:
 RMSU=  2.33D-08    CP:  1.00D+00  1.07D+00  1.16D+00  1.19D+00  1.03D+00
 E= -155.682631987505     Delta-E=       -0.000000000285 Rises=F Damp=F
 DIIS: error= 2.29D-07 at cycle   6 NSaved=   6.
 NSaved= 6 IEnMin= 6 EnMin= -155.682631987505     IErMin= 6 ErrMin= 2.29D-07
 ErrMax= 2.29D-07  0.00D+00 EMaxC= 1.00D-01 BMatC= 1.21D-11 BMatP= 1.58D-10
 IDIUse=1 WtCom= 1.00D+00 WtEn= 0.00D+00
 Coeff-Com:  0.907D-03-0.184D-01-0.341D-01-0.639D-02 0.276D+00 0.782D+00
 Coeff:      0.907D-03-0.184D-01-0.341D-01-0.639D-02 0.276D+00 0.782D+00
 Gap=     0.286 Goal=   None    Shift=    0.000
 RMSDP=8.82D-09 MaxDP=3.65D-07 DE=-2.85D-10 OVMax= 2.08D-06

 SCF Done:  E(RB2PLYPD3) =  -155.682631988     A.U. after   11 cycles
            NFock= 11  Conv=0.88D-08     -V/T= 2.0059
 KE= 1.547627863855D+02 PE=-5.665695071851D+02 EE= 1.531510554923D+02
 Leave Link  502 at Wed Aug 26 11:29:24 2020, MaxMem=  2097152000 cpu:      1638.3
 (Enter /opt/cluster/programs/g09/g09_d.01/g09/l801.exe)
 DoSCS=T DFT=T ScalE2(SS,OS)=  0.270000  0.270000
 ExpMin= 7.60D-02 ExpMax= 6.70D+04 ExpMxC= 6.47D+02 IAcc=3 IRadAn=         5 AccDes= 0.00D+00
 HarFok:  IExCor=  205 AccDes= 0.00D+00 IRadAn=         5 IDoV=-2 UseB2=F ITyADJ=14
 ICtDFT= 12500011 ScaDFX=  1.000000  1.000000  1.000000  1.000000
 DSYEVD-2 returned Info=         115 IAlg= 4 N=    57 NDim=    57 NE2=    36783080 trying  DSYEV.
 Largest valence mixing into a core orbital is  1.15D-04
 Largest core mixing into a valence orbital is  2.07D-05
 Range of M.O.s used for correlation:     5   408
 NBasis=   408 NAE=    15 NBE=    15 NFC=     4 NFV=     0
 NROrb=    404 NOA=    11 NOB=    11 NVA=   393 NVB=   393

 **** Warning!!: The largest alpha MO coefficient is  0.26049133D+02

 Leave Link  801 at Wed Aug 26 11:29:24 2020, MaxMem=  2097152000 cpu:         1.0
 (Enter /opt/cluster/programs/g09/g09_d.01/g09/l906.exe)
 DoSCS=T DFT=T ScalE2(SS,OS)=  0.270000  0.270000
 FulOut=F Deriv=F AODrv=F NAtomX=    10
   MMem=         881  MDisk=          11 MDiskD=          11
  W3Min=     2152854 MinDsk=     3857222 NBas6D=         498
 NBas2D=      125763    NTT=      124251    LW2=     4508827
    MDV=  2096383096 MDiskM=        9345 NBas2p=      117502
 Fully direct method using O(OVN) memory.
 IMap=   1   2   3   4   5   6   7   8   9  10  11
 JobTyp=1 Pass  1:  I=   1 to  11 NPSUse=  8 ParTrn=T ParDer=T DoDerP=F.
 Spin components of T(2) and E(2):
     alpha-alpha T2 =       0.4356281943D-01 E2=     -0.2568585448D-01
     alpha-beta  T2 =       0.2848341783D+00 E2=     -0.1770170793D+00
     beta-beta   T2 =       0.4356281943D-01 E2=     -0.2568585448D-01
 The integrals were generated   1 times.
 E2(B2PLYPD3) =    -0.2283887883D+00 E(B2PLYPD3) =    -0.15591102077576D+03
 Leave Link  906 at Wed Aug 26 11:31:45 2020, MaxMem=  2097152000 cpu:      1129.8
 (Enter /opt/cluster/programs/g09/g09_d.01/g09/l601.exe)
 Copying SCF densities to generalized density rwf, IOpCl= 0 IROHF=0.

 **********************************************************************

            Population analysis using the SCF density.

 **********************************************************************

 Orbital symmetries:
       Occupied  (A) (A) (A) (A) (A) (A) (A) (A) (A) (A) (A) (A)
                 (A) (A) (A)
       Virtual   (A) (A) (A) (A) (A) (A) (A) (A) (A) (A) (A) (A)
                 (A) (A) (A) (A) (A) (A) (A) (A) (A) (A) (A) (A)
                 (A) (A) (A) (A) (A) (A) (A) (A) (A) (A) (A) (A)
                 (A) (A) (A) (A) (A) (A) (A) (A) (A) (A) (A) (A)
                 (A) (A) (A) (A) (A) (A) (A) (A) (A) (A) (A) (A)
                 (A) (A) (A) (A) (A) (A) (A) (A) (A) (A) (A) (A)
                 (A) (A) (A) (A) (A) (A) (A) (A) (A) (A) (A) (A)
                 (A) (A) (A) (A) (A) (A) (A) (A) (A) (A) (A) (A)
                 (A) (A) (A) (A) (A) (A) (A) (A) (A) (A) (A) (A)
                 (A) (A) (A) (A) (A) (A) (A) (A) (A) (A) (A) (A)
                 (A) (A) (A) (A) (A) (A) (A) (A) (A) (A) (A) (A)
                 (A) (A) (A) (A) (A) (A) (A) (A) (A) (A) (A) (A)
                 (A) (A) (A) (A) (A) (A) (A) (A) (A) (A) (A) (A)
                 (A) (A) (A) (A) (A) (A) (A) (A) (A) (A) (A) (A)
                 (A) (A) (A) (A) (A) (A) (A) (A) (A) (A) (A) (A)
                 (A) (A) (A) (A) (A) (A) (A) (A) (A) (A) (A) (A)
                 (A) (A) (A) (A) (A) (A) (A) (A) (A) (A) (A) (A)
                 (A) (A) (A) (A) (A) (A) (A) (A) (A) (A) (A) (A)
                 (A) (A) (A) (A) (A) (A) (A) (A) (A) (A) (A) (A)
                 (A) (A) (A) (A) (A) (A) (A) (A) (A) (A) (A) (A)
                 (A) (A) (A) (A) (A) (A) (A) (A) (A) (A) (A) (A)
                 (A) (A) (A) (A) (A) (A) (A) (A) (A) (A) (A) (A)
                 (A) (A) (A) (A) (A) (A) (A) (A) (A) (A) (A) (A)
                 (A) (A) (A) (A) (A) (A) (A) (A) (A) (A) (A) (A)
                 (A) (A) (A) (A) (A) (A) (A) (A) (A) (A) (A) (A)
                 (A) (A) (A) (A) (A) (A) (A) (A) (A) (A) (A) (A)
                 (A) (A) (A) (A) (A) (A) (A) (A) (A) (A) (A) (A)
                 (A) (A) (A) (A) (A) (A) (A) (A) (A) (A) (A) (A)
                 (A) (A) (A) (A) (A) (A) (A) (A) (A) (A) (A) (A)
                 (A) (A) (A) (A) (A) (A) (A) (A) (A) (A) (A) (A)
                 (A) (A) (A) (A) (A) (A) (A) (A) (A) (A) (A) (A)
                 (A) (A) (A) (A) (A) (A) (A) (A) (A) (A) (A) (A)
                 (A) (A) (A) (A) (A) (A) (A) (A) (A)
 The electronic state is 1-A.
 Alpha  occ. eigenvalues --  -10.63230 -10.63073 -10.62912 -10.62477  -0.92663
 Alpha  occ. eigenvalues --   -0.83770  -0.69025  -0.64188  -0.53806  -0.52887
 Alpha  occ. eigenvalues --   -0.46039  -0.44569  -0.41284  -0.37783  -0.27203
 Alpha virt. eigenvalues --    0.01361   0.06927   0.07147   0.07849   0.08528
 Alpha virt. eigenvalues --    0.11625   0.12392   0.14250   0.15462   0.16301
 Alpha virt. eigenvalues --    0.18691   0.19832   0.21607   0.22772   0.24020
 Alpha virt. eigenvalues --    0.25667   0.26756   0.28882   0.31196   0.32262
 Alpha virt. eigenvalues --    0.33396   0.35799   0.36879   0.38777   0.38844
 Alpha virt. eigenvalues --    0.40622   0.42709   0.43378   0.46353   0.47532
 Alpha virt. eigenvalues --    0.49252   0.52275   0.52683   0.53373   0.57191
 Alpha virt. eigenvalues --    0.58078   0.62173   0.63404   0.66310   0.68138
 Alpha virt. eigenvalues --    0.69365   0.71275   0.75337   0.77240   0.77713
 Alpha virt. eigenvalues --    0.78539   0.81052   0.81518   0.82588   0.83589
 Alpha virt. eigenvalues --    0.84344   0.85134   0.85986   0.87579   0.89154
 Alpha virt. eigenvalues --    0.92062   0.93171   0.94026   0.94430   0.95737
 Alpha virt. eigenvalues --    0.97638   0.98674   1.00568   1.02554   1.04688
 Alpha virt. eigenvalues --    1.06004   1.06071   1.08489   1.11798   1.12338
 Alpha virt. eigenvalues --    1.14583   1.16135   1.18636   1.18897   1.22536
 Alpha virt. eigenvalues --    1.24228   1.26838   1.30596   1.34463   1.35631
 Alpha virt. eigenvalues --    1.37878   1.39366   1.44062   1.48946   1.56570
 Alpha virt. eigenvalues --    1.62485   1.64516   1.70153   1.71346   1.77656
 Alpha virt. eigenvalues --    1.79271   1.80707   1.83678   1.85029   1.88910
 Alpha virt. eigenvalues --    1.90163   1.91685   1.92633   1.93421   1.94194
 Alpha virt. eigenvalues --    1.96672   1.97509   1.99719   2.01386   2.01658
 Alpha virt. eigenvalues --    2.03847   2.04968   2.07260   2.08326   2.08749
 Alpha virt. eigenvalues --    2.11325   2.11596   2.12527   2.16225   2.16989
 Alpha virt. eigenvalues --    2.19988   2.20880   2.23941   2.25676   2.27936
 Alpha virt. eigenvalues --    2.30381   2.31481   2.31911   2.37842   2.40544
 Alpha virt. eigenvalues --    2.42380   2.43452   2.45480   2.47699   2.48224
 Alpha virt. eigenvalues --    2.51705   2.53433   2.54375   2.55208   2.56963
 Alpha virt. eigenvalues --    2.57375   2.59658   2.61079   2.62343   2.63986
 Alpha virt. eigenvalues --    2.66622   2.67107   2.70086   2.70752   2.71748
 Alpha virt. eigenvalues --    2.73098   2.73473   2.76156   2.76625   2.79163
 Alpha virt. eigenvalues --    2.82139   2.85892   2.86701   2.88544   2.90982
 Alpha virt. eigenvalues --    2.92856   2.99075   3.02469   3.03944   3.07235
 Alpha virt. eigenvalues --    3.08468   3.12452   3.17914   3.26794   3.28408
 Alpha virt. eigenvalues --    3.30105   3.34491   3.36212   3.38692   3.43043
 Alpha virt. eigenvalues --    3.46001   3.46020   3.48545   3.49250   3.54604
 Alpha virt. eigenvalues --    3.57438   3.58247   3.61567   3.62040   3.71257
 Alpha virt. eigenvalues --    3.71407   3.75195   3.79684   3.83340   3.86432
 Alpha virt. eigenvalues --    3.86828   3.92814   3.96278   4.03912   4.09394
 Alpha virt. eigenvalues --    4.12286   4.14100   4.18208   4.22736   4.37715
 Alpha virt. eigenvalues --    4.45621   4.49298   4.53903   4.85256   4.95244
 Alpha virt. eigenvalues --    4.95995   5.01122   5.05204   5.07154   5.10434
 Alpha virt. eigenvalues --    5.11646   5.15820   5.20104   5.24702   5.28208
 Alpha virt. eigenvalues --    5.33361   5.36943   5.38684   5.42846   5.45766
 Alpha virt. eigenvalues --    5.54031   5.54792   5.57509   5.62173   5.64296
 Alpha virt. eigenvalues --    5.65114   5.68531   5.71925   5.74595   5.77483
 Alpha virt. eigenvalues --    5.77815   5.79511   5.82044   5.84851   5.85440
 Alpha virt. eigenvalues --    5.88440   5.90514   5.93333   5.95992   6.01365
 Alpha virt. eigenvalues --    6.04338   6.04816   6.07230   6.08141   6.10746
 Alpha virt. eigenvalues --    6.12501   6.14043   6.14649   6.15979   6.19420
 Alpha virt. eigenvalues --    6.20007   6.20564   6.22709   6.23801   6.25631
 Alpha virt. eigenvalues --    6.26843   6.28925   6.31198   6.33353   6.35782
 Alpha virt. eigenvalues --    6.38002   6.39134   6.41484   6.42722   6.43906
 Alpha virt. eigenvalues --    6.45674   6.46371   6.48959   6.51903   6.53590
 Alpha virt. eigenvalues --    6.56468   6.57748   6.62118   6.70062   6.72887
 Alpha virt. eigenvalues --    6.75439   6.76989   6.80659   6.82116   6.85559
 Alpha virt. eigenvalues --    6.86650   6.87642   6.92662   6.95192   7.01043
 Alpha virt. eigenvalues --    7.02692   7.06741   7.10467   7.12412   7.21116
 Alpha virt. eigenvalues --    7.21925   7.25678   7.30329   7.32834   7.35364
 Alpha virt. eigenvalues --    7.43122   7.44335   7.49075   7.52266   7.54702
 Alpha virt. eigenvalues --    7.57136   7.58435   7.60958   7.61779   7.64425
 Alpha virt. eigenvalues --    7.66934   7.67958   7.69057   7.72167   7.73186
 Alpha virt. eigenvalues --    7.74160   7.79400   7.83670   7.88614   7.91045
 Alpha virt. eigenvalues --    7.92816   7.95182   7.97854   8.03831   8.04829
 Alpha virt. eigenvalues --    8.09302   8.11073   8.11711   8.15891   8.20093
 Alpha virt. eigenvalues --    8.23663   8.25686   8.26142   8.27902   8.30051
 Alpha virt. eigenvalues --    8.32122   8.32767   8.34161   8.35389   8.37055
 Alpha virt. eigenvalues --    8.39725   8.40798   8.45824   8.46315   8.49494
 Alpha virt. eigenvalues --    8.52619   8.56497   8.58409   8.59997   8.62364
 Alpha virt. eigenvalues --    8.66456   8.67899   8.71783   8.74177   8.77086
 Alpha virt. eigenvalues --    8.78205   8.82741   8.88404   8.91830   8.94245
 Alpha virt. eigenvalues --    9.07694   9.11716   9.17873   9.21055   9.33420
 Alpha virt. eigenvalues --    9.44521   9.53426   9.62106   9.64091   9.66774
 Alpha virt. eigenvalues --    9.70393   9.76184   9.78791   9.83291   9.87548
 Alpha virt. eigenvalues --    9.95797  10.03963  10.06145  10.12570  10.19685
 Alpha virt. eigenvalues --   10.21952  10.28596  10.33677  10.43268  10.55382
 Alpha virt. eigenvalues --   10.71880  10.91710  11.25633  11.39023  11.95110
 Alpha virt. eigenvalues --   12.06599  12.68774  12.76543  12.85308  12.98277
 Alpha virt. eigenvalues --   28.57369  28.72227  29.28564  29.44696 148.15461
 Alpha virt. eigenvalues --  148.29969 148.86152 149.02467
          Condensed to atoms (all electrons):
               1          2          3          4          5          6
     1  C    4.872598   0.607229  -0.086991  -0.002154   0.414254   0.417376
     2  C    0.607229   4.836568   0.413133  -0.091457  -0.047138  -0.041801
     3  C   -0.086991   0.413133   4.823852   0.616394   0.008405  -0.008972
     4  C   -0.002154  -0.091457   0.616394   4.853164  -0.000854   0.000465
     5  H    0.414254  -0.047138   0.008405  -0.000854   0.599638  -0.041185
     6  H    0.417376  -0.041801  -0.008972   0.000465  -0.041185   0.599580
     7  H   -0.046221   0.410643  -0.052200  -0.002339  -0.009751   0.007032
     8  H   -0.000936  -0.052615   0.407135  -0.042425   0.000033   0.003988
     9  H    0.000667  -0.009447  -0.044715   0.419656  -0.000063   0.000024
    10  H   -0.000658   0.007081  -0.034213   0.411772   0.000034  -0.000023
               7          8          9         10
     1  C   -0.046221  -0.000936   0.000667  -0.000658
     2  C    0.410643  -0.052615  -0.009447   0.007081
     3  C   -0.052200   0.407135  -0.044715  -0.034213
     4  C   -0.002339  -0.042425   0.419656   0.411772
     5  H   -0.009751   0.000033  -0.000063   0.000034
     6  H    0.007032   0.003988   0.000024  -0.000023
     7  H    0.622663   0.005479   0.003540   0.000151
     8  H    0.005479   0.602620   0.006562  -0.005830
     9  H    0.003540   0.006562   0.610452  -0.050236
    10  H    0.000151  -0.005830  -0.050236   0.601210
 Mulliken charges:
               1
     1  C   -0.175163
     2  C   -0.032196
     3  C   -0.041825
     4  C   -0.162221
     5  H    0.076628
     6  H    0.063515
     7  H    0.061004
     8  H    0.075989
     9  H    0.063559
    10  H    0.070712
 Sum of Mulliken charges =   0.00000
 Mulliken charges with hydrogens summed into heavy atoms:
               1
     1  C   -0.035020
     2  C    0.028807
     3  C    0.034164
     4  C   -0.027951
 Electronic spatial extent (au):  <R**2>=            335.4200
 Charge=              0.0000 electrons
 Dipole moment (field-independent basis, Debye):
    X=              0.1360    Y=             -0.0778    Z=             -0.0285  Tot=              0.1592
 Quadrupole moment (field-independent basis, Debye-Ang):
   XX=            -24.1137   YY=            -22.8872   ZZ=            -29.6336
   XY=             -0.3032   XZ=             -0.5703   YZ=             -0.1360
 Traceless Quadrupole moment (field-independent basis, Debye-Ang):
   XX=              1.4311   YY=              2.6577   ZZ=             -4.0888
   XY=             -0.3032   XZ=             -0.5703   YZ=             -0.1360
 Octapole moment (field-independent basis, Debye-Ang**2):
  XXX=              3.0698  YYY=             -0.1013  ZZZ=              0.0255  XYY=             -0.8478
  XXY=             -0.7781  XXZ=             -0.4060  XZZ=              0.1798  YZZ=             -0.0893
  YYZ=             -0.1683  XYZ=             -0.0720
 Hexadecapole moment (field-independent basis, Debye-Ang**3):
 XXXX=           -347.0051 YYYY=            -67.3813 ZZZZ=            -38.4024 XXXY=              4.7782
 XXXZ=             -4.2259 YYYX=             -2.3142 YYYZ=             -0.5241 ZZZX=             -1.0003
 ZZZY=             -0.1389 XXYY=            -69.1408 XXZZ=            -78.2401 YYZZ=            -20.1786
 XXYZ=             -0.0365 YYXZ=             -0.7952 ZZXY=             -0.5669
 N-N= 1.029730333198D+02 E-N=-5.665695040951D+02  KE= 1.547627863855D+02
 Leave Link  601 at Wed Aug 26 11:31:45 2020, MaxMem=  2097152000 cpu:         0.7
 (Enter /opt/cluster/programs/g09/g09_d.01/g09/l9999.exe)
 1\1\GINC-NODE36\SP\RB2PLYPD3-FC\def2QZVP\C4H6\BOITTIER\26-Aug-2020\0\\
 #p B2PLYPD3/Def2QZVP\\butadiene\\0,1\C,0,-3.827911,0.216161,-0.051116\
 C,0,-2.701124,-0.515636,0.087038\C,0,-1.389782,0.131877,0.104078\C,0,-
 0.291621,-0.673556,-0.026081\H,0,-4.79531,-0.335677,0.036592\H,0,-3.81
 434,1.366051,-0.008154\H,0,-2.782063,-1.611335,0.137203\H,0,-1.33214,1
 .181585,-0.074327\H,0,-0.372732,-1.749591,-0.006035\H,0,0.813733,-0.34
 3113,-0.111914\\Version=ES64L-G09RevD.01\State=1-A\HF=-155.682632\MP2=
 -155.9110208\RMSD=8.825e-09\PG=C01 [X(C4H6)]\\@


 WE STILL HAVE JUDGEMENT HERE,
 THAT WE TEACH BUT BLOODY INSTRUCTIONS,
 WHICH, BEING TAUGHT,
 RETURN TO PLAGUE THE INVENTOR.
           MACBETH ACT I, SCENE VII
 Job cpu time:       0 days  0 hours 46 minutes 23.4 seconds.
 File lengths (MBytes):  RWF=     92 Int=      0 D2E=      0 Chk=      9 Scr=      1
 Normal termination of Gaussian 09 at Wed Aug 26 11:31:46 2020.
