 Entering Gaussian System, Link 0=/opt/cluster/programs/g09/g09_d.01/g09//g09
 Input=/home/boittier/MDCM/nms_sampling/butadiene_geom.xyz.dir/energies/butadiene_1544_energy.com
 Output=/scratch/boittier/butadiene_1544_energy/butadiene_1544_energy.out
 Initial command:
 /opt/cluster/programs/g09/g09_d.01/g09/l1.exe "/scratch/boittier/butadiene_1544_energy/Gau-24863.inp" -scrdir="/scratch/boittier/butadiene_1544_energy/"
 Entering Link 1 = /opt/cluster/programs/g09/g09_d.01/g09/l1.exe PID=     24864.
  
 Copyright (c) 1988,1990,1992,1993,1995,1998,2003,2009,2013,
            Gaussian, Inc.  All Rights Reserved.
  
 This is part of the Gaussian(R) 09 program.  It is based on
 the Gaussian(R) 03 system (copyright 2003, Gaussian, Inc.),
 the Gaussian(R) 98 system (copyright 1998, Gaussian, Inc.),
 the Gaussian(R) 94 system (copyright 1995, Gaussian, Inc.),
 the Gaussian 92(TM) system (copyright 1992, Gaussian, Inc.),
 the Gaussian 90(TM) system (copyright 1990, Gaussian, Inc.),
 the Gaussian 88(TM) system (copyright 1988, Gaussian, Inc.),
 the Gaussian 86(TM) system (copyright 1986, Carnegie Mellon
 University), and the Gaussian 82(TM) system (copyright 1983,
 Carnegie Mellon University). Gaussian is a federally registered
 trademark of Gaussian, Inc.
  
 This software contains proprietary and confidential information,
 including trade secrets, belonging to Gaussian, Inc.
  
 This software is provided under written license and may be
 used, copied, transmitted, or stored only in accord with that
 written license.
  
 The following legend is applicable only to US Government
 contracts under FAR:
  
                    RESTRICTED RIGHTS LEGEND
  
 Use, reproduction and disclosure by the US Government is
 subject to restrictions as set forth in subparagraphs (a)
 and (c) of the Commercial Computer Software - Restricted
 Rights clause in FAR 52.227-19.
  
 Gaussian, Inc.
 340 Quinnipiac St., Bldg. 40, Wallingford CT 06492
  
  
 ---------------------------------------------------------------
 Warning -- This program may not be used in any manner that
 competes with the business of Gaussian, Inc. or will provide
 assistance to any competitor of Gaussian, Inc.  The licensee
 of this program is prohibited from giving any competitor of
 Gaussian, Inc. access to this program.  By using this program,
 the user acknowledges that Gaussian, Inc. is engaged in the
 business of creating and licensing software in the field of
 computational chemistry and represents and warrants to the
 licensee that it is not a competitor of Gaussian, Inc. and that
 it will not use this program in any manner prohibited above.
 ---------------------------------------------------------------
  

 Cite this work as:
 Gaussian 09, Revision D.01,
 M. J. Frisch, G. W. Trucks, H. B. Schlegel, G. E. Scuseria, 
 M. A. Robb, J. R. Cheeseman, G. Scalmani, V. Barone, B. Mennucci, 
 G. A. Petersson, H. Nakatsuji, M. Caricato, X. Li, H. P. Hratchian, 
 A. F. Izmaylov, J. Bloino, G. Zheng, J. L. Sonnenberg, M. Hada, 
 M. Ehara, K. Toyota, R. Fukuda, J. Hasegawa, M. Ishida, T. Nakajima, 
 Y. Honda, O. Kitao, H. Nakai, T. Vreven, J. A. Montgomery, Jr., 
 J. E. Peralta, F. Ogliaro, M. Bearpark, J. J. Heyd, E. Brothers, 
 K. N. Kudin, V. N. Staroverov, T. Keith, R. Kobayashi, J. Normand, 
 K. Raghavachari, A. Rendell, J. C. Burant, S. S. Iyengar, J. Tomasi, 
 M. Cossi, N. Rega, J. M. Millam, M. Klene, J. E. Knox, J. B. Cross, 
 V. Bakken, C. Adamo, J. Jaramillo, R. Gomperts, R. E. Stratmann, 
 O. Yazyev, A. J. Austin, R. Cammi, C. Pomelli, J. W. Ochterski, 
 R. L. Martin, K. Morokuma, V. G. Zakrzewski, G. A. Voth, 
 P. Salvador, J. J. Dannenberg, S. Dapprich, A. D. Daniels, 
 O. Farkas, J. B. Foresman, J. V. Ortiz, J. Cioslowski, 
 and D. J. Fox, Gaussian, Inc., Wallingford CT, 2013.
 
 ******************************************
 Gaussian 09:  ES64L-G09RevD.01 24-Apr-2013
                26-Aug-2020 
 ******************************************
 %chk=/home/boittier/MDCM/nms_sampling/butadiene_geom.xyz.dir/butadiene_1544.chk
 %nproc=8
 Will use up to    8 processors via shared memory.
 %mem=16000MB
 --------------------
 #p B2PLYPD3/Def2QZVP
 --------------------
 1/38=1/1;
 2/12=2,17=6,18=5,40=1/2;
 3/5=45,7=101,11=9,16=1,25=1,30=1,74=-60/1,2,3;
 4//1;
 5/5=2,38=5/2;
 8/10=1/1;
 9/16=-3/6;
 6/7=2,8=2,9=2,10=2/1;
 99/5=1,9=1/99;
 Leave Link    1 at Wed Aug 26 09:31:16 2020, MaxMem=  2097152000 cpu:         0.2
 (Enter /opt/cluster/programs/g09/g09_d.01/g09/l101.exe)
 ---------
 butadiene
 ---------
 Symbolic Z-matrix:
 Charge =  0 Multiplicity = 1
 C                    -3.83347   0.23508   0.02082 
 C                    -2.7221   -0.50081   0.0288 
 C                    -1.3937    0.04034  -0.0162 
 C                    -0.24925  -0.63684   0.05235 
 H                    -4.81794  -0.20265   0.10486 
 H                    -3.80659   1.29214   0.03254 
 H                    -2.84609  -1.58868   0.07435 
 H                    -1.35943   1.07487   0.03622 
 H                    -0.29414  -1.72591   0.03212 
 H                     0.6887   -0.13463   0.0427 
 
 NAtoms=     10 NQM=       10 NQMF=       0 NMMI=      0 NMMIF=      0
                NMic=       0 NMicF=      0.
                    Isotopes and Nuclear Properties:
 (Nuclear quadrupole moments (NQMom) in fm**2, nuclear magnetic moments (NMagM)
  in nuclear magnetons)

  Atom         1           2           3           4           5           6           7           8           9          10
 IAtWgt=          12          12          12          12           1           1           1           1           1           1
 AtmWgt=  12.0000000  12.0000000  12.0000000  12.0000000   1.0078250   1.0078250   1.0078250   1.0078250   1.0078250   1.0078250
 NucSpn=           0           0           0           0           1           1           1           1           1           1
 AtZEff=   0.0000000   0.0000000   0.0000000   0.0000000   0.0000000   0.0000000   0.0000000   0.0000000   0.0000000   0.0000000
 NQMom=    0.0000000   0.0000000   0.0000000   0.0000000   0.0000000   0.0000000   0.0000000   0.0000000   0.0000000   0.0000000
 NMagM=    0.0000000   0.0000000   0.0000000   0.0000000   2.7928460   2.7928460   2.7928460   2.7928460   2.7928460   2.7928460
 AtZNuc=   6.0000000   6.0000000   6.0000000   6.0000000   1.0000000   1.0000000   1.0000000   1.0000000   1.0000000   1.0000000
 Leave Link  101 at Wed Aug 26 09:31:16 2020, MaxMem=  2097152000 cpu:         0.5
 (Enter /opt/cluster/programs/g09/g09_d.01/g09/l202.exe)
                          Input orientation:                          
 ---------------------------------------------------------------------
 Center     Atomic      Atomic             Coordinates (Angstroms)
 Number     Number       Type             X           Y           Z
 ---------------------------------------------------------------------
      1          6           0       -3.833472    0.235080    0.020820
      2          6           0       -2.722101   -0.500807    0.028796
      3          6           0       -1.393696    0.040336   -0.016202
      4          6           0       -0.249252   -0.636836    0.052345
      5          1           0       -4.817943   -0.202651    0.104855
      6          1           0       -3.806587    1.292143    0.032540
      7          1           0       -2.846087   -1.588676    0.074352
      8          1           0       -1.359426    1.074874    0.036223
      9          1           0       -0.294139   -1.725913    0.032121
     10          1           0        0.688701   -0.134628    0.042703
 ---------------------------------------------------------------------
                    Distance matrix (angstroms):
                    1          2          3          4          5
     1  C    0.000000
     2  C    1.332944   0.000000
     3  C    2.447816   1.435103   0.000000
     4  C    3.688884   2.476700   1.331545   0.000000
     5  H    1.080673   2.118310   3.434991   4.589576   0.000000
     6  H    1.057470   2.095422   2.718720   4.046725   1.806234
     7  H    2.074580   1.095859   2.184335   2.765870   2.410438
     8  H    2.612737   2.083197   1.036432   2.040269   3.687563
     9  H    4.046295   2.719540   2.081105   1.090189   4.773931
    10  H    4.537313   3.430430   2.090564   1.063984   5.507415
                    6          7          8          9         10
     6  H    0.000000
     7  H    3.037009   0.000000
     8  H    2.456790   3.050592   0.000000
     9  H    4.630978   2.555984   2.996542   0.000000
    10  H    4.716290   3.822301   2.378605   1.870367   0.000000
 Stoichiometry    C4H6
 Framework group  C1[X(C4H6)]
 Deg. of freedom    24
 Full point group                 C1      NOp   1
 Largest Abelian subgroup         C1      NOp   1
 Largest concise Abelian subgroup C1      NOp   1
                         Standard orientation:                         
 ---------------------------------------------------------------------
 Center     Atomic      Atomic             Coordinates (Angstroms)
 Number     Number       Type             X           Y           Z
 ---------------------------------------------------------------------
      1          6           0        1.831122   -0.124814   -0.004511
      2          6           0        0.606004    0.400365   -0.007903
      3          6           0       -0.604124   -0.370559   -0.035987
      4          6           0       -1.851269    0.092271    0.022569
      5          1           0        2.721376    0.483711    0.066190
      6          1           0        1.993834   -1.169120    0.029998
      7          1           0        0.533317    1.493595    0.013803
      8          1           0       -0.452705   -1.393142    0.038762
      9          1           0       -2.002000    1.171103   -0.021200
     10          1           0       -2.684212   -0.569729    0.027442
 ---------------------------------------------------------------------
 Rotational constants (GHZ):     44.2696579      4.4548581      4.0494717
 Leave Link  202 at Wed Aug 26 09:31:16 2020, MaxMem=  2097152000 cpu:         0.0
 (Enter /opt/cluster/programs/g09/g09_d.01/g09/l301.exe)
 Standard basis: def2QZVP (5D, 7F)
 Ernie: Thresh=  0.10000D-02 Tol=  0.10000D-05 Strict=F.
 There are   498 symmetry adapted cartesian basis functions of A   symmetry.
 There are   408 symmetry adapted basis functions of A   symmetry.
   408 basis functions,   596 primitive gaussians,   498 cartesian basis functions
    15 alpha electrons       15 beta electrons
       nuclear repulsion energy       104.6222073616 Hartrees.
 IExCor=  419 DFT=T Ex+Corr=B2PLYPD3 ExCW=0 ScaHFX=  0.530000
 ScaDFX=  0.470000  0.470000  0.730000  0.730000 ScalE2=  0.270000  0.270000
 IRadAn=      0 IRanWt=     -1 IRanGd=            0 ICorTp=0 IEmpDi=141
 NAtoms=   10 NActive=   10 NUniq=   10 SFac= 1.00D+00 NAtFMM=   60 NAOKFM=F Big=F
 Integral buffers will be    131072 words long.
 Regular integral format.
 Two-electron integral symmetry is turned on.
 R6Disp:  Grimme-D3(BJ) Dispersion energy=       -0.0048465831 Hartrees.
 Nuclear repulsion after empirical dispersion term =      104.6173607785 Hartrees.
 Leave Link  301 at Wed Aug 26 09:31:16 2020, MaxMem=  2097152000 cpu:         0.5
 (Enter /opt/cluster/programs/g09/g09_d.01/g09/l302.exe)
 NPDir=0 NMtPBC=     1 NCelOv=     1 NCel=       1 NClECP=     1 NCelD=      1
         NCelK=      1 NCelE2=     1 NClLst=     1 CellRange=     0.0.
 One-electron integrals computed using PRISM.
   1 Symmetry operations used in ECPInt.
 ECPInt:  NShTT=    8256 NPrTT=   19107 LenC2=    8058 LenP2D=   16124.
 LDataN:  DoStor=T MaxTD1= 8 Len=  415
 NBasis=   408 RedAO= T EigKep=  4.21D-05  NBF=   408
 NBsUse=   408 1.00D-06 EigRej= -1.00D+00 NBFU=   408
 Precomputing XC quadrature grid using
 IXCGrd= 4 IRadAn=           0 IRanWt=          -1 IRanGd=           0 AccXCQ= 0.00D+00.
 Generated NRdTot=       0 NPtTot=           0 NUsed=           0 NTot=          32
 NSgBfM=   498   498   498   498   498 MxSgAt=    10 MxSgA2=    10.
 Leave Link  302 at Wed Aug 26 09:31:16 2020, MaxMem=  2097152000 cpu:         3.1
 (Enter /opt/cluster/programs/g09/g09_d.01/g09/l303.exe)
 DipDrv:  MaxL=1.
 Leave Link  303 at Wed Aug 26 09:31:16 2020, MaxMem=  2097152000 cpu:         0.3
 (Enter /opt/cluster/programs/g09/g09_d.01/g09/l401.exe)
 ExpMin= 7.60D-02 ExpMax= 6.70D+04 ExpMxC= 6.47D+02 IAcc=2 IRadAn=         4 AccDes= 0.00D+00
 Harris functional with IExCor=  419 and IRadAn=       4 diagonalized for initial guess.
 HarFok:  IExCor=  419 AccDes= 0.00D+00 IRadAn=         4 IDoV= 1 UseB2=F ITyADJ=14
 ICtDFT=  3500011 ScaDFX=  1.000000  1.000000  1.000000  1.000000
 FoFCou: FMM=F IPFlag=           0 FMFlag=      100000 FMFlg1=           0
         NFxFlg=           0 DoJE=T BraDBF=F KetDBF=T FulRan=T
         wScrn=  0.000000 ICntrl=     500 IOpCl=  0 I1Cent=   200000004 NGrid=           0
         NMat0=    1 NMatS0=      1 NMatT0=    0 NMatD0=    1 NMtDS0=    0 NMtDT0=    0
 Petite list used in FoFCou.
 Harris En= -156.140780736554    
 JPrj=0 DoOrth=F DoCkMO=F.
 Leave Link  401 at Wed Aug 26 09:31:17 2020, MaxMem=  2097152000 cpu:         8.2
 (Enter /opt/cluster/programs/g09/g09_d.01/g09/l502.exe)
 Closed shell SCF:
 Using DIIS extrapolation, IDIIS=  1040.
 Integral symmetry usage will be decided dynamically.
 IVT=      770090 IEndB=      770090 NGot=  2097152000 MDV=  2096647053
 LenX=  2096647053 LenY=  2096398551
 Requested convergence on RMS density matrix=1.00D-08 within 128 cycles.
 Requested convergence on MAX density matrix=1.00D-06.
 Requested convergence on             energy=1.00D-06.
 No special actions if energy rises.
 Fock matrices will be formed incrementally for  20 cycles.
 Integral accuracy reduced to 1.0D-05 until final iterations.

 Cycle   1  Pass 0  IDiag  1:
 FoFJK:  IHMeth= 1 ICntrl=       0 DoSepK=F KAlg= 0 I1Cent=   0 FoldK=F
 IRaf= 940000000 NMat=   1 IRICut=       1 DoRegI=T DoRafI=F ISym2E= 0.
 FoFCou: FMM=F IPFlag=           0 FMFlag=      100000 FMFlg1=           0
         NFxFlg=           0 DoJE=F BraDBF=F KetDBF=F FulRan=T
         wScrn=  0.000000 ICntrl=       0 IOpCl=  0 I1Cent=           0 NGrid=           0
         NMat0=    1 NMatS0=      1 NMatT0=    0 NMatD0=    1 NMtDS0=    0 NMtDT0=    0
 Symmetry not used in FoFCou.
 E= -155.504256357412    
 DIIS: error= 3.72D-02 at cycle   1 NSaved=   1.
 NSaved= 1 IEnMin= 1 EnMin= -155.504256357412     IErMin= 1 ErrMin= 3.72D-02
 ErrMax= 3.72D-02  0.00D+00 EMaxC= 1.00D-01 BMatC= 2.60D-01 BMatP= 2.60D-01
 IDIUse=3 WtCom= 6.28D-01 WtEn= 3.72D-01
 Coeff-Com:  0.100D+01
 Coeff-En:   0.100D+01
 Coeff:      0.100D+01
 Gap=     0.297 Goal=   None    Shift=    0.000
 GapD=    0.297 DampG=1.000 DampE=0.500 DampFc=0.5000 IDamp=-1.
 Damping current iteration by 5.00D-01
 RMSDP=9.74D-04 MaxDP=4.98D-02              OVMax= 1.97D-01

 Cycle   2  Pass 0  IDiag  1:
 RMSU=  4.48D-04    CP:  9.50D-01
 E= -155.606917851633     Delta-E=       -0.102661494220 Rises=F Damp=T
 DIIS: error= 1.03D-02 at cycle   2 NSaved=   2.
 NSaved= 2 IEnMin= 2 EnMin= -155.606917851633     IErMin= 2 ErrMin= 1.03D-02
 ErrMax= 1.03D-02  0.00D+00 EMaxC= 1.00D-01 BMatC= 3.03D-02 BMatP= 2.60D-01
 IDIUse=3 WtCom= 8.97D-01 WtEn= 1.03D-01
 Coeff-Com: -0.299D+00 0.130D+01
 Coeff-En:   0.000D+00 0.100D+01
 Coeff:     -0.268D+00 0.127D+01
 Gap=     0.356 Goal=   None    Shift=    0.000
 RMSDP=2.76D-04 MaxDP=8.18D-03 DE=-1.03D-01 OVMax= 9.68D-02

 Cycle   3  Pass 0  IDiag  1:
 RMSU=  2.67D-04    CP:  9.33D-01  1.07D+00
 E= -155.695601231075     Delta-E=       -0.088683379442 Rises=F Damp=F
 DIIS: error= 4.43D-03 at cycle   3 NSaved=   3.
 NSaved= 3 IEnMin= 3 EnMin= -155.695601231075     IErMin= 3 ErrMin= 4.43D-03
 ErrMax= 4.43D-03  0.00D+00 EMaxC= 1.00D-01 BMatC= 2.09D-03 BMatP= 3.03D-02
 IDIUse=3 WtCom= 9.56D-01 WtEn= 4.43D-02
 Coeff-Com: -0.115D+00 0.237D+00 0.877D+00
 Coeff-En:   0.000D+00 0.000D+00 0.100D+01
 Coeff:     -0.109D+00 0.227D+00 0.883D+00
 Gap=     0.292 Goal=   None    Shift=    0.000
 RMSDP=7.40D-05 MaxDP=4.19D-03 DE=-8.87D-02 OVMax= 2.51D-02

 Cycle   4  Pass 0  IDiag  1:
 RMSU=  5.61D-05    CP:  9.29D-01  1.16D+00  9.34D-01
 E= -155.697145874941     Delta-E=       -0.001544643867 Rises=F Damp=F
 DIIS: error= 2.93D-03 at cycle   4 NSaved=   4.
 NSaved= 4 IEnMin= 4 EnMin= -155.697145874941     IErMin= 4 ErrMin= 2.93D-03
 ErrMax= 2.93D-03  0.00D+00 EMaxC= 1.00D-01 BMatC= 7.19D-04 BMatP= 2.09D-03
 IDIUse=3 WtCom= 9.71D-01 WtEn= 2.93D-02
 Coeff-Com: -0.509D-01 0.836D-01 0.470D+00 0.497D+00
 Coeff-En:   0.000D+00 0.000D+00 0.162D+00 0.838D+00
 Coeff:     -0.494D-01 0.811D-01 0.461D+00 0.507D+00
 Gap=     0.292 Goal=   None    Shift=    0.000
 RMSDP=3.11D-05 MaxDP=1.55D-03 DE=-1.54D-03 OVMax= 9.49D-03

 Cycle   5  Pass 0  IDiag  1:
 RMSU=  1.66D-05    CP:  9.29D-01  1.15D+00  9.81D-01  5.96D-01
 E= -155.697832805866     Delta-E=       -0.000686930925 Rises=F Damp=F
 DIIS: error= 2.53D-04 at cycle   5 NSaved=   5.
 NSaved= 5 IEnMin= 5 EnMin= -155.697832805866     IErMin= 5 ErrMin= 2.53D-04
 ErrMax= 2.53D-04  0.00D+00 EMaxC= 1.00D-01 BMatC= 4.26D-06 BMatP= 7.19D-04
 IDIUse=3 WtCom= 9.97D-01 WtEn= 2.53D-03
 Coeff-Com: -0.274D-02 0.220D-02 0.356D-01 0.906D-01 0.874D+00
 Coeff-En:   0.000D+00 0.000D+00 0.000D+00 0.000D+00 0.100D+01
 Coeff:     -0.274D-02 0.219D-02 0.355D-01 0.903D-01 0.875D+00
 Gap=     0.293 Goal=   None    Shift=    0.000
 RMSDP=4.27D-06 MaxDP=1.30D-04 DE=-6.87D-04 OVMax= 1.20D-03

 Initial convergence to 1.0D-05 achieved.  Increase integral accuracy.
 Cycle   6  Pass 1  IDiag  1:
 E= -155.697864560574     Delta-E=       -0.000031754708 Rises=F Damp=F
 DIIS: error= 5.28D-05 at cycle   1 NSaved=   1.
 NSaved= 1 IEnMin= 1 EnMin= -155.697864560574     IErMin= 1 ErrMin= 5.28D-05
 ErrMax= 5.28D-05  0.00D+00 EMaxC= 1.00D-01 BMatC= 4.67D-07 BMatP= 4.67D-07
 IDIUse=1 WtCom= 1.00D+00 WtEn= 0.00D+00
 Coeff-Com:  0.100D+01
 Coeff:      0.100D+01
 Gap=     0.293 Goal=   None    Shift=    0.000
 RMSDP=4.27D-06 MaxDP=1.30D-04 DE=-3.18D-05 OVMax= 2.80D-04

 Cycle   7  Pass 1  IDiag  1:
 RMSU=  1.65D-05    CP:  1.00D+00
 E= -155.697864898088     Delta-E=       -0.000000337514 Rises=F Damp=F
 DIIS: error= 1.93D-05 at cycle   2 NSaved=   2.
 NSaved= 2 IEnMin= 2 EnMin= -155.697864898088     IErMin= 2 ErrMin= 1.93D-05
 ErrMax= 1.93D-05  0.00D+00 EMaxC= 1.00D-01 BMatC= 1.66D-08 BMatP= 4.67D-07
 IDIUse=1 WtCom= 1.00D+00 WtEn= 0.00D+00
 Coeff-Com:  0.310D-01 0.969D+00
 Coeff:      0.310D-01 0.969D+00
 Gap=     0.293 Goal=   None    Shift=    0.000
 RMSDP=7.58D-07 MaxDP=2.27D-05 DE=-3.38D-07 OVMax= 1.46D-04

 Cycle   8  Pass 1  IDiag  1:
 RMSU=  4.81D-07    CP:  1.00D+00  1.04D+00
 E= -155.697864912722     Delta-E=       -0.000000014634 Rises=F Damp=F
 DIIS: error= 1.06D-05 at cycle   3 NSaved=   3.
 NSaved= 3 IEnMin= 3 EnMin= -155.697864912722     IErMin= 3 ErrMin= 1.06D-05
 ErrMax= 1.06D-05  0.00D+00 EMaxC= 1.00D-01 BMatC= 1.42D-08 BMatP= 1.66D-08
 IDIUse=1 WtCom= 1.00D+00 WtEn= 0.00D+00
 Coeff-Com: -0.189D-01 0.480D+00 0.539D+00
 Coeff:     -0.189D-01 0.480D+00 0.539D+00
 Gap=     0.293 Goal=   None    Shift=    0.000
 RMSDP=1.81D-07 MaxDP=8.72D-06 DE=-1.46D-08 OVMax= 5.18D-05

 Cycle   9  Pass 1  IDiag  1:
 RMSU=  1.70D-07    CP:  1.00D+00  1.04D+00  1.05D+00
 E= -155.697864926500     Delta-E=       -0.000000013779 Rises=F Damp=F
 DIIS: error= 4.07D-06 at cycle   4 NSaved=   4.
 NSaved= 4 IEnMin= 4 EnMin= -155.697864926500     IErMin= 4 ErrMin= 4.07D-06
 ErrMax= 4.07D-06  0.00D+00 EMaxC= 1.00D-01 BMatC= 3.60D-10 BMatP= 1.42D-08
 IDIUse=1 WtCom= 1.00D+00 WtEn= 0.00D+00
 Coeff-Com: -0.741D-02-0.540D-02 0.990D-01 0.914D+00
 Coeff:     -0.741D-02-0.540D-02 0.990D-01 0.914D+00
 Gap=     0.293 Goal=   None    Shift=    0.000
 RMSDP=6.29D-08 MaxDP=1.71D-06 DE=-1.38D-08 OVMax= 2.16D-05

 Cycle  10  Pass 1  IDiag  1:
 RMSU=  4.23D-08    CP:  1.00D+00  1.04D+00  1.13D+00  1.11D+00
 E= -155.697864927248     Delta-E=       -0.000000000748 Rises=F Damp=F
 DIIS: error= 5.83D-07 at cycle   5 NSaved=   5.
 NSaved= 5 IEnMin= 5 EnMin= -155.697864927248     IErMin= 5 ErrMin= 5.83D-07
 ErrMax= 5.83D-07  0.00D+00 EMaxC= 1.00D-01 BMatC= 4.51D-11 BMatP= 3.60D-10
 IDIUse=1 WtCom= 1.00D+00 WtEn= 0.00D+00
 Coeff-Com:  0.720D-03-0.537D-01-0.503D-01 0.189D+00 0.914D+00
 Coeff:      0.720D-03-0.537D-01-0.503D-01 0.189D+00 0.914D+00
 Gap=     0.293 Goal=   None    Shift=    0.000
 RMSDP=2.18D-08 MaxDP=1.34D-06 DE=-7.48D-10 OVMax= 5.54D-06

 Cycle  11  Pass 1  IDiag  1:
 RMSU=  1.33D-08    CP:  1.00D+00  1.04D+00  1.14D+00  1.18D+00  1.19D+00
 E= -155.697864927323     Delta-E=       -0.000000000074 Rises=F Damp=F
 DIIS: error= 1.27D-07 at cycle   6 NSaved=   6.
 NSaved= 6 IEnMin= 6 EnMin= -155.697864927323     IErMin= 6 ErrMin= 1.27D-07
 ErrMax= 1.27D-07  0.00D+00 EMaxC= 1.00D-01 BMatC= 3.29D-12 BMatP= 4.51D-11
 IDIUse=1 WtCom= 1.00D+00 WtEn= 0.00D+00
 Coeff-Com:  0.603D-03-0.198D-01-0.241D-01 0.362D-01 0.333D+00 0.674D+00
 Coeff:      0.603D-03-0.198D-01-0.241D-01 0.362D-01 0.333D+00 0.674D+00
 Gap=     0.293 Goal=   None    Shift=    0.000
 RMSDP=3.63D-09 MaxDP=1.43D-07 DE=-7.44D-11 OVMax= 8.74D-07

 SCF Done:  E(RB2PLYPD3) =  -155.697864927     A.U. after   11 cycles
            NFock= 11  Conv=0.36D-08     -V/T= 2.0026
 KE= 1.552971190371D+02 PE=-5.702814190024D+02 EE= 1.546690742596D+02
 Leave Link  502 at Wed Aug 26 09:34:21 2020, MaxMem=  2097152000 cpu:      1450.8
 (Enter /opt/cluster/programs/g09/g09_d.01/g09/l801.exe)
 DoSCS=T DFT=T ScalE2(SS,OS)=  0.270000  0.270000
 ExpMin= 7.60D-02 ExpMax= 6.70D+04 ExpMxC= 6.47D+02 IAcc=3 IRadAn=         5 AccDes= 0.00D+00
 HarFok:  IExCor=  205 AccDes= 0.00D+00 IRadAn=         5 IDoV=-2 UseB2=F ITyADJ=14
 ICtDFT= 12500011 ScaDFX=  1.000000  1.000000  1.000000  1.000000
 Largest valence mixing into a core orbital is  1.11D-04
 Largest core mixing into a valence orbital is  1.94D-05
 Range of M.O.s used for correlation:     5   408
 NBasis=   408 NAE=    15 NBE=    15 NFC=     4 NFV=     0
 NROrb=    404 NOA=    11 NOB=    11 NVA=   393 NVB=   393

 **** Warning!!: The largest alpha MO coefficient is  0.26875848D+02

 Leave Link  801 at Wed Aug 26 09:34:21 2020, MaxMem=  2097152000 cpu:         1.0
 (Enter /opt/cluster/programs/g09/g09_d.01/g09/l906.exe)
 DoSCS=T DFT=T ScalE2(SS,OS)=  0.270000  0.270000
 FulOut=F Deriv=F AODrv=F NAtomX=    10
   MMem=         881  MDisk=          11 MDiskD=          11
  W3Min=     2152854 MinDsk=     3857222 NBas6D=         498
 NBas2D=      125763    NTT=      124251    LW2=     4508827
    MDV=  2096381246 MDiskM=        9345 NBas2p=      117651
 Fully direct method using O(OVN) memory.
 IMap=   1   2   3   4   5   6   7   8   9  10  11
 JobTyp=1 Pass  1:  I=   1 to  11 NPSUse=  8 ParTrn=T ParDer=T DoDerP=F.
 Spin components of T(2) and E(2):
     alpha-alpha T2 =       0.4165502813D-01 E2=     -0.2539878406D-01
     alpha-beta  T2 =       0.2688570139D+00 E2=     -0.1744564846D+00
     beta-beta   T2 =       0.4165502813D-01 E2=     -0.2539878406D-01
 The integrals were generated   1 times.
 E2(B2PLYPD3) =    -0.2252540528D+00 E(B2PLYPD3) =    -0.15592311898008D+03
 Leave Link  906 at Wed Aug 26 09:37:21 2020, MaxMem=  2097152000 cpu:      1433.5
 (Enter /opt/cluster/programs/g09/g09_d.01/g09/l601.exe)
 Copying SCF densities to generalized density rwf, IOpCl= 0 IROHF=0.

 **********************************************************************

            Population analysis using the SCF density.

 **********************************************************************

 Orbital symmetries:
       Occupied  (A) (A) (A) (A) (A) (A) (A) (A) (A) (A) (A) (A)
                 (A) (A) (A)
       Virtual   (A) (A) (A) (A) (A) (A) (A) (A) (A) (A) (A) (A)
                 (A) (A) (A) (A) (A) (A) (A) (A) (A) (A) (A) (A)
                 (A) (A) (A) (A) (A) (A) (A) (A) (A) (A) (A) (A)
                 (A) (A) (A) (A) (A) (A) (A) (A) (A) (A) (A) (A)
                 (A) (A) (A) (A) (A) (A) (A) (A) (A) (A) (A) (A)
                 (A) (A) (A) (A) (A) (A) (A) (A) (A) (A) (A) (A)
                 (A) (A) (A) (A) (A) (A) (A) (A) (A) (A) (A) (A)
                 (A) (A) (A) (A) (A) (A) (A) (A) (A) (A) (A) (A)
                 (A) (A) (A) (A) (A) (A) (A) (A) (A) (A) (A) (A)
                 (A) (A) (A) (A) (A) (A) (A) (A) (A) (A) (A) (A)
                 (A) (A) (A) (A) (A) (A) (A) (A) (A) (A) (A) (A)
                 (A) (A) (A) (A) (A) (A) (A) (A) (A) (A) (A) (A)
                 (A) (A) (A) (A) (A) (A) (A) (A) (A) (A) (A) (A)
                 (A) (A) (A) (A) (A) (A) (A) (A) (A) (A) (A) (A)
                 (A) (A) (A) (A) (A) (A) (A) (A) (A) (A) (A) (A)
                 (A) (A) (A) (A) (A) (A) (A) (A) (A) (A) (A) (A)
                 (A) (A) (A) (A) (A) (A) (A) (A) (A) (A) (A) (A)
                 (A) (A) (A) (A) (A) (A) (A) (A) (A) (A) (A) (A)
                 (A) (A) (A) (A) (A) (A) (A) (A) (A) (A) (A) (A)
                 (A) (A) (A) (A) (A) (A) (A) (A) (A) (A) (A) (A)
                 (A) (A) (A) (A) (A) (A) (A) (A) (A) (A) (A) (A)
                 (A) (A) (A) (A) (A) (A) (A) (A) (A) (A) (A) (A)
                 (A) (A) (A) (A) (A) (A) (A) (A) (A) (A) (A) (A)
                 (A) (A) (A) (A) (A) (A) (A) (A) (A) (A) (A) (A)
                 (A) (A) (A) (A) (A) (A) (A) (A) (A) (A) (A) (A)
                 (A) (A) (A) (A) (A) (A) (A) (A) (A) (A) (A) (A)
                 (A) (A) (A) (A) (A) (A) (A) (A) (A) (A) (A) (A)
                 (A) (A) (A) (A) (A) (A) (A) (A) (A) (A) (A) (A)
                 (A) (A) (A) (A) (A) (A) (A) (A) (A) (A) (A) (A)
                 (A) (A) (A) (A) (A) (A) (A) (A) (A) (A) (A) (A)
                 (A) (A) (A) (A) (A) (A) (A) (A) (A) (A) (A) (A)
                 (A) (A) (A) (A) (A) (A) (A) (A) (A) (A) (A) (A)
                 (A) (A) (A) (A) (A) (A) (A) (A) (A)
 The electronic state is 1-A.
 Alpha  occ. eigenvalues --  -10.62427 -10.61690 -10.61344 -10.61236  -0.93416
 Alpha  occ. eigenvalues --   -0.85205  -0.70677  -0.64498  -0.55120  -0.54115
 Alpha  occ. eigenvalues --   -0.46944  -0.45711  -0.41276  -0.38337  -0.27696
 Alpha virt. eigenvalues --    0.01572   0.07012   0.07603   0.08089   0.09856
 Alpha virt. eigenvalues --    0.11720   0.12499   0.14804   0.15723   0.16342
 Alpha virt. eigenvalues --    0.18826   0.20129   0.21711   0.23025   0.23980
 Alpha virt. eigenvalues --    0.26828   0.27007   0.29366   0.32179   0.34841
 Alpha virt. eigenvalues --    0.36085   0.36299   0.37228   0.38708   0.40547
 Alpha virt. eigenvalues --    0.42343   0.43357   0.46050   0.46940   0.48097
 Alpha virt. eigenvalues --    0.48726   0.51036   0.52768   0.55964   0.57511
 Alpha virt. eigenvalues --    0.59262   0.61447   0.64460   0.66306   0.68623
 Alpha virt. eigenvalues --    0.69211   0.71787   0.76696   0.77832   0.79765
 Alpha virt. eigenvalues --    0.79992   0.80545   0.81634   0.82469   0.84291
 Alpha virt. eigenvalues --    0.85172   0.86606   0.86885   0.87070   0.91144
 Alpha virt. eigenvalues --    0.92566   0.93290   0.94488   0.95786   0.96444
 Alpha virt. eigenvalues --    0.98613   0.99269   1.00478   1.03280   1.05483
 Alpha virt. eigenvalues --    1.06018   1.08657   1.10894   1.11449   1.12984
 Alpha virt. eigenvalues --    1.14418   1.16771   1.20189   1.22296   1.23483
 Alpha virt. eigenvalues --    1.24852   1.26928   1.34233   1.35358   1.35979
 Alpha virt. eigenvalues --    1.37590   1.41411   1.48450   1.60096   1.64737
 Alpha virt. eigenvalues --    1.65436   1.67111   1.70618   1.73238   1.73814
 Alpha virt. eigenvalues --    1.75633   1.80672   1.82483   1.84645   1.87179
 Alpha virt. eigenvalues --    1.90011   1.91779   1.92486   1.92852   1.94009
 Alpha virt. eigenvalues --    1.95414   1.98155   2.00174   2.01671   2.02259
 Alpha virt. eigenvalues --    2.04780   2.05714   2.07905   2.08278   2.09105
 Alpha virt. eigenvalues --    2.10395   2.13519   2.14456   2.17514   2.19868
 Alpha virt. eigenvalues --    2.21177   2.21635   2.24082   2.25753   2.29081
 Alpha virt. eigenvalues --    2.29572   2.33309   2.34203   2.38103   2.43566
 Alpha virt. eigenvalues --    2.44761   2.45438   2.47034   2.48221   2.49961
 Alpha virt. eigenvalues --    2.52197   2.54068   2.55654   2.58178   2.58678
 Alpha virt. eigenvalues --    2.60247   2.61809   2.64818   2.65649   2.66883
 Alpha virt. eigenvalues --    2.68836   2.70121   2.71097   2.72320   2.72696
 Alpha virt. eigenvalues --    2.73913   2.75244   2.77329   2.78853   2.80518
 Alpha virt. eigenvalues --    2.82608   2.88763   2.91355   2.92457   2.94192
 Alpha virt. eigenvalues --    2.96131   3.04714   3.06966   3.11400   3.12798
 Alpha virt. eigenvalues --    3.14784   3.17409   3.26171   3.35368   3.37682
 Alpha virt. eigenvalues --    3.39890   3.41913   3.43434   3.47631   3.49124
 Alpha virt. eigenvalues --    3.49560   3.53340   3.54533   3.57619   3.61833
 Alpha virt. eigenvalues --    3.62901   3.63773   3.67788   3.71671   3.79997
 Alpha virt. eigenvalues --    3.80366   3.83798   3.88174   3.92095   3.95346
 Alpha virt. eigenvalues --    3.96115   3.99552   4.05145   4.09814   4.15829
 Alpha virt. eigenvalues --    4.18157   4.21451   4.23286   4.28285   4.44424
 Alpha virt. eigenvalues --    4.55514   4.57986   4.60169   4.85395   5.00263
 Alpha virt. eigenvalues --    5.01389   5.05259   5.07854   5.08876   5.10685
 Alpha virt. eigenvalues --    5.12955   5.19123   5.22792   5.27174   5.32786
 Alpha virt. eigenvalues --    5.34313   5.40943   5.43972   5.47163   5.51494
 Alpha virt. eigenvalues --    5.52330   5.56242   5.57868   5.59413   5.62552
 Alpha virt. eigenvalues --    5.66495   5.68185   5.73675   5.75095   5.77257
 Alpha virt. eigenvalues --    5.79191   5.81021   5.84114   5.87623   5.88069
 Alpha virt. eigenvalues --    5.90102   5.92294   5.98465   5.99778   6.05072
 Alpha virt. eigenvalues --    6.05883   6.08977   6.09463   6.11605   6.13707
 Alpha virt. eigenvalues --    6.14512   6.16638   6.17852   6.19648   6.20445
 Alpha virt. eigenvalues --    6.22890   6.26496   6.29789   6.32731   6.36202
 Alpha virt. eigenvalues --    6.37127   6.37654   6.38883   6.39760   6.40694
 Alpha virt. eigenvalues --    6.42145   6.43493   6.46478   6.53273   6.54507
 Alpha virt. eigenvalues --    6.56612   6.58766   6.62244   6.65141   6.65340
 Alpha virt. eigenvalues --    6.67449   6.69370   6.75029   6.75222   6.83920
 Alpha virt. eigenvalues --    6.86120   6.88771   6.89446   6.92185   6.94294
 Alpha virt. eigenvalues --    6.97535   6.97971   7.04862   7.10491   7.13339
 Alpha virt. eigenvalues --    7.15309   7.19003   7.20078   7.21910   7.23778
 Alpha virt. eigenvalues --    7.28710   7.31237   7.37462   7.39218   7.43929
 Alpha virt. eigenvalues --    7.46355   7.51429   7.58815   7.61831   7.63179
 Alpha virt. eigenvalues --    7.64953   7.65807   7.68212   7.68810   7.70340
 Alpha virt. eigenvalues --    7.73171   7.75354   7.78089   7.80381   7.81006
 Alpha virt. eigenvalues --    7.82952   7.87052   7.89103   7.92647   7.94562
 Alpha virt. eigenvalues --    7.98016   7.99602   8.08104   8.09226   8.13007
 Alpha virt. eigenvalues --    8.14752   8.17321   8.19886   8.21137   8.24798
 Alpha virt. eigenvalues --    8.32463   8.34142   8.35357   8.36877   8.38649
 Alpha virt. eigenvalues --    8.39889   8.40980   8.42141   8.45783   8.48782
 Alpha virt. eigenvalues --    8.50236   8.53121   8.57009   8.57600   8.60540
 Alpha virt. eigenvalues --    8.61628   8.63954   8.67172   8.72324   8.74188
 Alpha virt. eigenvalues --    8.76836   8.81189   8.85088   8.87707   8.89759
 Alpha virt. eigenvalues --    8.92256   8.93367   8.97498   9.08144   9.23066
 Alpha virt. eigenvalues --    9.27691   9.27862   9.33255   9.41859   9.51785
 Alpha virt. eigenvalues --    9.60980   9.70081   9.78742   9.90260   9.90558
 Alpha virt. eigenvalues --    9.97177  10.01709  10.02576  10.07618  10.13416
 Alpha virt. eigenvalues --   10.14432  10.20129  10.28597  10.36592  10.47505
 Alpha virt. eigenvalues --   10.49996  10.58981  10.68455  10.74221  10.87337
 Alpha virt. eigenvalues --   11.05801  11.23220  11.50693  11.78284  11.85857
 Alpha virt. eigenvalues --   11.88460  12.85940  13.07978  13.23652  13.26125
 Alpha virt. eigenvalues --   28.70179  28.85396  29.50961  29.72303 148.30021
 Alpha virt. eigenvalues --  148.44586 149.11548 149.34363
          Condensed to atoms (all electrons):
               1          2          3          4          5          6
     1  C    4.836286   0.622177  -0.080315  -0.002787   0.426905   0.425761
     2  C    0.622177   4.832324   0.398355  -0.078397  -0.044479  -0.047995
     3  C   -0.080315   0.398355   4.840360   0.618610   0.007276  -0.007066
     4  C   -0.002787  -0.078397   0.618610   4.842310  -0.000580   0.000205
     5  H    0.426905  -0.044479   0.007276  -0.000580   0.585890  -0.047341
     6  H    0.425761  -0.047995  -0.007066   0.000205  -0.047341   0.599887
     7  H   -0.051407   0.410747  -0.059856  -0.001537  -0.009981   0.008225
     8  H   -0.001814  -0.068201   0.412297  -0.052514  -0.000024   0.004509
     9  H    0.000141  -0.007313  -0.051522   0.424841  -0.000026   0.000046
    10  H   -0.000621   0.007513  -0.047945   0.429440   0.000023  -0.000030
               7          8          9         10
     1  C   -0.051407  -0.001814   0.000141  -0.000621
     2  C    0.410747  -0.068201  -0.007313   0.007513
     3  C   -0.059856   0.412297  -0.051522  -0.047945
     4  C   -0.001537  -0.052514   0.424841   0.429440
     5  H   -0.009981  -0.000024  -0.000026   0.000023
     6  H    0.008225   0.004509   0.000046  -0.000030
     7  H    0.642762   0.007579   0.004903  -0.000168
     8  H    0.007579   0.641356   0.008735  -0.010107
     9  H    0.004903   0.008735   0.596409  -0.041728
    10  H   -0.000168  -0.010107  -0.041728   0.573351
 Mulliken charges:
               1
     1  C   -0.174326
     2  C   -0.024732
     3  C   -0.030195
     4  C   -0.179590
     5  H    0.082337
     6  H    0.063800
     7  H    0.048734
     8  H    0.058184
     9  H    0.065515
    10  H    0.090272
 Sum of Mulliken charges =   0.00000
 Mulliken charges with hydrogens summed into heavy atoms:
               1
     1  C   -0.028190
     2  C    0.024002
     3  C    0.027990
     4  C   -0.023802
 Electronic spatial extent (au):  <R**2>=            333.2902
 Charge=              0.0000 electrons
 Dipole moment (field-independent basis, Debye):
    X=              0.0513    Y=             -0.0515    Z=              0.1097  Tot=              0.1316
 Quadrupole moment (field-independent basis, Debye-Ang):
   XX=            -23.3569   YY=            -23.1938   ZZ=            -29.1210
   XY=              0.0055   XZ=              0.1974   YZ=             -0.0877
 Traceless Quadrupole moment (field-independent basis, Debye-Ang):
   XX=              1.8670   YY=              2.0301   ZZ=             -3.8971
   XY=              0.0055   XZ=              0.1974   YZ=             -0.0877
 Octapole moment (field-independent basis, Debye-Ang**2):
  XXX=              0.6273  YYY=             -0.0165  ZZZ=              0.1904  XYY=             -0.0244
  XXY=             -0.7114  XXZ=              0.6866  XZZ=              0.0480  YZZ=             -0.1432
  YYZ=              0.2556  XYZ=              0.1746
 Hexadecapole moment (field-independent basis, Debye-Ang**3):
 XXXX=           -342.7543 YYYY=            -63.8900 ZZZZ=            -36.5525 XXXY=              6.8205
 XXXZ=              1.6047 YYYX=             -1.5359 YYYZ=             -0.3304 ZZZX=              0.2415
 ZZZY=             -0.0798 XXYY=            -67.7346 XXZZ=            -76.6767 YYZZ=            -18.7496
 XXYZ=             -0.1203 YYXZ=              0.2853 ZZXY=             -0.3748
 N-N= 1.046173607785D+02 E-N=-5.702814102629D+02  KE= 1.552971190371D+02
 Leave Link  601 at Wed Aug 26 09:37:21 2020, MaxMem=  2097152000 cpu:         0.8
 (Enter /opt/cluster/programs/g09/g09_d.01/g09/l9999.exe)
 1\1\GINC-NODE33\SP\RB2PLYPD3-FC\def2QZVP\C4H6\BOITTIER\26-Aug-2020\0\\
 #p B2PLYPD3/Def2QZVP\\butadiene\\0,1\C,0,-3.833472,0.23508,0.02082\C,0
 ,-2.722101,-0.500807,0.028796\C,0,-1.393696,0.040336,-0.016202\C,0,-0.
 249252,-0.636836,0.052345\H,0,-4.817943,-0.202651,0.104855\H,0,-3.8065
 87,1.292143,0.03254\H,0,-2.846087,-1.588676,0.074352\H,0,-1.359426,1.0
 74874,0.036223\H,0,-0.294139,-1.725913,0.032121\H,0,0.688701,-0.134628
 ,0.042703\\Version=ES64L-G09RevD.01\State=1-A\HF=-155.6978649\MP2=-155
 .923119\RMSD=3.634e-09\PG=C01 [X(C4H6)]\\@


 IT TAKES GREATER CHARACTER TO CARRY OFF GOOD FORTUNE THAN BAD.
                     FRENCH PROVERB.
 Job cpu time:       0 days  0 hours 48 minutes 19.6 seconds.
 File lengths (MBytes):  RWF=     92 Int=      0 D2E=      0 Chk=      9 Scr=      1
 Normal termination of Gaussian 09 at Wed Aug 26 09:37:21 2020.
