 Entering Gaussian System, Link 0=/opt/cluster/programs/g09/g09_d.01/g09//g09
 Input=/home/boittier/MDCM/nms_sampling/butadiene_geom.xyz.dir/energies/butadiene_889_energy.com
 Output=/scratch/boittier/butadiene_889_energy/butadiene_889_energy.out
 Initial command:
 /opt/cluster/programs/g09/g09_d.01/g09/l1.exe "/scratch/boittier/butadiene_889_energy/Gau-218046.inp" -scrdir="/scratch/boittier/butadiene_889_energy/"
 Entering Link 1 = /opt/cluster/programs/g09/g09_d.01/g09/l1.exe PID=    218047.
  
 Copyright (c) 1988,1990,1992,1993,1995,1998,2003,2009,2013,
            Gaussian, Inc.  All Rights Reserved.
  
 This is part of the Gaussian(R) 09 program.  It is based on
 the Gaussian(R) 03 system (copyright 2003, Gaussian, Inc.),
 the Gaussian(R) 98 system (copyright 1998, Gaussian, Inc.),
 the Gaussian(R) 94 system (copyright 1995, Gaussian, Inc.),
 the Gaussian 92(TM) system (copyright 1992, Gaussian, Inc.),
 the Gaussian 90(TM) system (copyright 1990, Gaussian, Inc.),
 the Gaussian 88(TM) system (copyright 1988, Gaussian, Inc.),
 the Gaussian 86(TM) system (copyright 1986, Carnegie Mellon
 University), and the Gaussian 82(TM) system (copyright 1983,
 Carnegie Mellon University). Gaussian is a federally registered
 trademark of Gaussian, Inc.
  
 This software contains proprietary and confidential information,
 including trade secrets, belonging to Gaussian, Inc.
  
 This software is provided under written license and may be
 used, copied, transmitted, or stored only in accord with that
 written license.
  
 The following legend is applicable only to US Government
 contracts under FAR:
  
                    RESTRICTED RIGHTS LEGEND
  
 Use, reproduction and disclosure by the US Government is
 subject to restrictions as set forth in subparagraphs (a)
 and (c) of the Commercial Computer Software - Restricted
 Rights clause in FAR 52.227-19.
  
 Gaussian, Inc.
 340 Quinnipiac St., Bldg. 40, Wallingford CT 06492
  
  
 ---------------------------------------------------------------
 Warning -- This program may not be used in any manner that
 competes with the business of Gaussian, Inc. or will provide
 assistance to any competitor of Gaussian, Inc.  The licensee
 of this program is prohibited from giving any competitor of
 Gaussian, Inc. access to this program.  By using this program,
 the user acknowledges that Gaussian, Inc. is engaged in the
 business of creating and licensing software in the field of
 computational chemistry and represents and warrants to the
 licensee that it is not a competitor of Gaussian, Inc. and that
 it will not use this program in any manner prohibited above.
 ---------------------------------------------------------------
  

 Cite this work as:
 Gaussian 09, Revision D.01,
 M. J. Frisch, G. W. Trucks, H. B. Schlegel, G. E. Scuseria, 
 M. A. Robb, J. R. Cheeseman, G. Scalmani, V. Barone, B. Mennucci, 
 G. A. Petersson, H. Nakatsuji, M. Caricato, X. Li, H. P. Hratchian, 
 A. F. Izmaylov, J. Bloino, G. Zheng, J. L. Sonnenberg, M. Hada, 
 M. Ehara, K. Toyota, R. Fukuda, J. Hasegawa, M. Ishida, T. Nakajima, 
 Y. Honda, O. Kitao, H. Nakai, T. Vreven, J. A. Montgomery, Jr., 
 J. E. Peralta, F. Ogliaro, M. Bearpark, J. J. Heyd, E. Brothers, 
 K. N. Kudin, V. N. Staroverov, T. Keith, R. Kobayashi, J. Normand, 
 K. Raghavachari, A. Rendell, J. C. Burant, S. S. Iyengar, J. Tomasi, 
 M. Cossi, N. Rega, J. M. Millam, M. Klene, J. E. Knox, J. B. Cross, 
 V. Bakken, C. Adamo, J. Jaramillo, R. Gomperts, R. E. Stratmann, 
 O. Yazyev, A. J. Austin, R. Cammi, C. Pomelli, J. W. Ochterski, 
 R. L. Martin, K. Morokuma, V. G. Zakrzewski, G. A. Voth, 
 P. Salvador, J. J. Dannenberg, S. Dapprich, A. D. Daniels, 
 O. Farkas, J. B. Foresman, J. V. Ortiz, J. Cioslowski, 
 and D. J. Fox, Gaussian, Inc., Wallingford CT, 2013.
 
 ******************************************
 Gaussian 09:  ES64L-G09RevD.01 24-Apr-2013
                26-Aug-2020 
 ******************************************
 %chk=/home/boittier/MDCM/nms_sampling/butadiene_geom.xyz.dir/butadiene_889.chk
 %nproc=8
 Will use up to    8 processors via shared memory.
 %mem=16000MB
 --------------------
 #p B2PLYPD3/Def2QZVP
 --------------------
 1/38=1/1;
 2/12=2,17=6,18=5,40=1/2;
 3/5=45,7=101,11=9,16=1,25=1,30=1,74=-60/1,2,3;
 4//1;
 5/5=2,38=5/2;
 8/10=1/1;
 9/16=-3/6;
 6/7=2,8=2,9=2,10=2/1;
 99/5=1,9=1/99;
 Leave Link    1 at Wed Aug 26 21:48:55 2020, MaxMem=  2097152000 cpu:         0.3
 (Enter /opt/cluster/programs/g09/g09_d.01/g09/l101.exe)
 ---------
 butadiene
 ---------
 Symbolic Z-matrix:
 Charge =  0 Multiplicity = 1
 C                    -3.83466   0.21759   0.03718 
 C                    -2.70522  -0.48738   0.01507 
 C                    -1.39448   0.08302   0.0061 
 C                    -0.27713  -0.66889   0.04474 
 H                    -4.81961  -0.26449   0.01235 
 H                    -3.84145   1.28706   0.00711 
 H                    -2.70888  -1.56848   0.01338 
 H                    -1.29571   1.1899   -0.05318 
 H                    -0.31566  -1.74448   0.1461 
 H                     0.7042   -0.22708  -0.04568 
 
 NAtoms=     10 NQM=       10 NQMF=       0 NMMI=      0 NMMIF=      0
                NMic=       0 NMicF=      0.
                    Isotopes and Nuclear Properties:
 (Nuclear quadrupole moments (NQMom) in fm**2, nuclear magnetic moments (NMagM)
  in nuclear magnetons)

  Atom         1           2           3           4           5           6           7           8           9          10
 IAtWgt=          12          12          12          12           1           1           1           1           1           1
 AtmWgt=  12.0000000  12.0000000  12.0000000  12.0000000   1.0078250   1.0078250   1.0078250   1.0078250   1.0078250   1.0078250
 NucSpn=           0           0           0           0           1           1           1           1           1           1
 AtZEff=   0.0000000   0.0000000   0.0000000   0.0000000   0.0000000   0.0000000   0.0000000   0.0000000   0.0000000   0.0000000
 NQMom=    0.0000000   0.0000000   0.0000000   0.0000000   0.0000000   0.0000000   0.0000000   0.0000000   0.0000000   0.0000000
 NMagM=    0.0000000   0.0000000   0.0000000   0.0000000   2.7928460   2.7928460   2.7928460   2.7928460   2.7928460   2.7928460
 AtZNuc=   6.0000000   6.0000000   6.0000000   6.0000000   1.0000000   1.0000000   1.0000000   1.0000000   1.0000000   1.0000000
 Leave Link  101 at Wed Aug 26 21:48:56 2020, MaxMem=  2097152000 cpu:         0.6
 (Enter /opt/cluster/programs/g09/g09_d.01/g09/l202.exe)
                          Input orientation:                          
 ---------------------------------------------------------------------
 Center     Atomic      Atomic             Coordinates (Angstroms)
 Number     Number       Type             X           Y           Z
 ---------------------------------------------------------------------
      1          6           0       -3.834661    0.217588    0.037176
      2          6           0       -2.705224   -0.487383    0.015073
      3          6           0       -1.394482    0.083018    0.006100
      4          6           0       -0.277133   -0.668888    0.044735
      5          1           0       -4.819607   -0.264487    0.012350
      6          1           0       -3.841453    1.287055    0.007112
      7          1           0       -2.708880   -1.568480    0.013378
      8          1           0       -1.295708    1.189901   -0.053175
      9          1           0       -0.315663   -1.744477    0.146099
     10          1           0        0.704203   -0.227075   -0.045679
 ---------------------------------------------------------------------
                    Distance matrix (angstroms):
                    1          2          3          4          5
     1  C    0.000000
     2  C    1.331578   0.000000
     3  C    2.444084   1.429504   0.000000
     4  C    3.666320   2.435046   1.347340   0.000000
     5  H    1.096873   2.126101   3.442714   4.560555   0.000000
     6  H    1.069911   2.107062   2.727155   4.065895   1.834147
     7  H    2.111395   1.081105   2.110720   2.592999   2.481042
     8  H    2.720264   2.191957   1.112861   2.121834   3.812795
     9  H    4.030498   2.703230   2.126779   1.081042   4.742760
    10  H    4.561346   3.419889   2.122102   1.079997   5.524241
                    6          7          8          9         10
     6  H    0.000000
     7  H    3.071944   0.000000
     8  H    2.548311   3.100024   0.000000
     9  H    4.651956   2.403347   3.100125   0.000000
    10  H    4.791489   3.667696   2.451025   1.838318   0.000000
 Stoichiometry    C4H6
 Framework group  C1[X(C4H6)]
 Deg. of freedom    24
 Full point group                 C1      NOp   1
 Largest Abelian subgroup         C1      NOp   1
 Largest concise Abelian subgroup C1      NOp   1
                         Standard orientation:                         
 ---------------------------------------------------------------------
 Center     Atomic      Atomic             Coordinates (Angstroms)
 Number     Number       Type             X           Y           Z
 ---------------------------------------------------------------------
      1          6           0       -1.832405    0.095133    0.020804
      2          6           0       -0.592132   -0.387737   -0.019927
      3          6           0        0.590507    0.415141   -0.004570
      4          6           0        1.827703   -0.118086    0.013799
      5          1           0       -2.711268   -0.559632   -0.024056
      6          1           0       -2.036905    1.145305    0.026126
      7          1           0       -0.395813   -1.450206   -0.057419
      8          1           0        0.482773    1.522553   -0.026766
      9          1           0        1.988941   -1.185025    0.079346
     10          1           0        2.710229    0.500303   -0.057864
 ---------------------------------------------------------------------
 Rotational constants (GHZ):     42.3476162      4.5053720      4.0739317
 Leave Link  202 at Wed Aug 26 21:48:56 2020, MaxMem=  2097152000 cpu:         0.0
 (Enter /opt/cluster/programs/g09/g09_d.01/g09/l301.exe)
 Standard basis: def2QZVP (5D, 7F)
 Ernie: Thresh=  0.10000D-02 Tol=  0.10000D-05 Strict=F.
 There are   498 symmetry adapted cartesian basis functions of A   symmetry.
 There are   408 symmetry adapted basis functions of A   symmetry.
   408 basis functions,   596 primitive gaussians,   498 cartesian basis functions
    15 alpha electrons       15 beta electrons
       nuclear repulsion energy       104.2614801642 Hartrees.
 IExCor=  419 DFT=T Ex+Corr=B2PLYPD3 ExCW=0 ScaHFX=  0.530000
 ScaDFX=  0.470000  0.470000  0.730000  0.730000 ScalE2=  0.270000  0.270000
 IRadAn=      0 IRanWt=     -1 IRanGd=            0 ICorTp=0 IEmpDi=141
 NAtoms=   10 NActive=   10 NUniq=   10 SFac= 1.00D+00 NAtFMM=   60 NAOKFM=F Big=F
 Integral buffers will be    131072 words long.
 Regular integral format.
 Two-electron integral symmetry is turned on.
 R6Disp:  Grimme-D3(BJ) Dispersion energy=       -0.0048467670 Hartrees.
 Nuclear repulsion after empirical dispersion term =      104.2566333972 Hartrees.
 Leave Link  301 at Wed Aug 26 21:48:56 2020, MaxMem=  2097152000 cpu:         0.4
 (Enter /opt/cluster/programs/g09/g09_d.01/g09/l302.exe)
 NPDir=0 NMtPBC=     1 NCelOv=     1 NCel=       1 NClECP=     1 NCelD=      1
         NCelK=      1 NCelE2=     1 NClLst=     1 CellRange=     0.0.
 One-electron integrals computed using PRISM.
   1 Symmetry operations used in ECPInt.
 ECPInt:  NShTT=    8256 NPrTT=   19107 LenC2=    8059 LenP2D=   16126.
 LDataN:  DoStor=T MaxTD1= 8 Len=  415
 NBasis=   408 RedAO= T EigKep=  4.32D-05  NBF=   408
 NBsUse=   408 1.00D-06 EigRej= -1.00D+00 NBFU=   408
 Precomputing XC quadrature grid using
 IXCGrd= 4 IRadAn=           0 IRanWt=          -1 IRanGd=           0 AccXCQ= 0.00D+00.
 Generated NRdTot=       0 NPtTot=           0 NUsed=           0 NTot=          32
 NSgBfM=   498   498   498   498   498 MxSgAt=    10 MxSgA2=    10.
 Leave Link  302 at Wed Aug 26 21:48:56 2020, MaxMem=  2097152000 cpu:         3.7
 (Enter /opt/cluster/programs/g09/g09_d.01/g09/l303.exe)
 DipDrv:  MaxL=1.
 Leave Link  303 at Wed Aug 26 21:48:56 2020, MaxMem=  2097152000 cpu:         0.4
 (Enter /opt/cluster/programs/g09/g09_d.01/g09/l401.exe)
 ExpMin= 7.60D-02 ExpMax= 6.70D+04 ExpMxC= 6.47D+02 IAcc=2 IRadAn=         4 AccDes= 0.00D+00
 Harris functional with IExCor=  419 and IRadAn=       4 diagonalized for initial guess.
 HarFok:  IExCor=  419 AccDes= 0.00D+00 IRadAn=         4 IDoV= 1 UseB2=F ITyADJ=14
 ICtDFT=  3500011 ScaDFX=  1.000000  1.000000  1.000000  1.000000
 FoFCou: FMM=F IPFlag=           0 FMFlag=      100000 FMFlg1=           0
         NFxFlg=           0 DoJE=T BraDBF=F KetDBF=T FulRan=T
         wScrn=  0.000000 ICntrl=     500 IOpCl=  0 I1Cent=   200000004 NGrid=           0
         NMat0=    1 NMatS0=      1 NMatT0=    0 NMatD0=    1 NMtDS0=    0 NMtDT0=    0
 Petite list used in FoFCou.
 Harris En= -156.134501550902    
 JPrj=0 DoOrth=F DoCkMO=F.
 Leave Link  401 at Wed Aug 26 21:48:57 2020, MaxMem=  2097152000 cpu:         9.5
 (Enter /opt/cluster/programs/g09/g09_d.01/g09/l502.exe)
 Closed shell SCF:
 Using DIIS extrapolation, IDIIS=  1040.
 Integral symmetry usage will be decided dynamically.
 IVT=      770090 IEndB=      770090 NGot=  2097152000 MDV=  2096647053
 LenX=  2096647053 LenY=  2096398551
 Requested convergence on RMS density matrix=1.00D-08 within 128 cycles.
 Requested convergence on MAX density matrix=1.00D-06.
 Requested convergence on             energy=1.00D-06.
 No special actions if energy rises.
 Fock matrices will be formed incrementally for  20 cycles.
 Integral accuracy reduced to 1.0D-05 until final iterations.

 Cycle   1  Pass 0  IDiag  1:
 FoFJK:  IHMeth= 1 ICntrl=       0 DoSepK=F KAlg= 0 I1Cent=   0 FoldK=F
 IRaf= 940000000 NMat=   1 IRICut=       1 DoRegI=T DoRafI=F ISym2E= 0.
 FoFCou: FMM=F IPFlag=           0 FMFlag=      100000 FMFlg1=           0
         NFxFlg=           0 DoJE=F BraDBF=F KetDBF=F FulRan=T
         wScrn=  0.000000 ICntrl=       0 IOpCl=  0 I1Cent=           0 NGrid=           0
         NMat0=    1 NMatS0=      1 NMatT0=    0 NMatD0=    1 NMtDS0=    0 NMtDT0=    0
 Symmetry not used in FoFCou.
 E= -155.511180249560    
 DIIS: error= 3.78D-02 at cycle   1 NSaved=   1.
 NSaved= 1 IEnMin= 1 EnMin= -155.511180249560     IErMin= 1 ErrMin= 3.78D-02
 ErrMax= 3.78D-02  0.00D+00 EMaxC= 1.00D-01 BMatC= 2.53D-01 BMatP= 2.53D-01
 IDIUse=3 WtCom= 6.22D-01 WtEn= 3.78D-01
 Coeff-Com:  0.100D+01
 Coeff-En:   0.100D+01
 Coeff:      0.100D+01
 Gap=     0.294 Goal=   None    Shift=    0.000
 GapD=    0.294 DampG=1.000 DampE=0.500 DampFc=0.5000 IDamp=-1.
 Damping current iteration by 5.00D-01
 RMSDP=9.60D-04 MaxDP=5.00D-02              OVMax= 1.95D-01

 Cycle   2  Pass 0  IDiag  1:
 RMSU=  4.42D-04    CP:  9.51D-01
 E= -155.610632473790     Delta-E=       -0.099452224230 Rises=F Damp=T
 DIIS: error= 9.61D-03 at cycle   2 NSaved=   2.
 NSaved= 2 IEnMin= 2 EnMin= -155.610632473790     IErMin= 2 ErrMin= 9.61D-03
 ErrMax= 9.61D-03  0.00D+00 EMaxC= 1.00D-01 BMatC= 2.97D-02 BMatP= 2.53D-01
 IDIUse=3 WtCom= 9.04D-01 WtEn= 9.61D-02
 Coeff-Com: -0.293D+00 0.129D+01
 Coeff-En:   0.000D+00 0.100D+01
 Coeff:     -0.265D+00 0.127D+01
 Gap=     0.354 Goal=   None    Shift=    0.000
 RMSDP=2.71D-04 MaxDP=7.79D-03 DE=-9.95D-02 OVMax= 9.66D-02

 Cycle   3  Pass 0  IDiag  1:
 RMSU=  2.62D-04    CP:  9.34D-01  1.06D+00
 E= -155.696851814104     Delta-E=       -0.086219340314 Rises=F Damp=F
 DIIS: error= 4.65D-03 at cycle   3 NSaved=   3.
 NSaved= 3 IEnMin= 3 EnMin= -155.696851814104     IErMin= 3 ErrMin= 4.65D-03
 ErrMax= 4.65D-03  0.00D+00 EMaxC= 1.00D-01 BMatC= 2.22D-03 BMatP= 2.97D-02
 IDIUse=3 WtCom= 9.54D-01 WtEn= 4.65D-02
 Coeff-Com: -0.119D+00 0.245D+00 0.874D+00
 Coeff-En:   0.000D+00 0.000D+00 0.100D+01
 Coeff:     -0.113D+00 0.234D+00 0.880D+00
 Gap=     0.289 Goal=   None    Shift=    0.000
 RMSDP=7.51D-05 MaxDP=4.38D-03 DE=-8.62D-02 OVMax= 2.56D-02

 Cycle   4  Pass 0  IDiag  1:
 RMSU=  5.55D-05    CP:  9.30D-01  1.16D+00  9.24D-01
 E= -155.698538898584     Delta-E=       -0.001687084480 Rises=F Damp=F
 DIIS: error= 2.93D-03 at cycle   4 NSaved=   4.
 NSaved= 4 IEnMin= 4 EnMin= -155.698538898584     IErMin= 4 ErrMin= 2.93D-03
 ErrMax= 2.93D-03  0.00D+00 EMaxC= 1.00D-01 BMatC= 7.32D-04 BMatP= 2.22D-03
 IDIUse=3 WtCom= 9.71D-01 WtEn= 2.93D-02
 Coeff-Com: -0.534D-01 0.881D-01 0.470D+00 0.496D+00
 Coeff-En:   0.000D+00 0.000D+00 0.149D+00 0.851D+00
 Coeff:     -0.519D-01 0.855D-01 0.460D+00 0.506D+00
 Gap=     0.289 Goal=   None    Shift=    0.000
 RMSDP=3.09D-05 MaxDP=1.48D-03 DE=-1.69D-03 OVMax= 9.75D-03

 Cycle   5  Pass 0  IDiag  1:
 RMSU=  1.59D-05    CP:  9.30D-01  1.16D+00  9.71D-01  5.81D-01
 E= -155.699241243552     Delta-E=       -0.000702344968 Rises=F Damp=F
 DIIS: error= 2.51D-04 at cycle   5 NSaved=   5.
 NSaved= 5 IEnMin= 5 EnMin= -155.699241243552     IErMin= 5 ErrMin= 2.51D-04
 ErrMax= 2.51D-04  0.00D+00 EMaxC= 1.00D-01 BMatC= 4.52D-06 BMatP= 7.32D-04
 IDIUse=3 WtCom= 9.97D-01 WtEn= 2.51D-03
 Coeff-Com: -0.293D-02 0.255D-02 0.351D-01 0.917D-01 0.874D+00
 Coeff-En:   0.000D+00 0.000D+00 0.000D+00 0.000D+00 0.100D+01
 Coeff:     -0.292D-02 0.254D-02 0.350D-01 0.915D-01 0.874D+00
 Gap=     0.289 Goal=   None    Shift=    0.000
 RMSDP=4.07D-06 MaxDP=1.27D-04 DE=-7.02D-04 OVMax= 1.22D-03

 Initial convergence to 1.0D-05 achieved.  Increase integral accuracy.
 Cycle   6  Pass 1  IDiag  1:
 E= -155.699269332969     Delta-E=       -0.000028089417 Rises=F Damp=F
 DIIS: error= 5.02D-05 at cycle   1 NSaved=   1.
 NSaved= 1 IEnMin= 1 EnMin= -155.699269332969     IErMin= 1 ErrMin= 5.02D-05
 ErrMax= 5.02D-05  0.00D+00 EMaxC= 1.00D-01 BMatC= 4.63D-07 BMatP= 4.63D-07
 IDIUse=1 WtCom= 1.00D+00 WtEn= 0.00D+00
 Coeff-Com:  0.100D+01
 Coeff:      0.100D+01
 Gap=     0.289 Goal=   None    Shift=    0.000
 RMSDP=4.07D-06 MaxDP=1.27D-04 DE=-2.81D-05 OVMax= 3.35D-04

 Cycle   7  Pass 1  IDiag  1:
 RMSU=  1.52D-05    CP:  1.00D+00
 E= -155.699269655795     Delta-E=       -0.000000322826 Rises=F Damp=F
 DIIS: error= 2.30D-05 at cycle   2 NSaved=   2.
 NSaved= 2 IEnMin= 2 EnMin= -155.699269655795     IErMin= 2 ErrMin= 2.30D-05
 ErrMax= 2.30D-05  0.00D+00 EMaxC= 1.00D-01 BMatC= 5.16D-08 BMatP= 4.63D-07
 IDIUse=1 WtCom= 1.00D+00 WtEn= 0.00D+00
 Coeff-Com:  0.140D+00 0.860D+00
 Coeff:      0.140D+00 0.860D+00
 Gap=     0.289 Goal=   None    Shift=    0.000
 RMSDP=7.40D-07 MaxDP=2.57D-05 DE=-3.23D-07 OVMax= 1.81D-04

 Cycle   8  Pass 1  IDiag  1:
 RMSU=  5.63D-07    CP:  1.00D+00  1.03D+00
 E= -155.699269682317     Delta-E=       -0.000000026522 Rises=F Damp=F
 DIIS: error= 1.59D-05 at cycle   3 NSaved=   3.
 NSaved= 3 IEnMin= 3 EnMin= -155.699269682317     IErMin= 3 ErrMin= 1.59D-05
 ErrMax= 1.59D-05  0.00D+00 EMaxC= 1.00D-01 BMatC= 3.50D-08 BMatP= 5.16D-08
 IDIUse=1 WtCom= 1.00D+00 WtEn= 0.00D+00
 Coeff-Com: -0.178D-01 0.449D+00 0.569D+00
 Coeff:     -0.178D-01 0.449D+00 0.569D+00
 Gap=     0.289 Goal=   None    Shift=    0.000
 RMSDP=2.79D-07 MaxDP=1.42D-05 DE=-2.65D-08 OVMax= 1.04D-04

 Cycle   9  Pass 1  IDiag  1:
 RMSU=  2.38D-07    CP:  1.00D+00  1.04D+00  8.55D-01
 E= -155.699269718050     Delta-E=       -0.000000035733 Rises=F Damp=F
 DIIS: error= 3.02D-06 at cycle   4 NSaved=   4.
 NSaved= 4 IEnMin= 4 EnMin= -155.699269718050     IErMin= 4 ErrMin= 3.02D-06
 ErrMax= 3.02D-06  0.00D+00 EMaxC= 1.00D-01 BMatC= 4.59D-10 BMatP= 3.50D-08
 IDIUse=1 WtCom= 1.00D+00 WtEn= 0.00D+00
 Coeff-Com: -0.104D-01 0.403D-01 0.107D+00 0.863D+00
 Coeff:     -0.104D-01 0.403D-01 0.107D+00 0.863D+00
 Gap=     0.289 Goal=   None    Shift=    0.000
 RMSDP=6.49D-08 MaxDP=2.54D-06 DE=-3.57D-08 OVMax= 1.79D-05

 Cycle  10  Pass 1  IDiag  1:
 RMSU=  4.41D-08    CP:  1.00D+00  1.04D+00  9.18D-01  1.10D+00
 E= -155.699269718876     Delta-E=       -0.000000000826 Rises=F Damp=F
 DIIS: error= 6.97D-07 at cycle   5 NSaved=   5.
 NSaved= 5 IEnMin= 5 EnMin= -155.699269718876     IErMin= 5 ErrMin= 6.97D-07
 ErrMax= 6.97D-07  0.00D+00 EMaxC= 1.00D-01 BMatC= 8.07D-11 BMatP= 4.59D-10
 IDIUse=1 WtCom= 1.00D+00 WtEn= 0.00D+00
 Coeff-Com: -0.542D-03-0.482D-01-0.459D-01 0.254D+00 0.840D+00
 Coeff:     -0.542D-03-0.482D-01-0.459D-01 0.254D+00 0.840D+00
 Gap=     0.289 Goal=   None    Shift=    0.000
 RMSDP=2.51D-08 MaxDP=1.43D-06 DE=-8.26D-10 OVMax= 7.18D-06

 Cycle  11  Pass 1  IDiag  1:
 RMSU=  1.77D-08    CP:  1.00D+00  1.04D+00  9.32D-01  1.17D+00  1.08D+00
 E= -155.699269719011     Delta-E=       -0.000000000134 Rises=F Damp=F
 DIIS: error= 2.53D-07 at cycle   6 NSaved=   6.
 NSaved= 6 IEnMin= 6 EnMin= -155.699269719011     IErMin= 6 ErrMin= 2.53D-07
 ErrMax= 2.53D-07  0.00D+00 EMaxC= 1.00D-01 BMatC= 5.83D-12 BMatP= 8.07D-11
 IDIUse=1 WtCom= 1.00D+00 WtEn= 0.00D+00
 Coeff-Com:  0.632D-03-0.204D-01-0.245D-01 0.249D-01 0.288D+00 0.731D+00
 Coeff:      0.632D-03-0.204D-01-0.245D-01 0.249D-01 0.288D+00 0.731D+00
 Gap=     0.289 Goal=   None    Shift=    0.000
 RMSDP=5.16D-09 MaxDP=1.85D-07 DE=-1.34D-10 OVMax= 1.63D-06

 SCF Done:  E(RB2PLYPD3) =  -155.699269719     A.U. after   11 cycles
            NFock= 11  Conv=0.52D-08     -V/T= 2.0037
 KE= 1.551232210716D+02 PE=-5.694326432916D+02 EE= 1.543535191039D+02
 Leave Link  502 at Wed Aug 26 21:52:13 2020, MaxMem=  2097152000 cpu:      1541.8
 (Enter /opt/cluster/programs/g09/g09_d.01/g09/l801.exe)
 DoSCS=T DFT=T ScalE2(SS,OS)=  0.270000  0.270000
 ExpMin= 7.60D-02 ExpMax= 6.70D+04 ExpMxC= 6.47D+02 IAcc=3 IRadAn=         5 AccDes= 0.00D+00
 HarFok:  IExCor=  205 AccDes= 0.00D+00 IRadAn=         5 IDoV=-2 UseB2=F ITyADJ=14
 ICtDFT= 12500011 ScaDFX=  1.000000  1.000000  1.000000  1.000000
 Largest valence mixing into a core orbital is  1.11D-04
 Largest core mixing into a valence orbital is  1.99D-05
 Range of M.O.s used for correlation:     5   408
 NBasis=   408 NAE=    15 NBE=    15 NFC=     4 NFV=     0
 NROrb=    404 NOA=    11 NOB=    11 NVA=   393 NVB=   393

 **** Warning!!: The largest alpha MO coefficient is  0.27480473D+02

 Leave Link  801 at Wed Aug 26 21:52:13 2020, MaxMem=  2097152000 cpu:         1.0
 (Enter /opt/cluster/programs/g09/g09_d.01/g09/l906.exe)
 DoSCS=T DFT=T ScalE2(SS,OS)=  0.270000  0.270000
 FulOut=F Deriv=F AODrv=F NAtomX=    10
   MMem=         881  MDisk=          11 MDiskD=          11
  W3Min=     2152854 MinDsk=     3857222 NBas6D=         498
 NBas2D=      125763    NTT=      124251    LW2=     4508827
    MDV=  2096382386 MDiskM=        9345 NBas2p=      117467
 Fully direct method using O(OVN) memory.
 IMap=   1   2   3   4   5   6   7   8   9  10  11
 JobTyp=1 Pass  1:  I=   1 to  11 NPSUse=  8 ParTrn=T ParDer=T DoDerP=F.
 Spin components of T(2) and E(2):
     alpha-alpha T2 =       0.4221942439D-01 E2=     -0.2548871796D-01
     alpha-beta  T2 =       0.2732545297D+00 E2=     -0.1751121961D+00
     beta-beta   T2 =       0.4221942439D-01 E2=     -0.2548871796D-01
 The integrals were generated   1 times.
 E2(B2PLYPD3) =    -0.2260896321D+00 E(B2PLYPD3) =    -0.15592535935107D+03
 Leave Link  906 at Wed Aug 26 21:53:54 2020, MaxMem=  2097152000 cpu:       803.8
 (Enter /opt/cluster/programs/g09/g09_d.01/g09/l601.exe)
 Copying SCF densities to generalized density rwf, IOpCl= 0 IROHF=0.

 **********************************************************************

            Population analysis using the SCF density.

 **********************************************************************

 Orbital symmetries:
       Occupied  (A) (A) (A) (A) (A) (A) (A) (A) (A) (A) (A) (A)
                 (A) (A) (A)
       Virtual   (A) (A) (A) (A) (A) (A) (A) (A) (A) (A) (A) (A)
                 (A) (A) (A) (A) (A) (A) (A) (A) (A) (A) (A) (A)
                 (A) (A) (A) (A) (A) (A) (A) (A) (A) (A) (A) (A)
                 (A) (A) (A) (A) (A) (A) (A) (A) (A) (A) (A) (A)
                 (A) (A) (A) (A) (A) (A) (A) (A) (A) (A) (A) (A)
                 (A) (A) (A) (A) (A) (A) (A) (A) (A) (A) (A) (A)
                 (A) (A) (A) (A) (A) (A) (A) (A) (A) (A) (A) (A)
                 (A) (A) (A) (A) (A) (A) (A) (A) (A) (A) (A) (A)
                 (A) (A) (A) (A) (A) (A) (A) (A) (A) (A) (A) (A)
                 (A) (A) (A) (A) (A) (A) (A) (A) (A) (A) (A) (A)
                 (A) (A) (A) (A) (A) (A) (A) (A) (A) (A) (A) (A)
                 (A) (A) (A) (A) (A) (A) (A) (A) (A) (A) (A) (A)
                 (A) (A) (A) (A) (A) (A) (A) (A) (A) (A) (A) (A)
                 (A) (A) (A) (A) (A) (A) (A) (A) (A) (A) (A) (A)
                 (A) (A) (A) (A) (A) (A) (A) (A) (A) (A) (A) (A)
                 (A) (A) (A) (A) (A) (A) (A) (A) (A) (A) (A) (A)
                 (A) (A) (A) (A) (A) (A) (A) (A) (A) (A) (A) (A)
                 (A) (A) (A) (A) (A) (A) (A) (A) (A) (A) (A) (A)
                 (A) (A) (A) (A) (A) (A) (A) (A) (A) (A) (A) (A)
                 (A) (A) (A) (A) (A) (A) (A) (A) (A) (A) (A) (A)
                 (A) (A) (A) (A) (A) (A) (A) (A) (A) (A) (A) (A)
                 (A) (A) (A) (A) (A) (A) (A) (A) (A) (A) (A) (A)
                 (A) (A) (A) (A) (A) (A) (A) (A) (A) (A) (A) (A)
                 (A) (A) (A) (A) (A) (A) (A) (A) (A) (A) (A) (A)
                 (A) (A) (A) (A) (A) (A) (A) (A) (A) (A) (A) (A)
                 (A) (A) (A) (A) (A) (A) (A) (A) (A) (A) (A) (A)
                 (A) (A) (A) (A) (A) (A) (A) (A) (A) (A) (A) (A)
                 (A) (A) (A) (A) (A) (A) (A) (A) (A) (A) (A) (A)
                 (A) (A) (A) (A) (A) (A) (A) (A) (A) (A) (A) (A)
                 (A) (A) (A) (A) (A) (A) (A) (A) (A) (A) (A) (A)
                 (A) (A) (A) (A) (A) (A) (A) (A) (A) (A) (A) (A)
                 (A) (A) (A) (A) (A) (A) (A) (A) (A) (A) (A) (A)
                 (A) (A) (A) (A) (A) (A) (A) (A) (A)
 The electronic state is 1-A.
 Alpha  occ. eigenvalues --  -10.62754 -10.62274 -10.61660 -10.61490  -0.93297
 Alpha  occ. eigenvalues --   -0.84676  -0.70437  -0.64006  -0.54635  -0.53887
 Alpha  occ. eigenvalues --   -0.46570  -0.45544  -0.41249  -0.38334  -0.27425
 Alpha virt. eigenvalues --    0.01485   0.07020   0.07345   0.08027   0.09659
 Alpha virt. eigenvalues --    0.11704   0.12439   0.14818   0.15923   0.16049
 Alpha virt. eigenvalues --    0.18756   0.20550   0.21683   0.22803   0.23607
 Alpha virt. eigenvalues --    0.26774   0.27177   0.29328   0.31753   0.35010
 Alpha virt. eigenvalues --    0.35793   0.36561   0.37700   0.38365   0.40211
 Alpha virt. eigenvalues --    0.42845   0.43900   0.44812   0.47975   0.48502
 Alpha virt. eigenvalues --    0.49050   0.50088   0.51834   0.55783   0.56888
 Alpha virt. eigenvalues --    0.58097   0.59876   0.64525   0.66791   0.68310
 Alpha virt. eigenvalues --    0.69006   0.72761   0.77037   0.77375   0.79355
 Alpha virt. eigenvalues --    0.80192   0.80811   0.81841   0.82314   0.84183
 Alpha virt. eigenvalues --    0.84293   0.85939   0.86362   0.87099   0.90462
 Alpha virt. eigenvalues --    0.92451   0.93380   0.93862   0.95709   0.96350
 Alpha virt. eigenvalues --    0.98869   0.99390   1.00076   1.03109   1.05010
 Alpha virt. eigenvalues --    1.06688   1.08719   1.10673   1.11901   1.13126
 Alpha virt. eigenvalues --    1.13835   1.18580   1.19715   1.21456   1.22801
 Alpha virt. eigenvalues --    1.24211   1.24864   1.34111   1.34686   1.36424
 Alpha virt. eigenvalues --    1.37515   1.41143   1.47130   1.63894   1.65011
 Alpha virt. eigenvalues --    1.66668   1.67367   1.70158   1.72452   1.73189
 Alpha virt. eigenvalues --    1.73908   1.80946   1.82556   1.84241   1.88037
 Alpha virt. eigenvalues --    1.89816   1.90662   1.91588   1.93278   1.94303
 Alpha virt. eigenvalues --    1.95397   1.99241   2.00696   2.01124   2.02595
 Alpha virt. eigenvalues --    2.03529   2.06411   2.07167   2.07991   2.09985
 Alpha virt. eigenvalues --    2.10569   2.11577   2.14286   2.16775   2.17847
 Alpha virt. eigenvalues --    2.19524   2.21857   2.24089   2.26977   2.28254
 Alpha virt. eigenvalues --    2.30462   2.32898   2.33166   2.38052   2.43178
 Alpha virt. eigenvalues --    2.44496   2.45999   2.47631   2.48892   2.50073
 Alpha virt. eigenvalues --    2.52684   2.53647   2.55443   2.57043   2.57205
 Alpha virt. eigenvalues --    2.58859   2.62587   2.63915   2.65046   2.65626
 Alpha virt. eigenvalues --    2.68411   2.69529   2.70329   2.71826   2.71886
 Alpha virt. eigenvalues --    2.73472   2.75338   2.77065   2.77939   2.79710
 Alpha virt. eigenvalues --    2.81267   2.87634   2.91845   2.92579   2.93133
 Alpha virt. eigenvalues --    2.95151   3.03728   3.06098   3.08504   3.09337
 Alpha virt. eigenvalues --    3.11672   3.14233   3.26152   3.34562   3.37467
 Alpha virt. eigenvalues --    3.38972   3.40232   3.42598   3.44685   3.47384
 Alpha virt. eigenvalues --    3.49254   3.50619   3.52512   3.57339   3.57948
 Alpha virt. eigenvalues --    3.60227   3.61590   3.63242   3.70385   3.79345
 Alpha virt. eigenvalues --    3.79982   3.84425   3.86916   3.88459   3.91655
 Alpha virt. eigenvalues --    3.94706   3.95068   3.98882   4.04675   4.15050
 Alpha virt. eigenvalues --    4.16515   4.17148   4.22387   4.23898   4.46821
 Alpha virt. eigenvalues --    4.55651   4.57274   4.61991   4.87366   4.99837
 Alpha virt. eigenvalues --    5.00548   5.02743   5.04789   5.07162   5.07540
 Alpha virt. eigenvalues --    5.12536   5.19142   5.20602   5.28453   5.31084
 Alpha virt. eigenvalues --    5.33658   5.39009   5.45527   5.46268   5.49976
 Alpha virt. eigenvalues --    5.51825   5.54781   5.57796   5.61077   5.63251
 Alpha virt. eigenvalues --    5.65248   5.68814   5.75537   5.77532   5.77937
 Alpha virt. eigenvalues --    5.79047   5.80298   5.81787   5.85522   5.86737
 Alpha virt. eigenvalues --    5.89069   5.91037   6.00454   6.02340   6.04570
 Alpha virt. eigenvalues --    6.06457   6.07169   6.07979   6.10738   6.11940
 Alpha virt. eigenvalues --    6.12488   6.15009   6.16947   6.18446   6.21100
 Alpha virt. eigenvalues --    6.22576   6.23102   6.28005   6.30626   6.33629
 Alpha virt. eigenvalues --    6.34262   6.35794   6.37096   6.38077   6.38714
 Alpha virt. eigenvalues --    6.38836   6.40994   6.42125   6.49601   6.50342
 Alpha virt. eigenvalues --    6.52722   6.53711   6.55665   6.58152   6.63418
 Alpha virt. eigenvalues --    6.64574   6.65114   6.69293   6.72947   6.80769
 Alpha virt. eigenvalues --    6.83355   6.86792   6.88366   6.89671   6.91773
 Alpha virt. eigenvalues --    6.94014   6.94752   6.99599   7.02080   7.10106
 Alpha virt. eigenvalues --    7.13530   7.16867   7.18116   7.20464   7.22291
 Alpha virt. eigenvalues --    7.26000   7.28533   7.34363   7.37027   7.44198
 Alpha virt. eigenvalues --    7.48290   7.51166   7.53463   7.54888   7.59294
 Alpha virt. eigenvalues --    7.62608   7.63738   7.65195   7.66597   7.68033
 Alpha virt. eigenvalues --    7.68993   7.70737   7.75159   7.75628   7.76510
 Alpha virt. eigenvalues --    7.79410   7.81367   7.89021   7.92835   7.93907
 Alpha virt. eigenvalues --    7.94666   7.96403   8.07369   8.11945   8.13055
 Alpha virt. eigenvalues --    8.15125   8.15563   8.20370   8.22409   8.26071
 Alpha virt. eigenvalues --    8.29083   8.32401   8.33650   8.34309   8.36148
 Alpha virt. eigenvalues --    8.37755   8.39704   8.40335   8.42759   8.44293
 Alpha virt. eigenvalues --    8.47636   8.48729   8.54790   8.56599   8.57009
 Alpha virt. eigenvalues --    8.59925   8.60330   8.60617   8.66189   8.70609
 Alpha virt. eigenvalues --    8.74479   8.76285   8.78176   8.79812   8.82805
 Alpha virt. eigenvalues --    8.87733   8.89506   8.93324   9.03248   9.15113
 Alpha virt. eigenvalues --    9.20211   9.21996   9.28536   9.35213   9.44564
 Alpha virt. eigenvalues --    9.57555   9.65467   9.72619   9.82178   9.86456
 Alpha virt. eigenvalues --    9.88320   9.93364   9.94617   9.98194  10.07918
 Alpha virt. eigenvalues --   10.13345  10.17832  10.20877  10.27586  10.29854
 Alpha virt. eigenvalues --   10.35789  10.41062  10.45299  10.69437  10.79479
 Alpha virt. eigenvalues --   11.09392  11.14193  11.48390  11.68134  11.88228
 Alpha virt. eigenvalues --   11.93122  12.84328  13.07401  13.15262  13.19276
 Alpha virt. eigenvalues --   28.60905  28.80015  29.46425  29.68609 148.20187
 Alpha virt. eigenvalues --  148.38245 149.05496 149.29172
          Condensed to atoms (all electrons):
               1          2          3          4          5          6
     1  C    4.843090   0.617545  -0.084246  -0.002639   0.424301   0.426072
     2  C    0.617545   4.833914   0.395395  -0.083189  -0.045748  -0.047544
     3  C   -0.084246   0.395395   4.839034   0.619885   0.007791  -0.007202
     4  C   -0.002639  -0.083189   0.619885   4.848827  -0.000678   0.000222
     5  H    0.424301  -0.045748   0.007791  -0.000678   0.586813  -0.045755
     6  H    0.426072  -0.047544  -0.007202   0.000222  -0.045755   0.594524
     7  H   -0.047081   0.414732  -0.065704  -0.002963  -0.009016   0.007363
     8  H   -0.001615  -0.058007   0.409725  -0.047726  -0.000106   0.004332
     9  H    0.000292  -0.007474  -0.045047   0.424474  -0.000032   0.000040
    10  H   -0.000644   0.007423  -0.045361   0.424552   0.000026  -0.000027
               7          8          9         10
     1  C   -0.047081  -0.001615   0.000292  -0.000644
     2  C    0.414732  -0.058007  -0.007474   0.007423
     3  C   -0.065704   0.409725  -0.045047  -0.045361
     4  C   -0.002963  -0.047726   0.424474   0.424552
     5  H   -0.009016  -0.000106  -0.000032   0.000026
     6  H    0.007363   0.004332   0.000040  -0.000027
     7  H    0.635334   0.007342   0.004830  -0.000016
     8  H    0.007342   0.636108   0.007324  -0.008555
     9  H    0.004830   0.007324   0.595645  -0.045044
    10  H   -0.000016  -0.008555  -0.045044   0.582217
 Mulliken charges:
               1
     1  C   -0.175074
     2  C   -0.027047
     3  C   -0.024271
     4  C   -0.180765
     5  H    0.082402
     6  H    0.067976
     7  H    0.055178
     8  H    0.051179
     9  H    0.064992
    10  H    0.085429
 Sum of Mulliken charges =   0.00000
 Mulliken charges with hydrogens summed into heavy atoms:
               1
     1  C   -0.024696
     2  C    0.028131
     3  C    0.026908
     4  C   -0.030343
 Electronic spatial extent (au):  <R**2>=            332.7322
 Charge=              0.0000 electrons
 Dipole moment (field-independent basis, Debye):
    X=              0.0237    Y=              0.0052    Z=             -0.0692  Tot=              0.0733
 Quadrupole moment (field-independent basis, Debye-Ang):
   XX=            -23.4945   YY=            -23.1320   ZZ=            -29.2757
   XY=             -0.3001   XZ=              0.0051   YZ=             -0.0590
 Traceless Quadrupole moment (field-independent basis, Debye-Ang):
   XX=              1.8062   YY=              2.1687   ZZ=             -3.9750
   XY=             -0.3001   XZ=              0.0051   YZ=             -0.0590
 Octapole moment (field-independent basis, Debye-Ang**2):
  XXX=             -0.1327  YYY=              0.1046  ZZZ=             -0.1370  XYY=              0.1035
  XXY=              0.0771  XXZ=             -0.4811  XZZ=             -0.0429  YZZ=             -0.0388
  YYZ=             -0.0815  XYZ=             -0.4421
 Hexadecapole moment (field-independent basis, Debye-Ang**3):
 XXXX=           -340.8518 YYYY=            -65.4362 ZZZZ=            -36.8624 XXXY=              4.7474
 XXXZ=             -0.4077 YYYX=             -2.3304 YYYZ=             -0.1138 ZZZX=             -0.0019
 ZZZY=             -0.0557 XXYY=            -67.7861 XXZZ=            -76.5905 YYZZ=            -19.2543
 XXYZ=             -0.4858 YYXZ=              0.1963 ZZXY=             -0.5693
 N-N= 1.042566333972D+02 E-N=-5.694326376741D+02  KE= 1.551232210716D+02
 Leave Link  601 at Wed Aug 26 21:53:56 2020, MaxMem=  2097152000 cpu:         0.7
 (Enter /opt/cluster/programs/g09/g09_d.01/g09/l9999.exe)
 1\1\GINC-NODE06\SP\RB2PLYPD3-FC\def2QZVP\C4H6\BOITTIER\26-Aug-2020\0\\
 #p B2PLYPD3/Def2QZVP\\butadiene\\0,1\C,0,-3.834661,0.217588,0.037176\C
 ,0,-2.705224,-0.487383,0.015073\C,0,-1.394482,0.083018,0.0061\C,0,-0.2
 77133,-0.668888,0.044735\H,0,-4.819607,-0.264487,0.01235\H,0,-3.841453
 ,1.287055,0.007112\H,0,-2.70888,-1.56848,0.013378\H,0,-1.295708,1.1899
 01,-0.053175\H,0,-0.315663,-1.744477,0.146099\H,0,0.704203,-0.227075,-
 0.045679\\Version=ES64L-G09RevD.01\State=1-A\HF=-155.6992697\MP2=-155.
 9253594\RMSD=5.164e-09\PG=C01 [X(C4H6)]\\@


 "I COULD HAVE DONE IT IN A MUCH MORE COMPLICATED WAY"
 SAID THE RED QUEEN, IMMENSELY PROUD.

                                      -- LEWIS CARROLL
 Job cpu time:       0 days  0 hours 39 minutes 23.0 seconds.
 File lengths (MBytes):  RWF=     92 Int=      0 D2E=      0 Chk=      9 Scr=      1
 Normal termination of Gaussian 09 at Wed Aug 26 21:53:59 2020.
