 Entering Gaussian System, Link 0=/opt/cluster/programs/g09/g09_d.01/g09//g09
 Input=/home/boittier/MDCM/nms_sampling/butadiene_geom.xyz.dir/energies/butadiene_2621_energy.com
 Output=/scratch/boittier/butadiene_2621_energy/butadiene_2621_energy.out
 Initial command:
 /opt/cluster/programs/g09/g09_d.01/g09/l1.exe "/scratch/boittier/butadiene_2621_energy/Gau-144471.inp" -scrdir="/scratch/boittier/butadiene_2621_energy/"
 Entering Link 1 = /opt/cluster/programs/g09/g09_d.01/g09/l1.exe PID=    144472.
  
 Copyright (c) 1988,1990,1992,1993,1995,1998,2003,2009,2013,
            Gaussian, Inc.  All Rights Reserved.
  
 This is part of the Gaussian(R) 09 program.  It is based on
 the Gaussian(R) 03 system (copyright 2003, Gaussian, Inc.),
 the Gaussian(R) 98 system (copyright 1998, Gaussian, Inc.),
 the Gaussian(R) 94 system (copyright 1995, Gaussian, Inc.),
 the Gaussian 92(TM) system (copyright 1992, Gaussian, Inc.),
 the Gaussian 90(TM) system (copyright 1990, Gaussian, Inc.),
 the Gaussian 88(TM) system (copyright 1988, Gaussian, Inc.),
 the Gaussian 86(TM) system (copyright 1986, Carnegie Mellon
 University), and the Gaussian 82(TM) system (copyright 1983,
 Carnegie Mellon University). Gaussian is a federally registered
 trademark of Gaussian, Inc.
  
 This software contains proprietary and confidential information,
 including trade secrets, belonging to Gaussian, Inc.
  
 This software is provided under written license and may be
 used, copied, transmitted, or stored only in accord with that
 written license.
  
 The following legend is applicable only to US Government
 contracts under FAR:
  
                    RESTRICTED RIGHTS LEGEND
  
 Use, reproduction and disclosure by the US Government is
 subject to restrictions as set forth in subparagraphs (a)
 and (c) of the Commercial Computer Software - Restricted
 Rights clause in FAR 52.227-19.
  
 Gaussian, Inc.
 340 Quinnipiac St., Bldg. 40, Wallingford CT 06492
  
  
 ---------------------------------------------------------------
 Warning -- This program may not be used in any manner that
 competes with the business of Gaussian, Inc. or will provide
 assistance to any competitor of Gaussian, Inc.  The licensee
 of this program is prohibited from giving any competitor of
 Gaussian, Inc. access to this program.  By using this program,
 the user acknowledges that Gaussian, Inc. is engaged in the
 business of creating and licensing software in the field of
 computational chemistry and represents and warrants to the
 licensee that it is not a competitor of Gaussian, Inc. and that
 it will not use this program in any manner prohibited above.
 ---------------------------------------------------------------
  

 Cite this work as:
 Gaussian 09, Revision D.01,
 M. J. Frisch, G. W. Trucks, H. B. Schlegel, G. E. Scuseria, 
 M. A. Robb, J. R. Cheeseman, G. Scalmani, V. Barone, B. Mennucci, 
 G. A. Petersson, H. Nakatsuji, M. Caricato, X. Li, H. P. Hratchian, 
 A. F. Izmaylov, J. Bloino, G. Zheng, J. L. Sonnenberg, M. Hada, 
 M. Ehara, K. Toyota, R. Fukuda, J. Hasegawa, M. Ishida, T. Nakajima, 
 Y. Honda, O. Kitao, H. Nakai, T. Vreven, J. A. Montgomery, Jr., 
 J. E. Peralta, F. Ogliaro, M. Bearpark, J. J. Heyd, E. Brothers, 
 K. N. Kudin, V. N. Staroverov, T. Keith, R. Kobayashi, J. Normand, 
 K. Raghavachari, A. Rendell, J. C. Burant, S. S. Iyengar, J. Tomasi, 
 M. Cossi, N. Rega, J. M. Millam, M. Klene, J. E. Knox, J. B. Cross, 
 V. Bakken, C. Adamo, J. Jaramillo, R. Gomperts, R. E. Stratmann, 
 O. Yazyev, A. J. Austin, R. Cammi, C. Pomelli, J. W. Ochterski, 
 R. L. Martin, K. Morokuma, V. G. Zakrzewski, G. A. Voth, 
 P. Salvador, J. J. Dannenberg, S. Dapprich, A. D. Daniels, 
 O. Farkas, J. B. Foresman, J. V. Ortiz, J. Cioslowski, 
 and D. J. Fox, Gaussian, Inc., Wallingford CT, 2013.
 
 ******************************************
 Gaussian 09:  ES64L-G09RevD.01 24-Apr-2013
                26-Aug-2020 
 ******************************************
 %chk=/home/boittier/MDCM/nms_sampling/butadiene_geom.xyz.dir/butadiene_2621.chk
 %nproc=8
 Will use up to    8 processors via shared memory.
 %mem=16000MB
 --------------------
 #p B2PLYPD3/Def2QZVP
 --------------------
 1/38=1/1;
 2/12=2,17=6,18=5,40=1/2;
 3/5=45,7=101,11=9,16=1,25=1,30=1,74=-60/1,2,3;
 4//1;
 5/5=2,38=5/2;
 8/10=1/1;
 9/16=-3/6;
 6/7=2,8=2,9=2,10=2/1;
 99/5=1,9=1/99;
 Leave Link    1 at Wed Aug 26 14:54:28 2020, MaxMem=  2097152000 cpu:         0.5
 (Enter /opt/cluster/programs/g09/g09_d.01/g09/l101.exe)
 ---------
 butadiene
 ---------
 Symbolic Z-matrix:
 Charge =  0 Multiplicity = 1
 C                    -3.8561    0.19644  -0.00208 
 C                    -2.69341  -0.44953   0.0669 
 C                    -1.37251   0.10897   0.03431 
 C                    -0.26315  -0.70218  -0.00385 
 H                    -4.80615  -0.34514   0.00303 
 H                    -4.11669   1.27844  -0.07817 
 H                    -2.78877  -1.58098   0.17784 
 H                    -1.32816   1.21241  -0.01413 
 H                    -0.347    -1.72823  -0.06669 
 H                     0.77026  -0.26426   0.20333 
 
 NAtoms=     10 NQM=       10 NQMF=       0 NMMI=      0 NMMIF=      0
                NMic=       0 NMicF=      0.
                    Isotopes and Nuclear Properties:
 (Nuclear quadrupole moments (NQMom) in fm**2, nuclear magnetic moments (NMagM)
  in nuclear magnetons)

  Atom         1           2           3           4           5           6           7           8           9          10
 IAtWgt=          12          12          12          12           1           1           1           1           1           1
 AtmWgt=  12.0000000  12.0000000  12.0000000  12.0000000   1.0078250   1.0078250   1.0078250   1.0078250   1.0078250   1.0078250
 NucSpn=           0           0           0           0           1           1           1           1           1           1
 AtZEff=   0.0000000   0.0000000   0.0000000   0.0000000   0.0000000   0.0000000   0.0000000   0.0000000   0.0000000   0.0000000
 NQMom=    0.0000000   0.0000000   0.0000000   0.0000000   0.0000000   0.0000000   0.0000000   0.0000000   0.0000000   0.0000000
 NMagM=    0.0000000   0.0000000   0.0000000   0.0000000   2.7928460   2.7928460   2.7928460   2.7928460   2.7928460   2.7928460
 AtZNuc=   6.0000000   6.0000000   6.0000000   6.0000000   1.0000000   1.0000000   1.0000000   1.0000000   1.0000000   1.0000000
 Leave Link  101 at Wed Aug 26 14:54:28 2020, MaxMem=  2097152000 cpu:         0.6
 (Enter /opt/cluster/programs/g09/g09_d.01/g09/l202.exe)
                          Input orientation:                          
 ---------------------------------------------------------------------
 Center     Atomic      Atomic             Coordinates (Angstroms)
 Number     Number       Type             X           Y           Z
 ---------------------------------------------------------------------
      1          6           0       -3.856101    0.196435   -0.002076
      2          6           0       -2.693410   -0.449527    0.066895
      3          6           0       -1.372508    0.108965    0.034309
      4          6           0       -0.263150   -0.702184   -0.003853
      5          1           0       -4.806153   -0.345136    0.003031
      6          1           0       -4.116692    1.278444   -0.078168
      7          1           0       -2.788769   -1.580980    0.177841
      8          1           0       -1.328155    1.212405   -0.014127
      9          1           0       -0.347000   -1.728234   -0.066694
     10          1           0        0.770259   -0.264255    0.203330
 ---------------------------------------------------------------------
                    Distance matrix (angstroms):
                    1          2          3          4          5
     1  C    0.000000
     2  C    1.331869   0.000000
     3  C    2.485399   1.434488   0.000000
     4  C    3.703622   2.444382   1.374807   0.000000
     5  H    1.093583   2.116284   3.463684   4.557017   0.000000
     6  H    1.115545   2.243359   2.985109   4.333382   1.765775
     7  H    2.081051   1.140872   2.209595   2.680307   2.372279
     8  H    2.724491   2.152325   1.105393   2.190888   3.810866
     9  H    4.002789   2.675552   2.106459   1.031387   4.669247
    10  H    4.653776   3.471303   2.181585   1.141333   5.580594
                    6          7          8          9         10
     6  H    0.000000
     7  H    3.163104   0.000000
     8  H    2.790054   3.158044   0.000000
     9  H    4.821911   2.458397   3.100449   0.000000
    10  H    5.132392   3.794877   2.575103   1.861294   0.000000
 Stoichiometry    C4H6
 Framework group  C1[X(C4H6)]
 Deg. of freedom    24
 Full point group                 C1      NOp   1
 Largest Abelian subgroup         C1      NOp   1
 Largest concise Abelian subgroup C1      NOp   1
                         Standard orientation:                         
 ---------------------------------------------------------------------
 Center     Atomic      Atomic             Coordinates (Angstroms)
 Number     Number       Type             X           Y           Z
 ---------------------------------------------------------------------
      1          6           0       -1.844009    0.075189   -0.016431
      2          6           0       -0.581820   -0.346840    0.035002
      3          6           0        0.613330    0.446248    0.015384
      4          6           0        1.852941   -0.145260   -0.044431
      5          1           0       -2.677939   -0.632218   -0.024201
      6          1           0       -2.299961    1.092152   -0.064744
      7          1           0       -0.466407   -1.478877    0.117236
      8          1           0        0.453299    1.539805   -0.005024
      9          1           0        1.959265   -1.167298   -0.133259
     10          1           0        2.789090    0.470415    0.172847
 ---------------------------------------------------------------------
 Rotational constants (GHZ):     41.9158530      4.3798760      3.9723612
 Leave Link  202 at Wed Aug 26 14:54:32 2020, MaxMem=  2097152000 cpu:         0.4
 (Enter /opt/cluster/programs/g09/g09_d.01/g09/l301.exe)
 Standard basis: def2QZVP (5D, 7F)
 Ernie: Thresh=  0.10000D-02 Tol=  0.10000D-05 Strict=F.
 There are   498 symmetry adapted cartesian basis functions of A   symmetry.
 There are   408 symmetry adapted basis functions of A   symmetry.
   408 basis functions,   596 primitive gaussians,   498 cartesian basis functions
    15 alpha electrons       15 beta electrons
       nuclear repulsion energy       103.0321442454 Hartrees.
 IExCor=  419 DFT=T Ex+Corr=B2PLYPD3 ExCW=0 ScaHFX=  0.530000
 ScaDFX=  0.470000  0.470000  0.730000  0.730000 ScalE2=  0.270000  0.270000
 IRadAn=      0 IRanWt=     -1 IRanGd=            0 ICorTp=0 IEmpDi=141
 NAtoms=   10 NActive=   10 NUniq=   10 SFac= 1.00D+00 NAtFMM=   60 NAOKFM=F Big=F
 Integral buffers will be    131072 words long.
 Regular integral format.
 Two-electron integral symmetry is turned on.
 R6Disp:  Grimme-D3(BJ) Dispersion energy=       -0.0047888295 Hartrees.
 Nuclear repulsion after empirical dispersion term =      103.0273554159 Hartrees.
 Leave Link  301 at Wed Aug 26 14:54:33 2020, MaxMem=  2097152000 cpu:         0.4
 (Enter /opt/cluster/programs/g09/g09_d.01/g09/l302.exe)
 NPDir=0 NMtPBC=     1 NCelOv=     1 NCel=       1 NClECP=     1 NCelD=      1
         NCelK=      1 NCelE2=     1 NClLst=     1 CellRange=     0.0.
 One-electron integrals computed using PRISM.
   1 Symmetry operations used in ECPInt.
 ECPInt:  NShTT=    8256 NPrTT=   19107 LenC2=    8051 LenP2D=   16058.
 LDataN:  DoStor=T MaxTD1= 8 Len=  415
 NBasis=   408 RedAO= T EigKep=  4.86D-05  NBF=   408
 NBsUse=   408 1.00D-06 EigRej= -1.00D+00 NBFU=   408
 Precomputing XC quadrature grid using
 IXCGrd= 4 IRadAn=           0 IRanWt=          -1 IRanGd=           0 AccXCQ= 0.00D+00.
 Generated NRdTot=       0 NPtTot=           0 NUsed=           0 NTot=          32
 NSgBfM=   498   498   498   498   498 MxSgAt=    10 MxSgA2=    10.
 Leave Link  302 at Wed Aug 26 14:54:34 2020, MaxMem=  2097152000 cpu:         3.6
 (Enter /opt/cluster/programs/g09/g09_d.01/g09/l303.exe)
 DipDrv:  MaxL=1.
 Leave Link  303 at Wed Aug 26 14:54:35 2020, MaxMem=  2097152000 cpu:         0.4
 (Enter /opt/cluster/programs/g09/g09_d.01/g09/l401.exe)
 ExpMin= 7.60D-02 ExpMax= 6.70D+04 ExpMxC= 6.47D+02 IAcc=2 IRadAn=         4 AccDes= 0.00D+00
 Harris functional with IExCor=  419 and IRadAn=       4 diagonalized for initial guess.
 HarFok:  IExCor=  419 AccDes= 0.00D+00 IRadAn=         4 IDoV= 1 UseB2=F ITyADJ=14
 ICtDFT=  3500011 ScaDFX=  1.000000  1.000000  1.000000  1.000000
 FoFCou: FMM=F IPFlag=           0 FMFlag=      100000 FMFlg1=           0
         NFxFlg=           0 DoJE=T BraDBF=F KetDBF=T FulRan=T
         wScrn=  0.000000 ICntrl=     500 IOpCl=  0 I1Cent=   200000004 NGrid=           0
         NMat0=    1 NMatS0=      1 NMatT0=    0 NMatD0=    1 NMtDS0=    0 NMtDT0=    0
 Petite list used in FoFCou.
 Harris En= -156.110200502912    
 JPrj=0 DoOrth=F DoCkMO=F.
 Leave Link  401 at Wed Aug 26 14:54:37 2020, MaxMem=  2097152000 cpu:         9.3
 (Enter /opt/cluster/programs/g09/g09_d.01/g09/l502.exe)
 Closed shell SCF:
 Using DIIS extrapolation, IDIIS=  1040.
 Integral symmetry usage will be decided dynamically.
 IVT=      770090 IEndB=      770090 NGot=  2097152000 MDV=  2096647053
 LenX=  2096647053 LenY=  2096398551
 Requested convergence on RMS density matrix=1.00D-08 within 128 cycles.
 Requested convergence on MAX density matrix=1.00D-06.
 Requested convergence on             energy=1.00D-06.
 No special actions if energy rises.
 Fock matrices will be formed incrementally for  20 cycles.
 Integral accuracy reduced to 1.0D-05 until final iterations.

 Cycle   1  Pass 0  IDiag  1:
 FoFJK:  IHMeth= 1 ICntrl=       0 DoSepK=F KAlg= 0 I1Cent=   0 FoldK=F
 IRaf= 940000000 NMat=   1 IRICut=       1 DoRegI=T DoRafI=F ISym2E= 0.
 FoFCou: FMM=F IPFlag=           0 FMFlag=      100000 FMFlg1=           0
         NFxFlg=           0 DoJE=F BraDBF=F KetDBF=F FulRan=T
         wScrn=  0.000000 ICntrl=       0 IOpCl=  0 I1Cent=           0 NGrid=           0
         NMat0=    1 NMatS0=      1 NMatT0=    0 NMatD0=    1 NMtDS0=    0 NMtDT0=    0
 Symmetry not used in FoFCou.
 E= -155.504443466206    
 DIIS: error= 3.28D-02 at cycle   1 NSaved=   1.
 NSaved= 1 IEnMin= 1 EnMin= -155.504443466206     IErMin= 1 ErrMin= 3.28D-02
 ErrMax= 3.28D-02  0.00D+00 EMaxC= 1.00D-01 BMatC= 2.42D-01 BMatP= 2.42D-01
 IDIUse=3 WtCom= 6.72D-01 WtEn= 3.28D-01
 Coeff-Com:  0.100D+01
 Coeff-En:   0.100D+01
 Coeff:      0.100D+01
 Gap=     0.285 Goal=   None    Shift=    0.000
 GapD=    0.285 DampG=1.000 DampE=0.500 DampFc=0.5000 IDamp=-1.
 Damping current iteration by 5.00D-01
 RMSDP=9.67D-04 MaxDP=5.28D-02              OVMax= 1.91D-01

 Cycle   2  Pass 0  IDiag  1:
 RMSU=  4.47D-04    CP:  9.52D-01
 E= -155.598718688648     Delta-E=       -0.094275222443 Rises=F Damp=T
 DIIS: error= 9.77D-03 at cycle   2 NSaved=   2.
 NSaved= 2 IEnMin= 2 EnMin= -155.598718688648     IErMin= 2 ErrMin= 9.77D-03
 ErrMax= 9.77D-03  0.00D+00 EMaxC= 1.00D-01 BMatC= 2.90D-02 BMatP= 2.42D-01
 IDIUse=3 WtCom= 9.02D-01 WtEn= 9.77D-02
 Coeff-Com: -0.292D+00 0.129D+01
 Coeff-En:   0.000D+00 0.100D+01
 Coeff:     -0.264D+00 0.126D+01
 Gap=     0.350 Goal=   None    Shift=    0.000
 RMSDP=2.87D-04 MaxDP=8.02D-03 DE=-9.43D-02 OVMax= 9.49D-02

 Cycle   3  Pass 0  IDiag  1:
 RMSU=  2.79D-04    CP:  9.35D-01  9.96D-01
 E= -155.680702037093     Delta-E=       -0.081983348445 Rises=F Damp=F
 DIIS: error= 4.33D-03 at cycle   3 NSaved=   3.
 NSaved= 3 IEnMin= 3 EnMin= -155.680702037093     IErMin= 3 ErrMin= 4.33D-03
 ErrMax= 4.33D-03  0.00D+00 EMaxC= 1.00D-01 BMatC= 2.25D-03 BMatP= 2.90D-02
 IDIUse=3 WtCom= 9.57D-01 WtEn= 4.33D-02
 Coeff-Com: -0.123D+00 0.250D+00 0.873D+00
 Coeff-En:   0.000D+00 0.000D+00 0.100D+01
 Coeff:     -0.117D+00 0.239D+00 0.878D+00
 Gap=     0.280 Goal=   None    Shift=    0.000
 RMSDP=7.74D-05 MaxDP=4.92D-03 DE=-8.20D-02 OVMax= 2.49D-02

 Cycle   4  Pass 0  IDiag  1:
 RMSU=  5.62D-05    CP:  9.31D-01  1.10D+00  9.31D-01
 E= -155.682467201105     Delta-E=       -0.001765164012 Rises=F Damp=F
 DIIS: error= 2.99D-03 at cycle   4 NSaved=   4.
 NSaved= 4 IEnMin= 4 EnMin= -155.682467201105     IErMin= 4 ErrMin= 2.99D-03
 ErrMax= 2.99D-03  0.00D+00 EMaxC= 1.00D-01 BMatC= 7.12D-04 BMatP= 2.25D-03
 IDIUse=3 WtCom= 9.70D-01 WtEn= 2.99D-02
 Coeff-Com: -0.564D-01 0.940D-01 0.472D+00 0.491D+00
 Coeff-En:   0.000D+00 0.000D+00 0.136D+00 0.864D+00
 Coeff:     -0.547D-01 0.911D-01 0.462D+00 0.502D+00
 Gap=     0.280 Goal=   None    Shift=    0.000
 RMSDP=3.20D-05 MaxDP=1.53D-03 DE=-1.77D-03 OVMax= 9.90D-03

 Cycle   5  Pass 0  IDiag  1:
 RMSU=  1.70D-05    CP:  9.31D-01  1.09D+00  9.79D-01  5.90D-01
 E= -155.683161366961     Delta-E=       -0.000694165856 Rises=F Damp=F
 DIIS: error= 3.23D-04 at cycle   5 NSaved=   5.
 NSaved= 5 IEnMin= 5 EnMin= -155.683161366961     IErMin= 5 ErrMin= 3.23D-04
 ErrMax= 3.23D-04  0.00D+00 EMaxC= 1.00D-01 BMatC= 6.49D-06 BMatP= 7.12D-04
 IDIUse=3 WtCom= 9.97D-01 WtEn= 3.23D-03
 Coeff-Com: -0.491D-02 0.576D-02 0.514D-01 0.114D+00 0.834D+00
 Coeff-En:   0.000D+00 0.000D+00 0.000D+00 0.000D+00 0.100D+01
 Coeff:     -0.490D-02 0.574D-02 0.512D-01 0.114D+00 0.834D+00
 Gap=     0.281 Goal=   None    Shift=    0.000
 RMSDP=4.99D-06 MaxDP=1.90D-04 DE=-6.94D-04 OVMax= 1.38D-03

 Initial convergence to 1.0D-05 achieved.  Increase integral accuracy.
 Cycle   6  Pass 1  IDiag  1:
 E= -155.683171405212     Delta-E=       -0.000010038252 Rises=F Damp=F
 DIIS: error= 5.83D-05 at cycle   1 NSaved=   1.
 NSaved= 1 IEnMin= 1 EnMin= -155.683171405212     IErMin= 1 ErrMin= 5.83D-05
 ErrMax= 5.83D-05  0.00D+00 EMaxC= 1.00D-01 BMatC= 8.02D-07 BMatP= 8.02D-07
 IDIUse=1 WtCom= 1.00D+00 WtEn= 0.00D+00
 Coeff-Com:  0.100D+01
 Coeff:      0.100D+01
 Gap=     0.281 Goal=   None    Shift=    0.000
 RMSDP=4.99D-06 MaxDP=1.90D-04 DE=-1.00D-05 OVMax= 5.96D-04

 Cycle   7  Pass 1  IDiag  1:
 RMSU=  1.71D-05    CP:  1.00D+00
 E= -155.683171733914     Delta-E=       -0.000000328701 Rises=F Damp=F
 DIIS: error= 5.52D-05 at cycle   2 NSaved=   2.
 NSaved= 2 IEnMin= 2 EnMin= -155.683171733914     IErMin= 2 ErrMin= 5.52D-05
 ErrMax= 5.52D-05  0.00D+00 EMaxC= 1.00D-01 BMatC= 4.69D-07 BMatP= 8.02D-07
 IDIUse=1 WtCom= 1.00D+00 WtEn= 0.00D+00
 Coeff-Com:  0.421D+00 0.579D+00
 Coeff:      0.421D+00 0.579D+00
 Gap=     0.281 Goal=   None    Shift=    0.000
 RMSDP=1.10D-06 MaxDP=4.69D-05 DE=-3.29D-07 OVMax= 3.56D-04

 Cycle   8  Pass 1  IDiag  1:
 RMSU=  9.98D-07    CP:  1.00D+00  1.03D+00
 E= -155.683172158416     Delta-E=       -0.000000424502 Rises=F Damp=F
 DIIS: error= 1.93D-05 at cycle   3 NSaved=   3.
 NSaved= 3 IEnMin= 3 EnMin= -155.683172158416     IErMin= 3 ErrMin= 1.93D-05
 ErrMax= 1.93D-05  0.00D+00 EMaxC= 1.00D-01 BMatC= 3.03D-08 BMatP= 4.69D-07
 IDIUse=1 WtCom= 1.00D+00 WtEn= 0.00D+00
 Coeff-Com:  0.647D-02 0.189D+00 0.805D+00
 Coeff:      0.647D-02 0.189D+00 0.805D+00
 Gap=     0.281 Goal=   None    Shift=    0.000
 RMSDP=6.16D-07 MaxDP=2.30D-05 DE=-4.25D-07 OVMax= 1.26D-04

 Cycle   9  Pass 1  IDiag  1:
 RMSU=  4.18D-07    CP:  1.00D+00  1.05D+00  9.89D-01
 E= -155.683172190290     Delta-E=       -0.000000031874 Rises=F Damp=F
 DIIS: error= 5.36D-06 at cycle   4 NSaved=   4.
 NSaved= 4 IEnMin= 4 EnMin= -155.683172190290     IErMin= 4 ErrMin= 5.36D-06
 ErrMax= 5.36D-06  0.00D+00 EMaxC= 1.00D-01 BMatC= 3.88D-09 BMatP= 3.03D-08
 IDIUse=1 WtCom= 1.00D+00 WtEn= 0.00D+00
 Coeff-Com: -0.235D-01 0.495D-01 0.362D+00 0.612D+00
 Coeff:     -0.235D-01 0.495D-01 0.362D+00 0.612D+00
 Gap=     0.281 Goal=   None    Shift=    0.000
 RMSDP=1.33D-07 MaxDP=4.88D-06 DE=-3.19D-08 OVMax= 3.13D-05

 Cycle  10  Pass 1  IDiag  1:
 RMSU=  9.60D-08    CP:  1.00D+00  1.06D+00  1.04D+00  1.07D+00
 E= -155.683172194955     Delta-E=       -0.000000004665 Rises=F Damp=F
 DIIS: error= 1.08D-06 at cycle   5 NSaved=   5.
 NSaved= 5 IEnMin= 5 EnMin= -155.683172194955     IErMin= 5 ErrMin= 1.08D-06
 ErrMax= 1.08D-06  0.00D+00 EMaxC= 1.00D-01 BMatC= 1.17D-10 BMatP= 3.88D-09
 IDIUse=1 WtCom= 1.00D+00 WtEn= 0.00D+00
 Coeff-Com: -0.149D-02-0.186D-01-0.832D-01 0.336D-01 0.107D+01
 Coeff:     -0.149D-02-0.186D-01-0.832D-01 0.336D-01 0.107D+01
 Gap=     0.281 Goal=   None    Shift=    0.000
 RMSDP=5.42D-08 MaxDP=1.66D-06 DE=-4.67D-09 OVMax= 1.41D-05

 Cycle  11  Pass 1  IDiag  1:
 RMSU=  2.71D-08    CP:  1.00D+00  1.06D+00  1.05D+00  1.17D+00  1.12D+00
 E= -155.683172195256     Delta-E=       -0.000000000300 Rises=F Damp=F
 DIIS: error= 4.70D-07 at cycle   6 NSaved=   6.
 NSaved= 6 IEnMin= 6 EnMin= -155.683172195256     IErMin= 6 ErrMin= 4.70D-07
 ErrMax= 4.70D-07  0.00D+00 EMaxC= 1.00D-01 BMatC= 1.27D-11 BMatP= 1.17D-10
 IDIUse=1 WtCom= 1.00D+00 WtEn= 0.00D+00
 Coeff-Com:  0.678D-03-0.920D-02-0.493D-01-0.186D-01 0.384D+00 0.693D+00
 Coeff:      0.678D-03-0.920D-02-0.493D-01-0.186D-01 0.384D+00 0.693D+00
 Gap=     0.281 Goal=   None    Shift=    0.000
 RMSDP=8.70D-09 MaxDP=3.79D-07 DE=-3.00D-10 OVMax= 2.91D-06

 SCF Done:  E(RB2PLYPD3) =  -155.683172195     A.U. after   11 cycles
            NFock= 11  Conv=0.87D-08     -V/T= 2.0051
 KE= 1.548934718358D+02 PE=-5.667470194652D+02 EE= 1.531430200182D+02
 Leave Link  502 at Wed Aug 26 14:57:44 2020, MaxMem=  2097152000 cpu:      1492.5
 (Enter /opt/cluster/programs/g09/g09_d.01/g09/l801.exe)
 DoSCS=T DFT=T ScalE2(SS,OS)=  0.270000  0.270000
 ExpMin= 7.60D-02 ExpMax= 6.70D+04 ExpMxC= 6.47D+02 IAcc=3 IRadAn=         5 AccDes= 0.00D+00
 HarFok:  IExCor=  205 AccDes= 0.00D+00 IRadAn=         5 IDoV=-2 UseB2=F ITyADJ=14
 ICtDFT= 12500011 ScaDFX=  1.000000  1.000000  1.000000  1.000000
 Largest valence mixing into a core orbital is  1.12D-04
 Largest core mixing into a valence orbital is  2.07D-05
 Range of M.O.s used for correlation:     5   408
 NBasis=   408 NAE=    15 NBE=    15 NFC=     4 NFV=     0
 NROrb=    404 NOA=    11 NOB=    11 NVA=   393 NVB=   393

 **** Warning!!: The largest alpha MO coefficient is  0.35599540D+02

 Leave Link  801 at Wed Aug 26 14:57:44 2020, MaxMem=  2097152000 cpu:         1.0
 (Enter /opt/cluster/programs/g09/g09_d.01/g09/l906.exe)
 DoSCS=T DFT=T ScalE2(SS,OS)=  0.270000  0.270000
 FulOut=F Deriv=F AODrv=F NAtomX=    10
   MMem=         881  MDisk=          11 MDiskD=          11
  W3Min=     2152854 MinDsk=     3857222 NBas6D=         498
 NBas2D=      125763    NTT=      124251    LW2=     4508827
    MDV=  2096385648 MDiskM=        9345 NBas2p=      116802
 Fully direct method using O(OVN) memory.
 IMap=   1   2   3   4   5   6   7   8   9  10  11
 JobTyp=1 Pass  1:  I=   1 to  11 NPSUse=  8 ParTrn=T ParDer=T DoDerP=F.
 Spin components of T(2) and E(2):
     alpha-alpha T2 =       0.4323497146D-01 E2=     -0.2563691863D-01
     alpha-beta  T2 =       0.2818118093D+00 E2=     -0.1764271155D+00
     beta-beta   T2 =       0.4323497146D-01 E2=     -0.2563691863D-01
 The integrals were generated   1 times.
 E2(B2PLYPD3) =    -0.2277009528D+00 E(B2PLYPD3) =    -0.15591087314806D+03
 Leave Link  906 at Wed Aug 26 14:59:28 2020, MaxMem=  2097152000 cpu:       825.6
 (Enter /opt/cluster/programs/g09/g09_d.01/g09/l601.exe)
 Copying SCF densities to generalized density rwf, IOpCl= 0 IROHF=0.

 **********************************************************************

            Population analysis using the SCF density.

 **********************************************************************

 Orbital symmetries:
       Occupied  (A) (A) (A) (A) (A) (A) (A) (A) (A) (A) (A) (A)
                 (A) (A) (A)
       Virtual   (A) (A) (A) (A) (A) (A) (A) (A) (A) (A) (A) (A)
                 (A) (A) (A) (A) (A) (A) (A) (A) (A) (A) (A) (A)
                 (A) (A) (A) (A) (A) (A) (A) (A) (A) (A) (A) (A)
                 (A) (A) (A) (A) (A) (A) (A) (A) (A) (A) (A) (A)
                 (A) (A) (A) (A) (A) (A) (A) (A) (A) (A) (A) (A)
                 (A) (A) (A) (A) (A) (A) (A) (A) (A) (A) (A) (A)
                 (A) (A) (A) (A) (A) (A) (A) (A) (A) (A) (A) (A)
                 (A) (A) (A) (A) (A) (A) (A) (A) (A) (A) (A) (A)
                 (A) (A) (A) (A) (A) (A) (A) (A) (A) (A) (A) (A)
                 (A) (A) (A) (A) (A) (A) (A) (A) (A) (A) (A) (A)
                 (A) (A) (A) (A) (A) (A) (A) (A) (A) (A) (A) (A)
                 (A) (A) (A) (A) (A) (A) (A) (A) (A) (A) (A) (A)
                 (A) (A) (A) (A) (A) (A) (A) (A) (A) (A) (A) (A)
                 (A) (A) (A) (A) (A) (A) (A) (A) (A) (A) (A) (A)
                 (A) (A) (A) (A) (A) (A) (A) (A) (A) (A) (A) (A)
                 (A) (A) (A) (A) (A) (A) (A) (A) (A) (A) (A) (A)
                 (A) (A) (A) (A) (A) (A) (A) (A) (A) (A) (A) (A)
                 (A) (A) (A) (A) (A) (A) (A) (A) (A) (A) (A) (A)
                 (A) (A) (A) (A) (A) (A) (A) (A) (A) (A) (A) (A)
                 (A) (A) (A) (A) (A) (A) (A) (A) (A) (A) (A) (A)
                 (A) (A) (A) (A) (A) (A) (A) (A) (A) (A) (A) (A)
                 (A) (A) (A) (A) (A) (A) (A) (A) (A) (A) (A) (A)
                 (A) (A) (A) (A) (A) (A) (A) (A) (A) (A) (A) (A)
                 (A) (A) (A) (A) (A) (A) (A) (A) (A) (A) (A) (A)
                 (A) (A) (A) (A) (A) (A) (A) (A) (A) (A) (A) (A)
                 (A) (A) (A) (A) (A) (A) (A) (A) (A) (A) (A) (A)
                 (A) (A) (A) (A) (A) (A) (A) (A) (A) (A) (A) (A)
                 (A) (A) (A) (A) (A) (A) (A) (A) (A) (A) (A) (A)
                 (A) (A) (A) (A) (A) (A) (A) (A) (A) (A) (A) (A)
                 (A) (A) (A) (A) (A) (A) (A) (A) (A) (A) (A) (A)
                 (A) (A) (A) (A) (A) (A) (A) (A) (A) (A) (A) (A)
                 (A) (A) (A) (A) (A) (A) (A) (A) (A) (A) (A) (A)
                 (A) (A) (A) (A) (A) (A) (A) (A) (A)
 The electronic state is 1-A.
 Alpha  occ. eigenvalues --  -10.63514 -10.63122 -10.62449 -10.62003  -0.92789
 Alpha  occ. eigenvalues --   -0.84320  -0.70614  -0.63555  -0.54464  -0.53426
 Alpha  occ. eigenvalues --   -0.46269  -0.45415  -0.40340  -0.37980  -0.27251
 Alpha virt. eigenvalues --    0.00831   0.06851   0.07326   0.07772   0.09533
 Alpha virt. eigenvalues --    0.11287   0.12412   0.14808   0.15704   0.16216
 Alpha virt. eigenvalues --    0.18885   0.19696   0.21758   0.22377   0.23885
 Alpha virt. eigenvalues --    0.26308   0.27067   0.28954   0.30891   0.33611
 Alpha virt. eigenvalues --    0.34476   0.35307   0.36375   0.37399   0.40308
 Alpha virt. eigenvalues --    0.42466   0.44202   0.44693   0.46500   0.47030
 Alpha virt. eigenvalues --    0.49641   0.50912   0.54104   0.54523   0.55858
 Alpha virt. eigenvalues --    0.58182   0.59956   0.64107   0.66408   0.67592
 Alpha virt. eigenvalues --    0.69272   0.72364   0.76299   0.76854   0.79203
 Alpha virt. eigenvalues --    0.80413   0.80715   0.81577   0.82216   0.83921
 Alpha virt. eigenvalues --    0.84160   0.85960   0.86922   0.87875   0.88235
 Alpha virt. eigenvalues --    0.92012   0.92895   0.93572   0.94548   0.96095
 Alpha virt. eigenvalues --    0.98081   0.98528   0.99607   1.02937   1.03841
 Alpha virt. eigenvalues --    1.05764   1.07449   1.10738   1.11207   1.13104
 Alpha virt. eigenvalues --    1.14671   1.16446   1.18528   1.20564   1.20847
 Alpha virt. eigenvalues --    1.24212   1.25361   1.31378   1.33615   1.35586
 Alpha virt. eigenvalues --    1.37268   1.41156   1.45652   1.57448   1.61737
 Alpha virt. eigenvalues --    1.62910   1.64481   1.68387   1.69060   1.72540
 Alpha virt. eigenvalues --    1.75677   1.82503   1.83643   1.85224   1.88700
 Alpha virt. eigenvalues --    1.89291   1.91037   1.92211   1.93670   1.95335
 Alpha virt. eigenvalues --    1.95745   1.98216   2.01205   2.01754   2.02545
 Alpha virt. eigenvalues --    2.03952   2.05787   2.06900   2.08563   2.09040
 Alpha virt. eigenvalues --    2.10210   2.10951   2.14148   2.14759   2.18468
 Alpha virt. eigenvalues --    2.20183   2.23760   2.24752   2.26372   2.27386
 Alpha virt. eigenvalues --    2.28827   2.31939   2.33049   2.35277   2.41692
 Alpha virt. eigenvalues --    2.43780   2.44631   2.46729   2.49290   2.49468
 Alpha virt. eigenvalues --    2.50030   2.51150   2.53264   2.53840   2.57091
 Alpha virt. eigenvalues --    2.59661   2.60874   2.61833   2.62853   2.64063
 Alpha virt. eigenvalues --    2.66070   2.66873   2.68964   2.70558   2.73376
 Alpha virt. eigenvalues --    2.73988   2.75119   2.76856   2.77732   2.78718
 Alpha virt. eigenvalues --    2.83862   2.86837   2.87631   2.90733   2.92434
 Alpha virt. eigenvalues --    2.93453   2.99278   3.04568   3.05610   3.06642
 Alpha virt. eigenvalues --    3.08024   3.09495   3.23308   3.28018   3.29675
 Alpha virt. eigenvalues --    3.32582   3.32843   3.40316   3.41011   3.44427
 Alpha virt. eigenvalues --    3.46302   3.48441   3.49203   3.51730   3.53508
 Alpha virt. eigenvalues --    3.58165   3.58419   3.62178   3.64489   3.77805
 Alpha virt. eigenvalues --    3.79627   3.81390   3.83532   3.85124   3.88281
 Alpha virt. eigenvalues --    3.90374   3.90859   3.98014   4.03121   4.07351
 Alpha virt. eigenvalues --    4.12757   4.16668   4.17431   4.23760   4.43749
 Alpha virt. eigenvalues --    4.54210   4.59222   4.62986   4.77710   4.97455
 Alpha virt. eigenvalues --    4.98199   5.00776   5.03865   5.05578   5.09282
 Alpha virt. eigenvalues --    5.14085   5.20249   5.21118   5.27436   5.31667
 Alpha virt. eigenvalues --    5.34414   5.37615   5.40226   5.45526   5.46522
 Alpha virt. eigenvalues --    5.48662   5.55035   5.57729   5.63663   5.65036
 Alpha virt. eigenvalues --    5.67134   5.71101   5.71803   5.72337   5.75608
 Alpha virt. eigenvalues --    5.77905   5.78623   5.81338   5.83839   5.85241
 Alpha virt. eigenvalues --    5.87238   5.91574   5.96124   5.98025   5.99326
 Alpha virt. eigenvalues --    6.03614   6.05351   6.06411   6.09966   6.11571
 Alpha virt. eigenvalues --    6.12409   6.14884   6.16445   6.16968   6.18745
 Alpha virt. eigenvalues --    6.19359   6.19604   6.20842   6.24336   6.26725
 Alpha virt. eigenvalues --    6.28568   6.30139   6.33797   6.34867   6.37827
 Alpha virt. eigenvalues --    6.38289   6.40158   6.40635   6.43822   6.46801
 Alpha virt. eigenvalues --    6.47988   6.49255   6.49493   6.55687   6.58224
 Alpha virt. eigenvalues --    6.58422   6.60407   6.65133   6.66561   6.71208
 Alpha virt. eigenvalues --    6.76389   6.79185   6.82520   6.87186   6.88495
 Alpha virt. eigenvalues --    6.91685   6.95188   6.97604   6.98572   7.03901
 Alpha virt. eigenvalues --    7.06672   7.11645   7.13353   7.17701   7.19990
 Alpha virt. eigenvalues --    7.24474   7.28243   7.30855   7.33256   7.39006
 Alpha virt. eigenvalues --    7.43788   7.46264   7.49123   7.50569   7.53623
 Alpha virt. eigenvalues --    7.55808   7.59505   7.61364   7.64035   7.64762
 Alpha virt. eigenvalues --    7.68866   7.69235   7.72736   7.73114   7.75625
 Alpha virt. eigenvalues --    7.77060   7.79607   7.84445   7.89743   7.91517
 Alpha virt. eigenvalues --    7.92825   7.97295   7.99999   8.01181   8.07990
 Alpha virt. eigenvalues --    8.10782   8.11575   8.15572   8.18964   8.23423
 Alpha virt. eigenvalues --    8.27415   8.28021   8.31112   8.31418   8.31911
 Alpha virt. eigenvalues --    8.32822   8.34559   8.38392   8.40094   8.42008
 Alpha virt. eigenvalues --    8.45022   8.46658   8.48721   8.51289   8.54038
 Alpha virt. eigenvalues --    8.57023   8.58796   8.60947   8.62494   8.65406
 Alpha virt. eigenvalues --    8.66921   8.69129   8.72354   8.75405   8.79490
 Alpha virt. eigenvalues --    8.83240   8.86827   8.90207   8.93956   8.99272
 Alpha virt. eigenvalues --    9.07079   9.14505   9.21979   9.26187   9.37791
 Alpha virt. eigenvalues --    9.47389   9.57498   9.64367   9.65246   9.68582
 Alpha virt. eigenvalues --    9.78060   9.84947   9.93962   9.96520  10.01171
 Alpha virt. eigenvalues --   10.03082  10.04027  10.07489  10.14100  10.21977
 Alpha virt. eigenvalues --   10.25735  10.32568  10.41430  10.54217  10.75842
 Alpha virt. eigenvalues --   10.98381  11.15369  11.28486  11.53069  11.84537
 Alpha virt. eigenvalues --   12.07142  12.69496  12.86125  12.92333  12.97708
 Alpha virt. eigenvalues --   28.55081  28.77767  29.34931  29.65081 148.13852
 Alpha virt. eigenvalues --  148.36435 148.93298 149.24129
          Condensed to atoms (all electrons):
               1          2          3          4          5          6
     1  C    4.867252   0.603090  -0.086283  -0.001744   0.419998   0.419269
     2  C    0.603090   4.836527   0.392976  -0.085569  -0.046598  -0.038656
     3  C   -0.086283   0.392976   4.862104   0.614810   0.007476  -0.005854
     4  C   -0.001744  -0.085569   0.614810   4.844821  -0.000596   0.000077
     5  H    0.419998  -0.046598   0.007476  -0.000596   0.618722  -0.057418
     6  H    0.419269  -0.038656  -0.005854   0.000077  -0.057418   0.610407
     7  H   -0.050593   0.412792  -0.058242  -0.004621  -0.013624   0.007838
     8  H    0.001468  -0.060966   0.408469  -0.040986  -0.000326   0.003764
     9  H    0.000392  -0.004784  -0.047656   0.427012  -0.000051   0.000044
    10  H   -0.000653   0.007419  -0.042481   0.418459   0.000028  -0.000016
               7          8          9         10
     1  C   -0.050593   0.001468   0.000392  -0.000653
     2  C    0.412792  -0.060966  -0.004784   0.007419
     3  C   -0.058242   0.408469  -0.047656  -0.042481
     4  C   -0.004621  -0.040986   0.427012   0.418459
     5  H   -0.013624  -0.000326  -0.000051   0.000028
     6  H    0.007838   0.003764   0.000044  -0.000016
     7  H    0.647810   0.007095   0.004379   0.000055
     8  H    0.007095   0.614472   0.005845  -0.006084
     9  H    0.004379   0.005845   0.580113  -0.042519
    10  H    0.000055  -0.006084  -0.042519   0.584901
 Mulliken charges:
               1
     1  C   -0.172197
     2  C   -0.016231
     3  C   -0.045319
     4  C   -0.171664
     5  H    0.072390
     6  H    0.060545
     7  H    0.047110
     8  H    0.067249
     9  H    0.077224
    10  H    0.080892
 Sum of Mulliken charges =   0.00000
 Mulliken charges with hydrogens summed into heavy atoms:
               1
     1  C   -0.039262
     2  C    0.030879
     3  C    0.021930
     4  C   -0.013548
 Electronic spatial extent (au):  <R**2>=            341.1366
 Charge=              0.0000 electrons
 Dipole moment (field-independent basis, Debye):
    X=             -0.0610    Y=             -0.0055    Z=              0.0777  Tot=              0.0989
 Quadrupole moment (field-independent basis, Debye-Ang):
   XX=            -23.2971   YY=            -23.3244   ZZ=            -29.4390
   XY=             -0.5669   XZ=              0.4437   YZ=              0.0948
 Traceless Quadrupole moment (field-independent basis, Debye-Ang):
   XX=              2.0564   YY=              2.0291   ZZ=             -4.0855
   XY=             -0.5669   XZ=              0.4437   YZ=              0.0948
 Octapole moment (field-independent basis, Debye-Ang**2):
  XXX=             -1.6634  YYY=             -0.2538  ZZZ=              0.1330  XYY=             -0.0778
  XXY=              0.6282  XXZ=              0.7799  XZZ=             -0.0145  YZZ=             -0.1041
  YYZ=             -0.0186  XYZ=              0.8026
 Hexadecapole moment (field-independent basis, Debye-Ang**3):
 XXXX=           -350.0306 YYYY=            -66.2668 ZZZZ=            -37.6296 XXXY=              0.4464
 XXXZ=              5.3307 YYYX=             -2.3746 YYYZ=             -0.1072 ZZZX=              0.5801
 ZZZY=              0.1837 XXYY=            -69.7945 XXZZ=            -79.0687 YYZZ=            -19.5280
 XXYZ=              1.4469 YYXZ=             -0.0398 ZZXY=             -0.7235
 N-N= 1.030273554159D+02 E-N=-5.667469920296D+02  KE= 1.548934718358D+02
 Leave Link  601 at Wed Aug 26 14:59:28 2020, MaxMem=  2097152000 cpu:         0.7
 (Enter /opt/cluster/programs/g09/g09_d.01/g09/l9999.exe)
 1\1\GINC-NODE06\SP\RB2PLYPD3-FC\def2QZVP\C4H6\BOITTIER\26-Aug-2020\0\\
 #p B2PLYPD3/Def2QZVP\\butadiene\\0,1\C,0,-3.856101,0.196435,-0.002076\
 C,0,-2.69341,-0.449527,0.066895\C,0,-1.372508,0.108965,0.034309\C,0,-0
 .26315,-0.702184,-0.003853\H,0,-4.806153,-0.345136,0.003031\H,0,-4.116
 692,1.278444,-0.078168\H,0,-2.788769,-1.58098,0.177841\H,0,-1.328155,1
 .212405,-0.014127\H,0,-0.347,-1.728234,-0.066694\H,0,0.770259,-0.26425
 5,0.20333\\Version=ES64L-G09RevD.01\State=1-A\HF=-155.6831722\MP2=-155
 .9108731\RMSD=8.702e-09\PG=C01 [X(C4H6)]\\@


 THOUGH I SPEAK WITH THE TONGUES OF MEN AND OF ANGELS, 
 AND HAVE NOT LOVE,
 I AM BECOME AS SOUNDING BRASS, A TINKLING CYMBAL.
 AND THOUGH I HAVE THE GIFT OF PROPHECY,
 AND UNDERSTAND ALL MYSTERIES, AND ALL KNOWLEDGE.
 AND THOUGH I HAVE ALL FAITH, SO THAT I COULD REMOVE MOUNTAINS,
 AND HAVE NOT LOVE, I AM NOTHING.
 AND THOUGH I BESTOW ALL MY GOODS TO FEED THE POOR,
 AND THOUGH I GIVE MY BODY TO BE BURNED,
 AND HAVE NOT LOVE IT PROFITETH ME NOTHING.
 LOVE SUFFERETH LONG, AND IS KIND,
 LOVE ENVIETH NOT,
 LOVE VAUNTETH NOT ITSELF, IS NOT PUFFED UP,
 DOTH NOT BEHAVE ITSELF UNSEEMLY, SEEKETH NOT HER OWN,
 IS NOT EASILY PROVOKED, THINKETH NO EVIL,
 REJOICETH NOT IN INIQUITY, BUT REJOICETH IN THE TRUTH,
 BEARETH ALL THINGS, BELIEVETH ALL THINGS,
 HOPETH ALL THINGS, ENDURETH ALL THINGS.
 LOVE NEVER FAILETH, BUT WHETHER THERE BE PROPHECIES, THEY SHALL FAIL, 
 WHETHER THERE BE TONGUES, THEY SHALL CEASE,
 WHETHER THERE BE KNOWLEDGE, IT SHALL VANISH AWAY.
 FOR WE KNOW IN PART, AND WE PROPHESY IN PART.
 BUT WHEN THAT WHICH IS PERFECT IS COME, THEN THAT WHICH IS IN PART 
 SHALL BE DONE AWAY. 
 WHEN I WAS A CHILD, I SPAKE AS A CHILD, I UNDERSTOOD AS A CHILD, 
 I THOUGHT AS A CHILD.
 BUT WHEN I BECAME A MAN, I PUT AWAY CHILDISH THINGS.
 FOR NOW WE SEE THROUGH A GLASS, DARKLY, BUT THEN FACE TO FACE.
 NOW I KNOW IN PART. BUT THEN SHALL I KNOW EVEN AS ALSO I AM KNOWN.
 AND NOW ABIDETH FAITH, HOPE AND LOVE, THESE THREE.
 BUT THE GREATEST OF THESE IS LOVE.

                     I CORINTHIANS 13
 Job cpu time:       0 days  0 hours 38 minutes 55.6 seconds.
 File lengths (MBytes):  RWF=     92 Int=      0 D2E=      0 Chk=      9 Scr=      1
 Normal termination of Gaussian 09 at Wed Aug 26 14:59:28 2020.
