 Entering Gaussian System, Link 0=/opt/cluster/programs/g09/g09_d.01/g09//g09
 Input=/home/boittier/MDCM/nms_sampling/butadiene_geom.xyz.dir/energies/butadiene_2159_energy.com
 Output=/scratch/boittier/butadiene_2159_energy/butadiene_2159_energy.out
 Initial command:
 /opt/cluster/programs/g09/g09_d.01/g09/l1.exe "/scratch/boittier/butadiene_2159_energy/Gau-197048.inp" -scrdir="/scratch/boittier/butadiene_2159_energy/"
 Entering Link 1 = /opt/cluster/programs/g09/g09_d.01/g09/l1.exe PID=    197049.
  
 Copyright (c) 1988,1990,1992,1993,1995,1998,2003,2009,2013,
            Gaussian, Inc.  All Rights Reserved.
  
 This is part of the Gaussian(R) 09 program.  It is based on
 the Gaussian(R) 03 system (copyright 2003, Gaussian, Inc.),
 the Gaussian(R) 98 system (copyright 1998, Gaussian, Inc.),
 the Gaussian(R) 94 system (copyright 1995, Gaussian, Inc.),
 the Gaussian 92(TM) system (copyright 1992, Gaussian, Inc.),
 the Gaussian 90(TM) system (copyright 1990, Gaussian, Inc.),
 the Gaussian 88(TM) system (copyright 1988, Gaussian, Inc.),
 the Gaussian 86(TM) system (copyright 1986, Carnegie Mellon
 University), and the Gaussian 82(TM) system (copyright 1983,
 Carnegie Mellon University). Gaussian is a federally registered
 trademark of Gaussian, Inc.
  
 This software contains proprietary and confidential information,
 including trade secrets, belonging to Gaussian, Inc.
  
 This software is provided under written license and may be
 used, copied, transmitted, or stored only in accord with that
 written license.
  
 The following legend is applicable only to US Government
 contracts under FAR:
  
                    RESTRICTED RIGHTS LEGEND
  
 Use, reproduction and disclosure by the US Government is
 subject to restrictions as set forth in subparagraphs (a)
 and (c) of the Commercial Computer Software - Restricted
 Rights clause in FAR 52.227-19.
  
 Gaussian, Inc.
 340 Quinnipiac St., Bldg. 40, Wallingford CT 06492
  
  
 ---------------------------------------------------------------
 Warning -- This program may not be used in any manner that
 competes with the business of Gaussian, Inc. or will provide
 assistance to any competitor of Gaussian, Inc.  The licensee
 of this program is prohibited from giving any competitor of
 Gaussian, Inc. access to this program.  By using this program,
 the user acknowledges that Gaussian, Inc. is engaged in the
 business of creating and licensing software in the field of
 computational chemistry and represents and warrants to the
 licensee that it is not a competitor of Gaussian, Inc. and that
 it will not use this program in any manner prohibited above.
 ---------------------------------------------------------------
  

 Cite this work as:
 Gaussian 09, Revision D.01,
 M. J. Frisch, G. W. Trucks, H. B. Schlegel, G. E. Scuseria, 
 M. A. Robb, J. R. Cheeseman, G. Scalmani, V. Barone, B. Mennucci, 
 G. A. Petersson, H. Nakatsuji, M. Caricato, X. Li, H. P. Hratchian, 
 A. F. Izmaylov, J. Bloino, G. Zheng, J. L. Sonnenberg, M. Hada, 
 M. Ehara, K. Toyota, R. Fukuda, J. Hasegawa, M. Ishida, T. Nakajima, 
 Y. Honda, O. Kitao, H. Nakai, T. Vreven, J. A. Montgomery, Jr., 
 J. E. Peralta, F. Ogliaro, M. Bearpark, J. J. Heyd, E. Brothers, 
 K. N. Kudin, V. N. Staroverov, T. Keith, R. Kobayashi, J. Normand, 
 K. Raghavachari, A. Rendell, J. C. Burant, S. S. Iyengar, J. Tomasi, 
 M. Cossi, N. Rega, J. M. Millam, M. Klene, J. E. Knox, J. B. Cross, 
 V. Bakken, C. Adamo, J. Jaramillo, R. Gomperts, R. E. Stratmann, 
 O. Yazyev, A. J. Austin, R. Cammi, C. Pomelli, J. W. Ochterski, 
 R. L. Martin, K. Morokuma, V. G. Zakrzewski, G. A. Voth, 
 P. Salvador, J. J. Dannenberg, S. Dapprich, A. D. Daniels, 
 O. Farkas, J. B. Foresman, J. V. Ortiz, J. Cioslowski, 
 and D. J. Fox, Gaussian, Inc., Wallingford CT, 2013.
 
 ******************************************
 Gaussian 09:  ES64L-G09RevD.01 24-Apr-2013
                26-Aug-2020 
 ******************************************
 %chk=/home/boittier/MDCM/nms_sampling/butadiene_geom.xyz.dir/butadiene_2159.chk
 %nproc=8
 Will use up to    8 processors via shared memory.
 %mem=16000MB
 --------------------
 #p B2PLYPD3/Def2QZVP
 --------------------
 1/38=1/1;
 2/12=2,17=6,18=5,40=1/2;
 3/5=45,7=101,11=9,16=1,25=1,30=1,74=-60/1,2,3;
 4//1;
 5/5=2,38=5/2;
 8/10=1/1;
 9/16=-3/6;
 6/7=2,8=2,9=2,10=2/1;
 99/5=1,9=1/99;
 Leave Link    1 at Wed Aug 26 12:30:21 2020, MaxMem=  2097152000 cpu:         0.2
 (Enter /opt/cluster/programs/g09/g09_d.01/g09/l101.exe)
 ---------
 butadiene
 ---------
 Symbolic Z-matrix:
 Charge =  0 Multiplicity = 1
 C                    -3.81029   0.24982   0.07562 
 C                    -2.72779  -0.5508   -0.06895 
 C                    -1.4257    0.04129  -0.04286 
 C                    -0.27032  -0.62162   0.08656 
 H                    -4.81748  -0.0306    0.23154 
 H                    -3.65506   1.32479   0.12203 
 H                    -2.67701  -1.5965    0.14972 
 H                    -1.32857   1.12115  -0.07576 
 H                    -0.21711  -1.68937   0.18266 
 H                     0.71984  -0.18537   0.13534 
 
 NAtoms=     10 NQM=       10 NQMF=       0 NMMI=      0 NMMIF=      0
                NMic=       0 NMicF=      0.
                    Isotopes and Nuclear Properties:
 (Nuclear quadrupole moments (NQMom) in fm**2, nuclear magnetic moments (NMagM)
  in nuclear magnetons)

  Atom         1           2           3           4           5           6           7           8           9          10
 IAtWgt=          12          12          12          12           1           1           1           1           1           1
 AtmWgt=  12.0000000  12.0000000  12.0000000  12.0000000   1.0078250   1.0078250   1.0078250   1.0078250   1.0078250   1.0078250
 NucSpn=           0           0           0           0           1           1           1           1           1           1
 AtZEff=   0.0000000   0.0000000   0.0000000   0.0000000   0.0000000   0.0000000   0.0000000   0.0000000   0.0000000   0.0000000
 NQMom=    0.0000000   0.0000000   0.0000000   0.0000000   0.0000000   0.0000000   0.0000000   0.0000000   0.0000000   0.0000000
 NMagM=    0.0000000   0.0000000   0.0000000   0.0000000   2.7928460   2.7928460   2.7928460   2.7928460   2.7928460   2.7928460
 AtZNuc=   6.0000000   6.0000000   6.0000000   6.0000000   1.0000000   1.0000000   1.0000000   1.0000000   1.0000000   1.0000000
 Leave Link  101 at Wed Aug 26 12:30:21 2020, MaxMem=  2097152000 cpu:         0.5
 (Enter /opt/cluster/programs/g09/g09_d.01/g09/l202.exe)
                          Input orientation:                          
 ---------------------------------------------------------------------
 Center     Atomic      Atomic             Coordinates (Angstroms)
 Number     Number       Type             X           Y           Z
 ---------------------------------------------------------------------
      1          6           0       -3.810294    0.249817    0.075615
      2          6           0       -2.727790   -0.550797   -0.068951
      3          6           0       -1.425699    0.041289   -0.042858
      4          6           0       -0.270323   -0.621623    0.086556
      5          1           0       -4.817478   -0.030597    0.231539
      6          1           0       -3.655056    1.324790    0.122028
      7          1           0       -2.677013   -1.596496    0.149717
      8          1           0       -1.328570    1.121153   -0.075764
      9          1           0       -0.217114   -1.689367    0.182659
     10          1           0        0.719843   -0.185370    0.135340
 ---------------------------------------------------------------------
                    Distance matrix (angstroms):
                    1          2          3          4          5
     1  C    0.000000
     2  C    1.354141   0.000000
     3  C    2.396625   1.430625   0.000000
     4  C    3.645672   2.463401   1.338318   0.000000
     5  H    1.057054   2.174327   3.403620   4.587696   0.000000
     6  H    1.087115   2.100981   2.577711   3.904638   1.788936
     7  H    2.167646   1.069523   2.070075   2.597407   2.653361
     8  H    2.634596   2.180202   1.084723   2.045361   3.686929
     9  H    4.084463   2.768238   2.122900   1.073380   4.890527
    10  H    4.551384   3.472959   2.164828   1.083109   5.540319
                    6          7          8          9         10
     6  H    0.000000
     7  H    3.080787   0.000000
     8  H    2.343742   3.042163   0.000000
     9  H    4.572555   2.461872   3.033338   0.000000
    10  H    4.628229   3.678330   2.438763   1.772607   0.000000
 Stoichiometry    C4H6
 Framework group  C1[X(C4H6)]
 Deg. of freedom    24
 Full point group                 C1      NOp   1
 Largest Abelian subgroup         C1      NOp   1
 Largest concise Abelian subgroup C1      NOp   1
                         Standard orientation:                         
 ---------------------------------------------------------------------
 Center     Atomic      Atomic             Coordinates (Angstroms)
 Number     Number       Type             X           Y           Z
 ---------------------------------------------------------------------
      1          6           0        1.819775   -0.116561    0.044647
      2          6           0        0.604967    0.459385   -0.117291
      3          6           0       -0.560993   -0.368086   -0.067122
      4          6           0       -1.821271    0.066960    0.049179
      5          1           0        2.755334    0.354421    0.187017
      6          1           0        1.871497   -1.199614    0.123013
      7          1           0        0.356466    1.482409    0.071255
      8          1           0       -0.451269   -1.447245   -0.068208
      9          1           0       -2.076313    1.107546    0.114587
     10          1           0       -2.710583   -0.547698    0.115854
 ---------------------------------------------------------------------
 Rotational constants (GHZ):     41.5597905      4.5393228      4.1156960
 Leave Link  202 at Wed Aug 26 12:30:21 2020, MaxMem=  2097152000 cpu:         0.1
 (Enter /opt/cluster/programs/g09/g09_d.01/g09/l301.exe)
 Standard basis: def2QZVP (5D, 7F)
 Ernie: Thresh=  0.10000D-02 Tol=  0.10000D-05 Strict=F.
 There are   498 symmetry adapted cartesian basis functions of A   symmetry.
 There are   408 symmetry adapted basis functions of A   symmetry.
   408 basis functions,   596 primitive gaussians,   498 cartesian basis functions
    15 alpha electrons       15 beta electrons
       nuclear repulsion energy       104.5034083929 Hartrees.
 IExCor=  419 DFT=T Ex+Corr=B2PLYPD3 ExCW=0 ScaHFX=  0.530000
 ScaDFX=  0.470000  0.470000  0.730000  0.730000 ScalE2=  0.270000  0.270000
 IRadAn=      0 IRanWt=     -1 IRanGd=            0 ICorTp=0 IEmpDi=141
 NAtoms=   10 NActive=   10 NUniq=   10 SFac= 1.00D+00 NAtFMM=   60 NAOKFM=F Big=F
 Integral buffers will be    131072 words long.
 Regular integral format.
 Two-electron integral symmetry is turned on.
 R6Disp:  Grimme-D3(BJ) Dispersion energy=       -0.0048656177 Hartrees.
 Nuclear repulsion after empirical dispersion term =      104.4985427753 Hartrees.
 Leave Link  301 at Wed Aug 26 12:30:21 2020, MaxMem=  2097152000 cpu:         0.4
 (Enter /opt/cluster/programs/g09/g09_d.01/g09/l302.exe)
 NPDir=0 NMtPBC=     1 NCelOv=     1 NCel=       1 NClECP=     1 NCelD=      1
         NCelK=      1 NCelE2=     1 NClLst=     1 CellRange=     0.0.
 One-electron integrals computed using PRISM.
   1 Symmetry operations used in ECPInt.
 ECPInt:  NShTT=    8256 NPrTT=   19107 LenC2=    8062 LenP2D=   16152.
 LDataN:  DoStor=T MaxTD1= 8 Len=  415
 NBasis=   408 RedAO= T EigKep=  4.60D-05  NBF=   408
 NBsUse=   408 1.00D-06 EigRej= -1.00D+00 NBFU=   408
 Precomputing XC quadrature grid using
 IXCGrd= 4 IRadAn=           0 IRanWt=          -1 IRanGd=           0 AccXCQ= 0.00D+00.
 Generated NRdTot=       0 NPtTot=           0 NUsed=           0 NTot=          32
 NSgBfM=   498   498   498   498   498 MxSgAt=    10 MxSgA2=    10.
 Leave Link  302 at Wed Aug 26 12:30:22 2020, MaxMem=  2097152000 cpu:         3.1
 (Enter /opt/cluster/programs/g09/g09_d.01/g09/l303.exe)
 DipDrv:  MaxL=1.
 Leave Link  303 at Wed Aug 26 12:30:22 2020, MaxMem=  2097152000 cpu:         0.4
 (Enter /opt/cluster/programs/g09/g09_d.01/g09/l401.exe)
 ExpMin= 7.60D-02 ExpMax= 6.70D+04 ExpMxC= 6.47D+02 IAcc=2 IRadAn=         4 AccDes= 0.00D+00
 Harris functional with IExCor=  419 and IRadAn=       4 diagonalized for initial guess.
 HarFok:  IExCor=  419 AccDes= 0.00D+00 IRadAn=         4 IDoV= 1 UseB2=F ITyADJ=14
 ICtDFT=  3500011 ScaDFX=  1.000000  1.000000  1.000000  1.000000
 FoFCou: FMM=F IPFlag=           0 FMFlag=      100000 FMFlg1=           0
         NFxFlg=           0 DoJE=T BraDBF=F KetDBF=T FulRan=T
         wScrn=  0.000000 ICntrl=     500 IOpCl=  0 I1Cent=   200000004 NGrid=           0
         NMat0=    1 NMatS0=      1 NMatT0=    0 NMatD0=    1 NMtDS0=    0 NMtDT0=    0
 Petite list used in FoFCou.
 Harris En= -156.126815816518    
 JPrj=0 DoOrth=F DoCkMO=F.
 Leave Link  401 at Wed Aug 26 12:30:23 2020, MaxMem=  2097152000 cpu:         8.2
 (Enter /opt/cluster/programs/g09/g09_d.01/g09/l502.exe)
 Closed shell SCF:
 Using DIIS extrapolation, IDIIS=  1040.
 Integral symmetry usage will be decided dynamically.
 IVT=      770090 IEndB=      770090 NGot=  2097152000 MDV=  2096647053
 LenX=  2096647053 LenY=  2096398551
 Requested convergence on RMS density matrix=1.00D-08 within 128 cycles.
 Requested convergence on MAX density matrix=1.00D-06.
 Requested convergence on             energy=1.00D-06.
 No special actions if energy rises.
 Fock matrices will be formed incrementally for  20 cycles.
 Integral accuracy reduced to 1.0D-05 until final iterations.

 Cycle   1  Pass 0  IDiag  1:
 FoFJK:  IHMeth= 1 ICntrl=       0 DoSepK=F KAlg= 0 I1Cent=   0 FoldK=F
 IRaf= 940000000 NMat=   1 IRICut=       1 DoRegI=T DoRafI=F ISym2E= 0.
 FoFCou: FMM=F IPFlag=           0 FMFlag=      100000 FMFlg1=           0
         NFxFlg=           0 DoJE=F BraDBF=F KetDBF=F FulRan=T
         wScrn=  0.000000 ICntrl=       0 IOpCl=  0 I1Cent=           0 NGrid=           0
         NMat0=    1 NMatS0=      1 NMatT0=    0 NMatD0=    1 NMtDS0=    0 NMtDT0=    0
 Symmetry not used in FoFCou.
 E= -155.503437387016    
 DIIS: error= 3.42D-02 at cycle   1 NSaved=   1.
 NSaved= 1 IEnMin= 1 EnMin= -155.503437387016     IErMin= 1 ErrMin= 3.42D-02
 ErrMax= 3.42D-02  0.00D+00 EMaxC= 1.00D-01 BMatC= 2.52D-01 BMatP= 2.52D-01
 IDIUse=3 WtCom= 6.58D-01 WtEn= 3.42D-01
 Coeff-Com:  0.100D+01
 Coeff-En:   0.100D+01
 Coeff:      0.100D+01
 Gap=     0.289 Goal=   None    Shift=    0.000
 GapD=    0.289 DampG=1.000 DampE=0.500 DampFc=0.5000 IDamp=-1.
 Damping current iteration by 5.00D-01
 RMSDP=9.93D-04 MaxDP=4.98D-02              OVMax= 1.95D-01

 Cycle   2  Pass 0  IDiag  1:
 RMSU=  4.62D-04    CP:  9.52D-01
 E= -155.602054221051     Delta-E=       -0.098616834035 Rises=F Damp=T
 DIIS: error= 1.01D-02 at cycle   2 NSaved=   2.
 NSaved= 2 IEnMin= 2 EnMin= -155.602054221051     IErMin= 2 ErrMin= 1.01D-02
 ErrMax= 1.01D-02  0.00D+00 EMaxC= 1.00D-01 BMatC= 2.98D-02 BMatP= 2.52D-01
 IDIUse=3 WtCom= 8.99D-01 WtEn= 1.01D-01
 Coeff-Com: -0.298D+00 0.130D+01
 Coeff-En:   0.000D+00 0.100D+01
 Coeff:     -0.268D+00 0.127D+01
 Gap=     0.350 Goal=   None    Shift=    0.000
 RMSDP=3.18D-04 MaxDP=9.92D-03 DE=-9.86D-02 OVMax= 9.61D-02

 Cycle   3  Pass 0  IDiag  1:
 RMSU=  3.10D-04    CP:  9.34D-01  9.53D-01
 E= -155.687481763993     Delta-E=       -0.085427542943 Rises=F Damp=F
 DIIS: error= 4.28D-03 at cycle   3 NSaved=   3.
 NSaved= 3 IEnMin= 3 EnMin= -155.687481763993     IErMin= 3 ErrMin= 4.28D-03
 ErrMax= 4.28D-03  0.00D+00 EMaxC= 1.00D-01 BMatC= 2.18D-03 BMatP= 2.98D-02
 IDIUse=3 WtCom= 9.57D-01 WtEn= 4.28D-02
 Coeff-Com: -0.119D+00 0.246D+00 0.873D+00
 Coeff-En:   0.000D+00 0.000D+00 0.100D+01
 Coeff:     -0.114D+00 0.235D+00 0.879D+00
 Gap=     0.284 Goal=   None    Shift=    0.000
 RMSDP=7.62D-05 MaxDP=4.41D-03 DE=-8.54D-02 OVMax= 2.49D-02

 Cycle   4  Pass 0  IDiag  1:
 RMSU=  5.66D-05    CP:  9.30D-01  1.05D+00  9.44D-01
 E= -155.689136880635     Delta-E=       -0.001655116641 Rises=F Damp=F
 DIIS: error= 2.67D-03 at cycle   4 NSaved=   4.
 NSaved= 4 IEnMin= 4 EnMin= -155.689136880635     IErMin= 4 ErrMin= 2.67D-03
 ErrMax= 2.67D-03  0.00D+00 EMaxC= 1.00D-01 BMatC= 7.05D-04 BMatP= 2.18D-03
 IDIUse=3 WtCom= 9.73D-01 WtEn= 2.67D-02
 Coeff-Com: -0.536D-01 0.893D-01 0.467D+00 0.497D+00
 Coeff-En:   0.000D+00 0.000D+00 0.145D+00 0.855D+00
 Coeff:     -0.521D-01 0.869D-01 0.459D+00 0.507D+00
 Gap=     0.284 Goal=   None    Shift=    0.000
 RMSDP=3.27D-05 MaxDP=1.48D-03 DE=-1.66D-03 OVMax= 9.57D-03

 Cycle   5  Pass 0  IDiag  1:
 RMSU=  1.73D-05    CP:  9.30D-01  1.04D+00  9.92D-01  6.02D-01
 E= -155.689817882235     Delta-E=       -0.000681001601 Rises=F Damp=F
 DIIS: error= 2.78D-04 at cycle   5 NSaved=   5.
 NSaved= 5 IEnMin= 5 EnMin= -155.689817882235     IErMin= 5 ErrMin= 2.78D-04
 ErrMax= 2.78D-04  0.00D+00 EMaxC= 1.00D-01 BMatC= 5.41D-06 BMatP= 7.05D-04
 IDIUse=3 WtCom= 9.97D-01 WtEn= 2.78D-03
 Coeff-Com: -0.366D-02 0.370D-02 0.415D-01 0.103D+00 0.855D+00
 Coeff-En:   0.000D+00 0.000D+00 0.000D+00 0.000D+00 0.100D+01
 Coeff:     -0.365D-02 0.369D-02 0.414D-01 0.103D+00 0.856D+00
 Gap=     0.285 Goal=   None    Shift=    0.000
 RMSDP=5.16D-06 MaxDP=1.60D-04 DE=-6.81D-04 OVMax= 1.31D-03

 Initial convergence to 1.0D-05 achieved.  Increase integral accuracy.
 Cycle   6  Pass 1  IDiag  1:
 E= -155.689829616303     Delta-E=       -0.000011734067 Rises=F Damp=F
 DIIS: error= 5.02D-05 at cycle   1 NSaved=   1.
 NSaved= 1 IEnMin= 1 EnMin= -155.689829616303     IErMin= 1 ErrMin= 5.02D-05
 ErrMax= 5.02D-05  0.00D+00 EMaxC= 1.00D-01 BMatC= 6.53D-07 BMatP= 6.53D-07
 IDIUse=1 WtCom= 1.00D+00 WtEn= 0.00D+00
 Coeff-Com:  0.100D+01
 Coeff:      0.100D+01
 Gap=     0.285 Goal=   None    Shift=    0.000
 RMSDP=5.16D-06 MaxDP=1.60D-04 DE=-1.17D-05 OVMax= 4.02D-04

 Cycle   7  Pass 1  IDiag  1:
 RMSU=  1.87D-05    CP:  1.00D+00
 E= -155.689830024128     Delta-E=       -0.000000407826 Rises=F Damp=F
 DIIS: error= 3.31D-05 at cycle   2 NSaved=   2.
 NSaved= 2 IEnMin= 2 EnMin= -155.689830024128     IErMin= 2 ErrMin= 3.31D-05
 ErrMax= 3.31D-05  0.00D+00 EMaxC= 1.00D-01 BMatC= 1.56D-07 BMatP= 6.53D-07
 IDIUse=1 WtCom= 1.00D+00 WtEn= 0.00D+00
 Coeff-Com:  0.268D+00 0.732D+00
 Coeff:      0.268D+00 0.732D+00
 Gap=     0.285 Goal=   None    Shift=    0.000
 RMSDP=1.06D-06 MaxDP=3.74D-05 DE=-4.08D-07 OVMax= 2.11D-04

 Cycle   8  Pass 1  IDiag  1:
 RMSU=  8.34D-07    CP:  1.00D+00  1.04D+00
 E= -155.689830142548     Delta-E=       -0.000000118420 Rises=F Damp=F
 DIIS: error= 1.91D-05 at cycle   3 NSaved=   3.
 NSaved= 3 IEnMin= 3 EnMin= -155.689830142548     IErMin= 3 ErrMin= 1.91D-05
 ErrMax= 1.91D-05  0.00D+00 EMaxC= 1.00D-01 BMatC= 4.03D-08 BMatP= 1.56D-07
 IDIUse=1 WtCom= 1.00D+00 WtEn= 0.00D+00
 Coeff-Com: -0.146D-01 0.325D+00 0.689D+00
 Coeff:     -0.146D-01 0.325D+00 0.689D+00
 Gap=     0.285 Goal=   None    Shift=    0.000
 RMSDP=5.00D-07 MaxDP=1.95D-05 DE=-1.18D-07 OVMax= 1.13D-04

 Cycle   9  Pass 1  IDiag  1:
 RMSU=  3.76D-07    CP:  1.00D+00  1.05D+00  1.04D+00
 E= -155.689830182351     Delta-E=       -0.000000039803 Rises=F Damp=F
 DIIS: error= 4.00D-06 at cycle   4 NSaved=   4.
 NSaved= 4 IEnMin= 4 EnMin= -155.689830182351     IErMin= 4 ErrMin= 4.00D-06
 ErrMax= 4.00D-06  0.00D+00 EMaxC= 1.00D-01 BMatC= 1.72D-09 BMatP= 4.03D-08
 IDIUse=1 WtCom= 1.00D+00 WtEn= 0.00D+00
 Coeff-Com: -0.151D-01 0.102D+00 0.272D+00 0.641D+00
 Coeff:     -0.151D-01 0.102D+00 0.272D+00 0.641D+00
 Gap=     0.285 Goal=   None    Shift=    0.000
 RMSDP=9.87D-08 MaxDP=3.37D-06 DE=-3.98D-08 OVMax= 2.49D-05

 Cycle  10  Pass 1  IDiag  1:
 RMSU=  6.90D-08    CP:  1.00D+00  1.05D+00  1.11D+00  1.07D+00
 E= -155.689830184515     Delta-E=       -0.000000002164 Rises=F Damp=F
 DIIS: error= 1.37D-06 at cycle   5 NSaved=   5.
 NSaved= 5 IEnMin= 5 EnMin= -155.689830184515     IErMin= 5 ErrMin= 1.37D-06
 ErrMax= 1.37D-06  0.00D+00 EMaxC= 1.00D-01 BMatC= 1.54D-10 BMatP= 1.72D-09
 IDIUse=1 WtCom= 1.00D+00 WtEn= 0.00D+00
 Coeff-Com: -0.803D-05-0.454D-01-0.884D-01 0.139D+00 0.995D+00
 Coeff:     -0.803D-05-0.454D-01-0.884D-01 0.139D+00 0.995D+00
 Gap=     0.285 Goal=   None    Shift=    0.000
 RMSDP=5.75D-08 MaxDP=1.79D-06 DE=-2.16D-09 OVMax= 1.25D-05

 Cycle  11  Pass 1  IDiag  1:
 RMSU=  2.49D-08    CP:  1.00D+00  1.06D+00  1.14D+00  1.17D+00  1.07D+00
 E= -155.689830184831     Delta-E=       -0.000000000316 Rises=F Damp=F
 DIIS: error= 1.52D-07 at cycle   6 NSaved=   6.
 NSaved= 6 IEnMin= 6 EnMin= -155.689830184831     IErMin= 6 ErrMin= 1.52D-07
 ErrMax= 1.52D-07  0.00D+00 EMaxC= 1.00D-01 BMatC= 3.87D-12 BMatP= 1.54D-10
 IDIUse=1 WtCom= 1.00D+00 WtEn= 0.00D+00
 Coeff-Com:  0.674D-03-0.154D-01-0.337D-01 0.613D-02 0.229D+00 0.813D+00
 Coeff:      0.674D-03-0.154D-01-0.337D-01 0.613D-02 0.229D+00 0.813D+00
 Gap=     0.285 Goal=   None    Shift=    0.000
 RMSDP=6.66D-09 MaxDP=2.16D-07 DE=-3.16D-10 OVMax= 1.61D-06

 SCF Done:  E(RB2PLYPD3) =  -155.689830185     A.U. after   11 cycles
            NFock= 11  Conv=0.67D-08     -V/T= 2.0033
 KE= 1.551804336656D+02 PE=-5.699211006003D+02 EE= 1.545522939745D+02
 Leave Link  502 at Wed Aug 26 12:33:03 2020, MaxMem=  2097152000 cpu:      1280.9
 (Enter /opt/cluster/programs/g09/g09_d.01/g09/l801.exe)
 DoSCS=T DFT=T ScalE2(SS,OS)=  0.270000  0.270000
 ExpMin= 7.60D-02 ExpMax= 6.70D+04 ExpMxC= 6.47D+02 IAcc=3 IRadAn=         5 AccDes= 0.00D+00
 HarFok:  IExCor=  205 AccDes= 0.00D+00 IRadAn=         5 IDoV=-2 UseB2=F ITyADJ=14
 ICtDFT= 12500011 ScaDFX=  1.000000  1.000000  1.000000  1.000000
 Largest valence mixing into a core orbital is  1.11D-04
 Largest core mixing into a valence orbital is  1.98D-05
 Range of M.O.s used for correlation:     5   408
 NBasis=   408 NAE=    15 NBE=    15 NFC=     4 NFV=     0
 NROrb=    404 NOA=    11 NOB=    11 NVA=   393 NVB=   393

 **** Warning!!: The largest alpha MO coefficient is  0.27829802D+02

 Leave Link  801 at Wed Aug 26 12:33:06 2020, MaxMem=  2097152000 cpu:         1.0
 (Enter /opt/cluster/programs/g09/g09_d.01/g09/l906.exe)
 DoSCS=T DFT=T ScalE2(SS,OS)=  0.270000  0.270000
 FulOut=F Deriv=F AODrv=F NAtomX=    10
   MMem=         881  MDisk=          11 MDiskD=          11
  W3Min=     2152854 MinDsk=     3857222 NBas6D=         498
 NBas2D=      125763    NTT=      124251    LW2=     4508827
    MDV=  2096381292 MDiskM=        9345 NBas2p=      117716
 Fully direct method using O(OVN) memory.
 IMap=   1   2   3   4   5   6   7   8   9  10  11
 JobTyp=1 Pass  1:  I=   1 to  11 NPSUse=  8 ParTrn=T ParDer=T DoDerP=F.
 Spin components of T(2) and E(2):
     alpha-alpha T2 =       0.4241238338D-01 E2=     -0.2557084010D-01
     alpha-beta  T2 =       0.2747980295D+00 E2=     -0.1754710410D+00
     beta-beta   T2 =       0.4241238338D-01 E2=     -0.2557084010D-01
 The integrals were generated   1 times.
 E2(B2PLYPD3) =    -0.2266127212D+00 E(B2PLYPD3) =    -0.15591644290600D+03
 Leave Link  906 at Wed Aug 26 12:36:14 2020, MaxMem=  2097152000 cpu:      1496.9
 (Enter /opt/cluster/programs/g09/g09_d.01/g09/l601.exe)
 Copying SCF densities to generalized density rwf, IOpCl= 0 IROHF=0.

 **********************************************************************

            Population analysis using the SCF density.

 **********************************************************************

 Orbital symmetries:
       Occupied  (A) (A) (A) (A) (A) (A) (A) (A) (A) (A) (A) (A)
                 (A) (A) (A)
       Virtual   (A) (A) (A) (A) (A) (A) (A) (A) (A) (A) (A) (A)
                 (A) (A) (A) (A) (A) (A) (A) (A) (A) (A) (A) (A)
                 (A) (A) (A) (A) (A) (A) (A) (A) (A) (A) (A) (A)
                 (A) (A) (A) (A) (A) (A) (A) (A) (A) (A) (A) (A)
                 (A) (A) (A) (A) (A) (A) (A) (A) (A) (A) (A) (A)
                 (A) (A) (A) (A) (A) (A) (A) (A) (A) (A) (A) (A)
                 (A) (A) (A) (A) (A) (A) (A) (A) (A) (A) (A) (A)
                 (A) (A) (A) (A) (A) (A) (A) (A) (A) (A) (A) (A)
                 (A) (A) (A) (A) (A) (A) (A) (A) (A) (A) (A) (A)
                 (A) (A) (A) (A) (A) (A) (A) (A) (A) (A) (A) (A)
                 (A) (A) (A) (A) (A) (A) (A) (A) (A) (A) (A) (A)
                 (A) (A) (A) (A) (A) (A) (A) (A) (A) (A) (A) (A)
                 (A) (A) (A) (A) (A) (A) (A) (A) (A) (A) (A) (A)
                 (A) (A) (A) (A) (A) (A) (A) (A) (A) (A) (A) (A)
                 (A) (A) (A) (A) (A) (A) (A) (A) (A) (A) (A) (A)
                 (A) (A) (A) (A) (A) (A) (A) (A) (A) (A) (A) (A)
                 (A) (A) (A) (A) (A) (A) (A) (A) (A) (A) (A) (A)
                 (A) (A) (A) (A) (A) (A) (A) (A) (A) (A) (A) (A)
                 (A) (A) (A) (A) (A) (A) (A) (A) (A) (A) (A) (A)
                 (A) (A) (A) (A) (A) (A) (A) (A) (A) (A) (A) (A)
                 (A) (A) (A) (A) (A) (A) (A) (A) (A) (A) (A) (A)
                 (A) (A) (A) (A) (A) (A) (A) (A) (A) (A) (A) (A)
                 (A) (A) (A) (A) (A) (A) (A) (A) (A) (A) (A) (A)
                 (A) (A) (A) (A) (A) (A) (A) (A) (A) (A) (A) (A)
                 (A) (A) (A) (A) (A) (A) (A) (A) (A) (A) (A) (A)
                 (A) (A) (A) (A) (A) (A) (A) (A) (A) (A) (A) (A)
                 (A) (A) (A) (A) (A) (A) (A) (A) (A) (A) (A) (A)
                 (A) (A) (A) (A) (A) (A) (A) (A) (A) (A) (A) (A)
                 (A) (A) (A) (A) (A) (A) (A) (A) (A) (A) (A) (A)
                 (A) (A) (A) (A) (A) (A) (A) (A) (A) (A) (A) (A)
                 (A) (A) (A) (A) (A) (A) (A) (A) (A) (A) (A) (A)
                 (A) (A) (A) (A) (A) (A) (A) (A) (A) (A) (A) (A)
                 (A) (A) (A) (A) (A) (A) (A) (A) (A)
 The electronic state is 1-A.
 Alpha  occ. eigenvalues --  -10.62832 -10.62230 -10.62080 -10.61162  -0.93456
 Alpha  occ. eigenvalues --   -0.84511  -0.70915  -0.64624  -0.55626  -0.53244
 Alpha  occ. eigenvalues --   -0.47208  -0.44961  -0.41334  -0.38215  -0.27276
 Alpha virt. eigenvalues --    0.01194   0.07080   0.07390   0.08232   0.09190
 Alpha virt. eigenvalues --    0.11617   0.12878   0.14636   0.15422   0.16714
 Alpha virt. eigenvalues --    0.18836   0.19897   0.21979   0.22785   0.24090
 Alpha virt. eigenvalues --    0.25881   0.26882   0.30095   0.31791   0.33812
 Alpha virt. eigenvalues --    0.36783   0.37041   0.37583   0.38574   0.39876
 Alpha virt. eigenvalues --    0.41547   0.42313   0.45465   0.46401   0.47716
 Alpha virt. eigenvalues --    0.49757   0.50201   0.51844   0.54273   0.56550
 Alpha virt. eigenvalues --    0.60156   0.63706   0.64325   0.65237   0.69043
 Alpha virt. eigenvalues --    0.70153   0.73832   0.76697   0.77764   0.79181
 Alpha virt. eigenvalues --    0.80801   0.81615   0.81836   0.83021   0.84419
 Alpha virt. eigenvalues --    0.85053   0.86649   0.86749   0.87231   0.90484
 Alpha virt. eigenvalues --    0.92839   0.92843   0.93551   0.95392   0.96312
 Alpha virt. eigenvalues --    0.98145   0.98792   1.01445   1.02444   1.04625
 Alpha virt. eigenvalues --    1.05296   1.07224   1.09911   1.11288   1.13381
 Alpha virt. eigenvalues --    1.14661   1.16292   1.19389   1.22407   1.24055
 Alpha virt. eigenvalues --    1.26278   1.29545   1.32806   1.35405   1.37240
 Alpha virt. eigenvalues --    1.38601   1.41045   1.46908   1.56193   1.59017
 Alpha virt. eigenvalues --    1.64144   1.68426   1.69542   1.70798   1.72966
 Alpha virt. eigenvalues --    1.77498   1.78775   1.82503   1.84930   1.87639
 Alpha virt. eigenvalues --    1.91382   1.91851   1.92684   1.94581   1.95374
 Alpha virt. eigenvalues --    1.96610   1.97794   2.00292   2.00876   2.03414
 Alpha virt. eigenvalues --    2.04957   2.05427   2.07479   2.07988   2.09315
 Alpha virt. eigenvalues --    2.10795   2.12860   2.14340   2.17558   2.20762
 Alpha virt. eigenvalues --    2.21010   2.22658   2.23565   2.26667   2.28340
 Alpha virt. eigenvalues --    2.31240   2.32160   2.35797   2.39295   2.42253
 Alpha virt. eigenvalues --    2.42439   2.44526   2.46131   2.47899   2.51654
 Alpha virt. eigenvalues --    2.52361   2.52613   2.55618   2.56734   2.58784
 Alpha virt. eigenvalues --    2.61285   2.62799   2.64240   2.65218   2.66675
 Alpha virt. eigenvalues --    2.68529   2.69612   2.70836   2.72421   2.75480
 Alpha virt. eigenvalues --    2.75849   2.77180   2.79100   2.80455   2.82831
 Alpha virt. eigenvalues --    2.85583   2.88913   2.89449   2.91732   2.94454
 Alpha virt. eigenvalues --    2.97801   3.00323   3.04254   3.09662   3.12625
 Alpha virt. eigenvalues --    3.12865   3.18907   3.20858   3.29859   3.35554
 Alpha virt. eigenvalues --    3.38422   3.41455   3.43530   3.44888   3.47658
 Alpha virt. eigenvalues --    3.50240   3.50909   3.56251   3.57310   3.58227
 Alpha virt. eigenvalues --    3.60263   3.62726   3.63342   3.66774   3.75556
 Alpha virt. eigenvalues --    3.80522   3.82581   3.84671   3.88622   3.88889
 Alpha virt. eigenvalues --    3.94675   3.95139   4.05006   4.08968   4.13983
 Alpha virt. eigenvalues --    4.18000   4.19623   4.23974   4.26678   4.46100
 Alpha virt. eigenvalues --    4.50834   4.55525   4.60852   4.90131   4.98765
 Alpha virt. eigenvalues --    5.00304   5.03723   5.07672   5.09618   5.11946
 Alpha virt. eigenvalues --    5.16533   5.17426   5.23137   5.29277   5.32237
 Alpha virt. eigenvalues --    5.33714   5.38810   5.41379   5.44303   5.47118
 Alpha virt. eigenvalues --    5.51108   5.57329   5.58299   5.63093   5.65606
 Alpha virt. eigenvalues --    5.68412   5.69762   5.70841   5.74052   5.77762
 Alpha virt. eigenvalues --    5.80736   5.81248   5.83844   5.84690   5.89570
 Alpha virt. eigenvalues --    5.92141   5.93366   5.99253   5.99589   6.03636
 Alpha virt. eigenvalues --    6.06321   6.08727   6.10596   6.11917   6.13696
 Alpha virt. eigenvalues --    6.14538   6.17441   6.18291   6.19380   6.21860
 Alpha virt. eigenvalues --    6.22833   6.24327   6.25070   6.28613   6.29738
 Alpha virt. eigenvalues --    6.32001   6.34510   6.36071   6.38487   6.41650
 Alpha virt. eigenvalues --    6.42798   6.44053   6.47579   6.49789   6.52129
 Alpha virt. eigenvalues --    6.55019   6.58284   6.59557   6.61669   6.63343
 Alpha virt. eigenvalues --    6.65811   6.71198   6.72400   6.76872   6.81306
 Alpha virt. eigenvalues --    6.83867   6.86178   6.89377   6.91894   6.91983
 Alpha virt. eigenvalues --    6.96237   6.97185   7.01003   7.05330   7.11446
 Alpha virt. eigenvalues --    7.14221   7.16640   7.17379   7.21558   7.22277
 Alpha virt. eigenvalues --    7.25361   7.26811   7.29536   7.37838   7.48519
 Alpha virt. eigenvalues --    7.49625   7.52203   7.53941   7.56830   7.59889
 Alpha virt. eigenvalues --    7.63987   7.67611   7.69362   7.70778   7.71455
 Alpha virt. eigenvalues --    7.73743   7.75115   7.76131   7.79063   7.82486
 Alpha virt. eigenvalues --    7.84038   7.86604   7.89138   7.91261   7.93883
 Alpha virt. eigenvalues --    7.98754   8.01313   8.04955   8.08556   8.10967
 Alpha virt. eigenvalues --    8.15664   8.15912   8.20164   8.23816   8.27658
 Alpha virt. eigenvalues --    8.31153   8.32384   8.34217   8.34740   8.36996
 Alpha virt. eigenvalues --    8.38741   8.40032   8.42127   8.42882   8.45952
 Alpha virt. eigenvalues --    8.48369   8.49891   8.50689   8.51576   8.58816
 Alpha virt. eigenvalues --    8.61244   8.63981   8.67232   8.69021   8.71162
 Alpha virt. eigenvalues --    8.74297   8.75504   8.76783   8.81957   8.88597
 Alpha virt. eigenvalues --    8.89463   8.94154   8.97293   9.03475   9.05926
 Alpha virt. eigenvalues --    9.22477   9.24503   9.27438   9.37113   9.42919
 Alpha virt. eigenvalues --    9.55093   9.73562   9.77209   9.92482   9.93070
 Alpha virt. eigenvalues --    9.96216  10.00340  10.02207  10.07994  10.11900
 Alpha virt. eigenvalues --   10.17482  10.19091  10.24493  10.28735  10.31816
 Alpha virt. eigenvalues --   10.43088  10.49235  10.62335  10.66319  10.77793
 Alpha virt. eigenvalues --   11.19558  11.22816  11.40962  11.64935  11.94850
 Alpha virt. eigenvalues --   11.99612  12.92090  13.05171  13.18273  13.21967
 Alpha virt. eigenvalues --   28.67008  28.85418  29.51760  29.67098 148.26937
 Alpha virt. eigenvalues --  148.44447 149.11263 149.27205
          Condensed to atoms (all electrons):
               1          2          3          4          5          6
     1  C    4.823402   0.627528  -0.091516  -0.003720   0.423683   0.425657
     2  C    0.627528   4.823418   0.406223  -0.081624  -0.040256  -0.044468
     3  C   -0.091516   0.406223   4.823405   0.617822   0.007441  -0.011344
     4  C   -0.003720  -0.081624   0.617822   4.857396  -0.000614   0.000610
     5  H    0.423683  -0.040256   0.007441  -0.000614   0.581047  -0.050169
     6  H    0.425657  -0.044468  -0.011344   0.000610  -0.050169   0.609165
     7  H   -0.042006   0.409909  -0.064356  -0.000769  -0.005525   0.006842
     8  H   -0.004817  -0.058441   0.411132  -0.054139   0.000133   0.004339
     9  H    0.000031  -0.007171  -0.047491   0.421865  -0.000014   0.000029
    10  H   -0.000547   0.006488  -0.039652   0.425458   0.000020  -0.000044
               7          8          9         10
     1  C   -0.042006  -0.004817   0.000031  -0.000547
     2  C    0.409909  -0.058441  -0.007171   0.006488
     3  C   -0.064356   0.411132  -0.047491  -0.039652
     4  C   -0.000769  -0.054139   0.421865   0.425458
     5  H   -0.005525   0.000133  -0.000014   0.000020
     6  H    0.006842   0.004339   0.000029  -0.000044
     7  H    0.615529   0.007541   0.004970  -0.000164
     8  H    0.007541   0.644522   0.008754  -0.009712
     9  H    0.004970   0.008754   0.621367  -0.053142
    10  H   -0.000164  -0.009712  -0.053142   0.591205
 Mulliken charges:
               1
     1  C   -0.157696
     2  C   -0.041605
     3  C   -0.011664
     4  C   -0.182283
     5  H    0.084255
     6  H    0.059383
     7  H    0.068029
     8  H    0.050689
     9  H    0.050802
    10  H    0.080090
 Sum of Mulliken charges =   0.00000
 Mulliken charges with hydrogens summed into heavy atoms:
               1
     1  C   -0.014057
     2  C    0.026424
     3  C    0.039025
     4  C   -0.051392
 Electronic spatial extent (au):  <R**2>=            330.3572
 Charge=              0.0000 electrons
 Dipole moment (field-independent basis, Debye):
    X=              0.1062    Y=             -0.0196    Z=              0.3728  Tot=              0.3881
 Quadrupole moment (field-independent basis, Debye-Ang):
   XX=            -23.1246   YY=            -23.5084   ZZ=            -29.1462
   XY=             -0.4075   XZ=              0.3388   YZ=              0.1655
 Traceless Quadrupole moment (field-independent basis, Debye-Ang):
   XX=              2.1352   YY=              1.7513   ZZ=             -3.8865
   XY=             -0.4075   XZ=              0.3388   YZ=              0.1655
 Octapole moment (field-independent basis, Debye-Ang**2):
  XXX=              0.7064  YYY=             -0.1646  ZZZ=              0.6168  XYY=             -0.4096
  XXY=             -0.2736  XXZ=              2.6711  XZZ=              0.2397  YZZ=              0.0443
  YYZ=              0.7761  XYZ=             -0.1220
 Hexadecapole moment (field-independent basis, Debye-Ang**3):
 XXXX=           -329.0366 YYYY=            -65.6959 ZZZZ=            -37.7928 XXXY=              3.9713
 XXXZ=              2.4988 YYYX=             -2.2818 YYYZ=              0.6719 ZZZX=              0.7703
 ZZZY=              0.1760 XXYY=            -69.2754 XXZZ=            -75.4596 YYZZ=            -19.1927
 XXYZ=              0.0866 YYXZ=              0.4380 ZZXY=             -0.5673
 N-N= 1.044985427753D+02 E-N=-5.699210920728D+02  KE= 1.551804336656D+02
 Leave Link  601 at Wed Aug 26 12:36:14 2020, MaxMem=  2097152000 cpu:         0.8
 (Enter /opt/cluster/programs/g09/g09_d.01/g09/l9999.exe)
 1\1\GINC-NODE34\SP\RB2PLYPD3-FC\def2QZVP\C4H6\BOITTIER\26-Aug-2020\0\\
 #p B2PLYPD3/Def2QZVP\\butadiene\\0,1\C,0,-3.810294,0.249817,0.075615\C
 ,0,-2.72779,-0.550797,-0.068951\C,0,-1.425699,0.041289,-0.042858\C,0,-
 0.270323,-0.621623,0.086556\H,0,-4.817478,-0.030597,0.231539\H,0,-3.65
 5056,1.32479,0.122028\H,0,-2.677013,-1.596496,0.149717\H,0,-1.32857,1.
 121153,-0.075764\H,0,-0.217114,-1.689367,0.182659\H,0,0.719843,-0.1853
 7,0.13534\\Version=ES64L-G09RevD.01\State=1-A\HF=-155.6898302\MP2=-155
 .9164429\RMSD=6.661e-09\PG=C01 [X(C4H6)]\\@


 A COMPLEXITY IS MERELY A DISARRANGEMENT OF SIMPLICITIES.

                                    -- G. O. ABELL IN "EXPLORATION OF THE UNIVERSE"
 Job cpu time:       0 days  0 hours 46 minutes 33.1 seconds.
 File lengths (MBytes):  RWF=     92 Int=      0 D2E=      0 Chk=      9 Scr=      1
 Normal termination of Gaussian 09 at Wed Aug 26 12:36:15 2020.
