 Entering Gaussian System, Link 0=/opt/cluster/programs/g09/g09_d.01/g09//g09
 Input=/home/boittier/MDCM/nms_sampling/butadiene_geom.xyz.dir/energies/butadiene_232_energy.com
 Output=/scratch/boittier/butadiene_232_energy/butadiene_232_energy.out
 Initial command:
 /opt/cluster/programs/g09/g09_d.01/g09/l1.exe "/scratch/boittier/butadiene_232_energy/Gau-62096.inp" -scrdir="/scratch/boittier/butadiene_232_energy/"
 Entering Link 1 = /opt/cluster/programs/g09/g09_d.01/g09/l1.exe PID=     62097.
  
 Copyright (c) 1988,1990,1992,1993,1995,1998,2003,2009,2013,
            Gaussian, Inc.  All Rights Reserved.
  
 This is part of the Gaussian(R) 09 program.  It is based on
 the Gaussian(R) 03 system (copyright 2003, Gaussian, Inc.),
 the Gaussian(R) 98 system (copyright 1998, Gaussian, Inc.),
 the Gaussian(R) 94 system (copyright 1995, Gaussian, Inc.),
 the Gaussian 92(TM) system (copyright 1992, Gaussian, Inc.),
 the Gaussian 90(TM) system (copyright 1990, Gaussian, Inc.),
 the Gaussian 88(TM) system (copyright 1988, Gaussian, Inc.),
 the Gaussian 86(TM) system (copyright 1986, Carnegie Mellon
 University), and the Gaussian 82(TM) system (copyright 1983,
 Carnegie Mellon University). Gaussian is a federally registered
 trademark of Gaussian, Inc.
  
 This software contains proprietary and confidential information,
 including trade secrets, belonging to Gaussian, Inc.
  
 This software is provided under written license and may be
 used, copied, transmitted, or stored only in accord with that
 written license.
  
 The following legend is applicable only to US Government
 contracts under FAR:
  
                    RESTRICTED RIGHTS LEGEND
  
 Use, reproduction and disclosure by the US Government is
 subject to restrictions as set forth in subparagraphs (a)
 and (c) of the Commercial Computer Software - Restricted
 Rights clause in FAR 52.227-19.
  
 Gaussian, Inc.
 340 Quinnipiac St., Bldg. 40, Wallingford CT 06492
  
  
 ---------------------------------------------------------------
 Warning -- This program may not be used in any manner that
 competes with the business of Gaussian, Inc. or will provide
 assistance to any competitor of Gaussian, Inc.  The licensee
 of this program is prohibited from giving any competitor of
 Gaussian, Inc. access to this program.  By using this program,
 the user acknowledges that Gaussian, Inc. is engaged in the
 business of creating and licensing software in the field of
 computational chemistry and represents and warrants to the
 licensee that it is not a competitor of Gaussian, Inc. and that
 it will not use this program in any manner prohibited above.
 ---------------------------------------------------------------
  

 Cite this work as:
 Gaussian 09, Revision D.01,
 M. J. Frisch, G. W. Trucks, H. B. Schlegel, G. E. Scuseria, 
 M. A. Robb, J. R. Cheeseman, G. Scalmani, V. Barone, B. Mennucci, 
 G. A. Petersson, H. Nakatsuji, M. Caricato, X. Li, H. P. Hratchian, 
 A. F. Izmaylov, J. Bloino, G. Zheng, J. L. Sonnenberg, M. Hada, 
 M. Ehara, K. Toyota, R. Fukuda, J. Hasegawa, M. Ishida, T. Nakajima, 
 Y. Honda, O. Kitao, H. Nakai, T. Vreven, J. A. Montgomery, Jr., 
 J. E. Peralta, F. Ogliaro, M. Bearpark, J. J. Heyd, E. Brothers, 
 K. N. Kudin, V. N. Staroverov, T. Keith, R. Kobayashi, J. Normand, 
 K. Raghavachari, A. Rendell, J. C. Burant, S. S. Iyengar, J. Tomasi, 
 M. Cossi, N. Rega, J. M. Millam, M. Klene, J. E. Knox, J. B. Cross, 
 V. Bakken, C. Adamo, J. Jaramillo, R. Gomperts, R. E. Stratmann, 
 O. Yazyev, A. J. Austin, R. Cammi, C. Pomelli, J. W. Ochterski, 
 R. L. Martin, K. Morokuma, V. G. Zakrzewski, G. A. Voth, 
 P. Salvador, J. J. Dannenberg, S. Dapprich, A. D. Daniels, 
 O. Farkas, J. B. Foresman, J. V. Ortiz, J. Cioslowski, 
 and D. J. Fox, Gaussian, Inc., Wallingford CT, 2013.
 
 ******************************************
 Gaussian 09:  ES64L-G09RevD.01 24-Apr-2013
                26-Aug-2020 
 ******************************************
 %chk=/home/boittier/MDCM/nms_sampling/butadiene_geom.xyz.dir/butadiene_232.chk
 %nproc=8
 Will use up to    8 processors via shared memory.
 %mem=16000MB
 --------------------
 #p B2PLYPD3/Def2QZVP
 --------------------
 1/38=1/1;
 2/12=2,17=6,18=5,40=1/2;
 3/5=45,7=101,11=9,16=1,25=1,30=1,74=-60/1,2,3;
 4//1;
 5/5=2,38=5/2;
 8/10=1/1;
 9/16=-3/6;
 6/7=2,8=2,9=2,10=2/1;
 99/5=1,9=1/99;
 Leave Link    1 at Wed Aug 26 13:24:50 2020, MaxMem=  2097152000 cpu:         0.2
 (Enter /opt/cluster/programs/g09/g09_d.01/g09/l101.exe)
 ---------
 butadiene
 ---------
 Symbolic Z-matrix:
 Charge =  0 Multiplicity = 1
 C                    -3.85108   0.21542  -0.00324 
 C                    -2.72158  -0.48939   0.06181 
 C                    -1.37628   0.0895    0.04177 
 C                    -0.26544  -0.66872   0.01774 
 H                    -4.82458  -0.27931   0.00146 
 H                    -3.84096   1.28991  -0.04807 
 H                    -2.73483  -1.58466   0.04489 
 H                    -1.27316   1.18464  -0.01813 
 H                    -0.2794   -1.74069   0.02129 
 H                     0.71025  -0.22564  -0.08778 
 
 NAtoms=     10 NQM=       10 NQMF=       0 NMMI=      0 NMMIF=      0
                NMic=       0 NMicF=      0.
                    Isotopes and Nuclear Properties:
 (Nuclear quadrupole moments (NQMom) in fm**2, nuclear magnetic moments (NMagM)
  in nuclear magnetons)

  Atom         1           2           3           4           5           6           7           8           9          10
 IAtWgt=          12          12          12          12           1           1           1           1           1           1
 AtmWgt=  12.0000000  12.0000000  12.0000000  12.0000000   1.0078250   1.0078250   1.0078250   1.0078250   1.0078250   1.0078250
 NucSpn=           0           0           0           0           1           1           1           1           1           1
 AtZEff=   0.0000000   0.0000000   0.0000000   0.0000000   0.0000000   0.0000000   0.0000000   0.0000000   0.0000000   0.0000000
 NQMom=    0.0000000   0.0000000   0.0000000   0.0000000   0.0000000   0.0000000   0.0000000   0.0000000   0.0000000   0.0000000
 NMagM=    0.0000000   0.0000000   0.0000000   0.0000000   2.7928460   2.7928460   2.7928460   2.7928460   2.7928460   2.7928460
 AtZNuc=   6.0000000   6.0000000   6.0000000   6.0000000   1.0000000   1.0000000   1.0000000   1.0000000   1.0000000   1.0000000
 Leave Link  101 at Wed Aug 26 13:24:50 2020, MaxMem=  2097152000 cpu:         0.5
 (Enter /opt/cluster/programs/g09/g09_d.01/g09/l202.exe)
                          Input orientation:                          
 ---------------------------------------------------------------------
 Center     Atomic      Atomic             Coordinates (Angstroms)
 Number     Number       Type             X           Y           Z
 ---------------------------------------------------------------------
      1          6           0       -3.851078    0.215421   -0.003242
      2          6           0       -2.721576   -0.489386    0.061811
      3          6           0       -1.376282    0.089504    0.041765
      4          6           0       -0.265442   -0.668719    0.017744
      5          1           0       -4.824579   -0.279309    0.001462
      6          1           0       -3.840962    1.289911   -0.048072
      7          1           0       -2.734831   -1.584663    0.044890
      8          1           0       -1.273159    1.184644   -0.018131
      9          1           0       -0.279402   -1.740692    0.021292
     10          1           0        0.710246   -0.225642   -0.087782
 ---------------------------------------------------------------------
                    Distance matrix (angstroms):
                    1          2          3          4          5
     1  C    0.000000
     2  C    1.332951   0.000000
     3  C    2.478406   1.464695   0.000000
     4  C    3.693092   2.463066   1.345156   0.000000
     5  H    1.092009   2.114331   3.468198   4.575766   0.000000
     6  H    1.075472   2.104993   2.742935   4.077365   1.852676
     7  H    2.118638   1.095488   2.156038   2.633927   2.464322
     8  H    2.754139   2.215102   1.101614   2.109914   3.841370
     9  H    4.072327   2.744380   2.133819   1.072070   4.774376
    10  H    4.583379   3.445191   2.114166   1.076764   5.535805
                    6          7          8          9         10
     6  H    0.000000
     7  H    3.081452   0.000000
     8  H    2.570134   3.132015   0.000000
     9  H    4.676973   2.460495   3.089773   0.000000
    10  H    4.797080   3.705819   2.434677   1.812919   0.000000
 Stoichiometry    C4H6
 Framework group  C1[X(C4H6)]
 Deg. of freedom    24
 Full point group                 C1      NOp   1
 Largest Abelian subgroup         C1      NOp   1
 Largest concise Abelian subgroup C1      NOp   1
                         Standard orientation:                         
 ---------------------------------------------------------------------
 Center     Atomic      Atomic             Coordinates (Angstroms)
 Number     Number       Type             X           Y           Z
 ---------------------------------------------------------------------
      1          6           0        1.848333    0.101010    0.020464
      2          6           0        0.610447   -0.390718   -0.030553
      3          6           0       -0.608763    0.420981   -0.032407
      4          6           0       -1.837864   -0.124171    0.007154
      5          1           0        2.716960   -0.560653    0.033667
      6          1           0        2.031681    1.160624    0.036003
      7          1           0        0.426473   -1.469634    0.016216
      8          1           0       -0.513184    1.518041   -0.002795
      9          1           0       -2.016961   -1.180863    0.032831
     10          1           0       -2.717893    0.489874    0.096130
 ---------------------------------------------------------------------
 Rotational constants (GHZ):     41.6767631      4.4298559      4.0068794
 Leave Link  202 at Wed Aug 26 13:24:50 2020, MaxMem=  2097152000 cpu:         0.0
 (Enter /opt/cluster/programs/g09/g09_d.01/g09/l301.exe)
 Standard basis: def2QZVP (5D, 7F)
 Ernie: Thresh=  0.10000D-02 Tol=  0.10000D-05 Strict=F.
 There are   498 symmetry adapted cartesian basis functions of A   symmetry.
 There are   408 symmetry adapted basis functions of A   symmetry.
   408 basis functions,   596 primitive gaussians,   498 cartesian basis functions
    15 alpha electrons       15 beta electrons
       nuclear repulsion energy       103.6075056269 Hartrees.
 IExCor=  419 DFT=T Ex+Corr=B2PLYPD3 ExCW=0 ScaHFX=  0.530000
 ScaDFX=  0.470000  0.470000  0.730000  0.730000 ScalE2=  0.270000  0.270000
 IRadAn=      0 IRanWt=     -1 IRanGd=            0 ICorTp=0 IEmpDi=141
 NAtoms=   10 NActive=   10 NUniq=   10 SFac= 1.00D+00 NAtFMM=   60 NAOKFM=F Big=F
 Integral buffers will be    131072 words long.
 Regular integral format.
 Two-electron integral symmetry is turned on.
 R6Disp:  Grimme-D3(BJ) Dispersion energy=       -0.0048232931 Hartrees.
 Nuclear repulsion after empirical dispersion term =      103.6026823339 Hartrees.
 Leave Link  301 at Wed Aug 26 13:24:50 2020, MaxMem=  2097152000 cpu:         0.5
 (Enter /opt/cluster/programs/g09/g09_d.01/g09/l302.exe)
 NPDir=0 NMtPBC=     1 NCelOv=     1 NCel=       1 NClECP=     1 NCelD=      1
         NCelK=      1 NCelE2=     1 NClLst=     1 CellRange=     0.0.
 One-electron integrals computed using PRISM.
   1 Symmetry operations used in ECPInt.
 ECPInt:  NShTT=    8256 NPrTT=   19107 LenC2=    8055 LenP2D=   16105.
 LDataN:  DoStor=T MaxTD1= 8 Len=  415
 NBasis=   408 RedAO= T EigKep=  4.51D-05  NBF=   408
 NBsUse=   408 1.00D-06 EigRej= -1.00D+00 NBFU=   408
 Precomputing XC quadrature grid using
 IXCGrd= 4 IRadAn=           0 IRanWt=          -1 IRanGd=           0 AccXCQ= 0.00D+00.
 Generated NRdTot=       0 NPtTot=           0 NUsed=           0 NTot=          32
 NSgBfM=   498   498   498   498   498 MxSgAt=    10 MxSgA2=    10.
 Leave Link  302 at Wed Aug 26 13:24:51 2020, MaxMem=  2097152000 cpu:         3.4
 (Enter /opt/cluster/programs/g09/g09_d.01/g09/l303.exe)
 DipDrv:  MaxL=1.
 Leave Link  303 at Wed Aug 26 13:24:51 2020, MaxMem=  2097152000 cpu:         0.4
 (Enter /opt/cluster/programs/g09/g09_d.01/g09/l401.exe)
 ExpMin= 7.60D-02 ExpMax= 6.70D+04 ExpMxC= 6.47D+02 IAcc=2 IRadAn=         4 AccDes= 0.00D+00
 Harris functional with IExCor=  419 and IRadAn=       4 diagonalized for initial guess.
 HarFok:  IExCor=  419 AccDes= 0.00D+00 IRadAn=         4 IDoV= 1 UseB2=F ITyADJ=14
 ICtDFT=  3500011 ScaDFX=  1.000000  1.000000  1.000000  1.000000
 FoFCou: FMM=F IPFlag=           0 FMFlag=      100000 FMFlg1=           0
         NFxFlg=           0 DoJE=T BraDBF=F KetDBF=T FulRan=T
         wScrn=  0.000000 ICntrl=     500 IOpCl=  0 I1Cent=   200000004 NGrid=           0
         NMat0=    1 NMatS0=      1 NMatT0=    0 NMatD0=    1 NMtDS0=    0 NMtDT0=    0
 Petite list used in FoFCou.
 Harris En= -156.133477279501    
 JPrj=0 DoOrth=F DoCkMO=F.
 Leave Link  401 at Wed Aug 26 13:24:52 2020, MaxMem=  2097152000 cpu:         8.8
 (Enter /opt/cluster/programs/g09/g09_d.01/g09/l502.exe)
 Closed shell SCF:
 Using DIIS extrapolation, IDIIS=  1040.
 Integral symmetry usage will be decided dynamically.
 IVT=      770090 IEndB=      770090 NGot=  2097152000 MDV=  2096647053
 LenX=  2096647053 LenY=  2096398551
 Requested convergence on RMS density matrix=1.00D-08 within 128 cycles.
 Requested convergence on MAX density matrix=1.00D-06.
 Requested convergence on             energy=1.00D-06.
 No special actions if energy rises.
 Fock matrices will be formed incrementally for  20 cycles.
 Integral accuracy reduced to 1.0D-05 until final iterations.

 Cycle   1  Pass 0  IDiag  1:
 FoFJK:  IHMeth= 1 ICntrl=       0 DoSepK=F KAlg= 0 I1Cent=   0 FoldK=F
 IRaf= 940000000 NMat=   1 IRICut=       1 DoRegI=T DoRafI=F ISym2E= 0.
 FoFCou: FMM=F IPFlag=           0 FMFlag=      100000 FMFlg1=           0
         NFxFlg=           0 DoJE=F BraDBF=F KetDBF=F FulRan=T
         wScrn=  0.000000 ICntrl=       0 IOpCl=  0 I1Cent=           0 NGrid=           0
         NMat0=    1 NMatS0=      1 NMatT0=    0 NMatD0=    1 NMtDS0=    0 NMtDT0=    0
 Symmetry not used in FoFCou.
 E= -155.514825670028    
 DIIS: error= 3.65D-02 at cycle   1 NSaved=   1.
 NSaved= 1 IEnMin= 1 EnMin= -155.514825670028     IErMin= 1 ErrMin= 3.65D-02
 ErrMax= 3.65D-02  0.00D+00 EMaxC= 1.00D-01 BMatC= 2.51D-01 BMatP= 2.51D-01
 IDIUse=3 WtCom= 6.35D-01 WtEn= 3.65D-01
 Coeff-Com:  0.100D+01
 Coeff-En:   0.100D+01
 Coeff:      0.100D+01
 Gap=     0.298 Goal=   None    Shift=    0.000
 GapD=    0.298 DampG=1.000 DampE=0.500 DampFc=0.5000 IDamp=-1.
 Damping current iteration by 5.00D-01
 RMSDP=9.41D-04 MaxDP=5.14D-02              OVMax= 1.92D-01

 Cycle   2  Pass 0  IDiag  1:
 RMSU=  4.33D-04    CP:  9.51D-01
 E= -155.613131899305     Delta-E=       -0.098306229278 Rises=F Damp=T
 DIIS: error= 1.13D-02 at cycle   2 NSaved=   2.
 NSaved= 2 IEnMin= 2 EnMin= -155.613131899305     IErMin= 2 ErrMin= 1.13D-02
 ErrMax= 1.13D-02  0.00D+00 EMaxC= 1.00D-01 BMatC= 2.96D-02 BMatP= 2.51D-01
 IDIUse=3 WtCom= 8.87D-01 WtEn= 1.13D-01
 Coeff-Com: -0.302D+00 0.130D+01
 Coeff-En:   0.000D+00 0.100D+01
 Coeff:     -0.267D+00 0.127D+01
 Gap=     0.356 Goal=   None    Shift=    0.000
 RMSDP=2.62D-04 MaxDP=7.78D-03 DE=-9.83D-02 OVMax= 9.14D-02

 Cycle   3  Pass 0  IDiag  1:
 RMSU=  2.51D-04    CP:  9.34D-01  1.09D+00
 E= -155.698112658418     Delta-E=       -0.084980759113 Rises=F Damp=F
 DIIS: error= 4.16D-03 at cycle   3 NSaved=   3.
 NSaved= 3 IEnMin= 3 EnMin= -155.698112658418     IErMin= 3 ErrMin= 4.16D-03
 ErrMax= 4.16D-03  0.00D+00 EMaxC= 1.00D-01 BMatC= 1.62D-03 BMatP= 2.96D-02
 IDIUse=3 WtCom= 9.58D-01 WtEn= 4.16D-02
 Coeff-Com: -0.107D+00 0.206D+00 0.901D+00
 Coeff-En:   0.000D+00 0.000D+00 0.100D+01
 Coeff:     -0.103D+00 0.197D+00 0.906D+00
 Gap=     0.293 Goal=   None    Shift=    0.000
 RMSDP=6.38D-05 MaxDP=3.78D-03 DE=-8.50D-02 OVMax= 2.00D-02

 Cycle   4  Pass 0  IDiag  1:
 RMSU=  4.51D-05    CP:  9.30D-01  1.18D+00  9.44D-01
 E= -155.699440914361     Delta-E=       -0.001328255943 Rises=F Damp=F
 DIIS: error= 2.54D-03 at cycle   4 NSaved=   4.
 NSaved= 4 IEnMin= 4 EnMin= -155.699440914361     IErMin= 4 ErrMin= 2.54D-03
 ErrMax= 2.54D-03  0.00D+00 EMaxC= 1.00D-01 BMatC= 4.38D-04 BMatP= 1.62D-03
 IDIUse=3 WtCom= 9.75D-01 WtEn= 2.54D-02
 Coeff-Com: -0.493D-01 0.805D-01 0.471D+00 0.498D+00
 Coeff-En:   0.000D+00 0.000D+00 0.676D-01 0.932D+00
 Coeff:     -0.481D-01 0.785D-01 0.461D+00 0.509D+00
 Gap=     0.293 Goal=   None    Shift=    0.000
 RMSDP=2.51D-05 MaxDP=1.30D-03 DE=-1.33D-03 OVMax= 7.89D-03

 Cycle   5  Pass 0  IDiag  1:
 RMSU=  1.51D-05    CP:  9.30D-01  1.18D+00  9.81D-01  6.13D-01
 E= -155.699865611205     Delta-E=       -0.000424696845 Rises=F Damp=F
 DIIS: error= 3.20D-04 at cycle   5 NSaved=   5.
 NSaved= 5 IEnMin= 5 EnMin= -155.699865611205     IErMin= 5 ErrMin= 3.20D-04
 ErrMax= 3.20D-04  0.00D+00 EMaxC= 1.00D-01 BMatC= 5.87D-06 BMatP= 4.38D-04
 IDIUse=3 WtCom= 9.97D-01 WtEn= 3.20D-03
 Coeff-Com: -0.307D-02 0.278D-02 0.395D-01 0.122D+00 0.839D+00
 Coeff-En:   0.000D+00 0.000D+00 0.000D+00 0.000D+00 0.100D+01
 Coeff:     -0.306D-02 0.277D-02 0.394D-01 0.122D+00 0.839D+00
 Gap=     0.294 Goal=   None    Shift=    0.000
 RMSDP=3.75D-06 MaxDP=1.25D-04 DE=-4.25D-04 OVMax= 1.26D-03

 Initial convergence to 1.0D-05 achieved.  Increase integral accuracy.
 Cycle   6  Pass 1  IDiag  1:
 E= -155.699896402082     Delta-E=       -0.000030790877 Rises=F Damp=F
 DIIS: error= 4.70D-05 at cycle   1 NSaved=   1.
 NSaved= 1 IEnMin= 1 EnMin= -155.699896402082     IErMin= 1 ErrMin= 4.70D-05
 ErrMax= 4.70D-05  0.00D+00 EMaxC= 1.00D-01 BMatC= 4.47D-07 BMatP= 4.47D-07
 IDIUse=1 WtCom= 1.00D+00 WtEn= 0.00D+00
 Coeff-Com:  0.100D+01
 Coeff:      0.100D+01
 Gap=     0.294 Goal=   None    Shift=    0.000
 RMSDP=3.75D-06 MaxDP=1.25D-04 DE=-3.08D-05 OVMax= 3.02D-04

 Cycle   7  Pass 1  IDiag  1:
 RMSU=  1.60D-05    CP:  1.00D+00
 E= -155.699896713396     Delta-E=       -0.000000311314 Rises=F Damp=F
 DIIS: error= 1.48D-05 at cycle   2 NSaved=   2.
 NSaved= 2 IEnMin= 2 EnMin= -155.699896713396     IErMin= 2 ErrMin= 1.48D-05
 ErrMax= 1.48D-05  0.00D+00 EMaxC= 1.00D-01 BMatC= 2.94D-08 BMatP= 4.47D-07
 IDIUse=1 WtCom= 1.00D+00 WtEn= 0.00D+00
 Coeff-Com:  0.820D-01 0.918D+00
 Coeff:      0.820D-01 0.918D+00
 Gap=     0.294 Goal=   None    Shift=    0.000
 RMSDP=7.72D-07 MaxDP=2.11D-05 DE=-3.11D-07 OVMax= 1.25D-04

 Cycle   8  Pass 1  IDiag  1:
 RMSU=  5.25D-07    CP:  1.00D+00  1.04D+00
 E= -155.699896731034     Delta-E=       -0.000000017638 Rises=F Damp=F
 DIIS: error= 1.13D-05 at cycle   3 NSaved=   3.
 NSaved= 3 IEnMin= 3 EnMin= -155.699896731034     IErMin= 3 ErrMin= 1.13D-05
 ErrMax= 1.13D-05  0.00D+00 EMaxC= 1.00D-01 BMatC= 1.96D-08 BMatP= 2.94D-08
 IDIUse=1 WtCom= 1.00D+00 WtEn= 0.00D+00
 Coeff-Com: -0.162D-01 0.446D+00 0.570D+00
 Coeff:     -0.162D-01 0.446D+00 0.570D+00
 Gap=     0.294 Goal=   None    Shift=    0.000
 RMSDP=2.17D-07 MaxDP=1.22D-05 DE=-1.76D-08 OVMax= 7.34D-05

 Cycle   9  Pass 1  IDiag  1:
 RMSU=  1.96D-07    CP:  1.00D+00  1.04D+00  9.87D-01
 E= -155.699896750424     Delta-E=       -0.000000019389 Rises=F Damp=F
 DIIS: error= 3.44D-06 at cycle   4 NSaved=   4.
 NSaved= 4 IEnMin= 4 EnMin= -155.699896750424     IErMin= 4 ErrMin= 3.44D-06
 ErrMax= 3.44D-06  0.00D+00 EMaxC= 1.00D-01 BMatC= 5.20D-10 BMatP= 1.96D-08
 IDIUse=1 WtCom= 1.00D+00 WtEn= 0.00D+00
 Coeff-Com: -0.922D-02 0.487D-01 0.150D+00 0.811D+00
 Coeff:     -0.922D-02 0.487D-01 0.150D+00 0.811D+00
 Gap=     0.294 Goal=   None    Shift=    0.000
 RMSDP=5.83D-08 MaxDP=1.89D-06 DE=-1.94D-08 OVMax= 1.66D-05

 Cycle  10  Pass 1  IDiag  1:
 RMSU=  3.98D-08    CP:  1.00D+00  1.04D+00  1.06D+00  1.05D+00
 E= -155.699896751173     Delta-E=       -0.000000000750 Rises=F Damp=F
 DIIS: error= 8.07D-07 at cycle   5 NSaved=   5.
 NSaved= 5 IEnMin= 5 EnMin= -155.699896751173     IErMin= 5 ErrMin= 8.07D-07
 ErrMax= 8.07D-07  0.00D+00 EMaxC= 1.00D-01 BMatC= 8.02D-11 BMatP= 5.20D-10
 IDIUse=1 WtCom= 1.00D+00 WtEn= 0.00D+00
 Coeff-Com: -0.728D-03-0.477D-01-0.275D-01 0.274D+00 0.802D+00
 Coeff:     -0.728D-03-0.477D-01-0.275D-01 0.274D+00 0.802D+00
 Gap=     0.294 Goal=   None    Shift=    0.000
 RMSDP=2.39D-08 MaxDP=1.29D-06 DE=-7.50D-10 OVMax= 7.83D-06

 Cycle  11  Pass 1  IDiag  1:
 RMSU=  1.63D-08    CP:  1.00D+00  1.04D+00  1.08D+00  1.12D+00  1.06D+00
 E= -155.699896751305     Delta-E=       -0.000000000131 Rises=F Damp=F
 DIIS: error= 2.59D-07 at cycle   6 NSaved=   6.
 NSaved= 6 IEnMin= 6 EnMin= -155.699896751305     IErMin= 6 ErrMin= 2.59D-07
 ErrMax= 2.59D-07  0.00D+00 EMaxC= 1.00D-01 BMatC= 5.73D-12 BMatP= 8.02D-11
 IDIUse=1 WtCom= 1.00D+00 WtEn= 0.00D+00
 Coeff-Com:  0.617D-03-0.215D-01-0.224D-01 0.197D-01 0.269D+00 0.755D+00
 Coeff:      0.617D-03-0.215D-01-0.224D-01 0.197D-01 0.269D+00 0.755D+00
 Gap=     0.294 Goal=   None    Shift=    0.000
 RMSDP=5.25D-09 MaxDP=1.62D-07 DE=-1.31D-10 OVMax= 1.62D-06

 SCF Done:  E(RB2PLYPD3) =  -155.699896751     A.U. after   11 cycles
            NFock= 11  Conv=0.52D-08     -V/T= 2.0041
 KE= 1.550594441358D+02 PE=-5.680790876193D+02 EE= 1.537170643983D+02
 Leave Link  502 at Wed Aug 26 13:27:34 2020, MaxMem=  2097152000 cpu:      1289.2
 (Enter /opt/cluster/programs/g09/g09_d.01/g09/l801.exe)
 DoSCS=T DFT=T ScalE2(SS,OS)=  0.270000  0.270000
 ExpMin= 7.60D-02 ExpMax= 6.70D+04 ExpMxC= 6.47D+02 IAcc=3 IRadAn=         5 AccDes= 0.00D+00
 HarFok:  IExCor=  205 AccDes= 0.00D+00 IRadAn=         5 IDoV=-2 UseB2=F ITyADJ=14
 ICtDFT= 12500011 ScaDFX=  1.000000  1.000000  1.000000  1.000000
 Largest valence mixing into a core orbital is  1.11D-04
 Largest core mixing into a valence orbital is  2.03D-05
 Range of M.O.s used for correlation:     5   408
 NBasis=   408 NAE=    15 NBE=    15 NFC=     4 NFV=     0
 NROrb=    404 NOA=    11 NOB=    11 NVA=   393 NVB=   393

 **** Warning!!: The largest alpha MO coefficient is  0.26659699D+02

 Leave Link  801 at Wed Aug 26 13:27:34 2020, MaxMem=  2097152000 cpu:         0.9
 (Enter /opt/cluster/programs/g09/g09_d.01/g09/l906.exe)
 DoSCS=T DFT=T ScalE2(SS,OS)=  0.270000  0.270000
 FulOut=F Deriv=F AODrv=F NAtomX=    10
   MMem=         881  MDisk=          11 MDiskD=          11
  W3Min=     2152854 MinDsk=     3857222 NBas6D=         498
 NBas2D=      125763    NTT=      124251    LW2=     4508827
    MDV=  2096383518 MDiskM=        9345 NBas2p=      117293
 Fully direct method using O(OVN) memory.
 IMap=   1   2   3   4   5   6   7   8   9  10  11
 JobTyp=1 Pass  1:  I=   1 to  11 NPSUse=  8 ParTrn=T ParDer=T DoDerP=F.
 Spin components of T(2) and E(2):
     alpha-alpha T2 =       0.4216881490D-01 E2=     -0.2542000230D-01
     alpha-beta  T2 =       0.2733362139D+00 E2=     -0.1751176886D+00
     beta-beta   T2 =       0.4216881490D-01 E2=     -0.2542000230D-01
 The integrals were generated   1 times.
 E2(B2PLYPD3) =    -0.2259576932D+00 E(B2PLYPD3) =    -0.15592585444450D+03
 Leave Link  906 at Wed Aug 26 13:29:20 2020, MaxMem=  2097152000 cpu:       844.5
 (Enter /opt/cluster/programs/g09/g09_d.01/g09/l601.exe)
 Copying SCF densities to generalized density rwf, IOpCl= 0 IROHF=0.

 **********************************************************************

            Population analysis using the SCF density.

 **********************************************************************

 Orbital symmetries:
       Occupied  (A) (A) (A) (A) (A) (A) (A) (A) (A) (A) (A) (A)
                 (A) (A) (A)
       Virtual   (A) (A) (A) (A) (A) (A) (A) (A) (A) (A) (A) (A)
                 (A) (A) (A) (A) (A) (A) (A) (A) (A) (A) (A) (A)
                 (A) (A) (A) (A) (A) (A) (A) (A) (A) (A) (A) (A)
                 (A) (A) (A) (A) (A) (A) (A) (A) (A) (A) (A) (A)
                 (A) (A) (A) (A) (A) (A) (A) (A) (A) (A) (A) (A)
                 (A) (A) (A) (A) (A) (A) (A) (A) (A) (A) (A) (A)
                 (A) (A) (A) (A) (A) (A) (A) (A) (A) (A) (A) (A)
                 (A) (A) (A) (A) (A) (A) (A) (A) (A) (A) (A) (A)
                 (A) (A) (A) (A) (A) (A) (A) (A) (A) (A) (A) (A)
                 (A) (A) (A) (A) (A) (A) (A) (A) (A) (A) (A) (A)
                 (A) (A) (A) (A) (A) (A) (A) (A) (A) (A) (A) (A)
                 (A) (A) (A) (A) (A) (A) (A) (A) (A) (A) (A) (A)
                 (A) (A) (A) (A) (A) (A) (A) (A) (A) (A) (A) (A)
                 (A) (A) (A) (A) (A) (A) (A) (A) (A) (A) (A) (A)
                 (A) (A) (A) (A) (A) (A) (A) (A) (A) (A) (A) (A)
                 (A) (A) (A) (A) (A) (A) (A) (A) (A) (A) (A) (A)
                 (A) (A) (A) (A) (A) (A) (A) (A) (A) (A) (A) (A)
                 (A) (A) (A) (A) (A) (A) (A) (A) (A) (A) (A) (A)
                 (A) (A) (A) (A) (A) (A) (A) (A) (A) (A) (A) (A)
                 (A) (A) (A) (A) (A) (A) (A) (A) (A) (A) (A) (A)
                 (A) (A) (A) (A) (A) (A) (A) (A) (A) (A) (A) (A)
                 (A) (A) (A) (A) (A) (A) (A) (A) (A) (A) (A) (A)
                 (A) (A) (A) (A) (A) (A) (A) (A) (A) (A) (A) (A)
                 (A) (A) (A) (A) (A) (A) (A) (A) (A) (A) (A) (A)
                 (A) (A) (A) (A) (A) (A) (A) (A) (A) (A) (A) (A)
                 (A) (A) (A) (A) (A) (A) (A) (A) (A) (A) (A) (A)
                 (A) (A) (A) (A) (A) (A) (A) (A) (A) (A) (A) (A)
                 (A) (A) (A) (A) (A) (A) (A) (A) (A) (A) (A) (A)
                 (A) (A) (A) (A) (A) (A) (A) (A) (A) (A) (A) (A)
                 (A) (A) (A) (A) (A) (A) (A) (A) (A) (A) (A) (A)
                 (A) (A) (A) (A) (A) (A) (A) (A) (A) (A) (A) (A)
                 (A) (A) (A) (A) (A) (A) (A) (A) (A) (A) (A) (A)
                 (A) (A) (A) (A) (A) (A) (A) (A) (A)
 The electronic state is 1-A.
 Alpha  occ. eigenvalues --  -10.62982 -10.62720 -10.61535 -10.61526  -0.92699
 Alpha  occ. eigenvalues --   -0.84812  -0.70117  -0.63949  -0.54429  -0.53890
 Alpha  occ. eigenvalues --   -0.46614  -0.45728  -0.40998  -0.37948  -0.27680
 Alpha virt. eigenvalues --    0.01707   0.07004   0.07369   0.08043   0.09444
 Alpha virt. eigenvalues --    0.11658   0.12421   0.14726   0.15835   0.16141
 Alpha virt. eigenvalues --    0.18826   0.20390   0.21665   0.23116   0.23591
 Alpha virt. eigenvalues --    0.26648   0.26932   0.29363   0.31586   0.34833
 Alpha virt. eigenvalues --    0.35920   0.36608   0.37477   0.38080   0.40347
 Alpha virt. eigenvalues --    0.42949   0.43551   0.45708   0.47386   0.47850
 Alpha virt. eigenvalues --    0.48661   0.50255   0.51133   0.55098   0.56155
 Alpha virt. eigenvalues --    0.58564   0.60339   0.64093   0.66309   0.68829
 Alpha virt. eigenvalues --    0.69082   0.71941   0.77117   0.77340   0.79109
 Alpha virt. eigenvalues --    0.79767   0.80682   0.81600   0.82488   0.84307
 Alpha virt. eigenvalues --    0.84486   0.85827   0.86012   0.86974   0.90035
 Alpha virt. eigenvalues --    0.92193   0.93318   0.93650   0.95731   0.95977
 Alpha virt. eigenvalues --    0.98517   0.98961   1.00621   1.02633   1.05090
 Alpha virt. eigenvalues --    1.05895   1.08322   1.10603   1.11193   1.12837
 Alpha virt. eigenvalues --    1.14256   1.17203   1.19046   1.21167   1.22343
 Alpha virt. eigenvalues --    1.24991   1.25648   1.34235   1.34426   1.35515
 Alpha virt. eigenvalues --    1.37556   1.40368   1.47469   1.62047   1.64887
 Alpha virt. eigenvalues --    1.66729   1.68062   1.69796   1.71747   1.72337
 Alpha virt. eigenvalues --    1.74455   1.81023   1.82728   1.84458   1.88280
 Alpha virt. eigenvalues --    1.89298   1.91136   1.91776   1.92960   1.94375
 Alpha virt. eigenvalues --    1.95138   1.98805   2.00030   2.01110   2.02699
 Alpha virt. eigenvalues --    2.03703   2.06163   2.07044   2.08004   2.09708
 Alpha virt. eigenvalues --    2.10159   2.11427   2.13714   2.16505   2.18292
 Alpha virt. eigenvalues --    2.19089   2.21379   2.23518   2.25695   2.28846
 Alpha virt. eigenvalues --    2.29997   2.32205   2.32981   2.37476   2.42748
 Alpha virt. eigenvalues --    2.44316   2.45514   2.46893   2.48081   2.50832
 Alpha virt. eigenvalues --    2.52693   2.53397   2.54804   2.56658   2.57573
 Alpha virt. eigenvalues --    2.59250   2.61480   2.63554   2.64277   2.64459
 Alpha virt. eigenvalues --    2.67397   2.68956   2.70514   2.70623   2.71555
 Alpha virt. eigenvalues --    2.73508   2.75401   2.76536   2.77532   2.79280
 Alpha virt. eigenvalues --    2.81116   2.87871   2.90364   2.92485   2.93465
 Alpha virt. eigenvalues --    2.94636   3.02807   3.05136   3.07304   3.08221
 Alpha virt. eigenvalues --    3.10659   3.13526   3.24459   3.32724   3.36458
 Alpha virt. eigenvalues --    3.38160   3.39023   3.42852   3.44968   3.47425
 Alpha virt. eigenvalues --    3.47833   3.50565   3.51704   3.54356   3.57983
 Alpha virt. eigenvalues --    3.59635   3.60164   3.62928   3.69071   3.78974
 Alpha virt. eigenvalues --    3.79812   3.82765   3.86528   3.88013   3.92107
 Alpha virt. eigenvalues --    3.93445   3.94388   3.97503   4.05377   4.14267
 Alpha virt. eigenvalues --    4.15505   4.16049   4.19781   4.23498   4.46033
 Alpha virt. eigenvalues --    4.54131   4.57327   4.59602   4.84966   4.99784
 Alpha virt. eigenvalues --    5.00305   5.02842   5.04291   5.05769   5.07786
 Alpha virt. eigenvalues --    5.12289   5.18353   5.20168   5.29322   5.29826
 Alpha virt. eigenvalues --    5.33322   5.38525   5.41504   5.45428   5.49086
 Alpha virt. eigenvalues --    5.51930   5.54376   5.58079   5.60928   5.62686
 Alpha virt. eigenvalues --    5.65697   5.68538   5.75565   5.76898   5.77808
 Alpha virt. eigenvalues --    5.78914   5.80180   5.81940   5.85693   5.86718
 Alpha virt. eigenvalues --    5.88618   5.90501   5.99839   6.00478   6.03909
 Alpha virt. eigenvalues --    6.05911   6.06535   6.08094   6.09853   6.11795
 Alpha virt. eigenvalues --    6.12362   6.14850   6.17186   6.18742   6.19932
 Alpha virt. eigenvalues --    6.21516   6.23381   6.27538   6.30533   6.33690
 Alpha virt. eigenvalues --    6.34387   6.34988   6.36400   6.36712   6.38440
 Alpha virt. eigenvalues --    6.39590   6.40537   6.41074   6.47910   6.49401
 Alpha virt. eigenvalues --    6.50468   6.53507   6.55481   6.57223   6.62523
 Alpha virt. eigenvalues --    6.64136   6.65126   6.70332   6.72783   6.78185
 Alpha virt. eigenvalues --    6.79751   6.85797   6.87437   6.88557   6.90854
 Alpha virt. eigenvalues --    6.92492   6.93843   7.00513   7.01284   7.08003
 Alpha virt. eigenvalues --    7.11962   7.15154   7.17336   7.19168   7.21663
 Alpha virt. eigenvalues --    7.24948   7.26825   7.32891   7.35936   7.44025
 Alpha virt. eigenvalues --    7.47396   7.51116   7.53754   7.54523   7.57568
 Alpha virt. eigenvalues --    7.61278   7.62827   7.64313   7.66479   7.68081
 Alpha virt. eigenvalues --    7.68697   7.70917   7.73783   7.74963   7.76364
 Alpha virt. eigenvalues --    7.76739   7.81104   7.86360   7.90708   7.92909
 Alpha virt. eigenvalues --    7.95257   7.96261   8.05823   8.10109   8.11934
 Alpha virt. eigenvalues --    8.13631   8.15526   8.17190   8.21449   8.23732
 Alpha virt. eigenvalues --    8.29724   8.30281   8.33401   8.33903   8.34864
 Alpha virt. eigenvalues --    8.35455   8.37627   8.38490   8.41207   8.44270
 Alpha virt. eigenvalues --    8.47106   8.49252   8.53277   8.54850   8.56889
 Alpha virt. eigenvalues --    8.58436   8.59907   8.60894   8.64746   8.69899
 Alpha virt. eigenvalues --    8.72336   8.75390   8.75470   8.80273   8.83064
 Alpha virt. eigenvalues --    8.86427   8.88364   8.93198   9.02737   9.12846
 Alpha virt. eigenvalues --    9.17431   9.21450   9.27378   9.33131   9.42644
 Alpha virt. eigenvalues --    9.57592   9.63378   9.72860   9.82896   9.85156
 Alpha virt. eigenvalues --    9.88321   9.90899   9.95936   9.96463  10.04871
 Alpha virt. eigenvalues --   10.08667  10.14845  10.21967  10.26220  10.27536
 Alpha virt. eigenvalues --   10.32026  10.35716  10.41416  10.68605  10.80184
 Alpha virt. eigenvalues --   11.06156  11.18977  11.47793  11.61335  11.85425
 Alpha virt. eigenvalues --   11.89495  12.86140  13.02147  13.16441  13.20994
 Alpha virt. eigenvalues --   28.61662  28.75986  29.46773  29.63710 148.20882
 Alpha virt. eigenvalues --  148.33901 149.06039 149.23743
          Condensed to atoms (all electrons):
               1          2          3          4          5          6
     1  C    4.842171   0.613035  -0.079655  -0.002177   0.424875   0.425404
     2  C    0.613035   4.838479   0.400120  -0.081454  -0.046636  -0.047411
     3  C   -0.079655   0.400120   4.836354   0.619915   0.007669  -0.007404
     4  C   -0.002177  -0.081454   0.619915   4.838299  -0.000662   0.000230
     5  H    0.424875  -0.046636   0.007669  -0.000662   0.582277  -0.043904
     6  H    0.425404  -0.047411  -0.007404   0.000230  -0.043904   0.592372
     7  H   -0.046863   0.410439  -0.062635  -0.001739  -0.009307   0.007476
     8  H   -0.000672  -0.056483   0.407451  -0.047130  -0.000176   0.004376
     9  H    0.000274  -0.007427  -0.043819   0.425045  -0.000039   0.000045
    10  H   -0.000617   0.007470  -0.045228   0.424119   0.000027  -0.000033
               7          8          9         10
     1  C   -0.046863  -0.000672   0.000274  -0.000617
     2  C    0.410439  -0.056483  -0.007427   0.007470
     3  C   -0.062635   0.407451  -0.043819  -0.045228
     4  C   -0.001739  -0.047130   0.425045   0.424119
     5  H   -0.009307  -0.000176  -0.000039   0.000027
     6  H    0.007476   0.004376   0.000045  -0.000033
     7  H    0.636256   0.006800   0.004512  -0.000088
     8  H    0.006800   0.632580   0.007283  -0.009021
     9  H    0.004512   0.007283   0.595441  -0.047206
    10  H   -0.000088  -0.009021  -0.047206   0.588211
 Mulliken charges:
               1
     1  C   -0.175776
     2  C   -0.030132
     3  C   -0.032767
     4  C   -0.174446
     5  H    0.085875
     6  H    0.068849
     7  H    0.055149
     8  H    0.054991
     9  H    0.065891
    10  H    0.082366
 Sum of Mulliken charges =   0.00000
 Mulliken charges with hydrogens summed into heavy atoms:
               1
     1  C   -0.021052
     2  C    0.025018
     3  C    0.022224
     4  C   -0.026190
 Electronic spatial extent (au):  <R**2>=            336.9276
 Charge=              0.0000 electrons
 Dipole moment (field-independent basis, Debye):
    X=             -0.0377    Y=              0.0008    Z=              0.1497  Tot=              0.1543
 Quadrupole moment (field-independent basis, Debye-Ang):
   XX=            -23.4644   YY=            -23.0712   ZZ=            -29.3295
   XY=              0.2769   XZ=             -0.1844   YZ=              0.0173
 Traceless Quadrupole moment (field-independent basis, Debye-Ang):
   XX=              1.8240   YY=              2.2172   ZZ=             -4.0412
   XY=              0.2769   XZ=             -0.1844   YZ=              0.0173
 Octapole moment (field-independent basis, Debye-Ang**2):
  XXX=             -0.2104  YYY=              0.1636  ZZZ=              0.2507  XYY=             -0.0885
  XXY=             -0.3078  XXZ=              1.0892  XZZ=             -0.0421  YZZ=             -0.0057
  YYZ=              0.3086  XYZ=             -0.0626
 Hexadecapole moment (field-independent basis, Debye-Ang**3):
 XXXX=           -345.9241 YYYY=            -65.6596 ZZZZ=            -37.0326 XXXY=             -4.5590
 XXXZ=             -1.7790 YYYX=              2.2346 YYYZ=             -0.0421 ZZZX=             -0.2914
 ZZZY=              0.0308 XXYY=            -68.4319 XXZZ=            -77.5054 YYZZ=            -19.3867
 XXYZ=              0.3217 YYXZ=             -0.1237 ZZXY=              0.5636
 N-N= 1.036026823339D+02 E-N=-5.680790821241D+02  KE= 1.550594441358D+02
 Leave Link  601 at Wed Aug 26 13:29:20 2020, MaxMem=  2097152000 cpu:         0.7
 (Enter /opt/cluster/programs/g09/g09_d.01/g09/l9999.exe)
 1\1\GINC-NODE26\SP\RB2PLYPD3-FC\def2QZVP\C4H6\BOITTIER\26-Aug-2020\0\\
 #p B2PLYPD3/Def2QZVP\\butadiene\\0,1\C,0,-3.851078,0.215421,-0.003242\
 C,0,-2.721576,-0.489386,0.061811\C,0,-1.376282,0.089504,0.041765\C,0,-
 0.265442,-0.668719,0.017744\H,0,-4.824579,-0.279309,0.001462\H,0,-3.84
 0962,1.289911,-0.048072\H,0,-2.734831,-1.584663,0.04489\H,0,-1.273159,
 1.184644,-0.018131\H,0,-0.279402,-1.740692,0.021292\H,0,0.710246,-0.22
 5642,-0.087782\\Version=ES64L-G09RevD.01\State=1-A\HF=-155.6998968\MP2
 =-155.9258544\RMSD=5.247e-09\PG=C01 [X(C4H6)]\\@


    THE DOUGHNUT CREED
 AS YOU RAMBLE ON THROUGH LIFE, BROTHER
 WHATEVER BE YOUR GOAL
 KEEP YOUR EYE UPON THE DOUGHNUT
 AND NOT UPON THE HOLE.
 Job cpu time:       0 days  0 hours 35 minutes 49.8 seconds.
 File lengths (MBytes):  RWF=     92 Int=      0 D2E=      0 Chk=      9 Scr=      1
 Normal termination of Gaussian 09 at Wed Aug 26 13:29:20 2020.
