 Entering Gaussian System, Link 0=/opt/cluster/programs/g09/g09_d.01/g09//g09
 Input=/home/boittier/MDCM/big_basis_set/butadiene/butadiene_opt_freq.com
 Output=/scratch/boittier/butadiene_opt_freq/butadiene_opt_freq.out
 Initial command:
 /opt/cluster/programs/g09/g09_d.01/g09/l1.exe "/scratch/boittier/butadiene_opt_freq/Gau-96064.inp" -scrdir="/scratch/boittier/butadiene_opt_freq/"
 Entering Link 1 = /opt/cluster/programs/g09/g09_d.01/g09/l1.exe PID=     96065.
  
 Copyright (c) 1988,1990,1992,1993,1995,1998,2003,2009,2013,
            Gaussian, Inc.  All Rights Reserved.
  
 This is part of the Gaussian(R) 09 program.  It is based on
 the Gaussian(R) 03 system (copyright 2003, Gaussian, Inc.),
 the Gaussian(R) 98 system (copyright 1998, Gaussian, Inc.),
 the Gaussian(R) 94 system (copyright 1995, Gaussian, Inc.),
 the Gaussian 92(TM) system (copyright 1992, Gaussian, Inc.),
 the Gaussian 90(TM) system (copyright 1990, Gaussian, Inc.),
 the Gaussian 88(TM) system (copyright 1988, Gaussian, Inc.),
 the Gaussian 86(TM) system (copyright 1986, Carnegie Mellon
 University), and the Gaussian 82(TM) system (copyright 1983,
 Carnegie Mellon University). Gaussian is a federally registered
 trademark of Gaussian, Inc.
  
 This software contains proprietary and confidential information,
 including trade secrets, belonging to Gaussian, Inc.
  
 This software is provided under written license and may be
 used, copied, transmitted, or stored only in accord with that
 written license.
  
 The following legend is applicable only to US Government
 contracts under FAR:
  
                    RESTRICTED RIGHTS LEGEND
  
 Use, reproduction and disclosure by the US Government is
 subject to restrictions as set forth in subparagraphs (a)
 and (c) of the Commercial Computer Software - Restricted
 Rights clause in FAR 52.227-19.
  
 Gaussian, Inc.
 340 Quinnipiac St., Bldg. 40, Wallingford CT 06492
  
  
 ---------------------------------------------------------------
 Warning -- This program may not be used in any manner that
 competes with the business of Gaussian, Inc. or will provide
 assistance to any competitor of Gaussian, Inc.  The licensee
 of this program is prohibited from giving any competitor of
 Gaussian, Inc. access to this program.  By using this program,
 the user acknowledges that Gaussian, Inc. is engaged in the
 business of creating and licensing software in the field of
 computational chemistry and represents and warrants to the
 licensee that it is not a competitor of Gaussian, Inc. and that
 it will not use this program in any manner prohibited above.
 ---------------------------------------------------------------
  

 Cite this work as:
 Gaussian 09, Revision D.01,
 M. J. Frisch, G. W. Trucks, H. B. Schlegel, G. E. Scuseria, 
 M. A. Robb, J. R. Cheeseman, G. Scalmani, V. Barone, B. Mennucci, 
 G. A. Petersson, H. Nakatsuji, M. Caricato, X. Li, H. P. Hratchian, 
 A. F. Izmaylov, J. Bloino, G. Zheng, J. L. Sonnenberg, M. Hada, 
 M. Ehara, K. Toyota, R. Fukuda, J. Hasegawa, M. Ishida, T. Nakajima, 
 Y. Honda, O. Kitao, H. Nakai, T. Vreven, J. A. Montgomery, Jr., 
 J. E. Peralta, F. Ogliaro, M. Bearpark, J. J. Heyd, E. Brothers, 
 K. N. Kudin, V. N. Staroverov, T. Keith, R. Kobayashi, J. Normand, 
 K. Raghavachari, A. Rendell, J. C. Burant, S. S. Iyengar, J. Tomasi, 
 M. Cossi, N. Rega, J. M. Millam, M. Klene, J. E. Knox, J. B. Cross, 
 V. Bakken, C. Adamo, J. Jaramillo, R. Gomperts, R. E. Stratmann, 
 O. Yazyev, A. J. Austin, R. Cammi, C. Pomelli, J. W. Ochterski, 
 R. L. Martin, K. Morokuma, V. G. Zakrzewski, G. A. Voth, 
 P. Salvador, J. J. Dannenberg, S. Dapprich, A. D. Daniels, 
 O. Farkas, J. B. Foresman, J. V. Ortiz, J. Cioslowski, 
 and D. J. Fox, Gaussian, Inc., Wallingford CT, 2013.
 
 ******************************************
 Gaussian 09:  ES64L-G09RevD.01 24-Apr-2013
                20-Aug-2020 
 ******************************************
 %chk=butadiene_opt.chk
 %nproc=8
 Will use up to    8 processors via shared memory.
 %mem=16GB
 -------------------------------------
 #p B2PLYPD3/Def2QZVP opt freq=NoRaman
 -------------------------------------
 1/18=20,19=15,38=1/1,3;
 2/9=110,12=2,17=6,18=5,40=1/2;
 3/5=45,7=101,11=9,16=1,25=1,30=1,71=1,74=-60/1,2,3;
 4//1;
 5/5=2,38=5/2;
 8/6=4,10=1/1;
 9/15=2,16=-3/6;
 10/5=1/2;
 6/7=2,8=2,9=2,10=2/1;
 7/12=2/1,2,3,16;
 1/18=20,19=15/3(2);
 2/9=110/2;
 99//99;
 2/9=110/2;
 3/5=45,7=101,11=9,16=1,25=1,30=1,71=1,74=-60/1,2,3;
 4/5=5,16=3,69=1/1;
 5/5=2,38=5/2;
 8/6=4,10=1/1;
 9/15=2,16=-3/6;
 10/5=1/2;
 7/12=2/1,2,3,16;
 1/18=20,19=15/3(-8);
 2/9=110/2;
 6/7=2,8=2,9=2,10=2/1;
 99//99;
 Leave Link    1 at Thu Aug 20 12:33:32 2020, MaxMem=  2147483648 cpu:         2.2
 (Enter /opt/cluster/programs/g09/g09_d.01/g09/l101.exe)
 -------------
 butadiene_opt
 -------------
 Symbolic Z-matrix:
 Charge =  0 Multiplicity = 1
 C                    -3.82991   0.22932   0.01807 
 C                    -2.71215  -0.50542   0.03556 
 C                    -1.3925    0.07484   0.01401 
 C                    -0.27408  -0.65924   0.03149 
 H                    -4.80373  -0.24993   0.03546 
 H                    -3.80895   1.31395  -0.01363 
 H                    -2.79198  -1.59006   0.06747 
 H                    -1.31291   1.15953  -0.01789 
 H                    -0.29448  -1.74388   0.06318 
 H                     0.69942  -0.17937   0.01408 
 
 NAtoms=     10 NQM=       10 NQMF=       0 NMMI=      0 NMMIF=      0
                NMic=       0 NMicF=      0.
                    Isotopes and Nuclear Properties:
 (Nuclear quadrupole moments (NQMom) in fm**2, nuclear magnetic moments (NMagM)
  in nuclear magnetons)

  Atom         1           2           3           4           5           6           7           8           9          10
 IAtWgt=          12          12          12          12           1           1           1           1           1           1
 AtmWgt=  12.0000000  12.0000000  12.0000000  12.0000000   1.0078250   1.0078250   1.0078250   1.0078250   1.0078250   1.0078250
 NucSpn=           0           0           0           0           1           1           1           1           1           1
 AtZEff=   0.0000000   0.0000000   0.0000000   0.0000000   0.0000000   0.0000000   0.0000000   0.0000000   0.0000000   0.0000000
 NQMom=    0.0000000   0.0000000   0.0000000   0.0000000   0.0000000   0.0000000   0.0000000   0.0000000   0.0000000   0.0000000
 NMagM=    0.0000000   0.0000000   0.0000000   0.0000000   2.7928460   2.7928460   2.7928460   2.7928460   2.7928460   2.7928460
 AtZNuc=   6.0000000   6.0000000   6.0000000   6.0000000   1.0000000   1.0000000   1.0000000   1.0000000   1.0000000   1.0000000
 Leave Link  101 at Thu Aug 20 12:33:33 2020, MaxMem=  2147483648 cpu:         3.1
 (Enter /opt/cluster/programs/g09/g09_d.01/g09/l103.exe)

 GradGradGradGradGradGradGradGradGradGradGradGradGradGradGradGradGradGrad
 Berny optimization.
 Initialization pass.
                           ----------------------------
                           !    Initial Parameters    !
                           ! (Angstroms and Degrees)  !
 --------------------------                            --------------------------
 ! Name  Definition              Value          Derivative Info.                !
 --------------------------------------------------------------------------------
 ! R1    R(1,2)                  1.3377         estimate D2E/DX2                !
 ! R2    R(1,5)                  1.0855         estimate D2E/DX2                !
 ! R3    R(1,6)                  1.0853         estimate D2E/DX2                !
 ! R4    R(2,3)                  1.4417         estimate D2E/DX2                !
 ! R5    R(2,7)                  1.088          estimate D2E/DX2                !
 ! R6    R(3,4)                  1.3379         estimate D2E/DX2                !
 ! R7    R(3,8)                  1.0881         estimate D2E/DX2                !
 ! R8    R(4,9)                  1.0853         estimate D2E/DX2                !
 ! R9    R(4,10)                 1.0855         estimate D2E/DX2                !
 ! A1    A(2,1,5)              120.4573         estimate D2E/DX2                !
 ! A2    A(2,1,6)              122.2185         estimate D2E/DX2                !
 ! A3    A(5,1,6)              117.3242         estimate D2E/DX2                !
 ! A4    A(1,2,3)              122.9257         estimate D2E/DX2                !
 ! A5    A(1,2,7)              119.1175         estimate D2E/DX2                !
 ! A6    A(3,2,7)              117.9568         estimate D2E/DX2                !
 ! A7    A(2,3,4)              122.9648         estimate D2E/DX2                !
 ! A8    A(2,3,8)              117.944          estimate D2E/DX2                !
 ! A9    A(4,3,8)              119.0912         estimate D2E/DX2                !
 ! A10   A(3,4,9)              122.2089         estimate D2E/DX2                !
 ! A11   A(3,4,10)             120.4596         estimate D2E/DX2                !
 ! A12   A(9,4,10)             117.3315         estimate D2E/DX2                !
 ! D1    D(5,1,2,3)            180.0            estimate D2E/DX2                !
 ! D2    D(5,1,2,7)             -0.0009         estimate D2E/DX2                !
 ! D3    D(6,1,2,3)              0.0007         estimate D2E/DX2                !
 ! D4    D(6,1,2,7)            179.9998         estimate D2E/DX2                !
 ! D5    D(1,2,3,4)            179.9994         estimate D2E/DX2                !
 ! D6    D(1,2,3,8)             -0.0002         estimate D2E/DX2                !
 ! D7    D(7,2,3,4)              0.0002         estimate D2E/DX2                !
 ! D8    D(7,2,3,8)           -179.9994         estimate D2E/DX2                !
 ! D9    D(2,3,4,9)              0.0005         estimate D2E/DX2                !
 ! D10   D(2,3,4,10)           179.9999         estimate D2E/DX2                !
 ! D11   D(8,3,4,9)           -179.9999         estimate D2E/DX2                !
 ! D12   D(8,3,4,10)            -0.0005         estimate D2E/DX2                !
 --------------------------------------------------------------------------------
 Trust Radius=3.00D-01 FncErr=1.00D-07 GrdErr=1.00D-07
 Number of steps in this run=     43 maximum allowed number of steps=    100.
 GradGradGradGradGradGradGradGradGradGradGradGradGradGradGradGradGradGrad

 Leave Link  103 at Thu Aug 20 12:33:33 2020, MaxMem=  2147483648 cpu:         0.1
 (Enter /opt/cluster/programs/g09/g09_d.01/g09/l202.exe)
                          Input orientation:                          
 ---------------------------------------------------------------------
 Center     Atomic      Atomic             Coordinates (Angstroms)
 Number     Number       Type             X           Y           Z
 ---------------------------------------------------------------------
      1          6           0       -3.829910    0.229320    0.018070
      2          6           0       -2.712150   -0.505420    0.035560
      3          6           0       -1.392500    0.074840    0.014010
      4          6           0       -0.274080   -0.659240    0.031490
      5          1           0       -4.803730   -0.249930    0.035460
      6          1           0       -3.808950    1.313950   -0.013630
      7          1           0       -2.791980   -1.590060    0.067470
      8          1           0       -1.312910    1.159530   -0.017890
      9          1           0       -0.294480   -1.743880    0.063180
     10          1           0        0.699420   -0.179370    0.014080
 ---------------------------------------------------------------------
                    Distance matrix (angstroms):
                    1          2          3          4          5
     1  C    0.000000
     2  C    1.337735   0.000000
     3  C    2.442304   1.441750   0.000000
     4  C    3.665194   2.442921   1.337925   0.000000
     5  H    1.085499   2.107126   3.426722   4.548107   0.000000
     6  H    1.085296   2.124970   2.715767   4.048558   1.854108
     7  H    2.095205   1.088042   2.175614   2.684686   2.417460
     8  H    2.683631   2.175497   1.088074   2.095121   3.765003
     9  H    4.049052   2.716556   2.125043   1.085295   4.750367
    10  H    4.547733   3.427182   2.107309   1.085486   5.503644
                    6          7          8          9         10
     6  H    0.000000
     7  H    3.077999   0.000000
     8  H    2.500816   3.123328   0.000000
     9  H    4.659155   2.502236   3.077915   0.000000
    10  H    4.749334   3.766002   2.417260   1.854168   0.000000
 Stoichiometry    C4H6
 Framework group  C1[X(C4H6)]
 Deg. of freedom    24
 Full point group                 C1      NOp   1
 Largest Abelian subgroup         C1      NOp   1
 Largest concise Abelian subgroup C1      NOp   1
                         Standard orientation:                         
 ---------------------------------------------------------------------
 Center     Atomic      Atomic             Coordinates (Angstroms)
 Number     Number       Type             X           Y           Z
 ---------------------------------------------------------------------
      1          6           0        1.829017   -0.112602    0.000003
      2          6           0        0.595921    0.406061   -0.000004
      3          6           0       -0.595647   -0.405608   -0.000002
      4          6           0       -1.829271    0.112286    0.000003
      5          1           0        2.699002    0.536578    0.000001
      6          1           0        2.006385   -1.183306   -0.000001
      7          1           0        0.476432    1.487522    0.000003
      8          1           0       -0.475913   -1.487073    0.000001
      9          1           0       -2.007192    1.182898   -0.000002
     10          1           0       -2.698829   -0.537445    0.000001
 ---------------------------------------------------------------------
 Rotational constants (GHZ):     41.7123569      4.5092514      4.0693414
 Leave Link  202 at Thu Aug 20 12:33:33 2020, MaxMem=  2147483648 cpu:         0.0
 (Enter /opt/cluster/programs/g09/g09_d.01/g09/l301.exe)
 Standard basis: def2QZVP (5D, 7F)
 Ernie: Thresh=  0.10000D-02 Tol=  0.10000D-05 Strict=F.
 There are   498 symmetry adapted cartesian basis functions of A   symmetry.
 There are   408 symmetry adapted basis functions of A   symmetry.
   408 basis functions,   596 primitive gaussians,   498 cartesian basis functions
    15 alpha electrons       15 beta electrons
       nuclear repulsion energy       104.1576067279 Hartrees.
 IExCor=  419 DFT=T Ex+Corr=B2PLYPD3 ExCW=0 ScaHFX=  0.530000
 ScaDFX=  0.470000  0.470000  0.730000  0.730000 ScalE2=  0.270000  0.270000
 IRadAn=      0 IRanWt=     -1 IRanGd=            0 ICorTp=0 IEmpDi=141
 NAtoms=   10 NActive=   10 NUniq=   10 SFac= 1.00D+00 NAtFMM=   60 NAOKFM=F Big=F
 Integral buffers will be    131072 words long.
 Regular integral format.
 Two-electron integral symmetry is turned on.
 R6Disp:  Grimme-D3(BJ) Dispersion energy=       -0.0048448412 Hartrees.
 Nuclear repulsion after empirical dispersion term =      104.1527618867 Hartrees.
 Leave Link  301 at Thu Aug 20 12:33:33 2020, MaxMem=  2147483648 cpu:         0.4
 (Enter /opt/cluster/programs/g09/g09_d.01/g09/l302.exe)
 NPDir=0 NMtPBC=     1 NCelOv=     1 NCel=       1 NClECP=     1 NCelD=      1
         NCelK=      1 NCelE2=     1 NClLst=     1 CellRange=     0.0.
 One-electron integrals computed using PRISM.
   1 Symmetry operations used in ECPInt.
 ECPInt:  NShTT=    8256 NPrTT=   19107 LenC2=    8061 LenP2D=   16118.
 LDataN:  DoStor=T MaxTD1= 8 Len=  415
 NBasis=   408 RedAO= T EigKep=  4.27D-05  NBF=   408
 NBsUse=   408 1.00D-06 EigRej= -1.00D+00 NBFU=   408
 Precomputing XC quadrature grid using
 IXCGrd= 4 IRadAn=           0 IRanWt=          -1 IRanGd=           0 AccXCQ= 0.00D+00.
 Generated NRdTot=       0 NPtTot=           0 NUsed=           0 NTot=          32
 NSgBfM=   498   498   498   498   498 MxSgAt=    10 MxSgA2=    10.
 Leave Link  302 at Thu Aug 20 12:33:34 2020, MaxMem=  2147483648 cpu:         3.0
 (Enter /opt/cluster/programs/g09/g09_d.01/g09/l303.exe)
 DipDrv:  MaxL=1.
 Leave Link  303 at Thu Aug 20 12:33:34 2020, MaxMem=  2147483648 cpu:         0.3
 (Enter /opt/cluster/programs/g09/g09_d.01/g09/l401.exe)
 ExpMin= 7.60D-02 ExpMax= 6.70D+04 ExpMxC= 6.47D+02 IAcc=2 IRadAn=         4 AccDes= 0.00D+00
 Harris functional with IExCor=  419 and IRadAn=       4 diagonalized for initial guess.
 HarFok:  IExCor=  419 AccDes= 0.00D+00 IRadAn=         4 IDoV= 1 UseB2=F ITyADJ=14
 ICtDFT=  3500011 ScaDFX=  1.000000  1.000000  1.000000  1.000000
 FoFCou: FMM=F IPFlag=           0 FMFlag=      100000 FMFlg1=           0
         NFxFlg=           0 DoJE=T BraDBF=F KetDBF=T FulRan=T
         wScrn=  0.000000 ICntrl=     500 IOpCl=  0 I1Cent=   200000004 NGrid=           0
         NMat0=    1 NMatS0=      1 NMatT0=    0 NMatD0=    1 NMtDS0=    0 NMtDT0=    0
 Petite list used in FoFCou.
 Harris En= -156.136447633983    
 JPrj=0 DoOrth=F DoCkMO=F.
 Leave Link  401 at Thu Aug 20 12:33:35 2020, MaxMem=  2147483648 cpu:         7.8
 (Enter /opt/cluster/programs/g09/g09_d.01/g09/l502.exe)
 Closed shell SCF:
 Using DIIS extrapolation, IDIIS=  1040.
 Integral symmetry usage will be decided dynamically.
 IVT=      770090 IEndB=      770090 NGot=  2147483648 MDV=  2146978701
 LenX=  2146978701 LenY=  2146730199
 Requested convergence on RMS density matrix=1.00D-08 within 128 cycles.
 Requested convergence on MAX density matrix=1.00D-06.
 Requested convergence on             energy=1.00D-06.
 No special actions if energy rises.
 Fock matrices will be formed incrementally for  20 cycles.
 Integral accuracy reduced to 1.0D-05 until final iterations.

 Cycle   1  Pass 0  IDiag  1:
 FoFJK:  IHMeth= 1 ICntrl=       0 DoSepK=F KAlg= 0 I1Cent=   0 FoldK=F
 IRaf= 940000000 NMat=   1 IRICut=       1 DoRegI=T DoRafI=F ISym2E= 0.
 FoFCou: FMM=F IPFlag=           0 FMFlag=      100000 FMFlg1=           0
         NFxFlg=           0 DoJE=F BraDBF=F KetDBF=F FulRan=T
         wScrn=  0.000000 ICntrl=       0 IOpCl=  0 I1Cent=           0 NGrid=           0
         NMat0=    1 NMatS0=      1 NMatT0=    0 NMatD0=    1 NMtDS0=    0 NMtDT0=    0
 Symmetry not used in FoFCou.
 E= -155.513407447528    
 DIIS: error= 3.93D-02 at cycle   1 NSaved=   1.
 NSaved= 1 IEnMin= 1 EnMin= -155.513407447528     IErMin= 1 ErrMin= 3.93D-02
 ErrMax= 3.93D-02  0.00D+00 EMaxC= 1.00D-01 BMatC= 2.53D-01 BMatP= 2.53D-01
 IDIUse=3 WtCom= 6.07D-01 WtEn= 3.93D-01
 Coeff-Com:  0.100D+01
 Coeff-En:   0.100D+01
 Coeff:      0.100D+01
 Gap=     0.297 Goal=   None    Shift=    0.000
 GapD=    0.297 DampG=1.000 DampE=0.500 DampFc=0.5000 IDamp=-1.
 Damping current iteration by 5.00D-01
 RMSDP=9.48D-04 MaxDP=5.03D-02              OVMax= 1.95D-01

 Cycle   2  Pass 0  IDiag  1:
 RMSU=  4.35D-04    CP:  9.50D-01
 E= -155.612824634527     Delta-E=       -0.099417186999 Rises=F Damp=T
 DIIS: error= 1.23D-02 at cycle   2 NSaved=   2.
 NSaved= 2 IEnMin= 2 EnMin= -155.612824634527     IErMin= 2 ErrMin= 1.23D-02
 ErrMax= 1.23D-02  0.00D+00 EMaxC= 1.00D-01 BMatC= 2.97D-02 BMatP= 2.53D-01
 IDIUse=3 WtCom= 8.77D-01 WtEn= 1.23D-01
 Coeff-Com: -0.295D+00 0.130D+01
 Coeff-En:   0.000D+00 0.100D+01
 Coeff:     -0.259D+00 0.126D+01
 Gap=     0.354 Goal=   None    Shift=    0.000
 RMSDP=2.59D-04 MaxDP=7.77D-03 DE=-9.94D-02 OVMax= 9.53D-02

 Cycle   3  Pass 0  IDiag  1:
 RMSU=  2.47D-04    CP:  9.33D-01  1.10D+00
 E= -155.699129180341     Delta-E=       -0.086304545814 Rises=F Damp=F
 DIIS: error= 4.59D-03 at cycle   3 NSaved=   3.
 NSaved= 3 IEnMin= 3 EnMin= -155.699129180341     IErMin= 3 ErrMin= 4.59D-03
 ErrMax= 4.59D-03  0.00D+00 EMaxC= 1.00D-01 BMatC= 1.95D-03 BMatP= 2.97D-02
 IDIUse=3 WtCom= 9.54D-01 WtEn= 4.59D-02
 Coeff-Com: -0.112D+00 0.227D+00 0.884D+00
 Coeff-En:   0.000D+00 0.000D+00 0.100D+01
 Coeff:     -0.107D+00 0.217D+00 0.890D+00
 Gap=     0.292 Goal=   None    Shift=    0.000
 RMSDP=7.03D-05 MaxDP=4.14D-03 DE=-8.63D-02 OVMax= 2.42D-02

 Cycle   4  Pass 0  IDiag  1:
 RMSU=  5.27D-05    CP:  9.29D-01  1.19D+00  9.27D-01
 E= -155.700595578516     Delta-E=       -0.001466398175 Rises=F Damp=F
 DIIS: error= 3.14D-03 at cycle   4 NSaved=   4.
 NSaved= 4 IEnMin= 4 EnMin= -155.700595578516     IErMin= 4 ErrMin= 3.14D-03
 ErrMax= 3.14D-03  0.00D+00 EMaxC= 1.00D-01 BMatC= 6.61D-04 BMatP= 1.95D-03
 IDIUse=3 WtCom= 9.69D-01 WtEn= 3.14D-02
 Coeff-Com: -0.501D-01 0.815D-01 0.472D+00 0.496D+00
 Coeff-En:   0.000D+00 0.000D+00 0.154D+00 0.846D+00
 Coeff:     -0.485D-01 0.790D-01 0.462D+00 0.507D+00
 Gap=     0.292 Goal=   None    Shift=    0.000
 RMSDP=2.91D-05 MaxDP=1.41D-03 DE=-1.47D-03 OVMax= 9.35D-03

 Cycle   5  Pass 0  IDiag  1:
 RMSU=  1.53D-05    CP:  9.30D-01  1.19D+00  9.70D-01  5.78D-01
 E= -155.701229951064     Delta-E=       -0.000634372548 Rises=F Damp=F
 DIIS: error= 2.95D-04 at cycle   5 NSaved=   5.
 NSaved= 5 IEnMin= 5 EnMin= -155.701229951064     IErMin= 5 ErrMin= 2.95D-04
 ErrMax= 2.95D-04  0.00D+00 EMaxC= 1.00D-01 BMatC= 4.81D-06 BMatP= 6.61D-04
 IDIUse=3 WtCom= 9.97D-01 WtEn= 2.95D-03
 Coeff-Com: -0.291D-02 0.243D-02 0.384D-01 0.993D-01 0.863D+00
 Coeff-En:   0.000D+00 0.000D+00 0.000D+00 0.000D+00 0.100D+01
 Coeff:     -0.290D-02 0.242D-02 0.382D-01 0.990D-01 0.863D+00
 Gap=     0.292 Goal=   None    Shift=    0.000
 RMSDP=3.70D-06 MaxDP=1.17D-04 DE=-6.34D-04 OVMax= 1.22D-03

 Initial convergence to 1.0D-05 achieved.  Increase integral accuracy.
 Cycle   6  Pass 1  IDiag  1:
 E= -155.701262848925     Delta-E=       -0.000032897862 Rises=F Damp=F
 DIIS: error= 5.84D-05 at cycle   1 NSaved=   1.
 NSaved= 1 IEnMin= 1 EnMin= -155.701262848925     IErMin= 1 ErrMin= 5.84D-05
 ErrMax= 5.84D-05  0.00D+00 EMaxC= 1.00D-01 BMatC= 4.31D-07 BMatP= 4.31D-07
 IDIUse=1 WtCom= 1.00D+00 WtEn= 0.00D+00
 Coeff-Com:  0.100D+01
 Coeff:      0.100D+01
 Gap=     0.292 Goal=   None    Shift=    0.000
 RMSDP=3.70D-06 MaxDP=1.17D-04 DE=-3.29D-05 OVMax= 2.81D-04

 Cycle   7  Pass 1  IDiag  1:
 RMSU=  1.43D-05    CP:  1.00D+00
 E= -155.701263169769     Delta-E=       -0.000000320844 Rises=F Damp=F
 DIIS: error= 1.98D-05 at cycle   2 NSaved=   2.
 NSaved= 2 IEnMin= 2 EnMin= -155.701263169769     IErMin= 2 ErrMin= 1.98D-05
 ErrMax= 1.98D-05  0.00D+00 EMaxC= 1.00D-01 BMatC= 1.35D-08 BMatP= 4.31D-07
 IDIUse=1 WtCom= 1.00D+00 WtEn= 0.00D+00
 Coeff-Com:  0.239D-01 0.976D+00
 Coeff:      0.239D-01 0.976D+00
 Gap=     0.292 Goal=   None    Shift=    0.000
 RMSDP=5.63D-07 MaxDP=1.99D-05 DE=-3.21D-07 OVMax= 1.29D-04

 Cycle   8  Pass 1  IDiag  1:
 RMSU=  3.53D-07    CP:  1.00D+00  1.03D+00
 E= -155.701263184733     Delta-E=       -0.000000014964 Rises=F Damp=F
 DIIS: error= 9.74D-06 at cycle   3 NSaved=   3.
 NSaved= 3 IEnMin= 3 EnMin= -155.701263184733     IErMin= 3 ErrMin= 9.74D-06
 ErrMax= 9.74D-06  0.00D+00 EMaxC= 1.00D-01 BMatC= 9.33D-09 BMatP= 1.35D-08
 IDIUse=1 WtCom= 1.00D+00 WtEn= 0.00D+00
 Coeff-Com: -0.177D-01 0.447D+00 0.571D+00
 Coeff:     -0.177D-01 0.447D+00 0.571D+00
 Gap=     0.292 Goal=   None    Shift=    0.000
 RMSDP=1.41D-07 MaxDP=7.34D-06 DE=-1.50D-08 OVMax= 4.86D-05

 Cycle   9  Pass 1  IDiag  1:
 RMSU=  1.37D-07    CP:  1.00D+00  1.03D+00  9.85D-01
 E= -155.701263193865     Delta-E=       -0.000000009131 Rises=F Damp=F
 DIIS: error= 4.81D-06 at cycle   4 NSaved=   4.
 NSaved= 4 IEnMin= 4 EnMin= -155.701263193865     IErMin= 4 ErrMin= 4.81D-06
 ErrMax= 4.81D-06  0.00D+00 EMaxC= 1.00D-01 BMatC= 4.91D-10 BMatP= 9.33D-09
 IDIUse=1 WtCom= 1.00D+00 WtEn= 0.00D+00
 Coeff-Com: -0.818D-02 0.347D-02 0.164D+00 0.840D+00
 Coeff:     -0.818D-02 0.347D-02 0.164D+00 0.840D+00
 Gap=     0.292 Goal=   None    Shift=    0.000
 RMSDP=4.66D-08 MaxDP=1.61D-06 DE=-9.13D-09 OVMax= 2.15D-05

 Cycle  10  Pass 1  IDiag  1:
 RMSU=  3.41D-08    CP:  1.00D+00  1.03D+00  1.07D+00  1.06D+00
 E= -155.701263194674     Delta-E=       -0.000000000810 Rises=F Damp=F
 DIIS: error= 7.69D-07 at cycle   5 NSaved=   5.
 NSaved= 5 IEnMin= 5 EnMin= -155.701263194674     IErMin= 5 ErrMin= 7.69D-07
 ErrMax= 7.69D-07  0.00D+00 EMaxC= 1.00D-01 BMatC= 3.01D-11 BMatP= 4.91D-10
 IDIUse=1 WtCom= 1.00D+00 WtEn= 0.00D+00
 Coeff-Com:  0.977D-03-0.494D-01-0.486D-01 0.124D+00 0.973D+00
 Coeff:      0.977D-03-0.494D-01-0.486D-01 0.124D+00 0.973D+00
 Gap=     0.292 Goal=   None    Shift=    0.000
 RMSDP=1.99D-08 MaxDP=8.02D-07 DE=-8.10D-10 OVMax= 5.70D-06

 Cycle  11  Pass 1  IDiag  1:
 RMSU=  9.74D-09    CP:  1.00D+00  1.03D+00  1.09D+00  1.16D+00  1.17D+00
 E= -155.701263194739     Delta-E=       -0.000000000065 Rises=F Damp=F
 DIIS: error= 9.87D-08 at cycle   6 NSaved=   6.
 NSaved= 6 IEnMin= 6 EnMin= -155.701263194739     IErMin= 6 ErrMin= 9.87D-08
 ErrMax= 9.87D-08  0.00D+00 EMaxC= 1.00D-01 BMatC= 1.04D-12 BMatP= 3.01D-11
 IDIUse=1 WtCom= 1.00D+00 WtEn= 0.00D+00
 Coeff-Com:  0.484D-03-0.154D-01-0.190D-01 0.236D-01 0.290D+00 0.720D+00
 Coeff:      0.484D-03-0.154D-01-0.190D-01 0.236D-01 0.290D+00 0.720D+00
 Gap=     0.292 Goal=   None    Shift=    0.000
 RMSDP=2.19D-09 MaxDP=1.15D-07 DE=-6.50D-11 OVMax= 4.44D-07

 SCF Done:  E(RB2PLYPD3) =  -155.701263195     A.U. after   11 cycles
            NFock= 11  Conv=0.22D-08     -V/T= 2.0038
 KE= 1.551122257338D+02 PE=-5.692334950330D+02 EE= 1.542672442177D+02
 Leave Link  502 at Thu Aug 20 12:36:05 2020, MaxMem=  2147483648 cpu:      1196.9
 (Enter /opt/cluster/programs/g09/g09_d.01/g09/l801.exe)
 DoSCS=T DFT=T ScalE2(SS,OS)=  0.270000  0.270000
 ExpMin= 7.60D-02 ExpMax= 6.70D+04 ExpMxC= 6.47D+02 IAcc=3 IRadAn=         5 AccDes= 0.00D+00
 HarFok:  IExCor=  205 AccDes= 0.00D+00 IRadAn=         5 IDoV=-2 UseB2=F ITyADJ=14
 ICtDFT= 12500011 ScaDFX=  1.000000  1.000000  1.000000  1.000000
 Largest valence mixing into a core orbital is  1.12D-04
 Largest core mixing into a valence orbital is  2.00D-05
 Range of M.O.s used for correlation:     5   408
 NBasis=   408 NAE=    15 NBE=    15 NFC=     4 NFV=     0
 NROrb=    404 NOA=    11 NOB=    11 NVA=   393 NVB=   393

 **** Warning!!: The largest alpha MO coefficient is  0.29249528D+02

 Leave Link  801 at Thu Aug 20 12:36:05 2020, MaxMem=  2147483648 cpu:         0.8
 (Enter /opt/cluster/programs/g09/g09_d.01/g09/l906.exe)
 DoSCS=T DFT=T ScalE2(SS,OS)=  0.270000  0.270000
 Frozen-core derivative calculation, NFC=   4 NFV=   0.
 FulOut=F Deriv=T AODrv=T NAtomX=    10
   MMem=          35  MDisk=          11 MDiskD=          11
  W3Min=     3047760 MinDsk=     5885813 NBas6D=         498
 NBas2D=      125763    NTT=      124251    LW2=     9246618
    MDV=  2145715206 MDiskM=        9565 NBas2p=      118653
 Fully direct method using O(ONN) memory.
 IMap=   1   2   3   4   5   6   7   8   9  10  11  12  13  14  15
 JobTyp=1 Pass  1:  I=   5 to   7 NPSUse=  8 ParTrn=T ParDer=T DoDerP=T.
 JobTyp=1 Pass  2:  I=   8 to  10 NPSUse=  8 ParTrn=T ParDer=T DoDerP=T.
 JobTyp=1 Pass  3:  I=  11 to  13 NPSUse=  8 ParTrn=T ParDer=T DoDerP=T.
 JobTyp=1 Pass  4:  I=  14 to  15 NPSUse=  8 ParTrn=T ParDer=T DoDerP=T.
 Spin components of T(2) and E(2):
     alpha-alpha T2 =       0.4209406248D-01 E2=     -0.2544686761D-01
     alpha-beta  T2 =       0.2724680678D+00 E2=     -0.1749949635D+00
     beta-beta   T2 =       0.4209406248D-01 E2=     -0.2544686761D-01
 The integrals were generated   4 times.
 E2(B2PLYPD3) =    -0.2258886987D+00 E(B2PLYPD3) =    -0.15592715189347D+03
 Leave Link  906 at Thu Aug 20 12:54:03 2020, MaxMem=  2147483648 cpu:      8598.4
 (Enter /opt/cluster/programs/g09/g09_d.01/g09/l1002.exe)
 Minotr:  Closed shell wavefunction.
          Computing MP2/KS-MP2 derivatives.
          Using Z-Vector for PSCF gradient.
          Skipping F1 and S1 gradient terms here.
          IDoAtm=1111111111
          Frozen-core window.
          Direct CPHF calculation.
          Differentiating once with respect to electric field.
                with respect to dipole field.
          Differentiating once with respect to nuclear coordinates.
          Requested convergence is 1.0D-10 RMS, and 1.0D-09 maximum.
          NewPWx=F KeepS1=T KeepF1=T KeepIn=T MapXYZ=F SortEE=F KeepMc=T.
          MDV=    2147483140 using IRadAn=       0.
 Using stored XC quadrature information.
          Solving linear equations separately, MaxMat=       0.
          There are     1 degrees of freedom in the 1st order CPHF.  IDoFFX=0 NUNeed=     1.
 FoFJK:  IHMeth= 1 ICntrl=       0 DoSepK=F KAlg= 0 I1Cent=   0 FoldK=F
 IRaf= 950000000 NMat=   1 IRICut=       1 DoRegI=T DoRafI=F ISym2E=-1.
 FoFCou: FMM=F IPFlag=           0 FMFlag=      100000 FMFlg1=           0
         NFxFlg=           0 DoJE=F BraDBF=F KetDBF=F FulRan=T
         wScrn=  0.000000 ICntrl=       0 IOpCl=  0 I1Cent=           0 NGrid=           0
         NMat0=    1 NMatS0=      1 NMatT0=    0 NMatD0=    1 NMtDS0=    0 NMtDT0=    0
 Petite list used in FoFCou.
 LinEq1:  Iter=  0 NonCon=     1 RMS=1.02D-03 Max=2.82D-02 NDo=     1
 AX will form     1 AO Fock derivatives at one time.
 LinEq1:  Iter=  1 NonCon=     1 RMS=4.11D-04 Max=8.88D-03 NDo=     1
 LinEq1:  Iter=  2 NonCon=     1 RMS=1.16D-04 Max=6.15D-03 NDo=     1
 LinEq1:  Iter=  3 NonCon=     1 RMS=6.60D-05 Max=2.08D-03 NDo=     1
 LinEq1:  Iter=  4 NonCon=     1 RMS=1.55D-05 Max=4.96D-04 NDo=     1
 LinEq1:  Iter=  5 NonCon=     1 RMS=2.50D-06 Max=4.88D-05 NDo=     1
 LinEq1:  Iter=  6 NonCon=     1 RMS=2.84D-07 Max=8.42D-06 NDo=     1
 LinEq1:  Iter=  7 NonCon=     1 RMS=5.52D-08 Max=1.94D-06 NDo=     1
 LinEq1:  Iter=  8 NonCon=     1 RMS=3.24D-08 Max=1.43D-06 NDo=     1
 LinEq1:  Iter=  9 NonCon=     1 RMS=9.11D-09 Max=1.43D-07 NDo=     1
 LinEq1:  Iter= 10 NonCon=     1 RMS=2.30D-09 Max=7.11D-08 NDo=     1
 LinEq1:  Iter= 11 NonCon=     1 RMS=6.00D-10 Max=1.54D-08 NDo=     1
 LinEq1:  Iter= 12 NonCon=     1 RMS=2.68D-10 Max=5.94D-09 NDo=     1
 LinEq1:  Iter= 13 NonCon=     0 RMS=4.16D-11 Max=7.93D-10 NDo=     1
 Linear equations converged to 1.000D-10 1.000D-09 after    13 iterations.
 End of Minotr F.D. properties file   721 does not exist.
 End of Minotr F.D. properties file   722 does not exist.
 End of Minotr F.D. properties file   788 does not exist.
 Leave Link 1002 at Thu Aug 20 12:58:38 2020, MaxMem=  2147483648 cpu:      2189.9
 (Enter /opt/cluster/programs/g09/g09_d.01/g09/l601.exe)
 Copying SCF densities to generalized density rwf, IOpCl= 0 IROHF=0.

 **********************************************************************

            Population analysis using the SCF density.

 **********************************************************************

 Orbital symmetries:
       Occupied  (A) (A) (A) (A) (A) (A) (A) (A) (A) (A) (A) (A)
                 (A) (A) (A)
       Virtual   (A) (A) (A) (A) (A) (A) (A) (A) (A) (A) (A) (A)
                 (A) (A) (A) (A) (A) (A) (A) (A) (A) (A) (A) (A)
                 (A) (A) (A) (A) (A) (A) (A) (A) (A) (A) (A) (A)
                 (A) (A) (A) (A) (A) (A) (A) (A) (A) (A) (A) (A)
                 (A) (A) (A) (A) (A) (A) (A) (A) (A) (A) (A) (A)
                 (A) (A) (A) (A) (A) (A) (A) (A) (A) (A) (A) (A)
                 (A) (A) (A) (A) (A) (A) (A) (A) (A) (A) (A) (A)
                 (A) (A) (A) (A) (A) (A) (A) (A) (A) (A) (A) (A)
                 (A) (A) (A) (A) (A) (A) (A) (A) (A) (A) (A) (A)
                 (A) (A) (A) (A) (A) (A) (A) (A) (A) (A) (A) (A)
                 (A) (A) (A) (A) (A) (A) (A) (A) (A) (A) (A) (A)
                 (A) (A) (A) (A) (A) (A) (A) (A) (A) (A) (A) (A)
                 (A) (A) (A) (A) (A) (A) (A) (A) (A) (A) (A) (A)
                 (A) (A) (A) (A) (A) (A) (A) (A) (A) (A) (A) (A)
                 (A) (A) (A) (A) (A) (A) (A) (A) (A) (A) (A) (A)
                 (A) (A) (A) (A) (A) (A) (A) (A) (A) (A) (A) (A)
                 (A) (A) (A) (A) (A) (A) (A) (A) (A) (A) (A) (A)
                 (A) (A) (A) (A) (A) (A) (A) (A) (A) (A) (A) (A)
                 (A) (A) (A) (A) (A) (A) (A) (A) (A) (A) (A) (A)
                 (A) (A) (A) (A) (A) (A) (A) (A) (A) (A) (A) (A)
                 (A) (A) (A) (A) (A) (A) (A) (A) (A) (A) (A) (A)
                 (A) (A) (A) (A) (A) (A) (A) (A) (A) (A) (A) (A)
                 (A) (A) (A) (A) (A) (A) (A) (A) (A) (A) (A) (A)
                 (A) (A) (A) (A) (A) (A) (A) (A) (A) (A) (A) (A)
                 (A) (A) (A) (A) (A) (A) (A) (A) (A) (A) (A) (A)
                 (A) (A) (A) (A) (A) (A) (A) (A) (A) (A) (A) (A)
                 (A) (A) (A) (A) (A) (A) (A) (A) (A) (A) (A) (A)
                 (A) (A) (A) (A) (A) (A) (A) (A) (A) (A) (A) (A)
                 (A) (A) (A) (A) (A) (A) (A) (A) (A) (A) (A) (A)
                 (A) (A) (A) (A) (A) (A) (A) (A) (A) (A) (A) (A)
                 (A) (A) (A) (A) (A) (A) (A) (A) (A) (A) (A) (A)
                 (A) (A) (A) (A) (A) (A) (A) (A) (A) (A) (A) (A)
                 (A) (A) (A) (A) (A) (A) (A) (A) (A)
 The electronic state is 1-A.
 Alpha  occ. eigenvalues --  -10.62492 -10.62430 -10.61540 -10.61539  -0.93123
 Alpha  occ. eigenvalues --   -0.84752  -0.70031  -0.64089  -0.54357  -0.54107
 Alpha  occ. eigenvalues --   -0.46251  -0.45617  -0.41419  -0.38243  -0.27501
 Alpha virt. eigenvalues --    0.01725   0.07020   0.07354   0.08019   0.09572
 Alpha virt. eigenvalues --    0.11714   0.12368   0.14774   0.15940   0.16072
 Alpha virt. eigenvalues --    0.18703   0.20575   0.21541   0.22827   0.23889
 Alpha virt. eigenvalues --    0.26906   0.27062   0.29041   0.31930   0.34838
 Alpha virt. eigenvalues --    0.36011   0.36948   0.37892   0.38755   0.40350
 Alpha virt. eigenvalues --    0.43499   0.44089   0.45275   0.47238   0.48562
 Alpha virt. eigenvalues --    0.49310   0.49320   0.51406   0.55405   0.57014
 Alpha virt. eigenvalues --    0.58087   0.59309   0.64363   0.66899   0.68595
 Alpha virt. eigenvalues --    0.68945   0.72312   0.77284   0.77329   0.79283
 Alpha virt. eigenvalues --    0.79562   0.80658   0.81382   0.82400   0.84335
 Alpha virt. eigenvalues --    0.84465   0.85906   0.86081   0.86959   0.90227
 Alpha virt. eigenvalues --    0.92070   0.93514   0.93596   0.95869   0.96681
 Alpha virt. eigenvalues --    0.98898   0.99332   1.00155   1.03076   1.05849
 Alpha virt. eigenvalues --    1.06160   1.09131   1.10925   1.11804   1.12782
 Alpha virt. eigenvalues --    1.14575   1.19126   1.19470   1.19628   1.23498
 Alpha virt. eigenvalues --    1.24196   1.24957   1.34420   1.34657   1.36524
 Alpha virt. eigenvalues --    1.37711   1.40960   1.47541   1.64706   1.66468
 Alpha virt. eigenvalues --    1.67673   1.68046   1.68832   1.72050   1.73273
 Alpha virt. eigenvalues --    1.74145   1.80967   1.82975   1.83742   1.89051
 Alpha virt. eigenvalues --    1.89381   1.90556   1.90594   1.93860   1.94048
 Alpha virt. eigenvalues --    1.94071   1.99104   2.00588   2.00614   2.01893
 Alpha virt. eigenvalues --    2.03887   2.06422   2.07024   2.08103   2.10042
 Alpha virt. eigenvalues --    2.10474   2.10778   2.13826   2.16678   2.18387
 Alpha virt. eigenvalues --    2.19487   2.21524   2.23890   2.26849   2.29488
 Alpha virt. eigenvalues --    2.31453   2.31800   2.33476   2.37500   2.43104
 Alpha virt. eigenvalues --    2.44704   2.45765   2.46384   2.48974   2.50773
 Alpha virt. eigenvalues --    2.52653   2.53550   2.56111   2.56845   2.57456
 Alpha virt. eigenvalues --    2.58876   2.62849   2.63293   2.64123   2.64400
 Alpha virt. eigenvalues --    2.66920   2.69639   2.70089   2.71219   2.71274
 Alpha virt. eigenvalues --    2.73096   2.75531   2.77655   2.77781   2.79647
 Alpha virt. eigenvalues --    2.81081   2.88209   2.91229   2.92356   2.92667
 Alpha virt. eigenvalues --    2.95695   3.04101   3.08109   3.08294   3.09052
 Alpha virt. eigenvalues --    3.11667   3.13775   3.25882   3.35440   3.36869
 Alpha virt. eigenvalues --    3.39796   3.39892   3.44028   3.45159   3.47274
 Alpha virt. eigenvalues --    3.48182   3.50216   3.51598   3.55664   3.60019
 Alpha virt. eigenvalues --    3.60848   3.61760   3.61803   3.70854   3.79479
 Alpha virt. eigenvalues --    3.79789   3.84806   3.86576   3.88576   3.92795
 Alpha virt. eigenvalues --    3.94933   3.96632   3.97221   4.04854   4.16005
 Alpha virt. eigenvalues --    4.17488   4.17812   4.20826   4.23692   4.46034
 Alpha virt. eigenvalues --    4.55090   4.57814   4.58519   4.87350   5.00279
 Alpha virt. eigenvalues --    5.01037   5.02471   5.04782   5.06699   5.06764
 Alpha virt. eigenvalues --    5.12191   5.19115   5.19888   5.29237   5.30559
 Alpha virt. eigenvalues --    5.32714   5.40413   5.44098   5.47722   5.50057
 Alpha virt. eigenvalues --    5.50747   5.54399   5.57756   5.60234   5.62218
 Alpha virt. eigenvalues --    5.64627   5.69031   5.77070   5.77139   5.77277
 Alpha virt. eigenvalues --    5.79903   5.80120   5.81428   5.85846   5.86920
 Alpha virt. eigenvalues --    5.88690   5.90212   6.01295   6.01295   6.05160
 Alpha virt. eigenvalues --    6.05944   6.06827   6.07585   6.09513   6.11609
 Alpha virt. eigenvalues --    6.13598   6.15263   6.17201   6.17546   6.21991
 Alpha virt. eigenvalues --    6.22116   6.22249   6.28325   6.30487   6.35044
 Alpha virt. eigenvalues --    6.35325   6.35835   6.37147   6.38852   6.38880
 Alpha virt. eigenvalues --    6.39518   6.40234   6.41742   6.50197   6.50305
 Alpha virt. eigenvalues --    6.51662   6.55864   6.56084   6.56406   6.62419
 Alpha virt. eigenvalues --    6.62659   6.64664   6.70182   6.70595   6.81264
 Alpha virt. eigenvalues --    6.83226   6.85936   6.88474   6.90389   6.91604
 Alpha virt. eigenvalues --    6.91636   6.93057   6.99990   7.03611   7.08928
 Alpha virt. eigenvalues --    7.12533   7.15126   7.18217   7.20604   7.23795
 Alpha virt. eigenvalues --    7.27425   7.27813   7.34965   7.37252   7.43894
 Alpha virt. eigenvalues --    7.47721   7.49779   7.55609   7.56676   7.60342
 Alpha virt. eigenvalues --    7.60792   7.65242   7.65721   7.66215   7.66787
 Alpha virt. eigenvalues --    7.67620   7.71082   7.73685   7.76331   7.76674
 Alpha virt. eigenvalues --    7.77822   7.82774   7.87274   7.92112   7.94613
 Alpha virt. eigenvalues --    7.95984   7.96797   8.07483   8.11495   8.13789
 Alpha virt. eigenvalues --    8.15031   8.15324   8.18402   8.21402   8.24145
 Alpha virt. eigenvalues --    8.30384   8.32491   8.33503   8.34716   8.36010
 Alpha virt. eigenvalues --    8.36018   8.37969   8.39504   8.41651   8.43975
 Alpha virt. eigenvalues --    8.49701   8.50211   8.52988   8.56354   8.57547
 Alpha virt. eigenvalues --    8.58367   8.58884   8.61160   8.68138   8.70486
 Alpha virt. eigenvalues --    8.75131   8.75132   8.76475   8.79803   8.81105
 Alpha virt. eigenvalues --    8.87760   8.89163   8.93955   9.03692   9.14390
 Alpha virt. eigenvalues --    9.21217   9.21679   9.30289   9.32926   9.45252
 Alpha virt. eigenvalues --    9.61407   9.66145   9.75577   9.85376   9.87649
 Alpha virt. eigenvalues --    9.88850   9.92579   9.94712   9.97555  10.04082
 Alpha virt. eigenvalues --   10.07687  10.08207  10.22506  10.28457  10.30184
 Alpha virt. eigenvalues --   10.36235  10.37502  10.47732  10.71272  10.79153
 Alpha virt. eigenvalues --   11.05755  11.07273  11.55171  11.67497  11.89907
 Alpha virt. eigenvalues --   11.89958  12.88964  13.08050  13.15191  13.19024
 Alpha virt. eigenvalues --   28.62302  28.79380  29.46301  29.66135 148.21449
 Alpha virt. eigenvalues --  148.37409 149.05569 149.26401
          Condensed to atoms (all electrons):
               1          2          3          4          5          6
     1  C    4.846539   0.618481  -0.084409  -0.002496   0.424416   0.424828
     2  C    0.618481   4.835992   0.398527  -0.084350  -0.047302  -0.045699
     3  C   -0.084409   0.398527   4.836061   0.618436   0.007852  -0.007602
     4  C   -0.002496  -0.084350   0.618436   4.846645  -0.000690   0.000265
     5  H    0.424416  -0.047302   0.007852  -0.000690   0.585802  -0.044196
     6  H    0.424828  -0.045699  -0.007602   0.000265  -0.044196   0.593479
     7  H   -0.047942   0.412451  -0.059102  -0.001752  -0.009276   0.007440
     8  H   -0.001777  -0.059126   0.412440  -0.047950  -0.000058   0.004394
     9  H    0.000263  -0.007582  -0.045723   0.424804  -0.000035   0.000041
    10  H   -0.000690   0.007846  -0.047288   0.424417   0.000029  -0.000035
               7          8          9         10
     1  C   -0.047942  -0.001777   0.000263  -0.000690
     2  C    0.412451  -0.059126  -0.007582   0.007846
     3  C   -0.059102   0.412440  -0.045723  -0.047288
     4  C   -0.001752  -0.047950   0.424804   0.424417
     5  H   -0.009276  -0.000058  -0.000035   0.000029
     6  H    0.007440   0.004394   0.000041  -0.000035
     7  H    0.631284   0.006603   0.004392  -0.000059
     8  H    0.006603   0.631400   0.007445  -0.009281
     9  H    0.004392   0.007445   0.593521  -0.044191
    10  H   -0.000059  -0.009281  -0.044191   0.585758
 Mulliken charges:
               1
     1  C   -0.177213
     2  C   -0.029236
     3  C   -0.029192
     4  C   -0.177331
     5  H    0.083457
     6  H    0.067086
     7  H    0.055962
     8  H    0.055910
     9  H    0.067065
    10  H    0.083494
 Sum of Mulliken charges =   0.00000
 Mulliken charges with hydrogens summed into heavy atoms:
               1
     1  C   -0.026670
     2  C    0.026725
     3  C    0.026717
     4  C   -0.026772
 Electronic spatial extent (au):  <R**2>=            332.9056
 Charge=              0.0000 electrons
 Dipole moment (field-independent basis, Debye):
    X=              0.0008    Y=              0.0001    Z=              0.0000  Tot=              0.0008
 Quadrupole moment (field-independent basis, Debye-Ang):
   XX=            -23.6782   YY=            -22.9533   ZZ=            -29.3056
   XY=             -0.1554   XZ=              0.0000   YZ=              0.0000
 Traceless Quadrupole moment (field-independent basis, Debye-Ang):
   XX=              1.6342   YY=              2.3591   ZZ=             -3.9932
   XY=             -0.1554   XZ=              0.0000   YZ=              0.0000
 Octapole moment (field-independent basis, Debye-Ang**2):
  XXX=              0.0021  YYY=              0.0013  ZZZ=              0.0000  XYY=              0.0007
  XXY=             -0.0020  XXZ=              0.0000  XZZ=              0.0021  YZZ=              0.0002
  YYZ=              0.0000  XYZ=              0.0000
 Hexadecapole moment (field-independent basis, Debye-Ang**3):
 XXXX=           -343.6833 YYYY=            -65.3761 ZZZZ=            -36.8139 XXXY=              5.3516
 XXXZ=              0.0000 YYYX=             -1.8879 YYYZ=              0.0000 ZZZX=              0.0000
 ZZZY=              0.0000 XXYY=            -67.3561 XXZZ=            -76.6484 YYZZ=            -19.3410
 XXYZ=              0.0000 YYXZ=              0.0000 ZZXY=             -0.4622
 N-N= 1.041527618867D+02 E-N=-5.692334818124D+02  KE= 1.551122257338D+02
 No NMR shielding tensors so no spin-rotation constants.
 Leave Link  601 at Thu Aug 20 12:58:38 2020, MaxMem=  2147483648 cpu:         2.0
 (Enter /opt/cluster/programs/g09/g09_d.01/g09/l701.exe)
 Compute integral first derivatives.
 ... and contract with generalized density number  2.
 R6Disp: Adding Grimme-D3(BJ) dispersion energy 1st derivatives to the gradient.
   1 Symmetry operations used in ECPInt.
 ECPInt:  NShTT=    8256 NPrTT=   19107 LenC2=    8061 LenP2D=   16118.
 LDataN:  DoStor=T MaxTD1= 9 Len=  602
 Leave Link  701 at Thu Aug 20 12:58:38 2020, MaxMem=  2147483648 cpu:         2.3
 (Enter /opt/cluster/programs/g09/g09_d.01/g09/l702.exe)
 L702 exits ... SP integral derivatives will be done elsewhere.
 Leave Link  702 at Thu Aug 20 12:58:39 2020, MaxMem=  2147483648 cpu:         0.1
 (Enter /opt/cluster/programs/g09/g09_d.01/g09/l703.exe)
 Compute integral first derivatives, UseDBF=F ICtDFT=           0.
 Integral derivatives from FoFJK, PRISM(SPDF).
 Calling FoFJK, ICntrl=  10002127 FMM=F ISym2X=0 I1Cent= 0 IOpClX= 0 NMat=1 NMatS=1 NMatT=0.
 FoFJK:  IHMeth= 1 ICntrl=10002127 DoSepK=F KAlg= 0 I1Cent=   0 FoldK=F
 IRaf=         0 NMat=   1 IRICut=       1 DoRegI=T DoRafI=F ISym2E= 0.
 FoFCou: FMM=F IPFlag=           0 FMFlag=      100000 FMFlg1=         800
         NFxFlg=           0 DoJE=F BraDBF=F KetDBF=F FulRan=T
         wScrn=  0.000000 ICntrl=10002127 IOpCl=  0 I1Cent=           0 NGrid=           0
         NMat0=    1 NMatS0=      1 NMatT0=    0 NMatD0=    1 NMtDS0=    0 NMtDT0=    0
 Symmetry not used in FoFCou.
 Leave Link  703 at Thu Aug 20 12:59:41 2020, MaxMem=  2147483648 cpu:       494.3
 (Enter /opt/cluster/programs/g09/g09_d.01/g09/l716.exe)
 Dipole        = 2.74793364D-04 3.57865634D-05-5.08400889D-07
 ***** Axes restored to original set *****
 -------------------------------------------------------------------
 Center     Atomic                   Forces (Hartrees/Bohr)
 Number     Number              X              Y              Z
 -------------------------------------------------------------------
      1        6          -0.005452448   -0.003698903    0.000126014
      2        6          -0.009009000    0.003263602   -0.000062446
      3        6           0.009257367   -0.003294877    0.000063982
      4        6           0.005207408    0.003744139   -0.000128202
      5        1           0.003076348    0.003219922   -0.000104379
      6        1           0.000978239   -0.003382448    0.000095350
      7        1           0.001911165    0.003421857   -0.000106925
      8        1          -0.001926877   -0.003434021    0.000106664
      9        1          -0.000964317    0.003376737   -0.000094874
     10        1          -0.003077886   -0.003216008    0.000104816
 -------------------------------------------------------------------
 Cartesian Forces:  Max     0.009257367 RMS     0.003503632
 Leave Link  716 at Thu Aug 20 12:59:41 2020, MaxMem=  2147483648 cpu:         1.0
 (Enter /opt/cluster/programs/g09/g09_d.01/g09/l103.exe)

 GradGradGradGradGradGradGradGradGradGradGradGradGradGradGradGradGradGrad
 Berny optimization.
 FormGI is forming the generalized inverse of G from B-inverse, IUseBI=4.
 Internal  Forces:  Max     0.006641949 RMS     0.002609294
 Search for a local minimum.
 Step number   1 out of a maximum of   43
 All quantities printed in internal units (Hartrees-Bohrs-Radians)
 RMS Force = .26093D-02 SwitMx=.10000D-02 MixMth= 1
 Mixed Optimization -- RFO/linear search
 Second derivative matrix not updated -- first step.
 ITU=  0
     Eigenvalues ---    0.01536   0.02231   0.02232   0.02910   0.02910
     Eigenvalues ---    0.02912   0.02912   0.16000   0.16000   0.16000
     Eigenvalues ---    0.16000   0.16000   0.16000   0.22000   0.22000
     Eigenvalues ---    0.35036   0.35040   0.35338   0.35340   0.35362
     Eigenvalues ---    0.35362   0.39346   0.57673   0.57715
 RFO step:  Lambda=-8.49078629D-04 EMin= 1.53648726D-02
 Linear search not attempted -- first point.
 Iteration  1 RMS(Cart)=  0.01205014 RMS(Int)=  0.00005675
 Iteration  2 RMS(Cart)=  0.00008792 RMS(Int)=  0.00000002
 Iteration  3 RMS(Cart)=  0.00000000 RMS(Int)=  0.00000002
 ITry= 1 IFail=0 DXMaxC= 2.36D-02 DCOld= 1.00D+10 DXMaxT= 3.00D-01 DXLimC= 3.00D+00 Rises=F
 Variable       Old X    -DE/DX   Delta X   Delta X   Delta X     New X
                                 (Linear)    (Quad)   (Total)
    R1        2.52795  -0.00096   0.00000  -0.00165  -0.00165   2.52630
    R2        2.05130  -0.00418   0.00000  -0.01181  -0.01181   2.03949
    R3        2.05091  -0.00337   0.00000  -0.00950  -0.00950   2.04142
    R4        2.72451   0.00664   0.00000   0.01684   0.01684   2.74136
    R5        2.05610  -0.00355   0.00000  -0.01012  -0.01012   2.04598
    R6        2.52831  -0.00117   0.00000  -0.00203  -0.00203   2.52628
    R7        2.05616  -0.00357   0.00000  -0.01016  -0.01016   2.04601
    R8        2.05091  -0.00336   0.00000  -0.00948  -0.00948   2.04143
    R9        2.05127  -0.00418   0.00000  -0.01181  -0.01181   2.03946
    A1        2.10238   0.00280   0.00000   0.01743   0.01743   2.11980
    A2        2.13312  -0.00247   0.00000  -0.01536  -0.01536   2.11776
    A3        2.04769  -0.00033   0.00000  -0.00207  -0.00207   2.04562
    A4        2.14546   0.00436   0.00000   0.01976   0.01976   2.16522
    A5        2.07899  -0.00048   0.00000   0.00071   0.00071   2.07970
    A6        2.05873  -0.00388   0.00000  -0.02047  -0.02047   2.03827
    A7        2.14614   0.00425   0.00000   0.01926   0.01926   2.16540
    A8        2.05851  -0.00385   0.00000  -0.02032  -0.02032   2.03820
    A9        2.07853  -0.00041   0.00000   0.00105   0.00105   2.07959
   A10        2.13295  -0.00244   0.00000  -0.01519  -0.01519   2.11776
   A11        2.10242   0.00278   0.00000   0.01730   0.01730   2.11972
   A12        2.04782  -0.00034   0.00000  -0.00211  -0.00211   2.04571
    D1        3.14159   0.00000   0.00000   0.00000   0.00000  -3.14159
    D2       -0.00002   0.00000   0.00000   0.00002   0.00002   0.00000
    D3        0.00001   0.00000   0.00000  -0.00001  -0.00001   0.00000
    D4        3.14159   0.00000   0.00000   0.00000   0.00000   3.14159
    D5        3.14158   0.00000   0.00000   0.00001   0.00001   3.14159
    D6        0.00000   0.00000   0.00000   0.00000   0.00000   0.00000
    D7        0.00000   0.00000   0.00000   0.00000   0.00000   0.00000
    D8       -3.14158   0.00000   0.00000  -0.00001  -0.00001  -3.14159
    D9        0.00001   0.00000   0.00000  -0.00001  -0.00001   0.00000
   D10        3.14159   0.00000   0.00000   0.00000   0.00000  -3.14159
   D11       -3.14159   0.00000   0.00000   0.00000   0.00000   3.14159
   D12       -0.00001   0.00000   0.00000   0.00001   0.00001   0.00000
         Item               Value     Threshold  Converged?
 Maximum Force            0.006642     0.000450     NO 
 RMS     Force            0.002609     0.000300     NO 
 Maximum Displacement     0.023611     0.001800     NO 
 RMS     Displacement     0.012027     0.001200     NO 
 Predicted change in Energy=-4.260795D-04
 Lowest energy point so far.  Saving SCF results.
 GradGradGradGradGradGradGradGradGradGradGradGradGradGradGradGradGradGrad

 Leave Link  103 at Thu Aug 20 12:59:41 2020, MaxMem=  2147483648 cpu:         1.5
 (Enter /opt/cluster/programs/g09/g09_d.01/g09/l202.exe)
                          Input orientation:                          
 ---------------------------------------------------------------------
 Center     Atomic      Atomic             Coordinates (Angstroms)
 Number     Number       Type             X           Y           Z
 ---------------------------------------------------------------------
      1          6           0       -3.842404    0.225766    0.018215
      2          6           0       -2.719405   -0.499335    0.035412
      3          6           0       -1.384920    0.069104    0.014153
      4          6           0       -0.261795   -0.655786    0.031344
      5          1           0       -4.814986   -0.241757    0.035261
      6          1           0       -3.813791    1.305196   -0.013356
      7          1           0       -2.789245   -1.579302    0.067144
      8          1           0       -1.315159    1.149088   -0.017579
      9          1           0       -0.290213   -1.735227    0.062915
     10          1           0        0.710649   -0.188007    0.014292
 ---------------------------------------------------------------------
                    Distance matrix (angstroms):
                    1          2          3          4          5
     1  C    0.000000
     2  C    1.336860   0.000000
     3  C    2.462476   1.450663   0.000000
     4  C    3.687556   2.462588   1.336851   0.000000
     5  H    1.079252   2.111352   3.444188   4.571978   0.000000
     6  H    1.080271   2.111017   2.725453   4.057601   1.843317
     7  H    2.090409   1.082688   2.166143   2.691127   2.427689
     8  H    2.690868   2.166105   1.082700   2.090344   3.766435
     9  H    4.057777   2.725648   2.111012   1.080277   4.764954
    10  H    4.571818   3.444218   2.111283   1.079238   5.525937
                    6          7          8          9         10
     6  H    0.000000
     7  H    3.062108   0.000000
     8  H    2.503508   3.102292   0.000000
     9  H    4.654632   2.503894   3.062069   0.000000
    10  H    4.764555   3.766663   2.427496   1.843361   0.000000
 Stoichiometry    C4H6
 Framework group  C1[X(C4H6)]
 Deg. of freedom    24
 Full point group                 C1      NOp   1
 RotChk:  IX=0 Diff= 2.85D-03
 Largest Abelian subgroup         C1      NOp   1
 Largest concise Abelian subgroup C1      NOp   1
                         Standard orientation:                         
 ---------------------------------------------------------------------
 Center     Atomic      Atomic             Coordinates (Angstroms)
 Number     Number       Type             X           Y           Z
 ---------------------------------------------------------------------
      1          6           0        1.840445   -0.110486    0.000000
      2          6           0        0.604983    0.400228    0.000000
      3          6           0       -0.604942   -0.400088    0.000000
      4          6           0       -1.840490    0.110395    0.000000
      5          1           0        2.712635    0.525178    0.000001
      6          1           0        2.007192   -1.177810    0.000000
      7          1           0        0.478688    1.475524    0.000000
      8          1           0       -0.478567   -1.475387    0.000000
      9          1           0       -2.007430    1.177695    0.000000
     10          1           0       -2.712497   -0.525496    0.000001
 ---------------------------------------------------------------------
 Rotational constants (GHZ):     42.5623249      4.4528400      4.0311084
 Leave Link  202 at Thu Aug 20 12:59:41 2020, MaxMem=  2147483648 cpu:         0.0
 (Enter /opt/cluster/programs/g09/g09_d.01/g09/l301.exe)
 Standard basis: def2QZVP (5D, 7F)
 Ernie: Thresh=  0.10000D-02 Tol=  0.10000D-05 Strict=F.
 There are   498 symmetry adapted cartesian basis functions of A   symmetry.
 There are   408 symmetry adapted basis functions of A   symmetry.
   408 basis functions,   596 primitive gaussians,   498 cartesian basis functions
    15 alpha electrons       15 beta electrons
       nuclear repulsion energy       104.0319644715 Hartrees.
 IExCor=  419 DFT=T Ex+Corr=B2PLYPD3 ExCW=0 ScaHFX=  0.530000
 ScaDFX=  0.470000  0.470000  0.730000  0.730000 ScalE2=  0.270000  0.270000
 IRadAn=      0 IRanWt=     -1 IRanGd=            0 ICorTp=0 IEmpDi=141
 NAtoms=   10 NActive=   10 NUniq=   10 SFac= 1.00D+00 NAtFMM=   60 NAOKFM=F Big=F
 Integral buffers will be    131072 words long.
 Regular integral format.
 Two-electron integral symmetry is turned on.
 R6Disp:  Grimme-D3(BJ) Dispersion energy=       -0.0048356619 Hartrees.
 Nuclear repulsion after empirical dispersion term =      104.0271288096 Hartrees.
 Leave Link  301 at Thu Aug 20 12:59:42 2020, MaxMem=  2147483648 cpu:         0.4
 (Enter /opt/cluster/programs/g09/g09_d.01/g09/l302.exe)
 NPDir=0 NMtPBC=     1 NCelOv=     1 NCel=       1 NClECP=     1 NCelD=      1
         NCelK=      1 NCelE2=     1 NClLst=     1 CellRange=     0.0.
 One-electron integrals computed using PRISM.
   1 Symmetry operations used in ECPInt.
 ECPInt:  NShTT=    8256 NPrTT=   19107 LenC2=    8055 LenP2D=   16120.
 LDataN:  DoStor=T MaxTD1= 8 Len=  415
 NBasis=   408 RedAO= T EigKep=  4.25D-05  NBF=   408
 NBsUse=   408 1.00D-06 EigRej= -1.00D+00 NBFU=   408
 Precomputing XC quadrature grid using
 IXCGrd= 4 IRadAn=           0 IRanWt=          -1 IRanGd=           0 AccXCQ= 0.00D+00.
 Generated NRdTot=       0 NPtTot=           0 NUsed=           0 NTot=          32
 NSgBfM=   498   498   498   498   498 MxSgAt=    10 MxSgA2=    10.
 Leave Link  302 at Thu Aug 20 12:59:42 2020, MaxMem=  2147483648 cpu:         3.3
 (Enter /opt/cluster/programs/g09/g09_d.01/g09/l303.exe)
 DipDrv:  MaxL=1.
 Leave Link  303 at Thu Aug 20 12:59:42 2020, MaxMem=  2147483648 cpu:         0.4
 (Enter /opt/cluster/programs/g09/g09_d.01/g09/l401.exe)
 Initial guess from the checkpoint file:  "butadiene_opt.chk"
 B after Tr=     0.000000    0.000000    0.000000
         Rot=    1.000000    0.000000    0.000000    0.000641 Ang=   0.07 deg.
 Guess basis will be translated and rotated to current coordinates.
 JPrj=2 DoOrth=T DoCkMO=T.
 Generating alternative initial guess.
 ExpMin= 7.60D-02 ExpMax= 6.70D+04 ExpMxC= 6.47D+02 IAcc=2 IRadAn=         4 AccDes= 0.00D+00
 Harris functional with IExCor=  419 and IRadAn=       4 diagonalized for initial guess.
 HarFok:  IExCor=  419 AccDes= 0.00D+00 IRadAn=         4 IDoV= 1 UseB2=F ITyADJ=14
 ICtDFT=  3500011 ScaDFX=  1.000000  1.000000  1.000000  1.000000
 FoFCou: FMM=F IPFlag=           0 FMFlag=      100000 FMFlg1=           0
         NFxFlg=           0 DoJE=T BraDBF=F KetDBF=T FulRan=T
         wScrn=  0.000000 ICntrl=     500 IOpCl=  0 I1Cent=   200000004 NGrid=           0
         NMat0=    1 NMatS0=      1 NMatT0=    0 NMatD0=    1 NMtDS0=    0 NMtDT0=    0
 Petite list used in FoFCou.
 Harris En= -156.138284155232    
 Leave Link  401 at Thu Aug 20 12:59:44 2020, MaxMem=  2147483648 cpu:        10.3
 (Enter /opt/cluster/programs/g09/g09_d.01/g09/l502.exe)
 Closed shell SCF:
 Using DIIS extrapolation, IDIIS=  1040.
 Integral symmetry usage will be decided dynamically.
 IVT=      770090 IEndB=      770090 NGot=  2147483648 MDV=  2146978701
 LenX=  2146978701 LenY=  2146730199
 Requested convergence on RMS density matrix=1.00D-08 within 128 cycles.
 Requested convergence on MAX density matrix=1.00D-06.
 Requested convergence on             energy=1.00D-06.
 No special actions if energy rises.
 Fock matrices will be formed incrementally for  20 cycles.
 Integral accuracy reduced to 1.0D-05 until final iterations.

 Cycle   1  Pass 0  IDiag  1:
 FoFJK:  IHMeth= 1 ICntrl=       0 DoSepK=F KAlg= 0 I1Cent=   0 FoldK=F
 IRaf= 940000000 NMat=   1 IRICut=       1 DoRegI=T DoRafI=F ISym2E= 0.
 FoFCou: FMM=F IPFlag=           0 FMFlag=      100000 FMFlg1=           0
         NFxFlg=           0 DoJE=F BraDBF=F KetDBF=F FulRan=T
         wScrn=  0.000000 ICntrl=       0 IOpCl=  0 I1Cent=           0 NGrid=           0
         NMat0=    1 NMatS0=      1 NMatT0=    0 NMatD0=    1 NMtDS0=    0 NMtDT0=    0
 Symmetry not used in FoFCou.
 E= -155.701804034993    
 DIIS: error= 8.22D-04 at cycle   1 NSaved=   1.
 NSaved= 1 IEnMin= 1 EnMin= -155.701804034993     IErMin= 1 ErrMin= 8.22D-04
 ErrMax= 8.22D-04  0.00D+00 EMaxC= 1.00D-01 BMatC= 1.49D-04 BMatP= 1.49D-04
 IDIUse=3 WtCom= 9.92D-01 WtEn= 8.22D-03
 Coeff-Com:  0.100D+01
 Coeff-En:   0.100D+01
 Coeff:      0.100D+01
 Gap=     1.408 Goal=   None    Shift=    0.000
 RMSDP=2.56D-05 MaxDP=7.27D-04              OVMax= 3.24D-03

 Cycle   2  Pass 0  IDiag  1:
 RMSU=  2.56D-05    CP:  1.00D+00
 E= -155.701913296288     Delta-E=       -0.000109261295 Rises=F Damp=F
 DIIS: error= 3.11D-04 at cycle   2 NSaved=   2.
 NSaved= 2 IEnMin= 2 EnMin= -155.701913296288     IErMin= 2 ErrMin= 3.11D-04
 ErrMax= 3.11D-04  0.00D+00 EMaxC= 1.00D-01 BMatC= 1.11D-05 BMatP= 1.49D-04
 IDIUse=3 WtCom= 9.97D-01 WtEn= 3.11D-03
 Coeff-Com:  0.748D-01 0.925D+00
 Coeff-En:   0.000D+00 0.100D+01
 Coeff:      0.745D-01 0.925D+00
 Gap=     0.293 Goal=   None    Shift=    0.000
 RMSDP=7.26D-06 MaxDP=4.21D-04 DE=-1.09D-04 OVMax= 2.07D-03

 Initial convergence to 1.0D-05 achieved.  Increase integral accuracy.
 Cycle   3  Pass 1  IDiag  1:
 E= -155.701945887156     Delta-E=       -0.000032590868 Rises=F Damp=F
 DIIS: error= 3.73D-04 at cycle   1 NSaved=   1.
 NSaved= 1 IEnMin= 1 EnMin= -155.701945887156     IErMin= 1 ErrMin= 3.73D-04
 ErrMax= 3.73D-04  0.00D+00 EMaxC= 1.00D-01 BMatC= 8.45D-06 BMatP= 8.45D-06
 IDIUse=3 WtCom= 9.96D-01 WtEn= 3.73D-03
 Coeff-Com:  0.100D+01
 Coeff-En:   0.100D+01
 Coeff:      0.100D+01
 Gap=     0.293 Goal=   None    Shift=    0.000
 RMSDP=7.26D-06 MaxDP=4.21D-04 DE=-3.26D-05 OVMax= 2.37D-03

 Cycle   4  Pass 1  IDiag  1:
 RMSU=  1.44D-05    CP:  1.00D+00
 E= -155.701942839677     Delta-E=        0.000003047479 Rises=F Damp=F
 DIIS: error= 4.18D-04 at cycle   2 NSaved=   2.
 NSaved= 2 IEnMin= 1 EnMin= -155.701945887156     IErMin= 1 ErrMin= 3.73D-04
 ErrMax= 4.18D-04  0.00D+00 EMaxC= 1.00D-01 BMatC= 1.16D-05 BMatP= 8.45D-06
 IDIUse=3 WtCom= 3.29D-01 WtEn= 6.71D-01
 Coeff-Com:  0.541D+00 0.459D+00
 Coeff-En:   0.575D+00 0.425D+00
 Coeff:      0.564D+00 0.436D+00
 Gap=     0.293 Goal=   None    Shift=    0.000
 RMSDP=3.29D-06 MaxDP=1.60D-04 DE= 3.05D-06 OVMax= 1.16D-03

 Cycle   5  Pass 1  IDiag  1:
 RMSU=  2.95D-06    CP:  1.00D+00  8.99D-01
 E= -155.701953882985     Delta-E=       -0.000011043308 Rises=F Damp=F
 DIIS: error= 1.45D-05 at cycle   3 NSaved=   3.
 NSaved= 3 IEnMin= 3 EnMin= -155.701953882985     IErMin= 3 ErrMin= 1.45D-05
 ErrMax= 1.45D-05  0.00D+00 EMaxC= 1.00D-01 BMatC= 3.13D-08 BMatP= 8.45D-06
 IDIUse=1 WtCom= 1.00D+00 WtEn= 0.00D+00
 Coeff-Com:  0.803D-01 0.344D-01 0.885D+00
 Coeff:      0.803D-01 0.344D-01 0.885D+00
 Gap=     0.293 Goal=   None    Shift=    0.000
 RMSDP=3.80D-07 MaxDP=1.50D-05 DE=-1.10D-05 OVMax= 7.01D-05

 Cycle   6  Pass 1  IDiag  1:
 RMSU=  3.09D-07    CP:  1.00D+00  9.08D-01  1.06D+00
 E= -155.701953911135     Delta-E=       -0.000000028150 Rises=F Damp=F
 DIIS: error= 5.89D-06 at cycle   4 NSaved=   4.
 NSaved= 4 IEnMin= 4 EnMin= -155.701953911135     IErMin= 4 ErrMin= 5.89D-06
 ErrMax= 5.89D-06  0.00D+00 EMaxC= 1.00D-01 BMatC= 3.77D-09 BMatP= 3.13D-08
 IDIUse=1 WtCom= 1.00D+00 WtEn= 0.00D+00
 Coeff-Com: -0.178D-01-0.288D-01 0.303D+00 0.744D+00
 Coeff:     -0.178D-01-0.288D-01 0.303D+00 0.744D+00
 Gap=     0.293 Goal=   None    Shift=    0.000
 RMSDP=1.12D-07 MaxDP=5.04D-06 DE=-2.81D-08 OVMax= 2.40D-05

 Cycle   7  Pass 1  IDiag  1:
 RMSU=  9.49D-08    CP:  1.00D+00  9.11D-01  1.07D+00  9.56D-01
 E= -155.701953915470     Delta-E=       -0.000000004334 Rises=F Damp=F
 DIIS: error= 8.79D-07 at cycle   5 NSaved=   5.
 NSaved= 5 IEnMin= 5 EnMin= -155.701953915470     IErMin= 5 ErrMin= 8.79D-07
 ErrMax= 8.79D-07  0.00D+00 EMaxC= 1.00D-01 BMatC= 2.87D-11 BMatP= 3.77D-09
 IDIUse=1 WtCom= 1.00D+00 WtEn= 0.00D+00
 Coeff-Com: -0.455D-03 0.112D-02-0.528D-01-0.693D-01 0.112D+01
 Coeff:     -0.455D-03 0.112D-02-0.528D-01-0.693D-01 0.112D+01
 Gap=     0.293 Goal=   None    Shift=    0.000
 RMSDP=2.96D-08 MaxDP=8.73D-07 DE=-4.33D-09 OVMax= 6.60D-06

 Cycle   8  Pass 1  IDiag  1:
 RMSU=  1.48D-08    CP:  1.00D+00  9.11D-01  1.07D+00  1.01D+00  1.19D+00
 E= -155.701953915549     Delta-E=       -0.000000000079 Rises=F Damp=F
 DIIS: error= 1.11D-07 at cycle   6 NSaved=   6.
 NSaved= 6 IEnMin= 6 EnMin= -155.701953915549     IErMin= 6 ErrMin= 1.11D-07
 ErrMax= 1.11D-07  0.00D+00 EMaxC= 1.00D-01 BMatC= 1.74D-12 BMatP= 2.87D-11
 IDIUse=1 WtCom= 1.00D+00 WtEn= 0.00D+00
 Coeff-Com:  0.537D-03 0.127D-02-0.228D-01-0.428D-01 0.222D+00 0.842D+00
 Coeff:      0.537D-03 0.127D-02-0.228D-01-0.428D-01 0.222D+00 0.842D+00
 Gap=     0.293 Goal=   None    Shift=    0.000
 RMSDP=4.02D-09 MaxDP=1.28D-07 DE=-7.95D-11 OVMax= 8.76D-07

 SCF Done:  E(RB2PLYPD3) =  -155.701953916     A.U. after    8 cycles
            NFock=  8  Conv=0.40D-08     -V/T= 2.0036
 KE= 1.551417001027D+02 PE=-5.689952730957D+02 EE= 1.541244902678D+02
 Leave Link  502 at Thu Aug 20 13:01:45 2020, MaxMem=  2147483648 cpu:       961.7
 (Enter /opt/cluster/programs/g09/g09_d.01/g09/l801.exe)
 DoSCS=T DFT=T ScalE2(SS,OS)=  0.270000  0.270000
 ExpMin= 7.60D-02 ExpMax= 6.70D+04 ExpMxC= 6.47D+02 IAcc=3 IRadAn=         5 AccDes= 0.00D+00
 HarFok:  IExCor=  205 AccDes= 0.00D+00 IRadAn=         5 IDoV=-2 UseB2=F ITyADJ=14
 ICtDFT= 12500011 ScaDFX=  1.000000  1.000000  1.000000  1.000000
 Largest valence mixing into a core orbital is  1.12D-04
 Largest core mixing into a valence orbital is  1.99D-05
 Range of M.O.s used for correlation:     5   408
 NBasis=   408 NAE=    15 NBE=    15 NFC=     4 NFV=     0
 NROrb=    404 NOA=    11 NOB=    11 NVA=   393 NVB=   393

 **** Warning!!: The largest alpha MO coefficient is  0.29706238D+02

 Leave Link  801 at Thu Aug 20 13:01:45 2020, MaxMem=  2147483648 cpu:         0.8
 (Enter /opt/cluster/programs/g09/g09_d.01/g09/l906.exe)
 DoSCS=T DFT=T ScalE2(SS,OS)=  0.270000  0.270000
 Frozen-core derivative calculation, NFC=   4 NFV=   0.
 FulOut=F Deriv=T AODrv=T NAtomX=    10
   MMem=          35  MDisk=          11 MDiskD=          11
  W3Min=     3047760 MinDsk=     5885813 NBas6D=         498
 NBas2D=      125763    NTT=      124251    LW2=     9246618
    MDV=  2145715508 MDiskM=        9565 NBas2p=      118533
 Fully direct method using O(ONN) memory.
 IMap=   1   2   3   4   5   6   7   8   9  10  11  12  13  14  15
 JobTyp=1 Pass  1:  I=   5 to   7 NPSUse=  8 ParTrn=T ParDer=T DoDerP=T.
 JobTyp=1 Pass  2:  I=   8 to  10 NPSUse=  8 ParTrn=T ParDer=T DoDerP=T.
 JobTyp=1 Pass  3:  I=  11 to  13 NPSUse=  8 ParTrn=T ParDer=T DoDerP=T.
 JobTyp=1 Pass  4:  I=  14 to  15 NPSUse=  8 ParTrn=T ParDer=T DoDerP=T.
 Spin components of T(2) and E(2):
     alpha-alpha T2 =       0.4195592824D-01 E2=     -0.2540637098D-01
     alpha-beta  T2 =       0.2714463768D+00 E2=     -0.1748157084D+00
     beta-beta   T2 =       0.4195592824D-01 E2=     -0.2540637098D-01
 The integrals were generated   4 times.
 E2(B2PLYPD3) =    -0.2256284504D+00 E(B2PLYPD3) =    -0.15592758236593D+03
 Leave Link  906 at Thu Aug 20 13:17:47 2020, MaxMem=  2147483648 cpu:      7677.1
 (Enter /opt/cluster/programs/g09/g09_d.01/g09/l1002.exe)
 Minotr:  Closed shell wavefunction.
          Computing MP2/KS-MP2 derivatives.
          Using Z-Vector for PSCF gradient.
          Skipping F1 and S1 gradient terms here.
          IDoAtm=1111111111
          Frozen-core window.
          Direct CPHF calculation.
          Differentiating once with respect to electric field.
                with respect to dipole field.
          Differentiating once with respect to nuclear coordinates.
          Requested convergence is 1.0D-10 RMS, and 1.0D-09 maximum.
          NewPWx=F KeepS1=T KeepF1=T KeepIn=T MapXYZ=F SortEE=F KeepMc=T.
          MDV=    2147483140 using IRadAn=       0.
 Using stored XC quadrature information.
          Solving linear equations separately, MaxMat=       0.
          There are     1 degrees of freedom in the 1st order CPHF.  IDoFFX=0 NUNeed=     1.
 FoFJK:  IHMeth= 1 ICntrl=       0 DoSepK=F KAlg= 0 I1Cent=   0 FoldK=F
 IRaf= 950000000 NMat=   1 IRICut=       1 DoRegI=T DoRafI=F ISym2E=-1.
 FoFCou: FMM=F IPFlag=           0 FMFlag=      100000 FMFlg1=           0
         NFxFlg=           0 DoJE=F BraDBF=F KetDBF=F FulRan=T
         wScrn=  0.000000 ICntrl=       0 IOpCl=  0 I1Cent=           0 NGrid=           0
         NMat0=    1 NMatS0=      1 NMatT0=    0 NMatD0=    1 NMtDS0=    0 NMtDT0=    0
 Petite list used in FoFCou.
 LinEq1:  Iter=  0 NonCon=     1 RMS=1.01D-03 Max=2.82D-02 NDo=     1
 AX will form     1 AO Fock derivatives at one time.
 LinEq1:  Iter=  1 NonCon=     1 RMS=4.07D-04 Max=8.92D-03 NDo=     1
 LinEq1:  Iter=  2 NonCon=     1 RMS=1.15D-04 Max=6.11D-03 NDo=     1
 LinEq1:  Iter=  3 NonCon=     1 RMS=6.54D-05 Max=2.03D-03 NDo=     1
 LinEq1:  Iter=  4 NonCon=     1 RMS=1.53D-05 Max=4.90D-04 NDo=     1
 LinEq1:  Iter=  5 NonCon=     1 RMS=2.47D-06 Max=4.94D-05 NDo=     1
 LinEq1:  Iter=  6 NonCon=     1 RMS=2.81D-07 Max=8.38D-06 NDo=     1
 LinEq1:  Iter=  7 NonCon=     1 RMS=4.62D-08 Max=8.26D-07 NDo=     1
 LinEq1:  Iter=  8 NonCon=     1 RMS=9.26D-09 Max=1.54D-07 NDo=     1
 LinEq1:  Iter=  9 NonCon=     1 RMS=2.73D-09 Max=9.55D-08 NDo=     1
 LinEq1:  Iter= 10 NonCon=     1 RMS=1.57D-09 Max=6.76D-08 NDo=     1
 LinEq1:  Iter= 11 NonCon=     1 RMS=4.28D-10 Max=1.22D-08 NDo=     1
 LinEq1:  Iter= 12 NonCon=     1 RMS=1.18D-10 Max=3.27D-09 NDo=     1
 LinEq1:  Iter= 13 NonCon=     0 RMS=3.81D-11 Max=6.92D-10 NDo=     1
 Linear equations converged to 1.000D-10 1.000D-09 after    13 iterations.
 End of Minotr F.D. properties file   721 does not exist.
 End of Minotr F.D. properties file   722 does not exist.
 End of Minotr F.D. properties file   788 does not exist.
 Leave Link 1002 at Thu Aug 20 13:22:18 2020, MaxMem=  2147483648 cpu:      2160.7
 (Enter /opt/cluster/programs/g09/g09_d.01/g09/l701.exe)
 Compute integral first derivatives.
 ... and contract with generalized density number  2.
 R6Disp: Adding Grimme-D3(BJ) dispersion energy 1st derivatives to the gradient.
   1 Symmetry operations used in ECPInt.
 ECPInt:  NShTT=    8256 NPrTT=   19107 LenC2=    8055 LenP2D=   16120.
 LDataN:  DoStor=T MaxTD1= 9 Len=  602
 Leave Link  701 at Thu Aug 20 13:22:18 2020, MaxMem=  2147483648 cpu:         2.4
 (Enter /opt/cluster/programs/g09/g09_d.01/g09/l702.exe)
 L702 exits ... SP integral derivatives will be done elsewhere.
 Leave Link  702 at Thu Aug 20 13:22:18 2020, MaxMem=  2147483648 cpu:         0.1
 (Enter /opt/cluster/programs/g09/g09_d.01/g09/l703.exe)
 Compute integral first derivatives, UseDBF=F ICtDFT=           0.
 Integral derivatives from FoFJK, PRISM(SPDF).
 Calling FoFJK, ICntrl=  10002127 FMM=F ISym2X=0 I1Cent= 0 IOpClX= 0 NMat=1 NMatS=1 NMatT=0.
 FoFJK:  IHMeth= 1 ICntrl=10002127 DoSepK=F KAlg= 0 I1Cent=   0 FoldK=F
 IRaf=         0 NMat=   1 IRICut=       1 DoRegI=T DoRafI=F ISym2E= 0.
 FoFCou: FMM=F IPFlag=           0 FMFlag=      100000 FMFlg1=         800
         NFxFlg=           0 DoJE=F BraDBF=F KetDBF=F FulRan=T
         wScrn=  0.000000 ICntrl=10002127 IOpCl=  0 I1Cent=           0 NGrid=           0
         NMat0=    1 NMatS0=      1 NMatT0=    0 NMatD0=    1 NMtDS0=    0 NMtDT0=    0
 Symmetry not used in FoFCou.
 Leave Link  703 at Thu Aug 20 13:23:20 2020, MaxMem=  2147483648 cpu:       496.9
 (Enter /opt/cluster/programs/g09/g09_d.01/g09/l716.exe)
 Dipole        = 5.90573173D-05 4.12973764D-06 7.33549720D-07
 ***** Axes restored to original set *****
 -------------------------------------------------------------------
 Center     Atomic                   Forces (Hartrees/Bohr)
 Number     Number              X              Y              Z
 -------------------------------------------------------------------
      1        6           0.000905509   -0.001243309    0.000033121
      2        6          -0.002123033    0.001167114   -0.000026622
      3        6           0.002126062   -0.001142928    0.000025872
      4        6          -0.000921367    0.001224657   -0.000032369
      5        1           0.000308068    0.000167769   -0.000005989
      6        1           0.000235630    0.000471266   -0.000014585
      7        1           0.000534342   -0.000622910    0.000016288
      8        1          -0.000538736    0.000617568   -0.000016118
      9        1          -0.000229457   -0.000467115    0.000014397
     10        1          -0.000297018   -0.000172112    0.000006006
 -------------------------------------------------------------------
 Cartesian Forces:  Max     0.002126062 RMS     0.000786328
 Leave Link  716 at Thu Aug 20 13:23:20 2020, MaxMem=  2147483648 cpu:         0.3
 (Enter /opt/cluster/programs/g09/g09_d.01/g09/l103.exe)

 GradGradGradGradGradGradGradGradGradGradGradGradGradGradGradGradGradGrad
 Berny optimization.
 Using GEDIIS/GDIIS optimizer.
 FormGI is forming the generalized inverse of G from B-inverse, IUseBI=4.
 Internal  Forces:  Max     0.001547181 RMS     0.000501965
 Search for a local minimum.
 Step number   2 out of a maximum of   43
 All quantities printed in internal units (Hartrees-Bohrs-Radians)
 RMS Force = .50197D-03 SwitMx=.10000D-02 MixMth= 2
 Mixed Optimization -- En-DIIS/RFO-DIIS
 Update second derivatives using D2CorX and points    1    2
 DE= -4.30D-04 DEPred=-4.26D-04 R= 1.01D+00
 TightC=F SS=  1.41D+00  RLast= 6.02D-02 DXNew= 5.0454D-01 1.8070D-01
 Trust test= 1.01D+00 RLast= 6.02D-02 DXMaxT set to 3.00D-01
 ITU=  1  0
 Use linear search instead of GDIIS.
     Eigenvalues ---    0.01536   0.02238   0.02240   0.02910   0.02910
     Eigenvalues ---    0.02912   0.02912   0.14321   0.16000   0.16000
     Eigenvalues ---    0.16000   0.16000   0.16164   0.22000   0.23189
     Eigenvalues ---    0.34611   0.35038   0.35215   0.35339   0.35362
     Eigenvalues ---    0.37046   0.39328   0.57684   0.58104
 RFO step:  Lambda=-2.54674361D-05 EMin= 1.53648726D-02
 Quartic linear search produced a step of  0.01467.
 Iteration  1 RMS(Cart)=  0.00337982 RMS(Int)=  0.00000533
 Iteration  2 RMS(Cart)=  0.00000563 RMS(Int)=  0.00000000
 Iteration  3 RMS(Cart)=  0.00000000 RMS(Int)=  0.00000000
 ITry= 1 IFail=0 DXMaxC= 8.87D-03 DCOld= 1.00D+10 DXMaxT= 3.00D-01 DXLimC= 3.00D+00 Rises=F
 Variable       Old X    -DE/DX   Delta X   Delta X   Delta X     New X
                                 (Linear)    (Quad)   (Total)
    R1        2.52630  -0.00155  -0.00002  -0.00275  -0.00277   2.52353
    R2        2.03949  -0.00035  -0.00017  -0.00118  -0.00136   2.03813
    R3        2.04142   0.00048  -0.00014   0.00122   0.00108   2.04250
    R4        2.74136   0.00016   0.00025   0.00066   0.00090   2.74226
    R5        2.04598   0.00059  -0.00015   0.00155   0.00140   2.04738
    R6        2.52628  -0.00154  -0.00003  -0.00273  -0.00276   2.52352
    R7        2.04601   0.00058  -0.00015   0.00153   0.00138   2.04739
    R8        2.04143   0.00047  -0.00014   0.00121   0.00107   2.04250
    R9        2.03946  -0.00034  -0.00017  -0.00116  -0.00133   2.03813
    A1        2.11980   0.00017   0.00026   0.00135   0.00161   2.12141
    A2        2.11776  -0.00031  -0.00023  -0.00221  -0.00244   2.11532
    A3        2.04562   0.00014  -0.00003   0.00086   0.00083   2.04645
    A4        2.16522  -0.00039   0.00029  -0.00149  -0.00120   2.16402
    A5        2.07970   0.00078   0.00001   0.00463   0.00464   2.08434
    A6        2.03827  -0.00039  -0.00030  -0.00315  -0.00345   2.03482
    A7        2.16540  -0.00041   0.00028  -0.00161  -0.00133   2.16407
    A8        2.03820  -0.00039  -0.00030  -0.00311  -0.00341   2.03479
    A9        2.07959   0.00080   0.00002   0.00472   0.00474   2.08433
   A10        2.11776  -0.00031  -0.00022  -0.00219  -0.00242   2.11534
   A11        2.11972   0.00018   0.00025   0.00140   0.00165   2.12137
   A12        2.04571   0.00013  -0.00003   0.00080   0.00076   2.04648
    D1       -3.14159   0.00000   0.00000   0.00000   0.00000  -3.14159
    D2        0.00000   0.00000   0.00000   0.00000   0.00000   0.00000
    D3        0.00000   0.00000   0.00000   0.00000   0.00000   0.00000
    D4        3.14159   0.00000   0.00000   0.00000   0.00000  -3.14159
    D5        3.14159   0.00000   0.00000   0.00000   0.00000  -3.14159
    D6        0.00000   0.00000   0.00000   0.00000   0.00000   0.00000
    D7        0.00000   0.00000   0.00000   0.00000   0.00000   0.00000
    D8       -3.14159   0.00000   0.00000   0.00000   0.00000   3.14159
    D9        0.00000   0.00000   0.00000   0.00000   0.00000   0.00000
   D10       -3.14159   0.00000   0.00000   0.00000   0.00000   3.14159
   D11        3.14159   0.00000   0.00000   0.00000   0.00000  -3.14159
   D12        0.00000   0.00000   0.00000   0.00000   0.00000   0.00000
         Item               Value     Threshold  Converged?
 Maximum Force            0.001547     0.000450     NO 
 RMS     Force            0.000502     0.000300     NO 
 Maximum Displacement     0.008872     0.001800     NO 
 RMS     Displacement     0.003381     0.001200     NO 
 Predicted change in Energy=-1.282260D-05
 Lowest energy point so far.  Saving SCF results.
 GradGradGradGradGradGradGradGradGradGradGradGradGradGradGradGradGradGrad

 Leave Link  103 at Thu Aug 20 13:23:20 2020, MaxMem=  2147483648 cpu:         0.1
 (Enter /opt/cluster/programs/g09/g09_d.01/g09/l202.exe)
                          Input orientation:                          
 ---------------------------------------------------------------------
 Center     Atomic      Atomic             Coordinates (Angstroms)
 Number     Number       Type             X           Y           Z
 ---------------------------------------------------------------------
      1          6           0       -3.840887    0.224701    0.018241
      2          6           0       -2.719346   -0.499956    0.035430
      3          6           0       -1.384925    0.069851    0.014132
      4          6           0       -0.263352   -0.654747    0.031319
      5          1           0       -4.813719   -0.240645    0.035224
      6          1           0       -3.809290    1.304619   -0.013356
      7          1           0       -2.784550   -1.580955    0.067176
      8          1           0       -1.319759    1.150855   -0.017614
      9          1           0       -0.294878   -1.734668    0.062915
     10          1           0        0.709436   -0.189313    0.014333
 ---------------------------------------------------------------------
                    Distance matrix (angstroms):
                    1          2          3          4          5
     1  C    0.000000
     2  C    1.335395   0.000000
     3  C    2.460842   1.451142   0.000000
     4  C    3.684068   2.460870   1.335389   0.000000
     5  H    1.078534   2.110365   3.442888   4.569172   0.000000
     6  H    1.080843   2.108756   2.720837   4.051517   1.843659
     7  H    2.092519   1.083429   2.164930   2.686184   2.432073
     8  H    2.686100   2.164910   1.083431   2.092508   3.761225
     9  H    4.051580   2.720903   2.108760   1.080843   4.759495
    10  H    4.569121   3.442890   2.110335   1.078533   5.523433
                    6          7          8          9         10
     6  H    0.000000
     7  H    3.063188   0.000000
     8  H    2.494278   3.100901   0.000000
     9  H    4.646953   2.494416   3.063186   0.000000
    10  H    4.759358   3.761303   2.432017   1.843672   0.000000
 Stoichiometry    C4H6
 Framework group  C1[X(C4H6)]
 Deg. of freedom    24
 Full point group                 C1      NOp   1
 RotChk:  IX=2 Diff= 2.55D-04
 Largest Abelian subgroup         C1      NOp   1
 Largest concise Abelian subgroup C1      NOp   1
                         Standard orientation:                         
 ---------------------------------------------------------------------
 Center     Atomic      Atomic             Coordinates (Angstroms)
 Number     Number       Type             X           Y           Z
 ---------------------------------------------------------------------
      1          6           0        1.838740   -0.110027    0.000000
      2          6           0        0.604884    0.400736    0.000000
      3          6           0       -0.604875   -0.400696    0.000000
      4          6           0       -1.838752    0.110003    0.000000
      5          1           0        2.711682    0.523383    0.000000
      6          1           0        2.002447   -1.178400    0.000000
      7          1           0        0.474038    1.476235    0.000000
      8          1           0       -0.473990   -1.476193    0.000000
      9          1           0       -2.002529    1.178365    0.000000
     10          1           0       -2.711635   -0.523486    0.000000
 ---------------------------------------------------------------------
 Rotational constants (GHZ):     42.5200288      4.4611736      4.0375559
 Leave Link  202 at Thu Aug 20 13:23:21 2020, MaxMem=  2147483648 cpu:         0.0
 (Enter /opt/cluster/programs/g09/g09_d.01/g09/l301.exe)
 Standard basis: def2QZVP (5D, 7F)
 Ernie: Thresh=  0.10000D-02 Tol=  0.10000D-05 Strict=F.
 There are   498 symmetry adapted cartesian basis functions of A   symmetry.
 There are   408 symmetry adapted basis functions of A   symmetry.
   408 basis functions,   596 primitive gaussians,   498 cartesian basis functions
    15 alpha electrons       15 beta electrons
       nuclear repulsion energy       104.0879216447 Hartrees.
 IExCor=  419 DFT=T Ex+Corr=B2PLYPD3 ExCW=0 ScaHFX=  0.530000
 ScaDFX=  0.470000  0.470000  0.730000  0.730000 ScalE2=  0.270000  0.270000
 IRadAn=      0 IRanWt=     -1 IRanGd=            0 ICorTp=0 IEmpDi=141
 NAtoms=   10 NActive=   10 NUniq=   10 SFac= 1.00D+00 NAtFMM=   60 NAOKFM=F Big=F
 Integral buffers will be    131072 words long.
[...]
     16 -0.280098D-03 -0.156268D-02  0.159524D-01 -0.217131D-02 -0.137811D-01
     17  0.109453D-03  0.471178D-03 -0.137809D-01 -0.677555D-03  0.144585D-01
     18  0.170645D-03  0.109150D-02 -0.217150D-02  0.284887D-02 -0.677366D-03
     19  0.217210D-03  0.278200D-03 -0.280051D-03  0.170638D-03  0.109413D-03
     20 -0.495403D-03 -0.347169D-03  0.184273D-02 -0.126212D-02 -0.580609D-03
     21  0.278193D-03  0.689685D-04 -0.156268D-02  0.109149D-02  0.471196D-03
     22  0.000000D+00  0.000000D+00  0.000000D+00  0.000000D+00  0.000000D+00
     23  0.000000D+00  0.000000D+00  0.000000D+00  0.000000D+00  0.000000D+00
     24  0.000000D+00  0.000000D+00  0.000000D+00  0.000000D+00  0.000000D+00
     25  0.000000D+00  0.000000D+00  0.000000D+00  0.000000D+00  0.000000D+00
     26  0.000000D+00  0.000000D+00  0.000000D+00  0.000000D+00  0.000000D+00
     27  0.000000D+00  0.000000D+00  0.000000D+00  0.000000D+00  0.000000D+00
     28  0.000000D+00  0.000000D+00  0.000000D+00  0.000000D+00  0.000000D+00
     29  0.000000D+00  0.000000D+00  0.000000D+00  0.000000D+00  0.000000D+00
     30  0.000000D+00  0.000000D+00  0.000000D+00  0.000000D+00  0.000000D+00
     31  0.000000D+00  0.000000D+00  0.000000D+00  0.000000D+00  0.000000D+00
     32  0.000000D+00  0.000000D+00  0.000000D+00  0.000000D+00  0.000000D+00
     33  0.000000D+00  0.000000D+00  0.000000D+00  0.000000D+00  0.000000D+00
               16            17            18            19            20 
     16  0.113711D+00
     17 -0.561768D-01  0.903011D-01
     18 -0.575341D-01 -0.341243D-01  0.916584D-01
     19 -0.930014D-02 -0.156493D-02  0.108651D-01  0.810137D-01
     20  0.109860D-01 -0.142345D-02 -0.956251D-02 -0.447316D-01  0.804679D-01
     21 -0.168583D-02  0.298838D-02 -0.130255D-02 -0.362820D-01 -0.357363D-01
     22  0.000000D+00  0.000000D+00  0.000000D+00  0.000000D+00  0.000000D+00
     23  0.000000D+00  0.000000D+00  0.000000D+00  0.000000D+00  0.000000D+00
     24  0.000000D+00  0.000000D+00  0.000000D+00  0.000000D+00  0.000000D+00
     25  0.000000D+00  0.000000D+00  0.000000D+00  0.000000D+00  0.000000D+00
     26  0.000000D+00  0.000000D+00  0.000000D+00  0.000000D+00  0.000000D+00
     27  0.000000D+00  0.000000D+00  0.000000D+00  0.000000D+00  0.000000D+00
     28  0.000000D+00  0.000000D+00  0.000000D+00  0.000000D+00  0.000000D+00
     29  0.000000D+00  0.000000D+00  0.000000D+00  0.000000D+00  0.000000D+00
     30  0.000000D+00  0.000000D+00  0.000000D+00  0.000000D+00  0.000000D+00
     31  0.000000D+00  0.000000D+00  0.000000D+00  0.000000D+00  0.000000D+00
     32  0.000000D+00  0.000000D+00  0.000000D+00  0.000000D+00  0.000000D+00
     33  0.000000D+00  0.000000D+00  0.000000D+00  0.000000D+00  0.000000D+00
               21            22            23            24            25 
     21  0.720183D-01
     22  0.000000D+00  0.219158D-01
     23  0.000000D+00  0.137693D-01  0.187942D-01
     24  0.000000D+00  0.156615D-02 -0.369389D-02  0.194978D-01
     25  0.000000D+00 -0.658035D-02  0.133098D-02  0.142378D-01  0.221491D-01
     26  0.000000D+00 -0.269874D-02  0.322720D-02 -0.165535D-02  0.427059D-02
     27  0.000000D+00 -0.415514D-02  0.228951D-02 -0.242874D-02  0.401591D-02
     28  0.000000D+00  0.522472D-02 -0.166009D-02  0.346067D-02 -0.342414D-02
     29  0.000000D+00  0.376832D-02 -0.259779D-02  0.268729D-02 -0.367882D-02
     30  0.000000D+00 -0.120019D-02 -0.405033D-03 -0.341414D-03  0.453740D-03
     31  0.000000D+00 -0.241979D-02 -0.922380D-03 -0.120020D-02  0.297214D-03
     32  0.000000D+00  0.297219D-03  0.559064D-03  0.453748D-03  0.715592D-03
     33  0.000000D+00 -0.922387D-03  0.417170D-04 -0.405038D-03  0.559065D-03
               26            27            28            29            30 
     26  0.745804D-02
     27  0.169441D-02  0.839068D-02
     28  0.169433D-02 -0.457379D-02  0.839065D-02
     29 -0.406929D-02  0.212247D-02  0.212253D-02  0.831429D-02
     30 -0.165534D-02  0.346066D-02 -0.242872D-02  0.268728D-02  0.194977D-01
     31 -0.269871D-02  0.522473D-02 -0.415512D-02  0.376831D-02  0.156615D-02
     32  0.427057D-02 -0.342414D-02  0.401589D-02 -0.367882D-02  0.142377D-01
     33  0.322720D-02 -0.166008D-02  0.228949D-02 -0.259779D-02 -0.369390D-02
               31            32            33 
     31  0.219159D-01
     32 -0.658038D-02  0.221490D-01
     33  0.137694D-01  0.133099D-02  0.187943D-01
 Leave Link  716 at Thu Aug 20 19:14:30 2020, MaxMem=  2147483648 cpu:         0.2
 (Enter /opt/cluster/programs/g09/g09_d.01/g09/l103.exe)

 GradGradGradGradGradGradGradGradGradGradGradGradGradGradGradGradGradGrad
 Berny optimization.
 Red2BG is reusing G-inverse.
 Internal  Forces:  Max     0.000045628 RMS     0.000018237
 Search for a local minimum.
 Step number   1 out of a maximum of    2
 All quantities printed in internal units (Hartrees-Bohrs-Radians)
 Second derivative matrix not updated -- analytic derivatives used.
 ITU=  0
     Eigenvalues ---    0.00732   0.02358   0.02416   0.02990   0.03233
     Eigenvalues ---    0.03914   0.04084   0.10453   0.10598   0.10954
     Eigenvalues ---    0.11156   0.11729   0.13555   0.15779   0.19014
     Eigenvalues ---    0.34637   0.35371   0.35700   0.36108   0.36182
     Eigenvalues ---    0.36623   0.36662   0.59971   0.60575
 Angle between quadratic step and forces=  20.78 degrees.
 Linear search not attempted -- first point.
 Iteration  1 RMS(Cart)=  0.00014154 RMS(Int)=  0.00000001
 Iteration  2 RMS(Cart)=  0.00000002 RMS(Int)=  0.00000000
 ITry= 1 IFail=0 DXMaxC= 3.05D-04 DCOld= 1.00D+10 DXMaxT= 3.00D-01 DXLimC= 3.00D+00 Rises=F
 Variable       Old X    -DE/DX   Delta X   Delta X   Delta X     New X
                                 (Linear)    (Quad)   (Total)
    R1        2.52329   0.00002   0.00000   0.00004   0.00004   2.52333
    R2        2.03844   0.00001   0.00000   0.00004   0.00004   2.03848
    R3        2.04284  -0.00001   0.00000  -0.00004  -0.00004   2.04281
    R4        2.74324   0.00005   0.00000   0.00017   0.00017   2.74342
    R5        2.04777  -0.00003   0.00000  -0.00010  -0.00010   2.04767
    R6        2.52329   0.00002   0.00000   0.00004   0.00004   2.52333
    R7        2.04777  -0.00003   0.00000  -0.00010  -0.00010   2.04767
    R8        2.04284  -0.00001   0.00000  -0.00003  -0.00003   2.04281
    R9        2.03844   0.00001   0.00000   0.00004   0.00004   2.03848
    A1        2.12215   0.00001   0.00000   0.00009   0.00009   2.12224
    A2        2.11452   0.00000   0.00000  -0.00002  -0.00002   2.11450
    A3        2.04651  -0.00001   0.00000  -0.00007  -0.00007   2.04644
    A4        2.16328  -0.00004   0.00000  -0.00026  -0.00026   2.16302
    A5        2.08602   0.00002   0.00000   0.00018   0.00018   2.08620
    A6        2.03388   0.00002   0.00000   0.00008   0.00008   2.03397
    A7        2.16329  -0.00004   0.00000  -0.00027  -0.00027   2.16302
    A8        2.03387   0.00002   0.00000   0.00009   0.00009   2.03397
    A9        2.08602   0.00002   0.00000   0.00017   0.00017   2.08620
   A10        2.11453   0.00000   0.00000  -0.00002  -0.00002   2.11450
   A11        2.12214   0.00001   0.00000   0.00010   0.00010   2.12224
   A12        2.04651  -0.00001   0.00000  -0.00007  -0.00007   2.04644
    D1        3.14159   0.00000   0.00000   0.00000   0.00000   3.14159
    D2        0.00000   0.00000   0.00000   0.00000   0.00000   0.00000
    D3        0.00000   0.00000   0.00000   0.00000   0.00000   0.00000
    D4        3.14159   0.00000   0.00000   0.00000   0.00000   3.14159
    D5        3.14159   0.00000   0.00000   0.00000   0.00000  -3.14159
    D6        0.00000   0.00000   0.00000   0.00000   0.00000   0.00000
    D7        0.00000   0.00000   0.00000   0.00000   0.00000   0.00000
    D8       -3.14159   0.00000   0.00000   0.00000   0.00000  -3.14159
    D9        0.00000   0.00000   0.00000   0.00000   0.00000   0.00000
   D10       -3.14159   0.00000   0.00000   0.00000   0.00000   3.14159
   D11        3.14159   0.00000   0.00000   0.00000   0.00000   3.14159
   D12        0.00000   0.00000   0.00000   0.00000   0.00000   0.00000
         Item               Value     Threshold  Converged?
 Maximum Force            0.000046     0.000450     YES
 RMS     Force            0.000018     0.000300     YES
 Maximum Displacement     0.000305     0.001800     YES
 RMS     Displacement     0.000142     0.001200     YES
 Predicted change in Energy=-2.691726D-08
 Optimization completed.
    -- Stationary point found.
                           ----------------------------
                           !   Optimized Parameters   !
                           ! (Angstroms and Degrees)  !
 --------------------------                            --------------------------
 ! Name  Definition              Value          Derivative Info.                !
 --------------------------------------------------------------------------------
 ! R1    R(1,2)                  1.3353         -DE/DX =    0.0                 !
 ! R2    R(1,5)                  1.0787         -DE/DX =    0.0                 !
 ! R3    R(1,6)                  1.081          -DE/DX =    0.0                 !
 ! R4    R(2,3)                  1.4517         -DE/DX =    0.0                 !
 ! R5    R(2,7)                  1.0836         -DE/DX =    0.0                 !
 ! R6    R(3,4)                  1.3353         -DE/DX =    0.0                 !
 ! R7    R(3,8)                  1.0836         -DE/DX =    0.0                 !
 ! R8    R(4,9)                  1.081          -DE/DX =    0.0                 !
 ! R9    R(4,10)                 1.0787         -DE/DX =    0.0                 !
 ! A1    A(2,1,5)              121.5903         -DE/DX =    0.0                 !
 ! A2    A(2,1,6)              121.1532         -DE/DX =    0.0                 !
 ! A3    A(5,1,6)              117.2565         -DE/DX =    0.0                 !
 ! A4    A(1,2,3)              123.9471         -DE/DX =    0.0                 !
 ! A5    A(1,2,7)              119.52           -DE/DX =    0.0                 !
 ! A6    A(3,2,7)              116.5329         -DE/DX =    0.0                 !
 ! A7    A(2,3,4)              123.9474         -DE/DX =    0.0                 !
 ! A8    A(2,3,8)              116.5323         -DE/DX =    0.0                 !
 ! A9    A(4,3,8)              119.5202         -DE/DX =    0.0                 !
 ! A10   A(3,4,9)              121.1535         -DE/DX =    0.0                 !
 ! A11   A(3,4,10)             121.5899         -DE/DX =    0.0                 !
 ! A12   A(9,4,10)             117.2566         -DE/DX =    0.0                 !
 ! D1    D(5,1,2,3)            180.0            -DE/DX =    0.0                 !
 ! D2    D(5,1,2,7)              0.0            -DE/DX =    0.0                 !
 ! D3    D(6,1,2,3)              0.0            -DE/DX =    0.0                 !
 ! D4    D(6,1,2,7)            180.0            -DE/DX =    0.0                 !
 ! D5    D(1,2,3,4)           -180.0            -DE/DX =    0.0                 !
 ! D6    D(1,2,3,8)              0.0            -DE/DX =    0.0                 !
 ! D7    D(7,2,3,4)              0.0            -DE/DX =    0.0                 !
 ! D8    D(7,2,3,8)           -180.0            -DE/DX =    0.0                 !
 ! D9    D(2,3,4,9)              0.0            -DE/DX =    0.0                 !
 ! D10   D(2,3,4,10)           180.0            -DE/DX =    0.0                 !
 ! D11   D(8,3,4,9)            180.0            -DE/DX =    0.0                 !
 ! D12   D(8,3,4,10)             0.0            -DE/DX =    0.0                 !
 --------------------------------------------------------------------------------
 GradGradGradGradGradGradGradGradGradGradGradGradGradGradGradGradGradGrad

 Leave Link  103 at Thu Aug 20 19:14:31 2020, MaxMem=  2147483648 cpu:         2.2
 (Enter /opt/cluster/programs/g09/g09_d.01/g09/l9999.exe)
 1\1\GINC-NODE34\Freq\RB2PLYPD3-FC\def2QZVP\C4H6\BOITTIER\20-Aug-2020\0
 \\#P Geom=AllCheck Guess=TCheck SCRF=Check GenChk RB2PLYPD3(FC)/def2QZ
 VP Freq\\butadiene_opt\\0,1\C,-3.8407177926,0.2244064572,0.0182487189\
 C,-2.7194226266,-0.5003970769,0.035443151\C,-1.384833187,0.0703384139,
 0.0141168999\C,-0.2635340192,-0.6544586558,0.0313112547\H,-4.814131479
 ,-0.2401008985,0.035209548\H,-3.8080408429,1.3044752724,-0.0133555918\
 H,-2.7830341764,-1.5816945627,0.067191937\H,-1.3212319549,1.1516363973
 ,-0.0176318381\H,-0.296198277,-1.7345269278,0.0629157494\H,0.709874355
 7,-0.1899384187,0.0143501844\\Version=ES64L-G09RevD.01\State=1-A\HF=-1
 55.7020219\MP2=-155.9275984\RMSD=3.219e-09\RMSF=3.426e-05\ZeroPoint=0.
 0854001\Thermal=0.0900442\Dipole=-0.000002,-0.0000007,0.0000001\Dipole
 Deriv=-0.1818782,0.0908788,-0.0030176,0.0516837,0.0899428,-0.0111625,-
 0.0018749,-0.0113001,-0.2863601,0.1787795,-0.026424,-0.0003132,0.03995
 86,0.0713008,-0.0060041,-0.0022486,-0.005771,-0.129645,0.1787863,-0.02
 64259,-0.0003132,0.0399585,0.0713,-0.006004,-0.0022488,-0.0057709,-0.1
 29645,-0.181879,0.0908785,-0.0030176,0.0516849,0.089943,-0.0111625,-0.
 0018747,-0.0113002,-0.2863605,-0.0550949,-0.027055,0.0014684,-0.069105
 7,0.0202464,0.0036884,0.0026943,0.0035408,0.1383216,0.0405735,-0.05271
 94,0.0019022,0.0083517,-0.0859895,0.0066925,0.0001217,0.0069069,0.1443
 622,0.0176166,0.0153186,-0.0000396,-0.0308887,-0.0955002,0.0067856,0.0
 013076,0.0066233,0.1333216,0.0176172,0.0153209,-0.0000397,-0.0308881,-
 0.0955002,0.0067856,0.0013075,0.0066233,0.1333208,0.0405742,-0.0527174
 ,0.0019021,0.0083523,-0.0859877,0.0066925,0.0001216,0.006907,0.1443631
 ,-0.0550952,-0.0270551,0.0014683,-0.0691072,0.0202446,0.0036885,0.0026
 943,0.0035408,0.1383213\Polar=81.0836331,-12.3858233,47.8177192,0.1953
 679,-0.3627985,33.8921874\PG=C01 [X(C4H6)]\NImag=0\\0.78236689,-0.0742
 2792,0.69491764,-0.00020969,-0.01689950,0.10683106,-0.39161743,0.18174
 398,-0.00410140,0.72773785,0.19159408,-0.24378117,0.00495876,-0.110177
 81,0.71803081,-0.00438858,0.00499335,-0.05075408,0.00112508,-0.0166598
 1,0.13382437,-0.04968971,-0.00054581,0.00021208,-0.21256412,-0.0715309
 5,0.00260285,0.72774069,0.01949357,0.01449684,-0.00031104,-0.07153133,
 -0.14255778,0.00250564,-0.11017983,0.71802858,-0.00037217,-0.00024067,
 0.00618461,0.00260286,0.00250563,-0.06531389,0.00112516,-0.01665976,0.
 13382439,0.00242463,-0.00729249,0.00021153,-0.04968929,0.01949341,-0.0
 0037217,-0.39161998,0.19159359,-0.00438860,0.78236427,-0.00729244,-0.0
 0007571,0.00008951,-0.00054612,0.01449696,-0.00024067,0.18174316,-0.24
 377927,0.00499333,-0.07422883,0.69492049,0.00021153,0.00008951,0.00211
 287,0.00021209,-0.00031104,0.00618462,-0.00410142,0.00495875,-0.050753
 98,-0.00020958,-0.01689967,0.10683092,-0.28872373,-0.11230003,0.004169
 76,-0.01941451,-0.01492395,0.00052032,-0.00176853,0.00431567,-0.000075
 03,-0.00081547,-0.00105811,0.00003285,0.30706625,-0.11802091,-0.115374
 54,0.00279689,0.01926309,0.01095056,-0.00024543,0.00191089,-0.00208081
 ,0.00042412,0.00070077,0.00090923,-0.00003613,0.12137761,0.11205307,0.
 00433656,0.00277680,-0.03375394,-0.00047641,-0.00012538,0.00485789,-0.
 00000492,0.00041567,0.01268412,-0.00001843,-0.00002995,-0.00024462,-0.
 00453759,-0.00303368,0.02272292,-0.05956993,-0.01522151,0.00053048,0.0
 0479626,0.02858748,-0.00083160,0.00173923,0.00174733,-0.00008521,-0.00
 008480,-0.00016780,0.00000543,0.00262594,-0.02543634,0.00074089,0.0543
 4200,-0.01047641,-0.33766341,0.00886443,-0.00279755,-0.01626069,0.0006
 3929,-0.00187187,0.00131151,-0.00026545,0.00011332,0.00050248,-0.00001
 302,0.00219360,-0.00788358,0.00029284,0.00905865,0.35951380,0.00039213
 ,0.00888109,-0.03514214,0.00008343,0.00052909,0.00531389,0.00002031,-0
 .00027816,-0.00801060,-0.00000276,-0.00001203,0.00006998,-0.00006466,0
 .00038986,0.00241375,-0.00037434,-0.00984440,0.02323745,0.00397416,0.0
 2994518,-0.00086618,-0.05895903,-0.01925260,0.00062201,-0.00026027,-0.
 02985235,0.00088233,0.00173547,-0.00087535,0.00001514,0.00117185,-0.00
 038832,-0.00001855,-0.00377250,0.00282765,-0.00002982,0.06076516,-0.00
 288202,-0.01511957,0.00062387,-0.01702926,-0.32822198,0.00841416,0.001
 03597,-0.01188701,0.00043479,0.00099789,0.00118822,-0.00007378,0.00012
 909,0.00125306,-0.00025088,0.00254761,0.00002136,0.00031731,0.01784573
 ,0.35168843,0.00009090,0.00050860,0.00591630,0.00055719,0.00842197,-0.
 04192126,-0.00001823,0.00054325,0.00313481,-0.00003948,-0.00006720,-0.
 00122003,-0.00003364,-0.00024906,-0.00732890,-0.00002166,0.00031633,0.
 01120255,-0.00063895,-0.00952975,0.02725490,0.00173542,-0.00087548,0.0
 0001514,-0.00026049,-0.02985254,0.00088233,-0.05895850,-0.01925002,0.0
 0062193,0.00397393,0.02994521,-0.00086619,0.00016464,0.00044135,-0.000
 01420,-0.00014563,0.00110868,-0.00003094,-0.00467383,-0.00179993,0.000
 07918,0.06076513,0.00099799,0.00118826,-0.00007378,0.00103584,-0.01188
 751,0.00043480,-0.01702702,-0.32822246,0.00841416,-0.00288188,-0.01511
 919,0.00062385,-0.00005462,0.00035527,-0.00001639,-0.00079045,0.000452
 23,-0.00000321,-0.00179996,0.00027005,0.00008388,0.01784345,0.35168886
 ,-0.00003948,-0.00006720,-0.00122004,-0.00001822,0.00054327,0.00313491
 ,0.00055712,0.00842197,-0.04192121,0.00009089,0.00050858,0.00591619,0.
 00000026,-0.00001814,-0.00021311,0.00002442,-0.00000987,0.00024730,0.0
 0007918,0.00008388,0.00292746,-0.00063888,-0.00952975,0.02725488,-0.00
 008481,-0.00016780,0.00000543,0.00173931,0.00174721,-0.00008520,0.0047
 9614,0.02858762,-0.00083161,-0.05956943,-0.01521828,0.00053038,0.00002
 816,-0.00009111,0.00000344,0.00004127,-0.00023387,0.00000814,-0.000145
 64,-0.00079044,0.00002442,-0.00377252,0.00254756,-0.00002166,0.0543413
 1,0.00011332,0.00050245,-0.00001302,-0.00187176,0.00131152,-0.00026545
 ,-0.00279745,-0.01626016,0.00063928,-0.01047330,-0.33766592,0.00886457
 ,0.00007778,-0.00001937,0.00000758,-0.00023386,0.00002568,0.00001227,0
 .00110867,0.00045219,-0.00000987,0.00282757,0.00002143,0.00031633,0.00
 905531,0.35951598,-0.00000276,-0.00001203,0.00006998,0.00002031,-0.000
 27816,-0.00801057,0.00008344,0.00052907,0.00531380,0.00039204,0.008881
 24,-0.03514178,-0.00000149,0.00000818,0.00024982,0.00000814,0.00001227
 ,0.00041799,-0.00003094,-0.00000320,0.00024729,-0.00002982,0.00031731,
 0.01120256,-0.00037424,-0.00984453,0.02323717,-0.00081549,-0.00105811,
 0.00003285,-0.00176855,0.00431568,-0.00007504,-0.01941496,-0.01492425,
 0.00052033,-0.28871934,-0.11230144,0.00416976,-0.00033459,0.00024296,-
 0.00001079,0.00002816,0.00007778,-0.00000149,0.00016463,-0.00005463,0.
 00000026,0.00117187,0.00012910,-0.00003364,0.00262620,0.00219373,-0.00
 006467,0.30706207,0.00070075,0.00090920,-0.00003613,0.00191093,-0.0020
 8072,0.00042412,0.01926290,0.01095056,-0.00024543,-0.11802247,-0.11537
 728,0.00279696,0.00024296,-0.00016289,-0.00003660,-0.00009111,-0.00001
 938,0.00000818,0.00044135,0.00035526,-0.00001814,-0.00038828,0.0012530
 4,-0.00024906,-0.02543620,-0.00788380,0.00038986,0.12137918,0.11205600
 ,-0.00001843,-0.00002995,-0.00024461,-0.00000492,0.00041567,0.01268412
 ,-0.00047640,-0.00012538,0.00485794,0.00433655,0.00277686,-0.03375416,
 -0.00001079,-0.00003660,-0.00138794,0.00000344,0.00000758,0.00024983,-
 0.00001420,-0.00001639,-0.00021312,-0.00001856,-0.00025088,-0.00732893
 ,0.00074089,0.00029285,0.00241374,-0.00453759,-0.00303376,0.02272314\\
 -0.00001429,-0.00004374,0.00000133,0.00002280,0.00011838,-0.00000352,-
 0.00002182,-0.00011783,0.00000350,0.00001353,0.00004219,-0.00000129,0.
 00001483,-0.00000350,0.00000005,0.00000246,0.00000985,-0.00000029,-0.0
 0000236,-0.00002785,0.00000082,0.00000161,0.00002780,-0.00000081,-0.00
 000213,-0.00000938,0.00000029,-0.00001462,0.00000410,-0.00000006\\\@


 The most important thing in communication is to hear what isn't being said.
 -- Peter F. Drucker
 Job cpu time:       1 days 15 hours 28 minutes 52.7 seconds.
 File lengths (MBytes):  RWF=  49230 Int=      0 D2E=      0 Chk=     17 Scr=      1
 Normal termination of Gaussian 09 at Thu Aug 20 19:14:36 2020.
