 Entering Gaussian System, Link 0=/opt/cluster/programs/g09/g09_d.01/g09//g09
 Input=/home/boittier/MDCM/nms_sampling/methanol_geom.xyz.dir/energies/methanol_185_energy.com
 Output=/scratch/boittier/methanol_185_energy/methanol_185_energy.out
 Initial command:
 /opt/cluster/programs/g09/g09_d.01/g09/l1.exe "/scratch/boittier/methanol_185_energy/Gau-119629.inp" -scrdir="/scratch/boittier/methanol_185_energy/"
 Entering Link 1 = /opt/cluster/programs/g09/g09_d.01/g09/l1.exe PID=    119630.
  
 Copyright (c) 1988,1990,1992,1993,1995,1998,2003,2009,2013,
            Gaussian, Inc.  All Rights Reserved.
  
 This is part of the Gaussian(R) 09 program.  It is based on
 the Gaussian(R) 03 system (copyright 2003, Gaussian, Inc.),
 the Gaussian(R) 98 system (copyright 1998, Gaussian, Inc.),
 the Gaussian(R) 94 system (copyright 1995, Gaussian, Inc.),
 the Gaussian 92(TM) system (copyright 1992, Gaussian, Inc.),
 the Gaussian 90(TM) system (copyright 1990, Gaussian, Inc.),
 the Gaussian 88(TM) system (copyright 1988, Gaussian, Inc.),
 the Gaussian 86(TM) system (copyright 1986, Carnegie Mellon
 University), and the Gaussian 82(TM) system (copyright 1983,
 Carnegie Mellon University). Gaussian is a federally registered
 trademark of Gaussian, Inc.
  
 This software contains proprietary and confidential information,
 including trade secrets, belonging to Gaussian, Inc.
  
 This software is provided under written license and may be
 used, copied, transmitted, or stored only in accord with that
 written license.
  
 The following legend is applicable only to US Government
 contracts under FAR:
  
                    RESTRICTED RIGHTS LEGEND
  
 Use, reproduction and disclosure by the US Government is
 subject to restrictions as set forth in subparagraphs (a)
 and (c) of the Commercial Computer Software - Restricted
 Rights clause in FAR 52.227-19.
  
 Gaussian, Inc.
 340 Quinnipiac St., Bldg. 40, Wallingford CT 06492
  
  
 ---------------------------------------------------------------
 Warning -- This program may not be used in any manner that
 competes with the business of Gaussian, Inc. or will provide
 assistance to any competitor of Gaussian, Inc.  The licensee
 of this program is prohibited from giving any competitor of
 Gaussian, Inc. access to this program.  By using this program,
 the user acknowledges that Gaussian, Inc. is engaged in the
 business of creating and licensing software in the field of
 computational chemistry and represents and warrants to the
 licensee that it is not a competitor of Gaussian, Inc. and that
 it will not use this program in any manner prohibited above.
 ---------------------------------------------------------------
  

 Cite this work as:
 Gaussian 09, Revision D.01,
 M. J. Frisch, G. W. Trucks, H. B. Schlegel, G. E. Scuseria, 
 M. A. Robb, J. R. Cheeseman, G. Scalmani, V. Barone, B. Mennucci, 
 G. A. Petersson, H. Nakatsuji, M. Caricato, X. Li, H. P. Hratchian, 
 A. F. Izmaylov, J. Bloino, G. Zheng, J. L. Sonnenberg, M. Hada, 
 M. Ehara, K. Toyota, R. Fukuda, J. Hasegawa, M. Ishida, T. Nakajima, 
 Y. Honda, O. Kitao, H. Nakai, T. Vreven, J. A. Montgomery, Jr., 
 J. E. Peralta, F. Ogliaro, M. Bearpark, J. J. Heyd, E. Brothers, 
 K. N. Kudin, V. N. Staroverov, T. Keith, R. Kobayashi, J. Normand, 
 K. Raghavachari, A. Rendell, J. C. Burant, S. S. Iyengar, J. Tomasi, 
 M. Cossi, N. Rega, J. M. Millam, M. Klene, J. E. Knox, J. B. Cross, 
 V. Bakken, C. Adamo, J. Jaramillo, R. Gomperts, R. E. Stratmann, 
 O. Yazyev, A. J. Austin, R. Cammi, C. Pomelli, J. W. Ochterski, 
 R. L. Martin, K. Morokuma, V. G. Zakrzewski, G. A. Voth, 
 P. Salvador, J. J. Dannenberg, S. Dapprich, A. D. Daniels, 
 O. Farkas, J. B. Foresman, J. V. Ortiz, J. Cioslowski, 
 and D. J. Fox, Gaussian, Inc., Wallingford CT, 2013.
 
 ******************************************
 Gaussian 09:  ES64L-G09RevD.01 24-Apr-2013
                26-Aug-2020 
 ******************************************
 %chk=/home/boittier/MDCM/nms_sampling/methanol_geom.xyz.dir/methanol_185.chk
 %nproc=8
 Will use up to    8 processors via shared memory.
 %mem=16000MB
 --------------------
 #p B2PLYPD3/Def2QZVP
 --------------------
 1/38=1/1;
 2/12=2,17=6,18=5,40=1/2;
 3/5=45,7=101,11=9,16=1,25=1,30=1,74=-60/1,2,3;
 4//1;
 5/5=2,38=5/2;
 8/10=1/1;
 9/16=-3/6;
 6/7=2,8=2,9=2,10=2/1;
 99/5=1,9=1/99;
 Leave Link    1 at Wed Aug 26 14:06:15 2020, MaxMem=  2097152000 cpu:         0.5
 (Enter /opt/cluster/programs/g09/g09_d.01/g09/l101.exe)
 --------
 methanol
 --------
 Symbolic Z-matrix:
 Charge =  0 Multiplicity = 1
 C                    -5.19188  -1.25598   0.91499 
 O                    -3.76251  -1.12485   0.85186 
 H                    -5.47071  -2.24851   0.5372 
 H                    -5.68943  -0.41852   0.31743 
 H                    -5.45101  -1.17564   1.99624 
 H                    -3.45811  -1.1786    0.09289 
 
 NAtoms=      6 NQM=        6 NQMF=       0 NMMI=      0 NMMIF=      0
                NMic=       0 NMicF=      0.
                    Isotopes and Nuclear Properties:
 (Nuclear quadrupole moments (NQMom) in fm**2, nuclear magnetic moments (NMagM)
  in nuclear magnetons)

  Atom         1           2           3           4           5           6
 IAtWgt=          12          16           1           1           1           1
 AtmWgt=  12.0000000  15.9949146   1.0078250   1.0078250   1.0078250   1.0078250
 NucSpn=           0           0           1           1           1           1
 AtZEff=   0.0000000   0.0000000   0.0000000   0.0000000   0.0000000   0.0000000
 NQMom=    0.0000000   0.0000000   0.0000000   0.0000000   0.0000000   0.0000000
 NMagM=    0.0000000   0.0000000   2.7928460   2.7928460   2.7928460   2.7928460
 AtZNuc=   6.0000000   8.0000000   1.0000000   1.0000000   1.0000000   1.0000000
 Leave Link  101 at Wed Aug 26 14:06:15 2020, MaxMem=  2097152000 cpu:         0.5
 (Enter /opt/cluster/programs/g09/g09_d.01/g09/l202.exe)
                          Input orientation:                          
 ---------------------------------------------------------------------
 Center     Atomic      Atomic             Coordinates (Angstroms)
 Number     Number       Type             X           Y           Z
 ---------------------------------------------------------------------
      1          6           0       -5.191884   -1.255983    0.914985
      2          8           0       -3.762512   -1.124851    0.851858
      3          1           0       -5.470712   -2.248508    0.537199
      4          1           0       -5.689434   -0.418521    0.317429
      5          1           0       -5.451005   -1.175638    1.996242
      6          1           0       -3.458105   -1.178596    0.092886
 ---------------------------------------------------------------------
                    Distance matrix (angstroms):
                    1          2          3          4          5
     1  C    0.000000
     2  O    1.436762   0.000000
     3  H    1.097986   2.068710   0.000000
     4  H    1.142791   2.120742   1.856069   0.000000
     5  H    1.114772   2.040393   1.811145   1.857010   0.000000
     6  H    1.920371   0.819506   2.322221   2.367903   2.755798
                    6
     6  H    0.000000
 Stoichiometry    CH4O
 Framework group  C1[X(CH4O)]
 Deg. of freedom    12
 Full point group                 C1      NOp   1
 Largest Abelian subgroup         C1      NOp   1
 Largest concise Abelian subgroup C1      NOp   1
                         Standard orientation:                         
 ---------------------------------------------------------------------
 Center     Atomic      Atomic             Coordinates (Angstroms)
 Number     Number       Type             X           Y           Z
 ---------------------------------------------------------------------
      1          6           0       -0.679724   -0.017956    0.006253
      2          8           0        0.752013    0.100215   -0.014942
      3          1           0       -0.984054   -0.428697    0.977978
      4          1           0       -1.032181   -0.672993   -0.861314
      5          1           0       -1.066183    1.021929   -0.103310
      6          1           0        1.144664   -0.614226    0.068662
 ---------------------------------------------------------------------
 Rotational constants (GHZ):    128.5690625     24.3613876     23.8211009
 Leave Link  202 at Wed Aug 26 14:06:15 2020, MaxMem=  2097152000 cpu:         0.0
 (Enter /opt/cluster/programs/g09/g09_d.01/g09/l301.exe)
 Standard basis: def2QZVP (5D, 7F)
 Ernie: Thresh=  0.10000D-02 Tol=  0.10000D-05 Strict=F.
 There are   284 symmetry adapted cartesian basis functions of A   symmetry.
 There are   234 symmetry adapted basis functions of A   symmetry.
   234 basis functions,   336 primitive gaussians,   284 cartesian basis functions
     9 alpha electrons        9 beta electrons
       nuclear repulsion energy        40.6394286807 Hartrees.
 IExCor=  419 DFT=T Ex+Corr=B2PLYPD3 ExCW=0 ScaHFX=  0.530000
 ScaDFX=  0.470000  0.470000  0.730000  0.730000 ScalE2=  0.270000  0.270000
 IRadAn=      0 IRanWt=     -1 IRanGd=            0 ICorTp=0 IEmpDi=141
 NAtoms=    6 NActive=    6 NUniq=    6 SFac= 1.00D+00 NAtFMM=   60 NAOKFM=F Big=F
 Integral buffers will be    131072 words long.
 Regular integral format.
 Two-electron integral symmetry is turned on.
 R6Disp:  Grimme-D3(BJ) Dispersion energy=       -0.0013086046 Hartrees.
 Nuclear repulsion after empirical dispersion term =       40.6381200762 Hartrees.
 Leave Link  301 at Wed Aug 26 14:06:16 2020, MaxMem=  2097152000 cpu:         0.4
 (Enter /opt/cluster/programs/g09/g09_d.01/g09/l302.exe)
 NPDir=0 NMtPBC=     1 NCelOv=     1 NCel=       1 NClECP=     1 NCelD=      1
         NCelK=      1 NCelE2=     1 NClLst=     1 CellRange=     0.0.
 One-electron integrals computed using PRISM.
   1 Symmetry operations used in ECPInt.
 ECPInt:  NShTT=    2775 NPrTT=    6207 LenC2=    2773 LenP2D=    5738.
 LDataN:  DoStor=T MaxTD1= 8 Len=  415
 NBasis=   234 RedAO= T EigKep=  1.16D-04  NBF=   234
 NBsUse=   234 1.00D-06 EigRej= -1.00D+00 NBFU=   234
 Precomputing XC quadrature grid using
 IXCGrd= 4 IRadAn=           0 IRanWt=          -1 IRanGd=           0 AccXCQ= 0.00D+00.
 Generated NRdTot=       0 NPtTot=           0 NUsed=           0 NTot=          32
 NSgBfM=   284   284   284   284   284 MxSgAt=     6 MxSgA2=     6.
 Leave Link  302 at Wed Aug 26 14:06:16 2020, MaxMem=  2097152000 cpu:         2.2
 (Enter /opt/cluster/programs/g09/g09_d.01/g09/l303.exe)
 DipDrv:  MaxL=1.
 Leave Link  303 at Wed Aug 26 14:06:16 2020, MaxMem=  2097152000 cpu:         0.2
 (Enter /opt/cluster/programs/g09/g09_d.01/g09/l401.exe)
 ExpMin= 7.60D-02 ExpMax= 1.17D+05 ExpMxC= 1.13D+03 IAcc=2 IRadAn=         4 AccDes= 0.00D+00
 Harris functional with IExCor=  419 and IRadAn=       4 diagonalized for initial guess.
 HarFok:  IExCor=  419 AccDes= 0.00D+00 IRadAn=         4 IDoV= 1 UseB2=F ITyADJ=14
 ICtDFT=  3500011 ScaDFX=  1.000000  1.000000  1.000000  1.000000
 FoFCou: FMM=F IPFlag=           0 FMFlag=      100000 FMFlg1=           0
         NFxFlg=           0 DoJE=T BraDBF=F KetDBF=T FulRan=T
         wScrn=  0.000000 ICntrl=     500 IOpCl=  0 I1Cent=   200000004 NGrid=           0
         NMat0=    1 NMatS0=      1 NMatT0=    0 NMatD0=    1 NMtDS0=    0 NMtDT0=    0
 Petite list used in FoFCou.
 Harris En= -115.797142746790    
 JPrj=0 DoOrth=F DoCkMO=F.
 Leave Link  401 at Wed Aug 26 14:06:16 2020, MaxMem=  2097152000 cpu:         3.9
 (Enter /opt/cluster/programs/g09/g09_d.01/g09/l502.exe)
 Closed shell SCF:
 Using DIIS extrapolation, IDIIS=  1040.
 Integral symmetry usage will be decided dynamically.
 Keep R1 ints in memory in canonical form, NReq=389840494.
 IVT=      264814 IEndB=      264814 NGot=  2097152000 MDV=  1718885927
 LenX=  1718885927 LenY=  1718804830
 Requested convergence on RMS density matrix=1.00D-08 within 128 cycles.
 Requested convergence on MAX density matrix=1.00D-06.
 Requested convergence on             energy=1.00D-06.
 No special actions if energy rises.
 FoFCou: FMM=F IPFlag=           0 FMFlag=           0 FMFlg1=           0
         NFxFlg=           0 DoJE=F BraDBF=F KetDBF=F FulRan=T
         wScrn=  0.000000 ICntrl=     600 IOpCl=  0 I1Cent=           0 NGrid=           0
         NMat0=    1 NMatS0=  27495 NMatT0=    0 NMatD0=    1 NMtDS0=    0 NMtDT0=    0
 Symmetry not used in FoFCou.
 Integral accuracy reduced to 1.0D-05 until final iterations.

 Cycle   1  Pass 0  IDiag  1:
 E= -115.418718565049    
 DIIS: error= 2.51D-02 at cycle   1 NSaved=   1.
 NSaved= 1 IEnMin= 1 EnMin= -115.418718565049     IErMin= 1 ErrMin= 2.51D-02
 ErrMax= 2.51D-02  0.00D+00 EMaxC= 1.00D-01 BMatC= 2.01D-01 BMatP= 2.01D-01
 IDIUse=3 WtCom= 7.49D-01 WtEn= 2.51D-01
 Coeff-Com:  0.100D+01
 Coeff-En:   0.100D+01
 Coeff:      0.100D+01
 Gap=     0.351 Goal=   None    Shift=    0.000
 GapD=    0.351 DampG=1.000 DampE=0.500 DampFc=0.5000 IDamp=-1.
 Damping current iteration by 5.00D-01
 RMSDP=1.39D-03 MaxDP=5.49D-02              OVMax= 1.60D-01

 Cycle   2  Pass 0  IDiag  1:
 E= -115.470905094281     Delta-E=       -0.052186529232 Rises=F Damp=T
 DIIS: error= 1.24D-02 at cycle   2 NSaved=   2.
 NSaved= 2 IEnMin= 2 EnMin= -115.470905094281     IErMin= 2 ErrMin= 1.24D-02
 ErrMax= 1.24D-02  0.00D+00 EMaxC= 1.00D-01 BMatC= 1.85D-02 BMatP= 2.01D-01
 IDIUse=3 WtCom= 8.76D-01 WtEn= 1.24D-01
 Coeff-Com: -0.107D+00 0.111D+01
 Coeff-En:   0.000D+00 0.100D+01
 Coeff:     -0.941D-01 0.109D+01
 Gap=     0.433 Goal=   None    Shift=    0.000
 RMSDP=3.56D-04 MaxDP=1.02D-02 DE=-5.22D-02 OVMax= 9.07D-02

 Cycle   3  Pass 0  IDiag  1:
 E= -115.523461341726     Delta-E=       -0.052556247445 Rises=F Damp=F
 DIIS: error= 4.68D-03 at cycle   3 NSaved=   3.
 NSaved= 3 IEnMin= 3 EnMin= -115.523461341726     IErMin= 3 ErrMin= 4.68D-03
 ErrMax= 4.68D-03  0.00D+00 EMaxC= 1.00D-01 BMatC= 3.51D-03 BMatP= 1.85D-02
 IDIUse=3 WtCom= 9.53D-01 WtEn= 4.68D-02
 Coeff-Com: -0.117D+00 0.284D+00 0.833D+00
 Coeff-En:   0.000D+00 0.000D+00 0.100D+01
 Coeff:     -0.112D+00 0.271D+00 0.841D+00
 Gap=     0.412 Goal=   None    Shift=    0.000
 RMSDP=1.10D-04 MaxDP=4.28D-03 DE=-5.26D-02 OVMax= 1.30D-02

 Cycle   4  Pass 0  IDiag  1:
 E= -115.525420426119     Delta-E=       -0.001959084393 Rises=F Damp=F
 DIIS: error= 1.88D-03 at cycle   4 NSaved=   4.
 NSaved= 4 IEnMin= 4 EnMin= -115.525420426119     IErMin= 4 ErrMin= 1.88D-03
 ErrMax= 1.88D-03  0.00D+00 EMaxC= 1.00D-01 BMatC= 3.79D-04 BMatP= 3.51D-03
 IDIUse=3 WtCom= 9.81D-01 WtEn= 1.88D-02
 Coeff-Com: -0.407D-01 0.707D-01 0.353D+00 0.617D+00
 Coeff-En:   0.000D+00 0.000D+00 0.000D+00 0.100D+01
 Coeff:     -0.400D-01 0.694D-01 0.346D+00 0.625D+00
 Gap=     0.410 Goal=   None    Shift=    0.000
 RMSDP=3.51D-05 MaxDP=1.79D-03 DE=-1.96D-03 OVMax= 5.03D-03

 Cycle   5  Pass 0  IDiag  1:
 E= -115.525732672419     Delta-E=       -0.000312246300 Rises=F Damp=F
 DIIS: error= 1.81D-04 at cycle   5 NSaved=   5.
 NSaved= 5 IEnMin= 5 EnMin= -115.525732672419     IErMin= 5 ErrMin= 1.81D-04
 ErrMax= 1.81D-04  0.00D+00 EMaxC= 1.00D-01 BMatC= 6.07D-06 BMatP= 3.79D-04
 IDIUse=3 WtCom= 9.98D-01 WtEn= 1.81D-03
 Coeff-Com: -0.644D-02 0.787D-02 0.614D-01 0.174D+00 0.763D+00
 Coeff-En:   0.000D+00 0.000D+00 0.000D+00 0.000D+00 0.100D+01
 Coeff:     -0.643D-02 0.786D-02 0.613D-01 0.173D+00 0.764D+00
 Gap=     0.411 Goal=   None    Shift=    0.000
 RMSDP=6.62D-06 MaxDP=1.83D-04 DE=-3.12D-04 OVMax= 5.67D-04

 Initial convergence to 1.0D-05 achieved.  Increase integral accuracy.
 Cycle   6  Pass 1  IDiag  1:
 E= -115.525741221273     Delta-E=       -0.000008548854 Rises=F Damp=F
 DIIS: error= 2.54D-05 at cycle   1 NSaved=   1.
 NSaved= 1 IEnMin= 1 EnMin= -115.525741221273     IErMin= 1 ErrMin= 2.54D-05
 ErrMax= 2.54D-05  0.00D+00 EMaxC= 1.00D-01 BMatC= 7.79D-08 BMatP= 7.79D-08
 IDIUse=1 WtCom= 1.00D+00 WtEn= 0.00D+00
 Coeff-Com:  0.100D+01
 Coeff:      0.100D+01
 Gap=     0.411 Goal=   None    Shift=    0.000
 RMSDP=6.62D-06 MaxDP=1.83D-04 DE=-8.55D-06 OVMax= 1.12D-04

 Cycle   7  Pass 1  IDiag  1:
 E= -115.525741334631     Delta-E=       -0.000000113358 Rises=F Damp=F
 DIIS: error= 4.69D-06 at cycle   2 NSaved=   2.
 NSaved= 2 IEnMin= 2 EnMin= -115.525741334631     IErMin= 2 ErrMin= 4.69D-06
 ErrMax= 4.69D-06  0.00D+00 EMaxC= 1.00D-01 BMatC= 4.46D-09 BMatP= 7.79D-08
 IDIUse=1 WtCom= 1.00D+00 WtEn= 0.00D+00
 Coeff-Com: -0.879D-01 0.109D+01
 Coeff:     -0.879D-01 0.109D+01
 Gap=     0.411 Goal=   None    Shift=    0.000
 RMSDP=5.09D-07 MaxDP=1.27D-05 DE=-1.13D-07 OVMax= 3.92D-05

 Cycle   8  Pass 1  IDiag  1:
 E= -115.525741344119     Delta-E=       -0.000000009488 Rises=F Damp=F
 DIIS: error= 2.18D-06 at cycle   3 NSaved=   3.
 NSaved= 3 IEnMin= 3 EnMin= -115.525741344119     IErMin= 3 ErrMin= 2.18D-06
 ErrMax= 2.18D-06  0.00D+00 EMaxC= 1.00D-01 BMatC= 5.66D-10 BMatP= 4.46D-09
 IDIUse=1 WtCom= 1.00D+00 WtEn= 0.00D+00
 Coeff-Com: -0.659D-01 0.136D+00 0.930D+00
 Coeff:     -0.659D-01 0.136D+00 0.930D+00
 Gap=     0.411 Goal=   None    Shift=    0.000
 RMSDP=1.28D-07 MaxDP=3.85D-06 DE=-9.49D-09 OVMax= 1.26D-05

 Cycle   9  Pass 1  IDiag  1:
 E= -115.525741344860     Delta-E=       -0.000000000741 Rises=F Damp=F
 DIIS: error= 8.85D-07 at cycle   4 NSaved=   4.
 NSaved= 4 IEnMin= 4 EnMin= -115.525741344860     IErMin= 4 ErrMin= 8.85D-07
 ErrMax= 8.85D-07  0.00D+00 EMaxC= 1.00D-01 BMatC= 1.33D-10 BMatP= 5.66D-10
 IDIUse=1 WtCom= 1.00D+00 WtEn= 0.00D+00
 Coeff-Com: -0.190D-01-0.163D-01 0.368D+00 0.668D+00
 Coeff:     -0.190D-01-0.163D-01 0.368D+00 0.668D+00
 Gap=     0.411 Goal=   None    Shift=    0.000
 RMSDP=2.72D-08 MaxDP=1.04D-06 DE=-7.41D-10 OVMax= 3.67D-06

 Cycle  10  Pass 1  IDiag  1:
 E= -115.525741344968     Delta-E=       -0.000000000109 Rises=F Damp=F
 DIIS: error= 2.63D-07 at cycle   5 NSaved=   5.
 NSaved= 5 IEnMin= 5 EnMin= -115.525741344968     IErMin= 5 ErrMin= 2.63D-07
 ErrMax= 2.63D-07  0.00D+00 EMaxC= 1.00D-01 BMatC= 8.37D-12 BMatP= 1.33D-10
 IDIUse=1 WtCom= 1.00D+00 WtEn= 0.00D+00
 Coeff-Com:  0.224D-02-0.257D-01 0.405D-02 0.194D+00 0.826D+00
 Coeff:      0.224D-02-0.257D-01 0.405D-02 0.194D+00 0.826D+00
 Gap=     0.411 Goal=   None    Shift=    0.000
 RMSDP=8.75D-09 MaxDP=3.56D-07 DE=-1.09D-10 OVMax= 1.28D-06

 SCF Done:  E(RB2PLYPD3) =  -115.525741345     A.U. after   10 cycles
            NFock= 10  Conv=0.87D-08     -V/T= 2.0012
 KE= 1.153833970405D+02 PE=-3.528624742692D+02 EE= 8.131521580763D+01
 Leave Link  502 at Wed Aug 26 14:06:35 2020, MaxMem=  2097152000 cpu:       102.5
 (Enter /opt/cluster/programs/g09/g09_d.01/g09/l801.exe)
 DoSCS=T DFT=T ScalE2(SS,OS)=  0.270000  0.270000
 ExpMin= 7.60D-02 ExpMax= 1.17D+05 ExpMxC= 1.13D+03 IAcc=3 IRadAn=         5 AccDes= 0.00D+00
 HarFok:  IExCor=  205 AccDes= 0.00D+00 IRadAn=         5 IDoV=-2 UseB2=F ITyADJ=14
 ICtDFT= 12500011 ScaDFX=  1.000000  1.000000  1.000000  1.000000
 Largest valence mixing into a core orbital is  1.19D-04
 Largest core mixing into a valence orbital is  1.52D-05
 Range of M.O.s used for correlation:     3   234
 NBasis=   234 NAE=     9 NBE=     9 NFC=     2 NFV=     0
 NROrb=    232 NOA=     7 NOB=     7 NVA=   225 NVB=   225

 **** Warning!!: The largest alpha MO coefficient is  0.28108668D+02

 Leave Link  801 at Wed Aug 26 14:06:35 2020, MaxMem=  2097152000 cpu:         0.6
 (Enter /opt/cluster/programs/g09/g09_d.01/g09/l906.exe)
 DoSCS=T DFT=T ScalE2(SS,OS)=  0.270000  0.270000
 FulOut=F Deriv=F AODrv=F NAtomX=     6
   MMem=        3646  MDisk=           7 MDiskD=           7
  W3Min=      447300 MinDsk=     1090093 NBas6D=         284
 NBas2D=       41310    NTT=       40470    LW2=     4508827
    MDV=  2096872492 MDiskM=       16391 NBas2p=       41304
 Fully in-core method, ICMem=  1722292712.
 IMap=   1   2   3   4   5   6   7
 JobTyp=1 Pass  1 fully in-core, NPsUse=  8.
 Compute canonical integrals.
 FoFCou: FMM=F IPFlag=           0 FMFlag=           0 FMFlg1=           0
         NFxFlg=           0 DoJE=F BraDBF=F KetDBF=F FulRan=T
         wScrn=  0.000000 ICntrl=     600 IOpCl=  1 I1Cent=           0 NGrid=           0
         NMat0=    1 NMatS0=  41310 NMatT0=    0 NMatD0=    1 NMtDS0=    0 NMtDT0=    0
 Symmetry not used in FoFCou.
 Spin components of T(2) and E(2):
     alpha-alpha T2 =       0.1996675128D-01 E2=     -0.1639785906D-01
     alpha-beta  T2 =       0.1277143257D+00 E2=     -0.1124773770D+00
     beta-beta   T2 =       0.1996675128D-01 E2=     -0.1639785906D-01
 The integrals were generated   1 times.
 E2(B2PLYPD3) =    -0.1452730951D+00 E(B2PLYPD3) =    -0.11567101444006D+03
 Leave Link  906 at Wed Aug 26 14:06:51 2020, MaxMem=  2097152000 cpu:       127.3
 (Enter /opt/cluster/programs/g09/g09_d.01/g09/l601.exe)
 Copying SCF densities to generalized density rwf, IOpCl= 0 IROHF=0.

 **********************************************************************

            Population analysis using the SCF density.

 **********************************************************************

 Orbital symmetries:
       Occupied  (A) (A) (A) (A) (A) (A) (A) (A) (A)
       Virtual   (A) (A) (A) (A) (A) (A) (A) (A) (A) (A) (A) (A)
                 (A) (A) (A) (A) (A) (A) (A) (A) (A) (A) (A) (A)
                 (A) (A) (A) (A) (A) (A) (A) (A) (A) (A) (A) (A)
                 (A) (A) (A) (A) (A) (A) (A) (A) (A) (A) (A) (A)
                 (A) (A) (A) (A) (A) (A) (A) (A) (A) (A) (A) (A)
                 (A) (A) (A) (A) (A) (A) (A) (A) (A) (A) (A) (A)
                 (A) (A) (A) (A) (A) (A) (A) (A) (A) (A) (A) (A)
                 (A) (A) (A) (A) (A) (A) (A) (A) (A) (A) (A) (A)
                 (A) (A) (A) (A) (A) (A) (A) (A) (A) (A) (A) (A)
                 (A) (A) (A) (A) (A) (A) (A) (A) (A) (A) (A) (A)
                 (A) (A) (A) (A) (A) (A) (A) (A) (A) (A) (A) (A)
                 (A) (A) (A) (A) (A) (A) (A) (A) (A) (A) (A) (A)
                 (A) (A) (A) (A) (A) (A) (A) (A) (A) (A) (A) (A)
                 (A) (A) (A) (A) (A) (A) (A) (A) (A) (A) (A) (A)
                 (A) (A) (A) (A) (A) (A) (A) (A) (A) (A) (A) (A)
                 (A) (A) (A) (A) (A) (A) (A) (A) (A) (A) (A) (A)
                 (A) (A) (A) (A) (A) (A) (A) (A) (A) (A) (A) (A)
                 (A) (A) (A) (A) (A) (A) (A) (A) (A) (A) (A) (A)
                 (A) (A) (A) (A) (A) (A) (A) (A) (A)
 The electronic state is 1-A.
 Alpha  occ. eigenvalues --  -19.70745 -10.66997  -1.18915  -0.79865  -0.59906
 Alpha  occ. eigenvalues --   -0.51680  -0.49977  -0.40843  -0.35661
 Alpha virt. eigenvalues --    0.05410   0.08772   0.12038   0.12243   0.14533
 Alpha virt. eigenvalues --    0.16954   0.17834   0.29045   0.32371   0.33133
 Alpha virt. eigenvalues --    0.37569   0.39065   0.39619   0.40258   0.43056
 Alpha virt. eigenvalues --    0.47735   0.53731   0.56786   0.59746   0.66844
 Alpha virt. eigenvalues --    0.70541   0.71398   0.74035   0.77962   0.79914
 Alpha virt. eigenvalues --    0.82286   0.86462   0.87731   0.93294   0.96417
 Alpha virt. eigenvalues --    1.02764   1.03963   1.06144   1.08045   1.09428
 Alpha virt. eigenvalues --    1.12371   1.20445   1.23667   1.30736   1.38429
 Alpha virt. eigenvalues --    1.39926   1.41241   1.42231   1.47473   1.50138
 Alpha virt. eigenvalues --    1.79330   1.80940   1.84947   1.88882   1.89716
 Alpha virt. eigenvalues --    1.93725   1.94728   1.96753   2.00185   2.02375
 Alpha virt. eigenvalues --    2.04649   2.14230   2.17714   2.19501   2.21524
 Alpha virt. eigenvalues --    2.25415   2.30501   2.31113   2.37742   2.44090
 Alpha virt. eigenvalues --    2.44620   2.47182   2.59322   2.61637   2.64547
 Alpha virt. eigenvalues --    2.64940   2.70346   2.72656   2.76726   2.83703
 Alpha virt. eigenvalues --    2.85353   2.87609   2.89179   2.91941   2.96630
 Alpha virt. eigenvalues --    2.98451   3.03725   3.06129   3.11799   3.19622
 Alpha virt. eigenvalues --    3.21785   3.30938   3.34060   3.39445   3.42258
 Alpha virt. eigenvalues --    3.50059   3.64011   3.70441   3.82149   3.85408
 Alpha virt. eigenvalues --    3.89760   3.99484   4.04875   4.08489   4.14489
 Alpha virt. eigenvalues --    4.18639   4.21247   4.29873   4.35158   4.54320
 Alpha virt. eigenvalues --    4.55416   4.74601   4.77402   4.95962   5.23180
 Alpha virt. eigenvalues --    5.40685   5.43333   5.49559   5.66568   5.72761
 Alpha virt. eigenvalues --    5.74943   5.79292   5.83453   5.85702   5.90437
 Alpha virt. eigenvalues --    5.90466   5.98293   5.99835   6.06407   6.09610
 Alpha virt. eigenvalues --    6.16089   6.23025   6.27126   6.29694   6.31464
 Alpha virt. eigenvalues --    6.36768   6.39544   6.42428   6.48745   6.53492
 Alpha virt. eigenvalues --    6.55942   6.63931   6.71903   6.74473   6.89073
 Alpha virt. eigenvalues --    6.92785   6.98355   7.10633   7.15494   7.26598
 Alpha virt. eigenvalues --    7.27795   7.29297   7.31279   7.33647   7.38859
 Alpha virt. eigenvalues --    7.45440   7.48731   7.49367   7.62066   7.68097
 Alpha virt. eigenvalues --    7.69536   7.78008   7.79354   7.79910   7.82215
 Alpha virt. eigenvalues --    7.83444   7.92246   7.98974   7.99475   8.10234
 Alpha virt. eigenvalues --    8.13410   8.26202   8.31557   8.36481   8.43912
 Alpha virt. eigenvalues --    8.45012   8.46996   8.48865   8.50303   8.54340
 Alpha virt. eigenvalues --    8.56165   8.73927   8.86299   8.87177   8.88904
 Alpha virt. eigenvalues --    8.95416   9.00824   9.13441   9.45341   9.48630
 Alpha virt. eigenvalues --    9.60154   9.60883   9.66838   9.71269   9.74209
 Alpha virt. eigenvalues --    9.80598   9.90945   9.97301  10.01711  10.12769
 Alpha virt. eigenvalues --   10.15749  10.24144  10.29211  10.46784  10.69599
 Alpha virt. eigenvalues --   11.02097  11.15874  11.36146  11.50076  11.65467
 Alpha virt. eigenvalues --   11.72927  11.84142  12.01665  12.12806  12.14319
 Alpha virt. eigenvalues --   12.63924  12.67646  12.81701  12.84867  12.92162
 Alpha virt. eigenvalues --   13.17286  13.50629  14.95824  15.31356  15.39689
 Alpha virt. eigenvalues --   16.58138  29.10828  49.05074 148.68280 254.89517
          Condensed to atoms (all electrons):
               1          2          3          4          5          6
     1  C    4.454214   0.264403   0.429478   0.427732   0.400154  -0.043500
     2  O    0.264403   7.908882  -0.050286  -0.049648  -0.037171   0.352479
     3  H    0.429478  -0.050286   0.647795  -0.043123  -0.035655  -0.003809
     4  H    0.427732  -0.049648  -0.043123   0.653477  -0.034546  -0.003587
     5  H    0.400154  -0.037171  -0.035655  -0.034546   0.620671   0.008141
     6  H   -0.043500   0.352479  -0.003809  -0.003587   0.008141   0.552839
 Mulliken charges:
               1
     1  C    0.067520
     2  O   -0.388659
     3  H    0.055600
     4  H    0.049696
     5  H    0.078406
     6  H    0.137437
 Sum of Mulliken charges =   0.00000
 Mulliken charges with hydrogens summed into heavy atoms:
               1
     1  C    0.251222
     2  O   -0.251222
 Electronic spatial extent (au):  <R**2>=             84.8328
 Charge=              0.0000 electrons
 Dipole moment (field-independent basis, Debye):
    X=             -0.9214    Y=             -1.3329    Z=              0.1991  Tot=              1.6326
 Quadrupole moment (field-independent basis, Debye-Ang):
   XX=            -12.9984   YY=            -12.4289   ZZ=            -13.5853
   XY=             -2.1246   XZ=              0.2342   YZ=             -0.1132
 Traceless Quadrupole moment (field-independent basis, Debye-Ang):
   XX=              0.0058   YY=              0.5753   ZZ=             -0.5811
   XY=             -2.1246   XZ=              0.2342   YZ=             -0.1132
 Octapole moment (field-independent basis, Debye-Ang**2):
  XXX=              5.1688  YYY=             -0.1864  ZZZ=              0.4101  XYY=              1.4543
  XXY=             -2.1508  XXZ=              0.2910  XZZ=              0.3882  YZZ=             -0.7849
  YYZ=             -0.1299  XYZ=             -0.1612
 Hexadecapole moment (field-independent basis, Debye-Ang**3):
 XXXX=            -62.7241 YYYY=            -20.4018 ZZZZ=            -20.5955 XXXY=             -4.0943
 XXXZ=              0.3369 YYYX=             -2.9543 YYYZ=             -0.1932 ZZZX=             -0.1529
 ZZZY=             -0.1325 XXYY=            -13.1505 XXZZ=            -14.6536 YYZZ=             -6.9187
 XXYZ=             -0.1626 YYXZ=              0.3494 ZZXY=              0.1295
 N-N= 4.063812007616D+01 E-N=-3.528624546343D+02  KE= 1.153833970405D+02
 Leave Link  601 at Wed Aug 26 14:06:51 2020, MaxMem=  2097152000 cpu:         0.3
 (Enter /opt/cluster/programs/g09/g09_d.01/g09/l9999.exe)
 1\1\GINC-NODE15\SP\RB2PLYPD3-FC\def2QZVP\C1H4O1\BOITTIER\26-Aug-2020\0
 \\#p B2PLYPD3/Def2QZVP\\methanol\\0,1\C,0,-5.191884,-1.255983,0.914985
 \O,0,-3.762512,-1.124851,0.851858\H,0,-5.470712,-2.248508,0.537199\H,0
 ,-5.689434,-0.418521,0.317429\H,0,-5.451005,-1.175638,1.996242\H,0,-3.
 458105,-1.178596,0.092886\\Version=ES64L-G09RevD.01\State=1-A\HF=-115.
 5257413\MP2=-115.6710144\RMSD=8.747e-09\PG=C01 [X(C1H4O1)]\\@


 This summer one third of the nation will be ill-housed
 ill-nourished and ill-clad. Only they call it a vacation.
 -- Jonas Salk
 Job cpu time:       0 days  0 hours  3 minutes 59.4 seconds.
 File lengths (MBytes):  RWF=     23 Int=      0 D2E=      0 Chk=      4 Scr=      1
 Normal termination of Gaussian 09 at Wed Aug 26 14:06:51 2020.
