 Entering Gaussian System, Link 0=/opt/cluster/programs/g09/g09_d.01/g09//g09
 Input=/home/boittier/MDCM/nms_sampling/methanol_geom.xyz.dir/energies/methanol_3249_energy.com
 Output=/scratch/boittier/methanol_3249_energy/methanol_3249_energy.out
 Initial command:
 /opt/cluster/programs/g09/g09_d.01/g09/l1.exe "/scratch/boittier/methanol_3249_energy/Gau-147527.inp" -scrdir="/scratch/boittier/methanol_3249_energy/"
 Entering Link 1 = /opt/cluster/programs/g09/g09_d.01/g09/l1.exe PID=    147528.
  
 Copyright (c) 1988,1990,1992,1993,1995,1998,2003,2009,2013,
            Gaussian, Inc.  All Rights Reserved.
  
 This is part of the Gaussian(R) 09 program.  It is based on
 the Gaussian(R) 03 system (copyright 2003, Gaussian, Inc.),
 the Gaussian(R) 98 system (copyright 1998, Gaussian, Inc.),
 the Gaussian(R) 94 system (copyright 1995, Gaussian, Inc.),
 the Gaussian 92(TM) system (copyright 1992, Gaussian, Inc.),
 the Gaussian 90(TM) system (copyright 1990, Gaussian, Inc.),
 the Gaussian 88(TM) system (copyright 1988, Gaussian, Inc.),
 the Gaussian 86(TM) system (copyright 1986, Carnegie Mellon
 University), and the Gaussian 82(TM) system (copyright 1983,
 Carnegie Mellon University). Gaussian is a federally registered
 trademark of Gaussian, Inc.
  
 This software contains proprietary and confidential information,
 including trade secrets, belonging to Gaussian, Inc.
  
 This software is provided under written license and may be
 used, copied, transmitted, or stored only in accord with that
 written license.
  
 The following legend is applicable only to US Government
 contracts under FAR:
  
                    RESTRICTED RIGHTS LEGEND
  
 Use, reproduction and disclosure by the US Government is
 subject to restrictions as set forth in subparagraphs (a)
 and (c) of the Commercial Computer Software - Restricted
 Rights clause in FAR 52.227-19.
  
 Gaussian, Inc.
 340 Quinnipiac St., Bldg. 40, Wallingford CT 06492
  
  
 ---------------------------------------------------------------
 Warning -- This program may not be used in any manner that
 competes with the business of Gaussian, Inc. or will provide
 assistance to any competitor of Gaussian, Inc.  The licensee
 of this program is prohibited from giving any competitor of
 Gaussian, Inc. access to this program.  By using this program,
 the user acknowledges that Gaussian, Inc. is engaged in the
 business of creating and licensing software in the field of
 computational chemistry and represents and warrants to the
 licensee that it is not a competitor of Gaussian, Inc. and that
 it will not use this program in any manner prohibited above.
 ---------------------------------------------------------------
  

 Cite this work as:
 Gaussian 09, Revision D.01,
 M. J. Frisch, G. W. Trucks, H. B. Schlegel, G. E. Scuseria, 
 M. A. Robb, J. R. Cheeseman, G. Scalmani, V. Barone, B. Mennucci, 
 G. A. Petersson, H. Nakatsuji, M. Caricato, X. Li, H. P. Hratchian, 
 A. F. Izmaylov, J. Bloino, G. Zheng, J. L. Sonnenberg, M. Hada, 
 M. Ehara, K. Toyota, R. Fukuda, J. Hasegawa, M. Ishida, T. Nakajima, 
 Y. Honda, O. Kitao, H. Nakai, T. Vreven, J. A. Montgomery, Jr., 
 J. E. Peralta, F. Ogliaro, M. Bearpark, J. J. Heyd, E. Brothers, 
 K. N. Kudin, V. N. Staroverov, T. Keith, R. Kobayashi, J. Normand, 
 K. Raghavachari, A. Rendell, J. C. Burant, S. S. Iyengar, J. Tomasi, 
 M. Cossi, N. Rega, J. M. Millam, M. Klene, J. E. Knox, J. B. Cross, 
 V. Bakken, C. Adamo, J. Jaramillo, R. Gomperts, R. E. Stratmann, 
 O. Yazyev, A. J. Austin, R. Cammi, C. Pomelli, J. W. Ochterski, 
 R. L. Martin, K. Morokuma, V. G. Zakrzewski, G. A. Voth, 
 P. Salvador, J. J. Dannenberg, S. Dapprich, A. D. Daniels, 
 O. Farkas, J. B. Foresman, J. V. Ortiz, J. Cioslowski, 
 and D. J. Fox, Gaussian, Inc., Wallingford CT, 2013.
 
 ******************************************
 Gaussian 09:  ES64L-G09RevD.01 24-Apr-2013
                26-Aug-2020 
 ******************************************
 %chk=/home/boittier/MDCM/nms_sampling/methanol_geom.xyz.dir/methanol_3249.chk
 %nproc=8
 Will use up to    8 processors via shared memory.
 %mem=16000MB
 --------------------
 #p B2PLYPD3/Def2QZVP
 --------------------
 1/38=1/1;
 2/12=2,17=6,18=5,40=1/2;
 3/5=45,7=101,11=9,16=1,25=1,30=1,74=-60/1,2,3;
 4//1;
 5/5=2,38=5/2;
 8/10=1/1;
 9/16=-3/6;
 6/7=2,8=2,9=2,10=2/1;
 99/5=1,9=1/99;
 Leave Link    1 at Wed Aug 26 23:08:18 2020, MaxMem=  2097152000 cpu:         8.1
 (Enter /opt/cluster/programs/g09/g09_d.01/g09/l101.exe)
 --------
 methanol
 --------
 Symbolic Z-matrix:
 Charge =  0 Multiplicity = 1
 C                    -5.15107  -1.23338   0.90181 
 O                    -3.78196  -1.13309   0.88844 
 H                    -5.51127  -2.16121   0.5693 
 H                    -5.77758  -0.63042   0.39839 
 H                    -5.52115  -1.2232    1.89963 
 H                    -3.42826  -1.13936  -0.36929 
 
 NAtoms=      6 NQM=        6 NQMF=       0 NMMI=      0 NMMIF=      0
                NMic=       0 NMicF=      0.
                    Isotopes and Nuclear Properties:
 (Nuclear quadrupole moments (NQMom) in fm**2, nuclear magnetic moments (NMagM)
  in nuclear magnetons)

  Atom         1           2           3           4           5           6
 IAtWgt=          12          16           1           1           1           1
 AtmWgt=  12.0000000  15.9949146   1.0078250   1.0078250   1.0078250   1.0078250
 NucSpn=           0           0           1           1           1           1
 AtZEff=   0.0000000   0.0000000   0.0000000   0.0000000   0.0000000   0.0000000
 NQMom=    0.0000000   0.0000000   0.0000000   0.0000000   0.0000000   0.0000000
 NMagM=    0.0000000   0.0000000   2.7928460   2.7928460   2.7928460   2.7928460
 AtZNuc=   6.0000000   8.0000000   1.0000000   1.0000000   1.0000000   1.0000000
 Leave Link  101 at Wed Aug 26 23:08:20 2020, MaxMem=  2097152000 cpu:         0.5
 (Enter /opt/cluster/programs/g09/g09_d.01/g09/l202.exe)
                          Input orientation:                          
 ---------------------------------------------------------------------
 Center     Atomic      Atomic             Coordinates (Angstroms)
 Number     Number       Type             X           Y           Z
 ---------------------------------------------------------------------
      1          6           0       -5.151066   -1.233377    0.901812
      2          8           0       -3.781958   -1.133086    0.888439
      3          1           0       -5.511266   -2.161208    0.569304
      4          1           0       -5.777579   -0.630419    0.398385
      5          1           0       -5.521148   -1.223198    1.899625
      6          1           0       -3.428257   -1.139365   -0.369286
 ---------------------------------------------------------------------
                    Distance matrix (angstroms):
                    1          2          3          4          5
     1  C    0.000000
     2  O    1.372842   0.000000
     3  H    1.049369   2.037005   0.000000
     4  H    1.004747   2.115498   1.563154   0.000000
     5  H    1.064281   2.013802   1.627794   1.634278   0.000000
     6  H    2.143035   1.306528   2.502807   2.523422   3.087908
                    6
     6  H    0.000000
 Stoichiometry    CH4O
 Framework group  C1[X(CH4O)]
 Deg. of freedom    12
 Full point group                 C1      NOp   1
 Largest Abelian subgroup         C1      NOp   1
 Largest concise Abelian subgroup C1      NOp   1
                         Standard orientation:                         
 ---------------------------------------------------------------------
 Center     Atomic      Atomic             Coordinates (Angstroms)
 Number     Number       Type             X           Y           Z
 ---------------------------------------------------------------------
      1          6           0        0.631843    0.037379   -0.020239
      2          8           0       -0.723995   -0.177212   -0.001549
      3          1           0        1.005013    0.467387    0.861245
      4          1           0        1.115474    0.607232   -0.691717
      5          1           0        1.160680   -0.886169   -0.029468
      6          1           0       -1.280269    1.004970   -0.006240
 ---------------------------------------------------------------------
 Rotational constants (GHZ):    125.2368228     25.7260805     23.8268160
 Leave Link  202 at Wed Aug 26 23:08:20 2020, MaxMem=  2097152000 cpu:         0.0
 (Enter /opt/cluster/programs/g09/g09_d.01/g09/l301.exe)
 Standard basis: def2QZVP (5D, 7F)
 Ernie: Thresh=  0.10000D-02 Tol=  0.10000D-05 Strict=F.
 There are   284 symmetry adapted cartesian basis functions of A   symmetry.
 There are   234 symmetry adapted basis functions of A   symmetry.
   234 basis functions,   336 primitive gaussians,   284 cartesian basis functions
     9 alpha electrons        9 beta electrons
       nuclear repulsion energy        40.1544927296 Hartrees.
 IExCor=  419 DFT=T Ex+Corr=B2PLYPD3 ExCW=0 ScaHFX=  0.530000
 ScaDFX=  0.470000  0.470000  0.730000  0.730000 ScalE2=  0.270000  0.270000
 IRadAn=      0 IRanWt=     -1 IRanGd=            0 ICorTp=0 IEmpDi=141
 NAtoms=    6 NActive=    6 NUniq=    6 SFac= 1.00D+00 NAtFMM=   60 NAOKFM=F Big=F
 Integral buffers will be    131072 words long.
 Regular integral format.
 Two-electron integral symmetry is turned on.
 R6Disp:  Grimme-D3(BJ) Dispersion energy=       -0.0014484594 Hartrees.
 Nuclear repulsion after empirical dispersion term =       40.1530442703 Hartrees.
 Leave Link  301 at Wed Aug 26 23:08:21 2020, MaxMem=  2097152000 cpu:         0.4
 (Enter /opt/cluster/programs/g09/g09_d.01/g09/l302.exe)
 NPDir=0 NMtPBC=     1 NCelOv=     1 NCel=       1 NClECP=     1 NCelD=      1
         NCelK=      1 NCelE2=     1 NClLst=     1 CellRange=     0.0.
 One-electron integrals computed using PRISM.
   1 Symmetry operations used in ECPInt.
 ECPInt:  NShTT=    2775 NPrTT=    6207 LenC2=    2775 LenP2D=    5736.
 LDataN:  DoStor=T MaxTD1= 8 Len=  415
 NBasis=   234 RedAO= T EigKep=  9.74D-05  NBF=   234
 NBsUse=   234 1.00D-06 EigRej= -1.00D+00 NBFU=   234
 Precomputing XC quadrature grid using
 IXCGrd= 4 IRadAn=           0 IRanWt=          -1 IRanGd=           0 AccXCQ= 0.00D+00.
 Generated NRdTot=       0 NPtTot=           0 NUsed=           0 NTot=          32
 NSgBfM=   284   284   284   284   284 MxSgAt=     6 MxSgA2=     6.
 Leave Link  302 at Wed Aug 26 23:08:21 2020, MaxMem=  2097152000 cpu:         2.0
 (Enter /opt/cluster/programs/g09/g09_d.01/g09/l303.exe)
 DipDrv:  MaxL=1.
 Leave Link  303 at Wed Aug 26 23:08:22 2020, MaxMem=  2097152000 cpu:         0.2
 (Enter /opt/cluster/programs/g09/g09_d.01/g09/l401.exe)
 ExpMin= 7.60D-02 ExpMax= 1.17D+05 ExpMxC= 1.13D+03 IAcc=2 IRadAn=         4 AccDes= 0.00D+00
 Harris functional with IExCor=  419 and IRadAn=       4 diagonalized for initial guess.
 HarFok:  IExCor=  419 AccDes= 0.00D+00 IRadAn=         4 IDoV= 1 UseB2=F ITyADJ=14
 ICtDFT=  3500011 ScaDFX=  1.000000  1.000000  1.000000  1.000000
 FoFCou: FMM=F IPFlag=           0 FMFlag=      100000 FMFlg1=           0
         NFxFlg=           0 DoJE=T BraDBF=F KetDBF=T FulRan=T
         wScrn=  0.000000 ICntrl=     500 IOpCl=  0 I1Cent=   200000004 NGrid=           0
         NMat0=    1 NMatS0=      1 NMatT0=    0 NMatD0=    1 NMtDS0=    0 NMtDT0=    0
 Petite list used in FoFCou.
 Harris En= -115.772479743878    
 JPrj=0 DoOrth=F DoCkMO=F.
 Leave Link  401 at Wed Aug 26 23:08:23 2020, MaxMem=  2097152000 cpu:         3.7
 (Enter /opt/cluster/programs/g09/g09_d.01/g09/l502.exe)
 Closed shell SCF:
 Using DIIS extrapolation, IDIIS=  1040.
 Integral symmetry usage will be decided dynamically.
 Keep R1 ints in memory in canonical form, NReq=389840494.
 IVT=      264814 IEndB=      264814 NGot=  2097152000 MDV=  1718885927
 LenX=  1718885927 LenY=  1718804830
 Requested convergence on RMS density matrix=1.00D-08 within 128 cycles.
 Requested convergence on MAX density matrix=1.00D-06.
 Requested convergence on             energy=1.00D-06.
 No special actions if energy rises.
 FoFCou: FMM=F IPFlag=           0 FMFlag=           0 FMFlg1=           0
         NFxFlg=           0 DoJE=F BraDBF=F KetDBF=F FulRan=T
         wScrn=  0.000000 ICntrl=     600 IOpCl=  0 I1Cent=           0 NGrid=           0
         NMat0=    1 NMatS0=  27495 NMatT0=    0 NMatD0=    1 NMtDS0=    0 NMtDT0=    0
 Symmetry not used in FoFCou.
 Integral accuracy reduced to 1.0D-05 until final iterations.

 Cycle   1  Pass 0  IDiag  1:
 E= -115.348044896158    
 DIIS: error= 3.68D-02 at cycle   1 NSaved=   1.
 NSaved= 1 IEnMin= 1 EnMin= -115.348044896158     IErMin= 1 ErrMin= 3.68D-02
 ErrMax= 3.68D-02  0.00D+00 EMaxC= 1.00D-01 BMatC= 1.92D-01 BMatP= 1.92D-01
 IDIUse=3 WtCom= 6.32D-01 WtEn= 3.68D-01
 Coeff-Com:  0.100D+01
 Coeff-En:   0.100D+01
 Coeff:      0.100D+01
 Gap=     0.222 Goal=   None    Shift=    0.000
 GapD=    0.222 DampG=1.000 DampE=0.500 DampFc=0.5000 IDamp=-1.
 Damping current iteration by 5.00D-01
 RMSDP=1.63D-03 MaxDP=5.53D-02              OVMax= 1.98D-01

 Cycle   2  Pass 0  IDiag  1:
 E= -115.405408257818     Delta-E=       -0.057363361660 Rises=F Damp=T
 DIIS: error= 8.05D-03 at cycle   2 NSaved=   2.
 NSaved= 2 IEnMin= 2 EnMin= -115.405408257818     IErMin= 2 ErrMin= 8.05D-03
 ErrMax= 8.05D-03  0.00D+00 EMaxC= 1.00D-01 BMatC= 2.25D-02 BMatP= 1.92D-01
 IDIUse=3 WtCom= 9.19D-01 WtEn= 8.05D-02
 Coeff-Com: -0.504D-01 0.105D+01
 Coeff-En:   0.219D-01 0.978D+00
 Coeff:     -0.445D-01 0.104D+01
 Gap=     0.358 Goal=   None    Shift=    0.000
 RMSDP=4.59D-04 MaxDP=1.38D-02 DE=-5.74D-02 OVMax= 1.25D-01

 Cycle   3  Pass 0  IDiag  1:
 E= -115.467158891128     Delta-E=       -0.061750633310 Rises=F Damp=F
 DIIS: error= 5.41D-03 at cycle   3 NSaved=   3.
 NSaved= 3 IEnMin= 3 EnMin= -115.467158891128     IErMin= 3 ErrMin= 5.41D-03
 ErrMax= 5.41D-03  0.00D+00 EMaxC= 1.00D-01 BMatC= 1.02D-02 BMatP= 2.25D-02
 IDIUse=3 WtCom= 9.46D-01 WtEn= 5.41D-02
 Coeff-Com: -0.135D+00 0.433D+00 0.701D+00
 Coeff-En:   0.000D+00 0.000D+00 0.100D+01
 Coeff:     -0.127D+00 0.410D+00 0.717D+00
 Gap=     0.351 Goal=   None    Shift=    0.000
 RMSDP=1.91D-04 MaxDP=8.41D-03 DE=-6.18D-02 OVMax= 2.97D-02

 Cycle   4  Pass 0  IDiag  1:
 E= -115.473517902855     Delta-E=       -0.006359011726 Rises=F Damp=F
 DIIS: error= 2.32D-03 at cycle   4 NSaved=   4.
 NSaved= 4 IEnMin= 4 EnMin= -115.473517902855     IErMin= 4 ErrMin= 2.32D-03
 ErrMax= 2.32D-03  0.00D+00 EMaxC= 1.00D-01 BMatC= 1.13D-03 BMatP= 1.02D-02
 IDIUse=3 WtCom= 9.77D-01 WtEn= 2.32D-02
 Coeff-Com: -0.497D-01 0.888D-01 0.316D+00 0.645D+00
 Coeff-En:   0.000D+00 0.000D+00 0.000D+00 0.100D+01
 Coeff:     -0.486D-01 0.867D-01 0.309D+00 0.653D+00
 Gap=     0.347 Goal=   None    Shift=    0.000
 RMSDP=5.54D-05 MaxDP=2.17D-03 DE=-6.36D-03 OVMax= 7.97D-03

 Cycle   5  Pass 0  IDiag  1:
 E= -115.474342875123     Delta-E=       -0.000824972269 Rises=F Damp=F
 DIIS: error= 2.15D-04 at cycle   5 NSaved=   5.
 NSaved= 5 IEnMin= 5 EnMin= -115.474342875123     IErMin= 5 ErrMin= 2.15D-04
 ErrMax= 2.15D-04  0.00D+00 EMaxC= 1.00D-01 BMatC= 9.85D-06 BMatP= 1.13D-03
 IDIUse=3 WtCom= 9.98D-01 WtEn= 2.15D-03
 Coeff-Com: -0.438D-02 0.133D-02 0.364D-01 0.129D+00 0.837D+00
 Coeff-En:   0.000D+00 0.000D+00 0.000D+00 0.000D+00 0.100D+01
 Coeff:     -0.437D-02 0.132D-02 0.363D-01 0.129D+00 0.838D+00
 Gap=     0.347 Goal=   None    Shift=    0.000
 RMSDP=1.01D-05 MaxDP=2.60D-04 DE=-8.25D-04 OVMax= 8.89D-04

 Cycle   6  Pass 0  IDiag  1:
 E= -115.474351625019     Delta-E=       -0.000008749896 Rises=F Damp=F
 DIIS: error= 2.88D-05 at cycle   6 NSaved=   6.
 NSaved= 6 IEnMin= 6 EnMin= -115.474351625019     IErMin= 6 ErrMin= 2.88D-05
 ErrMax= 2.88D-05  0.00D+00 EMaxC= 1.00D-01 BMatC= 2.86D-07 BMatP= 9.85D-06
 IDIUse=1 WtCom= 1.00D+00 WtEn= 0.00D+00
 Coeff-Com:  0.335D-02-0.527D-02-0.177D-01-0.453D-01-0.130D+00 0.119D+01
 Coeff:      0.335D-02-0.527D-02-0.177D-01-0.453D-01-0.130D+00 0.119D+01
 Gap=     0.348 Goal=   None    Shift=    0.000
 RMSDP=4.05D-06 MaxDP=1.23D-04 DE=-8.75D-06 OVMax= 3.63D-04

 Initial convergence to 1.0D-05 achieved.  Increase integral accuracy.
 Cycle   7  Pass 1  IDiag  1:
 E= -115.474349245378     Delta-E=        0.000002379642 Rises=F Damp=F
 DIIS: error= 6.74D-06 at cycle   1 NSaved=   1.
 NSaved= 1 IEnMin= 1 EnMin= -115.474349245378     IErMin= 1 ErrMin= 6.74D-06
 ErrMax= 6.74D-06  0.00D+00 EMaxC= 1.00D-01 BMatC= 2.67D-08 BMatP= 2.67D-08
 IDIUse=1 WtCom= 1.00D+00 WtEn= 0.00D+00
 Coeff-Com:  0.100D+01
 Coeff:      0.100D+01
 Gap=     0.348 Goal=   None    Shift=    0.000
 RMSDP=4.05D-06 MaxDP=1.23D-04 DE= 2.38D-06 OVMax= 5.06D-05

 Cycle   8  Pass 1  IDiag  1:
 E= -115.474349259479     Delta-E=       -0.000000014102 Rises=F Damp=F
 DIIS: error= 1.50D-06 at cycle   2 NSaved=   2.
 NSaved= 2 IEnMin= 2 EnMin= -115.474349259479     IErMin= 2 ErrMin= 1.50D-06
 ErrMax= 1.50D-06  0.00D+00 EMaxC= 1.00D-01 BMatC= 5.92D-10 BMatP= 2.67D-08
 IDIUse=1 WtCom= 1.00D+00 WtEn= 0.00D+00
 Coeff-Com: -0.289D-01 0.103D+01
 Coeff:     -0.289D-01 0.103D+01
 Gap=     0.348 Goal=   None    Shift=    0.000
 RMSDP=2.34D-07 MaxDP=7.32D-06 DE=-1.41D-08 OVMax= 2.57D-05

 Cycle   9  Pass 1  IDiag  1:
 E= -115.474349260390     Delta-E=       -0.000000000910 Rises=F Damp=F
 DIIS: error= 1.34D-06 at cycle   3 NSaved=   3.
 NSaved= 3 IEnMin= 3 EnMin= -115.474349260390     IErMin= 3 ErrMin= 1.34D-06
 ErrMax= 1.34D-06  0.00D+00 EMaxC= 1.00D-01 BMatC= 4.64D-10 BMatP= 5.92D-10
 IDIUse=1 WtCom= 1.00D+00 WtEn= 0.00D+00
 Coeff-Com: -0.338D-01 0.485D+00 0.549D+00
 Coeff:     -0.338D-01 0.485D+00 0.549D+00
 Gap=     0.348 Goal=   None    Shift=    0.000
 RMSDP=4.99D-08 MaxDP=2.35D-06 DE=-9.10D-10 OVMax= 6.38D-06

 Cycle  10  Pass 1  IDiag  1:
 E= -115.474349260736     Delta-E=       -0.000000000346 Rises=F Damp=F
 DIIS: error= 4.62D-07 at cycle   4 NSaved=   4.
 NSaved= 4 IEnMin= 4 EnMin= -115.474349260736     IErMin= 4 ErrMin= 4.62D-07
 ErrMax= 4.62D-07  0.00D+00 EMaxC= 1.00D-01 BMatC= 3.32D-11 BMatP= 4.64D-10
 IDIUse=1 WtCom= 1.00D+00 WtEn= 0.00D+00
 Coeff-Com: -0.261D-02-0.798D-01 0.135D+00 0.947D+00
 Coeff:     -0.261D-02-0.798D-01 0.135D+00 0.947D+00
 Gap=     0.348 Goal=   None    Shift=    0.000
 RMSDP=2.88D-08 MaxDP=1.22D-06 DE=-3.46D-10 OVMax= 5.54D-06

 Cycle  11  Pass 1  IDiag  1:
 E= -115.474349260793     Delta-E=       -0.000000000057 Rises=F Damp=F
 DIIS: error= 1.58D-07 at cycle   5 NSaved=   5.
 NSaved= 5 IEnMin= 5 EnMin= -115.474349260793     IErMin= 5 ErrMin= 1.58D-07
 ErrMax= 1.58D-07  0.00D+00 EMaxC= 1.00D-01 BMatC= 6.54D-12 BMatP= 3.32D-11
 IDIUse=1 WtCom= 1.00D+00 WtEn= 0.00D+00
 Coeff-Com:  0.319D-02-0.914D-01-0.416D-01 0.353D+00 0.777D+00
 Coeff:      0.319D-02-0.914D-01-0.416D-01 0.353D+00 0.777D+00
 Gap=     0.348 Goal=   None    Shift=    0.000
 RMSDP=8.79D-09 MaxDP=2.68D-07 DE=-5.71D-11 OVMax= 1.09D-06

 SCF Done:  E(RB2PLYPD3) =  -115.474349261     A.U. after   11 cycles
            NFock= 11  Conv=0.88D-08     -V/T= 2.0029
 KE= 1.151413188632D+02 PE=-3.518041186483D+02 EE= 8.103540625402D+01
 Leave Link  502 at Wed Aug 26 23:08:44 2020, MaxMem=  2097152000 cpu:       114.7
 (Enter /opt/cluster/programs/g09/g09_d.01/g09/l801.exe)
 DoSCS=T DFT=T ScalE2(SS,OS)=  0.270000  0.270000
 ExpMin= 7.60D-02 ExpMax= 1.17D+05 ExpMxC= 1.13D+03 IAcc=3 IRadAn=         5 AccDes= 0.00D+00
 HarFok:  IExCor=  205 AccDes= 0.00D+00 IRadAn=         5 IDoV=-2 UseB2=F ITyADJ=14
 ICtDFT= 12500011 ScaDFX=  1.000000  1.000000  1.000000  1.000000
 Largest valence mixing into a core orbital is  1.07D-04
 Largest core mixing into a valence orbital is  1.36D-05
 Range of M.O.s used for correlation:     3   234
 NBasis=   234 NAE=     9 NBE=     9 NFC=     2 NFV=     0
 NROrb=    232 NOA=     7 NOB=     7 NVA=   225 NVB=   225

 **** Warning!!: The largest alpha MO coefficient is  0.29282668D+02

 Leave Link  801 at Wed Aug 26 23:08:47 2020, MaxMem=  2097152000 cpu:         0.6
 (Enter /opt/cluster/programs/g09/g09_d.01/g09/l906.exe)
 DoSCS=T DFT=T ScalE2(SS,OS)=  0.270000  0.270000
 FulOut=F Deriv=F AODrv=F NAtomX=     6
   MMem=        3646  MDisk=           7 MDiskD=           7
  W3Min=      447300 MinDsk=     1090093 NBas6D=         284
 NBas2D=       41310    NTT=       40470    LW2=     4508827
    MDV=  2096872746 MDiskM=       16391 NBas2p=       41295
 Fully in-core method, ICMem=  1722292712.
 IMap=   1   2   3   4   5   6   7
 JobTyp=1 Pass  1 fully in-core, NPsUse=  8.
 Compute canonical integrals.
 FoFCou: FMM=F IPFlag=           0 FMFlag=           0 FMFlg1=           0
         NFxFlg=           0 DoJE=F BraDBF=F KetDBF=F FulRan=T
         wScrn=  0.000000 ICntrl=     600 IOpCl=  1 I1Cent=           0 NGrid=           0
         NMat0=    1 NMatS0=  41310 NMatT0=    0 NMatD0=    1 NMtDS0=    0 NMtDT0=    0
 Symmetry not used in FoFCou.
 Spin components of T(2) and E(2):
     alpha-alpha T2 =       0.2325992739D-01 E2=     -0.1743502860D-01
     alpha-beta  T2 =       0.1513104172D+00 E2=     -0.1184078719D+00
     beta-beta   T2 =       0.2325992739D-01 E2=     -0.1743502860D-01
 The integrals were generated   1 times.
 E2(B2PLYPD3) =    -0.1532779291D+00 E(B2PLYPD3) =    -0.11562762718992D+03
 Leave Link  906 at Wed Aug 26 23:09:12 2020, MaxMem=  2097152000 cpu:       122.8
 (Enter /opt/cluster/programs/g09/g09_d.01/g09/l601.exe)
 Copying SCF densities to generalized density rwf, IOpCl= 0 IROHF=0.

 **********************************************************************

            Population analysis using the SCF density.

 **********************************************************************

 Orbital symmetries:
       Occupied  (A) (A) (A) (A) (A) (A) (A) (A) (A)
       Virtual   (A) (A) (A) (A) (A) (A) (A) (A) (A) (A) (A) (A)
                 (A) (A) (A) (A) (A) (A) (A) (A) (A) (A) (A) (A)
                 (A) (A) (A) (A) (A) (A) (A) (A) (A) (A) (A) (A)
                 (A) (A) (A) (A) (A) (A) (A) (A) (A) (A) (A) (A)
                 (A) (A) (A) (A) (A) (A) (A) (A) (A) (A) (A) (A)
                 (A) (A) (A) (A) (A) (A) (A) (A) (A) (A) (A) (A)
                 (A) (A) (A) (A) (A) (A) (A) (A) (A) (A) (A) (A)
                 (A) (A) (A) (A) (A) (A) (A) (A) (A) (A) (A) (A)
                 (A) (A) (A) (A) (A) (A) (A) (A) (A) (A) (A) (A)
                 (A) (A) (A) (A) (A) (A) (A) (A) (A) (A) (A) (A)
                 (A) (A) (A) (A) (A) (A) (A) (A) (A) (A) (A) (A)
                 (A) (A) (A) (A) (A) (A) (A) (A) (A) (A) (A) (A)
                 (A) (A) (A) (A) (A) (A) (A) (A) (A) (A) (A) (A)
                 (A) (A) (A) (A) (A) (A) (A) (A) (A) (A) (A) (A)
                 (A) (A) (A) (A) (A) (A) (A) (A) (A) (A) (A) (A)
                 (A) (A) (A) (A) (A) (A) (A) (A) (A) (A) (A) (A)
                 (A) (A) (A) (A) (A) (A) (A) (A) (A) (A) (A) (A)
                 (A) (A) (A) (A) (A) (A) (A) (A) (A) (A) (A) (A)
                 (A) (A) (A) (A) (A) (A) (A) (A) (A)
 The electronic state is 1-A.
 Alpha  occ. eigenvalues --  -19.75316 -10.63134  -1.13962  -0.78828  -0.55999
 Alpha  occ. eigenvalues --   -0.51541  -0.50294  -0.39415  -0.34613
 Alpha virt. eigenvalues --    0.00156   0.07299   0.12643   0.13269   0.15097
 Alpha virt. eigenvalues --    0.17732   0.18679   0.23415   0.29778   0.33430
 Alpha virt. eigenvalues --    0.36301   0.38473   0.39477   0.41749   0.44853
 Alpha virt. eigenvalues --    0.47177   0.51757   0.55664   0.56723   0.65445
 Alpha virt. eigenvalues --    0.72642   0.76210   0.76833   0.77775   0.81079
 Alpha virt. eigenvalues --    0.82550   0.84199   0.86957   0.88844   0.93905
 Alpha virt. eigenvalues --    0.94285   0.98081   1.00791   1.07020   1.12836
 Alpha virt. eigenvalues --    1.15090   1.15993   1.22831   1.32498   1.38467
 Alpha virt. eigenvalues --    1.41998   1.46928   1.51495   1.56401   1.59352
 Alpha virt. eigenvalues --    1.71994   1.74615   1.79457   1.82475   1.85900
 Alpha virt. eigenvalues --    1.88488   1.95315   1.96048   1.98161   2.05043
 Alpha virt. eigenvalues --    2.06140   2.14291   2.14732   2.15940   2.19634
 Alpha virt. eigenvalues --    2.22348   2.26944   2.29902   2.31544   2.35319
 Alpha virt. eigenvalues --    2.38030   2.45016   2.49788   2.52624   2.55120
 Alpha virt. eigenvalues --    2.60438   2.63537   2.66412   2.70464   2.70971
 Alpha virt. eigenvalues --    2.77775   2.88860   2.91021   2.94151   3.00215
 Alpha virt. eigenvalues --    3.10152   3.12361   3.15429   3.21831   3.27583
 Alpha virt. eigenvalues --    3.29189   3.35816   3.37541   3.48695   3.52521
 Alpha virt. eigenvalues --    3.59696   3.69375   3.77931   3.81432   3.86851
 Alpha virt. eigenvalues --    3.93547   4.02635   4.07755   4.13151   4.17776
 Alpha virt. eigenvalues --    4.22085   4.27042   4.32068   4.32439   4.40650
 Alpha virt. eigenvalues --    4.41399   4.56514   4.67635   4.72574   5.00755
 Alpha virt. eigenvalues --    5.15883   5.26731   5.52514   5.55102   5.56788
 Alpha virt. eigenvalues --    5.58430   5.67765   5.73387   5.80296   5.85511
 Alpha virt. eigenvalues --    5.87532   5.92512   6.02715   6.08808   6.11033
 Alpha virt. eigenvalues --    6.16555   6.19097   6.25556   6.29810   6.32622
 Alpha virt. eigenvalues --    6.37129   6.40412   6.42856   6.48955   6.55032
 Alpha virt. eigenvalues --    6.58484   6.63116   6.67007   6.69218   6.71421
 Alpha virt. eigenvalues --    6.76392   6.78782   6.87993   6.93783   6.97052
 Alpha virt. eigenvalues --    7.04330   7.07362   7.24311   7.31480   7.58114
 Alpha virt. eigenvalues --    7.62005   7.62851   7.68830   7.69918   7.71520
 Alpha virt. eigenvalues --    7.73758   7.76716   7.78167   7.83229   7.87063
 Alpha virt. eigenvalues --    7.94739   8.00040   8.06791   8.11486   8.14496
 Alpha virt. eigenvalues --    8.19947   8.25986   8.33727   8.37017   8.41002
 Alpha virt. eigenvalues --    8.44291   8.46736   8.50818   8.51903   8.53709
 Alpha virt. eigenvalues --    8.57090   8.62154   8.73174   8.76884   8.90245
 Alpha virt. eigenvalues --    8.93429   9.01885   9.06455   9.16704   9.22780
 Alpha virt. eigenvalues --    9.29496   9.33501   9.40728   9.47227   9.72879
 Alpha virt. eigenvalues --    9.83441   9.98883  10.01659  10.08560  10.14235
 Alpha virt. eigenvalues --   10.38652  10.45480  10.51041  10.63179  10.67525
 Alpha virt. eigenvalues --   10.72703  10.84661  10.92219  11.09110  11.21144
 Alpha virt. eigenvalues --   11.43594  11.60329  11.63090  11.84405  11.93199
 Alpha virt. eigenvalues --   12.02722  12.23232  12.25434  12.47948  12.61327
 Alpha virt. eigenvalues --   12.76919  12.99021  13.36237  13.53755  13.85963
 Alpha virt. eigenvalues --   14.60432  29.51207  48.52460 149.17111 254.25708
          Condensed to atoms (all electrons):
               1          2          3          4          5          6
     1  C    4.385906   0.291041   0.445502   0.432966   0.403768  -0.043261
     2  O    0.291041   8.033763  -0.056249  -0.038207  -0.037212   0.274426
     3  H    0.445502  -0.056249   0.708196  -0.081707  -0.042303  -0.009252
     4  H    0.432966  -0.038207  -0.081707   0.716559  -0.054613  -0.014177
     5  H    0.403768  -0.037212  -0.042303  -0.054613   0.664532   0.012851
     6  H   -0.043261   0.274426  -0.009252  -0.014177   0.012851   0.523899
 Mulliken charges:
               1
     1  C    0.084077
     2  O   -0.467561
     3  H    0.035813
     4  H    0.039179
     5  H    0.052977
     6  H    0.255515
 Sum of Mulliken charges =   0.00000
 Mulliken charges with hydrogens summed into heavy atoms:
               1
     1  C    0.212046
     2  O   -0.212046
 Electronic spatial extent (au):  <R**2>=             84.7571
 Charge=              0.0000 electrons
 Dipole moment (field-independent basis, Debye):
    X=              0.6816    Y=              1.7616    Z=             -0.0291  Tot=              1.8891
 Quadrupole moment (field-independent basis, Debye-Ang):
   XX=            -12.4593   YY=            -11.8767   ZZ=            -14.2792
   XY=             -2.5594   XZ=             -0.0859   YZ=             -0.0852
 Traceless Quadrupole moment (field-independent basis, Debye-Ang):
   XX=              0.4125   YY=              0.9950   ZZ=             -1.4075
   XY=             -2.5594   XZ=             -0.0859   YZ=             -0.0852
 Octapole moment (field-independent basis, Debye-Ang**2):
  XXX=             -3.2434  YYY=              1.3131  ZZZ=              0.0382  XYY=             -2.4602
  XXY=              3.1230  XXZ=             -0.1153  XZZ=             -0.2493  YZZ=              0.1945
  YYZ=             -0.0995  XYZ=             -0.0930
 Hexadecapole moment (field-independent basis, Debye-Ang**3):
 XXXX=            -61.7582 YYYY=            -21.7732 ZZZZ=            -19.3907 XXXY=             -4.2012
 XXXZ=             -0.3955 YYYX=             -3.3253 YYYZ=             -0.2236 ZZZX=             -0.0727
 ZZZY=             -0.0604 XXYY=            -11.8550 XXZZ=            -14.9662 YYZZ=             -7.3028
 XXYZ=             -0.2555 YYXZ=             -0.1449 ZZXY=              0.1726
 N-N= 4.015304427029D+01 E-N=-3.518041172329D+02  KE= 1.151413188632D+02
 Leave Link  601 at Wed Aug 26 23:09:14 2020, MaxMem=  2097152000 cpu:         0.3
 (Enter /opt/cluster/programs/g09/g09_d.01/g09/l9999.exe)
 1\1\GINC-NODE14\SP\RB2PLYPD3-FC\def2QZVP\C1H4O1\BOITTIER\26-Aug-2020\0
 \\#p B2PLYPD3/Def2QZVP\\methanol\\0,1\C,0,-5.151066,-1.233377,0.901812
 \O,0,-3.781958,-1.133086,0.888439\H,0,-5.511266,-2.161208,0.569304\H,0
 ,-5.777579,-0.630419,0.398385\H,0,-5.521148,-1.223198,1.899625\H,0,-3.
 428257,-1.139365,-0.369286\\Version=ES64L-G09RevD.01\State=1-A\HF=-115
 .4743493\MP2=-115.6276272\RMSD=8.787e-09\PG=C01 [X(C1H4O1)]\\@


 ACCORDING TO HEN3RY, LIFE IS MUCH LIKE A SEWER........
 YOU GET OUT OF IT JUST WHAT YOU PUT INTO IT...........
                         TOM LEHRER - (THE 3 IS SILENT)
 Job cpu time:       0 days  0 hours  4 minutes 15.8 seconds.
 File lengths (MBytes):  RWF=     23 Int=      0 D2E=      0 Chk=      4 Scr=      1
 Normal termination of Gaussian 09 at Wed Aug 26 23:09:19 2020.
