 Entering Gaussian System, Link 0=/opt/cluster/programs/g09/g09_d.01/g09//g09
 Input=/home/boittier/MDCM/nms_sampling/methanol_geom.xyz.dir/energies/methanol_3438_energy.com
 Output=/scratch/boittier/methanol_3438_energy/methanol_3438_energy.out
 Initial command:
 /opt/cluster/programs/g09/g09_d.01/g09/l1.exe "/scratch/boittier/methanol_3438_energy/Gau-112664.inp" -scrdir="/scratch/boittier/methanol_3438_energy/"
 Entering Link 1 = /opt/cluster/programs/g09/g09_d.01/g09/l1.exe PID=    112665.
  
 Copyright (c) 1988,1990,1992,1993,1995,1998,2003,2009,2013,
            Gaussian, Inc.  All Rights Reserved.
  
 This is part of the Gaussian(R) 09 program.  It is based on
 the Gaussian(R) 03 system (copyright 2003, Gaussian, Inc.),
 the Gaussian(R) 98 system (copyright 1998, Gaussian, Inc.),
 the Gaussian(R) 94 system (copyright 1995, Gaussian, Inc.),
 the Gaussian 92(TM) system (copyright 1992, Gaussian, Inc.),
 the Gaussian 90(TM) system (copyright 1990, Gaussian, Inc.),
 the Gaussian 88(TM) system (copyright 1988, Gaussian, Inc.),
 the Gaussian 86(TM) system (copyright 1986, Carnegie Mellon
 University), and the Gaussian 82(TM) system (copyright 1983,
 Carnegie Mellon University). Gaussian is a federally registered
 trademark of Gaussian, Inc.
  
 This software contains proprietary and confidential information,
 including trade secrets, belonging to Gaussian, Inc.
  
 This software is provided under written license and may be
 used, copied, transmitted, or stored only in accord with that
 written license.
  
 The following legend is applicable only to US Government
 contracts under FAR:
  
                    RESTRICTED RIGHTS LEGEND
  
 Use, reproduction and disclosure by the US Government is
 subject to restrictions as set forth in subparagraphs (a)
 and (c) of the Commercial Computer Software - Restricted
 Rights clause in FAR 52.227-19.
  
 Gaussian, Inc.
 340 Quinnipiac St., Bldg. 40, Wallingford CT 06492
  
  
 ---------------------------------------------------------------
 Warning -- This program may not be used in any manner that
 competes with the business of Gaussian, Inc. or will provide
 assistance to any competitor of Gaussian, Inc.  The licensee
 of this program is prohibited from giving any competitor of
 Gaussian, Inc. access to this program.  By using this program,
 the user acknowledges that Gaussian, Inc. is engaged in the
 business of creating and licensing software in the field of
 computational chemistry and represents and warrants to the
 licensee that it is not a competitor of Gaussian, Inc. and that
 it will not use this program in any manner prohibited above.
 ---------------------------------------------------------------
  

 Cite this work as:
 Gaussian 09, Revision D.01,
 M. J. Frisch, G. W. Trucks, H. B. Schlegel, G. E. Scuseria, 
 M. A. Robb, J. R. Cheeseman, G. Scalmani, V. Barone, B. Mennucci, 
 G. A. Petersson, H. Nakatsuji, M. Caricato, X. Li, H. P. Hratchian, 
 A. F. Izmaylov, J. Bloino, G. Zheng, J. L. Sonnenberg, M. Hada, 
 M. Ehara, K. Toyota, R. Fukuda, J. Hasegawa, M. Ishida, T. Nakajima, 
 Y. Honda, O. Kitao, H. Nakai, T. Vreven, J. A. Montgomery, Jr., 
 J. E. Peralta, F. Ogliaro, M. Bearpark, J. J. Heyd, E. Brothers, 
 K. N. Kudin, V. N. Staroverov, T. Keith, R. Kobayashi, J. Normand, 
 K. Raghavachari, A. Rendell, J. C. Burant, S. S. Iyengar, J. Tomasi, 
 M. Cossi, N. Rega, J. M. Millam, M. Klene, J. E. Knox, J. B. Cross, 
 V. Bakken, C. Adamo, J. Jaramillo, R. Gomperts, R. E. Stratmann, 
 O. Yazyev, A. J. Austin, R. Cammi, C. Pomelli, J. W. Ochterski, 
 R. L. Martin, K. Morokuma, V. G. Zakrzewski, G. A. Voth, 
 P. Salvador, J. J. Dannenberg, S. Dapprich, A. D. Daniels, 
 O. Farkas, J. B. Foresman, J. V. Ortiz, J. Cioslowski, 
 and D. J. Fox, Gaussian, Inc., Wallingford CT, 2013.
 
 ******************************************
 Gaussian 09:  ES64L-G09RevD.01 24-Apr-2013
                26-Aug-2020 
 ******************************************
 %chk=/home/boittier/MDCM/nms_sampling/methanol_geom.xyz.dir/methanol_3438.chk
 %nproc=8
 Will use up to    8 processors via shared memory.
 %mem=16000MB
 --------------------
 #p B2PLYPD3/Def2QZVP
 --------------------
 1/38=1/1;
 2/12=2,17=6,18=5,40=1/2;
 3/5=45,7=101,11=9,16=1,25=1,30=1,74=-60/1,2,3;
 4//1;
 5/5=2,38=5/2;
 8/10=1/1;
 9/16=-3/6;
 6/7=2,8=2,9=2,10=2/1;
 99/5=1,9=1/99;
 Leave Link    1 at Wed Aug 26 23:22:21 2020, MaxMem=  2097152000 cpu:         0.5
 (Enter /opt/cluster/programs/g09/g09_d.01/g09/l101.exe)
 --------
 methanol
 --------
 Symbolic Z-matrix:
 Charge =  0 Multiplicity = 1
 C                    -5.1773   -1.25484   0.8968 
 O                    -3.76308  -1.12971   0.83273 
 H                    -5.46286  -2.29844   0.53174 
 H                    -5.78303  -0.38718   0.2896 
 H                    -5.5516   -1.12577   2.20318 
 H                    -3.4305   -1.15321   0.44221 
 
 NAtoms=      6 NQM=        6 NQMF=       0 NMMI=      0 NMMIF=      0
                NMic=       0 NMicF=      0.
                    Isotopes and Nuclear Properties:
 (Nuclear quadrupole moments (NQMom) in fm**2, nuclear magnetic moments (NMagM)
  in nuclear magnetons)

  Atom         1           2           3           4           5           6
 IAtWgt=          12          16           1           1           1           1
 AtmWgt=  12.0000000  15.9949146   1.0078250   1.0078250   1.0078250   1.0078250
 NucSpn=           0           0           1           1           1           1
 AtZEff=   0.0000000   0.0000000   0.0000000   0.0000000   0.0000000   0.0000000
 NQMom=    0.0000000   0.0000000   0.0000000   0.0000000   0.0000000   0.0000000
 NMagM=    0.0000000   0.0000000   2.7928460   2.7928460   2.7928460   2.7928460
 AtZNuc=   6.0000000   8.0000000   1.0000000   1.0000000   1.0000000   1.0000000
 Leave Link  101 at Wed Aug 26 23:22:21 2020, MaxMem=  2097152000 cpu:         0.6
 (Enter /opt/cluster/programs/g09/g09_d.01/g09/l202.exe)
                          Input orientation:                          
 ---------------------------------------------------------------------
 Center     Atomic      Atomic             Coordinates (Angstroms)
 Number     Number       Type             X           Y           Z
 ---------------------------------------------------------------------
      1          6           0       -5.177302   -1.254843    0.896795
      2          8           0       -3.763083   -1.129706    0.832733
      3          1           0       -5.462861   -2.298441    0.531737
      4          1           0       -5.783026   -0.387176    0.289598
      5          1           0       -5.551597   -1.125769    2.203185
      6          1           0       -3.430500   -1.153207    0.442206
 ---------------------------------------------------------------------
                    Distance matrix (angstroms):
                    1          2          3          4          5
     1  C    0.000000
     2  O    1.421189   0.000000
     3  H    1.141888   2.084655   0.000000
     4  H    1.220015   2.219576   1.952965   0.000000
     5  H    1.365068   2.253206   2.043715   2.064193   0.000000
     6  H    1.807844   0.513493   2.334538   2.478804   2.756964
                    6
     6  H    0.000000
 Stoichiometry    CH4O
 Framework group  C1[X(CH4O)]
 Deg. of freedom    12
 Full point group                 C1      NOp   1
 Largest Abelian subgroup         C1      NOp   1
 Largest concise Abelian subgroup C1      NOp   1
                         Standard orientation:                         
 ---------------------------------------------------------------------
 Center     Atomic      Atomic             Coordinates (Angstroms)
 Number     Number       Type             X           Y           Z
 ---------------------------------------------------------------------
      1          6           0       -0.657317   -0.041799    0.015864
      2          8           0        0.759850    0.060068   -0.016352
      3          1           0       -0.962653   -0.493511    1.019176
      4          1           0       -1.134215   -0.664334   -0.918724
      5          1           0       -1.171237    1.219513   -0.075726
      6          1           0        1.133204   -0.291414    0.010906
 ---------------------------------------------------------------------
 Rotational constants (GHZ):    119.0391036     23.9363518     23.4615555
 Leave Link  202 at Wed Aug 26 23:22:21 2020, MaxMem=  2097152000 cpu:         0.0
 (Enter /opt/cluster/programs/g09/g09_d.01/g09/l301.exe)
 Standard basis: def2QZVP (5D, 7F)
 Ernie: Thresh=  0.10000D-02 Tol=  0.10000D-05 Strict=F.
 There are   284 symmetry adapted cartesian basis functions of A   symmetry.
 There are   234 symmetry adapted basis functions of A   symmetry.
   234 basis functions,   336 primitive gaussians,   284 cartesian basis functions
     9 alpha electrons        9 beta electrons
       nuclear repulsion energy        42.8175423398 Hartrees.
 IExCor=  419 DFT=T Ex+Corr=B2PLYPD3 ExCW=0 ScaHFX=  0.530000
 ScaDFX=  0.470000  0.470000  0.730000  0.730000 ScalE2=  0.270000  0.270000
 IRadAn=      0 IRanWt=     -1 IRanGd=            0 ICorTp=0 IEmpDi=141
 NAtoms=    6 NActive=    6 NUniq=    6 SFac= 1.00D+00 NAtFMM=   60 NAOKFM=F Big=F
 Integral buffers will be    131072 words long.
 Regular integral format.
 Two-electron integral symmetry is turned on.
 R6Disp:  Grimme-D3(BJ) Dispersion energy=       -0.0013600371 Hartrees.
 Nuclear repulsion after empirical dispersion term =       42.8161823027 Hartrees.
 Leave Link  301 at Wed Aug 26 23:22:22 2020, MaxMem=  2097152000 cpu:         0.5
 (Enter /opt/cluster/programs/g09/g09_d.01/g09/l302.exe)
 NPDir=0 NMtPBC=     1 NCelOv=     1 NCel=       1 NClECP=     1 NCelD=      1
         NCelK=      1 NCelE2=     1 NClLst=     1 CellRange=     0.0.
 One-electron integrals computed using PRISM.
   1 Symmetry operations used in ECPInt.
 ECPInt:  NShTT=    2775 NPrTT=    6207 LenC2=    2774 LenP2D=    5740.
 LDataN:  DoStor=T MaxTD1= 8 Len=  415
 NBasis=   234 RedAO= T EigKep=  2.43D-05  NBF=   234
 NBsUse=   234 1.00D-06 EigRej= -1.00D+00 NBFU=   234
 Precomputing XC quadrature grid using
 IXCGrd= 4 IRadAn=           0 IRanWt=          -1 IRanGd=           0 AccXCQ= 0.00D+00.
 Generated NRdTot=       0 NPtTot=           0 NUsed=           0 NTot=          32
 NSgBfM=   284   284   284   284   284 MxSgAt=     6 MxSgA2=     6.
 Leave Link  302 at Wed Aug 26 23:22:22 2020, MaxMem=  2097152000 cpu:         2.3
 (Enter /opt/cluster/programs/g09/g09_d.01/g09/l303.exe)
 DipDrv:  MaxL=1.
 Leave Link  303 at Wed Aug 26 23:22:22 2020, MaxMem=  2097152000 cpu:         0.3
 (Enter /opt/cluster/programs/g09/g09_d.01/g09/l401.exe)
 ExpMin= 7.60D-02 ExpMax= 1.17D+05 ExpMxC= 1.13D+03 IAcc=2 IRadAn=         4 AccDes= 0.00D+00
 Harris functional with IExCor=  419 and IRadAn=       4 diagonalized for initial guess.
 HarFok:  IExCor=  419 AccDes= 0.00D+00 IRadAn=         4 IDoV= 1 UseB2=F ITyADJ=14
 ICtDFT=  3500011 ScaDFX=  1.000000  1.000000  1.000000  1.000000
 FoFCou: FMM=F IPFlag=           0 FMFlag=      100000 FMFlg1=           0
         NFxFlg=           0 DoJE=T BraDBF=F KetDBF=T FulRan=T
         wScrn=  0.000000 ICntrl=     500 IOpCl=  0 I1Cent=   200000004 NGrid=           0
         NMat0=    1 NMatS0=      1 NMatT0=    0 NMatD0=    1 NMtDS0=    0 NMtDT0=    0
 Petite list used in FoFCou.
 Harris En= -115.210646664568    
 JPrj=0 DoOrth=F DoCkMO=F.
 Leave Link  401 at Wed Aug 26 23:22:23 2020, MaxMem=  2097152000 cpu:         4.4
 (Enter /opt/cluster/programs/g09/g09_d.01/g09/l502.exe)
 Closed shell SCF:
 Using DIIS extrapolation, IDIIS=  1040.
 Integral symmetry usage will be decided dynamically.
 Keep R1 ints in memory in canonical form, NReq=389840494.
 IVT=      264814 IEndB=      264814 NGot=  2097152000 MDV=  1718885927
 LenX=  1718885927 LenY=  1718804830
 Requested convergence on RMS density matrix=1.00D-08 within 128 cycles.
 Requested convergence on MAX density matrix=1.00D-06.
 Requested convergence on             energy=1.00D-06.
 No special actions if energy rises.
 FoFCou: FMM=F IPFlag=           0 FMFlag=           0 FMFlg1=           0
         NFxFlg=           0 DoJE=F BraDBF=F KetDBF=F FulRan=T
         wScrn=  0.000000 ICntrl=     600 IOpCl=  0 I1Cent=           0 NGrid=           0
         NMat0=    1 NMatS0=  27495 NMatT0=    0 NMatD0=    1 NMtDS0=    0 NMtDT0=    0
 Symmetry not used in FoFCou.
 Integral accuracy reduced to 1.0D-05 until final iterations.

 Cycle   1  Pass 0  IDiag  1:
 E= -114.573810586886    
 DIIS: error= 5.22D-02 at cycle   1 NSaved=   1.
 NSaved= 1 IEnMin= 1 EnMin= -114.573810586886     IErMin= 1 ErrMin= 5.22D-02
 ErrMax= 5.22D-02  0.00D+00 EMaxC= 1.00D-01 BMatC= 4.92D-01 BMatP= 4.92D-01
 IDIUse=3 WtCom= 4.78D-01 WtEn= 5.22D-01
 Coeff-Com:  0.100D+01
 Coeff-En:   0.100D+01
 Coeff:      0.100D+01
 Gap=     0.424 Goal=   None    Shift=    0.000
 GapD=    0.424 DampG=2.000 DampE=0.500 DampFc=1.0000 IDamp=-1.
 RMSDP=2.70D-03 MaxDP=9.62D-02              OVMax= 2.87D-01

 Cycle   2  Pass 0  IDiag  1:
 E= -114.545807551682     Delta-E=        0.028003035204 Rises=F Damp=F
 DIIS: error= 4.81D-02 at cycle   2 NSaved=   2.
 NSaved= 2 IEnMin= 1 EnMin= -114.573810586886     IErMin= 2 ErrMin= 4.81D-02
 ErrMax= 4.81D-02  0.00D+00 EMaxC= 1.00D-01 BMatC= 4.16D-01 BMatP= 4.92D-01
 IDIUse=3 WtCom= 5.19D-01 WtEn= 4.81D-01
 Coeff-Com:  0.477D+00 0.523D+00
 Coeff-En:   0.528D+00 0.472D+00
 Coeff:      0.502D+00 0.498D+00
 Gap=     0.437 Goal=   None    Shift=    0.000
 RMSDP=2.06D-03 MaxDP=7.25D-02 DE= 2.80D-02 OVMax= 1.40D-01

 Cycle   3  Pass 0  IDiag  1:
 E= -114.822593547613     Delta-E=       -0.276785995931 Rises=F Damp=F
 DIIS: error= 5.11D-03 at cycle   3 NSaved=   3.
 NSaved= 3 IEnMin= 3 EnMin= -114.822593547613     IErMin= 3 ErrMin= 5.11D-03
 ErrMax= 5.11D-03  0.00D+00 EMaxC= 1.00D-01 BMatC= 2.60D-03 BMatP= 4.16D-01
 IDIUse=3 WtCom= 9.49D-01 WtEn= 5.11D-02
 Coeff-Com:  0.118D-01 0.694D-01 0.919D+00
 Coeff-En:   0.000D+00 0.000D+00 0.100D+01
 Coeff:      0.112D-01 0.659D-01 0.923D+00
 Gap=     0.417 Goal=   None    Shift=    0.000
 RMSDP=1.33D-04 MaxDP=5.00D-03 DE=-2.77D-01 OVMax= 1.42D-02

 Cycle   4  Pass 0  IDiag  1:
 E= -114.824289060504     Delta-E=       -0.001695512891 Rises=F Damp=F
 DIIS: error= 1.53D-03 at cycle   4 NSaved=   4.
 NSaved= 4 IEnMin= 4 EnMin= -114.824289060504     IErMin= 4 ErrMin= 1.53D-03
 ErrMax= 1.53D-03  0.00D+00 EMaxC= 1.00D-01 BMatC= 2.35D-04 BMatP= 2.60D-03
 IDIUse=3 WtCom= 9.85D-01 WtEn= 1.53D-02
 Coeff-Com: -0.438D-02 0.708D-02 0.278D+00 0.720D+00
 Coeff-En:   0.000D+00 0.000D+00 0.000D+00 0.100D+01
 Coeff:     -0.431D-02 0.697D-02 0.273D+00 0.724D+00
 Gap=     0.413 Goal=   None    Shift=    0.000
 RMSDP=4.19D-05 MaxDP=1.91D-03 DE=-1.70D-03 OVMax= 5.37D-03

 Cycle   5  Pass 0  IDiag  1:
 E= -114.824490010833     Delta-E=       -0.000200950329 Rises=F Damp=F
 DIIS: error= 5.19D-04 at cycle   5 NSaved=   5.
 NSaved= 5 IEnMin= 5 EnMin= -114.824490010833     IErMin= 5 ErrMin= 5.19D-04
 ErrMax= 5.19D-04  0.00D+00 EMaxC= 1.00D-01 BMatC= 2.59D-05 BMatP= 2.35D-04
 IDIUse=3 WtCom= 9.95D-01 WtEn= 5.19D-03
 Coeff-Com: -0.265D-02-0.293D-02 0.433D-01 0.282D+00 0.681D+00
 Coeff-En:   0.000D+00 0.000D+00 0.000D+00 0.000D+00 0.100D+01
 Coeff:     -0.264D-02-0.292D-02 0.431D-01 0.280D+00 0.682D+00
 Gap=     0.414 Goal=   None    Shift=    0.000
 RMSDP=1.80D-05 MaxDP=6.49D-04 DE=-2.01D-04 OVMax= 1.49D-03

 Cycle   6  Pass 0  IDiag  1:
 E= -114.824514891812     Delta-E=       -0.000024880979 Rises=F Damp=F
 DIIS: error= 6.91D-05 at cycle   6 NSaved=   6.
 NSaved= 6 IEnMin= 6 EnMin= -114.824514891812     IErMin= 6 ErrMin= 6.91D-05
 ErrMax= 6.91D-05  0.00D+00 EMaxC= 1.00D-01 BMatC= 3.95D-07 BMatP= 2.59D-05
 IDIUse=1 WtCom= 1.00D+00 WtEn= 0.00D+00
 Coeff-Com:  0.359D-03-0.902D-03-0.189D-01-0.397D-01-0.124D-01 0.107D+01
 Coeff:      0.359D-03-0.902D-03-0.189D-01-0.397D-01-0.124D-01 0.107D+01
 Gap=     0.414 Goal=   None    Shift=    0.000
 RMSDP=6.91D-06 MaxDP=3.35D-04 DE=-2.49D-05 OVMax= 3.51D-04

 Initial convergence to 1.0D-05 achieved.  Increase integral accuracy.
 Cycle   7  Pass 1  IDiag  1:
 E= -114.824529369037     Delta-E=       -0.000014477225 Rises=F Damp=F
 DIIS: error= 4.35D-05 at cycle   1 NSaved=   1.
 NSaved= 1 IEnMin= 1 EnMin= -114.824529369037     IErMin= 1 ErrMin= 4.35D-05
 ErrMax= 4.35D-05  0.00D+00 EMaxC= 1.00D-01 BMatC= 1.61D-07 BMatP= 1.61D-07
 IDIUse=1 WtCom= 1.00D+00 WtEn= 0.00D+00
 Coeff-Com:  0.100D+01
 Coeff:      0.100D+01
 Gap=     0.414 Goal=   None    Shift=    0.000
 RMSDP=6.91D-06 MaxDP=3.35D-04 DE=-1.45D-05 OVMax= 8.45D-05

 Cycle   8  Pass 1  IDiag  1:
 E= -114.824529410263     Delta-E=       -0.000000041226 Rises=F Damp=F
 DIIS: error= 4.75D-06 at cycle   2 NSaved=   2.
 NSaved= 2 IEnMin= 2 EnMin= -114.824529410263     IErMin= 2 ErrMin= 4.75D-06
 ErrMax= 4.75D-06  0.00D+00 EMaxC= 1.00D-01 BMatC= 5.07D-09 BMatP= 1.61D-07
 IDIUse=1 WtCom= 1.00D+00 WtEn= 0.00D+00
 Coeff-Com:  0.117D-01 0.988D+00
 Coeff:      0.117D-01 0.988D+00
 Gap=     0.414 Goal=   None    Shift=    0.000
 RMSDP=6.64D-07 MaxDP=2.30D-05 DE=-4.12D-08 OVMax= 3.63D-05

 Cycle   9  Pass 1  IDiag  1:
 E= -114.824529412977     Delta-E=       -0.000000002714 Rises=F Damp=F
 DIIS: error= 5.74D-06 at cycle   3 NSaved=   3.
 NSaved= 3 IEnMin= 3 EnMin= -114.824529412977     IErMin= 2 ErrMin= 4.75D-06
 ErrMax= 5.74D-06  0.00D+00 EMaxC= 1.00D-01 BMatC= 3.83D-09 BMatP= 5.07D-09
 IDIUse=1 WtCom= 1.00D+00 WtEn= 0.00D+00
 Coeff-Com: -0.189D-01 0.469D+00 0.550D+00
 Coeff:     -0.189D-01 0.469D+00 0.550D+00
 Gap=     0.414 Goal=   None    Shift=    0.000
 RMSDP=1.04D-07 MaxDP=4.36D-06 DE=-2.71D-09 OVMax= 1.27D-05

 Cycle  10  Pass 1  IDiag  1:
 E= -114.824529415418     Delta-E=       -0.000000002441 Rises=F Damp=F
 DIIS: error= 6.28D-07 at cycle   4 NSaved=   4.
 NSaved= 4 IEnMin= 4 EnMin= -114.824529415418     IErMin= 4 ErrMin= 6.28D-07
 ErrMax= 6.28D-07  0.00D+00 EMaxC= 1.00D-01 BMatC= 5.41D-11 BMatP= 3.83D-09
 IDIUse=1 WtCom= 1.00D+00 WtEn= 0.00D+00
 Coeff-Com:  0.135D-02-0.137D+00-0.606D-01 0.120D+01
 Coeff:      0.135D-02-0.137D+00-0.606D-01 0.120D+01
 Gap=     0.414 Goal=   None    Shift=    0.000
 RMSDP=8.93D-08 MaxDP=3.16D-06 DE=-2.44D-09 OVMax= 6.63D-06

 Cycle  11  Pass 1  IDiag  1:
 E= -114.824529415532     Delta-E=       -0.000000000115 Rises=F Damp=F
 DIIS: error= 2.02D-07 at cycle   5 NSaved=   5.
 NSaved= 5 IEnMin= 5 EnMin= -114.824529415532     IErMin= 5 ErrMin= 2.02D-07
 ErrMax= 2.02D-07  0.00D+00 EMaxC= 1.00D-01 BMatC= 4.89D-12 BMatP= 5.41D-11
 IDIUse=1 WtCom= 1.00D+00 WtEn= 0.00D+00
 Coeff-Com:  0.146D-02-0.671D-01-0.446D-01 0.338D+00 0.772D+00
 Coeff:      0.146D-02-0.671D-01-0.446D-01 0.338D+00 0.772D+00
 Gap=     0.414 Goal=   None    Shift=    0.000
 RMSDP=1.36D-08 MaxDP=5.62D-07 DE=-1.15D-10 OVMax= 1.08D-06

 Cycle  12  Pass 1  IDiag  1:
 E= -114.824529415539     Delta-E=       -0.000000000006 Rises=F Damp=F
 DIIS: error= 6.49D-08 at cycle   6 NSaved=   6.
 NSaved= 6 IEnMin= 6 EnMin= -114.824529415539     IErMin= 6 ErrMin= 6.49D-08
 ErrMax= 6.49D-08  0.00D+00 EMaxC= 1.00D-01 BMatC= 4.27D-13 BMatP= 4.89D-12
 IDIUse=1 WtCom= 1.00D+00 WtEn= 0.00D+00
 Coeff-Com:  0.554D-03-0.210D-01-0.142D-01 0.758D-01 0.296D+00 0.663D+00
 Coeff:      0.554D-03-0.210D-01-0.142D-01 0.758D-01 0.296D+00 0.663D+00
 Gap=     0.414 Goal=   None    Shift=    0.000
 RMSDP=1.84D-09 MaxDP=7.27D-08 DE=-6.31D-12 OVMax= 1.99D-07

 SCF Done:  E(RB2PLYPD3) =  -114.824529416     A.U. after   12 cycles
            NFock= 12  Conv=0.18D-08     -V/T= 1.9834
 KE= 1.167660197348D+02 PE=-3.566907395107D+02 EE= 8.228400805766D+01
 Leave Link  502 at Wed Aug 26 23:22:42 2020, MaxMem=  2097152000 cpu:        90.4
 (Enter /opt/cluster/programs/g09/g09_d.01/g09/l801.exe)
 DoSCS=T DFT=T ScalE2(SS,OS)=  0.270000  0.270000
 ExpMin= 7.60D-02 ExpMax= 1.17D+05 ExpMxC= 1.13D+03 IAcc=3 IRadAn=         5 AccDes= 0.00D+00
 HarFok:  IExCor=  205 AccDes= 0.00D+00 IRadAn=         5 IDoV=-2 UseB2=F ITyADJ=14
 ICtDFT= 12500011 ScaDFX=  1.000000  1.000000  1.000000  1.000000
 Largest valence mixing into a core orbital is  1.31D-04
 Largest core mixing into a valence orbital is  1.48D-05
 Range of M.O.s used for correlation:     3   234
 NBasis=   234 NAE=     9 NBE=     9 NFC=     2 NFV=     0
 NROrb=    232 NOA=     7 NOB=     7 NVA=   225 NVB=   225

 **** Warning!!: The largest alpha MO coefficient is  0.34376087D+02

 Leave Link  801 at Wed Aug 26 23:22:42 2020, MaxMem=  2097152000 cpu:         0.7
 (Enter /opt/cluster/programs/g09/g09_d.01/g09/l906.exe)
 DoSCS=T DFT=T ScalE2(SS,OS)=  0.270000  0.270000
 FulOut=F Deriv=F AODrv=F NAtomX=     6
   MMem=        3646  MDisk=           7 MDiskD=           7
  W3Min=      447300 MinDsk=     1090093 NBas6D=         284
 NBas2D=       41310    NTT=       40470    LW2=     4508827
    MDV=  2096873096 MDiskM=       16391 NBas2p=       41292
 Fully in-core method, ICMem=  1722292712.
 IMap=   1   2   3   4   5   6   7
 JobTyp=1 Pass  1 fully in-core, NPsUse=  8.
 Compute canonical integrals.
 FoFCou: FMM=F IPFlag=           0 FMFlag=           0 FMFlg1=           0
         NFxFlg=           0 DoJE=F BraDBF=F KetDBF=F FulRan=T
         wScrn=  0.000000 ICntrl=     600 IOpCl=  1 I1Cent=           0 NGrid=           0
         NMat0=    1 NMatS0=  41310 NMatT0=    0 NMatD0=    1 NMtDS0=    0 NMtDT0=    0
 Symmetry not used in FoFCou.
 Spin components of T(2) and E(2):
     alpha-alpha T2 =       0.1902128919D-01 E2=     -0.1604751516D-01
     alpha-beta  T2 =       0.1307501138D+00 E2=     -0.1120510127D+00
     beta-beta   T2 =       0.1902128919D-01 E2=     -0.1604751516D-01
 The integrals were generated   1 times.
 E2(B2PLYPD3) =    -0.1441460431D+00 E(B2PLYPD3) =    -0.11496867545860D+03
 Leave Link  906 at Wed Aug 26 23:22:59 2020, MaxMem=  2097152000 cpu:       136.6
 (Enter /opt/cluster/programs/g09/g09_d.01/g09/l601.exe)
 Copying SCF densities to generalized density rwf, IOpCl= 0 IROHF=0.

 **********************************************************************

            Population analysis using the SCF density.

 **********************************************************************

 Orbital symmetries:
       Occupied  (A) (A) (A) (A) (A) (A) (A) (A) (A)
       Virtual   (A) (A) (A) (A) (A) (A) (A) (A) (A) (A) (A) (A)
                 (A) (A) (A) (A) (A) (A) (A) (A) (A) (A) (A) (A)
                 (A) (A) (A) (A) (A) (A) (A) (A) (A) (A) (A) (A)
                 (A) (A) (A) (A) (A) (A) (A) (A) (A) (A) (A) (A)
                 (A) (A) (A) (A) (A) (A) (A) (A) (A) (A) (A) (A)
                 (A) (A) (A) (A) (A) (A) (A) (A) (A) (A) (A) (A)
                 (A) (A) (A) (A) (A) (A) (A) (A) (A) (A) (A) (A)
                 (A) (A) (A) (A) (A) (A) (A) (A) (A) (A) (A) (A)
                 (A) (A) (A) (A) (A) (A) (A) (A) (A) (A) (A) (A)
                 (A) (A) (A) (A) (A) (A) (A) (A) (A) (A) (A) (A)
                 (A) (A) (A) (A) (A) (A) (A) (A) (A) (A) (A) (A)
                 (A) (A) (A) (A) (A) (A) (A) (A) (A) (A) (A) (A)
                 (A) (A) (A) (A) (A) (A) (A) (A) (A) (A) (A) (A)
                 (A) (A) (A) (A) (A) (A) (A) (A) (A) (A) (A) (A)
                 (A) (A) (A) (A) (A) (A) (A) (A) (A) (A) (A) (A)
                 (A) (A) (A) (A) (A) (A) (A) (A) (A) (A) (A) (A)
                 (A) (A) (A) (A) (A) (A) (A) (A) (A) (A) (A) (A)
                 (A) (A) (A) (A) (A) (A) (A) (A) (A) (A) (A) (A)
                 (A) (A) (A) (A) (A) (A) (A) (A) (A)
 The electronic state is 1-A.
 Alpha  occ. eigenvalues --  -19.68662 -10.71936  -1.32495  -0.85399  -0.62896
 Alpha  occ. eigenvalues --   -0.51832  -0.48798  -0.38218  -0.37050
 Alpha virt. eigenvalues --    0.04362   0.09601   0.10325   0.11634   0.14042
 Alpha virt. eigenvalues --    0.16758   0.17711   0.28218   0.30513   0.31648
 Alpha virt. eigenvalues --    0.32664   0.35478   0.38811   0.40875   0.42164
 Alpha virt. eigenvalues --    0.50795   0.52320   0.61239   0.62400   0.67247
 Alpha virt. eigenvalues --    0.68268   0.70619   0.70991   0.77462   0.77762
 Alpha virt. eigenvalues --    0.81867   0.87924   0.90134   0.92296   0.94340
 Alpha virt. eigenvalues --    1.02350   1.03134   1.05439   1.07007   1.08820
 Alpha virt. eigenvalues --    1.12357   1.18883   1.22060   1.32753   1.36235
 Alpha virt. eigenvalues --    1.37858   1.41838   1.44190   1.46289   1.58937
 Alpha virt. eigenvalues --    1.78254   1.81442   1.83580   1.89642   1.91415
 Alpha virt. eigenvalues --    1.94621   1.95449   1.98122   1.99239   2.04002
 Alpha virt. eigenvalues --    2.09759   2.13429   2.15410   2.16427   2.18448
 Alpha virt. eigenvalues --    2.24646   2.27286   2.32312   2.36200   2.38482
 Alpha virt. eigenvalues --    2.44586   2.47109   2.54981   2.60324   2.63181
 Alpha virt. eigenvalues --    2.64676   2.68140   2.70961   2.73102   2.75550
 Alpha virt. eigenvalues --    2.77435   2.80403   2.88495   2.91232   2.96292
 Alpha virt. eigenvalues --    3.00991   3.04946   3.11525   3.13814   3.15371
 Alpha virt. eigenvalues --    3.18344   3.24380   3.25484   3.28602   3.37621
 Alpha virt. eigenvalues --    3.45615   3.50248   3.54511   3.67197   3.81999
 Alpha virt. eigenvalues --    3.87101   3.92395   3.95012   4.01983   4.12457
 Alpha virt. eigenvalues --    4.16721   4.20477   4.30651   4.38501   4.48250
 Alpha virt. eigenvalues --    4.53064   4.77268   4.83775   5.11777   5.25848
 Alpha virt. eigenvalues --    5.27166   5.35633   5.40158   5.56561   5.58954
 Alpha virt. eigenvalues --    5.69785   5.77628   5.84709   5.87671   5.88497
 Alpha virt. eigenvalues --    5.91813   5.97166   5.99905   6.02244   6.04040
 Alpha virt. eigenvalues --    6.09115   6.11751   6.21030   6.22436   6.25551
 Alpha virt. eigenvalues --    6.27800   6.36124   6.40202   6.42911   6.46481
 Alpha virt. eigenvalues --    6.48456   6.57141   6.63372   6.68632   6.70175
 Alpha virt. eigenvalues --    6.79140   6.80488   6.90181   6.94441   7.03743
 Alpha virt. eigenvalues --    7.08046   7.24792   7.25879   7.27207   7.34676
 Alpha virt. eigenvalues --    7.38618   7.50797   7.56825   7.57115   7.63566
 Alpha virt. eigenvalues --    7.65455   7.67452   7.71348   7.77455   7.84337
 Alpha virt. eigenvalues --    7.90366   7.93048   8.00189   8.08062   8.16387
 Alpha virt. eigenvalues --    8.18401   8.25544   8.34157   8.39919   8.41229
 Alpha virt. eigenvalues --    8.46504   8.51630   8.56332   8.61129   8.63737
 Alpha virt. eigenvalues --    8.68143   8.70419   8.75966   8.93326   9.00282
 Alpha virt. eigenvalues --    9.07804   9.11601   9.20016   9.22160   9.33430
 Alpha virt. eigenvalues --    9.35857   9.42983   9.48257   9.52068   9.53756
 Alpha virt. eigenvalues --    9.62813   9.78185   9.79652   9.85001  10.04975
 Alpha virt. eigenvalues --   10.34229  10.49506  10.55625  10.63324  10.69060
 Alpha virt. eigenvalues --   10.76567  10.96488  11.38887  11.69930  11.73911
 Alpha virt. eigenvalues --   11.77845  12.08327  12.27960  12.37974  12.59626
 Alpha virt. eigenvalues --   12.69913  13.65046  14.71879  14.91509  14.95082
 Alpha virt. eigenvalues --   14.95306  15.44156  16.08140  16.68806  17.39800
 Alpha virt. eigenvalues --   23.55134  28.63694  50.75005 148.17032 256.84504
          Condensed to atoms (all electrons):
               1          2          3          4          5          6
     1  C    4.516638   0.235292   0.406987   0.398583   0.390853   0.001498
     2  O    0.235292   7.406485  -0.059865  -0.049038  -0.032122   0.559086
     3  H    0.406987  -0.059865   0.646403  -0.038518  -0.031515   0.004064
     4  H    0.398583  -0.049038  -0.038518   0.659955  -0.034440   0.003686
     5  H    0.390853  -0.032122  -0.031515  -0.034440   0.650632  -0.005991
     6  H    0.001498   0.559086   0.004064   0.003686  -0.005991   0.622769
 Mulliken charges:
               1
     1  C    0.050150
     2  O   -0.059839
     3  H    0.072445
     4  H    0.059771
     5  H    0.062584
     6  H   -0.185111
 Sum of Mulliken charges =   0.00000
 Mulliken charges with hydrogens summed into heavy atoms:
               1
     1  C    0.244950
     2  O   -0.244950
 Electronic spatial extent (au):  <R**2>=             87.1061
 Charge=              0.0000 electrons
 Dipole moment (field-independent basis, Debye):
    X=             -0.8724    Y=             -1.0765    Z=              0.1582  Tot=              1.3947
 Quadrupole moment (field-independent basis, Debye-Ang):
   XX=            -12.6799   YY=            -12.9643   ZZ=            -13.3725
   XY=             -1.4572   XZ=              0.1948   YZ=             -0.0724
 Traceless Quadrupole moment (field-independent basis, Debye-Ang):
   XX=              0.3256   YY=              0.0413   ZZ=             -0.3669
   XY=             -1.4572   XZ=              0.1948   YZ=             -0.0724
 Octapole moment (field-independent basis, Debye-Ang**2):
  XXX=              7.4022  YYY=             -0.0626  ZZZ=              0.5147  XYY=              1.2464
  XXY=             -1.7625  XXZ=             -0.0117  XZZ=              0.9740  YZZ=             -1.2139
  YYZ=             -0.1151  XYZ=             -0.0441
 Hexadecapole moment (field-independent basis, Debye-Ang**3):
 XXXX=            -63.1762 YYYY=            -23.7397 ZZZZ=            -21.4946 XXXY=             -2.4557
 XXXZ=              0.2901 YYYX=             -2.3584 YYYZ=             -0.2270 ZZZX=             -0.2455
 ZZZY=             -0.1768 XXYY=            -14.2090 XXZZ=            -14.6418 YYZZ=             -7.7344
 XXYZ=              0.0560 YYXZ=              0.2597 ZZXY=              0.7027
 N-N= 4.281618230273D+01 E-N=-3.566907357334D+02  KE= 1.167660197348D+02
 Leave Link  601 at Wed Aug 26 23:22:59 2020, MaxMem=  2097152000 cpu:         0.3
 (Enter /opt/cluster/programs/g09/g09_d.01/g09/l9999.exe)
 1\1\GINC-NODE12\SP\RB2PLYPD3-FC\def2QZVP\C1H4O1\BOITTIER\26-Aug-2020\0
 \\#p B2PLYPD3/Def2QZVP\\methanol\\0,1\C,0,-5.177302,-1.254843,0.896795
 \O,0,-3.763083,-1.129706,0.832733\H,0,-5.462861,-2.298441,0.531737\H,0
 ,-5.783026,-0.387176,0.289598\H,0,-5.551597,-1.125769,2.203185\H,0,-3.
 4305,-1.153207,0.442206\\Version=ES64L-G09RevD.01\State=1-A\HF=-114.82
 45294\MP2=-114.9686755\RMSD=1.841e-09\PG=C01 [X(C1H4O1)]\\@


 SLITHERY-DITHERY
 FRIEDRICH A. KEKULE
 DREAMT ON A BUS OF THINGS
 FREUD WOULD THINK KEEN.
 MOST OF THE TIME THEY WERE
 HERPETOLOGICAL
 BITING THEIR TAILS IN THE
 SHAPE OF BENZENE.
 Job cpu time:       0 days  0 hours  3 minutes 57.2 seconds.
 File lengths (MBytes):  RWF=     23 Int=      0 D2E=      0 Chk=      4 Scr=      1
 Normal termination of Gaussian 09 at Wed Aug 26 23:23:00 2020.
