 Entering Gaussian System, Link 0=/opt/cluster/programs/g09/g09_d.01/g09//g09
 Input=/home/boittier/MDCM/nms_sampling/methanol_geom.xyz.dir/energies/methanol_1181_energy.com
 Output=/scratch/boittier/methanol_1181_energy/methanol_1181_energy.out
 Initial command:
 /opt/cluster/programs/g09/g09_d.01/g09/l1.exe "/scratch/boittier/methanol_1181_energy/Gau-104489.inp" -scrdir="/scratch/boittier/methanol_1181_energy/"
 Entering Link 1 = /opt/cluster/programs/g09/g09_d.01/g09/l1.exe PID=    104490.
  
 Copyright (c) 1988,1990,1992,1993,1995,1998,2003,2009,2013,
            Gaussian, Inc.  All Rights Reserved.
  
 This is part of the Gaussian(R) 09 program.  It is based on
 the Gaussian(R) 03 system (copyright 2003, Gaussian, Inc.),
 the Gaussian(R) 98 system (copyright 1998, Gaussian, Inc.),
 the Gaussian(R) 94 system (copyright 1995, Gaussian, Inc.),
 the Gaussian 92(TM) system (copyright 1992, Gaussian, Inc.),
 the Gaussian 90(TM) system (copyright 1990, Gaussian, Inc.),
 the Gaussian 88(TM) system (copyright 1988, Gaussian, Inc.),
 the Gaussian 86(TM) system (copyright 1986, Carnegie Mellon
 University), and the Gaussian 82(TM) system (copyright 1983,
 Carnegie Mellon University). Gaussian is a federally registered
 trademark of Gaussian, Inc.
  
 This software contains proprietary and confidential information,
 including trade secrets, belonging to Gaussian, Inc.
  
 This software is provided under written license and may be
 used, copied, transmitted, or stored only in accord with that
 written license.
  
 The following legend is applicable only to US Government
 contracts under FAR:
  
                    RESTRICTED RIGHTS LEGEND
  
 Use, reproduction and disclosure by the US Government is
 subject to restrictions as set forth in subparagraphs (a)
 and (c) of the Commercial Computer Software - Restricted
 Rights clause in FAR 52.227-19.
  
 Gaussian, Inc.
 340 Quinnipiac St., Bldg. 40, Wallingford CT 06492
  
  
 ---------------------------------------------------------------
 Warning -- This program may not be used in any manner that
 competes with the business of Gaussian, Inc. or will provide
 assistance to any competitor of Gaussian, Inc.  The licensee
 of this program is prohibited from giving any competitor of
 Gaussian, Inc. access to this program.  By using this program,
 the user acknowledges that Gaussian, Inc. is engaged in the
 business of creating and licensing software in the field of
 computational chemistry and represents and warrants to the
 licensee that it is not a competitor of Gaussian, Inc. and that
 it will not use this program in any manner prohibited above.
 ---------------------------------------------------------------
  

 Cite this work as:
 Gaussian 09, Revision D.01,
 M. J. Frisch, G. W. Trucks, H. B. Schlegel, G. E. Scuseria, 
 M. A. Robb, J. R. Cheeseman, G. Scalmani, V. Barone, B. Mennucci, 
 G. A. Petersson, H. Nakatsuji, M. Caricato, X. Li, H. P. Hratchian, 
 A. F. Izmaylov, J. Bloino, G. Zheng, J. L. Sonnenberg, M. Hada, 
 M. Ehara, K. Toyota, R. Fukuda, J. Hasegawa, M. Ishida, T. Nakajima, 
 Y. Honda, O. Kitao, H. Nakai, T. Vreven, J. A. Montgomery, Jr., 
 J. E. Peralta, F. Ogliaro, M. Bearpark, J. J. Heyd, E. Brothers, 
 K. N. Kudin, V. N. Staroverov, T. Keith, R. Kobayashi, J. Normand, 
 K. Raghavachari, A. Rendell, J. C. Burant, S. S. Iyengar, J. Tomasi, 
 M. Cossi, N. Rega, J. M. Millam, M. Klene, J. E. Knox, J. B. Cross, 
 V. Bakken, C. Adamo, J. Jaramillo, R. Gomperts, R. E. Stratmann, 
 O. Yazyev, A. J. Austin, R. Cammi, C. Pomelli, J. W. Ochterski, 
 R. L. Martin, K. Morokuma, V. G. Zakrzewski, G. A. Voth, 
 P. Salvador, J. J. Dannenberg, S. Dapprich, A. D. Daniels, 
 O. Farkas, J. B. Foresman, J. V. Ortiz, J. Cioslowski, 
 and D. J. Fox, Gaussian, Inc., Wallingford CT, 2013.
 
 ******************************************
 Gaussian 09:  ES64L-G09RevD.01 24-Apr-2013
                26-Aug-2020 
 ******************************************
 %chk=/home/boittier/MDCM/nms_sampling/methanol_geom.xyz.dir/methanol_1181.chk
 %nproc=8
 Will use up to    8 processors via shared memory.
 %mem=16000MB
 --------------------
 #p B2PLYPD3/Def2QZVP
 --------------------
 1/38=1/1;
 2/12=2,17=6,18=5,40=1/2;
 3/5=45,7=101,11=9,16=1,25=1,30=1,74=-60/1,2,3;
 4//1;
 5/5=2,38=5/2;
 8/10=1/1;
 9/16=-3/6;
 6/7=2,8=2,9=2,10=2/1;
 99/5=1,9=1/99;
 Leave Link    1 at Wed Aug 26 10:39:19 2020, MaxMem=  2097152000 cpu:         0.2
 (Enter /opt/cluster/programs/g09/g09_d.01/g09/l101.exe)
 --------
 methanol
 --------
 Symbolic Z-matrix:
 Charge =  0 Multiplicity = 1
 C                    -5.17593  -1.26363   0.91486 
 O                    -3.76724  -1.11933   0.85698 
 H                    -5.53724  -2.23523   0.54125 
 H                    -5.71313  -0.42486   0.35868 
 H                    -5.44755  -1.15165   1.96028 
 H                    -3.48304  -1.20766   0.00303 
 
 NAtoms=      6 NQM=        6 NQMF=       0 NMMI=      0 NMMIF=      0
                NMic=       0 NMicF=      0.
                    Isotopes and Nuclear Properties:
 (Nuclear quadrupole moments (NQMom) in fm**2, nuclear magnetic moments (NMagM)
  in nuclear magnetons)

  Atom         1           2           3           4           5           6
 IAtWgt=          12          16           1           1           1           1
 AtmWgt=  12.0000000  15.9949146   1.0078250   1.0078250   1.0078250   1.0078250
 NucSpn=           0           0           1           1           1           1
 AtZEff=   0.0000000   0.0000000   0.0000000   0.0000000   0.0000000   0.0000000
 NQMom=    0.0000000   0.0000000   0.0000000   0.0000000   0.0000000   0.0000000
 NMagM=    0.0000000   0.0000000   2.7928460   2.7928460   2.7928460   2.7928460
 AtZNuc=   6.0000000   8.0000000   1.0000000   1.0000000   1.0000000   1.0000000
 Leave Link  101 at Wed Aug 26 10:39:19 2020, MaxMem=  2097152000 cpu:         0.5
 (Enter /opt/cluster/programs/g09/g09_d.01/g09/l202.exe)
                          Input orientation:                          
 ---------------------------------------------------------------------
 Center     Atomic      Atomic             Coordinates (Angstroms)
 Number     Number       Type             X           Y           Z
 ---------------------------------------------------------------------
      1          6           0       -5.175934   -1.263625    0.914856
      2          8           0       -3.767244   -1.119331    0.856978
      3          1           0       -5.537236   -2.235233    0.541249
      4          1           0       -5.713127   -0.424863    0.358678
      5          1           0       -5.447548   -1.151653    1.960283
      6          1           0       -3.483042   -1.207665    0.003027
 ---------------------------------------------------------------------
                    Distance matrix (angstroms):
                    1          2          3          4          5
     1  C    0.000000
     2  O    1.417243   0.000000
     3  H    1.101882   2.116080   0.000000
     4  H    1.140803   2.125335   1.828034   0.000000
     5  H    1.085923   2.010410   1.787693   1.778734   0.000000
     6  H    1.923655   0.904326   2.359087   2.390093   2.773675
                    6
     6  H    0.000000
 Stoichiometry    CH4O
 Framework group  C1[X(CH4O)]
 Deg. of freedom    12
 Full point group                 C1      NOp   1
 Largest Abelian subgroup         C1      NOp   1
 Largest concise Abelian subgroup C1      NOp   1
                         Standard orientation:                         
 ---------------------------------------------------------------------
 Center     Atomic      Atomic             Coordinates (Angstroms)
 Number     Number       Type             X           Y           Z
 ---------------------------------------------------------------------
      1          6           0        0.661866   -0.016917   -0.009990
      2          8           0       -0.749617    0.110415   -0.001146
      3          1           0        1.049418   -0.589639   -0.867857
      4          1           0        1.053857   -0.478551    0.956793
      5          1           0        1.055439    0.994734   -0.039864
      6          1           0       -1.132973   -0.708362    0.020041
 ---------------------------------------------------------------------
 Rotational constants (GHZ):    128.8916226     24.6803775     24.0329970
 Leave Link  202 at Wed Aug 26 10:39:19 2020, MaxMem=  2097152000 cpu:         0.0
 (Enter /opt/cluster/programs/g09/g09_d.01/g09/l301.exe)
 Standard basis: def2QZVP (5D, 7F)
 Ernie: Thresh=  0.10000D-02 Tol=  0.10000D-05 Strict=F.
 There are   284 symmetry adapted cartesian basis functions of A   symmetry.
 There are   234 symmetry adapted basis functions of A   symmetry.
   234 basis functions,   336 primitive gaussians,   284 cartesian basis functions
     9 alpha electrons        9 beta electrons
       nuclear repulsion energy        40.4605409420 Hartrees.
 IExCor=  419 DFT=T Ex+Corr=B2PLYPD3 ExCW=0 ScaHFX=  0.530000
 ScaDFX=  0.470000  0.470000  0.730000  0.730000 ScalE2=  0.270000  0.270000
 IRadAn=      0 IRanWt=     -1 IRanGd=            0 ICorTp=0 IEmpDi=141
 NAtoms=    6 NActive=    6 NUniq=    6 SFac= 1.00D+00 NAtFMM=   60 NAOKFM=F Big=F
 Integral buffers will be    131072 words long.
 Regular integral format.
 Two-electron integral symmetry is turned on.
 R6Disp:  Grimme-D3(BJ) Dispersion energy=       -0.0013073133 Hartrees.
 Nuclear repulsion after empirical dispersion term =       40.4592336288 Hartrees.
 Leave Link  301 at Wed Aug 26 10:39:19 2020, MaxMem=  2097152000 cpu:         0.4
 (Enter /opt/cluster/programs/g09/g09_d.01/g09/l302.exe)
 NPDir=0 NMtPBC=     1 NCelOv=     1 NCel=       1 NClECP=     1 NCelD=      1
         NCelK=      1 NCelE2=     1 NClLst=     1 CellRange=     0.0.
 One-electron integrals computed using PRISM.
   1 Symmetry operations used in ECPInt.
 ECPInt:  NShTT=    2775 NPrTT=    6207 LenC2=    2774 LenP2D=    5733.
 LDataN:  DoStor=T MaxTD1= 8 Len=  415
 NBasis=   234 RedAO= T EigKep=  1.36D-04  NBF=   234
 NBsUse=   234 1.00D-06 EigRej= -1.00D+00 NBFU=   234
 Precomputing XC quadrature grid using
 IXCGrd= 4 IRadAn=           0 IRanWt=          -1 IRanGd=           0 AccXCQ= 0.00D+00.
 Generated NRdTot=       0 NPtTot=           0 NUsed=           0 NTot=          32
 NSgBfM=   284   284   284   284   284 MxSgAt=     6 MxSgA2=     6.
 Leave Link  302 at Wed Aug 26 10:39:19 2020, MaxMem=  2097152000 cpu:         2.2
 (Enter /opt/cluster/programs/g09/g09_d.01/g09/l303.exe)
 DipDrv:  MaxL=1.
 Leave Link  303 at Wed Aug 26 10:39:19 2020, MaxMem=  2097152000 cpu:         0.2
 (Enter /opt/cluster/programs/g09/g09_d.01/g09/l401.exe)
 ExpMin= 7.60D-02 ExpMax= 1.17D+05 ExpMxC= 1.13D+03 IAcc=2 IRadAn=         4 AccDes= 0.00D+00
 Harris functional with IExCor=  419 and IRadAn=       4 diagonalized for initial guess.
 HarFok:  IExCor=  419 AccDes= 0.00D+00 IRadAn=         4 IDoV= 1 UseB2=F ITyADJ=14
 ICtDFT=  3500011 ScaDFX=  1.000000  1.000000  1.000000  1.000000
 FoFCou: FMM=F IPFlag=           0 FMFlag=      100000 FMFlg1=           0
         NFxFlg=           0 DoJE=T BraDBF=F KetDBF=T FulRan=T
         wScrn=  0.000000 ICntrl=     500 IOpCl=  0 I1Cent=   200000004 NGrid=           0
         NMat0=    1 NMatS0=      1 NMatT0=    0 NMatD0=    1 NMtDS0=    0 NMtDT0=    0
 Petite list used in FoFCou.
 Harris En= -115.815957042706    
 JPrj=0 DoOrth=F DoCkMO=F.
 Leave Link  401 at Wed Aug 26 10:39:20 2020, MaxMem=  2097152000 cpu:         4.0
 (Enter /opt/cluster/programs/g09/g09_d.01/g09/l502.exe)
 Closed shell SCF:
 Using DIIS extrapolation, IDIIS=  1040.
 Integral symmetry usage will be decided dynamically.
 Keep R1 ints in memory in canonical form, NReq=389840494.
 IVT=      264814 IEndB=      264814 NGot=  2097152000 MDV=  1718885927
 LenX=  1718885927 LenY=  1718804830
 Requested convergence on RMS density matrix=1.00D-08 within 128 cycles.
 Requested convergence on MAX density matrix=1.00D-06.
 Requested convergence on             energy=1.00D-06.
 No special actions if energy rises.
 FoFCou: FMM=F IPFlag=           0 FMFlag=           0 FMFlg1=           0
         NFxFlg=           0 DoJE=F BraDBF=F KetDBF=F FulRan=T
         wScrn=  0.000000 ICntrl=     600 IOpCl=  0 I1Cent=           0 NGrid=           0
         NMat0=    1 NMatS0=  27495 NMatT0=    0 NMatD0=    1 NMtDS0=    0 NMtDT0=    0
 Symmetry not used in FoFCou.
 Integral accuracy reduced to 1.0D-05 until final iterations.

 Cycle   1  Pass 0  IDiag  1:
 E= -115.450143556395    
 DIIS: error= 2.51D-02 at cycle   1 NSaved=   1.
 NSaved= 1 IEnMin= 1 EnMin= -115.450143556395     IErMin= 1 ErrMin= 2.51D-02
 ErrMax= 2.51D-02  0.00D+00 EMaxC= 1.00D-01 BMatC= 1.82D-01 BMatP= 1.82D-01
 IDIUse=3 WtCom= 7.49D-01 WtEn= 2.51D-01
 Coeff-Com:  0.100D+01
 Coeff-En:   0.100D+01
 Coeff:      0.100D+01
 Gap=     0.335 Goal=   None    Shift=    0.000
 GapD=    0.335 DampG=1.000 DampE=0.500 DampFc=0.5000 IDamp=-1.
 Damping current iteration by 5.00D-01
 RMSDP=1.32D-03 MaxDP=4.76D-02              OVMax= 1.46D-01

 Cycle   2  Pass 0  IDiag  1:
 E= -115.498639533448     Delta-E=       -0.048495977053 Rises=F Damp=T
 DIIS: error= 1.08D-02 at cycle   2 NSaved=   2.
 NSaved= 2 IEnMin= 2 EnMin= -115.498639533448     IErMin= 2 ErrMin= 1.08D-02
 ErrMax= 1.08D-02  0.00D+00 EMaxC= 1.00D-01 BMatC= 1.84D-02 BMatP= 1.82D-01
 IDIUse=3 WtCom= 8.92D-01 WtEn= 1.08D-01
 Coeff-Com: -0.122D+00 0.112D+01
 Coeff-En:   0.000D+00 0.100D+01
 Coeff:     -0.109D+00 0.111D+01
 Gap=     0.429 Goal=   None    Shift=    0.000
 RMSDP=3.36D-04 MaxDP=8.94D-03 DE=-4.85D-02 OVMax= 8.55D-02

 Cycle   3  Pass 0  IDiag  1:
 E= -115.546556986310     Delta-E=       -0.047917452862 Rises=F Damp=F
 DIIS: error= 4.79D-03 at cycle   3 NSaved=   3.
 NSaved= 3 IEnMin= 3 EnMin= -115.546556986310     IErMin= 3 ErrMin= 4.79D-03
 ErrMax= 4.79D-03  0.00D+00 EMaxC= 1.00D-01 BMatC= 3.86D-03 BMatP= 1.84D-02
 IDIUse=3 WtCom= 9.52D-01 WtEn= 4.79D-02
 Coeff-Com: -0.129D+00 0.315D+00 0.815D+00
 Coeff-En:   0.000D+00 0.000D+00 0.100D+01
 Coeff:     -0.123D+00 0.300D+00 0.823D+00
 Gap=     0.408 Goal=   None    Shift=    0.000
 RMSDP=1.14D-04 MaxDP=4.51D-03 DE=-4.79D-02 OVMax= 1.36D-02

 Cycle   4  Pass 0  IDiag  1:
 E= -115.548709806179     Delta-E=       -0.002152819869 Rises=F Damp=F
 DIIS: error= 1.86D-03 at cycle   4 NSaved=   4.
 NSaved= 4 IEnMin= 4 EnMin= -115.548709806179     IErMin= 4 ErrMin= 1.86D-03
 ErrMax= 1.86D-03  0.00D+00 EMaxC= 1.00D-01 BMatC= 4.40D-04 BMatP= 3.86D-03
 IDIUse=3 WtCom= 9.81D-01 WtEn= 1.86D-02
 Coeff-Com: -0.460D-01 0.812D-01 0.355D+00 0.610D+00
 Coeff-En:   0.000D+00 0.000D+00 0.000D+00 0.100D+01
 Coeff:     -0.451D-01 0.797D-01 0.348D+00 0.617D+00
 Gap=     0.406 Goal=   None    Shift=    0.000
 RMSDP=3.62D-05 MaxDP=1.77D-03 DE=-2.15D-03 OVMax= 5.15D-03

 Cycle   5  Pass 0  IDiag  1:
 E= -115.549057997739     Delta-E=       -0.000348191560 Rises=F Damp=F
 DIIS: error= 1.82D-04 at cycle   5 NSaved=   5.
 NSaved= 5 IEnMin= 5 EnMin= -115.549057997739     IErMin= 5 ErrMin= 1.82D-04
 ErrMax= 1.82D-04  0.00D+00 EMaxC= 1.00D-01 BMatC= 6.13D-06 BMatP= 4.40D-04
 IDIUse=3 WtCom= 9.98D-01 WtEn= 1.82D-03
 Coeff-Com: -0.723D-02 0.937D-02 0.615D-01 0.169D+00 0.767D+00
 Coeff-En:   0.000D+00 0.000D+00 0.000D+00 0.000D+00 0.100D+01
 Coeff:     -0.722D-02 0.935D-02 0.614D-01 0.169D+00 0.768D+00
 Gap=     0.407 Goal=   None    Shift=    0.000
 RMSDP=6.22D-06 MaxDP=1.83D-04 DE=-3.48D-04 OVMax= 5.67D-04

 Initial convergence to 1.0D-05 achieved.  Increase integral accuracy.
 Cycle   6  Pass 1  IDiag  1:
 E= -115.549071312316     Delta-E=       -0.000013314577 Rises=F Damp=F
 DIIS: error= 2.30D-05 at cycle   1 NSaved=   1.
 NSaved= 1 IEnMin= 1 EnMin= -115.549071312316     IErMin= 1 ErrMin= 2.30D-05
 ErrMax= 2.30D-05  0.00D+00 EMaxC= 1.00D-01 BMatC= 6.75D-08 BMatP= 6.75D-08
 IDIUse=1 WtCom= 1.00D+00 WtEn= 0.00D+00
 Coeff-Com:  0.100D+01
 Coeff:      0.100D+01
 Gap=     0.407 Goal=   None    Shift=    0.000
 RMSDP=6.22D-06 MaxDP=1.83D-04 DE=-1.33D-05 OVMax= 9.78D-05

 Cycle   7  Pass 1  IDiag  1:
 E= -115.549071400770     Delta-E=       -0.000000088454 Rises=F Damp=F
 DIIS: error= 5.12D-06 at cycle   2 NSaved=   2.
 NSaved= 2 IEnMin= 2 EnMin= -115.549071400770     IErMin= 2 ErrMin= 5.12D-06
 ErrMax= 5.12D-06  0.00D+00 EMaxC= 1.00D-01 BMatC= 3.75D-09 BMatP= 6.75D-08
 IDIUse=1 WtCom= 1.00D+00 WtEn= 0.00D+00
 Coeff-Com: -0.515D-01 0.105D+01
 Coeff:     -0.515D-01 0.105D+01
 Gap=     0.407 Goal=   None    Shift=    0.000
 RMSDP=4.01D-07 MaxDP=1.15D-05 DE=-8.85D-08 OVMax= 3.90D-05

 Cycle   8  Pass 1  IDiag  1:
 E= -115.549071407305     Delta-E=       -0.000000006535 Rises=F Damp=F
 DIIS: error= 3.13D-06 at cycle   3 NSaved=   3.
 NSaved= 3 IEnMin= 3 EnMin= -115.549071407305     IErMin= 3 ErrMin= 3.13D-06
 ErrMax= 3.13D-06  0.00D+00 EMaxC= 1.00D-01 BMatC= 1.12D-09 BMatP= 3.75D-09
 IDIUse=1 WtCom= 1.00D+00 WtEn= 0.00D+00
 Coeff-Com: -0.711D-01 0.309D+00 0.762D+00
 Coeff:     -0.711D-01 0.309D+00 0.762D+00
 Gap=     0.407 Goal=   None    Shift=    0.000
 RMSDP=1.04D-07 MaxDP=3.54D-06 DE=-6.53D-09 OVMax= 1.25D-05

 Cycle   9  Pass 1  IDiag  1:
 E= -115.549071408289     Delta-E=       -0.000000000985 Rises=F Damp=F
 DIIS: error= 1.13D-06 at cycle   4 NSaved=   4.
 NSaved= 4 IEnMin= 4 EnMin= -115.549071408289     IErMin= 4 ErrMin= 1.13D-06
 ErrMax= 1.13D-06  0.00D+00 EMaxC= 1.00D-01 BMatC= 2.05D-10 BMatP= 1.12D-09
 IDIUse=1 WtCom= 1.00D+00 WtEn= 0.00D+00
 Coeff-Com: -0.210D-01-0.642D-02 0.314D+00 0.713D+00
 Coeff:     -0.210D-01-0.642D-02 0.314D+00 0.713D+00
 Gap=     0.407 Goal=   None    Shift=    0.000
 RMSDP=3.80D-08 MaxDP=1.64D-06 DE=-9.85D-10 OVMax= 5.41D-06

 Cycle  10  Pass 1  IDiag  1:
 E= -115.549071408451     Delta-E=       -0.000000000162 Rises=F Damp=F
 DIIS: error= 2.07D-07 at cycle   5 NSaved=   5.
 NSaved= 5 IEnMin= 5 EnMin= -115.549071408451     IErMin= 5 ErrMin= 2.07D-07
 ErrMax= 2.07D-07  0.00D+00 EMaxC= 1.00D-01 BMatC= 8.34D-12 BMatP= 2.05D-10
 IDIUse=1 WtCom= 1.00D+00 WtEn= 0.00D+00
 Coeff-Com: -0.470D-04-0.284D-01 0.305D-01 0.182D+00 0.816D+00
 Coeff:     -0.470D-04-0.284D-01 0.305D-01 0.182D+00 0.816D+00
 Gap=     0.407 Goal=   None    Shift=    0.000
 RMSDP=9.62D-09 MaxDP=3.38D-07 DE=-1.62D-10 OVMax= 1.11D-06

 SCF Done:  E(RB2PLYPD3) =  -115.549071408     A.U. after   10 cycles
            NFock= 10  Conv=0.96D-08     -V/T= 2.0028
 KE= 1.152283937436D+02 PE=-3.524489834786D+02 EE= 8.121228469773D+01
 Leave Link  502 at Wed Aug 26 10:39:33 2020, MaxMem=  2097152000 cpu:        67.1
 (Enter /opt/cluster/programs/g09/g09_d.01/g09/l801.exe)
 DoSCS=T DFT=T ScalE2(SS,OS)=  0.270000  0.270000
 ExpMin= 7.60D-02 ExpMax= 1.17D+05 ExpMxC= 1.13D+03 IAcc=3 IRadAn=         5 AccDes= 0.00D+00
 HarFok:  IExCor=  205 AccDes= 0.00D+00 IRadAn=         5 IDoV=-2 UseB2=F ITyADJ=14
 ICtDFT= 12500011 ScaDFX=  1.000000  1.000000  1.000000  1.000000
 DSYEVD-2 returned Info=        1739 IAlg= 4 N=    57 NDim=    57 NE2=    36788970 trying  DSYEV.
 Largest valence mixing into a core orbital is  1.17D-04
 Largest core mixing into a valence orbital is  1.52D-05
 Range of M.O.s used for correlation:     3   234
 NBasis=   234 NAE=     9 NBE=     9 NFC=     2 NFV=     0
 NROrb=    232 NOA=     7 NOB=     7 NVA=   225 NVB=   225

 **** Warning!!: The largest alpha MO coefficient is  0.23713052D+02

 Leave Link  801 at Wed Aug 26 10:39:33 2020, MaxMem=  2097152000 cpu:         0.6
 (Enter /opt/cluster/programs/g09/g09_d.01/g09/l906.exe)
 DoSCS=T DFT=T ScalE2(SS,OS)=  0.270000  0.270000
 FulOut=F Deriv=F AODrv=F NAtomX=     6
   MMem=        3646  MDisk=           7 MDiskD=           7
  W3Min=      447300 MinDsk=     1090093 NBas6D=         284
 NBas2D=       41310    NTT=       40470    LW2=     4508827
    MDV=  2096872478 MDiskM=       16391 NBas2p=       41304
 Fully in-core method, ICMem=  1722292712.
 IMap=   1   2   3   4   5   6   7
 JobTyp=1 Pass  1 fully in-core, NPsUse=  8.
 Compute canonical integrals.
 FoFCou: FMM=F IPFlag=           0 FMFlag=           0 FMFlg1=           0
         NFxFlg=           0 DoJE=F BraDBF=F KetDBF=F FulRan=T
         wScrn=  0.000000 ICntrl=     600 IOpCl=  1 I1Cent=           0 NGrid=           0
         NMat0=    1 NMatS0=  41310 NMatT0=    0 NMatD0=    1 NMtDS0=    0 NMtDT0=    0
 Symmetry not used in FoFCou.
 Spin components of T(2) and E(2):
     alpha-alpha T2 =       0.2050977900D-01 E2=     -0.1659749442D-01
     alpha-beta  T2 =       0.1300319984D+00 E2=     -0.1133016519D+00
     beta-beta   T2 =       0.2050977900D-01 E2=     -0.1659749442D-01
 The integrals were generated   1 times.
 E2(B2PLYPD3) =    -0.1464966407D+00 E(B2PLYPD3) =    -0.11569556804915D+03
 Leave Link  906 at Wed Aug 26 10:39:49 2020, MaxMem=  2097152000 cpu:       126.1
 (Enter /opt/cluster/programs/g09/g09_d.01/g09/l601.exe)
 Copying SCF densities to generalized density rwf, IOpCl= 0 IROHF=0.

 **********************************************************************

            Population analysis using the SCF density.

 **********************************************************************

 Orbital symmetries:
       Occupied  (A) (A) (A) (A) (A) (A) (A) (A) (A)
       Virtual   (A) (A) (A) (A) (A) (A) (A) (A) (A) (A) (A) (A)
                 (A) (A) (A) (A) (A) (A) (A) (A) (A) (A) (A) (A)
                 (A) (A) (A) (A) (A) (A) (A) (A) (A) (A) (A) (A)
                 (A) (A) (A) (A) (A) (A) (A) (A) (A) (A) (A) (A)
                 (A) (A) (A) (A) (A) (A) (A) (A) (A) (A) (A) (A)
                 (A) (A) (A) (A) (A) (A) (A) (A) (A) (A) (A) (A)
                 (A) (A) (A) (A) (A) (A) (A) (A) (A) (A) (A) (A)
                 (A) (A) (A) (A) (A) (A) (A) (A) (A) (A) (A) (A)
                 (A) (A) (A) (A) (A) (A) (A) (A) (A) (A) (A) (A)
                 (A) (A) (A) (A) (A) (A) (A) (A) (A) (A) (A) (A)
                 (A) (A) (A) (A) (A) (A) (A) (A) (A) (A) (A) (A)
                 (A) (A) (A) (A) (A) (A) (A) (A) (A) (A) (A) (A)
                 (A) (A) (A) (A) (A) (A) (A) (A) (A) (A) (A) (A)
                 (A) (A) (A) (A) (A) (A) (A) (A) (A) (A) (A) (A)
                 (A) (A) (A) (A) (A) (A) (A) (A) (A) (A) (A) (A)
                 (A) (A) (A) (A) (A) (A) (A) (A) (A) (A) (A) (A)
                 (A) (A) (A) (A) (A) (A) (A) (A) (A) (A) (A) (A)
                 (A) (A) (A) (A) (A) (A) (A) (A) (A) (A) (A) (A)
                 (A) (A) (A) (A) (A) (A) (A) (A) (A)
 The electronic state is 1-A.
 Alpha  occ. eigenvalues --  -19.72177 -10.66306  -1.17516  -0.78944  -0.59472
 Alpha  occ. eigenvalues --   -0.51381  -0.50102  -0.41132  -0.35459
 Alpha virt. eigenvalues --    0.05201   0.08378   0.12199   0.12438   0.14834
 Alpha virt. eigenvalues --    0.17120   0.18223   0.29007   0.33223   0.33620
 Alpha virt. eigenvalues --    0.36469   0.38615   0.39910   0.40261   0.43349
 Alpha virt. eigenvalues --    0.46110   0.52595   0.56269   0.59396   0.66889
 Alpha virt. eigenvalues --    0.71626   0.72208   0.75413   0.79004   0.79947
 Alpha virt. eigenvalues --    0.82500   0.86116   0.87816   0.93521   0.96689
 Alpha virt. eigenvalues --    1.00672   1.02580   1.03112   1.09386   1.11908
 Alpha virt. eigenvalues --    1.12801   1.17662   1.22305   1.28577   1.40647
 Alpha virt. eigenvalues --    1.40742   1.41791   1.44796   1.47556   1.51148
 Alpha virt. eigenvalues --    1.77798   1.81032   1.83860   1.87545   1.89258
 Alpha virt. eigenvalues --    1.91884   1.95553   1.96734   1.98831   2.03385
 Alpha virt. eigenvalues --    2.06954   2.13382   2.19181   2.20585   2.23091
 Alpha virt. eigenvalues --    2.25803   2.28716   2.30671   2.37366   2.39179
 Alpha virt. eigenvalues --    2.44640   2.48148   2.56242   2.60887   2.62487
 Alpha virt. eigenvalues --    2.65811   2.68430   2.70582   2.79900   2.80683
 Alpha virt. eigenvalues --    2.85988   2.89027   2.93560   2.94583   2.95638
 Alpha virt. eigenvalues --    2.97820   3.07204   3.08155   3.10363   3.21474
 Alpha virt. eigenvalues --    3.22578   3.26928   3.34932   3.37590   3.41517
 Alpha virt. eigenvalues --    3.52852   3.65293   3.66842   3.86377   3.87966
 Alpha virt. eigenvalues --    3.88076   4.00509   4.03139   4.06109   4.15348
 Alpha virt. eigenvalues --    4.21125   4.22864   4.27642   4.35999   4.57316
 Alpha virt. eigenvalues --    4.59288   4.64418   4.68253   4.87423   5.23518
 Alpha virt. eigenvalues --    5.36628   5.48135   5.50825   5.54759   5.57644
 Alpha virt. eigenvalues --    5.66982   5.72202   5.82094   5.84675   5.89436
 Alpha virt. eigenvalues --    5.91835   5.93274   5.99830   6.04102   6.14205
 Alpha virt. eigenvalues --    6.19140   6.21220   6.25337   6.27284   6.30542
 Alpha virt. eigenvalues --    6.32142   6.36101   6.43972   6.45448   6.48118
 Alpha virt. eigenvalues --    6.59046   6.64843   6.68904   6.78215   6.91840
 Alpha virt. eigenvalues --    6.93514   6.97870   7.08051   7.13777   7.16947
 Alpha virt. eigenvalues --    7.31307   7.34427   7.39226   7.41316   7.44655
 Alpha virt. eigenvalues --    7.50522   7.54330   7.57660   7.62513   7.68978
 Alpha virt. eigenvalues --    7.75543   7.76333   7.77146   7.79468   7.86453
 Alpha virt. eigenvalues --    7.89308   7.90037   7.98191   7.98458   8.12538
 Alpha virt. eigenvalues --    8.15601   8.30170   8.35413   8.37626   8.41820
 Alpha virt. eigenvalues --    8.44114   8.48051   8.50496   8.53614   8.54020
 Alpha virt. eigenvalues --    8.57757   8.72063   8.84995   8.85361   8.91098
 Alpha virt. eigenvalues --    8.94904   8.98074   9.03880   9.11813   9.19933
 Alpha virt. eigenvalues --    9.41058   9.45778   9.60520   9.68508   9.72324
 Alpha virt. eigenvalues --    9.81658   9.84518   9.92885  10.02654  10.15036
 Alpha virt. eigenvalues --   10.18181  10.23762  10.36063  10.53151  10.67142
 Alpha virt. eigenvalues --   10.86049  11.08880  11.10225  11.56767  11.61838
 Alpha virt. eigenvalues --   11.70780  11.87687  11.95916  12.02644  12.10329
 Alpha virt. eigenvalues --   12.14894  12.34185  12.62804  12.78741  12.96160
 Alpha virt. eigenvalues --   13.24576  13.39504  14.55057  14.55404  14.73604
 Alpha virt. eigenvalues --   17.20241  29.17642  48.92583 148.76177 254.69839
          Condensed to atoms (all electrons):
               1          2          3          4          5          6
     1  C    4.448641   0.273566   0.431342   0.430299   0.397398  -0.044409
     2  O    0.273566   7.955821  -0.047513  -0.051179  -0.038222   0.339315
     3  H    0.431342  -0.047513   0.659214  -0.049300  -0.038360  -0.005954
     4  H    0.430299  -0.051179  -0.049300   0.668540  -0.037081  -0.004860
     5  H    0.397398  -0.038222  -0.038360  -0.037081   0.633152   0.009824
     6  H   -0.044409   0.339315  -0.005954  -0.004860   0.009824   0.504899
 Mulliken charges:
               1
     1  C    0.063163
     2  O   -0.431787
     3  H    0.050570
     4  H    0.043581
     5  H    0.073289
     6  H    0.201185
 Sum of Mulliken charges =   0.00000
 Mulliken charges with hydrogens summed into heavy atoms:
               1
     1  C    0.230603
     2  O   -0.230603
 Electronic spatial extent (au):  <R**2>=             84.7034
 Charge=              0.0000 electrons
 Dipole moment (field-independent basis, Debye):
    X=              0.8447    Y=             -1.4166    Z=             -0.0028  Tot=              1.6493
 Quadrupole moment (field-independent basis, Debye-Ang):
   XX=            -13.0208   YY=            -12.3427   ZZ=            -13.7714
   XY=              2.1969   XZ=             -0.1057   YZ=              0.0353
 Traceless Quadrupole moment (field-independent basis, Debye-Ang):
   XX=              0.0242   YY=              0.7023   ZZ=             -0.7265
   XY=              2.1969   XZ=             -0.1057   YZ=              0.0353
 Octapole moment (field-independent basis, Debye-Ang**2):
  XXX=             -4.6564  YYY=             -0.3521  ZZZ=             -0.0077  XYY=             -1.7920
  XXY=             -2.2924  XXZ=             -0.0117  XZZ=             -0.3585  YZZ=             -0.6458
  YYZ=             -0.1231  XYZ=              0.1262
 Hexadecapole moment (field-independent basis, Debye-Ang**3):
 XXXX=            -62.7841 YYYY=            -20.2920 ZZZZ=            -20.9234 XXXY=              4.0201
 XXXZ=             -0.3493 YYYX=              3.1127 YYYZ=              0.1289 ZZZX=             -0.0782
 ZZZY=              0.0864 XXYY=            -12.9553 XXZZ=            -14.6476 YYZZ=             -7.0339
 XXYZ=              0.0742 YYXZ=             -0.2115 ZZXY=             -0.1173
 N-N= 4.045923362875D+01 E-N=-3.524489528986D+02  KE= 1.152283937436D+02
 Leave Link  601 at Wed Aug 26 10:39:49 2020, MaxMem=  2097152000 cpu:         0.3
 (Enter /opt/cluster/programs/g09/g09_d.01/g09/l9999.exe)
 1\1\GINC-NODE14\SP\RB2PLYPD3-FC\def2QZVP\C1H4O1\BOITTIER\26-Aug-2020\0
 \\#p B2PLYPD3/Def2QZVP\\methanol\\0,1\C,0,-5.175934,-1.263625,0.914856
 \O,0,-3.767244,-1.119331,0.856978\H,0,-5.537236,-2.235233,0.541249\H,0
 ,-5.713127,-0.424863,0.358678\H,0,-5.447548,-1.151653,1.960283\H,0,-3.
 483042,-1.207665,0.003027\\Version=ES64L-G09RevD.01\State=1-A\HF=-115.
 5490714\MP2=-115.695568\RMSD=9.620e-09\PG=C01 [X(C1H4O1)]\\@


 IF IT'S NOT TRUE, IT'S WELL INVENTED -- DANTE
 Job cpu time:       0 days  0 hours  3 minutes 22.3 seconds.
 File lengths (MBytes):  RWF=     23 Int=      0 D2E=      0 Chk=      4 Scr=      1
 Normal termination of Gaussian 09 at Wed Aug 26 10:39:49 2020.
