 Entering Gaussian System, Link 0=/opt/cluster/programs/g09/g09_d.01/g09//g09
 Input=/home/boittier/MDCM/nms_sampling/methanol_geom.xyz.dir/energies/methanol_403_energy.com
 Output=/scratch/boittier/methanol_403_energy/methanol_403_energy.out
 Initial command:
 /opt/cluster/programs/g09/g09_d.01/g09/l1.exe "/scratch/boittier/methanol_403_energy/Gau-84085.inp" -scrdir="/scratch/boittier/methanol_403_energy/"
 Entering Link 1 = /opt/cluster/programs/g09/g09_d.01/g09/l1.exe PID=     84086.
  
 Copyright (c) 1988,1990,1992,1993,1995,1998,2003,2009,2013,
            Gaussian, Inc.  All Rights Reserved.
  
 This is part of the Gaussian(R) 09 program.  It is based on
 the Gaussian(R) 03 system (copyright 2003, Gaussian, Inc.),
 the Gaussian(R) 98 system (copyright 1998, Gaussian, Inc.),
 the Gaussian(R) 94 system (copyright 1995, Gaussian, Inc.),
 the Gaussian 92(TM) system (copyright 1992, Gaussian, Inc.),
 the Gaussian 90(TM) system (copyright 1990, Gaussian, Inc.),
 the Gaussian 88(TM) system (copyright 1988, Gaussian, Inc.),
 the Gaussian 86(TM) system (copyright 1986, Carnegie Mellon
 University), and the Gaussian 82(TM) system (copyright 1983,
 Carnegie Mellon University). Gaussian is a federally registered
 trademark of Gaussian, Inc.
  
 This software contains proprietary and confidential information,
 including trade secrets, belonging to Gaussian, Inc.
  
 This software is provided under written license and may be
 used, copied, transmitted, or stored only in accord with that
 written license.
  
 The following legend is applicable only to US Government
 contracts under FAR:
  
                    RESTRICTED RIGHTS LEGEND
  
 Use, reproduction and disclosure by the US Government is
 subject to restrictions as set forth in subparagraphs (a)
 and (c) of the Commercial Computer Software - Restricted
 Rights clause in FAR 52.227-19.
  
 Gaussian, Inc.
 340 Quinnipiac St., Bldg. 40, Wallingford CT 06492
  
  
 ---------------------------------------------------------------
 Warning -- This program may not be used in any manner that
 competes with the business of Gaussian, Inc. or will provide
 assistance to any competitor of Gaussian, Inc.  The licensee
 of this program is prohibited from giving any competitor of
 Gaussian, Inc. access to this program.  By using this program,
 the user acknowledges that Gaussian, Inc. is engaged in the
 business of creating and licensing software in the field of
 computational chemistry and represents and warrants to the
 licensee that it is not a competitor of Gaussian, Inc. and that
 it will not use this program in any manner prohibited above.
 ---------------------------------------------------------------
  

 Cite this work as:
 Gaussian 09, Revision D.01,
 M. J. Frisch, G. W. Trucks, H. B. Schlegel, G. E. Scuseria, 
 M. A. Robb, J. R. Cheeseman, G. Scalmani, V. Barone, B. Mennucci, 
 G. A. Petersson, H. Nakatsuji, M. Caricato, X. Li, H. P. Hratchian, 
 A. F. Izmaylov, J. Bloino, G. Zheng, J. L. Sonnenberg, M. Hada, 
 M. Ehara, K. Toyota, R. Fukuda, J. Hasegawa, M. Ishida, T. Nakajima, 
 Y. Honda, O. Kitao, H. Nakai, T. Vreven, J. A. Montgomery, Jr., 
 J. E. Peralta, F. Ogliaro, M. Bearpark, J. J. Heyd, E. Brothers, 
 K. N. Kudin, V. N. Staroverov, T. Keith, R. Kobayashi, J. Normand, 
 K. Raghavachari, A. Rendell, J. C. Burant, S. S. Iyengar, J. Tomasi, 
 M. Cossi, N. Rega, J. M. Millam, M. Klene, J. E. Knox, J. B. Cross, 
 V. Bakken, C. Adamo, J. Jaramillo, R. Gomperts, R. E. Stratmann, 
 O. Yazyev, A. J. Austin, R. Cammi, C. Pomelli, J. W. Ochterski, 
 R. L. Martin, K. Morokuma, V. G. Zakrzewski, G. A. Voth, 
 P. Salvador, J. J. Dannenberg, S. Dapprich, A. D. Daniels, 
 O. Farkas, J. B. Foresman, J. V. Ortiz, J. Cioslowski, 
 and D. J. Fox, Gaussian, Inc., Wallingford CT, 2013.
 
 ******************************************
 Gaussian 09:  ES64L-G09RevD.01 24-Apr-2013
                26-Aug-2020 
 ******************************************
 %chk=/home/boittier/MDCM/nms_sampling/methanol_geom.xyz.dir/methanol_403.chk
 %nproc=8
 Will use up to    8 processors via shared memory.
 %mem=16000MB
 --------------------
 #p B2PLYPD3/Def2QZVP
 --------------------
 1/38=1/1;
 2/12=2,17=6,18=5,40=1/2;
 3/5=45,7=101,11=9,16=1,25=1,30=1,74=-60/1,2,3;
 4//1;
 5/5=2,38=5/2;
 8/10=1/1;
 9/16=-3/6;
 6/7=2,8=2,9=2,10=2/1;
 99/5=1,9=1/99;
 Leave Link    1 at Wed Aug 26 23:58:13 2020, MaxMem=  2097152000 cpu:         0.3
 (Enter /opt/cluster/programs/g09/g09_d.01/g09/l101.exe)
 --------
 methanol
 --------
 Symbolic Z-matrix:
 Charge =  0 Multiplicity = 1
 C                    -5.17378  -1.25222   0.9148 
 O                    -3.77376  -1.12068   0.87021 
 H                    -5.491    -2.23286   0.56947 
 H                    -5.66563  -0.50832   0.36892 
 H                    -5.43748  -1.16275   1.89155 
 H                    -3.51369  -1.22177  -0.18206 
 
 NAtoms=      6 NQM=        6 NQMF=       0 NMMI=      0 NMMIF=      0
                NMic=       0 NMicF=      0.
                    Isotopes and Nuclear Properties:
 (Nuclear quadrupole moments (NQMom) in fm**2, nuclear magnetic moments (NMagM)
  in nuclear magnetons)

  Atom         1           2           3           4           5           6
 IAtWgt=          12          16           1           1           1           1
 AtmWgt=  12.0000000  15.9949146   1.0078250   1.0078250   1.0078250   1.0078250
 NucSpn=           0           0           1           1           1           1
 AtZEff=   0.0000000   0.0000000   0.0000000   0.0000000   0.0000000   0.0000000
 NQMom=    0.0000000   0.0000000   0.0000000   0.0000000   0.0000000   0.0000000
 NMagM=    0.0000000   0.0000000   2.7928460   2.7928460   2.7928460   2.7928460
 AtZNuc=   6.0000000   8.0000000   1.0000000   1.0000000   1.0000000   1.0000000
 Leave Link  101 at Wed Aug 26 23:58:13 2020, MaxMem=  2097152000 cpu:         0.5
 (Enter /opt/cluster/programs/g09/g09_d.01/g09/l202.exe)
                          Input orientation:                          
 ---------------------------------------------------------------------
 Center     Atomic      Atomic             Coordinates (Angstroms)
 Number     Number       Type             X           Y           Z
 ---------------------------------------------------------------------
      1          6           0       -5.173781   -1.252216    0.914801
      2          8           0       -3.773757   -1.120683    0.870212
      3          1           0       -5.490997   -2.232863    0.569473
      4          1           0       -5.665632   -0.508320    0.368915
      5          1           0       -5.437479   -1.162752    1.891549
      6          1           0       -3.513690   -1.221766   -0.182062
 ---------------------------------------------------------------------
                    Distance matrix (angstroms):
                    1          2          3          4          5
     1  C    0.000000
     2  O    1.406896   0.000000
     3  H    1.086989   2.067922   0.000000
     4  H    1.045605   2.050726   1.744927   0.000000
     5  H    1.015666   1.952657   1.701730   1.672946   0.000000
     6  H    1.989959   1.088638   2.344539   2.333117   2.829189
                    6
     6  H    0.000000
 Stoichiometry    CH4O
 Framework group  C1[X(CH4O)]
 Deg. of freedom    12
 Full point group                 C1      NOp   1
 Largest Abelian subgroup         C1      NOp   1
 Largest concise Abelian subgroup C1      NOp   1
                         Standard orientation:                         
 ---------------------------------------------------------------------
 Center     Atomic      Atomic             Coordinates (Angstroms)
 Number     Number       Type             X           Y           Z
 ---------------------------------------------------------------------
      1          6           0       -0.661003    0.018757    0.006700
      2          8           0        0.736852   -0.140000   -0.005761
      3          1           0       -1.006147    0.561457   -0.869597
      4          1           0       -1.004842    0.491006    0.873906
      5          1           0       -1.054431   -0.916961   -0.028268
      6          1           0        1.136623    0.871953    0.029843
 ---------------------------------------------------------------------
 Rotational constants (GHZ):    127.8941071     25.4569286     24.3730359
 Leave Link  202 at Wed Aug 26 23:58:14 2020, MaxMem=  2097152000 cpu:         0.1
 (Enter /opt/cluster/programs/g09/g09_d.01/g09/l301.exe)
 Standard basis: def2QZVP (5D, 7F)
 Ernie: Thresh=  0.10000D-02 Tol=  0.10000D-05 Strict=F.
 There are   284 symmetry adapted cartesian basis functions of A   symmetry.
 There are   234 symmetry adapted basis functions of A   symmetry.
   234 basis functions,   336 primitive gaussians,   284 cartesian basis functions
     9 alpha electrons        9 beta electrons
       nuclear repulsion energy        40.4718662409 Hartrees.
 IExCor=  419 DFT=T Ex+Corr=B2PLYPD3 ExCW=0 ScaHFX=  0.530000
 ScaDFX=  0.470000  0.470000  0.730000  0.730000 ScalE2=  0.270000  0.270000
 IRadAn=      0 IRanWt=     -1 IRanGd=            0 ICorTp=0 IEmpDi=141
 NAtoms=    6 NActive=    6 NUniq=    6 SFac= 1.00D+00 NAtFMM=   60 NAOKFM=F Big=F
 Integral buffers will be    131072 words long.
 Regular integral format.
 Two-electron integral symmetry is turned on.
 R6Disp:  Grimme-D3(BJ) Dispersion energy=       -0.0013111389 Hartrees.
 Nuclear repulsion after empirical dispersion term =       40.4705551020 Hartrees.
 Leave Link  301 at Wed Aug 26 23:58:15 2020, MaxMem=  2097152000 cpu:         0.5
 (Enter /opt/cluster/programs/g09/g09_d.01/g09/l302.exe)
 NPDir=0 NMtPBC=     1 NCelOv=     1 NCel=       1 NClECP=     1 NCelD=      1
         NCelK=      1 NCelE2=     1 NClLst=     1 CellRange=     0.0.
 One-electron integrals computed using PRISM.
   1 Symmetry operations used in ECPInt.
 ECPInt:  NShTT=    2775 NPrTT=    6207 LenC2=    2774 LenP2D=    5743.
 LDataN:  DoStor=T MaxTD1= 8 Len=  415
 NBasis=   234 RedAO= T EigKep=  1.01D-04  NBF=   234
 NBsUse=   234 1.00D-06 EigRej= -1.00D+00 NBFU=   234
 Precomputing XC quadrature grid using
 IXCGrd= 4 IRadAn=           0 IRanWt=          -1 IRanGd=           0 AccXCQ= 0.00D+00.
 Generated NRdTot=       0 NPtTot=           0 NUsed=           0 NTot=          32
 NSgBfM=   284   284   284   284   284 MxSgAt=     6 MxSgA2=     6.
 Leave Link  302 at Wed Aug 26 23:58:16 2020, MaxMem=  2097152000 cpu:         1.8
 (Enter /opt/cluster/programs/g09/g09_d.01/g09/l303.exe)
 DipDrv:  MaxL=1.
 Leave Link  303 at Wed Aug 26 23:58:16 2020, MaxMem=  2097152000 cpu:         0.2
 (Enter /opt/cluster/programs/g09/g09_d.01/g09/l401.exe)
 ExpMin= 7.60D-02 ExpMax= 1.17D+05 ExpMxC= 1.13D+03 IAcc=2 IRadAn=         4 AccDes= 0.00D+00
 Harris functional with IExCor=  419 and IRadAn=       4 diagonalized for initial guess.
 HarFok:  IExCor=  419 AccDes= 0.00D+00 IRadAn=         4 IDoV= 1 UseB2=F ITyADJ=14
 ICtDFT=  3500011 ScaDFX=  1.000000  1.000000  1.000000  1.000000
 FoFCou: FMM=F IPFlag=           0 FMFlag=      100000 FMFlg1=           0
         NFxFlg=           0 DoJE=T BraDBF=F KetDBF=T FulRan=T
         wScrn=  0.000000 ICntrl=     500 IOpCl=  0 I1Cent=   200000004 NGrid=           0
         NMat0=    1 NMatS0=      1 NMatT0=    0 NMatD0=    1 NMtDS0=    0 NMtDT0=    0
 Petite list used in FoFCou.
 Harris En= -115.814703402243    
 JPrj=0 DoOrth=F DoCkMO=F.
 Leave Link  401 at Wed Aug 26 23:58:17 2020, MaxMem=  2097152000 cpu:         3.2
 (Enter /opt/cluster/programs/g09/g09_d.01/g09/l502.exe)
 Closed shell SCF:
 Using DIIS extrapolation, IDIIS=  1040.
 Integral symmetry usage will be decided dynamically.
 Keep R1 ints in memory in canonical form, NReq=389840494.
 IVT=      264814 IEndB=      264814 NGot=  2097152000 MDV=  1718885927
 LenX=  1718885927 LenY=  1718804830
 Requested convergence on RMS density matrix=1.00D-08 within 128 cycles.
 Requested convergence on MAX density matrix=1.00D-06.
 Requested convergence on             energy=1.00D-06.
 No special actions if energy rises.
 FoFCou: FMM=F IPFlag=           0 FMFlag=           0 FMFlg1=           0
         NFxFlg=           0 DoJE=F BraDBF=F KetDBF=F FulRan=T
         wScrn=  0.000000 ICntrl=     600 IOpCl=  0 I1Cent=           0 NGrid=           0
         NMat0=    1 NMatS0=  27495 NMatT0=    0 NMatD0=    1 NMtDS0=    0 NMtDT0=    0
 Symmetry not used in FoFCou.
 Integral accuracy reduced to 1.0D-05 until final iterations.

 Cycle   1  Pass 0  IDiag  1:
 E= -115.425291152427    
 DIIS: error= 3.03D-02 at cycle   1 NSaved=   1.
 NSaved= 1 IEnMin= 1 EnMin= -115.425291152427     IErMin= 1 ErrMin= 3.03D-02
 ErrMax= 3.03D-02  0.00D+00 EMaxC= 1.00D-01 BMatC= 1.81D-01 BMatP= 1.81D-01
 IDIUse=3 WtCom= 6.97D-01 WtEn= 3.03D-01
 Coeff-Com:  0.100D+01
 Coeff-En:   0.100D+01
 Coeff:      0.100D+01
 Gap=     0.304 Goal=   None    Shift=    0.000
 GapD=    0.304 DampG=1.000 DampE=0.500 DampFc=0.5000 IDamp=-1.
 Damping current iteration by 5.00D-01
 RMSDP=1.38D-03 MaxDP=4.65D-02              OVMax= 1.43D-01

 Cycle   2  Pass 0  IDiag  1:
 E= -115.478250352801     Delta-E=       -0.052959200374 Rises=F Damp=T
 DIIS: error= 1.19D-02 at cycle   2 NSaved=   2.
 NSaved= 2 IEnMin= 2 EnMin= -115.478250352801     IErMin= 2 ErrMin= 1.19D-02
 ErrMax= 1.19D-02  0.00D+00 EMaxC= 1.00D-01 BMatC= 1.96D-02 BMatP= 1.81D-01
 IDIUse=3 WtCom= 8.81D-01 WtEn= 1.19D-01
 Coeff-Com: -0.122D+00 0.112D+01
 Coeff-En:   0.000D+00 0.100D+01
 Coeff:     -0.107D+00 0.111D+01
 Gap=     0.408 Goal=   None    Shift=    0.000
 RMSDP=3.74D-04 MaxDP=1.05D-02 DE=-5.30D-02 OVMax= 8.50D-02

 Cycle   3  Pass 0  IDiag  1:
 E= -115.529687626563     Delta-E=       -0.051437273761 Rises=F Damp=F
 DIIS: error= 4.83D-03 at cycle   3 NSaved=   3.
 NSaved= 3 IEnMin= 3 EnMin= -115.529687626563     IErMin= 3 ErrMin= 4.83D-03
 ErrMax= 4.83D-03  0.00D+00 EMaxC= 1.00D-01 BMatC= 5.86D-03 BMatP= 1.96D-02
 IDIUse=3 WtCom= 9.52D-01 WtEn= 4.83D-02
 Coeff-Com: -0.139D+00 0.388D+00 0.751D+00
 Coeff-En:   0.000D+00 0.000D+00 0.100D+01
 Coeff:     -0.132D+00 0.369D+00 0.763D+00
 Gap=     0.390 Goal=   None    Shift=    0.000
 RMSDP=1.46D-04 MaxDP=5.82D-03 DE=-5.14D-02 OVMax= 1.87D-02

 Cycle   4  Pass 0  IDiag  1:
 E= -115.533016600469     Delta-E=       -0.003328973906 Rises=F Damp=F
 DIIS: error= 1.98D-03 at cycle   4 NSaved=   4.
 NSaved= 4 IEnMin= 4 EnMin= -115.533016600469     IErMin= 4 ErrMin= 1.98D-03
 ErrMax= 1.98D-03  0.00D+00 EMaxC= 1.00D-01 BMatC= 7.67D-04 BMatP= 5.86D-03
 IDIUse=3 WtCom= 9.80D-01 WtEn= 1.98D-02
 Coeff-Com: -0.486D-01 0.866D-01 0.339D+00 0.623D+00
 Coeff-En:   0.000D+00 0.000D+00 0.210D-01 0.979D+00
 Coeff:     -0.476D-01 0.849D-01 0.333D+00 0.630D+00
 Gap=     0.389 Goal=   None    Shift=    0.000
 RMSDP=4.51D-05 MaxDP=1.92D-03 DE=-3.33D-03 OVMax= 6.67D-03

 Cycle   5  Pass 0  IDiag  1:
 E= -115.533587396124     Delta-E=       -0.000570795655 Rises=F Damp=F
 DIIS: error= 1.78D-04 at cycle   5 NSaved=   5.
 NSaved= 5 IEnMin= 5 EnMin= -115.533587396124     IErMin= 5 ErrMin= 1.78D-04
 ErrMax= 1.78D-04  0.00D+00 EMaxC= 1.00D-01 BMatC= 6.46D-06 BMatP= 7.67D-04
 IDIUse=3 WtCom= 9.98D-01 WtEn= 1.78D-03
 Coeff-Com: -0.673D-02 0.780D-02 0.530D-01 0.148D+00 0.798D+00
 Coeff-En:   0.000D+00 0.000D+00 0.000D+00 0.000D+00 0.100D+01
 Coeff:     -0.671D-02 0.779D-02 0.529D-01 0.148D+00 0.798D+00
 Gap=     0.389 Goal=   None    Shift=    0.000
 RMSDP=6.84D-06 MaxDP=1.90D-04 DE=-5.71D-04 OVMax= 5.68D-04

 Initial convergence to 1.0D-05 achieved.  Increase integral accuracy.
 Cycle   6  Pass 1  IDiag  1:
 E= -115.533597766573     Delta-E=       -0.000010370450 Rises=F Damp=F
 DIIS: error= 1.61D-05 at cycle   1 NSaved=   1.
 NSaved= 1 IEnMin= 1 EnMin= -115.533597766573     IErMin= 1 ErrMin= 1.61D-05
 ErrMax= 1.61D-05  0.00D+00 EMaxC= 1.00D-01 BMatC= 9.64D-08 BMatP= 9.64D-08
 IDIUse=1 WtCom= 1.00D+00 WtEn= 0.00D+00
 Coeff-Com:  0.100D+01
 Coeff:      0.100D+01
 Gap=     0.389 Goal=   None    Shift=    0.000
 RMSDP=6.84D-06 MaxDP=1.90D-04 DE=-1.04D-05 OVMax= 1.43D-04

 Cycle   7  Pass 1  IDiag  1:
 E= -115.533597920470     Delta-E=       -0.000000153897 Rises=F Damp=F
 DIIS: error= 5.94D-06 at cycle   2 NSaved=   2.
 NSaved= 2 IEnMin= 2 EnMin= -115.533597920470     IErMin= 2 ErrMin= 5.94D-06
 ErrMax= 5.94D-06  0.00D+00 EMaxC= 1.00D-01 BMatC= 7.33D-09 BMatP= 9.64D-08
 IDIUse=1 WtCom= 1.00D+00 WtEn= 0.00D+00
 Coeff-Com: -0.606D-01 0.106D+01
 Coeff:     -0.606D-01 0.106D+01
 Gap=     0.389 Goal=   None    Shift=    0.000
 RMSDP=4.47D-07 MaxDP=1.93D-05 DE=-1.54D-07 OVMax= 6.52D-05

 Cycle   8  Pass 1  IDiag  1:
 E= -115.533597932659     Delta-E=       -0.000000012188 Rises=F Damp=F
 DIIS: error= 3.42D-06 at cycle   3 NSaved=   3.
 NSaved= 3 IEnMin= 3 EnMin= -115.533597932659     IErMin= 3 ErrMin= 3.42D-06
 ErrMax= 3.42D-06  0.00D+00 EMaxC= 1.00D-01 BMatC= 3.65D-09 BMatP= 7.33D-09
 IDIUse=1 WtCom= 1.00D+00 WtEn= 0.00D+00
 Coeff-Com: -0.958D-01 0.437D+00 0.659D+00
 Coeff:     -0.958D-01 0.437D+00 0.659D+00
 Gap=     0.389 Goal=   None    Shift=    0.000
 RMSDP=1.76D-07 MaxDP=8.43D-06 DE=-1.22D-08 OVMax= 2.33D-05

 Cycle   9  Pass 1  IDiag  1:
 E= -115.533597935500     Delta-E=       -0.000000002842 Rises=F Damp=F
 DIIS: error= 1.22D-06 at cycle   4 NSaved=   4.
 NSaved= 4 IEnMin= 4 EnMin= -115.533597935500     IErMin= 4 ErrMin= 1.22D-06
 ErrMax= 1.22D-06  0.00D+00 EMaxC= 1.00D-01 BMatC= 3.67D-10 BMatP= 3.65D-09
 IDIUse=1 WtCom= 1.00D+00 WtEn= 0.00D+00
 Coeff-Com: -0.296D-01 0.195D-01 0.251D+00 0.759D+00
 Coeff:     -0.296D-01 0.195D-01 0.251D+00 0.759D+00
 Gap=     0.389 Goal=   None    Shift=    0.000
 RMSDP=5.06D-08 MaxDP=2.34D-06 DE=-2.84D-09 OVMax= 8.92D-06

 Cycle  10  Pass 1  IDiag  1:
 E= -115.533597935816     Delta-E=       -0.000000000316 Rises=F Damp=F
 DIIS: error= 3.39D-07 at cycle   5 NSaved=   5.
 NSaved= 5 IEnMin= 5 EnMin= -115.533597935816     IErMin= 5 ErrMin= 3.39D-07
 ErrMax= 3.39D-07  0.00D+00 EMaxC= 1.00D-01 BMatC= 2.05D-11 BMatP= 3.67D-10
 IDIUse=1 WtCom= 1.00D+00 WtEn= 0.00D+00
 Coeff-Com: -0.137D-02-0.240D-01 0.212D-01 0.230D+00 0.775D+00
 Coeff:     -0.137D-02-0.240D-01 0.212D-01 0.230D+00 0.775D+00
 Gap=     0.389 Goal=   None    Shift=    0.000
 RMSDP=1.35D-08 MaxDP=4.01D-07 DE=-3.16D-10 OVMax= 1.60D-06

 Cycle  11  Pass 1  IDiag  1:
 E= -115.533597935837     Delta-E=       -0.000000000020 Rises=F Damp=F
 DIIS: error= 1.14D-07 at cycle   6 NSaved=   6.
 NSaved= 6 IEnMin= 6 EnMin= -115.533597935837     IErMin= 6 ErrMin= 1.14D-07
 ErrMax= 1.14D-07  0.00D+00 EMaxC= 1.00D-01 BMatC= 1.52D-12 BMatP= 2.05D-11
 IDIUse=1 WtCom= 1.00D+00 WtEn= 0.00D+00
 Coeff-Com:  0.214D-02-0.113D-01-0.159D-01 0.201D-01 0.246D+00 0.759D+00
 Coeff:      0.214D-02-0.113D-01-0.159D-01 0.201D-01 0.246D+00 0.759D+00
 Gap=     0.389 Goal=   None    Shift=    0.000
 RMSDP=4.15D-09 MaxDP=1.22D-07 DE=-2.05D-11 OVMax= 5.12D-07

 SCF Done:  E(RB2PLYPD3) =  -115.533597936     A.U. after   11 cycles
            NFock= 11  Conv=0.41D-08     -V/T= 2.0026
 KE= 1.152299697261D+02 PE=-3.525663805507D+02 EE= 8.133225778678D+01
 Leave Link  502 at Wed Aug 26 23:58:46 2020, MaxMem=  2097152000 cpu:       171.2
 (Enter /opt/cluster/programs/g09/g09_d.01/g09/l801.exe)
 DoSCS=T DFT=T ScalE2(SS,OS)=  0.270000  0.270000
 ExpMin= 7.60D-02 ExpMax= 1.17D+05 ExpMxC= 1.13D+03 IAcc=3 IRadAn=         5 AccDes= 0.00D+00
 HarFok:  IExCor=  205 AccDes= 0.00D+00 IRadAn=         5 IDoV=-2 UseB2=F ITyADJ=14
 ICtDFT= 12500011 ScaDFX=  1.000000  1.000000  1.000000  1.000000
 DSYEVD-2 returned Info=        1739 IAlg= 4 N=    57 NDim=    57 NE2=    36788970 trying  DSYEV.
 Largest valence mixing into a core orbital is  1.09D-04
 Largest core mixing into a valence orbital is  1.43D-05
 Range of M.O.s used for correlation:     3   234
 NBasis=   234 NAE=     9 NBE=     9 NFC=     2 NFV=     0
 NROrb=    232 NOA=     7 NOB=     7 NVA=   225 NVB=   225

 **** Warning!!: The largest alpha MO coefficient is  0.34457848D+02

 Leave Link  801 at Wed Aug 26 23:58:49 2020, MaxMem=  2097152000 cpu:         0.5
 (Enter /opt/cluster/programs/g09/g09_d.01/g09/l906.exe)
 DoSCS=T DFT=T ScalE2(SS,OS)=  0.270000  0.270000
 FulOut=F Deriv=F AODrv=F NAtomX=     6
   MMem=        3646  MDisk=           7 MDiskD=           7
  W3Min=      447300 MinDsk=     1090093 NBas6D=         284
 NBas2D=       41310    NTT=       40470    LW2=     4508827
    MDV=  2096872296 MDiskM=       16391 NBas2p=       41304
 Fully in-core method, ICMem=  1722292712.
 IMap=   1   2   3   4   5   6   7
 JobTyp=1 Pass  1 fully in-core, NPsUse=  8.
 Compute canonical integrals.
 FoFCou: FMM=F IPFlag=           0 FMFlag=           0 FMFlg1=           0
         NFxFlg=           0 DoJE=F BraDBF=F KetDBF=F FulRan=T
         wScrn=  0.000000 ICntrl=     600 IOpCl=  1 I1Cent=           0 NGrid=           0
         NMat0=    1 NMatS0=  41310 NMatT0=    0 NMatD0=    1 NMtDS0=    0 NMtDT0=    0
 Symmetry not used in FoFCou.
 Spin components of T(2) and E(2):
     alpha-alpha T2 =       0.2157773651D-01 E2=     -0.1697256998D-01
     alpha-beta  T2 =       0.1353540048D+00 E2=     -0.1151605907D+00
     beta-beta   T2 =       0.2157773651D-01 E2=     -0.1697256998D-01
 The integrals were generated   1 times.
 E2(B2PLYPD3) =    -0.1491057307D+00 E(B2PLYPD3) =    -0.11568270366651D+03
 Leave Link  906 at Wed Aug 26 23:59:04 2020, MaxMem=  2097152000 cpu:       113.9
 (Enter /opt/cluster/programs/g09/g09_d.01/g09/l601.exe)
 Copying SCF densities to generalized density rwf, IOpCl= 0 IROHF=0.

 **********************************************************************

            Population analysis using the SCF density.

 **********************************************************************

 Orbital symmetries:
       Occupied  (A) (A) (A) (A) (A) (A) (A) (A) (A)
       Virtual   (A) (A) (A) (A) (A) (A) (A) (A) (A) (A) (A) (A)
                 (A) (A) (A) (A) (A) (A) (A) (A) (A) (A) (A) (A)
                 (A) (A) (A) (A) (A) (A) (A) (A) (A) (A) (A) (A)
                 (A) (A) (A) (A) (A) (A) (A) (A) (A) (A) (A) (A)
                 (A) (A) (A) (A) (A) (A) (A) (A) (A) (A) (A) (A)
                 (A) (A) (A) (A) (A) (A) (A) (A) (A) (A) (A) (A)
                 (A) (A) (A) (A) (A) (A) (A) (A) (A) (A) (A) (A)
                 (A) (A) (A) (A) (A) (A) (A) (A) (A) (A) (A) (A)
                 (A) (A) (A) (A) (A) (A) (A) (A) (A) (A) (A) (A)
                 (A) (A) (A) (A) (A) (A) (A) (A) (A) (A) (A) (A)
                 (A) (A) (A) (A) (A) (A) (A) (A) (A) (A) (A) (A)
                 (A) (A) (A) (A) (A) (A) (A) (A) (A) (A) (A) (A)
                 (A) (A) (A) (A) (A) (A) (A) (A) (A) (A) (A) (A)
                 (A) (A) (A) (A) (A) (A) (A) (A) (A) (A) (A) (A)
                 (A) (A) (A) (A) (A) (A) (A) (A) (A) (A) (A) (A)
                 (A) (A) (A) (A) (A) (A) (A) (A) (A) (A) (A) (A)
                 (A) (A) (A) (A) (A) (A) (A) (A) (A) (A) (A) (A)
                 (A) (A) (A) (A) (A) (A) (A) (A) (A) (A) (A) (A)
                 (A) (A) (A) (A) (A) (A) (A) (A) (A)
 The electronic state is 1-A.
 Alpha  occ. eigenvalues --  -19.73419 -10.63867  -1.14499  -0.78716  -0.57375
 Alpha  occ. eigenvalues --   -0.52310  -0.50117  -0.41011  -0.35047
 Alpha virt. eigenvalues --    0.03876   0.08036   0.12495   0.12748   0.14886
 Alpha virt. eigenvalues --    0.17372   0.18218   0.28938   0.30547   0.33304
 Alpha virt. eigenvalues --    0.34559   0.39046   0.40784   0.41815   0.43974
 Alpha virt. eigenvalues --    0.46945   0.53145   0.55419   0.58683   0.66382
 Alpha virt. eigenvalues --    0.71388   0.73254   0.77314   0.78834   0.80381
 Alpha virt. eigenvalues --    0.82627   0.85567   0.88413   0.93243   0.95313
 Alpha virt. eigenvalues --    0.99173   1.02102   1.02705   1.08573   1.10334
 Alpha virt. eigenvalues --    1.12166   1.15317   1.20471   1.31319   1.41704
 Alpha virt. eigenvalues --    1.43527   1.47193   1.47654   1.49629   1.53168
 Alpha virt. eigenvalues --    1.76155   1.83001   1.85065   1.85517   1.87952
 Alpha virt. eigenvalues --    1.90702   1.95568   1.95870   1.98875   2.03063
 Alpha virt. eigenvalues --    2.08558   2.14551   2.17678   2.22382   2.23547
 Alpha virt. eigenvalues --    2.23743   2.26847   2.30672   2.33947   2.39402
 Alpha virt. eigenvalues --    2.44827   2.50951   2.56479   2.56799   2.62867
 Alpha virt. eigenvalues --    2.63837   2.65766   2.69320   2.73820   2.78142
 Alpha virt. eigenvalues --    2.85556   2.87219   2.90580   2.95158   3.00167
 Alpha virt. eigenvalues --    3.04259   3.06468   3.12811   3.17105   3.22953
 Alpha virt. eigenvalues --    3.31191   3.32599   3.42895   3.45201   3.52564
 Alpha virt. eigenvalues --    3.57655   3.72203   3.73829   3.91398   3.98236
 Alpha virt. eigenvalues --    3.99393   4.02269   4.03654   4.11217   4.19218
 Alpha virt. eigenvalues --    4.21972   4.25716   4.36747   4.39433   4.41427
 Alpha virt. eigenvalues --    4.51176   4.53823   4.62919   4.78983   5.12081
 Alpha virt. eigenvalues --    5.18442   5.39213   5.49295   5.49715   5.59859
 Alpha virt. eigenvalues --    5.61855   5.72396   5.79024   5.81060   5.85544
 Alpha virt. eigenvalues --    5.95244   5.97605   5.99501   6.10237   6.10758
 Alpha virt. eigenvalues --    6.20888   6.26554   6.29486   6.34966   6.36836
 Alpha virt. eigenvalues --    6.41328   6.43460   6.49202   6.55336   6.62852
 Alpha virt. eigenvalues --    6.66173   6.70587   6.74344   6.78845   6.82099
 Alpha virt. eigenvalues --    6.88713   6.92623   6.92944   7.04168   7.13248
 Alpha virt. eigenvalues --    7.18322   7.32964   7.36196   7.39895   7.57836
 Alpha virt. eigenvalues --    7.60246   7.61795   7.64831   7.65959   7.68393
 Alpha virt. eigenvalues --    7.78624   7.79472   7.82625   7.89782   7.90534
 Alpha virt. eigenvalues --    7.95253   7.97811   8.03314   8.09559   8.16247
 Alpha virt. eigenvalues --    8.22843   8.31131   8.36742   8.39068   8.43894
 Alpha virt. eigenvalues --    8.45772   8.52582   8.54675   8.55141   8.60140
 Alpha virt. eigenvalues --    8.61850   8.63757   8.67587   8.74469   8.90543
 Alpha virt. eigenvalues --    8.95443   8.97495   9.08986   9.12266   9.21359
 Alpha virt. eigenvalues --    9.33048   9.54164   9.65085   9.89431   9.94285
 Alpha virt. eigenvalues --    9.99898  10.05063  10.15744  10.17352  10.28785
 Alpha virt. eigenvalues --   10.32879  10.39536  10.50121  10.53055  10.66638
 Alpha virt. eigenvalues --   10.74424  10.96934  11.01015  11.14824  11.37968
 Alpha virt. eigenvalues --   11.55775  11.63357  11.65970  11.78710  11.82379
 Alpha virt. eigenvalues --   12.04966  12.20666  12.31336  12.75289  12.77219
 Alpha virt. eigenvalues --   13.04485  13.23760  13.57299  13.75187  14.61985
 Alpha virt. eigenvalues --   15.37795  29.41614  48.62860 149.06081 254.36802
          Condensed to atoms (all electrons):
               1          2          3          4          5          6
     1  C    4.418704   0.265815   0.445499   0.442951   0.400244  -0.051081
     2  O    0.265815   8.034853  -0.051437  -0.046931  -0.037588   0.316060
     3  H    0.445499  -0.051437   0.669239  -0.055763  -0.040001  -0.008497
     4  H    0.442951  -0.046931  -0.055763   0.666412  -0.042986  -0.008805
     5  H    0.400244  -0.037588  -0.040001  -0.042986   0.639254   0.012606
     6  H   -0.051081   0.316060  -0.008497  -0.008805   0.012606   0.491368
 Mulliken charges:
               1
     1  C    0.077869
     2  O   -0.480772
     3  H    0.040960
     4  H    0.045122
     5  H    0.068472
     6  H    0.248349
 Sum of Mulliken charges =   0.00000
 Mulliken charges with hydrogens summed into heavy atoms:
               1
     1  C    0.232423
     2  O   -0.232423
 Electronic spatial extent (au):  <R**2>=             83.2883
 Charge=              0.0000 electrons
 Dipole moment (field-independent basis, Debye):
    X=             -0.8990    Y=              1.5775    Z=              0.0916  Tot=              1.8180
 Quadrupole moment (field-independent basis, Debye-Ang):
   XX=            -13.1455   YY=            -11.9510   ZZ=            -13.7792
   XY=              2.3787   XZ=              0.0326   YZ=              0.0762
 Traceless Quadrupole moment (field-independent basis, Debye-Ang):
   XX=             -0.1869   YY=              1.0076   ZZ=             -0.8207
   XY=              2.3787   XZ=              0.0326   YZ=              0.0762
 Octapole moment (field-independent basis, Debye-Ang**2):
  XXX=              3.4319  YYY=              0.7791  ZZZ=              0.1486  XYY=              2.0191
  XXY=              2.3480  XXZ=              0.1668  XZZ=              0.0682  YZZ=              0.4817
  YYZ=              0.0381  XYZ=              0.0487
 Hexadecapole moment (field-independent basis, Debye-Ang**3):
 XXXX=            -61.6605 YYYY=            -19.9478 ZZZZ=            -19.7852 XXXY=              4.0092
 XXXZ=             -0.0934 YYYX=              3.3308 YYYZ=              0.1732 ZZZX=             -0.1363
 ZZZY=              0.0808 XXYY=            -12.3267 XXZZ=            -14.3895 YYZZ=             -6.8674
 XXYZ=              0.1376 YYXZ=              0.0627 ZZXY=             -0.0652
 N-N= 4.047055510199D+01 E-N=-3.525663865896D+02  KE= 1.152299697261D+02
 Leave Link  601 at Wed Aug 26 23:59:06 2020, MaxMem=  2097152000 cpu:         0.3
 (Enter /opt/cluster/programs/g09/g09_d.01/g09/l9999.exe)
 1\1\GINC-NODE32\SP\RB2PLYPD3-FC\def2QZVP\C1H4O1\BOITTIER\26-Aug-2020\0
 \\#p B2PLYPD3/Def2QZVP\\methanol\\0,1\C,0,-5.173781,-1.252216,0.914801
 \O,0,-3.773757,-1.120683,0.870212\H,0,-5.490997,-2.232863,0.569473\H,0
 ,-5.665632,-0.50832,0.368915\H,0,-5.437479,-1.162752,1.891549\H,0,-3.5
 1369,-1.221766,-0.182062\\Version=ES64L-G09RevD.01\State=1-A\HF=-115.5
 335979\MP2=-115.6827037\RMSD=4.146e-09\PG=C01 [X(C1H4O1)]\\@


 CHEMISTRY BEGAN BY SAYING IT WOULD CHANGE THE BASER
 METALS INTO GOLD.  BY NOT DOING THAT IT HAS DONE MUCH
 GREATER THINGS.  --  RALPH WALDO EMERSON
 Job cpu time:       0 days  0 hours  4 minutes 53.0 seconds.
 File lengths (MBytes):  RWF=     23 Int=      0 D2E=      0 Chk=      4 Scr=      1
 Normal termination of Gaussian 09 at Wed Aug 26 23:59:08 2020.
