 Entering Gaussian System, Link 0=/opt/cluster/programs/g09/g09_d.01/g09//g09
 Input=/home/boittier/MDCM/nms_sampling/methanol_geom.xyz.dir/energies/methanol_1912_energy.com
 Output=/scratch/boittier/methanol_1912_energy/methanol_1912_energy.out
 Initial command:
 /opt/cluster/programs/g09/g09_d.01/g09/l1.exe "/scratch/boittier/methanol_1912_energy/Gau-67078.inp" -scrdir="/scratch/boittier/methanol_1912_energy/"
 Entering Link 1 = /opt/cluster/programs/g09/g09_d.01/g09/l1.exe PID=     67079.
  
 Copyright (c) 1988,1990,1992,1993,1995,1998,2003,2009,2013,
            Gaussian, Inc.  All Rights Reserved.
  
 This is part of the Gaussian(R) 09 program.  It is based on
 the Gaussian(R) 03 system (copyright 2003, Gaussian, Inc.),
 the Gaussian(R) 98 system (copyright 1998, Gaussian, Inc.),
 the Gaussian(R) 94 system (copyright 1995, Gaussian, Inc.),
 the Gaussian 92(TM) system (copyright 1992, Gaussian, Inc.),
 the Gaussian 90(TM) system (copyright 1990, Gaussian, Inc.),
 the Gaussian 88(TM) system (copyright 1988, Gaussian, Inc.),
 the Gaussian 86(TM) system (copyright 1986, Carnegie Mellon
 University), and the Gaussian 82(TM) system (copyright 1983,
 Carnegie Mellon University). Gaussian is a federally registered
 trademark of Gaussian, Inc.
  
 This software contains proprietary and confidential information,
 including trade secrets, belonging to Gaussian, Inc.
  
 This software is provided under written license and may be
 used, copied, transmitted, or stored only in accord with that
 written license.
  
 The following legend is applicable only to US Government
 contracts under FAR:
  
                    RESTRICTED RIGHTS LEGEND
  
 Use, reproduction and disclosure by the US Government is
 subject to restrictions as set forth in subparagraphs (a)
 and (c) of the Commercial Computer Software - Restricted
 Rights clause in FAR 52.227-19.
  
 Gaussian, Inc.
 340 Quinnipiac St., Bldg. 40, Wallingford CT 06492
  
  
 ---------------------------------------------------------------
 Warning -- This program may not be used in any manner that
 competes with the business of Gaussian, Inc. or will provide
 assistance to any competitor of Gaussian, Inc.  The licensee
 of this program is prohibited from giving any competitor of
 Gaussian, Inc. access to this program.  By using this program,
 the user acknowledges that Gaussian, Inc. is engaged in the
 business of creating and licensing software in the field of
 computational chemistry and represents and warrants to the
 licensee that it is not a competitor of Gaussian, Inc. and that
 it will not use this program in any manner prohibited above.
 ---------------------------------------------------------------
  

 Cite this work as:
 Gaussian 09, Revision D.01,
 M. J. Frisch, G. W. Trucks, H. B. Schlegel, G. E. Scuseria, 
 M. A. Robb, J. R. Cheeseman, G. Scalmani, V. Barone, B. Mennucci, 
 G. A. Petersson, H. Nakatsuji, M. Caricato, X. Li, H. P. Hratchian, 
 A. F. Izmaylov, J. Bloino, G. Zheng, J. L. Sonnenberg, M. Hada, 
 M. Ehara, K. Toyota, R. Fukuda, J. Hasegawa, M. Ishida, T. Nakajima, 
 Y. Honda, O. Kitao, H. Nakai, T. Vreven, J. A. Montgomery, Jr., 
 J. E. Peralta, F. Ogliaro, M. Bearpark, J. J. Heyd, E. Brothers, 
 K. N. Kudin, V. N. Staroverov, T. Keith, R. Kobayashi, J. Normand, 
 K. Raghavachari, A. Rendell, J. C. Burant, S. S. Iyengar, J. Tomasi, 
 M. Cossi, N. Rega, J. M. Millam, M. Klene, J. E. Knox, J. B. Cross, 
 V. Bakken, C. Adamo, J. Jaramillo, R. Gomperts, R. E. Stratmann, 
 O. Yazyev, A. J. Austin, R. Cammi, C. Pomelli, J. W. Ochterski, 
 R. L. Martin, K. Morokuma, V. G. Zakrzewski, G. A. Voth, 
 P. Salvador, J. J. Dannenberg, S. Dapprich, A. D. Daniels, 
 O. Farkas, J. B. Foresman, J. V. Ortiz, J. Cioslowski, 
 and D. J. Fox, Gaussian, Inc., Wallingford CT, 2013.
 
 ******************************************
 Gaussian 09:  ES64L-G09RevD.01 24-Apr-2013
                26-Aug-2020 
 ******************************************
 %chk=/home/boittier/MDCM/nms_sampling/methanol_geom.xyz.dir/methanol_1912.chk
 %nproc=8
 Will use up to    8 processors via shared memory.
 %mem=16000MB
 --------------------
 #p B2PLYPD3/Def2QZVP
 --------------------
 1/38=1/1;
 2/12=2,17=6,18=5,40=1/2;
 3/5=45,7=101,11=9,16=1,25=1,30=1,74=-60/1,2,3;
 4//1;
 5/5=2,38=5/2;
 8/10=1/1;
 9/16=-3/6;
 6/7=2,8=2,9=2,10=2/1;
 99/5=1,9=1/99;
 Leave Link    1 at Wed Aug 26 14:22:26 2020, MaxMem=  2097152000 cpu:         0.2
 (Enter /opt/cluster/programs/g09/g09_d.01/g09/l101.exe)
 --------
 methanol
 --------
 Symbolic Z-matrix:
 Charge =  0 Multiplicity = 1
 C                    -5.17484  -1.25037   0.90531 
 O                    -3.76129  -1.11748   0.84236 
 H                    -5.54116  -2.31368   0.52259 
 H                    -5.73024  -0.44653   0.35774 
 H                    -5.48626  -1.1981    2.0994 
 H                    -3.53625  -1.24163   0.23259 
 
 NAtoms=      6 NQM=        6 NQMF=       0 NMMI=      0 NMMIF=      0
                NMic=       0 NMicF=      0.
                    Isotopes and Nuclear Properties:
 (Nuclear quadrupole moments (NQMom) in fm**2, nuclear magnetic moments (NMagM)
  in nuclear magnetons)

  Atom         1           2           3           4           5           6
 IAtWgt=          12          16           1           1           1           1
 AtmWgt=  12.0000000  15.9949146   1.0078250   1.0078250   1.0078250   1.0078250
 NucSpn=           0           0           1           1           1           1
 AtZEff=   0.0000000   0.0000000   0.0000000   0.0000000   0.0000000   0.0000000
 NQMom=    0.0000000   0.0000000   0.0000000   0.0000000   0.0000000   0.0000000
 NMagM=    0.0000000   0.0000000   2.7928460   2.7928460   2.7928460   2.7928460
 AtZNuc=   6.0000000   8.0000000   1.0000000   1.0000000   1.0000000   1.0000000
 Leave Link  101 at Wed Aug 26 14:22:26 2020, MaxMem=  2097152000 cpu:         0.5
 (Enter /opt/cluster/programs/g09/g09_d.01/g09/l202.exe)
                          Input orientation:                          
 ---------------------------------------------------------------------
 Center     Atomic      Atomic             Coordinates (Angstroms)
 Number     Number       Type             X           Y           Z
 ---------------------------------------------------------------------
      1          6           0       -5.174838   -1.250372    0.905308
      2          8           0       -3.761287   -1.117478    0.842364
      3          1           0       -5.541159   -2.313683    0.522594
      4          1           0       -5.730241   -0.446534    0.357740
      5          1           0       -5.486261   -1.198105    2.099397
      6          1           0       -3.536254   -1.241629    0.232591
 ---------------------------------------------------------------------
                    Distance matrix (angstroms):
                    1          2          3          4          5
     1  C    0.000000
     2  O    1.421179   0.000000
     3  H    1.187978   2.168203   0.000000
     4  H    1.120026   2.135839   1.883925   0.000000
     5  H    1.235138   2.135923   1.932314   1.912526   0.000000
     6  H    1.771322   0.661722   2.291952   2.336968   2.699886
                    6
     6  H    0.000000
 Stoichiometry    CH4O
 Framework group  C1[X(CH4O)]
 Deg. of freedom    12
 Full point group                 C1      NOp   1
 Largest Abelian subgroup         C1      NOp   1
 Largest concise Abelian subgroup C1      NOp   1
                         Standard orientation:                         
 ---------------------------------------------------------------------
 Center     Atomic      Atomic             Coordinates (Angstroms)
 Number     Number       Type             X           Y           Z
 ---------------------------------------------------------------------
      1          6           0        0.653848   -0.024399    0.016292
      2          8           0       -0.763258    0.081323   -0.003285
      3          1           0        1.063723   -0.701125   -0.869900
      4          1           0        1.067050   -0.395233    0.989023
      5          1           0        1.100012    1.108237   -0.192606
      6          1           0       -1.047809   -0.516070    0.002014
 ---------------------------------------------------------------------
 Rotational constants (GHZ):    125.2670546     24.3866735     23.8602346
 Leave Link  202 at Wed Aug 26 14:22:26 2020, MaxMem=  2097152000 cpu:         0.0
 (Enter /opt/cluster/programs/g09/g09_d.01/g09/l301.exe)
 Standard basis: def2QZVP (5D, 7F)
 Ernie: Thresh=  0.10000D-02 Tol=  0.10000D-05 Strict=F.
 There are   284 symmetry adapted cartesian basis functions of A   symmetry.
 There are   234 symmetry adapted basis functions of A   symmetry.
   234 basis functions,   336 primitive gaussians,   284 cartesian basis functions
     9 alpha electrons        9 beta electrons
       nuclear repulsion energy        41.5423444866 Hartrees.
 IExCor=  419 DFT=T Ex+Corr=B2PLYPD3 ExCW=0 ScaHFX=  0.530000
 ScaDFX=  0.470000  0.470000  0.730000  0.730000 ScalE2=  0.270000  0.270000
 IRadAn=      0 IRanWt=     -1 IRanGd=            0 ICorTp=0 IEmpDi=141
 NAtoms=    6 NActive=    6 NUniq=    6 SFac= 1.00D+00 NAtFMM=   60 NAOKFM=F Big=F
 Integral buffers will be    131072 words long.
 Regular integral format.
 Two-electron integral symmetry is turned on.
 R6Disp:  Grimme-D3(BJ) Dispersion energy=       -0.0013123634 Hartrees.
 Nuclear repulsion after empirical dispersion term =       41.5410321233 Hartrees.
 Leave Link  301 at Wed Aug 26 14:22:26 2020, MaxMem=  2097152000 cpu:         0.4
 (Enter /opt/cluster/programs/g09/g09_d.01/g09/l302.exe)
 NPDir=0 NMtPBC=     1 NCelOv=     1 NCel=       1 NClECP=     1 NCelD=      1
         NCelK=      1 NCelE2=     1 NClLst=     1 CellRange=     0.0.
 One-electron integrals computed using PRISM.
   1 Symmetry operations used in ECPInt.
 ECPInt:  NShTT=    2775 NPrTT=    6207 LenC2=    2774 LenP2D=    5739.
 LDataN:  DoStor=T MaxTD1= 8 Len=  415
 NBasis=   234 RedAO= T EigKep=  5.43D-05  NBF=   234
 NBsUse=   234 1.00D-06 EigRej= -1.00D+00 NBFU=   234
 Precomputing XC quadrature grid using
 IXCGrd= 4 IRadAn=           0 IRanWt=          -1 IRanGd=           0 AccXCQ= 0.00D+00.
 Generated NRdTot=       0 NPtTot=           0 NUsed=           0 NTot=          32
 NSgBfM=   284   284   284   284   284 MxSgAt=     6 MxSgA2=     6.
 Leave Link  302 at Wed Aug 26 14:22:26 2020, MaxMem=  2097152000 cpu:         1.8
 (Enter /opt/cluster/programs/g09/g09_d.01/g09/l303.exe)
 DipDrv:  MaxL=1.
 Leave Link  303 at Wed Aug 26 14:22:26 2020, MaxMem=  2097152000 cpu:         0.2
 (Enter /opt/cluster/programs/g09/g09_d.01/g09/l401.exe)
 ExpMin= 7.60D-02 ExpMax= 1.17D+05 ExpMxC= 1.13D+03 IAcc=2 IRadAn=         4 AccDes= 0.00D+00
 Harris functional with IExCor=  419 and IRadAn=       4 diagonalized for initial guess.
 HarFok:  IExCor=  419 AccDes= 0.00D+00 IRadAn=         4 IDoV= 1 UseB2=F ITyADJ=14
 ICtDFT=  3500011 ScaDFX=  1.000000  1.000000  1.000000  1.000000
 FoFCou: FMM=F IPFlag=           0 FMFlag=      100000 FMFlg1=           0
         NFxFlg=           0 DoJE=T BraDBF=F KetDBF=T FulRan=T
         wScrn=  0.000000 ICntrl=     500 IOpCl=  0 I1Cent=   200000004 NGrid=           0
         NMat0=    1 NMatS0=      1 NMatT0=    0 NMatD0=    1 NMtDS0=    0 NMtDT0=    0
 Petite list used in FoFCou.
 Harris En= -115.651446253265    
 JPrj=0 DoOrth=F DoCkMO=F.
 Leave Link  401 at Wed Aug 26 14:22:27 2020, MaxMem=  2097152000 cpu:         3.2
 (Enter /opt/cluster/programs/g09/g09_d.01/g09/l502.exe)
 Closed shell SCF:
 Using DIIS extrapolation, IDIIS=  1040.
 Integral symmetry usage will be decided dynamically.
 Keep R1 ints in memory in canonical form, NReq=389840494.
 IVT=      264814 IEndB=      264814 NGot=  2097152000 MDV=  1718885927
 LenX=  1718885927 LenY=  1718804830
 Requested convergence on RMS density matrix=1.00D-08 within 128 cycles.
 Requested convergence on MAX density matrix=1.00D-06.
 Requested convergence on             energy=1.00D-06.
 No special actions if energy rises.
 FoFCou: FMM=F IPFlag=           0 FMFlag=           0 FMFlg1=           0
         NFxFlg=           0 DoJE=F BraDBF=F KetDBF=F FulRan=T
         wScrn=  0.000000 ICntrl=     600 IOpCl=  0 I1Cent=           0 NGrid=           0
         NMat0=    1 NMatS0=  27495 NMatT0=    0 NMatD0=    1 NMtDS0=    0 NMtDT0=    0
 Symmetry not used in FoFCou.
 Integral accuracy reduced to 1.0D-05 until final iterations.

 Cycle   1  Pass 0  IDiag  1:
 E= -115.212644536944    
 DIIS: error= 2.96D-02 at cycle   1 NSaved=   1.
 NSaved= 1 IEnMin= 1 EnMin= -115.212644536944     IErMin= 1 ErrMin= 2.96D-02
 ErrMax= 2.96D-02  0.00D+00 EMaxC= 1.00D-01 BMatC= 2.74D-01 BMatP= 2.74D-01
 IDIUse=3 WtCom= 7.04D-01 WtEn= 2.96D-01
 Coeff-Com:  0.100D+01
 Coeff-En:   0.100D+01
 Coeff:      0.100D+01
 Gap=     0.357 Goal=   None    Shift=    0.000
 GapD=    0.357 DampG=1.000 DampE=0.500 DampFc=0.5000 IDamp=-1.
 Damping current iteration by 5.00D-01
 RMSDP=1.59D-03 MaxDP=6.79D-02              OVMax= 2.03D-01

 Cycle   2  Pass 0  IDiag  1:
 E= -115.281104335182     Delta-E=       -0.068459798238 Rises=F Damp=T
 DIIS: error= 1.21D-02 at cycle   2 NSaved=   2.
 NSaved= 2 IEnMin= 2 EnMin= -115.281104335182     IErMin= 2 ErrMin= 1.21D-02
 ErrMax= 1.21D-02  0.00D+00 EMaxC= 1.00D-01 BMatC= 1.94D-02 BMatP= 2.74D-01
 IDIUse=3 WtCom= 8.79D-01 WtEn= 1.21D-01
 Coeff-Com: -0.829D-01 0.108D+01
 Coeff-En:   0.000D+00 0.100D+01
 Coeff:     -0.729D-01 0.107D+01
 Gap=     0.445 Goal=   None    Shift=    0.000
 RMSDP=3.86D-04 MaxDP=1.13D-02 DE=-6.85D-02 OVMax= 1.06D-01

 Cycle   3  Pass 0  IDiag  1:
 E= -115.352909646825     Delta-E=       -0.071805311643 Rises=F Damp=F
 DIIS: error= 4.15D-03 at cycle   3 NSaved=   3.
 NSaved= 3 IEnMin= 3 EnMin= -115.352909646825     IErMin= 3 ErrMin= 4.15D-03
 ErrMax= 4.15D-03  0.00D+00 EMaxC= 1.00D-01 BMatC= 3.16D-03 BMatP= 1.94D-02
 IDIUse=3 WtCom= 9.59D-01 WtEn= 4.15D-02
 Coeff-Com: -0.968D-01 0.230D+00 0.867D+00
 Coeff-En:   0.000D+00 0.000D+00 0.100D+01
 Coeff:     -0.928D-01 0.221D+00 0.872D+00
 Gap=     0.421 Goal=   None    Shift=    0.000
 RMSDP=1.04D-04 MaxDP=4.15D-03 DE=-7.18D-02 OVMax= 1.40D-02

 Cycle   4  Pass 0  IDiag  1:
 E= -115.354770979279     Delta-E=       -0.001861332454 Rises=F Damp=F
 DIIS: error= 1.26D-03 at cycle   4 NSaved=   4.
 NSaved= 4 IEnMin= 4 EnMin= -115.354770979279     IErMin= 4 ErrMin= 1.26D-03
 ErrMax= 1.26D-03  0.00D+00 EMaxC= 1.00D-01 BMatC= 2.52D-04 BMatP= 3.16D-03
 IDIUse=3 WtCom= 9.87D-01 WtEn= 1.26D-02
 Coeff-Com: -0.314D-01 0.535D-01 0.333D+00 0.645D+00
 Coeff-En:   0.000D+00 0.000D+00 0.000D+00 0.100D+01
 Coeff:     -0.310D-01 0.529D-01 0.329D+00 0.649D+00
 Gap=     0.418 Goal=   None    Shift=    0.000
 RMSDP=3.31D-05 MaxDP=1.71D-03 DE=-1.86D-03 OVMax= 4.54D-03

 Cycle   5  Pass 0  IDiag  1:
 E= -115.354992703232     Delta-E=       -0.000221723953 Rises=F Damp=F
 DIIS: error= 2.76D-04 at cycle   5 NSaved=   5.
 NSaved= 5 IEnMin= 5 EnMin= -115.354992703232     IErMin= 5 ErrMin= 2.76D-04
 ErrMax= 2.76D-04  0.00D+00 EMaxC= 1.00D-01 BMatC= 1.00D-05 BMatP= 2.52D-04
 IDIUse=3 WtCom= 9.97D-01 WtEn= 2.76D-03
 Coeff-Com: -0.365D-02 0.196D-02 0.491D-01 0.204D+00 0.749D+00
 Coeff-En:   0.000D+00 0.000D+00 0.000D+00 0.000D+00 0.100D+01
 Coeff:     -0.364D-02 0.196D-02 0.489D-01 0.203D+00 0.749D+00
 Gap=     0.418 Goal=   None    Shift=    0.000
 RMSDP=9.51D-06 MaxDP=3.02D-04 DE=-2.22D-04 OVMax= 8.60D-04

 Initial convergence to 1.0D-05 achieved.  Increase integral accuracy.
 Cycle   6  Pass 1  IDiag  1:
 E= -115.354998462631     Delta-E=       -0.000005759399 Rises=F Damp=F
 DIIS: error= 4.48D-05 at cycle   1 NSaved=   1.
 NSaved= 1 IEnMin= 1 EnMin= -115.354998462631     IErMin= 1 ErrMin= 4.48D-05
 ErrMax= 4.48D-05  0.00D+00 EMaxC= 1.00D-01 BMatC= 2.10D-07 BMatP= 2.10D-07
 IDIUse=1 WtCom= 1.00D+00 WtEn= 0.00D+00
 Coeff-Com:  0.100D+01
 Coeff:      0.100D+01
 Gap=     0.419 Goal=   None    Shift=    0.000
 RMSDP=9.51D-06 MaxDP=3.02D-04 DE=-5.76D-06 OVMax= 1.87D-04

 Cycle   7  Pass 1  IDiag  1:
 E= -115.354998746695     Delta-E=       -0.000000284064 Rises=F Damp=F
 DIIS: error= 1.43D-05 at cycle   2 NSaved=   2.
 NSaved= 2 IEnMin= 2 EnMin= -115.354998746695     IErMin= 2 ErrMin= 1.43D-05
 ErrMax= 1.43D-05  0.00D+00 EMaxC= 1.00D-01 BMatC= 1.38D-08 BMatP= 2.10D-07
 IDIUse=1 WtCom= 1.00D+00 WtEn= 0.00D+00
 Coeff-Com: -0.607D-01 0.106D+01
 Coeff:     -0.607D-01 0.106D+01
 Gap=     0.419 Goal=   None    Shift=    0.000
 RMSDP=8.14D-07 MaxDP=2.85D-05 DE=-2.84D-07 OVMax= 7.58D-05

 Cycle   8  Pass 1  IDiag  1:
 E= -115.354998772327     Delta-E=       -0.000000025632 Rises=F Damp=F
 DIIS: error= 4.47D-06 at cycle   3 NSaved=   3.
 NSaved= 3 IEnMin= 3 EnMin= -115.354998772327     IErMin= 3 ErrMin= 4.47D-06
 ErrMax= 4.47D-06  0.00D+00 EMaxC= 1.00D-01 BMatC= 3.43D-09 BMatP= 1.38D-08
 IDIUse=1 WtCom= 1.00D+00 WtEn= 0.00D+00
 Coeff-Com: -0.758D-01 0.277D+00 0.799D+00
 Coeff:     -0.758D-01 0.277D+00 0.799D+00
 Gap=     0.419 Goal=   None    Shift=    0.000
 RMSDP=2.48D-07 MaxDP=8.04D-06 DE=-2.56D-08 OVMax= 2.61D-05

 Cycle   9  Pass 1  IDiag  1:
 E= -115.354998775280     Delta-E=       -0.000000002953 Rises=F Damp=F
 DIIS: error= 2.23D-06 at cycle   4 NSaved=   4.
 NSaved= 4 IEnMin= 4 EnMin= -115.354998775280     IErMin= 4 ErrMin= 2.23D-06
 ErrMax= 2.23D-06  0.00D+00 EMaxC= 1.00D-01 BMatC= 6.61D-10 BMatP= 3.43D-09
 IDIUse=1 WtCom= 1.00D+00 WtEn= 0.00D+00
 Coeff-Com: -0.256D-01-0.191D-01 0.316D+00 0.729D+00
 Coeff:     -0.256D-01-0.191D-01 0.316D+00 0.729D+00
 Gap=     0.419 Goal=   None    Shift=    0.000
 RMSDP=6.98D-08 MaxDP=2.95D-06 DE=-2.95D-09 OVMax= 9.74D-06

 Cycle  10  Pass 1  IDiag  1:
 E= -115.354998775798     Delta-E=       -0.000000000519 Rises=F Damp=F
 DIIS: error= 2.57D-07 at cycle   5 NSaved=   5.
 NSaved= 5 IEnMin= 5 EnMin= -115.354998775798     IErMin= 5 ErrMin= 2.57D-07
 ErrMax= 2.57D-07  0.00D+00 EMaxC= 1.00D-01 BMatC= 1.79D-11 BMatP= 6.61D-10
 IDIUse=1 WtCom= 1.00D+00 WtEn= 0.00D+00
 Coeff-Com:  0.185D-02-0.218D-01-0.166D-01 0.137D+00 0.899D+00
 Coeff:      0.185D-02-0.218D-01-0.166D-01 0.137D+00 0.899D+00
 Gap=     0.419 Goal=   None    Shift=    0.000
 RMSDP=1.49D-08 MaxDP=5.15D-07 DE=-5.19D-10 OVMax= 1.61D-06

 Cycle  11  Pass 1  IDiag  1:
 E= -115.354998775816     Delta-E=       -0.000000000017 Rises=F Damp=F
 DIIS: error= 3.96D-08 at cycle   6 NSaved=   6.
 NSaved= 6 IEnMin= 6 EnMin= -115.354998775816     IErMin= 6 ErrMin= 3.96D-08
 ErrMax= 3.96D-08  0.00D+00 EMaxC= 1.00D-01 BMatC= 2.06D-13 BMatP= 1.79D-11
 IDIUse=1 WtCom= 1.00D+00 WtEn= 0.00D+00
 Coeff-Com:  0.469D-03-0.274D-02-0.598D-02 0.105D-01 0.109D+00 0.889D+00
 Coeff:      0.469D-03-0.274D-02-0.598D-02 0.105D-01 0.109D+00 0.889D+00
 Gap=     0.419 Goal=   None    Shift=    0.000
 RMSDP=1.94D-09 MaxDP=6.41D-08 DE=-1.73D-11 OVMax= 2.43D-07

 SCF Done:  E(RB2PLYPD3) =  -115.354998776     A.U. after   11 cycles
            NFock= 11  Conv=0.19D-08     -V/T= 1.9957
 KE= 1.158560055787D+02 PE=-3.545188426134D+02 EE= 8.176680613564D+01
 Leave Link  502 at Wed Aug 26 14:22:40 2020, MaxMem=  2097152000 cpu:        61.1
 (Enter /opt/cluster/programs/g09/g09_d.01/g09/l801.exe)
 DoSCS=T DFT=T ScalE2(SS,OS)=  0.270000  0.270000
 ExpMin= 7.60D-02 ExpMax= 1.17D+05 ExpMxC= 1.13D+03 IAcc=3 IRadAn=         5 AccDes= 0.00D+00
 HarFok:  IExCor=  205 AccDes= 0.00D+00 IRadAn=         5 IDoV=-2 UseB2=F ITyADJ=14
 ICtDFT= 12500011 ScaDFX=  1.000000  1.000000  1.000000  1.000000
 Largest valence mixing into a core orbital is  1.24D-04
 Largest core mixing into a valence orbital is  1.52D-05
 Range of M.O.s used for correlation:     3   234
 NBasis=   234 NAE=     9 NBE=     9 NFC=     2 NFV=     0
 NROrb=    232 NOA=     7 NOB=     7 NVA=   225 NVB=   225

 **** Warning!!: The largest alpha MO coefficient is  0.23665117D+02

 Leave Link  801 at Wed Aug 26 14:22:40 2020, MaxMem=  2097152000 cpu:         0.6
 (Enter /opt/cluster/programs/g09/g09_d.01/g09/l906.exe)
 DoSCS=T DFT=T ScalE2(SS,OS)=  0.270000  0.270000
 FulOut=F Deriv=F AODrv=F NAtomX=     6
   MMem=        3646  MDisk=           7 MDiskD=           7
  W3Min=      447300 MinDsk=     1090093 NBas6D=         284
 NBas2D=       41310    NTT=       40470    LW2=     4508827
    MDV=  2096872604 MDiskM=       16391 NBas2p=       41304
 Fully in-core method, ICMem=  1722292712.
 IMap=   1   2   3   4   5   6   7
 JobTyp=1 Pass  1 fully in-core, NPsUse=  8.
 Compute canonical integrals.
 FoFCou: FMM=F IPFlag=           0 FMFlag=           0 FMFlg1=           0
         NFxFlg=           0 DoJE=F BraDBF=F KetDBF=F FulRan=T
         wScrn=  0.000000 ICntrl=     600 IOpCl=  1 I1Cent=           0 NGrid=           0
         NMat0=    1 NMatS0=  41310 NMatT0=    0 NMatD0=    1 NMtDS0=    0 NMtDT0=    0
 Symmetry not used in FoFCou.
 Spin components of T(2) and E(2):
     alpha-alpha T2 =       0.1932842596D-01 E2=     -0.1614987658D-01
     alpha-beta  T2 =       0.1275495214D+00 E2=     -0.1117377294D+00
     beta-beta   T2 =       0.1932842596D-01 E2=     -0.1614987658D-01
 The integrals were generated   1 times.
 E2(B2PLYPD3) =    -0.1440374825D+00 E(B2PLYPD3) =    -0.11549903625836D+03
 Leave Link  906 at Wed Aug 26 14:22:54 2020, MaxMem=  2097152000 cpu:       113.4
 (Enter /opt/cluster/programs/g09/g09_d.01/g09/l601.exe)
 Copying SCF densities to generalized density rwf, IOpCl= 0 IROHF=0.

 **********************************************************************

            Population analysis using the SCF density.

 **********************************************************************

 Orbital symmetries:
       Occupied  (A) (A) (A) (A) (A) (A) (A) (A) (A)
       Virtual   (A) (A) (A) (A) (A) (A) (A) (A) (A) (A) (A) (A)
                 (A) (A) (A) (A) (A) (A) (A) (A) (A) (A) (A) (A)
                 (A) (A) (A) (A) (A) (A) (A) (A) (A) (A) (A) (A)
                 (A) (A) (A) (A) (A) (A) (A) (A) (A) (A) (A) (A)
                 (A) (A) (A) (A) (A) (A) (A) (A) (A) (A) (A) (A)
                 (A) (A) (A) (A) (A) (A) (A) (A) (A) (A) (A) (A)
                 (A) (A) (A) (A) (A) (A) (A) (A) (A) (A) (A) (A)
                 (A) (A) (A) (A) (A) (A) (A) (A) (A) (A) (A) (A)
                 (A) (A) (A) (A) (A) (A) (A) (A) (A) (A) (A) (A)
                 (A) (A) (A) (A) (A) (A) (A) (A) (A) (A) (A) (A)
                 (A) (A) (A) (A) (A) (A) (A) (A) (A) (A) (A) (A)
                 (A) (A) (A) (A) (A) (A) (A) (A) (A) (A) (A) (A)
                 (A) (A) (A) (A) (A) (A) (A) (A) (A) (A) (A) (A)
                 (A) (A) (A) (A) (A) (A) (A) (A) (A) (A) (A) (A)
                 (A) (A) (A) (A) (A) (A) (A) (A) (A) (A) (A) (A)
                 (A) (A) (A) (A) (A) (A) (A) (A) (A) (A) (A) (A)
                 (A) (A) (A) (A) (A) (A) (A) (A) (A) (A) (A) (A)
                 (A) (A) (A) (A) (A) (A) (A) (A) (A) (A) (A) (A)
                 (A) (A) (A) (A) (A) (A) (A) (A) (A)
 The electronic state is 1-A.
 Alpha  occ. eigenvalues --  -19.69914 -10.69113  -1.26512  -0.81041  -0.62351
 Alpha  occ. eigenvalues --   -0.51677  -0.49571  -0.40738  -0.36662
 Alpha virt. eigenvalues --    0.05196   0.09167   0.11348   0.11906   0.14616
 Alpha virt. eigenvalues --    0.17057   0.17929   0.28464   0.32353   0.33009
 Alpha virt. eigenvalues --    0.34752   0.37192   0.39612   0.40483   0.42673
 Alpha virt. eigenvalues --    0.50711   0.51570   0.56916   0.60231   0.68374
 Alpha virt. eigenvalues --    0.69821   0.71299   0.72722   0.77915   0.79216
 Alpha virt. eigenvalues --    0.82356   0.86324   0.88025   0.93171   0.95075
 Alpha virt. eigenvalues --    1.02123   1.03915   1.05019   1.08565   1.10599
 Alpha virt. eigenvalues --    1.11814   1.19688   1.24377   1.35201   1.37807
 Alpha virt. eigenvalues --    1.39226   1.40065   1.42950   1.45918   1.49622
 Alpha virt. eigenvalues --    1.76055   1.79287   1.83613   1.89613   1.91117
 Alpha virt. eigenvalues --    1.92733   1.94309   1.97318   1.98896   2.03771
 Alpha virt. eigenvalues --    2.04418   2.13218   2.17284   2.18869   2.20249
 Alpha virt. eigenvalues --    2.23498   2.30053   2.31655   2.35147   2.37321
 Alpha virt. eigenvalues --    2.44358   2.45623   2.57138   2.60264   2.64240
 Alpha virt. eigenvalues --    2.64954   2.71422   2.71925   2.78179   2.82279
 Alpha virt. eigenvalues --    2.83309   2.86464   2.90289   2.93827   2.98907
 Alpha virt. eigenvalues --    3.02140   3.03376   3.08358   3.11507   3.16086
 Alpha virt. eigenvalues --    3.20773   3.23224   3.30301   3.36004   3.38117
 Alpha virt. eigenvalues --    3.45444   3.56167   3.68332   3.76668   3.87322
 Alpha virt. eigenvalues --    3.88815   3.96518   4.01258   4.05695   4.16325
 Alpha virt. eigenvalues --    4.16629   4.17946   4.29820   4.42419   4.47861
 Alpha virt. eigenvalues --    4.55155   4.68209   4.83468   5.12172   5.29751
 Alpha virt. eigenvalues --    5.34112   5.36587   5.46827   5.59507   5.63376
 Alpha virt. eigenvalues --    5.72685   5.79670   5.86213   5.88754   5.89375
 Alpha virt. eigenvalues --    5.91495   5.95360   5.97691   6.03108   6.06493
 Alpha virt. eigenvalues --    6.08084   6.11908   6.16586   6.18167   6.22829
 Alpha virt. eigenvalues --    6.28426   6.32570   6.37529   6.44667   6.49760
 Alpha virt. eigenvalues --    6.50654   6.56260   6.59612   6.73659   6.84237
 Alpha virt. eigenvalues --    6.90866   6.93712   7.08219   7.11431   7.15743
 Alpha virt. eigenvalues --    7.21900   7.30904   7.34082   7.36313   7.40395
 Alpha virt. eigenvalues --    7.44861   7.47867   7.49368   7.57367   7.63811
 Alpha virt. eigenvalues --    7.69502   7.70576   7.73923   7.77067   7.85332
 Alpha virt. eigenvalues --    7.85990   7.92166   8.00475   8.07474   8.14683
 Alpha virt. eigenvalues --    8.23571   8.25844   8.26645   8.34646   8.35865
 Alpha virt. eigenvalues --    8.41276   8.44296   8.48343   8.49002   8.55024
 Alpha virt. eigenvalues --    8.69942   8.77394   8.77749   8.78011   8.80876
 Alpha virt. eigenvalues --    8.89562   8.94060   9.14477   9.27239   9.34457
 Alpha virt. eigenvalues --    9.39414   9.43301   9.50677   9.58022   9.64994
 Alpha virt. eigenvalues --    9.72812   9.86912   9.96111  10.04062  10.13833
 Alpha virt. eigenvalues --   10.28419  10.41477  10.44628  10.66355  11.07097
 Alpha virt. eigenvalues --   11.09798  11.37074  11.50237  11.59586  11.82166
 Alpha virt. eigenvalues --   11.86497  12.00621  12.07621  12.30805  12.41968
 Alpha virt. eigenvalues --   12.65684  12.69855  13.39893  13.45207  13.55567
 Alpha virt. eigenvalues --   14.00967  14.21293  14.94254  16.33530  16.59744
 Alpha virt. eigenvalues --   18.19777  28.87031  49.18305 148.41880 255.06581
          Condensed to atoms (all electrons):
               1          2          3          4          5          6
     1  C    4.491711   0.269093   0.415213   0.416741   0.392104  -0.030066
     2  O    0.269093   7.577136  -0.050375  -0.045844  -0.036122   0.499482
     3  H    0.415213  -0.050375   0.668967  -0.046749  -0.030138  -0.002350
     4  H    0.416741  -0.045844  -0.046749   0.647577  -0.035942  -0.000778
     5  H    0.392104  -0.036122  -0.030138  -0.035942   0.640656   0.004036
     6  H   -0.030066   0.499482  -0.002350  -0.000778   0.004036   0.537341
 Mulliken charges:
               1
     1  C    0.045205
     2  O   -0.213370
     3  H    0.045432
     4  H    0.064994
     5  H    0.065405
     6  H   -0.007667
 Sum of Mulliken charges =   0.00000
 Mulliken charges with hydrogens summed into heavy atoms:
               1
     1  C    0.221037
     2  O   -0.221037
 Electronic spatial extent (au):  <R**2>=             85.6210
 Charge=              0.0000 electrons
 Dipole moment (field-independent basis, Debye):
    X=              0.9687    Y=             -1.2602    Z=              0.0696  Tot=              1.5910
 Quadrupole moment (field-independent basis, Debye-Ang):
   XX=            -13.2098   YY=            -12.6135   ZZ=            -13.5641
   XY=              1.7696   XZ=              0.0303   YZ=             -0.0758
 Traceless Quadrupole moment (field-independent basis, Debye-Ang):
   XX=             -0.0807   YY=              0.5156   ZZ=             -0.4349
   XY=              1.7696   XZ=              0.0303   YZ=             -0.0758
 Octapole moment (field-independent basis, Debye-Ang**2):
  XXX=             -5.3382  YYY=             -0.2426  ZZZ=              0.4978  XYY=             -1.5763
  XXY=             -2.0048  XXZ=              0.1147  XZZ=             -0.6448  YZZ=             -0.8753
  YYZ=             -0.2744  XYZ=             -0.0721
 Hexadecapole moment (field-independent basis, Debye-Ang**3):
 XXXX=            -63.9034 YYYY=            -21.8071 ZZZZ=            -21.2409 XXXY=              2.9851
 XXXZ=              0.3395 YYYX=              2.5992 YYYZ=             -0.2790 ZZZX=              0.5586
 ZZZY=             -0.0523 XXYY=            -13.6507 XXZZ=            -14.5010 YYZZ=             -7.2754
 XXYZ=             -0.1374 YYXZ=             -0.3598 ZZXY=             -0.3035
 N-N= 4.154103212328D+01 E-N=-3.545188468120D+02  KE= 1.158560055787D+02
 Leave Link  601 at Wed Aug 26 14:22:54 2020, MaxMem=  2097152000 cpu:         0.3
 (Enter /opt/cluster/programs/g09/g09_d.01/g09/l9999.exe)
 1\1\GINC-NODE28\SP\RB2PLYPD3-FC\def2QZVP\C1H4O1\BOITTIER\26-Aug-2020\0
 \\#p B2PLYPD3/Def2QZVP\\methanol\\0,1\C,0,-5.174838,-1.250372,0.905308
 \O,0,-3.761287,-1.117478,0.842364\H,0,-5.541159,-2.313683,0.522594\H,0
 ,-5.730241,-0.446534,0.35774\H,0,-5.486261,-1.198105,2.099397\H,0,-3.5
 36254,-1.241629,0.232591\\Version=ES64L-G09RevD.01\State=1-A\HF=-115.3
 549988\MP2=-115.4990363\RMSD=1.938e-09\PG=C01 [X(C1H4O1)]\\@


 EVERYTHING'S GOT A MORAL, IF ONLY YOU CAN FIND IT.

                                    -- LEWIS CARROL, ALICE IN WONDERLAND
 Job cpu time:       0 days  0 hours  3 minutes  2.3 seconds.
 File lengths (MBytes):  RWF=     23 Int=      0 D2E=      0 Chk=      4 Scr=      1
 Normal termination of Gaussian 09 at Wed Aug 26 14:22:55 2020.
