 Entering Gaussian System, Link 0=/opt/cluster/programs/g09/g09_d.01/g09//g09
 Input=/home/boittier/MDCM/nms_sampling/methanol_geom.xyz.dir/energies/methanol_1231_energy.com
 Output=/scratch/boittier/methanol_1231_energy/methanol_1231_energy.out
 Initial command:
 /opt/cluster/programs/g09/g09_d.01/g09/l1.exe "/scratch/boittier/methanol_1231_energy/Gau-183330.inp" -scrdir="/scratch/boittier/methanol_1231_energy/"
 Entering Link 1 = /opt/cluster/programs/g09/g09_d.01/g09/l1.exe PID=    183331.
  
 Copyright (c) 1988,1990,1992,1993,1995,1998,2003,2009,2013,
            Gaussian, Inc.  All Rights Reserved.
  
 This is part of the Gaussian(R) 09 program.  It is based on
 the Gaussian(R) 03 system (copyright 2003, Gaussian, Inc.),
 the Gaussian(R) 98 system (copyright 1998, Gaussian, Inc.),
 the Gaussian(R) 94 system (copyright 1995, Gaussian, Inc.),
 the Gaussian 92(TM) system (copyright 1992, Gaussian, Inc.),
 the Gaussian 90(TM) system (copyright 1990, Gaussian, Inc.),
 the Gaussian 88(TM) system (copyright 1988, Gaussian, Inc.),
 the Gaussian 86(TM) system (copyright 1986, Carnegie Mellon
 University), and the Gaussian 82(TM) system (copyright 1983,
 Carnegie Mellon University). Gaussian is a federally registered
 trademark of Gaussian, Inc.
  
 This software contains proprietary and confidential information,
 including trade secrets, belonging to Gaussian, Inc.
  
 This software is provided under written license and may be
 used, copied, transmitted, or stored only in accord with that
 written license.
  
 The following legend is applicable only to US Government
 contracts under FAR:
  
                    RESTRICTED RIGHTS LEGEND
  
 Use, reproduction and disclosure by the US Government is
 subject to restrictions as set forth in subparagraphs (a)
 and (c) of the Commercial Computer Software - Restricted
 Rights clause in FAR 52.227-19.
  
 Gaussian, Inc.
 340 Quinnipiac St., Bldg. 40, Wallingford CT 06492
  
  
 ---------------------------------------------------------------
 Warning -- This program may not be used in any manner that
 competes with the business of Gaussian, Inc. or will provide
 assistance to any competitor of Gaussian, Inc.  The licensee
 of this program is prohibited from giving any competitor of
 Gaussian, Inc. access to this program.  By using this program,
 the user acknowledges that Gaussian, Inc. is engaged in the
 business of creating and licensing software in the field of
 computational chemistry and represents and warrants to the
 licensee that it is not a competitor of Gaussian, Inc. and that
 it will not use this program in any manner prohibited above.
 ---------------------------------------------------------------
  

 Cite this work as:
 Gaussian 09, Revision D.01,
 M. J. Frisch, G. W. Trucks, H. B. Schlegel, G. E. Scuseria, 
 M. A. Robb, J. R. Cheeseman, G. Scalmani, V. Barone, B. Mennucci, 
 G. A. Petersson, H. Nakatsuji, M. Caricato, X. Li, H. P. Hratchian, 
 A. F. Izmaylov, J. Bloino, G. Zheng, J. L. Sonnenberg, M. Hada, 
 M. Ehara, K. Toyota, R. Fukuda, J. Hasegawa, M. Ishida, T. Nakajima, 
 Y. Honda, O. Kitao, H. Nakai, T. Vreven, J. A. Montgomery, Jr., 
 J. E. Peralta, F. Ogliaro, M. Bearpark, J. J. Heyd, E. Brothers, 
 K. N. Kudin, V. N. Staroverov, T. Keith, R. Kobayashi, J. Normand, 
 K. Raghavachari, A. Rendell, J. C. Burant, S. S. Iyengar, J. Tomasi, 
 M. Cossi, N. Rega, J. M. Millam, M. Klene, J. E. Knox, J. B. Cross, 
 V. Bakken, C. Adamo, J. Jaramillo, R. Gomperts, R. E. Stratmann, 
 O. Yazyev, A. J. Austin, R. Cammi, C. Pomelli, J. W. Ochterski, 
 R. L. Martin, K. Morokuma, V. G. Zakrzewski, G. A. Voth, 
 P. Salvador, J. J. Dannenberg, S. Dapprich, A. D. Daniels, 
 O. Farkas, J. B. Foresman, J. V. Ortiz, J. Cioslowski, 
 and D. J. Fox, Gaussian, Inc., Wallingford CT, 2013.
 
 ******************************************
 Gaussian 09:  ES64L-G09RevD.01 24-Apr-2013
                26-Aug-2020 
 ******************************************
 %chk=/home/boittier/MDCM/nms_sampling/methanol_geom.xyz.dir/methanol_1231.chk
 %nproc=8
 Will use up to    8 processors via shared memory.
 %mem=16000MB
 --------------------
 #p B2PLYPD3/Def2QZVP
 --------------------
 1/38=1/1;
 2/12=2,17=6,18=5,40=1/2;
 3/5=45,7=101,11=9,16=1,25=1,30=1,74=-60/1,2,3;
 4//1;
 5/5=2,38=5/2;
 8/10=1/1;
 9/16=-3/6;
 6/7=2,8=2,9=2,10=2/1;
 99/5=1,9=1/99;
 Leave Link    1 at Wed Aug 26 10:53:13 2020, MaxMem=  2097152000 cpu:         0.2
 (Enter /opt/cluster/programs/g09/g09_d.01/g09/l101.exe)
 --------
 methanol
 --------
 Symbolic Z-matrix:
 Charge =  0 Multiplicity = 1
 C                    -5.18445  -1.26481   0.90324 
 O                    -3.76601  -1.12176   0.87796 
 H                    -5.51109  -2.09955   0.60673 
 H                    -5.69997  -0.51814   0.3523 
 H                    -5.41204  -1.17815   1.95376 
 H                    -3.47433  -1.17251  -0.26014 
 
 NAtoms=      6 NQM=        6 NQMF=       0 NMMI=      0 NMMIF=      0
                NMic=       0 NMicF=      0.
                    Isotopes and Nuclear Properties:
 (Nuclear quadrupole moments (NQMom) in fm**2, nuclear magnetic moments (NMagM)
  in nuclear magnetons)

  Atom         1           2           3           4           5           6
 IAtWgt=          12          16           1           1           1           1
 AtmWgt=  12.0000000  15.9949146   1.0078250   1.0078250   1.0078250   1.0078250
 NucSpn=           0           0           1           1           1           1
 AtZEff=   0.0000000   0.0000000   0.0000000   0.0000000   0.0000000   0.0000000
 NQMom=    0.0000000   0.0000000   0.0000000   0.0000000   0.0000000   0.0000000
 NMagM=    0.0000000   0.0000000   2.7928460   2.7928460   2.7928460   2.7928460
 AtZNuc=   6.0000000   8.0000000   1.0000000   1.0000000   1.0000000   1.0000000
 Leave Link  101 at Wed Aug 26 10:53:13 2020, MaxMem=  2097152000 cpu:         0.5
 (Enter /opt/cluster/programs/g09/g09_d.01/g09/l202.exe)
                          Input orientation:                          
 ---------------------------------------------------------------------
 Center     Atomic      Atomic             Coordinates (Angstroms)
 Number     Number       Type             X           Y           Z
 ---------------------------------------------------------------------
      1          6           0       -5.184449   -1.264805    0.903240
      2          8           0       -3.766008   -1.121760    0.877964
      3          1           0       -5.511089   -2.099549    0.606733
      4          1           0       -5.699973   -0.518137    0.352297
      5          1           0       -5.412043   -1.178151    1.953756
      6          1           0       -3.474335   -1.172507   -0.260144
 ---------------------------------------------------------------------
                    Distance matrix (angstroms):
                    1          2          3          4          5
     1  C    0.000000
     2  O    1.425860   0.000000
     3  H    0.944144   2.018649   0.000000
     4  H    1.061516   2.093062   1.612848   0.000000
     5  H    1.078375   1.967216   1.635009   1.755902   0.000000
     6  H    2.070379   1.175984   2.399844   2.399323   2.942125
                    6
     6  H    0.000000
 Stoichiometry    CH4O
 Framework group  C1[X(CH4O)]
 Deg. of freedom    12
 Full point group                 C1      NOp   1
 Largest Abelian subgroup         C1      NOp   1
 Largest concise Abelian subgroup C1      NOp   1
                         Standard orientation:                         
 ---------------------------------------------------------------------
 Center     Atomic      Atomic             Coordinates (Angstroms)
 Number     Number       Type             X           Y           Z
 ---------------------------------------------------------------------
      1          6           0        0.671452    0.036875    0.014856
      2          8           0       -0.741434   -0.152650   -0.015293
      3          1           0        1.015586    0.377582    0.825349
      4          1           0        1.036388    0.661192   -0.762232
      5          1           0        1.047150   -0.966859   -0.104564
      6          1           0       -1.196360    0.928039    0.074655
 ---------------------------------------------------------------------
 Rotational constants (GHZ):    126.7898309     25.1216468     23.4887322
 Leave Link  202 at Wed Aug 26 10:53:13 2020, MaxMem=  2097152000 cpu:         0.0
 (Enter /opt/cluster/programs/g09/g09_d.01/g09/l301.exe)
 Standard basis: def2QZVP (5D, 7F)
 Ernie: Thresh=  0.10000D-02 Tol=  0.10000D-05 Strict=F.
 There are   284 symmetry adapted cartesian basis functions of A   symmetry.
 There are   234 symmetry adapted basis functions of A   symmetry.
   234 basis functions,   336 primitive gaussians,   284 cartesian basis functions
     9 alpha electrons        9 beta electrons
       nuclear repulsion energy        40.0916803864 Hartrees.
 IExCor=  419 DFT=T Ex+Corr=B2PLYPD3 ExCW=0 ScaHFX=  0.530000
 ScaDFX=  0.470000  0.470000  0.730000  0.730000 ScalE2=  0.270000  0.270000
 IRadAn=      0 IRanWt=     -1 IRanGd=            0 ICorTp=0 IEmpDi=141
 NAtoms=    6 NActive=    6 NUniq=    6 SFac= 1.00D+00 NAtFMM=   60 NAOKFM=F Big=F
 Integral buffers will be    131072 words long.
 Regular integral format.
 Two-electron integral symmetry is turned on.
 R6Disp:  Grimme-D3(BJ) Dispersion energy=       -0.0013202810 Hartrees.
 Nuclear repulsion after empirical dispersion term =       40.0903601054 Hartrees.
 Leave Link  301 at Wed Aug 26 10:53:13 2020, MaxMem=  2097152000 cpu:         0.5
 (Enter /opt/cluster/programs/g09/g09_d.01/g09/l302.exe)
 NPDir=0 NMtPBC=     1 NCelOv=     1 NCel=       1 NClECP=     1 NCelD=      1
         NCelK=      1 NCelE2=     1 NClLst=     1 CellRange=     0.0.
 One-electron integrals computed using PRISM.
   1 Symmetry operations used in ECPInt.
 ECPInt:  NShTT=    2775 NPrTT=    6207 LenC2=    2774 LenP2D=    5730.
 LDataN:  DoStor=T MaxTD1= 8 Len=  415
 NBasis=   234 RedAO= T EigKep=  7.72D-05  NBF=   234
 NBsUse=   234 1.00D-06 EigRej= -1.00D+00 NBFU=   234
 Precomputing XC quadrature grid using
 IXCGrd= 4 IRadAn=           0 IRanWt=          -1 IRanGd=           0 AccXCQ= 0.00D+00.
 Generated NRdTot=       0 NPtTot=           0 NUsed=           0 NTot=          32
 NSgBfM=   284   284   284   284   284 MxSgAt=     6 MxSgA2=     6.
 Leave Link  302 at Wed Aug 26 10:53:13 2020, MaxMem=  2097152000 cpu:         1.9
 (Enter /opt/cluster/programs/g09/g09_d.01/g09/l303.exe)
 DipDrv:  MaxL=1.
 Leave Link  303 at Wed Aug 26 10:53:14 2020, MaxMem=  2097152000 cpu:         0.2
 (Enter /opt/cluster/programs/g09/g09_d.01/g09/l401.exe)
 ExpMin= 7.60D-02 ExpMax= 1.17D+05 ExpMxC= 1.13D+03 IAcc=2 IRadAn=         4 AccDes= 0.00D+00
 Harris functional with IExCor=  419 and IRadAn=       4 diagonalized for initial guess.
 HarFok:  IExCor=  419 AccDes= 0.00D+00 IRadAn=         4 IDoV= 1 UseB2=F ITyADJ=14
 ICtDFT=  3500011 ScaDFX=  1.000000  1.000000  1.000000  1.000000
 FoFCou: FMM=F IPFlag=           0 FMFlag=      100000 FMFlg1=           0
         NFxFlg=           0 DoJE=T BraDBF=F KetDBF=T FulRan=T
         wScrn=  0.000000 ICntrl=     500 IOpCl=  0 I1Cent=   200000004 NGrid=           0
         NMat0=    1 NMatS0=      1 NMatT0=    0 NMatD0=    1 NMtDS0=    0 NMtDT0=    0
 Petite list used in FoFCou.
 Harris En= -115.793962496762    
 JPrj=0 DoOrth=F DoCkMO=F.
 Leave Link  401 at Wed Aug 26 10:53:14 2020, MaxMem=  2097152000 cpu:         3.3
 (Enter /opt/cluster/programs/g09/g09_d.01/g09/l502.exe)
 Closed shell SCF:
 Using DIIS extrapolation, IDIIS=  1040.
 Integral symmetry usage will be decided dynamically.
 Keep R1 ints in memory in canonical form, NReq=389840494.
 IVT=      264814 IEndB=      264814 NGot=  2097152000 MDV=  1718885927
 LenX=  1718885927 LenY=  1718804830
 Requested convergence on RMS density matrix=1.00D-08 within 128 cycles.
 Requested convergence on MAX density matrix=1.00D-06.
 Requested convergence on             energy=1.00D-06.
 No special actions if energy rises.
 FoFCou: FMM=F IPFlag=           0 FMFlag=           0 FMFlg1=           0
         NFxFlg=           0 DoJE=F BraDBF=F KetDBF=F FulRan=T
         wScrn=  0.000000 ICntrl=     600 IOpCl=  0 I1Cent=           0 NGrid=           0
         NMat0=    1 NMatS0=  27495 NMatT0=    0 NMatD0=    1 NMtDS0=    0 NMtDT0=    0
 Symmetry not used in FoFCou.
 Integral accuracy reduced to 1.0D-05 until final iterations.

 Cycle   1  Pass 0  IDiag  1:
 E= -115.386473782995    
 DIIS: error= 3.37D-02 at cycle   1 NSaved=   1.
 NSaved= 1 IEnMin= 1 EnMin= -115.386473782995     IErMin= 1 ErrMin= 3.37D-02
 ErrMax= 3.37D-02  0.00D+00 EMaxC= 1.00D-01 BMatC= 1.85D-01 BMatP= 1.85D-01
 IDIUse=3 WtCom= 6.63D-01 WtEn= 3.37D-01
 Coeff-Com:  0.100D+01
 Coeff-En:   0.100D+01
 Coeff:      0.100D+01
 Gap=     0.291 Goal=   None    Shift=    0.000
 GapD=    0.291 DampG=1.000 DampE=0.500 DampFc=0.5000 IDamp=-1.
 Damping current iteration by 5.00D-01
 RMSDP=1.42D-03 MaxDP=4.58D-02              OVMax= 1.56D-01

 Cycle   2  Pass 0  IDiag  1:
 E= -115.442603691097     Delta-E=       -0.056129908103 Rises=F Damp=T
 DIIS: error= 1.13D-02 at cycle   2 NSaved=   2.
 NSaved= 2 IEnMin= 2 EnMin= -115.442603691097     IErMin= 2 ErrMin= 1.13D-02
 ErrMax= 1.13D-02  0.00D+00 EMaxC= 1.00D-01 BMatC= 2.07D-02 BMatP= 1.85D-01
 IDIUse=3 WtCom= 8.87D-01 WtEn= 1.13D-01
 Coeff-Com: -0.118D+00 0.112D+01
 Coeff-En:   0.000D+00 0.100D+01
 Coeff:     -0.105D+00 0.110D+01
 Gap=     0.400 Goal=   None    Shift=    0.000
 RMSDP=3.92D-04 MaxDP=1.13D-02 DE=-5.61D-02 OVMax= 9.42D-02

 Cycle   3  Pass 0  IDiag  1:
 E= -115.496628135046     Delta-E=       -0.054024443949 Rises=F Damp=F
 DIIS: error= 5.00D-03 at cycle   3 NSaved=   3.
 NSaved= 3 IEnMin= 3 EnMin= -115.496628135046     IErMin= 3 ErrMin= 5.00D-03
 ErrMax= 5.00D-03  0.00D+00 EMaxC= 1.00D-01 BMatC= 7.66D-03 BMatP= 2.07D-02
 IDIUse=3 WtCom= 9.50D-01 WtEn= 5.00D-02
 Coeff-Com: -0.143D+00 0.432D+00 0.712D+00
 Coeff-En:   0.000D+00 0.000D+00 0.100D+01
 Coeff:     -0.136D+00 0.410D+00 0.726D+00
 Gap=     0.382 Goal=   None    Shift=    0.000
 RMSDP=1.70D-04 MaxDP=7.00D-03 DE=-5.40D-02 OVMax= 2.35D-02

 Cycle   4  Pass 0  IDiag  1:
 E= -115.501120202043     Delta-E=       -0.004492066997 Rises=F Damp=F
 DIIS: error= 2.08D-03 at cycle   4 NSaved=   4.
 NSaved= 4 IEnMin= 4 EnMin= -115.501120202043     IErMin= 4 ErrMin= 2.08D-03
 ErrMax= 2.08D-03  0.00D+00 EMaxC= 1.00D-01 BMatC= 1.02D-03 BMatP= 7.66D-03
 IDIUse=3 WtCom= 9.79D-01 WtEn= 2.08D-02
 Coeff-Com: -0.493D-01 0.887D-01 0.330D+00 0.631D+00
 Coeff-En:   0.000D+00 0.000D+00 0.381D-01 0.962D+00
 Coeff:     -0.483D-01 0.869D-01 0.324D+00 0.638D+00
 Gap=     0.382 Goal=   None    Shift=    0.000
 RMSDP=5.19D-05 MaxDP=2.00D-03 DE=-4.49D-03 OVMax= 8.24D-03

 Cycle   5  Pass 0  IDiag  1:
 E= -115.501871072894     Delta-E=       -0.000750870852 Rises=F Damp=F
 DIIS: error= 2.09D-04 at cycle   5 NSaved=   5.
 NSaved= 5 IEnMin= 5 EnMin= -115.501871072894     IErMin= 5 ErrMin= 2.09D-04
 ErrMax= 2.09D-04  0.00D+00 EMaxC= 1.00D-01 BMatC= 7.86D-06 BMatP= 1.02D-03
 IDIUse=3 WtCom= 9.98D-01 WtEn= 2.09D-03
 Coeff-Com: -0.595D-02 0.557D-02 0.480D-01 0.142D+00 0.811D+00
 Coeff-En:   0.000D+00 0.000D+00 0.000D+00 0.000D+00 0.100D+01
 Coeff:     -0.594D-02 0.555D-02 0.479D-01 0.141D+00 0.811D+00
 Gap=     0.382 Goal=   None    Shift=    0.000
 RMSDP=7.93D-06 MaxDP=2.20D-04 DE=-7.51D-04 OVMax= 6.58D-04

 Initial convergence to 1.0D-05 achieved.  Increase integral accuracy.
 Cycle   6  Pass 1  IDiag  1:
 E= -115.501876809759     Delta-E=       -0.000005736864 Rises=F Damp=F
 DIIS: error= 2.16D-05 at cycle   1 NSaved=   1.
 NSaved= 1 IEnMin= 1 EnMin= -115.501876809759     IErMin= 1 ErrMin= 2.16D-05
 ErrMax= 2.16D-05  0.00D+00 EMaxC= 1.00D-01 BMatC= 1.58D-07 BMatP= 1.58D-07
 IDIUse=1 WtCom= 1.00D+00 WtEn= 0.00D+00
 Coeff-Com:  0.100D+01
 Coeff:      0.100D+01
 Gap=     0.382 Goal=   None    Shift=    0.000
 RMSDP=7.93D-06 MaxDP=2.20D-04 DE=-5.74D-06 OVMax= 2.07D-04

 Cycle   7  Pass 1  IDiag  1:
 E= -115.501877098927     Delta-E=       -0.000000289169 Rises=F Damp=F
 DIIS: error= 1.02D-05 at cycle   2 NSaved=   2.
 NSaved= 2 IEnMin= 2 EnMin= -115.501877098927     IErMin= 2 ErrMin= 1.02D-05
 ErrMax= 1.02D-05  0.00D+00 EMaxC= 1.00D-01 BMatC= 2.17D-08 BMatP= 1.58D-07
 IDIUse=1 WtCom= 1.00D+00 WtEn= 0.00D+00
 Coeff-Com:  0.355D-01 0.964D+00
 Coeff:      0.355D-01 0.964D+00
 Gap=     0.382 Goal=   None    Shift=    0.000
 RMSDP=6.78D-07 MaxDP=3.12D-05 DE=-2.89D-07 OVMax= 1.21D-04

 Cycle   8  Pass 1  IDiag  1:
 E= -115.501877121803     Delta-E=       -0.000000022876 Rises=F Damp=F
 DIIS: error= 8.27D-06 at cycle   3 NSaved=   3.
 NSaved= 3 IEnMin= 3 EnMin= -115.501877121803     IErMin= 3 ErrMin= 8.27D-06
 ErrMax= 8.27D-06  0.00D+00 EMaxC= 1.00D-01 BMatC= 1.91D-08 BMatP= 2.17D-08
 IDIUse=1 WtCom= 1.00D+00 WtEn= 0.00D+00
 Coeff-Com: -0.137D+00 0.527D+00 0.610D+00
 Coeff:     -0.137D+00 0.527D+00 0.610D+00
 Gap=     0.382 Goal=   None    Shift=    0.000
 RMSDP=3.45D-07 MaxDP=1.59D-05 DE=-2.29D-08 OVMax= 4.47D-05

 Cycle   9  Pass 1  IDiag  1:
 E= -115.501877136372     Delta-E=       -0.000000014569 Rises=F Damp=F
 DIIS: error= 1.25D-06 at cycle   4 NSaved=   4.
 NSaved= 4 IEnMin= 4 EnMin= -115.501877136372     IErMin= 4 ErrMin= 1.25D-06
 ErrMax= 1.25D-06  0.00D+00 EMaxC= 1.00D-01 BMatC= 4.34D-10 BMatP= 1.91D-08
 IDIUse=1 WtCom= 1.00D+00 WtEn= 0.00D+00
 Coeff-Com: -0.406D-01 0.423D-01 0.150D+00 0.848D+00
 Coeff:     -0.406D-01 0.423D-01 0.150D+00 0.848D+00
 Gap=     0.382 Goal=   None    Shift=    0.000
 RMSDP=7.52D-08 MaxDP=2.83D-06 DE=-1.46D-08 OVMax= 1.35D-05

 Cycle  10  Pass 1  IDiag  1:
 E= -115.501877136877     Delta-E=       -0.000000000505 Rises=F Damp=F
 DIIS: error= 5.19D-07 at cycle   5 NSaved=   5.
 NSaved= 5 IEnMin= 5 EnMin= -115.501877136877     IErMin= 5 ErrMin= 5.19D-07
 ErrMax= 5.19D-07  0.00D+00 EMaxC= 1.00D-01 BMatC= 3.37D-11 BMatP= 4.34D-10
 IDIUse=1 WtCom= 1.00D+00 WtEn= 0.00D+00
 Coeff-Com: -0.311D-02-0.154D-01 0.325D-02 0.240D+00 0.775D+00
 Coeff:     -0.311D-02-0.154D-01 0.325D-02 0.240D+00 0.775D+00
 Gap=     0.382 Goal=   None    Shift=    0.000
 RMSDP=1.78D-08 MaxDP=5.72D-07 DE=-5.05D-10 OVMax= 2.49D-06

 Cycle  11  Pass 1  IDiag  1:
 E= -115.501877136910     Delta-E=       -0.000000000033 Rises=F Damp=F
 DIIS: error= 1.22D-07 at cycle   6 NSaved=   6.
 NSaved= 6 IEnMin= 6 EnMin= -115.501877136910     IErMin= 6 ErrMin= 1.22D-07
 ErrMax= 1.22D-07  0.00D+00 EMaxC= 1.00D-01 BMatC= 2.68D-12 BMatP= 3.37D-11
 IDIUse=1 WtCom= 1.00D+00 WtEn= 0.00D+00
 Coeff-Com:  0.320D-02-0.100D-01-0.165D-01-0.338D-02 0.211D+00 0.815D+00
 Coeff:      0.320D-02-0.100D-01-0.165D-01-0.338D-02 0.211D+00 0.815D+00
 Gap=     0.382 Goal=   None    Shift=    0.000
 RMSDP=5.79D-09 MaxDP=1.81D-07 DE=-3.28D-11 OVMax= 7.49D-07

 SCF Done:  E(RB2PLYPD3) =  -115.501877137     A.U. after   11 cycles
            NFock= 11  Conv=0.58D-08     -V/T= 2.0023
 KE= 1.152311995254D+02 PE=-3.518024951396D+02 EE= 8.097905837198D+01
 Leave Link  502 at Wed Aug 26 10:53:28 2020, MaxMem=  2097152000 cpu:        63.5
 (Enter /opt/cluster/programs/g09/g09_d.01/g09/l801.exe)
 DoSCS=T DFT=T ScalE2(SS,OS)=  0.270000  0.270000
 ExpMin= 7.60D-02 ExpMax= 1.17D+05 ExpMxC= 1.13D+03 IAcc=3 IRadAn=         5 AccDes= 0.00D+00
 HarFok:  IExCor=  205 AccDes= 0.00D+00 IRadAn=         5 IDoV=-2 UseB2=F ITyADJ=14
 ICtDFT= 12500011 ScaDFX=  1.000000  1.000000  1.000000  1.000000
 Largest valence mixing into a core orbital is  1.06D-04
 Largest core mixing into a valence orbital is  1.39D-05
 Range of M.O.s used for correlation:     3   234
 NBasis=   234 NAE=     9 NBE=     9 NFC=     2 NFV=     0
 NROrb=    232 NOA=     7 NOB=     7 NVA=   225 NVB=   225

 **** Warning!!: The largest alpha MO coefficient is  0.28766113D+02

 Leave Link  801 at Wed Aug 26 10:53:28 2020, MaxMem=  2097152000 cpu:         0.6
 (Enter /opt/cluster/programs/g09/g09_d.01/g09/l906.exe)
 DoSCS=T DFT=T ScalE2(SS,OS)=  0.270000  0.270000
 FulOut=F Deriv=F AODrv=F NAtomX=     6
   MMem=        3646  MDisk=           7 MDiskD=           7
  W3Min=      447300 MinDsk=     1090093 NBas6D=         284
 NBas2D=       41310    NTT=       40470    LW2=     4508827
    MDV=  2096872450 MDiskM=       16391 NBas2p=       41304
 Fully in-core method, ICMem=  1722292712.
 IMap=   1   2   3   4   5   6   7
 JobTyp=1 Pass  1 fully in-core, NPsUse=  8.
 Compute canonical integrals.
 FoFCou: FMM=F IPFlag=           0 FMFlag=           0 FMFlg1=           0
         NFxFlg=           0 DoJE=F BraDBF=F KetDBF=F FulRan=T
         wScrn=  0.000000 ICntrl=     600 IOpCl=  1 I1Cent=           0 NGrid=           0
         NMat0=    1 NMatS0=  41310 NMatT0=    0 NMatD0=    1 NMtDS0=    0 NMtDT0=    0
 Symmetry not used in FoFCou.
 Spin components of T(2) and E(2):
     alpha-alpha T2 =       0.2245626566D-01 E2=     -0.1718921100D-01
     alpha-beta  T2 =       0.1419268993D+00 E2=     -0.1166906979D+00
     beta-beta   T2 =       0.2245626566D-01 E2=     -0.1718921100D-01
 The integrals were generated   1 times.
 E2(B2PLYPD3) =    -0.1510691198D+00 E(B2PLYPD3) =    -0.11565294625676D+03
 Leave Link  906 at Wed Aug 26 10:53:43 2020, MaxMem=  2097152000 cpu:       120.2
 (Enter /opt/cluster/programs/g09/g09_d.01/g09/l601.exe)
 Copying SCF densities to generalized density rwf, IOpCl= 0 IROHF=0.

 **********************************************************************

            Population analysis using the SCF density.

 **********************************************************************

 Orbital symmetries:
       Occupied  (A) (A) (A) (A) (A) (A) (A) (A) (A)
       Virtual   (A) (A) (A) (A) (A) (A) (A) (A) (A) (A) (A) (A)
                 (A) (A) (A) (A) (A) (A) (A) (A) (A) (A) (A) (A)
                 (A) (A) (A) (A) (A) (A) (A) (A) (A) (A) (A) (A)
                 (A) (A) (A) (A) (A) (A) (A) (A) (A) (A) (A) (A)
                 (A) (A) (A) (A) (A) (A) (A) (A) (A) (A) (A) (A)
                 (A) (A) (A) (A) (A) (A) (A) (A) (A) (A) (A) (A)
                 (A) (A) (A) (A) (A) (A) (A) (A) (A) (A) (A) (A)
                 (A) (A) (A) (A) (A) (A) (A) (A) (A) (A) (A) (A)
                 (A) (A) (A) (A) (A) (A) (A) (A) (A) (A) (A) (A)
                 (A) (A) (A) (A) (A) (A) (A) (A) (A) (A) (A) (A)
                 (A) (A) (A) (A) (A) (A) (A) (A) (A) (A) (A) (A)
                 (A) (A) (A) (A) (A) (A) (A) (A) (A) (A) (A) (A)
                 (A) (A) (A) (A) (A) (A) (A) (A) (A) (A) (A) (A)
                 (A) (A) (A) (A) (A) (A) (A) (A) (A) (A) (A) (A)
                 (A) (A) (A) (A) (A) (A) (A) (A) (A) (A) (A) (A)
                 (A) (A) (A) (A) (A) (A) (A) (A) (A) (A) (A) (A)
                 (A) (A) (A) (A) (A) (A) (A) (A) (A) (A) (A) (A)
                 (A) (A) (A) (A) (A) (A) (A) (A) (A) (A) (A) (A)
                 (A) (A) (A) (A) (A) (A) (A) (A) (A)
 The electronic state is 1-A.
 Alpha  occ. eigenvalues --  -19.74082 -10.63213  -1.12856  -0.79405  -0.56748
 Alpha  occ. eigenvalues --   -0.52826  -0.48461  -0.40642  -0.35376
 Alpha virt. eigenvalues --    0.02832   0.07733   0.12280   0.12910   0.15180
 Alpha virt. eigenvalues --    0.17093   0.18327   0.27138   0.29562   0.33678
 Alpha virt. eigenvalues --    0.34158   0.38187   0.39183   0.42611   0.45251
 Alpha virt. eigenvalues --    0.47258   0.52847   0.55775   0.58182   0.66382
 Alpha virt. eigenvalues --    0.70729   0.74209   0.76603   0.78903   0.79997
 Alpha virt. eigenvalues --    0.81845   0.84982   0.88948   0.92905   0.93538
 Alpha virt. eigenvalues --    0.98458   0.99889   1.01051   1.09704   1.10409
 Alpha virt. eigenvalues --    1.12542   1.15999   1.20400   1.32667   1.41028
 Alpha virt. eigenvalues --    1.42914   1.47294   1.49249   1.51492   1.54711
 Alpha virt. eigenvalues --    1.74471   1.80899   1.83955   1.86261   1.86294
 Alpha virt. eigenvalues --    1.88952   1.94439   1.96955   1.98924   2.03363
 Alpha virt. eigenvalues --    2.07130   2.14207   2.17677   2.18471   2.21988
 Alpha virt. eigenvalues --    2.23995   2.25641   2.31481   2.33749   2.37980
 Alpha virt. eigenvalues --    2.40686   2.51524   2.53769   2.58189   2.58889
 Alpha virt. eigenvalues --    2.61816   2.63450   2.67516   2.72856   2.76231
 Alpha virt. eigenvalues --    2.83918   2.86735   2.89179   2.92306   3.03456
 Alpha virt. eigenvalues --    3.06543   3.10145   3.13382   3.19383   3.20172
 Alpha virt. eigenvalues --    3.33903   3.37728   3.42232   3.43884   3.50827
 Alpha virt. eigenvalues --    3.59579   3.73073   3.77602   3.86402   3.89894
 Alpha virt. eigenvalues --    4.00488   4.05345   4.09005   4.16925   4.17149
 Alpha virt. eigenvalues --    4.20437   4.27374   4.30987   4.32214   4.41195
 Alpha virt. eigenvalues --    4.45070   4.52371   4.65678   4.72545   5.10421
 Alpha virt. eigenvalues --    5.16405   5.37788   5.46737   5.50209   5.60265
 Alpha virt. eigenvalues --    5.62478   5.68742   5.75055   5.77725   5.85449
 Alpha virt. eigenvalues --    5.90754   5.92537   6.03371   6.09138   6.11045
 Alpha virt. eigenvalues --    6.15209   6.24106   6.28092   6.34621   6.36161
 Alpha virt. eigenvalues --    6.39618   6.45648   6.47358   6.48650   6.54948
 Alpha virt. eigenvalues --    6.58865   6.63901   6.71899   6.78039   6.80386
 Alpha virt. eigenvalues --    6.84154   6.91437   6.98643   7.00461   7.01671
 Alpha virt. eigenvalues --    7.18192   7.21765   7.34234   7.36985   7.43161
 Alpha virt. eigenvalues --    7.55713   7.63164   7.66116   7.68367   7.70822
 Alpha virt. eigenvalues --    7.79758   7.81056   7.84121   7.85796   7.90214
 Alpha virt. eigenvalues --    7.95256   7.98010   8.06677   8.07530   8.16448
 Alpha virt. eigenvalues --    8.17974   8.32199   8.36473   8.38300   8.41266
 Alpha virt. eigenvalues --    8.49133   8.52471   8.54708   8.55534   8.59279
 Alpha virt. eigenvalues --    8.62734   8.64567   8.73890   8.79513   8.86819
 Alpha virt. eigenvalues --    8.96930   8.99561   9.11007   9.13590   9.29415
 Alpha virt. eigenvalues --    9.45417   9.55256   9.63322   9.78578   9.88729
 Alpha virt. eigenvalues --    9.98372   9.99706  10.09702  10.14864  10.18319
 Alpha virt. eigenvalues --   10.24188  10.39307  10.40125  10.61380  10.68804
 Alpha virt. eigenvalues --   10.73628  10.94103  11.09267  11.13427  11.23611
 Alpha virt. eigenvalues --   11.29172  11.63821  11.70275  11.81525  11.94746
 Alpha virt. eigenvalues --   12.02720  12.19199  12.29202  12.68121  12.71924
 Alpha virt. eigenvalues --   12.84002  12.87952  13.33751  13.59569  14.39672
 Alpha virt. eigenvalues --   14.67960  29.45062  48.52506 149.12755 254.25279
          Condensed to atoms (all electrons):
               1          2          3          4          5          6
     1  C    4.404162   0.267872   0.437686   0.449905   0.402447  -0.046407
     2  O    0.267872   8.050674  -0.033662  -0.045998  -0.044713   0.296603
     3  H    0.437686  -0.033662   0.661558  -0.070227  -0.041722  -0.007911
     4  H    0.449905  -0.045998  -0.070227   0.667233  -0.034545  -0.008964
     5  H    0.402447  -0.044713  -0.041722  -0.034545   0.644470   0.012388
     6  H   -0.046407   0.296603  -0.007911  -0.008964   0.012388   0.506399
 Mulliken charges:
               1
     1  C    0.084335
     2  O   -0.490775
     3  H    0.054278
     4  H    0.042597
     5  H    0.061675
     6  H    0.247891
 Sum of Mulliken charges =   0.00000
 Mulliken charges with hydrogens summed into heavy atoms:
               1
     1  C    0.242884
     2  O   -0.242884
 Electronic spatial extent (au):  <R**2>=             84.3936
 Charge=              0.0000 electrons
 Dipole moment (field-independent basis, Debye):
    X=              0.9424    Y=              1.6968    Z=              0.2297  Tot=              1.9544
 Quadrupole moment (field-independent basis, Debye-Ang):
   XX=            -12.9506   YY=            -11.7814   ZZ=            -13.9055
   XY=             -2.2877   XZ=             -0.0754   YZ=              0.1419
 Traceless Quadrupole moment (field-independent basis, Debye-Ang):
   XX=             -0.0714   YY=              1.0978   ZZ=             -1.0263
   XY=             -2.2877   XZ=             -0.0754   YZ=              0.1419
 Octapole moment (field-independent basis, Debye-Ang**2):
  XXX=             -3.1590  YYY=              1.1237  ZZZ=              0.4452  XYY=             -1.9794
  XXY=              2.8454  XXZ=              0.4334  XZZ=              0.0438  YZZ=              0.4705
  YYZ=              0.0314  XYZ=             -0.1978
 Hexadecapole moment (field-independent basis, Debye-Ang**3):
 XXXX=            -62.7649 YYYY=            -20.9650 ZZZZ=            -18.4791 XXXY=             -3.4177
 XXXZ=              0.2756 YYYX=             -3.0065 YYYZ=              0.3357 ZZZX=              0.4456
 ZZZY=              0.1015 XXYY=            -12.4004 XXZZ=            -14.4440 YYZZ=             -6.9067
 XXYZ=              0.2422 YYXZ=             -0.2444 ZZXY=              0.2079
 N-N= 4.009036010539D+01 E-N=-3.518025041575D+02  KE= 1.152311995254D+02
 Leave Link  601 at Wed Aug 26 10:53:43 2020, MaxMem=  2097152000 cpu:         0.3
 (Enter /opt/cluster/programs/g09/g09_d.01/g09/l9999.exe)
 1\1\GINC-NODE34\SP\RB2PLYPD3-FC\def2QZVP\C1H4O1\BOITTIER\26-Aug-2020\0
 \\#p B2PLYPD3/Def2QZVP\\methanol\\0,1\C,0,-5.184449,-1.264805,0.90324\
 O,0,-3.766008,-1.12176,0.877964\H,0,-5.511089,-2.099549,0.606733\H,0,-
 5.699973,-0.518137,0.352297\H,0,-5.412043,-1.178151,1.953756\H,0,-3.47
 4335,-1.172507,-0.260144\\Version=ES64L-G09RevD.01\State=1-A\HF=-115.5
 018771\MP2=-115.6529463\RMSD=5.791e-09\PG=C01 [X(C1H4O1)]\\@


 WE HAVE SEEN THAT MAN ON THE AVERAGE DOES NOT LIVE ABOVE
 TWO-AND-TWENTY YEARS.  DURING THESE TWO AND TWENTY
 YEARS HE IS LIABLE TO TWO AND TWENTY THOUSAND EVILS,
 MANY OF WHICH ARE INCURABLE.  YET EVEN IN THIS DREADFUL STATE
 MEN STILL STRUT AND POSE ON THE STAGE OF LIFE.
 THEY MAKE LOVE AT THE RISK OF DESTRUCTION,
 INTRIGUE, CARRY ON WAR, AND FORM PROJECTS, JUST AS IF THEY
 WERE TO LIVE IN LUXURY AND HAPPINESS FOR A THOUSAND
 AGES.

                                              -- VOLTAIRE
 Job cpu time:       0 days  0 hours  3 minutes 11.6 seconds.
 File lengths (MBytes):  RWF=     23 Int=      0 D2E=      0 Chk=      4 Scr=      1
 Normal termination of Gaussian 09 at Wed Aug 26 10:53:43 2020.
