 Entering Gaussian System, Link 0=/opt/cluster/programs/g09/g09_d.01/g09//g09
 Input=/home/boittier/MDCM/nms_sampling/methanol_geom.xyz.dir/energies/methanol_2346_energy.com
 Output=/scratch/boittier/methanol_2346_energy/methanol_2346_energy.out
 Initial command:
 /opt/cluster/programs/g09/g09_d.01/g09/l1.exe "/scratch/boittier/methanol_2346_energy/Gau-163766.inp" -scrdir="/scratch/boittier/methanol_2346_energy/"
 Entering Link 1 = /opt/cluster/programs/g09/g09_d.01/g09/l1.exe PID=    163767.
  
 Copyright (c) 1988,1990,1992,1993,1995,1998,2003,2009,2013,
            Gaussian, Inc.  All Rights Reserved.
  
 This is part of the Gaussian(R) 09 program.  It is based on
 the Gaussian(R) 03 system (copyright 2003, Gaussian, Inc.),
 the Gaussian(R) 98 system (copyright 1998, Gaussian, Inc.),
 the Gaussian(R) 94 system (copyright 1995, Gaussian, Inc.),
 the Gaussian 92(TM) system (copyright 1992, Gaussian, Inc.),
 the Gaussian 90(TM) system (copyright 1990, Gaussian, Inc.),
 the Gaussian 88(TM) system (copyright 1988, Gaussian, Inc.),
 the Gaussian 86(TM) system (copyright 1986, Carnegie Mellon
 University), and the Gaussian 82(TM) system (copyright 1983,
 Carnegie Mellon University). Gaussian is a federally registered
 trademark of Gaussian, Inc.
  
 This software contains proprietary and confidential information,
 including trade secrets, belonging to Gaussian, Inc.
  
 This software is provided under written license and may be
 used, copied, transmitted, or stored only in accord with that
 written license.
  
 The following legend is applicable only to US Government
 contracts under FAR:
  
                    RESTRICTED RIGHTS LEGEND
  
 Use, reproduction and disclosure by the US Government is
 subject to restrictions as set forth in subparagraphs (a)
 and (c) of the Commercial Computer Software - Restricted
 Rights clause in FAR 52.227-19.
  
 Gaussian, Inc.
 340 Quinnipiac St., Bldg. 40, Wallingford CT 06492
  
  
 ---------------------------------------------------------------
 Warning -- This program may not be used in any manner that
 competes with the business of Gaussian, Inc. or will provide
 assistance to any competitor of Gaussian, Inc.  The licensee
 of this program is prohibited from giving any competitor of
 Gaussian, Inc. access to this program.  By using this program,
 the user acknowledges that Gaussian, Inc. is engaged in the
 business of creating and licensing software in the field of
 computational chemistry and represents and warrants to the
 licensee that it is not a competitor of Gaussian, Inc. and that
 it will not use this program in any manner prohibited above.
 ---------------------------------------------------------------
  

 Cite this work as:
 Gaussian 09, Revision D.01,
 M. J. Frisch, G. W. Trucks, H. B. Schlegel, G. E. Scuseria, 
 M. A. Robb, J. R. Cheeseman, G. Scalmani, V. Barone, B. Mennucci, 
 G. A. Petersson, H. Nakatsuji, M. Caricato, X. Li, H. P. Hratchian, 
 A. F. Izmaylov, J. Bloino, G. Zheng, J. L. Sonnenberg, M. Hada, 
 M. Ehara, K. Toyota, R. Fukuda, J. Hasegawa, M. Ishida, T. Nakajima, 
 Y. Honda, O. Kitao, H. Nakai, T. Vreven, J. A. Montgomery, Jr., 
 J. E. Peralta, F. Ogliaro, M. Bearpark, J. J. Heyd, E. Brothers, 
 K. N. Kudin, V. N. Staroverov, T. Keith, R. Kobayashi, J. Normand, 
 K. Raghavachari, A. Rendell, J. C. Burant, S. S. Iyengar, J. Tomasi, 
 M. Cossi, N. Rega, J. M. Millam, M. Klene, J. E. Knox, J. B. Cross, 
 V. Bakken, C. Adamo, J. Jaramillo, R. Gomperts, R. E. Stratmann, 
 O. Yazyev, A. J. Austin, R. Cammi, C. Pomelli, J. W. Ochterski, 
 R. L. Martin, K. Morokuma, V. G. Zakrzewski, G. A. Voth, 
 P. Salvador, J. J. Dannenberg, S. Dapprich, A. D. Daniels, 
 O. Farkas, J. B. Foresman, J. V. Ortiz, J. Cioslowski, 
 and D. J. Fox, Gaussian, Inc., Wallingford CT, 2013.
 
 ******************************************
 Gaussian 09:  ES64L-G09RevD.01 24-Apr-2013
                26-Aug-2020 
 ******************************************
 %chk=/home/boittier/MDCM/nms_sampling/methanol_geom.xyz.dir/methanol_2346.chk
 %nproc=8
 Will use up to    8 processors via shared memory.
 %mem=16000MB
 --------------------
 #p B2PLYPD3/Def2QZVP
 --------------------
 1/38=1/1;
 2/12=2,17=6,18=5,40=1/2;
 3/5=45,7=101,11=9,16=1,25=1,30=1,74=-60/1,2,3;
 4//1;
 5/5=2,38=5/2;
 8/10=1/1;
 9/16=-3/6;
 6/7=2,8=2,9=2,10=2/1;
 99/5=1,9=1/99;
 Leave Link    1 at Wed Aug 26 17:27:41 2020, MaxMem=  2097152000 cpu:         0.2
 (Enter /opt/cluster/programs/g09/g09_d.01/g09/l101.exe)
 --------
 methanol
 --------
 Symbolic Z-matrix:
 Charge =  0 Multiplicity = 1
 C                    -5.16746  -1.24411   0.91111 
 O                    -3.7724   -1.12939   0.87967 
 H                    -5.53435  -2.15843   0.62478 
 H                    -5.62425  -0.54476   0.37322 
 H                    -5.54231  -1.20701   1.88158 
 H                    -3.49442  -1.18017  -0.34368 
 
 NAtoms=      6 NQM=        6 NQMF=       0 NMMI=      0 NMMIF=      0
                NMic=       0 NMicF=      0.
                    Isotopes and Nuclear Properties:
 (Nuclear quadrupole moments (NQMom) in fm**2, nuclear magnetic moments (NMagM)
  in nuclear magnetons)

  Atom         1           2           3           4           5           6
 IAtWgt=          12          16           1           1           1           1
 AtmWgt=  12.0000000  15.9949146   1.0078250   1.0078250   1.0078250   1.0078250
 NucSpn=           0           0           1           1           1           1
 AtZEff=   0.0000000   0.0000000   0.0000000   0.0000000   0.0000000   0.0000000
 NQMom=    0.0000000   0.0000000   0.0000000   0.0000000   0.0000000   0.0000000
 NMagM=    0.0000000   0.0000000   2.7928460   2.7928460   2.7928460   2.7928460
 AtZNuc=   6.0000000   8.0000000   1.0000000   1.0000000   1.0000000   1.0000000
 Leave Link  101 at Wed Aug 26 17:27:41 2020, MaxMem=  2097152000 cpu:         0.5
 (Enter /opt/cluster/programs/g09/g09_d.01/g09/l202.exe)
                          Input orientation:                          
 ---------------------------------------------------------------------
 Center     Atomic      Atomic             Coordinates (Angstroms)
 Number     Number       Type             X           Y           Z
 ---------------------------------------------------------------------
      1          6           0       -5.167460   -1.244111    0.911113
      2          8           0       -3.772399   -1.129386    0.879672
      3          1           0       -5.534351   -2.158428    0.624782
      4          1           0       -5.624253   -0.544764    0.373215
      5          1           0       -5.542313   -1.207013    1.881583
      6          1           0       -3.494419   -1.180174   -0.343675
 ---------------------------------------------------------------------
                    Distance matrix (angstroms):
                    1          2          3          4          5
     1  C    0.000000
     2  O    1.400123   0.000000
     3  H    1.025948   2.056300   0.000000
     4  H    0.993519   2.006899   1.635628   0.000000
     5  H    1.041011   2.035300   1.576326   1.649382   0.000000
     6  H    2.092283   1.255560   2.460937   2.335352   3.024296
                    6
     6  H    0.000000
 Stoichiometry    CH4O
 Framework group  C1[X(CH4O)]
 Deg. of freedom    12
 Full point group                 C1      NOp   1
 Largest Abelian subgroup         C1      NOp   1
 Largest concise Abelian subgroup C1      NOp   1
                         Standard orientation:                         
 ---------------------------------------------------------------------
 Center     Atomic      Atomic             Coordinates (Angstroms)
 Number     Number       Type             X           Y           Z
 ---------------------------------------------------------------------
      1          6           0        0.651024    0.039404   -0.011719
      2          8           0       -0.732459   -0.175663   -0.003514
      3          1           0        1.038283    0.407420    0.864160
      4          1           0        0.944969    0.631574   -0.753346
      5          1           0        1.186116   -0.851455   -0.072953
      6          1           0       -1.215837    0.981346    0.060564
 ---------------------------------------------------------------------
 Rotational constants (GHZ):    126.3831138     25.4511758     23.8551631
 Leave Link  202 at Wed Aug 26 17:27:41 2020, MaxMem=  2097152000 cpu:         0.0
 (Enter /opt/cluster/programs/g09/g09_d.01/g09/l301.exe)
 Standard basis: def2QZVP (5D, 7F)
 Ernie: Thresh=  0.10000D-02 Tol=  0.10000D-05 Strict=F.
 There are   284 symmetry adapted cartesian basis functions of A   symmetry.
 There are   234 symmetry adapted basis functions of A   symmetry.
   234 basis functions,   336 primitive gaussians,   284 cartesian basis functions
     9 alpha electrons        9 beta electrons
       nuclear repulsion energy        40.2162354660 Hartrees.
 IExCor=  419 DFT=T Ex+Corr=B2PLYPD3 ExCW=0 ScaHFX=  0.530000
 ScaDFX=  0.470000  0.470000  0.730000  0.730000 ScalE2=  0.270000  0.270000
 IRadAn=      0 IRanWt=     -1 IRanGd=            0 ICorTp=0 IEmpDi=141
 NAtoms=    6 NActive=    6 NUniq=    6 SFac= 1.00D+00 NAtFMM=   60 NAOKFM=F Big=F
 Integral buffers will be    131072 words long.
 Regular integral format.
 Two-electron integral symmetry is turned on.
 R6Disp:  Grimme-D3(BJ) Dispersion energy=       -0.0013866327 Hartrees.
 Nuclear repulsion after empirical dispersion term =       40.2148488332 Hartrees.
 Leave Link  301 at Wed Aug 26 17:27:41 2020, MaxMem=  2097152000 cpu:         0.4
 (Enter /opt/cluster/programs/g09/g09_d.01/g09/l302.exe)
 NPDir=0 NMtPBC=     1 NCelOv=     1 NCel=       1 NClECP=     1 NCelD=      1
         NCelK=      1 NCelE2=     1 NClLst=     1 CellRange=     0.0.
 One-electron integrals computed using PRISM.
   1 Symmetry operations used in ECPInt.
 ECPInt:  NShTT=    2775 NPrTT=    6207 LenC2=    2774 LenP2D=    5740.
 LDataN:  DoStor=T MaxTD1= 8 Len=  415
 NBasis=   234 RedAO= T EigKep=  9.00D-05  NBF=   234
 NBsUse=   234 1.00D-06 EigRej= -1.00D+00 NBFU=   234
 Precomputing XC quadrature grid using
 IXCGrd= 4 IRadAn=           0 IRanWt=          -1 IRanGd=           0 AccXCQ= 0.00D+00.
 Generated NRdTot=       0 NPtTot=           0 NUsed=           0 NTot=          32
 NSgBfM=   284   284   284   284   284 MxSgAt=     6 MxSgA2=     6.
 Leave Link  302 at Wed Aug 26 17:27:41 2020, MaxMem=  2097152000 cpu:         2.1
 (Enter /opt/cluster/programs/g09/g09_d.01/g09/l303.exe)
 DipDrv:  MaxL=1.
 Leave Link  303 at Wed Aug 26 17:27:41 2020, MaxMem=  2097152000 cpu:         0.2
 (Enter /opt/cluster/programs/g09/g09_d.01/g09/l401.exe)
 ExpMin= 7.60D-02 ExpMax= 1.17D+05 ExpMxC= 1.13D+03 IAcc=2 IRadAn=         4 AccDes= 0.00D+00
 Harris functional with IExCor=  419 and IRadAn=       4 diagonalized for initial guess.
 HarFok:  IExCor=  419 AccDes= 0.00D+00 IRadAn=         4 IDoV= 1 UseB2=F ITyADJ=14
 ICtDFT=  3500011 ScaDFX=  1.000000  1.000000  1.000000  1.000000
 FoFCou: FMM=F IPFlag=           0 FMFlag=      100000 FMFlg1=           0
         NFxFlg=           0 DoJE=T BraDBF=F KetDBF=T FulRan=T
         wScrn=  0.000000 ICntrl=     500 IOpCl=  0 I1Cent=   200000004 NGrid=           0
         NMat0=    1 NMatS0=      1 NMatT0=    0 NMatD0=    1 NMtDS0=    0 NMtDT0=    0
 Petite list used in FoFCou.
 Harris En= -115.786666265151    
 JPrj=0 DoOrth=F DoCkMO=F.
 Leave Link  401 at Wed Aug 26 17:27:42 2020, MaxMem=  2097152000 cpu:         3.7
 (Enter /opt/cluster/programs/g09/g09_d.01/g09/l502.exe)
 Closed shell SCF:
 Using DIIS extrapolation, IDIIS=  1040.
 Integral symmetry usage will be decided dynamically.
 Keep R1 ints in memory in canonical form, NReq=389840494.
 IVT=      264814 IEndB=      264814 NGot=  2097152000 MDV=  1718885927
 LenX=  1718885927 LenY=  1718804830
 Requested convergence on RMS density matrix=1.00D-08 within 128 cycles.
 Requested convergence on MAX density matrix=1.00D-06.
 Requested convergence on             energy=1.00D-06.
 No special actions if energy rises.
 FoFCou: FMM=F IPFlag=           0 FMFlag=           0 FMFlg1=           0
         NFxFlg=           0 DoJE=F BraDBF=F KetDBF=F FulRan=T
         wScrn=  0.000000 ICntrl=     600 IOpCl=  0 I1Cent=           0 NGrid=           0
         NMat0=    1 NMatS0=  27495 NMatT0=    0 NMatD0=    1 NMtDS0=    0 NMtDT0=    0
 Symmetry not used in FoFCou.
 Integral accuracy reduced to 1.0D-05 until final iterations.

 Cycle   1  Pass 0  IDiag  1:
 E= -115.364172302618    
 DIIS: error= 3.44D-02 at cycle   1 NSaved=   1.
 NSaved= 1 IEnMin= 1 EnMin= -115.364172302618     IErMin= 1 ErrMin= 3.44D-02
 ErrMax= 3.44D-02  0.00D+00 EMaxC= 1.00D-01 BMatC= 1.91D-01 BMatP= 1.91D-01
 IDIUse=3 WtCom= 6.56D-01 WtEn= 3.44D-01
 Coeff-Com:  0.100D+01
 Coeff-En:   0.100D+01
 Coeff:      0.100D+01
 Gap=     0.250 Goal=   None    Shift=    0.000
 GapD=    0.250 DampG=1.000 DampE=0.500 DampFc=0.5000 IDamp=-1.
 Damping current iteration by 5.00D-01
 RMSDP=1.56D-03 MaxDP=5.01D-02              OVMax= 1.78D-01

 Cycle   2  Pass 0  IDiag  1:
 E= -115.422672108646     Delta-E=       -0.058499806028 Rises=F Damp=T
 DIIS: error= 8.87D-03 at cycle   2 NSaved=   2.
 NSaved= 2 IEnMin= 2 EnMin= -115.422672108646     IErMin= 2 ErrMin= 8.87D-03
 ErrMax= 8.87D-03  0.00D+00 EMaxC= 1.00D-01 BMatC= 2.17D-02 BMatP= 1.91D-01
 IDIUse=3 WtCom= 9.11D-01 WtEn= 8.87D-02
 Coeff-Com: -0.857D-01 0.109D+01
 Coeff-En:   0.000D+00 0.100D+01
 Coeff:     -0.781D-01 0.108D+01
 Gap=     0.379 Goal=   None    Shift=    0.000
 RMSDP=4.44D-04 MaxDP=1.32D-02 DE=-5.85D-02 OVMax= 1.09D-01

 Cycle   3  Pass 0  IDiag  1:
 E= -115.481413301704     Delta-E=       -0.058741193058 Rises=F Damp=F
 DIIS: error= 5.04D-03 at cycle   3 NSaved=   3.
 NSaved= 3 IEnMin= 3 EnMin= -115.481413301704     IErMin= 3 ErrMin= 5.04D-03
 ErrMax= 5.04D-03  0.00D+00 EMaxC= 1.00D-01 BMatC= 9.46D-03 BMatP= 2.17D-02
 IDIUse=3 WtCom= 9.50D-01 WtEn= 5.04D-02
 Coeff-Com: -0.140D+00 0.445D+00 0.696D+00
 Coeff-En:   0.000D+00 0.000D+00 0.100D+01
 Coeff:     -0.133D+00 0.422D+00 0.711D+00
 Gap=     0.366 Goal=   None    Shift=    0.000
 RMSDP=1.87D-04 MaxDP=7.98D-03 DE=-5.87D-02 OVMax= 2.77D-02

 Cycle   4  Pass 0  IDiag  1:
 E= -115.487202622004     Delta-E=       -0.005789320300 Rises=F Damp=F
 DIIS: error= 2.30D-03 at cycle   4 NSaved=   4.
 NSaved= 4 IEnMin= 4 EnMin= -115.487202622004     IErMin= 4 ErrMin= 2.30D-03
 ErrMax= 2.30D-03  0.00D+00 EMaxC= 1.00D-01 BMatC= 1.09D-03 BMatP= 9.46D-03
 IDIUse=3 WtCom= 9.77D-01 WtEn= 2.30D-02
 Coeff-Com: -0.493D-01 0.883D-01 0.315D+00 0.646D+00
 Coeff-En:   0.000D+00 0.000D+00 0.680D-02 0.993D+00
 Coeff:     -0.482D-01 0.863D-01 0.308D+00 0.654D+00
 Gap=     0.363 Goal=   None    Shift=    0.000
 RMSDP=5.40D-05 MaxDP=2.04D-03 DE=-5.79D-03 OVMax= 7.97D-03

 Cycle   5  Pass 0  IDiag  1:
 E= -115.487997514977     Delta-E=       -0.000794892973 Rises=F Damp=F
 DIIS: error= 1.99D-04 at cycle   5 NSaved=   5.
 NSaved= 5 IEnMin= 5 EnMin= -115.487997514977     IErMin= 5 ErrMin= 1.99D-04
 ErrMax= 1.99D-04  0.00D+00 EMaxC= 1.00D-01 BMatC= 8.83D-06 BMatP= 1.09D-03
 IDIUse=3 WtCom= 9.98D-01 WtEn= 1.99D-03
 Coeff-Com: -0.497D-02 0.304D-02 0.399D-01 0.135D+00 0.828D+00
 Coeff-En:   0.000D+00 0.000D+00 0.000D+00 0.000D+00 0.100D+01
 Coeff:     -0.496D-02 0.303D-02 0.398D-01 0.134D+00 0.828D+00
 Gap=     0.364 Goal=   None    Shift=    0.000
 RMSDP=9.27D-06 MaxDP=2.55D-04 DE=-7.95D-04 OVMax= 7.35D-04

 Initial convergence to 1.0D-05 achieved.  Increase integral accuracy.
 Cycle   6  Pass 1  IDiag  1:
 E= -115.487999120227     Delta-E=       -0.000001605249 Rises=F Damp=F
 DIIS: error= 2.28D-05 at cycle   1 NSaved=   1.
 NSaved= 1 IEnMin= 1 EnMin= -115.487999120227     IErMin= 1 ErrMin= 2.28D-05
 ErrMax= 2.28D-05  0.00D+00 EMaxC= 1.00D-01 BMatC= 2.45D-07 BMatP= 2.45D-07
 IDIUse=1 WtCom= 1.00D+00 WtEn= 0.00D+00
 Coeff-Com:  0.100D+01
 Coeff:      0.100D+01
 Gap=     0.364 Goal=   None    Shift=    0.000
 RMSDP=9.27D-06 MaxDP=2.55D-04 DE=-1.61D-06 OVMax= 2.75D-04

 Cycle   7  Pass 1  IDiag  1:
 E= -115.487999538754     Delta-E=       -0.000000418527 Rises=F Damp=F
 DIIS: error= 1.55D-05 at cycle   2 NSaved=   2.
 NSaved= 2 IEnMin= 2 EnMin= -115.487999538754     IErMin= 2 ErrMin= 1.55D-05
 ErrMax= 1.55D-05  0.00D+00 EMaxC= 1.00D-01 BMatC= 6.34D-08 BMatP= 2.45D-07
 IDIUse=1 WtCom= 1.00D+00 WtEn= 0.00D+00
 Coeff-Com:  0.208D+00 0.792D+00
 Coeff:      0.208D+00 0.792D+00
 Gap=     0.364 Goal=   None    Shift=    0.000
 RMSDP=8.37D-07 MaxDP=4.34D-05 DE=-4.19D-07 OVMax= 1.65D-04

 Cycle   8  Pass 1  IDiag  1:
 E= -115.487999585134     Delta-E=       -0.000000046380 Rises=F Damp=F
 DIIS: error= 1.22D-05 at cycle   3 NSaved=   3.
 NSaved= 3 IEnMin= 3 EnMin= -115.487999585134     IErMin= 3 ErrMin= 1.22D-05
 ErrMax= 1.22D-05  0.00D+00 EMaxC= 1.00D-01 BMatC= 4.21D-08 BMatP= 6.34D-08
 IDIUse=1 WtCom= 1.00D+00 WtEn= 0.00D+00
 Coeff-Com: -0.155D+00 0.455D+00 0.699D+00
 Coeff:     -0.155D+00 0.455D+00 0.699D+00
 Gap=     0.364 Goal=   None    Shift=    0.000
 RMSDP=5.75D-07 MaxDP=2.58D-05 DE=-4.64D-08 OVMax= 7.02D-05

 Cycle   9  Pass 1  IDiag  1:
 E= -115.487999619370     Delta-E=       -0.000000034236 Rises=F Damp=F
 DIIS: error= 1.52D-06 at cycle   4 NSaved=   4.
 NSaved= 4 IEnMin= 4 EnMin= -115.487999619370     IErMin= 4 ErrMin= 1.52D-06
 ErrMax= 1.52D-06  0.00D+00 EMaxC= 1.00D-01 BMatC= 4.07D-10 BMatP= 4.21D-08
 IDIUse=1 WtCom= 1.00D+00 WtEn= 0.00D+00
 Coeff-Com: -0.436D-01 0.399D-01 0.116D+00 0.888D+00
 Coeff:     -0.436D-01 0.399D-01 0.116D+00 0.888D+00
 Gap=     0.364 Goal=   None    Shift=    0.000
 RMSDP=9.68D-08 MaxDP=2.99D-06 DE=-3.42D-08 OVMax= 1.56D-05

 Cycle  10  Pass 1  IDiag  1:
 E= -115.487999619988     Delta-E=       -0.000000000618 Rises=F Damp=F
 DIIS: error= 5.53D-07 at cycle   5 NSaved=   5.
 NSaved= 5 IEnMin= 5 EnMin= -115.487999619988     IErMin= 5 ErrMin= 5.53D-07
 ErrMax= 5.53D-07  0.00D+00 EMaxC= 1.00D-01 BMatC= 3.84D-11 BMatP= 4.07D-10
 IDIUse=1 WtCom= 1.00D+00 WtEn= 0.00D+00
 Coeff-Com: -0.301D-02-0.899D-02-0.805D-02 0.217D+00 0.803D+00
 Coeff:     -0.301D-02-0.899D-02-0.805D-02 0.217D+00 0.803D+00
 Gap=     0.364 Goal=   None    Shift=    0.000
 RMSDP=2.22D-08 MaxDP=6.51D-07 DE=-6.18D-10 OVMax= 3.31D-06

 Cycle  11  Pass 1  IDiag  1:
 E= -115.487999620031     Delta-E=       -0.000000000043 Rises=F Damp=F
 DIIS: error= 1.92D-07 at cycle   6 NSaved=   6.
 NSaved= 6 IEnMin= 6 EnMin= -115.487999620031     IErMin= 6 ErrMin= 1.92D-07
 ErrMax= 1.92D-07  0.00D+00 EMaxC= 1.00D-01 BMatC= 4.52D-12 BMatP= 3.84D-11
 IDIUse=1 WtCom= 1.00D+00 WtEn= 0.00D+00
 Coeff-Com:  0.406D-02-0.798D-02-0.186D-01-0.224D-01 0.229D+00 0.816D+00
 Coeff:      0.406D-02-0.798D-02-0.186D-01-0.224D-01 0.229D+00 0.816D+00
 Gap=     0.364 Goal=   None    Shift=    0.000
 RMSDP=7.85D-09 MaxDP=2.52D-07 DE=-4.33D-11 OVMax= 1.03D-06

 SCF Done:  E(RB2PLYPD3) =  -115.487999620     A.U. after   11 cycles
            NFock= 11  Conv=0.79D-08     -V/T= 2.0023
 KE= 1.152259832431D+02 PE=-3.520350864840D+02 EE= 8.110625478771D+01
 Leave Link  502 at Wed Aug 26 17:27:55 2020, MaxMem=  2097152000 cpu:        66.3
 (Enter /opt/cluster/programs/g09/g09_d.01/g09/l801.exe)
 DoSCS=T DFT=T ScalE2(SS,OS)=  0.270000  0.270000
 ExpMin= 7.60D-02 ExpMax= 1.17D+05 ExpMxC= 1.13D+03 IAcc=3 IRadAn=         5 AccDes= 0.00D+00
 HarFok:  IExCor=  205 AccDes= 0.00D+00 IRadAn=         5 IDoV=-2 UseB2=F ITyADJ=14
 ICtDFT= 12500011 ScaDFX=  1.000000  1.000000  1.000000  1.000000
 Largest valence mixing into a core orbital is  1.05D-04
 Largest core mixing into a valence orbital is  1.36D-05
 Range of M.O.s used for correlation:     3   234
 NBasis=   234 NAE=     9 NBE=     9 NFC=     2 NFV=     0
 NROrb=    232 NOA=     7 NOB=     7 NVA=   225 NVB=   225

 **** Warning!!: The largest alpha MO coefficient is  0.33456024D+02

 Leave Link  801 at Wed Aug 26 17:27:56 2020, MaxMem=  2097152000 cpu:         0.6
 (Enter /opt/cluster/programs/g09/g09_d.01/g09/l906.exe)
 DoSCS=T DFT=T ScalE2(SS,OS)=  0.270000  0.270000
 FulOut=F Deriv=F AODrv=F NAtomX=     6
   MMem=        3646  MDisk=           7 MDiskD=           7
  W3Min=      447300 MinDsk=     1090093 NBas6D=         284
 NBas2D=       41310    NTT=       40470    LW2=     4508827
    MDV=  2096872494 MDiskM=       16391 NBas2p=       41295
 Fully in-core method, ICMem=  1722292712.
 IMap=   1   2   3   4   5   6   7
 JobTyp=1 Pass  1 fully in-core, NPsUse=  8.
 Compute canonical integrals.
 FoFCou: FMM=F IPFlag=           0 FMFlag=           0 FMFlg1=           0
         NFxFlg=           0 DoJE=F BraDBF=F KetDBF=F FulRan=T
         wScrn=  0.000000 ICntrl=     600 IOpCl=  1 I1Cent=           0 NGrid=           0
         NMat0=    1 NMatS0=  41310 NMatT0=    0 NMatD0=    1 NMtDS0=    0 NMtDT0=    0
 Symmetry not used in FoFCou.
 Spin components of T(2) and E(2):
     alpha-alpha T2 =       0.2278261327D-01 E2=     -0.1729634672D-01
     alpha-beta  T2 =       0.1461082140D+00 E2=     -0.1175123420D+00
     beta-beta   T2 =       0.2278261327D-01 E2=     -0.1729634672D-01
 The integrals were generated   1 times.
 E2(B2PLYPD3) =    -0.1521050355D+00 E(B2PLYPD3) =    -0.11564010465551D+03
 Leave Link  906 at Wed Aug 26 17:28:10 2020, MaxMem=  2097152000 cpu:       117.8
 (Enter /opt/cluster/programs/g09/g09_d.01/g09/l601.exe)
 Copying SCF densities to generalized density rwf, IOpCl= 0 IROHF=0.

 **********************************************************************

            Population analysis using the SCF density.

 **********************************************************************

 Orbital symmetries:
       Occupied  (A) (A) (A) (A) (A) (A) (A) (A) (A)
       Virtual   (A) (A) (A) (A) (A) (A) (A) (A) (A) (A) (A) (A)
                 (A) (A) (A) (A) (A) (A) (A) (A) (A) (A) (A) (A)
                 (A) (A) (A) (A) (A) (A) (A) (A) (A) (A) (A) (A)
                 (A) (A) (A) (A) (A) (A) (A) (A) (A) (A) (A) (A)
                 (A) (A) (A) (A) (A) (A) (A) (A) (A) (A) (A) (A)
                 (A) (A) (A) (A) (A) (A) (A) (A) (A) (A) (A) (A)
                 (A) (A) (A) (A) (A) (A) (A) (A) (A) (A) (A) (A)
                 (A) (A) (A) (A) (A) (A) (A) (A) (A) (A) (A) (A)
                 (A) (A) (A) (A) (A) (A) (A) (A) (A) (A) (A) (A)
                 (A) (A) (A) (A) (A) (A) (A) (A) (A) (A) (A) (A)
                 (A) (A) (A) (A) (A) (A) (A) (A) (A) (A) (A) (A)
                 (A) (A) (A) (A) (A) (A) (A) (A) (A) (A) (A) (A)
                 (A) (A) (A) (A) (A) (A) (A) (A) (A) (A) (A) (A)
                 (A) (A) (A) (A) (A) (A) (A) (A) (A) (A) (A) (A)
                 (A) (A) (A) (A) (A) (A) (A) (A) (A) (A) (A) (A)
                 (A) (A) (A) (A) (A) (A) (A) (A) (A) (A) (A) (A)
                 (A) (A) (A) (A) (A) (A) (A) (A) (A) (A) (A) (A)
                 (A) (A) (A) (A) (A) (A) (A) (A) (A) (A) (A) (A)
                 (A) (A) (A) (A) (A) (A) (A) (A) (A)
 The electronic state is 1-A.
 Alpha  occ. eigenvalues --  -19.74602 -10.62664  -1.13115  -0.79234  -0.55514
 Alpha  occ. eigenvalues --   -0.53076  -0.49830  -0.39758  -0.35078
 Alpha virt. eigenvalues --    0.01319   0.07541   0.12705   0.13041   0.14756
 Alpha virt. eigenvalues --    0.17892   0.18600   0.24782   0.29494   0.33291
 Alpha virt. eigenvalues --    0.34800   0.39734   0.40398   0.42873   0.43450
 Alpha virt. eigenvalues --    0.48314   0.52192   0.55162   0.57392   0.65659
 Alpha virt. eigenvalues --    0.71470   0.75156   0.77226   0.78837   0.81399
 Alpha virt. eigenvalues --    0.81987   0.84360   0.88161   0.89815   0.92922
 Alpha virt. eigenvalues --    0.96768   1.01186   1.02718   1.05052   1.11373
 Alpha virt. eigenvalues --    1.13746   1.16000   1.20643   1.33455   1.39794
 Alpha virt. eigenvalues --    1.43230   1.47609   1.51201   1.53579   1.60058
 Alpha virt. eigenvalues --    1.73639   1.78602   1.81750   1.85216   1.86684
 Alpha virt. eigenvalues --    1.87796   1.94675   1.95149   1.98069   2.03157
 Alpha virt. eigenvalues --    2.07305   2.11695   2.17122   2.19515   2.22437
 Alpha virt. eigenvalues --    2.23717   2.27652   2.30772   2.32889   2.34540
 Alpha virt. eigenvalues --    2.43484   2.50116   2.52561   2.53451   2.55791
 Alpha virt. eigenvalues --    2.60672   2.65347   2.67406   2.69743   2.73596
 Alpha virt. eigenvalues --    2.74919   2.89404   2.92746   2.94157   3.00724
 Alpha virt. eigenvalues --    3.10489   3.12623   3.16526   3.20459   3.27108
 Alpha virt. eigenvalues --    3.32515   3.39274   3.43519   3.49138   3.51366
 Alpha virt. eigenvalues --    3.64551   3.69258   3.82923   3.84699   3.89040
 Alpha virt. eigenvalues --    4.00749   4.09083   4.11054   4.12842   4.14270
 Alpha virt. eigenvalues --    4.18387   4.28005   4.30290   4.32726   4.36751
 Alpha virt. eigenvalues --    4.42632   4.54930   4.66597   4.73595   5.07227
 Alpha virt. eigenvalues --    5.17523   5.28797   5.50526   5.52749   5.62195
 Alpha virt. eigenvalues --    5.66725   5.71294   5.74820   5.77428   5.84520
 Alpha virt. eigenvalues --    5.91504   5.94548   6.00680   6.10720   6.14796
 Alpha virt. eigenvalues --    6.19590   6.22751   6.28578   6.31709   6.36463
 Alpha virt. eigenvalues --    6.38434   6.43698   6.48193   6.52781   6.55124
 Alpha virt. eigenvalues --    6.61173   6.69681   6.73255   6.75618   6.78547
 Alpha virt. eigenvalues --    6.80931   6.85300   6.88818   6.95043   7.04688
 Alpha virt. eigenvalues --    7.05670   7.14467   7.29119   7.36064   7.49044
 Alpha virt. eigenvalues --    7.61310   7.68419   7.70377   7.71933   7.75145
 Alpha virt. eigenvalues --    7.76849   7.77950   7.79859   7.81796   7.90435
 Alpha virt. eigenvalues --    7.97435   8.01997   8.07023   8.10469   8.15384
 Alpha virt. eigenvalues --    8.20306   8.27991   8.36002   8.41061   8.42514
 Alpha virt. eigenvalues --    8.49165   8.50879   8.53560   8.55116   8.60030
 Alpha virt. eigenvalues --    8.62430   8.71227   8.76845   8.84873   8.88338
 Alpha virt. eigenvalues --    8.90807   9.05756   9.15159   9.22318   9.24268
 Alpha virt. eigenvalues --    9.39204   9.48684   9.51928   9.53802   9.83758
 Alpha virt. eigenvalues --    9.91825  10.06572  10.08877  10.20474  10.29118
 Alpha virt. eigenvalues --   10.44855  10.48212  10.57760  10.63634  10.70259
 Alpha virt. eigenvalues --   10.79102  10.83637  10.93388  11.07463  11.14361
 Alpha virt. eigenvalues --   11.30493  11.56372  11.65758  11.81857  11.84337
 Alpha virt. eigenvalues --   11.97557  12.21809  12.24356  12.56474  12.66771
 Alpha virt. eigenvalues --   12.77218  12.87567  13.35215  13.62886  13.98640
 Alpha virt. eigenvalues --   14.60535  29.52434  48.52531 149.20402 254.25412
          Condensed to atoms (all electrons):
               1          2          3          4          5          6
     1  C    4.387591   0.270455   0.439325   0.458780   0.396752  -0.049313
     2  O    0.270455   8.054741  -0.044672  -0.047336  -0.031728   0.286336
     3  H    0.439325  -0.044672   0.688951  -0.068042  -0.046871  -0.009513
     4  H    0.458780  -0.047336  -0.068042   0.674059  -0.047133  -0.011620
     5  H    0.396752  -0.031728  -0.046871  -0.047133   0.661774   0.012648
     6  H   -0.049313   0.286336  -0.009513  -0.011620   0.012648   0.516749
 Mulliken charges:
               1
     1  C    0.096411
     2  O   -0.487796
     3  H    0.040822
     4  H    0.041292
     5  H    0.054558
     6  H    0.254712
 Sum of Mulliken charges =   0.00000
 Mulliken charges with hydrogens summed into heavy atoms:
               1
     1  C    0.233083
     2  O   -0.233083
 Electronic spatial extent (au):  <R**2>=             84.1110
 Charge=              0.0000 electrons
 Dipole moment (field-independent basis, Debye):
    X=              0.8846    Y=              1.7378    Z=              0.0823  Tot=              1.9517
 Quadrupole moment (field-independent basis, Debye-Ang):
   XX=            -12.7516   YY=            -11.8742   ZZ=            -13.9396
   XY=             -2.5829   XZ=             -0.0744   YZ=             -0.0205
 Traceless Quadrupole moment (field-independent basis, Debye-Ang):
   XX=              0.1035   YY=              0.9809   ZZ=             -1.0845
   XY=             -2.5829   XZ=             -0.0744   YZ=             -0.0205
 Octapole moment (field-independent basis, Debye-Ang**2):
  XXX=             -2.7152  YYY=              1.3435  ZZZ=              0.0272  XYY=             -2.2896
  XXY=              2.6395  XXZ=              0.2628  XZZ=              0.0506  YZZ=              0.3389
  YYZ=             -0.0642  XYZ=             -0.2697
 Hexadecapole moment (field-independent basis, Debye-Ang**3):
 XXXX=            -61.8497 YYYY=            -20.8846 ZZZZ=            -18.8577 XXXY=             -4.2264
 XXXZ=             -0.1055 YYYX=             -3.2852 YYYZ=             -0.1014 ZZZX=              0.0984
 ZZZY=             -0.1902 XXYY=            -12.0456 XXZZ=            -14.5725 YYZZ=             -6.9956
 XXYZ=              0.0594 YYXZ=             -0.2919 ZZXY=              0.1294
 N-N= 4.021484883324D+01 E-N=-3.520350991565D+02  KE= 1.152259832431D+02
 Leave Link  601 at Wed Aug 26 17:28:11 2020, MaxMem=  2097152000 cpu:         0.3
 (Enter /opt/cluster/programs/g09/g09_d.01/g09/l9999.exe)
 1\1\GINC-NODE05\SP\RB2PLYPD3-FC\def2QZVP\C1H4O1\BOITTIER\26-Aug-2020\0
 \\#p B2PLYPD3/Def2QZVP\\methanol\\0,1\C,0,-5.16746,-1.244111,0.911113\
 O,0,-3.772399,-1.129386,0.879672\H,0,-5.534351,-2.158428,0.624782\H,0,
 -5.624253,-0.544764,0.373215\H,0,-5.542313,-1.207013,1.881583\H,0,-3.4
 94419,-1.180174,-0.343675\\Version=ES64L-G09RevD.01\State=1-A\HF=-115.
 4879996\MP2=-115.6401047\RMSD=7.851e-09\PG=C01 [X(C1H4O1)]\\@


 TRUTH, IN SCIENCE, CAN BE DEFINED AS THE WORKING HYPOTHESIS 
 BEST FITTED TO OPEN THE WAY TO THE NEXT BETTER ONE.

                              -- KONRAD LORENZ
 Job cpu time:       0 days  0 hours  3 minutes 12.6 seconds.
 File lengths (MBytes):  RWF=     23 Int=      0 D2E=      0 Chk=      4 Scr=      1
 Normal termination of Gaussian 09 at Wed Aug 26 17:28:11 2020.
