 Entering Gaussian System, Link 0=/opt/cluster/programs/g09/g09_d.01/g09//g09
 Input=/home/boittier/MDCM/nms_sampling/methanol_geom.xyz.dir/energies/methanol_2456_energy.com
 Output=/scratch/boittier/methanol_2456_energy/methanol_2456_energy.out
 Initial command:
 /opt/cluster/programs/g09/g09_d.01/g09/l1.exe "/scratch/boittier/methanol_2456_energy/Gau-146588.inp" -scrdir="/scratch/boittier/methanol_2456_energy/"
 Entering Link 1 = /opt/cluster/programs/g09/g09_d.01/g09/l1.exe PID=    146589.
  
 Copyright (c) 1988,1990,1992,1993,1995,1998,2003,2009,2013,
            Gaussian, Inc.  All Rights Reserved.
  
 This is part of the Gaussian(R) 09 program.  It is based on
 the Gaussian(R) 03 system (copyright 2003, Gaussian, Inc.),
 the Gaussian(R) 98 system (copyright 1998, Gaussian, Inc.),
 the Gaussian(R) 94 system (copyright 1995, Gaussian, Inc.),
 the Gaussian 92(TM) system (copyright 1992, Gaussian, Inc.),
 the Gaussian 90(TM) system (copyright 1990, Gaussian, Inc.),
 the Gaussian 88(TM) system (copyright 1988, Gaussian, Inc.),
 the Gaussian 86(TM) system (copyright 1986, Carnegie Mellon
 University), and the Gaussian 82(TM) system (copyright 1983,
 Carnegie Mellon University). Gaussian is a federally registered
 trademark of Gaussian, Inc.
  
 This software contains proprietary and confidential information,
 including trade secrets, belonging to Gaussian, Inc.
  
 This software is provided under written license and may be
 used, copied, transmitted, or stored only in accord with that
 written license.
  
 The following legend is applicable only to US Government
 contracts under FAR:
  
                    RESTRICTED RIGHTS LEGEND
  
 Use, reproduction and disclosure by the US Government is
 subject to restrictions as set forth in subparagraphs (a)
 and (c) of the Commercial Computer Software - Restricted
 Rights clause in FAR 52.227-19.
  
 Gaussian, Inc.
 340 Quinnipiac St., Bldg. 40, Wallingford CT 06492
  
  
 ---------------------------------------------------------------
 Warning -- This program may not be used in any manner that
 competes with the business of Gaussian, Inc. or will provide
 assistance to any competitor of Gaussian, Inc.  The licensee
 of this program is prohibited from giving any competitor of
 Gaussian, Inc. access to this program.  By using this program,
 the user acknowledges that Gaussian, Inc. is engaged in the
 business of creating and licensing software in the field of
 computational chemistry and represents and warrants to the
 licensee that it is not a competitor of Gaussian, Inc. and that
 it will not use this program in any manner prohibited above.
 ---------------------------------------------------------------
  

 Cite this work as:
 Gaussian 09, Revision D.01,
 M. J. Frisch, G. W. Trucks, H. B. Schlegel, G. E. Scuseria, 
 M. A. Robb, J. R. Cheeseman, G. Scalmani, V. Barone, B. Mennucci, 
 G. A. Petersson, H. Nakatsuji, M. Caricato, X. Li, H. P. Hratchian, 
 A. F. Izmaylov, J. Bloino, G. Zheng, J. L. Sonnenberg, M. Hada, 
 M. Ehara, K. Toyota, R. Fukuda, J. Hasegawa, M. Ishida, T. Nakajima, 
 Y. Honda, O. Kitao, H. Nakai, T. Vreven, J. A. Montgomery, Jr., 
 J. E. Peralta, F. Ogliaro, M. Bearpark, J. J. Heyd, E. Brothers, 
 K. N. Kudin, V. N. Staroverov, T. Keith, R. Kobayashi, J. Normand, 
 K. Raghavachari, A. Rendell, J. C. Burant, S. S. Iyengar, J. Tomasi, 
 M. Cossi, N. Rega, J. M. Millam, M. Klene, J. E. Knox, J. B. Cross, 
 V. Bakken, C. Adamo, J. Jaramillo, R. Gomperts, R. E. Stratmann, 
 O. Yazyev, A. J. Austin, R. Cammi, C. Pomelli, J. W. Ochterski, 
 R. L. Martin, K. Morokuma, V. G. Zakrzewski, G. A. Voth, 
 P. Salvador, J. J. Dannenberg, S. Dapprich, A. D. Daniels, 
 O. Farkas, J. B. Foresman, J. V. Ortiz, J. Cioslowski, 
 and D. J. Fox, Gaussian, Inc., Wallingford CT, 2013.
 
 ******************************************
 Gaussian 09:  ES64L-G09RevD.01 24-Apr-2013
                26-Aug-2020 
 ******************************************
 %chk=/home/boittier/MDCM/nms_sampling/methanol_geom.xyz.dir/methanol_2456.chk
 %nproc=8
 Will use up to    8 processors via shared memory.
 %mem=16000MB
 --------------------
 #p B2PLYPD3/Def2QZVP
 --------------------
 1/38=1/1;
 2/12=2,17=6,18=5,40=1/2;
 3/5=45,7=101,11=9,16=1,25=1,30=1,74=-60/1,2,3;
 4//1;
 5/5=2,38=5/2;
 8/10=1/1;
 9/16=-3/6;
 6/7=2,8=2,9=2,10=2/1;
 99/5=1,9=1/99;
 Leave Link    1 at Wed Aug 26 18:50:29 2020, MaxMem=  2097152000 cpu:         0.2
 (Enter /opt/cluster/programs/g09/g09_d.01/g09/l101.exe)
 --------
 methanol
 --------
 Symbolic Z-matrix:
 Charge =  0 Multiplicity = 1
 C                    -5.1957   -1.26032   0.9231 
 O                    -3.75887  -1.11133   0.83862 
 H                    -5.47682  -2.29364   0.43648 
 H                    -5.61119  -0.46245   0.32774 
 H                    -5.40855  -1.13184   2.07358 
 H                    -3.59775  -1.28648   0.22316 
 
 NAtoms=      6 NQM=        6 NQMF=       0 NMMI=      0 NMMIF=      0
                NMic=       0 NMicF=      0.
                    Isotopes and Nuclear Properties:
 (Nuclear quadrupole moments (NQMom) in fm**2, nuclear magnetic moments (NMagM)
  in nuclear magnetons)

  Atom         1           2           3           4           5           6
 IAtWgt=          12          16           1           1           1           1
 AtmWgt=  12.0000000  15.9949146   1.0078250   1.0078250   1.0078250   1.0078250
 NucSpn=           0           0           1           1           1           1
 AtZEff=   0.0000000   0.0000000   0.0000000   0.0000000   0.0000000   0.0000000
 NQMom=    0.0000000   0.0000000   0.0000000   0.0000000   0.0000000   0.0000000
 NMagM=    0.0000000   0.0000000   2.7928460   2.7928460   2.7928460   2.7928460
 AtZNuc=   6.0000000   8.0000000   1.0000000   1.0000000   1.0000000   1.0000000
 Leave Link  101 at Wed Aug 26 18:50:29 2020, MaxMem=  2097152000 cpu:         0.5
 (Enter /opt/cluster/programs/g09/g09_d.01/g09/l202.exe)
                          Input orientation:                          
 ---------------------------------------------------------------------
 Center     Atomic      Atomic             Coordinates (Angstroms)
 Number     Number       Type             X           Y           Z
 ---------------------------------------------------------------------
      1          6           0       -5.195697   -1.260323    0.923095
      2          8           0       -3.758873   -1.111335    0.838620
      3          1           0       -5.476818   -2.293640    0.436481
      4          1           0       -5.611189   -0.462451    0.327735
      5          1           0       -5.408552   -1.131841    2.073578
      6          1           0       -3.597749   -1.286481    0.223164
 ---------------------------------------------------------------------
                    Distance matrix (angstroms):
                    1          2          3          4          5
     1  C    0.000000
     2  O    1.446996   0.000000
     3  H    1.176251   2.123887   0.000000
     4  H    1.078743   2.028085   1.839330   0.000000
     5  H    1.177041   2.060821   2.008612   1.880721   0.000000
     6  H    1.744714   0.659866   2.142609   2.178050   2.593637
                    6
     6  H    0.000000
 Stoichiometry    CH4O
 Framework group  C1[X(CH4O)]
 Deg. of freedom    12
 Full point group                 C1      NOp   1
 Largest Abelian subgroup         C1      NOp   1
 Largest concise Abelian subgroup C1      NOp   1
                         Standard orientation:                         
 ---------------------------------------------------------------------
 Center     Atomic      Atomic             Coordinates (Angstroms)
 Number     Number       Type             X           Y           Z
 ---------------------------------------------------------------------
      1          6           0        0.683221   -0.004881    0.005341
      2          8           0       -0.761252    0.078749   -0.011977
      3          1           0        0.998147   -0.890934   -0.701268
      4          1           0        0.953180   -0.247382    1.021216
      5          1           0        1.015530    1.079216   -0.310461
      6          1           0       -0.976162   -0.541611    0.054278
 ---------------------------------------------------------------------
 Rotational constants (GHZ):    124.6193033     24.8575859     23.9643565
 Leave Link  202 at Wed Aug 26 18:50:29 2020, MaxMem=  2097152000 cpu:         0.0
 (Enter /opt/cluster/programs/g09/g09_d.01/g09/l301.exe)
 Standard basis: def2QZVP (5D, 7F)
 Ernie: Thresh=  0.10000D-02 Tol=  0.10000D-05 Strict=F.
 There are   284 symmetry adapted cartesian basis functions of A   symmetry.
 There are   234 symmetry adapted basis functions of A   symmetry.
   234 basis functions,   336 primitive gaussians,   284 cartesian basis functions
     9 alpha electrons        9 beta electrons
       nuclear repulsion energy        41.7908195021 Hartrees.
 IExCor=  419 DFT=T Ex+Corr=B2PLYPD3 ExCW=0 ScaHFX=  0.530000
 ScaDFX=  0.470000  0.470000  0.730000  0.730000 ScalE2=  0.270000  0.270000
 IRadAn=      0 IRanWt=     -1 IRanGd=            0 ICorTp=0 IEmpDi=141
 NAtoms=    6 NActive=    6 NUniq=    6 SFac= 1.00D+00 NAtFMM=   60 NAOKFM=F Big=F
 Integral buffers will be    131072 words long.
 Regular integral format.
 Two-electron integral symmetry is turned on.
 R6Disp:  Grimme-D3(BJ) Dispersion energy=       -0.0013172780 Hartrees.
 Nuclear repulsion after empirical dispersion term =       41.7895022241 Hartrees.
 Leave Link  301 at Wed Aug 26 18:50:30 2020, MaxMem=  2097152000 cpu:         0.5
 (Enter /opt/cluster/programs/g09/g09_d.01/g09/l302.exe)
 NPDir=0 NMtPBC=     1 NCelOv=     1 NCel=       1 NClECP=     1 NCelD=      1
         NCelK=      1 NCelE2=     1 NClLst=     1 CellRange=     0.0.
 One-electron integrals computed using PRISM.
   1 Symmetry operations used in ECPInt.
 ECPInt:  NShTT=    2775 NPrTT=    6207 LenC2=    2773 LenP2D=    5748.
 LDataN:  DoStor=T MaxTD1= 8 Len=  415
 NBasis=   234 RedAO= T EigKep=  5.46D-05  NBF=   234
 NBsUse=   234 1.00D-06 EigRej= -1.00D+00 NBFU=   234
 Precomputing XC quadrature grid using
 IXCGrd= 4 IRadAn=           0 IRanWt=          -1 IRanGd=           0 AccXCQ= 0.00D+00.
 Generated NRdTot=       0 NPtTot=           0 NUsed=           0 NTot=          32
 NSgBfM=   284   284   284   284   284 MxSgAt=     6 MxSgA2=     6.
 Leave Link  302 at Wed Aug 26 18:50:30 2020, MaxMem=  2097152000 cpu:         1.8
 (Enter /opt/cluster/programs/g09/g09_d.01/g09/l303.exe)
 DipDrv:  MaxL=1.
 Leave Link  303 at Wed Aug 26 18:50:30 2020, MaxMem=  2097152000 cpu:         0.2
 (Enter /opt/cluster/programs/g09/g09_d.01/g09/l401.exe)
 ExpMin= 7.60D-02 ExpMax= 1.17D+05 ExpMxC= 1.13D+03 IAcc=2 IRadAn=         4 AccDes= 0.00D+00
 Harris functional with IExCor=  419 and IRadAn=       4 diagonalized for initial guess.
 HarFok:  IExCor=  419 AccDes= 0.00D+00 IRadAn=         4 IDoV= 1 UseB2=F ITyADJ=14
 ICtDFT=  3500011 ScaDFX=  1.000000  1.000000  1.000000  1.000000
 FoFCou: FMM=F IPFlag=           0 FMFlag=      100000 FMFlg1=           0
         NFxFlg=           0 DoJE=T BraDBF=F KetDBF=T FulRan=T
         wScrn=  0.000000 ICntrl=     500 IOpCl=  0 I1Cent=   200000004 NGrid=           0
         NMat0=    1 NMatS0=      1 NMatT0=    0 NMatD0=    1 NMtDS0=    0 NMtDT0=    0
 Petite list used in FoFCou.
 Harris En= -115.657386972884    
 JPrj=0 DoOrth=F DoCkMO=F.
 Leave Link  401 at Wed Aug 26 18:50:30 2020, MaxMem=  2097152000 cpu:         3.3
 (Enter /opt/cluster/programs/g09/g09_d.01/g09/l502.exe)
 Closed shell SCF:
 Using DIIS extrapolation, IDIIS=  1040.
 Integral symmetry usage will be decided dynamically.
 Keep R1 ints in memory in canonical form, NReq=389840494.
 IVT=      264814 IEndB=      264814 NGot=  2097152000 MDV=  1718885927
 LenX=  1718885927 LenY=  1718804830
 Requested convergence on RMS density matrix=1.00D-08 within 128 cycles.
 Requested convergence on MAX density matrix=1.00D-06.
 Requested convergence on             energy=1.00D-06.
 No special actions if energy rises.
 FoFCou: FMM=F IPFlag=           0 FMFlag=           0 FMFlg1=           0
         NFxFlg=           0 DoJE=F BraDBF=F KetDBF=F FulRan=T
         wScrn=  0.000000 ICntrl=     600 IOpCl=  0 I1Cent=           0 NGrid=           0
         NMat0=    1 NMatS0=  27495 NMatT0=    0 NMatD0=    1 NMtDS0=    0 NMtDT0=    0
 Symmetry not used in FoFCou.
 Integral accuracy reduced to 1.0D-05 until final iterations.

 Cycle   1  Pass 0  IDiag  1:
 E= -115.205925942625    
 DIIS: error= 2.81D-02 at cycle   1 NSaved=   1.
 NSaved= 1 IEnMin= 1 EnMin= -115.205925942625     IErMin= 1 ErrMin= 2.81D-02
 ErrMax= 2.81D-02  0.00D+00 EMaxC= 1.00D-01 BMatC= 2.82D-01 BMatP= 2.82D-01
 IDIUse=3 WtCom= 7.19D-01 WtEn= 2.81D-01
 Coeff-Com:  0.100D+01
 Coeff-En:   0.100D+01
 Coeff:      0.100D+01
 Gap=     0.385 Goal=   None    Shift=    0.000
 GapD=    0.385 DampG=1.000 DampE=0.500 DampFc=0.5000 IDamp=-1.
 Damping current iteration by 5.00D-01
 RMSDP=1.64D-03 MaxDP=6.93D-02              OVMax= 2.06D-01

 Cycle   2  Pass 0  IDiag  1:
 E= -115.277518926710     Delta-E=       -0.071592984085 Rises=F Damp=T
 DIIS: error= 1.30D-02 at cycle   2 NSaved=   2.
 NSaved= 2 IEnMin= 2 EnMin= -115.277518926710     IErMin= 2 ErrMin= 1.30D-02
 ErrMax= 1.30D-02  0.00D+00 EMaxC= 1.00D-01 BMatC= 1.97D-02 BMatP= 2.82D-01
 IDIUse=3 WtCom= 8.70D-01 WtEn= 1.30D-01
 Coeff-Com: -0.797D-01 0.108D+01
 Coeff-En:   0.000D+00 0.100D+01
 Coeff:     -0.694D-01 0.107D+01
 Gap=     0.437 Goal=   None    Shift=    0.000
 RMSDP=4.17D-04 MaxDP=1.40D-02 DE=-7.16D-02 OVMax= 1.09D-01

 Cycle   3  Pass 0  IDiag  1:
 E= -115.352423963047     Delta-E=       -0.074905036337 Rises=F Damp=F
 DIIS: error= 4.28D-03 at cycle   3 NSaved=   3.
 NSaved= 3 IEnMin= 3 EnMin= -115.352423963047     IErMin= 3 ErrMin= 4.28D-03
 ErrMax= 4.28D-03  0.00D+00 EMaxC= 1.00D-01 BMatC= 3.49D-03 BMatP= 1.97D-02
 IDIUse=3 WtCom= 9.57D-01 WtEn= 4.28D-02
 Coeff-Com: -0.956D-01 0.244D+00 0.852D+00
 Coeff-En:   0.000D+00 0.000D+00 0.100D+01
 Coeff:     -0.915D-01 0.233D+00 0.858D+00
 Gap=     0.416 Goal=   None    Shift=    0.000
 RMSDP=1.11D-04 MaxDP=4.59D-03 DE=-7.49D-02 OVMax= 1.62D-02

 Cycle   4  Pass 0  IDiag  1:
 E= -115.354455805969     Delta-E=       -0.002031842922 Rises=F Damp=F
 DIIS: error= 1.96D-03 at cycle   4 NSaved=   4.
 NSaved= 4 IEnMin= 4 EnMin= -115.354455805969     IErMin= 4 ErrMin= 1.96D-03
 ErrMax= 1.96D-03  0.00D+00 EMaxC= 1.00D-01 BMatC= 3.51D-04 BMatP= 3.49D-03
 IDIUse=3 WtCom= 9.80D-01 WtEn= 1.96D-02
 Coeff-Com: -0.320D-01 0.538D-01 0.343D+00 0.635D+00
 Coeff-En:   0.000D+00 0.000D+00 0.000D+00 0.100D+01
 Coeff:     -0.314D-01 0.528D-01 0.337D+00 0.642D+00
 Gap=     0.413 Goal=   None    Shift=    0.000
 RMSDP=3.79D-05 MaxDP=1.98D-03 DE=-2.03D-03 OVMax= 5.29D-03

 Cycle   5  Pass 0  IDiag  1:
 E= -115.354764621508     Delta-E=       -0.000308815539 Rises=F Damp=F
 DIIS: error= 2.75D-04 at cycle   5 NSaved=   5.
 NSaved= 5 IEnMin= 5 EnMin= -115.354764621508     IErMin= 5 ErrMin= 2.75D-04
 ErrMax= 2.75D-04  0.00D+00 EMaxC= 1.00D-01 BMatC= 8.15D-06 BMatP= 3.51D-04
 IDIUse=3 WtCom= 9.97D-01 WtEn= 2.75D-03
 Coeff-Com: -0.367D-02 0.209D-02 0.478D-01 0.174D+00 0.780D+00
 Coeff-En:   0.000D+00 0.000D+00 0.000D+00 0.000D+00 0.100D+01
 Coeff:     -0.366D-02 0.209D-02 0.477D-01 0.173D+00 0.781D+00
 Gap=     0.414 Goal=   None    Shift=    0.000
 RMSDP=9.26D-06 MaxDP=2.80D-04 DE=-3.09D-04 OVMax= 7.88D-04

 Initial convergence to 1.0D-05 achieved.  Increase integral accuracy.
 Cycle   6  Pass 1  IDiag  1:
 E= -115.354765505385     Delta-E=       -0.000000883877 Rises=F Damp=F
 DIIS: error= 4.60D-05 at cycle   1 NSaved=   1.
 NSaved= 1 IEnMin= 1 EnMin= -115.354765505385     IErMin= 1 ErrMin= 4.60D-05
 ErrMax= 4.60D-05  0.00D+00 EMaxC= 1.00D-01 BMatC= 2.10D-07 BMatP= 2.10D-07
 IDIUse=1 WtCom= 1.00D+00 WtEn= 0.00D+00
 Coeff-Com:  0.100D+01
 Coeff:      0.100D+01
 Gap=     0.414 Goal=   None    Shift=    0.000
 RMSDP=9.26D-06 MaxDP=2.80D-04 DE=-8.84D-07 OVMax= 1.73D-04

 Cycle   7  Pass 1  IDiag  1:
 E= -115.354765790974     Delta-E=       -0.000000285588 Rises=F Damp=F
 DIIS: error= 1.48D-05 at cycle   2 NSaved=   2.
 NSaved= 2 IEnMin= 2 EnMin= -115.354765790974     IErMin= 2 ErrMin= 1.48D-05
 ErrMax= 1.48D-05  0.00D+00 EMaxC= 1.00D-01 BMatC= 1.48D-08 BMatP= 2.10D-07
 IDIUse=1 WtCom= 1.00D+00 WtEn= 0.00D+00
 Coeff-Com: -0.397D-01 0.104D+01
 Coeff:     -0.397D-01 0.104D+01
 Gap=     0.414 Goal=   None    Shift=    0.000
 RMSDP=7.59D-07 MaxDP=2.17D-05 DE=-2.86D-07 OVMax= 7.43D-05

 Cycle   8  Pass 1  IDiag  1:
 E= -115.354765816788     Delta-E=       -0.000000025814 Rises=F Damp=F
 DIIS: error= 5.27D-06 at cycle   3 NSaved=   3.
 NSaved= 3 IEnMin= 3 EnMin= -115.354765816788     IErMin= 3 ErrMin= 5.27D-06
 ErrMax= 5.27D-06  0.00D+00 EMaxC= 1.00D-01 BMatC= 4.35D-09 BMatP= 1.48D-08
 IDIUse=1 WtCom= 1.00D+00 WtEn= 0.00D+00
 Coeff-Com: -0.782D-01 0.301D+00 0.777D+00
 Coeff:     -0.782D-01 0.301D+00 0.777D+00
 Gap=     0.414 Goal=   None    Shift=    0.000
 RMSDP=2.46D-07 MaxDP=8.86D-06 DE=-2.58D-08 OVMax= 2.85D-05

 Cycle   9  Pass 1  IDiag  1:
 E= -115.354765820408     Delta-E=       -0.000000003619 Rises=F Damp=F
 DIIS: error= 2.64D-06 at cycle   4 NSaved=   4.
 NSaved= 4 IEnMin= 4 EnMin= -115.354765820408     IErMin= 4 ErrMin= 2.64D-06
 ErrMax= 2.64D-06  0.00D+00 EMaxC= 1.00D-01 BMatC= 7.52D-10 BMatP= 4.35D-09
 IDIUse=1 WtCom= 1.00D+00 WtEn= 0.00D+00
 Coeff-Com: -0.278D-01-0.166D-01 0.305D+00 0.740D+00
 Coeff:     -0.278D-01-0.166D-01 0.305D+00 0.740D+00
 Gap=     0.414 Goal=   None    Shift=    0.000
 RMSDP=7.28D-08 MaxDP=3.27D-06 DE=-3.62D-09 OVMax= 1.05D-05

 Cycle  10  Pass 1  IDiag  1:
 E= -115.354765821031     Delta-E=       -0.000000000623 Rises=F Damp=F
 DIIS: error= 2.83D-07 at cycle   5 NSaved=   5.
 NSaved= 5 IEnMin= 5 EnMin= -115.354765821031     IErMin= 5 ErrMin= 2.83D-07
 ErrMax= 2.83D-07  0.00D+00 EMaxC= 1.00D-01 BMatC= 1.93D-11 BMatP= 7.52D-10
 IDIUse=1 WtCom= 1.00D+00 WtEn= 0.00D+00
 Coeff-Com:  0.201D-02-0.225D-01-0.225D-01 0.126D+00 0.917D+00
 Coeff:      0.201D-02-0.225D-01-0.225D-01 0.126D+00 0.917D+00
 Gap=     0.414 Goal=   None    Shift=    0.000
 RMSDP=1.73D-08 MaxDP=5.18D-07 DE=-6.23D-10 OVMax= 1.87D-06

 Cycle  11  Pass 1  IDiag  1:
 E= -115.354765821047     Delta-E=       -0.000000000016 Rises=F Damp=F
 DIIS: error= 3.47D-08 at cycle   6 NSaved=   6.
 NSaved= 6 IEnMin= 6 EnMin= -115.354765821047     IErMin= 6 ErrMin= 3.47D-08
 ErrMax= 3.47D-08  0.00D+00 EMaxC= 1.00D-01 BMatC= 1.07D-13 BMatP= 1.93D-11
 IDIUse=1 WtCom= 1.00D+00 WtEn= 0.00D+00
 Coeff-Com:  0.160D-03 0.123D-02-0.326D-02-0.125D-01-0.450D-01 0.106D+01
 Coeff:      0.160D-03 0.123D-02-0.326D-02-0.125D-01-0.450D-01 0.106D+01
 Gap=     0.414 Goal=   None    Shift=    0.000
 RMSDP=2.33D-09 MaxDP=6.36D-08 DE=-1.62D-11 OVMax= 1.93D-07

 SCF Done:  E(RB2PLYPD3) =  -115.354765821     A.U. after   11 cycles
            NFock= 11  Conv=0.23D-08     -V/T= 1.9945
 KE= 1.159982487024D+02 PE=-3.551915183198D+02 EE= 8.204900157216D+01
 Leave Link  502 at Wed Aug 26 18:50:44 2020, MaxMem=  2097152000 cpu:        65.2
 (Enter /opt/cluster/programs/g09/g09_d.01/g09/l801.exe)
 DoSCS=T DFT=T ScalE2(SS,OS)=  0.270000  0.270000
 ExpMin= 7.60D-02 ExpMax= 1.17D+05 ExpMxC= 1.13D+03 IAcc=3 IRadAn=         5 AccDes= 0.00D+00
 HarFok:  IExCor=  205 AccDes= 0.00D+00 IRadAn=         5 IDoV=-2 UseB2=F ITyADJ=14
 ICtDFT= 12500011 ScaDFX=  1.000000  1.000000  1.000000  1.000000
 DSYEVD-2 returned Info=        1739 IAlg= 4 N=    57 NDim=    57 NE2=    36788970 trying  DSYEV.
 Largest valence mixing into a core orbital is  1.21D-04
 Largest core mixing into a valence orbital is  1.54D-05
 Range of M.O.s used for correlation:     3   234
 NBasis=   234 NAE=     9 NBE=     9 NFC=     2 NFV=     0
 NROrb=    232 NOA=     7 NOB=     7 NVA=   225 NVB=   225

 **** Warning!!: The largest alpha MO coefficient is  0.25429541D+02

 Leave Link  801 at Wed Aug 26 18:50:44 2020, MaxMem=  2097152000 cpu:         0.6
 (Enter /opt/cluster/programs/g09/g09_d.01/g09/l906.exe)
 DoSCS=T DFT=T ScalE2(SS,OS)=  0.270000  0.270000
 FulOut=F Deriv=F AODrv=F NAtomX=     6
   MMem=        3646  MDisk=           7 MDiskD=           7
  W3Min=      447300 MinDsk=     1090093 NBas6D=         284
 NBas2D=       41310    NTT=       40470    LW2=     4508827
    MDV=  2096872254 MDiskM=       16391 NBas2p=       41304
 Fully in-core method, ICMem=  1722292712.
 IMap=   1   2   3   4   5   6   7
 JobTyp=1 Pass  1 fully in-core, NPsUse=  8.
 Compute canonical integrals.
 FoFCou: FMM=F IPFlag=           0 FMFlag=           0 FMFlg1=           0
         NFxFlg=           0 DoJE=F BraDBF=F KetDBF=F FulRan=T
         wScrn=  0.000000 ICntrl=     600 IOpCl=  1 I1Cent=           0 NGrid=           0
         NMat0=    1 NMatS0=  41310 NMatT0=    0 NMatD0=    1 NMtDS0=    0 NMtDT0=    0
 Symmetry not used in FoFCou.
 Spin components of T(2) and E(2):
     alpha-alpha T2 =       0.1915724438D-01 E2=     -0.1613737412D-01
     alpha-beta  T2 =       0.1252950246D+00 E2=     -0.1115242455D+00
     beta-beta   T2 =       0.1915724438D-01 E2=     -0.1613737412D-01
 The integrals were generated   1 times.
 E2(B2PLYPD3) =    -0.1437989937D+00 E(B2PLYPD3) =    -0.11549856481477D+03
 Leave Link  906 at Wed Aug 26 18:50:59 2020, MaxMem=  2097152000 cpu:       118.2
 (Enter /opt/cluster/programs/g09/g09_d.01/g09/l601.exe)
 Copying SCF densities to generalized density rwf, IOpCl= 0 IROHF=0.

 **********************************************************************

            Population analysis using the SCF density.

 **********************************************************************

 Orbital symmetries:
       Occupied  (A) (A) (A) (A) (A) (A) (A) (A) (A)
       Virtual   (A) (A) (A) (A) (A) (A) (A) (A) (A) (A) (A) (A)
                 (A) (A) (A) (A) (A) (A) (A) (A) (A) (A) (A) (A)
                 (A) (A) (A) (A) (A) (A) (A) (A) (A) (A) (A) (A)
                 (A) (A) (A) (A) (A) (A) (A) (A) (A) (A) (A) (A)
                 (A) (A) (A) (A) (A) (A) (A) (A) (A) (A) (A) (A)
                 (A) (A) (A) (A) (A) (A) (A) (A) (A) (A) (A) (A)
                 (A) (A) (A) (A) (A) (A) (A) (A) (A) (A) (A) (A)
                 (A) (A) (A) (A) (A) (A) (A) (A) (A) (A) (A) (A)
                 (A) (A) (A) (A) (A) (A) (A) (A) (A) (A) (A) (A)
                 (A) (A) (A) (A) (A) (A) (A) (A) (A) (A) (A) (A)
                 (A) (A) (A) (A) (A) (A) (A) (A) (A) (A) (A) (A)
                 (A) (A) (A) (A) (A) (A) (A) (A) (A) (A) (A) (A)
                 (A) (A) (A) (A) (A) (A) (A) (A) (A) (A) (A) (A)
                 (A) (A) (A) (A) (A) (A) (A) (A) (A) (A) (A) (A)
                 (A) (A) (A) (A) (A) (A) (A) (A) (A) (A) (A) (A)
                 (A) (A) (A) (A) (A) (A) (A) (A) (A) (A) (A) (A)
                 (A) (A) (A) (A) (A) (A) (A) (A) (A) (A) (A) (A)
                 (A) (A) (A) (A) (A) (A) (A) (A) (A) (A) (A) (A)
                 (A) (A) (A) (A) (A) (A) (A) (A) (A)
 The electronic state is 1-A.
 Alpha  occ. eigenvalues --  -19.68925 -10.68065  -1.25881  -0.80862  -0.61526
 Alpha  occ. eigenvalues --   -0.51952  -0.49309  -0.42596  -0.36178
 Alpha virt. eigenvalues --    0.05211   0.09424   0.11281   0.11976   0.14735
 Alpha virt. eigenvalues --    0.16402   0.17361   0.28678   0.31044   0.32614
 Alpha virt. eigenvalues --    0.36612   0.37050   0.40380   0.41410   0.43233
 Alpha virt. eigenvalues --    0.51721   0.52740   0.56761   0.61032   0.66476
 Alpha virt. eigenvalues --    0.68250   0.71551   0.72649   0.77358   0.80076
 Alpha virt. eigenvalues --    0.83372   0.86871   0.87562   0.92885   0.96396
 Alpha virt. eigenvalues --    1.02659   1.03421   1.05624   1.07602   1.11221
 Alpha virt. eigenvalues --    1.12673   1.20996   1.24626   1.33403   1.36525
 Alpha virt. eigenvalues --    1.39241   1.41898   1.45234   1.47459   1.50664
 Alpha virt. eigenvalues --    1.78880   1.82772   1.85575   1.87562   1.91130
 Alpha virt. eigenvalues --    1.92806   1.93619   1.95159   1.99513   2.02646
 Alpha virt. eigenvalues --    2.04216   2.10299   2.16287   2.18885   2.19679
 Alpha virt. eigenvalues --    2.23125   2.31271   2.33683   2.35081   2.42410
 Alpha virt. eigenvalues --    2.47008   2.49423   2.59183   2.61149   2.62614
 Alpha virt. eigenvalues --    2.63364   2.70719   2.72854   2.75807   2.78762
 Alpha virt. eigenvalues --    2.84554   2.85634   2.88066   2.95699   2.98334
 Alpha virt. eigenvalues --    3.02845   3.06793   3.08670   3.16474   3.18288
 Alpha virt. eigenvalues --    3.23454   3.30081   3.37960   3.42157   3.48791
 Alpha virt. eigenvalues --    3.52319   3.59255   3.73227   3.84078   3.85525
 Alpha virt. eigenvalues --    3.93858   3.99372   4.07258   4.11843   4.15642
 Alpha virt. eigenvalues --    4.16689   4.23308   4.32582   4.43531   4.44906
 Alpha virt. eigenvalues --    4.52345   4.69924   4.84281   5.10425   5.26935
 Alpha virt. eigenvalues --    5.35436   5.43094   5.49772   5.66414   5.69958
 Alpha virt. eigenvalues --    5.74158   5.79645   5.82194   5.87990   5.89912
 Alpha virt. eigenvalues --    5.91648   5.94259   5.96012   6.00155   6.07053
 Alpha virt. eigenvalues --    6.15275   6.17449   6.19179   6.22590   6.31160
 Alpha virt. eigenvalues --    6.32358   6.35245   6.41068   6.46604   6.53410
 Alpha virt. eigenvalues --    6.58492   6.65540   6.69019   6.71039   6.89050
 Alpha virt. eigenvalues --    6.93470   7.02003   7.12228   7.17859   7.20428
 Alpha virt. eigenvalues --    7.26114   7.30753   7.35883   7.37852   7.42193
 Alpha virt. eigenvalues --    7.44804   7.52426   7.58681   7.67419   7.70363
 Alpha virt. eigenvalues --    7.73114   7.73732   7.76811   7.81251   7.85249
 Alpha virt. eigenvalues --    7.88979   7.95711   8.07701   8.10245   8.12813
 Alpha virt. eigenvalues --    8.25934   8.27241   8.29625   8.36352   8.38546
 Alpha virt. eigenvalues --    8.43857   8.45581   8.48786   8.52993   8.55897
 Alpha virt. eigenvalues --    8.71429   8.79684   8.85068   8.87610   8.90826
 Alpha virt. eigenvalues --    8.94987   9.07369   9.17057   9.40214   9.44496
 Alpha virt. eigenvalues --    9.54368   9.58862   9.70814   9.79305   9.87059
 Alpha virt. eigenvalues --    9.90520   9.99035   9.99648  10.11575  10.23361
 Alpha virt. eigenvalues --   10.36750  10.39669  10.46667  10.69710  11.09545
 Alpha virt. eigenvalues --   11.12983  11.38161  11.50784  11.74025  11.87132
 Alpha virt. eigenvalues --   11.91777  12.05135  12.16142  12.31284  12.41367
 Alpha virt. eigenvalues --   12.68183  12.86150  13.40925  13.47608  13.55846
 Alpha virt. eigenvalues --   13.93665  14.23232  14.83279  16.33779  16.59909
 Alpha virt. eigenvalues --   18.26153  28.99628  49.16379 148.56385 255.03539
          Condensed to atoms (all electrons):
               1          2          3          4          5          6
     1  C    4.480287   0.251311   0.419344   0.421627   0.401002  -0.038124
     2  O    0.251311   7.621632  -0.050518  -0.050403  -0.040028   0.506401
     3  H    0.419344  -0.050518   0.662226  -0.045986  -0.025493  -0.001746
     4  H    0.421627  -0.050403  -0.045986   0.645431  -0.033144  -0.000389
     5  H    0.401002  -0.040028  -0.025493  -0.033144   0.611794   0.004698
     6  H   -0.038124   0.506401  -0.001746  -0.000389   0.004698   0.541529
 Mulliken charges:
               1
     1  C    0.064554
     2  O   -0.238394
     3  H    0.042173
     4  H    0.062865
     5  H    0.081172
     6  H   -0.012369
 Sum of Mulliken charges =   0.00000
 Mulliken charges with hydrogens summed into heavy atoms:
               1
     1  C    0.250763
     2  O   -0.250763
 Electronic spatial extent (au):  <R**2>=             83.9346
 Charge=              0.0000 electrons
 Dipole moment (field-independent basis, Debye):
    X=              1.1992    Y=             -1.2421    Z=              0.2118  Tot=              1.7395
 Quadrupole moment (field-independent basis, Debye-Ang):
   XX=            -13.7700   YY=            -12.0205   ZZ=            -13.5006
   XY=              1.7199   XZ=             -0.1517   YZ=             -0.1549
 Traceless Quadrupole moment (field-independent basis, Debye-Ang):
   XX=             -0.6729   YY=              1.0765   ZZ=             -0.4036
   XY=              1.7199   XZ=             -0.1517   YZ=             -0.1549
 Octapole moment (field-independent basis, Debye-Ang**2):
  XXX=             -4.6735  YYY=             -0.3795  ZZZ=              0.9596  XYY=             -1.1779
  XXY=             -1.8361  XXZ=              0.3171  XZZ=             -0.6634  YZZ=             -0.6824
  YYZ=             -0.5412  XYZ=              0.0770
 Hexadecapole moment (field-independent basis, Debye-Ang**3):
 XXXX=            -63.4285 YYYY=            -20.6959 ZZZZ=            -20.1117 XXXY=              2.8605
 XXXZ=              0.0282 YYYX=              2.3654 YYYZ=             -0.2801 ZZZX=              0.6745
 ZZZY=             -0.2263 XXYY=            -13.2393 XXZZ=            -14.4365 YYZZ=             -6.8725
 XXYZ=             -0.1832 YYXZ=             -0.7183 ZZXY=              0.0300
 N-N= 4.178950222411D+01 E-N=-3.551915180060D+02  KE= 1.159982487024D+02
 Leave Link  601 at Wed Aug 26 18:50:59 2020, MaxMem=  2097152000 cpu:         0.4
 (Enter /opt/cluster/programs/g09/g09_d.01/g09/l9999.exe)
 1\1\GINC-NODE37\SP\RB2PLYPD3-FC\def2QZVP\C1H4O1\BOITTIER\26-Aug-2020\0
 \\#p B2PLYPD3/Def2QZVP\\methanol\\0,1\C,0,-5.195697,-1.260323,0.923095
 \O,0,-3.758873,-1.111335,0.83862\H,0,-5.476818,-2.29364,0.436481\H,0,-
 5.611189,-0.462451,0.327735\H,0,-5.408552,-1.131841,2.073578\H,0,-3.59
 7749,-1.286481,0.223164\\Version=ES64L-G09RevD.01\State=1-A\HF=-115.35
 47658\MP2=-115.4985648\RMSD=2.331e-09\PG=C01 [X(C1H4O1)]\\@


 THE VALUE OF PHILOSOPHY IS, IN FACT, TO BE SOUGHT LARGELY IN ITS
 VERY UNCERTAINTY.  THE MAN WHO HAS NO TINCTURE OF PHILOSOPHY GOES
 THROUGH LIFE IMPRISONED IN THE PREJUDICES DERIVED FROM COMMON SENSE,
 FROM THE HABITUAL BELIEFS OF HIS AGE OR HIS NATION, AND FROM
 CONVICTIONS WHICH HAVE GROWN UP IN HIS MIND WITHOUT THE CO-OPERATION
 OR CONSENT OF HIS DELIBERATE REASON.  TO SUCH A MAN THE WORLD TENDS
 TO BE DEFINITE, FINITE, OBVIOUS; COMMON OBJECTS ROUSE NO QUESTIONS,
 AND UNFAMILIAR POSSIBILITIES ARE CONTEMPTUOUSLY REJECTED.

                             -- BERTRAND RUSSELL
 Job cpu time:       0 days  0 hours  3 minutes 11.4 seconds.
 File lengths (MBytes):  RWF=     23 Int=      0 D2E=      0 Chk=      4 Scr=      1
 Normal termination of Gaussian 09 at Wed Aug 26 18:50:59 2020.
