 Entering Gaussian System, Link 0=/opt/cluster/programs/g09/g09_d.01/g09//g09
 Input=/home/boittier/MDCM/nms_sampling/methanol_geom.xyz.dir/energies/methanol_1890_energy.com
 Output=/scratch/boittier/methanol_1890_energy/methanol_1890_energy.out
 Initial command:
 /opt/cluster/programs/g09/g09_d.01/g09/l1.exe "/scratch/boittier/methanol_1890_energy/Gau-174804.inp" -scrdir="/scratch/boittier/methanol_1890_energy/"
 Entering Link 1 = /opt/cluster/programs/g09/g09_d.01/g09/l1.exe PID=    174805.
  
 Copyright (c) 1988,1990,1992,1993,1995,1998,2003,2009,2013,
            Gaussian, Inc.  All Rights Reserved.
  
 This is part of the Gaussian(R) 09 program.  It is based on
 the Gaussian(R) 03 system (copyright 2003, Gaussian, Inc.),
 the Gaussian(R) 98 system (copyright 1998, Gaussian, Inc.),
 the Gaussian(R) 94 system (copyright 1995, Gaussian, Inc.),
 the Gaussian 92(TM) system (copyright 1992, Gaussian, Inc.),
 the Gaussian 90(TM) system (copyright 1990, Gaussian, Inc.),
 the Gaussian 88(TM) system (copyright 1988, Gaussian, Inc.),
 the Gaussian 86(TM) system (copyright 1986, Carnegie Mellon
 University), and the Gaussian 82(TM) system (copyright 1983,
 Carnegie Mellon University). Gaussian is a federally registered
 trademark of Gaussian, Inc.
  
 This software contains proprietary and confidential information,
 including trade secrets, belonging to Gaussian, Inc.
  
 This software is provided under written license and may be
 used, copied, transmitted, or stored only in accord with that
 written license.
  
 The following legend is applicable only to US Government
 contracts under FAR:
  
                    RESTRICTED RIGHTS LEGEND
  
 Use, reproduction and disclosure by the US Government is
 subject to restrictions as set forth in subparagraphs (a)
 and (c) of the Commercial Computer Software - Restricted
 Rights clause in FAR 52.227-19.
  
 Gaussian, Inc.
 340 Quinnipiac St., Bldg. 40, Wallingford CT 06492
  
  
 ---------------------------------------------------------------
 Warning -- This program may not be used in any manner that
 competes with the business of Gaussian, Inc. or will provide
 assistance to any competitor of Gaussian, Inc.  The licensee
 of this program is prohibited from giving any competitor of
 Gaussian, Inc. access to this program.  By using this program,
 the user acknowledges that Gaussian, Inc. is engaged in the
 business of creating and licensing software in the field of
 computational chemistry and represents and warrants to the
 licensee that it is not a competitor of Gaussian, Inc. and that
 it will not use this program in any manner prohibited above.
 ---------------------------------------------------------------
  

 Cite this work as:
 Gaussian 09, Revision D.01,
 M. J. Frisch, G. W. Trucks, H. B. Schlegel, G. E. Scuseria, 
 M. A. Robb, J. R. Cheeseman, G. Scalmani, V. Barone, B. Mennucci, 
 G. A. Petersson, H. Nakatsuji, M. Caricato, X. Li, H. P. Hratchian, 
 A. F. Izmaylov, J. Bloino, G. Zheng, J. L. Sonnenberg, M. Hada, 
 M. Ehara, K. Toyota, R. Fukuda, J. Hasegawa, M. Ishida, T. Nakajima, 
 Y. Honda, O. Kitao, H. Nakai, T. Vreven, J. A. Montgomery, Jr., 
 J. E. Peralta, F. Ogliaro, M. Bearpark, J. J. Heyd, E. Brothers, 
 K. N. Kudin, V. N. Staroverov, T. Keith, R. Kobayashi, J. Normand, 
 K. Raghavachari, A. Rendell, J. C. Burant, S. S. Iyengar, J. Tomasi, 
 M. Cossi, N. Rega, J. M. Millam, M. Klene, J. E. Knox, J. B. Cross, 
 V. Bakken, C. Adamo, J. Jaramillo, R. Gomperts, R. E. Stratmann, 
 O. Yazyev, A. J. Austin, R. Cammi, C. Pomelli, J. W. Ochterski, 
 R. L. Martin, K. Morokuma, V. G. Zakrzewski, G. A. Voth, 
 P. Salvador, J. J. Dannenberg, S. Dapprich, A. D. Daniels, 
 O. Farkas, J. B. Foresman, J. V. Ortiz, J. Cioslowski, 
 and D. J. Fox, Gaussian, Inc., Wallingford CT, 2013.
 
 ******************************************
 Gaussian 09:  ES64L-G09RevD.01 24-Apr-2013
                26-Aug-2020 
 ******************************************
 %chk=/home/boittier/MDCM/nms_sampling/methanol_geom.xyz.dir/methanol_1890.chk
 %nproc=8
 Will use up to    8 processors via shared memory.
 %mem=16000MB
 --------------------
 #p B2PLYPD3/Def2QZVP
 --------------------
 1/38=1/1;
 2/12=2,17=6,18=5,40=1/2;
 3/5=45,7=101,11=9,16=1,25=1,30=1,74=-60/1,2,3;
 4//1;
 5/5=2,38=5/2;
 8/10=1/1;
 9/16=-3/6;
 6/7=2,8=2,9=2,10=2/1;
 99/5=1,9=1/99;
 Leave Link    1 at Wed Aug 26 14:15:49 2020, MaxMem=  2097152000 cpu:         0.2
 (Enter /opt/cluster/programs/g09/g09_d.01/g09/l101.exe)
 --------
 methanol
 --------
 Symbolic Z-matrix:
 Charge =  0 Multiplicity = 1
 C                    -5.18318  -1.249     0.91344 
 O                    -3.76613  -1.12043   0.84705 
 H                    -5.52123  -2.29806   0.51557 
 H                    -5.62392  -0.47662   0.36849 
 H                    -5.42428  -1.18287   2.04424 
 H                    -3.55118  -1.20789   0.1122 
 
 NAtoms=      6 NQM=        6 NQMF=       0 NMMI=      0 NMMIF=      0
                NMic=       0 NMicF=      0.
                    Isotopes and Nuclear Properties:
 (Nuclear quadrupole moments (NQMom) in fm**2, nuclear magnetic moments (NMagM)
  in nuclear magnetons)

  Atom         1           2           3           4           5           6
 IAtWgt=          12          16           1           1           1           1
 AtmWgt=  12.0000000  15.9949146   1.0078250   1.0078250   1.0078250   1.0078250
 NucSpn=           0           0           1           1           1           1
 AtZEff=   0.0000000   0.0000000   0.0000000   0.0000000   0.0000000   0.0000000
 NQMom=    0.0000000   0.0000000   0.0000000   0.0000000   0.0000000   0.0000000
 NMagM=    0.0000000   0.0000000   2.7928460   2.7928460   2.7928460   2.7928460
 AtZNuc=   6.0000000   8.0000000   1.0000000   1.0000000   1.0000000   1.0000000
 Leave Link  101 at Wed Aug 26 14:15:49 2020, MaxMem=  2097152000 cpu:         0.6
 (Enter /opt/cluster/programs/g09/g09_d.01/g09/l202.exe)
                          Input orientation:                          
 ---------------------------------------------------------------------
 Center     Atomic      Atomic             Coordinates (Angstroms)
 Number     Number       Type             X           Y           Z
 ---------------------------------------------------------------------
      1          6           0       -5.183180   -1.249001    0.913441
      2          8           0       -3.766126   -1.120433    0.847049
      3          1           0       -5.521234   -2.298058    0.515571
      4          1           0       -5.623923   -0.476615    0.368486
      5          1           0       -5.424277   -1.182865    2.044236
      6          1           0       -3.551178   -1.207891    0.112198
 ---------------------------------------------------------------------
                    Distance matrix (angstroms):
                    1          2          3          4          5
     1  C    0.000000
     2  O    1.424423   0.000000
     3  H    1.171794   2.139412   0.000000
     4  H    1.042982   2.023594   1.830255   0.000000
     5  H    1.158101   2.046123   1.894696   1.829422   0.000000
     6  H    1.818546   0.770622   2.287421   2.212853   2.691077
                    6
     6  H    0.000000
 Stoichiometry    CH4O
 Framework group  C1[X(CH4O)]
 Deg. of freedom    12
 Full point group                 C1      NOp   1
 Largest Abelian subgroup         C1      NOp   1
 Largest concise Abelian subgroup C1      NOp   1
                         Standard orientation:                         
 ---------------------------------------------------------------------
 Center     Atomic      Atomic             Coordinates (Angstroms)
 Number     Number       Type             X           Y           Z
 ---------------------------------------------------------------------
      1          6           0        0.667905   -0.017958    0.023266
      2          8           0       -0.751478    0.094022   -0.019064
      3          1           0        1.051876   -0.720819   -0.832102
      4          1           0        0.956726   -0.369823    0.961660
      5          1           0        1.046402    1.057713   -0.178904
      6          1           0       -1.050611   -0.611501    0.062266
 ---------------------------------------------------------------------
 Rotational constants (GHZ):    127.8608654     24.9988497     24.2768299
 Leave Link  202 at Wed Aug 26 14:15:49 2020, MaxMem=  2097152000 cpu:         0.1
 (Enter /opt/cluster/programs/g09/g09_d.01/g09/l301.exe)
 Standard basis: def2QZVP (5D, 7F)
 Ernie: Thresh=  0.10000D-02 Tol=  0.10000D-05 Strict=F.
 There are   284 symmetry adapted cartesian basis functions of A   symmetry.
 There are   234 symmetry adapted basis functions of A   symmetry.
   234 basis functions,   336 primitive gaussians,   284 cartesian basis functions
     9 alpha electrons        9 beta electrons
       nuclear repulsion energy        41.2315931414 Hartrees.
 IExCor=  419 DFT=T Ex+Corr=B2PLYPD3 ExCW=0 ScaHFX=  0.530000
 ScaDFX=  0.470000  0.470000  0.730000  0.730000 ScalE2=  0.270000  0.270000
 IRadAn=      0 IRanWt=     -1 IRanGd=            0 ICorTp=0 IEmpDi=141
 NAtoms=    6 NActive=    6 NUniq=    6 SFac= 1.00D+00 NAtFMM=   60 NAOKFM=F Big=F
 Integral buffers will be    131072 words long.
 Regular integral format.
 Two-electron integral symmetry is turned on.
 R6Disp:  Grimme-D3(BJ) Dispersion energy=       -0.0013137582 Hartrees.
 Nuclear repulsion after empirical dispersion term =       41.2302793833 Hartrees.
 Leave Link  301 at Wed Aug 26 14:15:50 2020, MaxMem=  2097152000 cpu:         0.4
 (Enter /opt/cluster/programs/g09/g09_d.01/g09/l302.exe)
 NPDir=0 NMtPBC=     1 NCelOv=     1 NCel=       1 NClECP=     1 NCelD=      1
         NCelK=      1 NCelE2=     1 NClLst=     1 CellRange=     0.0.
 One-electron integrals computed using PRISM.
   1 Symmetry operations used in ECPInt.
 ECPInt:  NShTT=    2775 NPrTT=    6207 LenC2=    2774 LenP2D=    5744.
 LDataN:  DoStor=T MaxTD1= 8 Len=  415
 NBasis=   234 RedAO= T EigKep=  8.71D-05  NBF=   234
 NBsUse=   234 1.00D-06 EigRej= -1.00D+00 NBFU=   234
 Precomputing XC quadrature grid using
 IXCGrd= 4 IRadAn=           0 IRanWt=          -1 IRanGd=           0 AccXCQ= 0.00D+00.
 Generated NRdTot=       0 NPtTot=           0 NUsed=           0 NTot=          32
 NSgBfM=   284   284   284   284   284 MxSgAt=     6 MxSgA2=     6.
 Leave Link  302 at Wed Aug 26 14:15:50 2020, MaxMem=  2097152000 cpu:         2.3
 (Enter /opt/cluster/programs/g09/g09_d.01/g09/l303.exe)
 DipDrv:  MaxL=1.
 Leave Link  303 at Wed Aug 26 14:15:50 2020, MaxMem=  2097152000 cpu:         0.3
 (Enter /opt/cluster/programs/g09/g09_d.01/g09/l401.exe)
 ExpMin= 7.60D-02 ExpMax= 1.17D+05 ExpMxC= 1.13D+03 IAcc=2 IRadAn=         4 AccDes= 0.00D+00
 Harris functional with IExCor=  419 and IRadAn=       4 diagonalized for initial guess.
 HarFok:  IExCor=  419 AccDes= 0.00D+00 IRadAn=         4 IDoV= 1 UseB2=F ITyADJ=14
 ICtDFT=  3500011 ScaDFX=  1.000000  1.000000  1.000000  1.000000
 FoFCou: FMM=F IPFlag=           0 FMFlag=      100000 FMFlg1=           0
         NFxFlg=           0 DoJE=T BraDBF=F KetDBF=T FulRan=T
         wScrn=  0.000000 ICntrl=     500 IOpCl=  0 I1Cent=   200000004 NGrid=           0
         NMat0=    1 NMatS0=      1 NMatT0=    0 NMatD0=    1 NMtDS0=    0 NMtDT0=    0
 Petite list used in FoFCou.
 Harris En= -115.770434592310    
 JPrj=0 DoOrth=F DoCkMO=F.
 Leave Link  401 at Wed Aug 26 14:15:50 2020, MaxMem=  2097152000 cpu:         4.1
 (Enter /opt/cluster/programs/g09/g09_d.01/g09/l502.exe)
 Closed shell SCF:
 Using DIIS extrapolation, IDIIS=  1040.
 Integral symmetry usage will be decided dynamically.
 Keep R1 ints in memory in canonical form, NReq=389840494.
 IVT=      264814 IEndB=      264814 NGot=  2097152000 MDV=  1718885927
 LenX=  1718885927 LenY=  1718804830
 Requested convergence on RMS density matrix=1.00D-08 within 128 cycles.
 Requested convergence on MAX density matrix=1.00D-06.
 Requested convergence on             energy=1.00D-06.
 No special actions if energy rises.
 FoFCou: FMM=F IPFlag=           0 FMFlag=           0 FMFlg1=           0
         NFxFlg=           0 DoJE=F BraDBF=F KetDBF=F FulRan=T
         wScrn=  0.000000 ICntrl=     600 IOpCl=  0 I1Cent=           0 NGrid=           0
         NMat0=    1 NMatS0=  27495 NMatT0=    0 NMatD0=    1 NMtDS0=    0 NMtDT0=    0
 Symmetry not used in FoFCou.
 Integral accuracy reduced to 1.0D-05 until final iterations.

 Cycle   1  Pass 0  IDiag  1:
 E= -115.377507726615    
 DIIS: error= 2.45D-02 at cycle   1 NSaved=   1.
 NSaved= 1 IEnMin= 1 EnMin= -115.377507726615     IErMin= 1 ErrMin= 2.45D-02
 ErrMax= 2.45D-02  0.00D+00 EMaxC= 1.00D-01 BMatC= 2.16D-01 BMatP= 2.16D-01
 IDIUse=3 WtCom= 7.55D-01 WtEn= 2.45D-01
 Coeff-Com:  0.100D+01
 Coeff-En:   0.100D+01
 Coeff:      0.100D+01
 Gap=     0.347 Goal=   None    Shift=    0.000
 GapD=    0.347 DampG=1.000 DampE=0.500 DampFc=0.5000 IDamp=-1.
 Damping current iteration by 5.00D-01
 RMSDP=1.45D-03 MaxDP=5.63D-02              OVMax= 1.69D-01

 Cycle   2  Pass 0  IDiag  1:
 E= -115.434128459167     Delta-E=       -0.056620732552 Rises=F Damp=T
 DIIS: error= 1.18D-02 at cycle   2 NSaved=   2.
 NSaved= 2 IEnMin= 2 EnMin= -115.434128459167     IErMin= 2 ErrMin= 1.18D-02
 ErrMax= 1.18D-02  0.00D+00 EMaxC= 1.00D-01 BMatC= 1.87D-02 BMatP= 2.16D-01
 IDIUse=3 WtCom= 8.82D-01 WtEn= 1.18D-01
 Coeff-Com: -0.107D+00 0.111D+01
 Coeff-En:   0.000D+00 0.100D+01
 Coeff:     -0.948D-01 0.109D+01
 Gap=     0.436 Goal=   None    Shift=    0.000
 RMSDP=3.50D-04 MaxDP=1.02D-02 DE=-5.66D-02 OVMax= 9.37D-02

 Cycle   3  Pass 0  IDiag  1:
 E= -115.490921984764     Delta-E=       -0.056793525597 Rises=F Damp=F
 DIIS: error= 4.55D-03 at cycle   3 NSaved=   3.
 NSaved= 3 IEnMin= 3 EnMin= -115.490921984764     IErMin= 3 ErrMin= 4.55D-03
 ErrMax= 4.55D-03  0.00D+00 EMaxC= 1.00D-01 BMatC= 3.29D-03 BMatP= 1.87D-02
 IDIUse=3 WtCom= 9.54D-01 WtEn= 4.55D-02
 Coeff-Com: -0.110D+00 0.269D+00 0.842D+00
 Coeff-En:   0.000D+00 0.000D+00 0.100D+01
 Coeff:     -0.105D+00 0.256D+00 0.849D+00
 Gap=     0.415 Goal=   None    Shift=    0.000
 RMSDP=1.07D-04 MaxDP=4.25D-03 DE=-5.68D-02 OVMax= 1.40D-02

 Cycle   4  Pass 0  IDiag  1:
 E= -115.492750408199     Delta-E=       -0.001828423436 Rises=F Damp=F
 DIIS: error= 1.45D-03 at cycle   4 NSaved=   4.
 NSaved= 4 IEnMin= 4 EnMin= -115.492750408199     IErMin= 4 ErrMin= 1.45D-03
 ErrMax= 1.45D-03  0.00D+00 EMaxC= 1.00D-01 BMatC= 3.58D-04 BMatP= 3.29D-03
 IDIUse=3 WtCom= 9.85D-01 WtEn= 1.45D-02
 Coeff-Com: -0.380D-01 0.654D-01 0.352D+00 0.620D+00
 Coeff-En:   0.000D+00 0.000D+00 0.000D+00 0.100D+01
 Coeff:     -0.374D-01 0.644D-01 0.347D+00 0.626D+00
 Gap=     0.413 Goal=   None    Shift=    0.000
 RMSDP=3.47D-05 MaxDP=1.77D-03 DE=-1.83D-03 OVMax= 4.99D-03

 Cycle   5  Pass 0  IDiag  1:
 E= -115.493048617651     Delta-E=       -0.000298209452 Rises=F Damp=F
 DIIS: error= 1.92D-04 at cycle   5 NSaved=   5.
 NSaved= 5 IEnMin= 5 EnMin= -115.493048617651     IErMin= 5 ErrMin= 1.92D-04
 ErrMax= 1.92D-04  0.00D+00 EMaxC= 1.00D-01 BMatC= 6.25D-06 BMatP= 3.58D-04
 IDIUse=3 WtCom= 9.98D-01 WtEn= 1.92D-03
 Coeff-Com: -0.557D-02 0.616D-02 0.587D-01 0.173D+00 0.768D+00
 Coeff-En:   0.000D+00 0.000D+00 0.000D+00 0.000D+00 0.100D+01
 Coeff:     -0.556D-02 0.615D-02 0.586D-01 0.173D+00 0.768D+00
 Gap=     0.414 Goal=   None    Shift=    0.000
 RMSDP=7.10D-06 MaxDP=2.22D-04 DE=-2.98D-04 OVMax= 6.28D-04

 Initial convergence to 1.0D-05 achieved.  Increase integral accuracy.
 Cycle   6  Pass 1  IDiag  1:
 E= -115.493044450565     Delta-E=        0.000004167087 Rises=F Damp=F
 DIIS: error= 2.41D-05 at cycle   1 NSaved=   1.
 NSaved= 1 IEnMin= 1 EnMin= -115.493044450565     IErMin= 1 ErrMin= 2.41D-05
 ErrMax= 2.41D-05  0.00D+00 EMaxC= 1.00D-01 BMatC= 9.33D-08 BMatP= 9.33D-08
 IDIUse=1 WtCom= 1.00D+00 WtEn= 0.00D+00
 Coeff-Com:  0.100D+01
 Coeff:      0.100D+01
 Gap=     0.414 Goal=   None    Shift=    0.000
 RMSDP=7.10D-06 MaxDP=2.22D-04 DE= 4.17D-06 OVMax= 1.28D-04

 Cycle   7  Pass 1  IDiag  1:
 E= -115.493044591256     Delta-E=       -0.000000140691 Rises=F Damp=F
 DIIS: error= 5.47D-06 at cycle   2 NSaved=   2.
 NSaved= 2 IEnMin= 2 EnMin= -115.493044591256     IErMin= 2 ErrMin= 5.47D-06
 ErrMax= 5.47D-06  0.00D+00 EMaxC= 1.00D-01 BMatC= 5.72D-09 BMatP= 9.33D-08
 IDIUse=1 WtCom= 1.00D+00 WtEn= 0.00D+00
 Coeff-Com: -0.834D-01 0.108D+01
 Coeff:     -0.834D-01 0.108D+01
 Gap=     0.414 Goal=   None    Shift=    0.000
 RMSDP=6.18D-07 MaxDP=1.92D-05 DE=-1.41D-07 OVMax= 4.53D-05

 Cycle   8  Pass 1  IDiag  1:
 E= -115.493044603236     Delta-E=       -0.000000011980 Rises=F Damp=F
 DIIS: error= 2.64D-06 at cycle   3 NSaved=   3.
 NSaved= 3 IEnMin= 3 EnMin= -115.493044603236     IErMin= 3 ErrMin= 2.64D-06
 ErrMax= 2.64D-06  0.00D+00 EMaxC= 1.00D-01 BMatC= 8.77D-10 BMatP= 5.72D-09
 IDIUse=1 WtCom= 1.00D+00 WtEn= 0.00D+00
 Coeff-Com: -0.755D-01 0.173D+00 0.903D+00
 Coeff:     -0.755D-01 0.173D+00 0.903D+00
 Gap=     0.414 Goal=   None    Shift=    0.000
 RMSDP=1.55D-07 MaxDP=5.73D-06 DE=-1.20D-08 OVMax= 1.60D-05

 Cycle   9  Pass 1  IDiag  1:
 E= -115.493044604288     Delta-E=       -0.000000001052 Rises=F Damp=F
 DIIS: error= 8.91D-07 at cycle   4 NSaved=   4.
 NSaved= 4 IEnMin= 4 EnMin= -115.493044604288     IErMin= 4 ErrMin= 8.91D-07
 ErrMax= 8.91D-07  0.00D+00 EMaxC= 1.00D-01 BMatC= 1.90D-10 BMatP= 8.77D-10
 IDIUse=1 WtCom= 1.00D+00 WtEn= 0.00D+00
 Coeff-Com: -0.237D-01-0.387D-02 0.366D+00 0.661D+00
 Coeff:     -0.237D-01-0.387D-02 0.366D+00 0.661D+00
 Gap=     0.414 Goal=   None    Shift=    0.000
 RMSDP=3.08D-08 MaxDP=1.13D-06 DE=-1.05D-09 OVMax= 4.02D-06

 Cycle  10  Pass 1  IDiag  1:
 E= -115.493044604445     Delta-E=       -0.000000000156 Rises=F Damp=F
 DIIS: error= 2.65D-07 at cycle   5 NSaved=   5.
 NSaved= 5 IEnMin= 5 EnMin= -115.493044604445     IErMin= 5 ErrMin= 2.65D-07
 ErrMax= 2.65D-07  0.00D+00 EMaxC= 1.00D-01 BMatC= 8.34D-12 BMatP= 1.90D-10
 IDIUse=1 WtCom= 1.00D+00 WtEn= 0.00D+00
 Coeff-Com:  0.149D-02-0.221D-01 0.904D-02 0.163D+00 0.849D+00
 Coeff:      0.149D-02-0.221D-01 0.904D-02 0.163D+00 0.849D+00
 Gap=     0.414 Goal=   None    Shift=    0.000
 RMSDP=9.29D-09 MaxDP=3.79D-07 DE=-1.56D-10 OVMax= 1.21D-06

 SCF Done:  E(RB2PLYPD3) =  -115.493044604     A.U. after   10 cycles
            NFock= 10  Conv=0.93D-08     -V/T= 1.9992
 KE= 1.155846776959D+02 PE=-3.540699011953D+02 EE= 8.176189951172D+01
 Leave Link  502 at Wed Aug 26 14:16:08 2020, MaxMem=  2097152000 cpu:        84.2
 (Enter /opt/cluster/programs/g09/g09_d.01/g09/l801.exe)
 DoSCS=T DFT=T ScalE2(SS,OS)=  0.270000  0.270000
 ExpMin= 7.60D-02 ExpMax= 1.17D+05 ExpMxC= 1.13D+03 IAcc=3 IRadAn=         5 AccDes= 0.00D+00
 HarFok:  IExCor=  205 AccDes= 0.00D+00 IRadAn=         5 IDoV=-2 UseB2=F ITyADJ=14
 ICtDFT= 12500011 ScaDFX=  1.000000  1.000000  1.000000  1.000000
 Largest valence mixing into a core orbital is  1.18D-04
 Largest core mixing into a valence orbital is  1.50D-05
 Range of M.O.s used for correlation:     3   234
 NBasis=   234 NAE=     9 NBE=     9 NFC=     2 NFV=     0
 NROrb=    232 NOA=     7 NOB=     7 NVA=   225 NVB=   225

 **** Warning!!: The largest alpha MO coefficient is  0.26548147D+02

 Leave Link  801 at Wed Aug 26 14:16:08 2020, MaxMem=  2097152000 cpu:         0.7
 (Enter /opt/cluster/programs/g09/g09_d.01/g09/l906.exe)
 DoSCS=T DFT=T ScalE2(SS,OS)=  0.270000  0.270000
 FulOut=F Deriv=F AODrv=F NAtomX=     6
   MMem=        3646  MDisk=           7 MDiskD=           7
  W3Min=      447300 MinDsk=     1090093 NBas6D=         284
 NBas2D=       41310    NTT=       40470    LW2=     4508827
    MDV=  2096872268 MDiskM=       16391 NBas2p=       41304
 Fully in-core method, ICMem=  1722292712.
 IMap=   1   2   3   4   5   6   7
 JobTyp=1 Pass  1 fully in-core, NPsUse=  8.
 Compute canonical integrals.
 FoFCou: FMM=F IPFlag=           0 FMFlag=           0 FMFlg1=           0
         NFxFlg=           0 DoJE=F BraDBF=F KetDBF=F FulRan=T
         wScrn=  0.000000 ICntrl=     600 IOpCl=  1 I1Cent=           0 NGrid=           0
         NMat0=    1 NMatS0=  41310 NMatT0=    0 NMatD0=    1 NMtDS0=    0 NMtDT0=    0
 Symmetry not used in FoFCou.
 Spin components of T(2) and E(2):
     alpha-alpha T2 =       0.1959109296D-01 E2=     -0.1630842620D-01
     alpha-beta  T2 =       0.1260741519D+00 E2=     -0.1120072609D+00
     beta-beta   T2 =       0.1959109296D-01 E2=     -0.1630842620D-01
 The integrals were generated   1 times.
 E2(B2PLYPD3) =    -0.1446241133D+00 E(B2PLYPD3) =    -0.11563766871773D+03
 Leave Link  906 at Wed Aug 26 14:16:25 2020, MaxMem=  2097152000 cpu:       135.3
 (Enter /opt/cluster/programs/g09/g09_d.01/g09/l601.exe)
 Copying SCF densities to generalized density rwf, IOpCl= 0 IROHF=0.

 **********************************************************************

            Population analysis using the SCF density.

 **********************************************************************

 Orbital symmetries:
       Occupied  (A) (A) (A) (A) (A) (A) (A) (A) (A)
       Virtual   (A) (A) (A) (A) (A) (A) (A) (A) (A) (A) (A) (A)
                 (A) (A) (A) (A) (A) (A) (A) (A) (A) (A) (A) (A)
                 (A) (A) (A) (A) (A) (A) (A) (A) (A) (A) (A) (A)
                 (A) (A) (A) (A) (A) (A) (A) (A) (A) (A) (A) (A)
                 (A) (A) (A) (A) (A) (A) (A) (A) (A) (A) (A) (A)
                 (A) (A) (A) (A) (A) (A) (A) (A) (A) (A) (A) (A)
                 (A) (A) (A) (A) (A) (A) (A) (A) (A) (A) (A) (A)
                 (A) (A) (A) (A) (A) (A) (A) (A) (A) (A) (A) (A)
                 (A) (A) (A) (A) (A) (A) (A) (A) (A) (A) (A) (A)
                 (A) (A) (A) (A) (A) (A) (A) (A) (A) (A) (A) (A)
                 (A) (A) (A) (A) (A) (A) (A) (A) (A) (A) (A) (A)
                 (A) (A) (A) (A) (A) (A) (A) (A) (A) (A) (A) (A)
                 (A) (A) (A) (A) (A) (A) (A) (A) (A) (A) (A) (A)
                 (A) (A) (A) (A) (A) (A) (A) (A) (A) (A) (A) (A)
                 (A) (A) (A) (A) (A) (A) (A) (A) (A) (A) (A) (A)
                 (A) (A) (A) (A) (A) (A) (A) (A) (A) (A) (A) (A)
                 (A) (A) (A) (A) (A) (A) (A) (A) (A) (A) (A) (A)
                 (A) (A) (A) (A) (A) (A) (A) (A) (A) (A) (A) (A)
                 (A) (A) (A) (A) (A) (A) (A) (A) (A)
 The electronic state is 1-A.
 Alpha  occ. eigenvalues --  -19.70497 -10.67017  -1.21536  -0.80143  -0.61100
 Alpha  occ. eigenvalues --   -0.52364  -0.49436  -0.41508  -0.36010
 Alpha virt. eigenvalues --    0.05368   0.09081   0.11797   0.12106   0.14735
 Alpha virt. eigenvalues --    0.17014   0.17736   0.28886   0.32558   0.32991
 Alpha virt. eigenvalues --    0.36807   0.37989   0.40248   0.41668   0.43419
 Alpha virt. eigenvalues --    0.49202   0.53293   0.56239   0.60437   0.67454
 Alpha virt. eigenvalues --    0.69669   0.71676   0.73697   0.78089   0.80188
 Alpha virt. eigenvalues --    0.82815   0.86943   0.87589   0.93203   0.95974
 Alpha virt. eigenvalues --    1.02627   1.04343   1.06716   1.08489   1.09212
 Alpha virt. eigenvalues --    1.11859   1.20935   1.24755   1.34025   1.36670
 Alpha virt. eigenvalues --    1.39254   1.41674   1.43598   1.47219   1.49818
 Alpha virt. eigenvalues --    1.78781   1.80371   1.85316   1.88324   1.89257
 Alpha virt. eigenvalues --    1.93314   1.94620   1.96189   1.99098   2.02923
 Alpha virt. eigenvalues --    2.04199   2.13822   2.17414   2.20454   2.21114
 Alpha virt. eigenvalues --    2.23563   2.31331   2.32376   2.35989   2.41444
 Alpha virt. eigenvalues --    2.46369   2.49491   2.59738   2.60722   2.64675
 Alpha virt. eigenvalues --    2.65837   2.71690   2.72514   2.76759   2.85084
 Alpha virt. eigenvalues --    2.86174   2.87099   2.90171   2.92787   2.98278
 Alpha virt. eigenvalues --    2.99787   3.02808   3.07578   3.12279   3.19345
 Alpha virt. eigenvalues --    3.21755   3.31713   3.38967   3.41066   3.46722
 Alpha virt. eigenvalues --    3.50233   3.63678   3.71479   3.83806   3.86879
 Alpha virt. eigenvalues --    3.91856   4.01560   4.08642   4.09948   4.14971
 Alpha virt. eigenvalues --    4.18306   4.24216   4.32138   4.36915   4.54731
 Alpha virt. eigenvalues --    4.56243   4.75795   4.77446   5.00747   5.26668
 Alpha virt. eigenvalues --    5.42692   5.43901   5.49905   5.68619   5.73101
 Alpha virt. eigenvalues --    5.75097   5.82325   5.83690   5.84955   5.89664
 Alpha virt. eigenvalues --    5.92227   5.97448   5.99293   6.04557   6.08386
 Alpha virt. eigenvalues --    6.15859   6.16890   6.23587   6.29496   6.30751
 Alpha virt. eigenvalues --    6.32501   6.36778   6.46577   6.52901   6.56426
 Alpha virt. eigenvalues --    6.57298   6.64672   6.77222   6.80052   6.84283
 Alpha virt. eigenvalues --    6.94415   6.98133   7.06360   7.10172   7.22693
 Alpha virt. eigenvalues --    7.25188   7.28778   7.32539   7.36828   7.39151
 Alpha virt. eigenvalues --    7.43965   7.49271   7.54235   7.64751   7.66983
 Alpha virt. eigenvalues --    7.68832   7.73688   7.75876   7.80095   7.81969
 Alpha virt. eigenvalues --    7.84016   7.88947   8.02556   8.07071   8.13160
 Alpha virt. eigenvalues --    8.16564   8.22371   8.30715   8.40948   8.42306
 Alpha virt. eigenvalues --    8.45453   8.49261   8.51139   8.56094   8.60548
 Alpha virt. eigenvalues --    8.62866   8.83250   8.86394   8.87978   8.92168
 Alpha virt. eigenvalues --    8.96913   9.06165   9.14592   9.42148   9.52490
 Alpha virt. eigenvalues --    9.59278   9.60968   9.66522   9.76438   9.83550
 Alpha virt. eigenvalues --    9.89399   9.96800  10.04164  10.11422  10.17724
 Alpha virt. eigenvalues --   10.26783  10.30327  10.53711  10.63293  10.90487
 Alpha virt. eigenvalues --   11.01594  11.28931  11.40904  11.56430  11.57820
 Alpha virt. eigenvalues --   11.85091  11.92125  12.00088  12.11241  12.18249
 Alpha virt. eigenvalues --   12.59389  12.85800  12.89944  12.99889  13.05299
 Alpha virt. eigenvalues --   13.10106  13.67866  15.39095  15.73197  15.81009
 Alpha virt. eigenvalues --   15.99409  29.10092  49.01436 148.68845 254.89211
          Condensed to atoms (all electrons):
               1          2          3          4          5          6
     1  C    4.461282   0.265893   0.426309   0.430007   0.398814  -0.045363
     2  O    0.265893   7.819087  -0.050411  -0.048239  -0.040253   0.378495
     3  H    0.426309  -0.050411   0.666631  -0.047916  -0.031423  -0.004109
     4  H    0.430007  -0.048239  -0.047916   0.641472  -0.034476  -0.003414
     5  H    0.398814  -0.040253  -0.031423  -0.034476   0.627693   0.008268
     6  H   -0.045363   0.378495  -0.004109  -0.003414   0.008268   0.579468
 Mulliken charges:
               1
     1  C    0.063057
     2  O   -0.324573
     3  H    0.040918
     4  H    0.062567
     5  H    0.071377
     6  H    0.086654
 Sum of Mulliken charges =   0.00000
 Mulliken charges with hydrogens summed into heavy atoms:
               1
     1  C    0.237919
     2  O   -0.237919
 Electronic spatial extent (au):  <R**2>=             83.7939
 Charge=              0.0000 electrons
 Dipole moment (field-independent basis, Debye):
    X=              0.9867    Y=             -1.3369    Z=              0.2622  Tot=              1.6822
 Quadrupole moment (field-independent basis, Debye-Ang):
   XX=            -13.3977   YY=            -12.3196   ZZ=            -13.5197
   XY=              1.9161   XZ=             -0.1805   YZ=             -0.2009
 Traceless Quadrupole moment (field-independent basis, Debye-Ang):
   XX=             -0.3187   YY=              0.7594   ZZ=             -0.4407
   XY=              1.9161   XZ=             -0.1805   YZ=             -0.2009
 Octapole moment (field-independent basis, Debye-Ang**2):
  XXX=             -4.7249  YYY=             -0.3206  ZZZ=              0.7190  XYY=             -1.5173
  XXY=             -2.0418  XXZ=              0.3334  XZZ=             -0.4557  YZZ=             -0.7797
  YYZ=             -0.1676  XYZ=              0.0688
 Hexadecapole moment (field-independent basis, Debye-Ang**3):
 XXXX=            -62.6091 YYYY=            -20.7993 ZZZZ=            -20.1138 XXXY=              3.2327
 XXXZ=              0.0522 YYYX=              2.7114 YYYZ=             -0.4788 ZZZX=              0.4572
 ZZZY=             -0.2696 XXYY=            -13.1839 XXZZ=            -14.3049 YYZZ=             -6.9081
 XXYZ=             -0.2461 YYXZ=             -0.3838 ZZXY=             -0.1359
 N-N= 4.123027938326D+01 E-N=-3.540698792342D+02  KE= 1.155846776959D+02
 Leave Link  601 at Wed Aug 26 14:16:26 2020, MaxMem=  2097152000 cpu:         0.3
 (Enter /opt/cluster/programs/g09/g09_d.01/g09/l9999.exe)
 1\1\GINC-NODE19\SP\RB2PLYPD3-FC\def2QZVP\C1H4O1\BOITTIER\26-Aug-2020\0
 \\#p B2PLYPD3/Def2QZVP\\methanol\\0,1\C,0,-5.18318,-1.249001,0.913441\
 O,0,-3.766126,-1.120433,0.847049\H,0,-5.521234,-2.298058,0.515571\H,0,
 -5.623923,-0.476615,0.368486\H,0,-5.424277,-1.182865,2.044236\H,0,-3.5
 51178,-1.207891,0.112198\\Version=ES64L-G09RevD.01\State=1-A\HF=-115.4
 930446\MP2=-115.6376687\RMSD=9.293e-09\PG=C01 [X(C1H4O1)]\\@


 IT IS BETTER TO THINK YOU ARE HALF DRY THAN TO KNOW YOU
 ARE ALL WET.  -- SNOOPY
 Job cpu time:       0 days  0 hours  3 minutes 49.2 seconds.
 File lengths (MBytes):  RWF=     23 Int=      0 D2E=      0 Chk=      4 Scr=      1
 Normal termination of Gaussian 09 at Wed Aug 26 14:16:26 2020.
