 Entering Gaussian System, Link 0=/opt/cluster/programs/g09/g09_d.01/g09//g09
 Input=/home/boittier/MDCM/nms_sampling/methanol_geom.xyz.dir/energies/methanol_2040_energy.com
 Output=/scratch/boittier/methanol_2040_energy/methanol_2040_energy.out
 Initial command:
 /opt/cluster/programs/g09/g09_d.01/g09/l1.exe "/scratch/boittier/methanol_2040_energy/Gau-135607.inp" -scrdir="/scratch/boittier/methanol_2040_energy/"
 Entering Link 1 = /opt/cluster/programs/g09/g09_d.01/g09/l1.exe PID=    135608.
  
 Copyright (c) 1988,1990,1992,1993,1995,1998,2003,2009,2013,
            Gaussian, Inc.  All Rights Reserved.
  
 This is part of the Gaussian(R) 09 program.  It is based on
 the Gaussian(R) 03 system (copyright 2003, Gaussian, Inc.),
 the Gaussian(R) 98 system (copyright 1998, Gaussian, Inc.),
 the Gaussian(R) 94 system (copyright 1995, Gaussian, Inc.),
 the Gaussian 92(TM) system (copyright 1992, Gaussian, Inc.),
 the Gaussian 90(TM) system (copyright 1990, Gaussian, Inc.),
 the Gaussian 88(TM) system (copyright 1988, Gaussian, Inc.),
 the Gaussian 86(TM) system (copyright 1986, Carnegie Mellon
 University), and the Gaussian 82(TM) system (copyright 1983,
 Carnegie Mellon University). Gaussian is a federally registered
 trademark of Gaussian, Inc.
  
 This software contains proprietary and confidential information,
 including trade secrets, belonging to Gaussian, Inc.
  
 This software is provided under written license and may be
 used, copied, transmitted, or stored only in accord with that
 written license.
  
 The following legend is applicable only to US Government
 contracts under FAR:
  
                    RESTRICTED RIGHTS LEGEND
  
 Use, reproduction and disclosure by the US Government is
 subject to restrictions as set forth in subparagraphs (a)
 and (c) of the Commercial Computer Software - Restricted
 Rights clause in FAR 52.227-19.
  
 Gaussian, Inc.
 340 Quinnipiac St., Bldg. 40, Wallingford CT 06492
  
  
 ---------------------------------------------------------------
 Warning -- This program may not be used in any manner that
 competes with the business of Gaussian, Inc. or will provide
 assistance to any competitor of Gaussian, Inc.  The licensee
 of this program is prohibited from giving any competitor of
 Gaussian, Inc. access to this program.  By using this program,
 the user acknowledges that Gaussian, Inc. is engaged in the
 business of creating and licensing software in the field of
 computational chemistry and represents and warrants to the
 licensee that it is not a competitor of Gaussian, Inc. and that
 it will not use this program in any manner prohibited above.
 ---------------------------------------------------------------
  

 Cite this work as:
 Gaussian 09, Revision D.01,
 M. J. Frisch, G. W. Trucks, H. B. Schlegel, G. E. Scuseria, 
 M. A. Robb, J. R. Cheeseman, G. Scalmani, V. Barone, B. Mennucci, 
 G. A. Petersson, H. Nakatsuji, M. Caricato, X. Li, H. P. Hratchian, 
 A. F. Izmaylov, J. Bloino, G. Zheng, J. L. Sonnenberg, M. Hada, 
 M. Ehara, K. Toyota, R. Fukuda, J. Hasegawa, M. Ishida, T. Nakajima, 
 Y. Honda, O. Kitao, H. Nakai, T. Vreven, J. A. Montgomery, Jr., 
 J. E. Peralta, F. Ogliaro, M. Bearpark, J. J. Heyd, E. Brothers, 
 K. N. Kudin, V. N. Staroverov, T. Keith, R. Kobayashi, J. Normand, 
 K. Raghavachari, A. Rendell, J. C. Burant, S. S. Iyengar, J. Tomasi, 
 M. Cossi, N. Rega, J. M. Millam, M. Klene, J. E. Knox, J. B. Cross, 
 V. Bakken, C. Adamo, J. Jaramillo, R. Gomperts, R. E. Stratmann, 
 O. Yazyev, A. J. Austin, R. Cammi, C. Pomelli, J. W. Ochterski, 
 R. L. Martin, K. Morokuma, V. G. Zakrzewski, G. A. Voth, 
 P. Salvador, J. J. Dannenberg, S. Dapprich, A. D. Daniels, 
 O. Farkas, J. B. Foresman, J. V. Ortiz, J. Cioslowski, 
 and D. J. Fox, Gaussian, Inc., Wallingford CT, 2013.
 
 ******************************************
 Gaussian 09:  ES64L-G09RevD.01 24-Apr-2013
                26-Aug-2020 
 ******************************************
 %chk=/home/boittier/MDCM/nms_sampling/methanol_geom.xyz.dir/methanol_2040.chk
 %nproc=8
 Will use up to    8 processors via shared memory.
 %mem=16000MB
 --------------------
 #p B2PLYPD3/Def2QZVP
 --------------------
 1/38=1/1;
 2/12=2,17=6,18=5,40=1/2;
 3/5=45,7=101,11=9,16=1,25=1,30=1,74=-60/1,2,3;
 4//1;
 5/5=2,38=5/2;
 8/10=1/1;
 9/16=-3/6;
 6/7=2,8=2,9=2,10=2/1;
 99/5=1,9=1/99;
 Leave Link    1 at Wed Aug 26 15:00:01 2020, MaxMem=  2097152000 cpu:         0.3
 (Enter /opt/cluster/programs/g09/g09_d.01/g09/l101.exe)
 --------
 methanol
 --------
 Symbolic Z-matrix:
 Charge =  0 Multiplicity = 1
 C                    -5.16246  -1.25236   0.9272 
 O                    -3.77489  -1.12026   0.84421 
 H                    -5.5629   -2.3079    0.49075 
 H                    -5.70544  -0.42268   0.31813 
 H                    -5.4583   -1.18453   1.97648 
 H                    -3.49349  -1.21776   0.14052 
 
 NAtoms=      6 NQM=        6 NQMF=       0 NMMI=      0 NMMIF=      0
                NMic=       0 NMicF=      0.
                    Isotopes and Nuclear Properties:
 (Nuclear quadrupole moments (NQMom) in fm**2, nuclear magnetic moments (NMagM)
  in nuclear magnetons)

  Atom         1           2           3           4           5           6
 IAtWgt=          12          16           1           1           1           1
 AtmWgt=  12.0000000  15.9949146   1.0078250   1.0078250   1.0078250   1.0078250
 NucSpn=           0           0           1           1           1           1
 AtZEff=   0.0000000   0.0000000   0.0000000   0.0000000   0.0000000   0.0000000
 NQMom=    0.0000000   0.0000000   0.0000000   0.0000000   0.0000000   0.0000000
 NMagM=    0.0000000   0.0000000   2.7928460   2.7928460   2.7928460   2.7928460
 AtZNuc=   6.0000000   8.0000000   1.0000000   1.0000000   1.0000000   1.0000000
 Leave Link  101 at Wed Aug 26 15:00:01 2020, MaxMem=  2097152000 cpu:         0.5
 (Enter /opt/cluster/programs/g09/g09_d.01/g09/l202.exe)
                          Input orientation:                          
 ---------------------------------------------------------------------
 Center     Atomic      Atomic             Coordinates (Angstroms)
 Number     Number       Type             X           Y           Z
 ---------------------------------------------------------------------
      1          6           0       -5.162461   -1.252360    0.927203
      2          8           0       -3.774885   -1.120262    0.844213
      3          1           0       -5.562897   -2.307900    0.490748
      4          1           0       -5.705440   -0.422678    0.318130
      5          1           0       -5.458302   -1.184532    1.976477
      6          1           0       -3.493491   -1.217762    0.140521
 ---------------------------------------------------------------------
                    Distance matrix (angstroms):
                    1          2          3          4          5
     1  C    0.000000
     2  O    1.396318   0.000000
     3  H    1.210375   2.175410   0.000000
     4  H    1.163687   2.119063   1.898467   0.000000
     5  H    1.092290   2.029789   1.865553   1.841633   0.000000
     6  H    1.845407   0.764115   2.365058   2.357206   2.689297
                    6
     6  H    0.000000
 Stoichiometry    CH4O
 Framework group  C1[X(CH4O)]
 Deg. of freedom    12
 Full point group                 C1      NOp   1
 Largest Abelian subgroup         C1      NOp   1
 Largest concise Abelian subgroup C1      NOp   1
                         Standard orientation:                         
 ---------------------------------------------------------------------
 Center     Atomic      Atomic             Coordinates (Angstroms)
 Number     Number       Type             X           Y           Z
 ---------------------------------------------------------------------
      1          6           0        0.647631    0.005716    0.005060
      2          8           0       -0.746268    0.085884   -0.012922
      3          1           0        1.087264   -0.755310   -0.827148
      4          1           0        1.038016   -0.376554    1.032502
      5          1           0        1.057826    0.998642   -0.192266
      6          1           0       -1.098748   -0.588150    0.059933
 ---------------------------------------------------------------------
 Rotational constants (GHZ):    127.3260392     24.9580942     24.5280093
 Leave Link  202 at Wed Aug 26 15:00:01 2020, MaxMem=  2097152000 cpu:         0.0
 (Enter /opt/cluster/programs/g09/g09_d.01/g09/l301.exe)
 Standard basis: def2QZVP (5D, 7F)
 Ernie: Thresh=  0.10000D-02 Tol=  0.10000D-05 Strict=F.
 There are   284 symmetry adapted cartesian basis functions of A   symmetry.
 There are   234 symmetry adapted basis functions of A   symmetry.
   234 basis functions,   336 primitive gaussians,   284 cartesian basis functions
     9 alpha electrons        9 beta electrons
       nuclear repulsion energy        41.2345276200 Hartrees.
 IExCor=  419 DFT=T Ex+Corr=B2PLYPD3 ExCW=0 ScaHFX=  0.530000
 ScaDFX=  0.470000  0.470000  0.730000  0.730000 ScalE2=  0.270000  0.270000
 IRadAn=      0 IRanWt=     -1 IRanGd=            0 ICorTp=0 IEmpDi=141
 NAtoms=    6 NActive=    6 NUniq=    6 SFac= 1.00D+00 NAtFMM=   60 NAOKFM=F Big=F
 Integral buffers will be    131072 words long.
 Regular integral format.
 Two-electron integral symmetry is turned on.
 R6Disp:  Grimme-D3(BJ) Dispersion energy=       -0.0013109696 Hartrees.
 Nuclear repulsion after empirical dispersion term =       41.2332166503 Hartrees.
 Leave Link  301 at Wed Aug 26 15:00:01 2020, MaxMem=  2097152000 cpu:         0.4
 (Enter /opt/cluster/programs/g09/g09_d.01/g09/l302.exe)
 NPDir=0 NMtPBC=     1 NCelOv=     1 NCel=       1 NClECP=     1 NCelD=      1
         NCelK=      1 NCelE2=     1 NClLst=     1 CellRange=     0.0.
 One-electron integrals computed using PRISM.
   1 Symmetry operations used in ECPInt.
 ECPInt:  NShTT=    2775 NPrTT=    6207 LenC2=    2774 LenP2D=    5741.
 LDataN:  DoStor=T MaxTD1= 8 Len=  415
 NBasis=   234 RedAO= T EigKep=  8.38D-05  NBF=   234
 NBsUse=   234 1.00D-06 EigRej= -1.00D+00 NBFU=   234
 Precomputing XC quadrature grid using
 IXCGrd= 4 IRadAn=           0 IRanWt=          -1 IRanGd=           0 AccXCQ= 0.00D+00.
 Generated NRdTot=       0 NPtTot=           0 NUsed=           0 NTot=          32
 NSgBfM=   284   284   284   284   284 MxSgAt=     6 MxSgA2=     6.
 Leave Link  302 at Wed Aug 26 15:00:01 2020, MaxMem=  2097152000 cpu:         1.8
 (Enter /opt/cluster/programs/g09/g09_d.01/g09/l303.exe)
 DipDrv:  MaxL=1.
 Leave Link  303 at Wed Aug 26 15:00:02 2020, MaxMem=  2097152000 cpu:         0.2
 (Enter /opt/cluster/programs/g09/g09_d.01/g09/l401.exe)
 ExpMin= 7.60D-02 ExpMax= 1.17D+05 ExpMxC= 1.13D+03 IAcc=2 IRadAn=         4 AccDes= 0.00D+00
 Harris functional with IExCor=  419 and IRadAn=       4 diagonalized for initial guess.
 HarFok:  IExCor=  419 AccDes= 0.00D+00 IRadAn=         4 IDoV= 1 UseB2=F ITyADJ=14
 ICtDFT=  3500011 ScaDFX=  1.000000  1.000000  1.000000  1.000000
 FoFCou: FMM=F IPFlag=           0 FMFlag=      100000 FMFlg1=           0
         NFxFlg=           0 DoJE=T BraDBF=F KetDBF=T FulRan=T
         wScrn=  0.000000 ICntrl=     500 IOpCl=  0 I1Cent=   200000004 NGrid=           0
         NMat0=    1 NMatS0=      1 NMatT0=    0 NMatD0=    1 NMtDS0=    0 NMtDT0=    0
 Petite list used in FoFCou.
 Harris En= -115.760714153898    
 JPrj=0 DoOrth=F DoCkMO=F.
 Leave Link  401 at Wed Aug 26 15:00:05 2020, MaxMem=  2097152000 cpu:         3.2
 (Enter /opt/cluster/programs/g09/g09_d.01/g09/l502.exe)
 Closed shell SCF:
 Using DIIS extrapolation, IDIIS=  1040.
 Integral symmetry usage will be decided dynamically.
 Keep R1 ints in memory in canonical form, NReq=389840494.
 IVT=      264814 IEndB=      264814 NGot=  2097152000 MDV=  1718885927
 LenX=  1718885927 LenY=  1718804830
 Requested convergence on RMS density matrix=1.00D-08 within 128 cycles.
 Requested convergence on MAX density matrix=1.00D-06.
 Requested convergence on             energy=1.00D-06.
 No special actions if energy rises.
 FoFCou: FMM=F IPFlag=           0 FMFlag=           0 FMFlg1=           0
         NFxFlg=           0 DoJE=F BraDBF=F KetDBF=F FulRan=T
         wScrn=  0.000000 ICntrl=     600 IOpCl=  0 I1Cent=           0 NGrid=           0
         NMat0=    1 NMatS0=  27495 NMatT0=    0 NMatD0=    1 NMtDS0=    0 NMtDT0=    0
 Symmetry not used in FoFCou.
 Integral accuracy reduced to 1.0D-05 until final iterations.

 Cycle   1  Pass 0  IDiag  1:
 E= -115.372959076480    
 DIIS: error= 2.64D-02 at cycle   1 NSaved=   1.
 NSaved= 1 IEnMin= 1 EnMin= -115.372959076480     IErMin= 1 ErrMin= 2.64D-02
 ErrMax= 2.64D-02  0.00D+00 EMaxC= 1.00D-01 BMatC= 2.17D-01 BMatP= 2.17D-01
 IDIUse=3 WtCom= 7.36D-01 WtEn= 2.64D-01
 Coeff-Com:  0.100D+01
 Coeff-En:   0.100D+01
 Coeff:      0.100D+01
 Gap=     0.327 Goal=   None    Shift=    0.000
 GapD=    0.327 DampG=1.000 DampE=0.500 DampFc=0.5000 IDamp=-1.
 Damping current iteration by 5.00D-01
 RMSDP=1.44D-03 MaxDP=5.73D-02              OVMax= 1.75D-01

 Cycle   2  Pass 0  IDiag  1:
 E= -115.428478175436     Delta-E=       -0.055519098956 Rises=F Damp=T
 DIIS: error= 1.11D-02 at cycle   2 NSaved=   2.
 NSaved= 2 IEnMin= 2 EnMin= -115.428478175436     IErMin= 2 ErrMin= 1.11D-02
 ErrMax= 1.11D-02  0.00D+00 EMaxC= 1.00D-01 BMatC= 1.84D-02 BMatP= 2.17D-01
 IDIUse=3 WtCom= 8.89D-01 WtEn= 1.11D-01
 Coeff-Com: -0.101D+00 0.110D+01
 Coeff-En:   0.000D+00 0.100D+01
 Coeff:     -0.897D-01 0.109D+01
 Gap=     0.434 Goal=   None    Shift=    0.000
 RMSDP=3.43D-04 MaxDP=9.57D-03 DE=-5.55D-02 OVMax= 9.46D-02

 Cycle   3  Pass 0  IDiag  1:
 E= -115.485195822207     Delta-E=       -0.056717646771 Rises=F Damp=F
 DIIS: error= 4.42D-03 at cycle   3 NSaved=   3.
 NSaved= 3 IEnMin= 3 EnMin= -115.485195822207     IErMin= 3 ErrMin= 4.42D-03
 ErrMax= 4.42D-03  0.00D+00 EMaxC= 1.00D-01 BMatC= 3.07D-03 BMatP= 1.84D-02
 IDIUse=3 WtCom= 9.56D-01 WtEn= 4.42D-02
 Coeff-Com: -0.110D+00 0.252D+00 0.858D+00
 Coeff-En:   0.000D+00 0.000D+00 0.100D+01
 Coeff:     -0.105D+00 0.241D+00 0.864D+00
 Gap=     0.409 Goal=   None    Shift=    0.000
 RMSDP=1.00D-04 MaxDP=3.90D-03 DE=-5.67D-02 OVMax= 1.16D-02

 Cycle   4  Pass 0  IDiag  1:
 E= -115.486947010173     Delta-E=       -0.001751187965 Rises=F Damp=F
 DIIS: error= 1.59D-03 at cycle   4 NSaved=   4.
 NSaved= 4 IEnMin= 4 EnMin= -115.486947010173     IErMin= 4 ErrMin= 1.59D-03
 ErrMax= 1.59D-03  0.00D+00 EMaxC= 1.00D-01 BMatC= 2.64D-04 BMatP= 3.07D-03
 IDIUse=3 WtCom= 9.84D-01 WtEn= 1.59D-02
 Coeff-Com: -0.374D-01 0.645D-01 0.345D+00 0.628D+00
 Coeff-En:   0.000D+00 0.000D+00 0.000D+00 0.100D+01
 Coeff:     -0.368D-01 0.635D-01 0.339D+00 0.634D+00
 Gap=     0.407 Goal=   None    Shift=    0.000
 RMSDP=3.11D-05 MaxDP=1.59D-03 DE=-1.75D-03 OVMax= 4.49D-03

 Cycle   5  Pass 0  IDiag  1:
 E= -115.487167721867     Delta-E=       -0.000220711695 Rises=F Damp=F
 DIIS: error= 2.03D-04 at cycle   5 NSaved=   5.
 NSaved= 5 IEnMin= 5 EnMin= -115.487167721867     IErMin= 5 ErrMin= 2.03D-04
 ErrMax= 2.03D-04  0.00D+00 EMaxC= 1.00D-01 BMatC= 7.43D-06 BMatP= 2.64D-04
 IDIUse=3 WtCom= 9.98D-01 WtEn= 2.03D-03
 Coeff-Com: -0.539D-02 0.578D-02 0.573D-01 0.194D+00 0.749D+00
 Coeff-En:   0.000D+00 0.000D+00 0.000D+00 0.000D+00 0.100D+01
 Coeff:     -0.538D-02 0.577D-02 0.572D-01 0.193D+00 0.749D+00
 Gap=     0.407 Goal=   None    Shift=    0.000
 RMSDP=7.18D-06 MaxDP=2.17D-04 DE=-2.21D-04 OVMax= 6.22D-04

 Initial convergence to 1.0D-05 achieved.  Increase integral accuracy.
 Cycle   6  Pass 1  IDiag  1:
 E= -115.487175265439     Delta-E=       -0.000007543571 Rises=F Damp=F
 DIIS: error= 3.17D-05 at cycle   1 NSaved=   1.
 NSaved= 1 IEnMin= 1 EnMin= -115.487175265439     IErMin= 1 ErrMin= 3.17D-05
 ErrMax= 3.17D-05  0.00D+00 EMaxC= 1.00D-01 BMatC= 9.66D-08 BMatP= 9.66D-08
 IDIUse=1 WtCom= 1.00D+00 WtEn= 0.00D+00
 Coeff-Com:  0.100D+01
 Coeff:      0.100D+01
 Gap=     0.407 Goal=   None    Shift=    0.000
 RMSDP=7.18D-06 MaxDP=2.17D-04 DE=-7.54D-06 OVMax= 1.18D-04

 Cycle   7  Pass 1  IDiag  1:
 E= -115.487175410669     Delta-E=       -0.000000145231 Rises=F Damp=F
 DIIS: error= 6.94D-06 at cycle   2 NSaved=   2.
 NSaved= 2 IEnMin= 2 EnMin= -115.487175410669     IErMin= 2 ErrMin= 6.94D-06
 ErrMax= 6.94D-06  0.00D+00 EMaxC= 1.00D-01 BMatC= 5.99D-09 BMatP= 9.66D-08
 IDIUse=1 WtCom= 1.00D+00 WtEn= 0.00D+00
 Coeff-Com: -0.814D-01 0.108D+01
 Coeff:     -0.814D-01 0.108D+01
 Gap=     0.407 Goal=   None    Shift=    0.000
 RMSDP=6.05D-07 MaxDP=1.54D-05 DE=-1.45D-07 OVMax= 4.42D-05

 Cycle   8  Pass 1  IDiag  1:
 E= -115.487175422669     Delta-E=       -0.000000012000 Rises=F Damp=F
 DIIS: error= 2.88D-06 at cycle   3 NSaved=   3.
 NSaved= 3 IEnMin= 3 EnMin= -115.487175422669     IErMin= 3 ErrMin= 2.88D-06
 ErrMax= 2.88D-06  0.00D+00 EMaxC= 1.00D-01 BMatC= 1.01D-09 BMatP= 5.99D-09
 IDIUse=1 WtCom= 1.00D+00 WtEn= 0.00D+00
 Coeff-Com: -0.771D-01 0.195D+00 0.882D+00
 Coeff:     -0.771D-01 0.195D+00 0.882D+00
 Gap=     0.407 Goal=   None    Shift=    0.000
 RMSDP=1.56D-07 MaxDP=4.48D-06 DE=-1.20D-08 OVMax= 1.37D-05

 Cycle   9  Pass 1  IDiag  1:
 E= -115.487175423813     Delta-E=       -0.000000001144 Rises=F Damp=F
 DIIS: error= 1.19D-06 at cycle   4 NSaved=   4.
 NSaved= 4 IEnMin= 4 EnMin= -115.487175423813     IErMin= 4 ErrMin= 1.19D-06
 ErrMax= 1.19D-06  0.00D+00 EMaxC= 1.00D-01 BMatC= 2.05D-10 BMatP= 1.01D-09
 IDIUse=1 WtCom= 1.00D+00 WtEn= 0.00D+00
 Coeff-Com: -0.232D-01-0.265D-02 0.355D+00 0.671D+00
 Coeff:     -0.232D-01-0.265D-02 0.355D+00 0.671D+00
 Gap=     0.407 Goal=   None    Shift=    0.000
 RMSDP=3.30D-08 MaxDP=1.10D-06 DE=-1.14D-09 OVMax= 4.12D-06

 Cycle  10  Pass 1  IDiag  1:
 E= -115.487175423987     Delta-E=       -0.000000000173 Rises=F Damp=F
 DIIS: error= 2.51D-07 at cycle   5 NSaved=   5.
 NSaved= 5 IEnMin= 5 EnMin= -115.487175423987     IErMin= 5 ErrMin= 2.51D-07
 ErrMax= 2.51D-07  0.00D+00 EMaxC= 1.00D-01 BMatC= 6.18D-12 BMatP= 2.05D-10
 IDIUse=1 WtCom= 1.00D+00 WtEn= 0.00D+00
 Coeff-Com:  0.138D-02-0.204D-01 0.715D-02 0.130D+00 0.882D+00
 Coeff:      0.138D-02-0.204D-01 0.715D-02 0.130D+00 0.882D+00
 Gap=     0.407 Goal=   None    Shift=    0.000
 RMSDP=1.01D-08 MaxDP=3.48D-07 DE=-1.73D-10 OVMax= 1.17D-06

 Cycle  11  Pass 1  IDiag  1:
 E= -115.487175423994     Delta-E=       -0.000000000007 Rises=F Damp=F
 DIIS: error= 7.93D-08 at cycle   6 NSaved=   6.
 NSaved= 6 IEnMin= 6 EnMin= -115.487175423994     IErMin= 6 ErrMin= 7.93D-08
 ErrMax= 7.93D-08  0.00D+00 EMaxC= 1.00D-01 BMatC= 1.30D-12 BMatP= 6.18D-12
 IDIUse=1 WtCom= 1.00D+00 WtEn= 0.00D+00
 Coeff-Com:  0.172D-02-0.902D-02-0.125D-01 0.213D-01 0.390D+00 0.608D+00
 Coeff:      0.172D-02-0.902D-02-0.125D-01 0.213D-01 0.390D+00 0.608D+00
 Gap=     0.407 Goal=   None    Shift=    0.000
 RMSDP=2.52D-09 MaxDP=9.77D-08 DE=-7.05D-12 OVMax= 3.44D-07

 SCF Done:  E(RB2PLYPD3) =  -115.487175424     A.U. after   11 cycles
            NFock= 11  Conv=0.25D-08     -V/T= 1.9998
 KE= 1.155067315401D+02 PE=-3.539462026173D+02 EE= 8.171907900293D+01
 Leave Link  502 at Wed Aug 26 15:00:17 2020, MaxMem=  2097152000 cpu:        60.9
 (Enter /opt/cluster/programs/g09/g09_d.01/g09/l801.exe)
 DoSCS=T DFT=T ScalE2(SS,OS)=  0.270000  0.270000
 ExpMin= 7.60D-02 ExpMax= 1.17D+05 ExpMxC= 1.13D+03 IAcc=3 IRadAn=         5 AccDes= 0.00D+00
 HarFok:  IExCor=  205 AccDes= 0.00D+00 IRadAn=         5 IDoV=-2 UseB2=F ITyADJ=14
 ICtDFT= 12500011 ScaDFX=  1.000000  1.000000  1.000000  1.000000
 Largest valence mixing into a core orbital is  1.21D-04
 Largest core mixing into a valence orbital is  1.45D-05
 Range of M.O.s used for correlation:     3   234
 NBasis=   234 NAE=     9 NBE=     9 NFC=     2 NFV=     0
 NROrb=    232 NOA=     7 NOB=     7 NVA=   225 NVB=   225

 **** Warning!!: The largest alpha MO coefficient is  0.22045938D+02

 Leave Link  801 at Wed Aug 26 15:00:18 2020, MaxMem=  2097152000 cpu:         0.6
 (Enter /opt/cluster/programs/g09/g09_d.01/g09/l906.exe)
 DoSCS=T DFT=T ScalE2(SS,OS)=  0.270000  0.270000
 FulOut=F Deriv=F AODrv=F NAtomX=     6
   MMem=        3646  MDisk=           7 MDiskD=           7
  W3Min=      447300 MinDsk=     1090093 NBas6D=         284
 NBas2D=       41310    NTT=       40470    LW2=     4508827
    MDV=  2096872520 MDiskM=       16391 NBas2p=       41304
 Fully in-core method, ICMem=  1722292712.
 IMap=   1   2   3   4   5   6   7
 JobTyp=1 Pass  1 fully in-core, NPsUse=  8.
 Compute canonical integrals.
 FoFCou: FMM=F IPFlag=           0 FMFlag=           0 FMFlg1=           0
         NFxFlg=           0 DoJE=F BraDBF=F KetDBF=F FulRan=T
         wScrn=  0.000000 ICntrl=     600 IOpCl=  1 I1Cent=           0 NGrid=           0
         NMat0=    1 NMatS0=  41310 NMatT0=    0 NMatD0=    1 NMtDS0=    0 NMtDT0=    0
 Symmetry not used in FoFCou.
 Spin components of T(2) and E(2):
     alpha-alpha T2 =       0.1960169800D-01 E2=     -0.1629164452D-01
     alpha-beta  T2 =       0.1271444866D+00 E2=     -0.1119914957D+00
     beta-beta   T2 =       0.1960169800D-01 E2=     -0.1629164452D-01
 The integrals were generated   1 times.
 E2(B2PLYPD3) =    -0.1445747847D+00 E(B2PLYPD3) =    -0.11563175020872D+03
 Leave Link  906 at Wed Aug 26 15:00:32 2020, MaxMem=  2097152000 cpu:       113.8
 (Enter /opt/cluster/programs/g09/g09_d.01/g09/l601.exe)
 Copying SCF densities to generalized density rwf, IOpCl= 0 IROHF=0.

 **********************************************************************

            Population analysis using the SCF density.

 **********************************************************************

 Orbital symmetries:
       Occupied  (A) (A) (A) (A) (A) (A) (A) (A) (A)
       Virtual   (A) (A) (A) (A) (A) (A) (A) (A) (A) (A) (A) (A)
                 (A) (A) (A) (A) (A) (A) (A) (A) (A) (A) (A) (A)
                 (A) (A) (A) (A) (A) (A) (A) (A) (A) (A) (A) (A)
                 (A) (A) (A) (A) (A) (A) (A) (A) (A) (A) (A) (A)
                 (A) (A) (A) (A) (A) (A) (A) (A) (A) (A) (A) (A)
                 (A) (A) (A) (A) (A) (A) (A) (A) (A) (A) (A) (A)
                 (A) (A) (A) (A) (A) (A) (A) (A) (A) (A) (A) (A)
                 (A) (A) (A) (A) (A) (A) (A) (A) (A) (A) (A) (A)
                 (A) (A) (A) (A) (A) (A) (A) (A) (A) (A) (A) (A)
                 (A) (A) (A) (A) (A) (A) (A) (A) (A) (A) (A) (A)
                 (A) (A) (A) (A) (A) (A) (A) (A) (A) (A) (A) (A)
                 (A) (A) (A) (A) (A) (A) (A) (A) (A) (A) (A) (A)
                 (A) (A) (A) (A) (A) (A) (A) (A) (A) (A) (A) (A)
                 (A) (A) (A) (A) (A) (A) (A) (A) (A) (A) (A) (A)
                 (A) (A) (A) (A) (A) (A) (A) (A) (A) (A) (A) (A)
                 (A) (A) (A) (A) (A) (A) (A) (A) (A) (A) (A) (A)
                 (A) (A) (A) (A) (A) (A) (A) (A) (A) (A) (A) (A)
                 (A) (A) (A) (A) (A) (A) (A) (A) (A) (A) (A) (A)
                 (A) (A) (A) (A) (A) (A) (A) (A) (A)
 The electronic state is 1-A.
 Alpha  occ. eigenvalues --  -19.70961 -10.67989  -1.22468  -0.80544  -0.61308
 Alpha  occ. eigenvalues --   -0.51577  -0.50644  -0.41108  -0.35354
 Alpha virt. eigenvalues --    0.05350   0.08881   0.11807   0.12304   0.14785
 Alpha virt. eigenvalues --    0.17116   0.17825   0.28759   0.32469   0.33943
 Alpha virt. eigenvalues --    0.36126   0.38464   0.39801   0.40415   0.42567
 Alpha virt. eigenvalues --    0.48773   0.52662   0.57003   0.59761   0.66822
 Alpha virt. eigenvalues --    0.70881   0.72151   0.73530   0.79176   0.79577
 Alpha virt. eigenvalues --    0.82395   0.86640   0.87426   0.94245   0.95456
 Alpha virt. eigenvalues --    1.01172   1.03054   1.04325   1.10040   1.11457
 Alpha virt. eigenvalues --    1.12017   1.21679   1.23795   1.33267   1.34738
 Alpha virt. eigenvalues --    1.38618   1.40020   1.44046   1.46941   1.50870
 Alpha virt. eigenvalues --    1.78643   1.80535   1.83499   1.87703   1.89908
 Alpha virt. eigenvalues --    1.92596   1.94970   1.95901   2.00844   2.04325
 Alpha virt. eigenvalues --    2.05131   2.12973   2.18099   2.20653   2.21416
 Alpha virt. eigenvalues --    2.23846   2.29953   2.31712   2.36982   2.40019
 Alpha virt. eigenvalues --    2.42592   2.46354   2.57006   2.60600   2.62518
 Alpha virt. eigenvalues --    2.68976   2.70036   2.72799   2.78037   2.84392
 Alpha virt. eigenvalues --    2.85830   2.87548   2.88990   2.94962   2.95857
 Alpha virt. eigenvalues --    2.97378   3.05196   3.09221   3.10748   3.14777
 Alpha virt. eigenvalues --    3.20295   3.26524   3.32698   3.36383   3.38749
 Alpha virt. eigenvalues --    3.53893   3.61082   3.72390   3.76435   3.79956
 Alpha virt. eigenvalues --    3.87847   3.95565   4.03216   4.07479   4.15503
 Alpha virt. eigenvalues --    4.16829   4.22541   4.31429   4.37929   4.54684
 Alpha virt. eigenvalues --    4.55791   4.76695   4.77871   5.03546   5.25350
 Alpha virt. eigenvalues --    5.37991   5.40099   5.50754   5.65659   5.71098
 Alpha virt. eigenvalues --    5.75588   5.83740   5.85347   5.89672   5.91009
 Alpha virt. eigenvalues --    5.93471   5.95189   5.99328   6.04917   6.09279
 Alpha virt. eigenvalues --    6.12505   6.15162   6.18574   6.23612   6.30903
 Alpha virt. eigenvalues --    6.34257   6.35295   6.41134   6.46618   6.49830
 Alpha virt. eigenvalues --    6.55095   6.58024   6.65737   6.74770   6.85477
 Alpha virt. eigenvalues --    6.92547   6.93812   6.96620   7.09667   7.20159
 Alpha virt. eigenvalues --    7.22987   7.26164   7.29366   7.37334   7.40828
 Alpha virt. eigenvalues --    7.43405   7.48484   7.52095   7.60726   7.63145
 Alpha virt. eigenvalues --    7.68355   7.69709   7.71843   7.78095   7.83035
 Alpha virt. eigenvalues --    7.88527   7.92284   7.96682   8.07603   8.12702
 Alpha virt. eigenvalues --    8.14694   8.18319   8.23999   8.36853   8.37244
 Alpha virt. eigenvalues --    8.40897   8.46074   8.47709   8.48767   8.55866
 Alpha virt. eigenvalues --    8.61358   8.79373   8.81249   8.84522   8.85802
 Alpha virt. eigenvalues --    8.91738   8.92974   9.07786   9.30488   9.40881
 Alpha virt. eigenvalues --    9.49989   9.53838   9.56806   9.67302   9.74752
 Alpha virt. eigenvalues --    9.85265   9.85799   9.94158   9.98600  10.20688
 Alpha virt. eigenvalues --   10.28081  10.32805  10.33651  10.37359  10.95428
 Alpha virt. eigenvalues --   11.02370  11.26020  11.41634  11.52071  11.77057
 Alpha virt. eigenvalues --   11.85937  11.87928  12.02200  12.12215  12.18477
 Alpha virt. eigenvalues --   12.53247  12.85370  12.88630  12.95929  13.06854
 Alpha virt. eigenvalues --   13.17655  13.78417  15.50488  15.77475  15.85535
 Alpha virt. eigenvalues --   16.06874  29.00179  49.07684 148.56455 254.96862
          Condensed to atoms (all electrons):
               1          2          3          4          5          6
     1  C    4.468597   0.279757   0.419350   0.424622   0.399074  -0.044924
     2  O    0.279757   7.777237  -0.052304  -0.053757  -0.036817   0.385857
     3  H    0.419350  -0.052304   0.690846  -0.047124  -0.035356  -0.005604
     4  H    0.424622  -0.053757  -0.047124   0.674326  -0.037858  -0.003532
     5  H    0.399074  -0.036817  -0.035356  -0.037858   0.617190   0.008253
     6  H   -0.044924   0.385857  -0.005604  -0.003532   0.008253   0.572529
 Mulliken charges:
               1
     1  C    0.053524
     2  O   -0.299974
     3  H    0.030192
     4  H    0.043323
     5  H    0.085514
     6  H    0.087421
 Sum of Mulliken charges =   0.00000
 Mulliken charges with hydrogens summed into heavy atoms:
               1
     1  C    0.212554
     2  O   -0.212554
 Electronic spatial extent (au):  <R**2>=             84.5166
 Charge=              0.0000 electrons
 Dipole moment (field-independent basis, Debye):
    X=              0.7666    Y=             -1.1820    Z=              0.1670  Tot=              1.4187
 Quadrupole moment (field-independent basis, Debye-Ang):
   XX=            -13.0980   YY=            -12.5111   ZZ=            -13.7885
   XY=              2.0802   XZ=             -0.2318   YZ=             -0.1837
 Traceless Quadrupole moment (field-independent basis, Debye-Ang):
   XX=              0.0345   YY=              0.6214   ZZ=             -0.6560
   XY=              2.0802   XZ=             -0.2318   YZ=             -0.1837
 Octapole moment (field-independent basis, Debye-Ang**2):
  XXX=             -5.4450  YYY=              0.0179  ZZZ=              0.4809  XYY=             -1.6308
  XXY=             -1.8858  XXZ=              0.2062  XZZ=             -0.7835  YZZ=             -0.5649
  YYZ=             -0.2559  XYZ=              0.0585
 Hexadecapole moment (field-independent basis, Debye-Ang**3):
 XXXX=            -62.3730 YYYY=            -20.7370 ZZZZ=            -22.2613 XXXY=              4.2185
 XXXZ=             -0.3802 YYYX=              3.1064 YYYZ=             -0.3377 ZZZX=              0.2752
 ZZZY=             -0.3348 XXYY=            -13.1147 XXZZ=            -14.7689 YYZZ=             -7.1847
 XXYZ=             -0.2467 YYXZ=             -0.5033 ZZXY=              0.0455
 N-N= 4.123321665031D+01 E-N=-3.539462122001D+02  KE= 1.155067315401D+02
 Leave Link  601 at Wed Aug 26 15:00:34 2020, MaxMem=  2097152000 cpu:         0.3
 (Enter /opt/cluster/programs/g09/g09_d.01/g09/l9999.exe)
 1\1\GINC-NODE22\SP\RB2PLYPD3-FC\def2QZVP\C1H4O1\BOITTIER\26-Aug-2020\0
 \\#p B2PLYPD3/Def2QZVP\\methanol\\0,1\C,0,-5.162461,-1.25236,0.927203\
 O,0,-3.774885,-1.120262,0.844213\H,0,-5.562897,-2.3079,0.490748\H,0,-5
 .70544,-0.422678,0.31813\H,0,-5.458302,-1.184532,1.976477\H,0,-3.49349
 1,-1.217762,0.140521\\Version=ES64L-G09RevD.01\State=1-A\HF=-115.48717
 54\MP2=-115.6317502\RMSD=2.517e-09\PG=C01 [X(C1H4O1)]\\@


 MORNING PEOPLE ARE USUALLY ADMIRED AS EARLY BIRDS.
 RECALL BEN FRANKLIN'S APHORISM THAT THE EARLY BIRD GETS THE WORM.
 I IDENTIFY WITH THE WORM. --  CRAIG JAGGER, MINNEAPOLIS, KS.
 Job cpu time:       0 days  0 hours  3 minutes  2.5 seconds.
 File lengths (MBytes):  RWF=     23 Int=      0 D2E=      0 Chk=      4 Scr=      1
 Normal termination of Gaussian 09 at Wed Aug 26 15:00:34 2020.
