 Entering Gaussian System, Link 0=/opt/cluster/programs/g09/g09_d.01/g09//g09
 Input=/home/boittier/MDCM/nms_sampling/methanol_geom.xyz.dir/energies/methanol_1810_energy.com
 Output=/scratch/boittier/methanol_1810_energy/methanol_1810_energy.out
 Initial command:
 /opt/cluster/programs/g09/g09_d.01/g09/l1.exe "/scratch/boittier/methanol_1810_energy/Gau-187248.inp" -scrdir="/scratch/boittier/methanol_1810_energy/"
 Entering Link 1 = /opt/cluster/programs/g09/g09_d.01/g09/l1.exe PID=    187249.
  
 Copyright (c) 1988,1990,1992,1993,1995,1998,2003,2009,2013,
            Gaussian, Inc.  All Rights Reserved.
  
 This is part of the Gaussian(R) 09 program.  It is based on
 the Gaussian(R) 03 system (copyright 2003, Gaussian, Inc.),
 the Gaussian(R) 98 system (copyright 1998, Gaussian, Inc.),
 the Gaussian(R) 94 system (copyright 1995, Gaussian, Inc.),
 the Gaussian 92(TM) system (copyright 1992, Gaussian, Inc.),
 the Gaussian 90(TM) system (copyright 1990, Gaussian, Inc.),
 the Gaussian 88(TM) system (copyright 1988, Gaussian, Inc.),
 the Gaussian 86(TM) system (copyright 1986, Carnegie Mellon
 University), and the Gaussian 82(TM) system (copyright 1983,
 Carnegie Mellon University). Gaussian is a federally registered
 trademark of Gaussian, Inc.
  
 This software contains proprietary and confidential information,
 including trade secrets, belonging to Gaussian, Inc.
  
 This software is provided under written license and may be
 used, copied, transmitted, or stored only in accord with that
 written license.
  
 The following legend is applicable only to US Government
 contracts under FAR:
  
                    RESTRICTED RIGHTS LEGEND
  
 Use, reproduction and disclosure by the US Government is
 subject to restrictions as set forth in subparagraphs (a)
 and (c) of the Commercial Computer Software - Restricted
 Rights clause in FAR 52.227-19.
  
 Gaussian, Inc.
 340 Quinnipiac St., Bldg. 40, Wallingford CT 06492
  
  
 ---------------------------------------------------------------
 Warning -- This program may not be used in any manner that
 competes with the business of Gaussian, Inc. or will provide
 assistance to any competitor of Gaussian, Inc.  The licensee
 of this program is prohibited from giving any competitor of
 Gaussian, Inc. access to this program.  By using this program,
 the user acknowledges that Gaussian, Inc. is engaged in the
 business of creating and licensing software in the field of
 computational chemistry and represents and warrants to the
 licensee that it is not a competitor of Gaussian, Inc. and that
 it will not use this program in any manner prohibited above.
 ---------------------------------------------------------------
  

 Cite this work as:
 Gaussian 09, Revision D.01,
 M. J. Frisch, G. W. Trucks, H. B. Schlegel, G. E. Scuseria, 
 M. A. Robb, J. R. Cheeseman, G. Scalmani, V. Barone, B. Mennucci, 
 G. A. Petersson, H. Nakatsuji, M. Caricato, X. Li, H. P. Hratchian, 
 A. F. Izmaylov, J. Bloino, G. Zheng, J. L. Sonnenberg, M. Hada, 
 M. Ehara, K. Toyota, R. Fukuda, J. Hasegawa, M. Ishida, T. Nakajima, 
 Y. Honda, O. Kitao, H. Nakai, T. Vreven, J. A. Montgomery, Jr., 
 J. E. Peralta, F. Ogliaro, M. Bearpark, J. J. Heyd, E. Brothers, 
 K. N. Kudin, V. N. Staroverov, T. Keith, R. Kobayashi, J. Normand, 
 K. Raghavachari, A. Rendell, J. C. Burant, S. S. Iyengar, J. Tomasi, 
 M. Cossi, N. Rega, J. M. Millam, M. Klene, J. E. Knox, J. B. Cross, 
 V. Bakken, C. Adamo, J. Jaramillo, R. Gomperts, R. E. Stratmann, 
 O. Yazyev, A. J. Austin, R. Cammi, C. Pomelli, J. W. Ochterski, 
 R. L. Martin, K. Morokuma, V. G. Zakrzewski, G. A. Voth, 
 P. Salvador, J. J. Dannenberg, S. Dapprich, A. D. Daniels, 
 O. Farkas, J. B. Foresman, J. V. Ortiz, J. Cioslowski, 
 and D. J. Fox, Gaussian, Inc., Wallingford CT, 2013.
 
 ******************************************
 Gaussian 09:  ES64L-G09RevD.01 24-Apr-2013
                26-Aug-2020 
 ******************************************
 %chk=/home/boittier/MDCM/nms_sampling/methanol_geom.xyz.dir/methanol_1810.chk
 %nproc=8
 Will use up to    8 processors via shared memory.
 %mem=16000MB
 --------------------
 #p B2PLYPD3/Def2QZVP
 --------------------
 1/38=1/1;
 2/12=2,17=6,18=5,40=1/2;
 3/5=45,7=101,11=9,16=1,25=1,30=1,74=-60/1,2,3;
 4//1;
 5/5=2,38=5/2;
 8/10=1/1;
 9/16=-3/6;
 6/7=2,8=2,9=2,10=2/1;
 99/5=1,9=1/99;
 Leave Link    1 at Wed Aug 26 13:51:03 2020, MaxMem=  2097152000 cpu:         0.4
 (Enter /opt/cluster/programs/g09/g09_d.01/g09/l101.exe)
 --------
 methanol
 --------
 Symbolic Z-matrix:
 Charge =  0 Multiplicity = 1
 C                    -5.20068  -1.25372   0.91854 
 O                    -3.75995  -1.12813   0.85161 
 H                    -5.50461  -2.20774   0.53601 
 H                    -5.62461  -0.44572   0.30625 
 H                    -5.44911  -1.18729   2.01627 
 H                    -3.42758  -1.15596   0.04527 
 
 NAtoms=      6 NQM=        6 NQMF=       0 NMMI=      0 NMMIF=      0
                NMic=       0 NMicF=      0.
                    Isotopes and Nuclear Properties:
 (Nuclear quadrupole moments (NQMom) in fm**2, nuclear magnetic moments (NMagM)
  in nuclear magnetons)

  Atom         1           2           3           4           5           6
 IAtWgt=          12          16           1           1           1           1
 AtmWgt=  12.0000000  15.9949146   1.0078250   1.0078250   1.0078250   1.0078250
 NucSpn=           0           0           1           1           1           1
 AtZEff=   0.0000000   0.0000000   0.0000000   0.0000000   0.0000000   0.0000000
 NQMom=    0.0000000   0.0000000   0.0000000   0.0000000   0.0000000   0.0000000
 NMagM=    0.0000000   0.0000000   2.7928460   2.7928460   2.7928460   2.7928460
 AtZNuc=   6.0000000   8.0000000   1.0000000   1.0000000   1.0000000   1.0000000
 Leave Link  101 at Wed Aug 26 13:51:04 2020, MaxMem=  2097152000 cpu:         0.8
 (Enter /opt/cluster/programs/g09/g09_d.01/g09/l202.exe)
                          Input orientation:                          
 ---------------------------------------------------------------------
 Center     Atomic      Atomic             Coordinates (Angstroms)
 Number     Number       Type             X           Y           Z
 ---------------------------------------------------------------------
      1          6           0       -5.200681   -1.253718    0.918543
      2          8           0       -3.759945   -1.128126    0.851609
      3          1           0       -5.504612   -2.207736    0.536010
      4          1           0       -5.624610   -0.445720    0.306250
      5          1           0       -5.449112   -1.187294    2.016271
      6          1           0       -3.427584   -1.155960    0.045270
 ---------------------------------------------------------------------
                    Distance matrix (angstroms):
                    1          2          3          4          5
     1  C    0.000000
     2  O    1.447748   0.000000
     3  H    1.071847   2.075819   0.000000
     4  H    1.098854   2.059143   1.780980   0.000000
     5  H    1.127447   2.052614   1.798765   1.872139   0.000000
     6  H    1.978898   0.872594   2.379307   2.323677   2.823544
                    6
     6  H    0.000000
 Stoichiometry    CH4O
 Framework group  C1[X(CH4O)]
 Deg. of freedom    12
 Full point group                 C1      NOp   1
 Largest Abelian subgroup         C1      NOp   1
 Largest concise Abelian subgroup C1      NOp   1
                         Standard orientation:                         
 ---------------------------------------------------------------------
 Center     Atomic      Atomic             Coordinates (Angstroms)
 Number     Number       Type             X           Y           Z
 ---------------------------------------------------------------------
      1          6           0       -0.690364   -0.023630   -0.000437
      2          8           0        0.751104    0.110823   -0.008425
      3          1           0       -1.016993   -0.423533    0.938843
      4          1           0       -0.955960   -0.707837   -0.818238
      5          1           0       -1.082462    1.026198   -0.123960
      6          1           0        1.188765   -0.639632    0.073377
 ---------------------------------------------------------------------
 Rotational constants (GHZ):    129.5802258     24.2738088     23.4510610
 Leave Link  202 at Wed Aug 26 13:51:04 2020, MaxMem=  2097152000 cpu:         0.0
 (Enter /opt/cluster/programs/g09/g09_d.01/g09/l301.exe)
 Standard basis: def2QZVP (5D, 7F)
 Ernie: Thresh=  0.10000D-02 Tol=  0.10000D-05 Strict=F.
 There are   284 symmetry adapted cartesian basis functions of A   symmetry.
 There are   234 symmetry adapted basis functions of A   symmetry.
   234 basis functions,   336 primitive gaussians,   284 cartesian basis functions
     9 alpha electrons        9 beta electrons
       nuclear repulsion energy        40.3379455373 Hartrees.
 IExCor=  419 DFT=T Ex+Corr=B2PLYPD3 ExCW=0 ScaHFX=  0.530000
 ScaDFX=  0.470000  0.470000  0.730000  0.730000 ScalE2=  0.270000  0.270000
 IRadAn=      0 IRanWt=     -1 IRanGd=            0 ICorTp=0 IEmpDi=141
 NAtoms=    6 NActive=    6 NUniq=    6 SFac= 1.00D+00 NAtFMM=   60 NAOKFM=F Big=F
 Integral buffers will be    131072 words long.
 Regular integral format.
 Two-electron integral symmetry is turned on.
 R6Disp:  Grimme-D3(BJ) Dispersion energy=       -0.0013066970 Hartrees.
 Nuclear repulsion after empirical dispersion term =       40.3366388403 Hartrees.
 Leave Link  301 at Wed Aug 26 13:51:04 2020, MaxMem=  2097152000 cpu:         0.8
 (Enter /opt/cluster/programs/g09/g09_d.01/g09/l302.exe)
 NPDir=0 NMtPBC=     1 NCelOv=     1 NCel=       1 NClECP=     1 NCelD=      1
         NCelK=      1 NCelE2=     1 NClLst=     1 CellRange=     0.0.
 One-electron integrals computed using PRISM.
   1 Symmetry operations used in ECPInt.
 ECPInt:  NShTT=    2775 NPrTT=    6207 LenC2=    2773 LenP2D=    5731.
 LDataN:  DoStor=T MaxTD1= 8 Len=  415
 NBasis=   234 RedAO= T EigKep=  1.35D-04  NBF=   234
 NBsUse=   234 1.00D-06 EigRej= -1.00D+00 NBFU=   234
 Precomputing XC quadrature grid using
 IXCGrd= 4 IRadAn=           0 IRanWt=          -1 IRanGd=           0 AccXCQ= 0.00D+00.
 Generated NRdTot=       0 NPtTot=           0 NUsed=           0 NTot=          32
 NSgBfM=   284   284   284   284   284 MxSgAt=     6 MxSgA2=     6.
 Leave Link  302 at Wed Aug 26 13:51:05 2020, MaxMem=  2097152000 cpu:         2.5
 (Enter /opt/cluster/programs/g09/g09_d.01/g09/l303.exe)
 DipDrv:  MaxL=1.
 Leave Link  303 at Wed Aug 26 13:51:05 2020, MaxMem=  2097152000 cpu:         0.3
 (Enter /opt/cluster/programs/g09/g09_d.01/g09/l401.exe)
 ExpMin= 7.60D-02 ExpMax= 1.17D+05 ExpMxC= 1.13D+03 IAcc=2 IRadAn=         4 AccDes= 0.00D+00
 Harris functional with IExCor=  419 and IRadAn=       4 diagonalized for initial guess.
 HarFok:  IExCor=  419 AccDes= 0.00D+00 IRadAn=         4 IDoV= 1 UseB2=F ITyADJ=14
 ICtDFT=  3500011 ScaDFX=  1.000000  1.000000  1.000000  1.000000
 FoFCou: FMM=F IPFlag=           0 FMFlag=      100000 FMFlg1=           0
         NFxFlg=           0 DoJE=T BraDBF=F KetDBF=T FulRan=T
         wScrn=  0.000000 ICntrl=     500 IOpCl=  0 I1Cent=   200000004 NGrid=           0
         NMat0=    1 NMatS0=      1 NMatT0=    0 NMatD0=    1 NMtDS0=    0 NMtDT0=    0
 Petite list used in FoFCou.
 Harris En= -115.812430209012    
 JPrj=0 DoOrth=F DoCkMO=F.
 Leave Link  401 at Wed Aug 26 13:51:05 2020, MaxMem=  2097152000 cpu:         4.1
 (Enter /opt/cluster/programs/g09/g09_d.01/g09/l502.exe)
 Closed shell SCF:
 Using DIIS extrapolation, IDIIS=  1040.
 Integral symmetry usage will be decided dynamically.
 Keep R1 ints in memory in canonical form, NReq=389840494.
 IVT=      264814 IEndB=      264814 NGot=  2097152000 MDV=  1718885927
 LenX=  1718885927 LenY=  1718804830
 Requested convergence on RMS density matrix=1.00D-08 within 128 cycles.
 Requested convergence on MAX density matrix=1.00D-06.
 Requested convergence on             energy=1.00D-06.
 No special actions if energy rises.
 FoFCou: FMM=F IPFlag=           0 FMFlag=           0 FMFlg1=           0
         NFxFlg=           0 DoJE=F BraDBF=F KetDBF=F FulRan=T
         wScrn=  0.000000 ICntrl=     600 IOpCl=  0 I1Cent=           0 NGrid=           0
         NMat0=    1 NMatS0=  27495 NMatT0=    0 NMatD0=    1 NMtDS0=    0 NMtDT0=    0
 Symmetry not used in FoFCou.
 Integral accuracy reduced to 1.0D-05 until final iterations.

 Cycle   1  Pass 0  IDiag  1:
 E= -115.438820623988    
 DIIS: error= 2.39D-02 at cycle   1 NSaved=   1.
 NSaved= 1 IEnMin= 1 EnMin= -115.438820623988     IErMin= 1 ErrMin= 2.39D-02
 ErrMax= 2.39D-02  0.00D+00 EMaxC= 1.00D-01 BMatC= 1.90D-01 BMatP= 1.90D-01
 IDIUse=3 WtCom= 7.61D-01 WtEn= 2.39D-01
 Coeff-Com:  0.100D+01
 Coeff-En:   0.100D+01
 Coeff:      0.100D+01
 Gap=     0.358 Goal=   None    Shift=    0.000
 GapD=    0.358 DampG=1.000 DampE=0.500 DampFc=0.5000 IDamp=-1.
 Damping current iteration by 5.00D-01
 RMSDP=1.36D-03 MaxDP=5.42D-02              OVMax= 1.51D-01

 Cycle   2  Pass 0  IDiag  1:
 E= -115.489095226621     Delta-E=       -0.050274602633 Rises=F Damp=T
 DIIS: error= 1.17D-02 at cycle   2 NSaved=   2.
 NSaved= 2 IEnMin= 2 EnMin= -115.489095226621     IErMin= 2 ErrMin= 1.17D-02
 ErrMax= 1.17D-02  0.00D+00 EMaxC= 1.00D-01 BMatC= 1.85D-02 BMatP= 1.90D-01
 IDIUse=3 WtCom= 8.83D-01 WtEn= 1.17D-01
 Coeff-Com: -0.114D+00 0.111D+01
 Coeff-En:   0.000D+00 0.100D+01
 Coeff:     -0.101D+00 0.110D+01
 Gap=     0.429 Goal=   None    Shift=    0.000
 RMSDP=3.59D-04 MaxDP=1.03D-02 DE=-5.03D-02 OVMax= 8.75D-02

 Cycle   3  Pass 0  IDiag  1:
 E= -115.539109391081     Delta-E=       -0.050014164459 Rises=F Damp=F
 DIIS: error= 4.76D-03 at cycle   3 NSaved=   3.
 NSaved= 3 IEnMin= 3 EnMin= -115.539109391081     IErMin= 3 ErrMin= 4.76D-03
 ErrMax= 4.76D-03  0.00D+00 EMaxC= 1.00D-01 BMatC= 3.92D-03 BMatP= 1.85D-02
 IDIUse=3 WtCom= 9.52D-01 WtEn= 4.76D-02
 Coeff-Com: -0.125D+00 0.311D+00 0.814D+00
 Coeff-En:   0.000D+00 0.000D+00 0.100D+01
 Coeff:     -0.119D+00 0.296D+00 0.823D+00
 Gap=     0.408 Goal=   None    Shift=    0.000
 RMSDP=1.17D-04 MaxDP=4.49D-03 DE=-5.00D-02 OVMax= 1.42D-02

 Cycle   4  Pass 0  IDiag  1:
 E= -115.541287865294     Delta-E=       -0.002178474213 Rises=F Damp=F
 DIIS: error= 1.53D-03 at cycle   4 NSaved=   4.
 NSaved= 4 IEnMin= 4 EnMin= -115.541287865294     IErMin= 4 ErrMin= 1.53D-03
 ErrMax= 1.53D-03  0.00D+00 EMaxC= 1.00D-01 BMatC= 4.50D-04 BMatP= 3.92D-03
 IDIUse=3 WtCom= 9.85D-01 WtEn= 1.53D-02
 Coeff-Com: -0.436D-01 0.766D-01 0.352D+00 0.615D+00
 Coeff-En:   0.000D+00 0.000D+00 0.000D+00 0.100D+01
 Coeff:     -0.430D-01 0.754D-01 0.347D+00 0.621D+00
 Gap=     0.408 Goal=   None    Shift=    0.000
 RMSDP=3.71D-05 MaxDP=1.84D-03 DE=-2.18D-03 OVMax= 5.49D-03

 Cycle   5  Pass 0  IDiag  1:
 E= -115.541651716247     Delta-E=       -0.000363850953 Rises=F Damp=F
 DIIS: error= 1.65D-04 at cycle   5 NSaved=   5.
 NSaved= 5 IEnMin= 5 EnMin= -115.541651716247     IErMin= 5 ErrMin= 1.65D-04
 ErrMax= 1.65D-04  0.00D+00 EMaxC= 1.00D-01 BMatC= 5.56D-06 BMatP= 4.50D-04
 IDIUse=3 WtCom= 9.98D-01 WtEn= 1.65D-03
 Coeff-Com: -0.712D-02 0.919D-02 0.627D-01 0.166D+00 0.769D+00
 Coeff-En:   0.000D+00 0.000D+00 0.000D+00 0.000D+00 0.100D+01
 Coeff:     -0.711D-02 0.917D-02 0.626D-01 0.166D+00 0.769D+00
 Gap=     0.408 Goal=   None    Shift=    0.000
 RMSDP=6.32D-06 MaxDP=1.71D-04 DE=-3.64D-04 OVMax= 4.95D-04

 Initial convergence to 1.0D-05 achieved.  Increase integral accuracy.
 Cycle   6  Pass 1  IDiag  1:
 E= -115.541661553826     Delta-E=       -0.000009837579 Rises=F Damp=F
 DIIS: error= 2.05D-05 at cycle   1 NSaved=   1.
 NSaved= 1 IEnMin= 1 EnMin= -115.541661553826     IErMin= 1 ErrMin= 2.05D-05
 ErrMax= 2.05D-05  0.00D+00 EMaxC= 1.00D-01 BMatC= 6.74D-08 BMatP= 6.74D-08
 IDIUse=1 WtCom= 1.00D+00 WtEn= 0.00D+00
 Coeff-Com:  0.100D+01
 Coeff:      0.100D+01
 Gap=     0.408 Goal=   None    Shift=    0.000
 RMSDP=6.32D-06 MaxDP=1.71D-04 DE=-9.84D-06 OVMax= 1.02D-04

 Cycle   7  Pass 1  IDiag  1:
 E= -115.541661644860     Delta-E=       -0.000000091034 Rises=F Damp=F
 DIIS: error= 3.38D-06 at cycle   2 NSaved=   2.
 NSaved= 2 IEnMin= 2 EnMin= -115.541661644860     IErMin= 2 ErrMin= 3.38D-06
 ErrMax= 3.38D-06  0.00D+00 EMaxC= 1.00D-01 BMatC= 3.60D-09 BMatP= 6.74D-08
 IDIUse=1 WtCom= 1.00D+00 WtEn= 0.00D+00
 Coeff-Com: -0.650D-01 0.106D+01
 Coeff:     -0.650D-01 0.106D+01
 Gap=     0.408 Goal=   None    Shift=    0.000
 RMSDP=4.55D-07 MaxDP=1.26D-05 DE=-9.10D-08 OVMax= 3.77D-05

 Cycle   8  Pass 1  IDiag  1:
 E= -115.541661651893     Delta-E=       -0.000000007033 Rises=F Damp=F
 DIIS: error= 2.39D-06 at cycle   3 NSaved=   3.
 NSaved= 3 IEnMin= 3 EnMin= -115.541661651893     IErMin= 3 ErrMin= 2.39D-06
 ErrMax= 2.39D-06  0.00D+00 EMaxC= 1.00D-01 BMatC= 7.88D-10 BMatP= 3.60D-09
 IDIUse=1 WtCom= 1.00D+00 WtEn= 0.00D+00
 Coeff-Com: -0.681D-01 0.241D+00 0.827D+00
 Coeff:     -0.681D-01 0.241D+00 0.827D+00
 Gap=     0.408 Goal=   None    Shift=    0.000
 RMSDP=1.11D-07 MaxDP=3.68D-06 DE=-7.03D-09 OVMax= 1.23D-05

 Cycle   9  Pass 1  IDiag  1:
 E= -115.541661652640     Delta-E=       -0.000000000747 Rises=F Damp=F
 DIIS: error= 8.86D-07 at cycle   4 NSaved=   4.
 NSaved= 4 IEnMin= 4 EnMin= -115.541661652640     IErMin= 4 ErrMin= 8.86D-07
 ErrMax= 8.86D-07  0.00D+00 EMaxC= 1.00D-01 BMatC= 2.21D-10 BMatP= 7.88D-10
 IDIUse=1 WtCom= 1.00D+00 WtEn= 0.00D+00
 Coeff-Com: -0.223D-01-0.935D-02 0.376D+00 0.655D+00
 Coeff:     -0.223D-01-0.935D-02 0.376D+00 0.655D+00
 Gap=     0.408 Goal=   None    Shift=    0.000
 RMSDP=3.64D-08 MaxDP=1.58D-06 DE=-7.47D-10 OVMax= 5.14D-06

 Cycle  10  Pass 1  IDiag  1:
 E= -115.541661652809     Delta-E=       -0.000000000168 Rises=F Damp=F
 DIIS: error= 1.75D-07 at cycle   5 NSaved=   5.
 NSaved= 5 IEnMin= 5 EnMin= -115.541661652809     IErMin= 5 ErrMin= 1.75D-07
 ErrMax= 1.75D-07  0.00D+00 EMaxC= 1.00D-01 BMatC= 6.29D-12 BMatP= 2.21D-10
 IDIUse=1 WtCom= 1.00D+00 WtEn= 0.00D+00
 Coeff-Com:  0.175D-02-0.288D-01 0.116D-01 0.132D+00 0.883D+00
 Coeff:      0.175D-02-0.288D-01 0.116D-01 0.132D+00 0.883D+00
 Gap=     0.408 Goal=   None    Shift=    0.000
 RMSDP=9.76D-09 MaxDP=3.12D-07 DE=-1.68D-10 OVMax= 1.29D-06

 SCF Done:  E(RB2PLYPD3) =  -115.541661653     A.U. after   10 cycles
            NFock= 10  Conv=0.98D-08     -V/T= 2.0021
 KE= 1.152949720160D+02 PE=-3.522874691088D+02 EE= 8.111419659972D+01
 Leave Link  502 at Wed Aug 26 13:51:26 2020, MaxMem=  2097152000 cpu:       100.3
 (Enter /opt/cluster/programs/g09/g09_d.01/g09/l801.exe)
 DoSCS=T DFT=T ScalE2(SS,OS)=  0.270000  0.270000
 ExpMin= 7.60D-02 ExpMax= 1.17D+05 ExpMxC= 1.13D+03 IAcc=3 IRadAn=         5 AccDes= 0.00D+00
 HarFok:  IExCor=  205 AccDes= 0.00D+00 IRadAn=         5 IDoV=-2 UseB2=F ITyADJ=14
 ICtDFT= 12500011 ScaDFX=  1.000000  1.000000  1.000000  1.000000
 Largest valence mixing into a core orbital is  1.17D-04
 Largest core mixing into a valence orbital is  1.53D-05
 Range of M.O.s used for correlation:     3   234
 NBasis=   234 NAE=     9 NBE=     9 NFC=     2 NFV=     0
 NROrb=    232 NOA=     7 NOB=     7 NVA=   225 NVB=   225

 **** Warning!!: The largest alpha MO coefficient is  0.28894410D+02

 Leave Link  801 at Wed Aug 26 13:51:26 2020, MaxMem=  2097152000 cpu:         0.8
 (Enter /opt/cluster/programs/g09/g09_d.01/g09/l906.exe)
 DoSCS=T DFT=T ScalE2(SS,OS)=  0.270000  0.270000
 FulOut=F Deriv=F AODrv=F NAtomX=     6
   MMem=        3646  MDisk=           7 MDiskD=           7
  W3Min=      447300 MinDsk=     1090093 NBas6D=         284
 NBas2D=       41310    NTT=       40470    LW2=     4508827
    MDV=  2096872520 MDiskM=       16391 NBas2p=       41304
 Fully in-core method, ICMem=  1722292712.
 IMap=   1   2   3   4   5   6   7
 JobTyp=1 Pass  1 fully in-core, NPsUse=  8.
 Compute canonical integrals.
 FoFCou: FMM=F IPFlag=           0 FMFlag=           0 FMFlg1=           0
         NFxFlg=           0 DoJE=F BraDBF=F KetDBF=F FulRan=T
         wScrn=  0.000000 ICntrl=     600 IOpCl=  1 I1Cent=           0 NGrid=           0
         NMat0=    1 NMatS0=  41310 NMatT0=    0 NMatD0=    1 NMtDS0=    0 NMtDT0=    0
 Symmetry not used in FoFCou.
 Spin components of T(2) and E(2):
     alpha-alpha T2 =       0.2031477514D-01 E2=     -0.1650893832D-01
     alpha-beta  T2 =       0.1289717722D+00 E2=     -0.1129862514D+00
     beta-beta   T2 =       0.2031477514D-01 E2=     -0.1650893832D-01
 The integrals were generated   1 times.
 E2(B2PLYPD3) =    -0.1460041280D+00 E(B2PLYPD3) =    -0.11568766578082D+03
 Leave Link  906 at Wed Aug 26 13:51:50 2020, MaxMem=  2097152000 cpu:       188.5
 (Enter /opt/cluster/programs/g09/g09_d.01/g09/l601.exe)
 Copying SCF densities to generalized density rwf, IOpCl= 0 IROHF=0.

 **********************************************************************

            Population analysis using the SCF density.

 **********************************************************************

 Orbital symmetries:
       Occupied  (A) (A) (A) (A) (A) (A) (A) (A) (A)
       Virtual   (A) (A) (A) (A) (A) (A) (A) (A) (A) (A) (A) (A)
                 (A) (A) (A) (A) (A) (A) (A) (A) (A) (A) (A) (A)
                 (A) (A) (A) (A) (A) (A) (A) (A) (A) (A) (A) (A)
                 (A) (A) (A) (A) (A) (A) (A) (A) (A) (A) (A) (A)
                 (A) (A) (A) (A) (A) (A) (A) (A) (A) (A) (A) (A)
                 (A) (A) (A) (A) (A) (A) (A) (A) (A) (A) (A) (A)
                 (A) (A) (A) (A) (A) (A) (A) (A) (A) (A) (A) (A)
                 (A) (A) (A) (A) (A) (A) (A) (A) (A) (A) (A) (A)
                 (A) (A) (A) (A) (A) (A) (A) (A) (A) (A) (A) (A)
                 (A) (A) (A) (A) (A) (A) (A) (A) (A) (A) (A) (A)
                 (A) (A) (A) (A) (A) (A) (A) (A) (A) (A) (A) (A)
                 (A) (A) (A) (A) (A) (A) (A) (A) (A) (A) (A) (A)
                 (A) (A) (A) (A) (A) (A) (A) (A) (A) (A) (A) (A)
                 (A) (A) (A) (A) (A) (A) (A) (A) (A) (A) (A) (A)
                 (A) (A) (A) (A) (A) (A) (A) (A) (A) (A) (A) (A)
                 (A) (A) (A) (A) (A) (A) (A) (A) (A) (A) (A) (A)
                 (A) (A) (A) (A) (A) (A) (A) (A) (A) (A) (A) (A)
                 (A) (A) (A) (A) (A) (A) (A) (A) (A) (A) (A) (A)
                 (A) (A) (A) (A) (A) (A) (A) (A) (A)
 The electronic state is 1-A.
 Alpha  occ. eigenvalues --  -19.71006 -10.66382  -1.16798  -0.79592  -0.59281
 Alpha  occ. eigenvalues --   -0.52003  -0.49470  -0.40648  -0.35436
 Alpha virt. eigenvalues --    0.05336   0.08548   0.12070   0.12342   0.14680
 Alpha virt. eigenvalues --    0.16917   0.17671   0.29212   0.32037   0.33279
 Alpha virt. eigenvalues --    0.37594   0.38442   0.39672   0.40956   0.43324
 Alpha virt. eigenvalues --    0.46615   0.54348   0.57013   0.59523   0.66358
 Alpha virt. eigenvalues --    0.69879   0.72219   0.75006   0.77854   0.79421
 Alpha virt. eigenvalues --    0.82250   0.86012   0.88214   0.92945   0.97112
 Alpha virt. eigenvalues --    1.02124   1.03681   1.05295   1.08284   1.09298
 Alpha virt. eigenvalues --    1.12972   1.18620   1.22894   1.28811   1.40488
 Alpha virt. eigenvalues --    1.40990   1.42124   1.42592   1.47911   1.50514
 Alpha virt. eigenvalues --    1.79284   1.81839   1.86659   1.87805   1.89840
 Alpha virt. eigenvalues --    1.93428   1.95191   1.96921   2.00530   2.02968
 Alpha virt. eigenvalues --    2.04260   2.14409   2.18164   2.19031   2.21644
 Alpha virt. eigenvalues --    2.24863   2.29830   2.30908   2.38309   2.42599
 Alpha virt. eigenvalues --    2.45183   2.48415   2.58553   2.61630   2.63511
 Alpha virt. eigenvalues --    2.65205   2.68892   2.69994   2.77477   2.83288
 Alpha virt. eigenvalues --    2.84792   2.88364   2.90508   2.92683   2.95618
 Alpha virt. eigenvalues --    2.97373   3.04612   3.05420   3.12201   3.21248
 Alpha virt. eigenvalues --    3.24494   3.29309   3.33014   3.42592   3.46783
 Alpha virt. eigenvalues --    3.48386   3.67065   3.68364   3.84517   3.91681
 Alpha virt. eigenvalues --    3.93619   3.96933   4.01853   4.09345   4.15834
 Alpha virt. eigenvalues --    4.18695   4.22298   4.28771   4.35198   4.54010
 Alpha virt. eigenvalues --    4.55703   4.70563   4.72314   4.91657   5.22121
 Alpha virt. eigenvalues --    5.40862   5.43696   5.48083   5.61192   5.65120
 Alpha virt. eigenvalues --    5.71546   5.74515   5.80083   5.85922   5.88994
 Alpha virt. eigenvalues --    5.93305   5.98917   6.00590   6.03775   6.07955
 Alpha virt. eigenvalues --    6.19938   6.22286   6.25804   6.27795   6.28903
 Alpha virt. eigenvalues --    6.37376   6.39067   6.47396   6.50773   6.51747
 Alpha virt. eigenvalues --    6.57075   6.68401   6.75794   6.79069   6.91363
 Alpha virt. eigenvalues --    6.92141   7.06562   7.17366   7.18978   7.24071
 Alpha virt. eigenvalues --    7.27355   7.29579   7.33106   7.40091   7.41217
 Alpha virt. eigenvalues --    7.46835   7.51849   7.52767   7.64175   7.69356
 Alpha virt. eigenvalues --    7.70427   7.77188   7.78838   7.81181   7.82359
 Alpha virt. eigenvalues --    7.84679   7.89194   7.97820   8.00035   8.11516
 Alpha virt. eigenvalues --    8.14750   8.28873   8.34576   8.40405   8.45308
 Alpha virt. eigenvalues --    8.46724   8.49998   8.51285   8.51633   8.53890
 Alpha virt. eigenvalues --    8.54759   8.69924   8.83127   8.88429   8.93108
 Alpha virt. eigenvalues --    8.97910   9.04202   9.19126   9.22136   9.40935
 Alpha virt. eigenvalues --    9.52601   9.54125   9.60573   9.66672   9.77240
 Alpha virt. eigenvalues --    9.83614   9.90795   9.98235  10.06626  10.15217
 Alpha virt. eigenvalues --   10.16769  10.31910  10.39396  10.60290  10.66531
 Alpha virt. eigenvalues --   10.97187  11.07124  11.19062  11.52659  11.59881
 Alpha virt. eigenvalues --   11.65096  11.67293  11.99594  12.08956  12.13586
 Alpha virt. eigenvalues --   12.28826  12.46327  12.70939  12.75816  12.97603
 Alpha virt. eigenvalues --   13.26019  13.40019  14.63126  14.84079  14.97219
 Alpha virt. eigenvalues --   17.14871  29.17750  48.99084 148.76676 254.78080
          Condensed to atoms (all electrons):
               1          2          3          4          5          6
     1  C    4.440403   0.259133   0.426407   0.434700   0.403328  -0.041958
     2  O    0.259133   7.977477  -0.045616  -0.052472  -0.036721   0.341478
     3  H    0.426407  -0.045616   0.650601  -0.046981  -0.036397  -0.003944
     4  H    0.434700  -0.052472  -0.046981   0.647970  -0.031850  -0.003945
     5  H    0.403328  -0.036721  -0.036397  -0.031850   0.616056   0.008043
     6  H   -0.041958   0.341478  -0.003944  -0.003945   0.008043   0.521083
 Mulliken charges:
               1
     1  C    0.077987
     2  O   -0.443279
     3  H    0.055931
     4  H    0.052578
     5  H    0.077541
     6  H    0.179243
 Sum of Mulliken charges =   0.00000
 Mulliken charges with hydrogens summed into heavy atoms:
               1
     1  C    0.264036
     2  O   -0.264036
 Electronic spatial extent (au):  <R**2>=             85.0107
 Charge=              0.0000 electrons
 Dipole moment (field-independent basis, Debye):
    X=             -0.9228    Y=             -1.4257    Z=              0.1788  Tot=              1.7076
 Quadrupole moment (field-independent basis, Debye-Ang):
   XX=            -12.8357   YY=            -12.3052   ZZ=            -13.6836
   XY=             -2.2011   XZ=              0.1424   YZ=             -0.0848
 Traceless Quadrupole moment (field-independent basis, Debye-Ang):
   XX=              0.1058   YY=              0.6363   ZZ=             -0.7421
   XY=             -2.2011   XZ=              0.1424   YZ=             -0.0848
 Octapole moment (field-independent basis, Debye-Ang**2):
  XXX=              5.1564  YYY=             -0.3769  ZZZ=              0.3804  XYY=              1.3120
  XXY=             -2.3615  XXZ=              0.4258  XZZ=              0.3574  YZZ=             -0.7938
  YYZ=             -0.1746  XYZ=             -0.1533
 Hexadecapole moment (field-independent basis, Debye-Ang**3):
 XXXX=            -62.6236 YYYY=            -20.5336 ZZZZ=            -19.8932 XXXY=             -4.2029
 XXXZ=              0.1421 YYYX=             -2.8537 YYYZ=             -0.0909 ZZZX=             -0.2637
 ZZZY=             -0.0320 XXYY=            -13.0672 XXZZ=            -14.7266 YYZZ=             -6.8146
 XXYZ=             -0.2451 YYXZ=              0.3579 ZZXY=              0.1242
 N-N= 4.033663884028D+01 E-N=-3.522874446113D+02  KE= 1.152949720160D+02
 Leave Link  601 at Wed Aug 26 13:51:53 2020, MaxMem=  2097152000 cpu:         0.5
 (Enter /opt/cluster/programs/g09/g09_d.01/g09/l9999.exe)
 1\1\GINC-NODE40\SP\RB2PLYPD3-FC\def2QZVP\C1H4O1\BOITTIER\26-Aug-2020\0
 \\#p B2PLYPD3/Def2QZVP\\methanol\\0,1\C,0,-5.200681,-1.253718,0.918543
 \O,0,-3.759945,-1.128126,0.851609\H,0,-5.504612,-2.207736,0.53601\H,0,
 -5.62461,-0.44572,0.30625\H,0,-5.449112,-1.187294,2.016271\H,0,-3.4275
 84,-1.15596,0.04527\\Version=ES64L-G09RevD.01\State=1-A\HF=-115.541661
 7\MP2=-115.6876658\RMSD=9.757e-09\PG=C01 [X(C1H4O1)]\\@


 I DON'T EXACTLY UNDERSTAND WHAT YOU ARE SAYING,
 BUT YOU ARE ABSOLUTELY RIGHT.
     M.S.GORDON, IN A NDSU FACULTY MEETING
 Job cpu time:       0 days  0 hours  4 minutes 59.8 seconds.
 File lengths (MBytes):  RWF=     23 Int=      0 D2E=      0 Chk=      4 Scr=      1
 Normal termination of Gaussian 09 at Wed Aug 26 13:51:54 2020.
