 Entering Gaussian System, Link 0=/opt/cluster/programs/g09/g09_d.01/g09//g09
 Input=/home/boittier/MDCM/nms_sampling/methanol_geom.xyz.dir/energies/methanol_2668_energy.com
 Output=/scratch/boittier/methanol_2668_energy/methanol_2668_energy.out
 Initial command:
 /opt/cluster/programs/g09/g09_d.01/g09/l1.exe "/scratch/boittier/methanol_2668_energy/Gau-105624.inp" -scrdir="/scratch/boittier/methanol_2668_energy/"
 Entering Link 1 = /opt/cluster/programs/g09/g09_d.01/g09/l1.exe PID=    105625.
  
 Copyright (c) 1988,1990,1992,1993,1995,1998,2003,2009,2013,
            Gaussian, Inc.  All Rights Reserved.
  
 This is part of the Gaussian(R) 09 program.  It is based on
 the Gaussian(R) 03 system (copyright 2003, Gaussian, Inc.),
 the Gaussian(R) 98 system (copyright 1998, Gaussian, Inc.),
 the Gaussian(R) 94 system (copyright 1995, Gaussian, Inc.),
 the Gaussian 92(TM) system (copyright 1992, Gaussian, Inc.),
 the Gaussian 90(TM) system (copyright 1990, Gaussian, Inc.),
 the Gaussian 88(TM) system (copyright 1988, Gaussian, Inc.),
 the Gaussian 86(TM) system (copyright 1986, Carnegie Mellon
 University), and the Gaussian 82(TM) system (copyright 1983,
 Carnegie Mellon University). Gaussian is a federally registered
 trademark of Gaussian, Inc.
  
 This software contains proprietary and confidential information,
 including trade secrets, belonging to Gaussian, Inc.
  
 This software is provided under written license and may be
 used, copied, transmitted, or stored only in accord with that
 written license.
  
 The following legend is applicable only to US Government
 contracts under FAR:
  
                    RESTRICTED RIGHTS LEGEND
  
 Use, reproduction and disclosure by the US Government is
 subject to restrictions as set forth in subparagraphs (a)
 and (c) of the Commercial Computer Software - Restricted
 Rights clause in FAR 52.227-19.
  
 Gaussian, Inc.
 340 Quinnipiac St., Bldg. 40, Wallingford CT 06492
  
  
 ---------------------------------------------------------------
 Warning -- This program may not be used in any manner that
 competes with the business of Gaussian, Inc. or will provide
 assistance to any competitor of Gaussian, Inc.  The licensee
 of this program is prohibited from giving any competitor of
 Gaussian, Inc. access to this program.  By using this program,
 the user acknowledges that Gaussian, Inc. is engaged in the
 business of creating and licensing software in the field of
 computational chemistry and represents and warrants to the
 licensee that it is not a competitor of Gaussian, Inc. and that
 it will not use this program in any manner prohibited above.
 ---------------------------------------------------------------
  

 Cite this work as:
 Gaussian 09, Revision D.01,
 M. J. Frisch, G. W. Trucks, H. B. Schlegel, G. E. Scuseria, 
 M. A. Robb, J. R. Cheeseman, G. Scalmani, V. Barone, B. Mennucci, 
 G. A. Petersson, H. Nakatsuji, M. Caricato, X. Li, H. P. Hratchian, 
 A. F. Izmaylov, J. Bloino, G. Zheng, J. L. Sonnenberg, M. Hada, 
 M. Ehara, K. Toyota, R. Fukuda, J. Hasegawa, M. Ishida, T. Nakajima, 
 Y. Honda, O. Kitao, H. Nakai, T. Vreven, J. A. Montgomery, Jr., 
 J. E. Peralta, F. Ogliaro, M. Bearpark, J. J. Heyd, E. Brothers, 
 K. N. Kudin, V. N. Staroverov, T. Keith, R. Kobayashi, J. Normand, 
 K. Raghavachari, A. Rendell, J. C. Burant, S. S. Iyengar, J. Tomasi, 
 M. Cossi, N. Rega, J. M. Millam, M. Klene, J. E. Knox, J. B. Cross, 
 V. Bakken, C. Adamo, J. Jaramillo, R. Gomperts, R. E. Stratmann, 
 O. Yazyev, A. J. Austin, R. Cammi, C. Pomelli, J. W. Ochterski, 
 R. L. Martin, K. Morokuma, V. G. Zakrzewski, G. A. Voth, 
 P. Salvador, J. J. Dannenberg, S. Dapprich, A. D. Daniels, 
 O. Farkas, J. B. Foresman, J. V. Ortiz, J. Cioslowski, 
 and D. J. Fox, Gaussian, Inc., Wallingford CT, 2013.
 
 ******************************************
 Gaussian 09:  ES64L-G09RevD.01 24-Apr-2013
                26-Aug-2020 
 ******************************************
 %chk=/home/boittier/MDCM/nms_sampling/methanol_geom.xyz.dir/methanol_2668.chk
 %nproc=8
 Will use up to    8 processors via shared memory.
 %mem=16000MB
 --------------------
 #p B2PLYPD3/Def2QZVP
 --------------------
 1/38=1/1;
 2/12=2,17=6,18=5,40=1/2;
 3/5=45,7=101,11=9,16=1,25=1,30=1,74=-60/1,2,3;
 4//1;
 5/5=2,38=5/2;
 8/10=1/1;
 9/16=-3/6;
 6/7=2,8=2,9=2,10=2/1;
 99/5=1,9=1/99;
 Leave Link    1 at Wed Aug 26 20:23:06 2020, MaxMem=  2097152000 cpu:        35.8
 (Enter /opt/cluster/programs/g09/g09_d.01/g09/l101.exe)
 --------
 methanol
 --------
 Symbolic Z-matrix:
 Charge =  0 Multiplicity = 1
 C                    -5.18753  -1.25205   0.90511 
 O                    -3.76623  -1.13067   0.89256 
 H                    -5.33581  -2.11323   0.58924 
 H                    -5.68414  -0.52529   0.38188 
 H                    -5.54652  -1.15935   1.82111 
 H                    -3.49067  -1.18112  -0.39738 
 
 NAtoms=      6 NQM=        6 NQMF=       0 NMMI=      0 NMMIF=      0
                NMic=       0 NMicF=      0.
                    Isotopes and Nuclear Properties:
 (Nuclear quadrupole moments (NQMom) in fm**2, nuclear magnetic moments (NMagM)
  in nuclear magnetons)

  Atom         1           2           3           4           5           6
 IAtWgt=          12          16           1           1           1           1
 AtmWgt=  12.0000000  15.9949146   1.0078250   1.0078250   1.0078250   1.0078250
 NucSpn=           0           0           1           1           1           1
 AtZEff=   0.0000000   0.0000000   0.0000000   0.0000000   0.0000000   0.0000000
 NQMom=    0.0000000   0.0000000   0.0000000   0.0000000   0.0000000   0.0000000
 NMagM=    0.0000000   0.0000000   2.7928460   2.7928460   2.7928460   2.7928460
 AtZNuc=   6.0000000   8.0000000   1.0000000   1.0000000   1.0000000   1.0000000
 Leave Link  101 at Wed Aug 26 20:23:11 2020, MaxMem=  2097152000 cpu:         0.6
 (Enter /opt/cluster/programs/g09/g09_d.01/g09/l202.exe)
                          Input orientation:                          
 ---------------------------------------------------------------------
 Center     Atomic      Atomic             Coordinates (Angstroms)
 Number     Number       Type             X           Y           Z
 ---------------------------------------------------------------------
      1          6           0       -5.187528   -1.252048    0.905106
      2          8           0       -3.766230   -1.130669    0.892562
      3          1           0       -5.335812   -2.113226    0.589243
      4          1           0       -5.684141   -0.525289    0.381882
      5          1           0       -5.546523   -1.159353    1.821110
      6          1           0       -3.490665   -1.181118   -0.397378
 ---------------------------------------------------------------------
                    Distance matrix (angstroms):
                    1          2          3          4          5
     1  C    0.000000
     2  O    1.426527   0.000000
     3  H    0.929185   1.876435   0.000000
     4  H    1.023995   2.075009   1.638864   0.000000
     5  H    0.988197   2.008100   1.572186   1.578719   0.000000
     6  H    2.140290   1.320010   2.290592   2.418407   3.024684
                    6
     6  H    0.000000
 Stoichiometry    CH4O
 Framework group  C1[X(CH4O)]
 Deg. of freedom    12
 Full point group                 C1      NOp   1
 Largest Abelian subgroup         C1      NOp   1
 Largest concise Abelian subgroup C1      NOp   1
                         Standard orientation:                         
 ---------------------------------------------------------------------
 Center     Atomic      Atomic             Coordinates (Angstroms)
 Number     Number       Type             X           Y           Z
 ---------------------------------------------------------------------
      1          6           0        0.675132    0.039504    0.017324
      2          8           0       -0.732968   -0.186027   -0.019664
      3          1           0        0.815830    0.403135    0.860746
      4          1           0        1.037284    0.613575   -0.749393
      5          1           0        1.175751   -0.807416   -0.075624
      6          1           0       -1.215911    1.041898    0.017642
 ---------------------------------------------------------------------
 Rotational constants (GHZ):    124.5202248     25.2498054     23.5924899
 Leave Link  202 at Wed Aug 26 20:23:12 2020, MaxMem=  2097152000 cpu:         0.2
 (Enter /opt/cluster/programs/g09/g09_d.01/g09/l301.exe)
 Standard basis: def2QZVP (5D, 7F)
 Ernie: Thresh=  0.10000D-02 Tol=  0.10000D-05 Strict=F.
 There are   284 symmetry adapted cartesian basis functions of A   symmetry.
 There are   234 symmetry adapted basis functions of A   symmetry.
   234 basis functions,   336 primitive gaussians,   284 cartesian basis functions
     9 alpha electrons        9 beta electrons
       nuclear repulsion energy        40.2510330639 Hartrees.
 IExCor=  419 DFT=T Ex+Corr=B2PLYPD3 ExCW=0 ScaHFX=  0.530000
 ScaDFX=  0.470000  0.470000  0.730000  0.730000 ScalE2=  0.270000  0.270000
 IRadAn=      0 IRanWt=     -1 IRanGd=            0 ICorTp=0 IEmpDi=141
 NAtoms=    6 NActive=    6 NUniq=    6 SFac= 1.00D+00 NAtFMM=   60 NAOKFM=F Big=F
 Integral buffers will be    131072 words long.
 Regular integral format.
 Two-electron integral symmetry is turned on.
 R6Disp:  Grimme-D3(BJ) Dispersion energy=       -0.0014750399 Hartrees.
 Nuclear repulsion after empirical dispersion term =       40.2495580240 Hartrees.
 Leave Link  301 at Wed Aug 26 20:23:13 2020, MaxMem=  2097152000 cpu:         0.5
 (Enter /opt/cluster/programs/g09/g09_d.01/g09/l302.exe)
 NPDir=0 NMtPBC=     1 NCelOv=     1 NCel=       1 NClECP=     1 NCelD=      1
         NCelK=      1 NCelE2=     1 NClLst=     1 CellRange=     0.0.
 One-electron integrals computed using PRISM.
   1 Symmetry operations used in ECPInt.
 ECPInt:  NShTT=    2775 NPrTT=    6207 LenC2=    2774 LenP2D=    5740.
 LDataN:  DoStor=T MaxTD1= 8 Len=  415
 NBasis=   234 RedAO= T EigKep=  6.77D-05  NBF=   234
 NBsUse=   234 1.00D-06 EigRej= -1.00D+00 NBFU=   234
 Precomputing XC quadrature grid using
 IXCGrd= 4 IRadAn=           0 IRanWt=          -1 IRanGd=           0 AccXCQ= 0.00D+00.
 Generated NRdTot=       0 NPtTot=           0 NUsed=           0 NTot=          32
 NSgBfM=   284   284   284   284   284 MxSgAt=     6 MxSgA2=     6.
 Leave Link  302 at Wed Aug 26 20:23:15 2020, MaxMem=  2097152000 cpu:         2.1
 (Enter /opt/cluster/programs/g09/g09_d.01/g09/l303.exe)
 DipDrv:  MaxL=1.
 Leave Link  303 at Wed Aug 26 20:23:17 2020, MaxMem=  2097152000 cpu:         0.7
 (Enter /opt/cluster/programs/g09/g09_d.01/g09/l401.exe)
 ExpMin= 7.60D-02 ExpMax= 1.17D+05 ExpMxC= 1.13D+03 IAcc=2 IRadAn=         4 AccDes= 0.00D+00
 Harris functional with IExCor=  419 and IRadAn=       4 diagonalized for initial guess.
 HarFok:  IExCor=  419 AccDes= 0.00D+00 IRadAn=         4 IDoV= 1 UseB2=F ITyADJ=14
 ICtDFT=  3500011 ScaDFX=  1.000000  1.000000  1.000000  1.000000
 FoFCou: FMM=F IPFlag=           0 FMFlag=      100000 FMFlg1=           0
         NFxFlg=           0 DoJE=T BraDBF=F KetDBF=T FulRan=T
         wScrn=  0.000000 ICntrl=     500 IOpCl=  0 I1Cent=   200000004 NGrid=           0
         NMat0=    1 NMatS0=      1 NMatT0=    0 NMatD0=    1 NMtDS0=    0 NMtDT0=    0
 Petite list used in FoFCou.
 Harris En= -115.766511676712    
 JPrj=0 DoOrth=F DoCkMO=F.
 Leave Link  401 at Wed Aug 26 20:23:17 2020, MaxMem=  2097152000 cpu:         4.0
 (Enter /opt/cluster/programs/g09/g09_d.01/g09/l502.exe)
 Closed shell SCF:
 Using DIIS extrapolation, IDIIS=  1040.
 Integral symmetry usage will be decided dynamically.
 Keep R1 ints in memory in canonical form, NReq=389840494.
 IVT=      264814 IEndB=      264814 NGot=  2097152000 MDV=  1718885927
 LenX=  1718885927 LenY=  1718804830
 Requested convergence on RMS density matrix=1.00D-08 within 128 cycles.
 Requested convergence on MAX density matrix=1.00D-06.
 Requested convergence on             energy=1.00D-06.
 No special actions if energy rises.
 FoFCou: FMM=F IPFlag=           0 FMFlag=           0 FMFlg1=           0
         NFxFlg=           0 DoJE=F BraDBF=F KetDBF=F FulRan=T
         wScrn=  0.000000 ICntrl=     600 IOpCl=  0 I1Cent=           0 NGrid=           0
         NMat0=    1 NMatS0=  27495 NMatT0=    0 NMatD0=    1 NMtDS0=    0 NMtDT0=    0
 Symmetry not used in FoFCou.
 Integral accuracy reduced to 1.0D-05 until final iterations.

 Cycle   1  Pass 0  IDiag  1:
 E= -115.311794373309    
 DIIS: error= 3.22D-02 at cycle   1 NSaved=   1.
 NSaved= 1 IEnMin= 1 EnMin= -115.311794373309     IErMin= 1 ErrMin= 3.22D-02
 ErrMax= 3.22D-02  0.00D+00 EMaxC= 1.00D-01 BMatC= 2.06D-01 BMatP= 2.06D-01
 IDIUse=3 WtCom= 6.78D-01 WtEn= 3.22D-01
 Coeff-Com:  0.100D+01
 Coeff-En:   0.100D+01
 Coeff:      0.100D+01
 Gap=     0.229 Goal=   None    Shift=    0.000
 GapD=    0.229 DampG=1.000 DampE=0.500 DampFc=0.5000 IDamp=-1.
 Damping current iteration by 5.00D-01
 RMSDP=1.70D-03 MaxDP=5.73D-02              OVMax= 1.90D-01

 Cycle   2  Pass 0  IDiag  1:
 E= -115.377157885027     Delta-E=       -0.065363511719 Rises=F Damp=T
 DIIS: error= 1.16D-02 at cycle   2 NSaved=   2.
 NSaved= 2 IEnMin= 2 EnMin= -115.377157885027     IErMin= 2 ErrMin= 1.16D-02
 ErrMax= 1.16D-02  0.00D+00 EMaxC= 1.00D-01 BMatC= 2.35D-02 BMatP= 2.06D-01
 IDIUse=3 WtCom= 8.84D-01 WtEn= 1.16D-01
 Coeff-Com: -0.783D-01 0.108D+01
 Coeff-En:   0.000D+00 0.100D+01
 Coeff:     -0.692D-01 0.107D+01
 Gap=     0.368 Goal=   None    Shift=    0.000
 RMSDP=5.16D-04 MaxDP=1.60D-02 DE=-6.54D-02 OVMax= 1.30D-01

 Cycle   3  Pass 0  IDiag  1:
 E= -115.442067007587     Delta-E=       -0.064909122559 Rises=F Damp=F
 DIIS: error= 6.58D-03 at cycle   3 NSaved=   3.
 NSaved= 3 IEnMin= 3 EnMin= -115.442067007587     IErMin= 3 ErrMin= 6.58D-03
 ErrMax= 6.58D-03  0.00D+00 EMaxC= 1.00D-01 BMatC= 1.27D-02 BMatP= 2.35D-02
 IDIUse=3 WtCom= 9.34D-01 WtEn= 6.58D-02
 Coeff-Com: -0.138D+00 0.485D+00 0.653D+00
 Coeff-En:   0.000D+00 0.000D+00 0.100D+01
 Coeff:     -0.129D+00 0.453D+00 0.676D+00
 Gap=     0.353 Goal=   None    Shift=    0.000
 RMSDP=2.26D-04 MaxDP=9.53D-03 DE=-6.49D-02 OVMax= 3.62D-02

 Cycle   4  Pass 0  IDiag  1:
 E= -115.450054505216     Delta-E=       -0.007987497630 Rises=F Damp=F
 DIIS: error= 2.16D-03 at cycle   4 NSaved=   4.
 NSaved= 4 IEnMin= 4 EnMin= -115.450054505216     IErMin= 4 ErrMin= 2.16D-03
 ErrMax= 2.16D-03  0.00D+00 EMaxC= 1.00D-01 BMatC= 1.44D-03 BMatP= 1.27D-02
 IDIUse=3 WtCom= 9.78D-01 WtEn= 2.16D-02
 Coeff-Com: -0.446D-01 0.780D-01 0.300D+00 0.666D+00
 Coeff-En:   0.000D+00 0.000D+00 0.241D-01 0.976D+00
 Coeff:     -0.437D-01 0.763D-01 0.294D+00 0.673D+00
 Gap=     0.353 Goal=   None    Shift=    0.000
 RMSDP=6.42D-05 MaxDP=2.27D-03 DE=-7.99D-03 OVMax= 9.73D-03

 Cycle   5  Pass 0  IDiag  1:
 E= -115.451093384999     Delta-E=       -0.001038879783 Rises=F Damp=F
 DIIS: error= 2.12D-04 at cycle   5 NSaved=   5.
 NSaved= 5 IEnMin= 5 EnMin= -115.451093384999     IErMin= 5 ErrMin= 2.12D-04
 ErrMax= 2.12D-04  0.00D+00 EMaxC= 1.00D-01 BMatC= 9.69D-06 BMatP= 1.44D-03
 IDIUse=3 WtCom= 9.98D-01 WtEn= 2.12D-03
 Coeff-Com: -0.329D-02-0.999D-03 0.344D-01 0.124D+00 0.846D+00
 Coeff-En:   0.000D+00 0.000D+00 0.000D+00 0.000D+00 0.100D+01
 Coeff:     -0.329D-02-0.997D-03 0.343D-01 0.124D+00 0.846D+00
 Gap=     0.354 Goal=   None    Shift=    0.000
 RMSDP=1.11D-05 MaxDP=3.58D-04 DE=-1.04D-03 OVMax= 9.04D-04

 Cycle   6  Pass 0  IDiag  1:
 E= -115.451102481194     Delta-E=       -0.000009096195 Rises=F Damp=F
 DIIS: error= 3.85D-05 at cycle   6 NSaved=   6.
 NSaved= 6 IEnMin= 6 EnMin= -115.451102481194     IErMin= 6 ErrMin= 3.85D-05
 ErrMax= 3.85D-05  0.00D+00 EMaxC= 1.00D-01 BMatC= 3.60D-07 BMatP= 9.69D-06
 IDIUse=1 WtCom= 1.00D+00 WtEn= 0.00D+00
 Coeff-Com:  0.328D-02-0.500D-02-0.181D-01-0.491D-01-0.139D+00 0.121D+01
 Coeff:      0.328D-02-0.500D-02-0.181D-01-0.491D-01-0.139D+00 0.121D+01
 Gap=     0.354 Goal=   None    Shift=    0.000
 RMSDP=4.60D-06 MaxDP=1.43D-04 DE=-9.10D-06 OVMax= 4.61D-04

 Initial convergence to 1.0D-05 achieved.  Increase integral accuracy.
 Cycle   7  Pass 1  IDiag  1:
 E= -115.451092418264     Delta-E=        0.000010062931 Rises=F Damp=F
 DIIS: error= 6.89D-06 at cycle   1 NSaved=   1.
 NSaved= 1 IEnMin= 1 EnMin= -115.451092418264     IErMin= 1 ErrMin= 6.89D-06
 ErrMax= 6.89D-06  0.00D+00 EMaxC= 1.00D-01 BMatC= 2.89D-08 BMatP= 2.89D-08
 IDIUse=1 WtCom= 1.00D+00 WtEn= 0.00D+00
 Coeff-Com:  0.100D+01
 Coeff:      0.100D+01
 Gap=     0.354 Goal=   None    Shift=    0.000
 RMSDP=4.60D-06 MaxDP=1.43D-04 DE= 1.01D-05 OVMax= 5.35D-05

 Cycle   8  Pass 1  IDiag  1:
 E= -115.451092433941     Delta-E=       -0.000000015677 Rises=F Damp=F
 DIIS: error= 1.65D-06 at cycle   2 NSaved=   2.
 NSaved= 2 IEnMin= 2 EnMin= -115.451092433941     IErMin= 2 ErrMin= 1.65D-06
 ErrMax= 1.65D-06  0.00D+00 EMaxC= 1.00D-01 BMatC= 6.95D-10 BMatP= 2.89D-08
 IDIUse=1 WtCom= 1.00D+00 WtEn= 0.00D+00
 Coeff-Com: -0.306D-01 0.103D+01
 Coeff:     -0.306D-01 0.103D+01
 Gap=     0.354 Goal=   None    Shift=    0.000
 RMSDP=2.33D-07 MaxDP=6.56D-06 DE=-1.57D-08 OVMax= 3.31D-05

 Cycle   9  Pass 1  IDiag  1:
 E= -115.451092434787     Delta-E=       -0.000000000846 Rises=F Damp=F
 DIIS: error= 1.96D-06 at cycle   3 NSaved=   3.
 NSaved= 3 IEnMin= 3 EnMin= -115.451092434787     IErMin= 2 ErrMin= 1.65D-06
 ErrMax= 1.96D-06  0.00D+00 EMaxC= 1.00D-01 BMatC= 8.99D-10 BMatP= 6.95D-10
 IDIUse=1 WtCom= 1.00D+00 WtEn= 0.00D+00
 Coeff-Com: -0.414D-01 0.573D+00 0.468D+00
 Coeff:     -0.414D-01 0.573D+00 0.468D+00
 Gap=     0.354 Goal=   None    Shift=    0.000
 RMSDP=6.19D-08 MaxDP=2.61D-06 DE=-8.46D-10 OVMax= 7.03D-06

 Cycle  10  Pass 1  IDiag  1:
 E= -115.451092435444     Delta-E=       -0.000000000656 Rises=F Damp=F
 DIIS: error= 4.10D-07 at cycle   4 NSaved=   4.
 NSaved= 4 IEnMin= 4 EnMin= -115.451092435444     IErMin= 4 ErrMin= 4.10D-07
 ErrMax= 4.10D-07  0.00D+00 EMaxC= 1.00D-01 BMatC= 2.45D-11 BMatP= 6.95D-10
 IDIUse=1 WtCom= 1.00D+00 WtEn= 0.00D+00
 Coeff-Com: -0.161D-02-0.114D+00-0.718D-03 0.112D+01
 Coeff:     -0.161D-02-0.114D+00-0.718D-03 0.112D+01
 Gap=     0.354 Goal=   None    Shift=    0.000
 RMSDP=3.42D-08 MaxDP=1.10D-06 DE=-6.56D-10 OVMax= 5.98D-06

 Cycle  11  Pass 1  IDiag  1:
 E= -115.451092435500     Delta-E=       -0.000000000056 Rises=F Damp=F
 DIIS: error= 1.80D-07 at cycle   5 NSaved=   5.
 NSaved= 5 IEnMin= 5 EnMin= -115.451092435500     IErMin= 5 ErrMin= 1.80D-07
 ErrMax= 1.80D-07  0.00D+00 EMaxC= 1.00D-01 BMatC= 6.05D-12 BMatP= 2.45D-11
 IDIUse=1 WtCom= 1.00D+00 WtEn= 0.00D+00
 Coeff-Com:  0.395D-02-0.102D+00-0.589D-01 0.421D+00 0.736D+00
 Coeff:      0.395D-02-0.102D+00-0.589D-01 0.421D+00 0.736D+00
 Gap=     0.354 Goal=   None    Shift=    0.000
 RMSDP=8.26D-09 MaxDP=2.32D-07 DE=-5.63D-11 OVMax= 1.33D-06

 SCF Done:  E(RB2PLYPD3) =  -115.451092435     A.U. after   11 cycles
            NFock= 11  Conv=0.83D-08     -V/T= 2.0005
 KE= 1.153894749318D+02 PE=-3.522216871745D+02 EE= 8.113156178321D+01
 Leave Link  502 at Wed Aug 26 20:24:13 2020, MaxMem=  2097152000 cpu:       293.6
 (Enter /opt/cluster/programs/g09/g09_d.01/g09/l801.exe)
 DoSCS=T DFT=T ScalE2(SS,OS)=  0.270000  0.270000
 ExpMin= 7.60D-02 ExpMax= 1.17D+05 ExpMxC= 1.13D+03 IAcc=3 IRadAn=         5 AccDes= 0.00D+00
 HarFok:  IExCor=  205 AccDes= 0.00D+00 IRadAn=         5 IDoV=-2 UseB2=F ITyADJ=14
 ICtDFT= 12500011 ScaDFX=  1.000000  1.000000  1.000000  1.000000
 Largest valence mixing into a core orbital is  1.00D-04
 Largest core mixing into a valence orbital is  1.28D-05
 Range of M.O.s used for correlation:     3   234
 NBasis=   234 NAE=     9 NBE=     9 NFC=     2 NFV=     0
 NROrb=    232 NOA=     7 NOB=     7 NVA=   225 NVB=   225

 **** Warning!!: The largest alpha MO coefficient is  0.37774293D+02

 Leave Link  801 at Wed Aug 26 20:24:14 2020, MaxMem=  2097152000 cpu:         0.6
 (Enter /opt/cluster/programs/g09/g09_d.01/g09/l906.exe)
 DoSCS=T DFT=T ScalE2(SS,OS)=  0.270000  0.270000
 FulOut=F Deriv=F AODrv=F NAtomX=     6
   MMem=        3646  MDisk=           7 MDiskD=           7
  W3Min=      447300 MinDsk=     1090093 NBas6D=         284
 NBas2D=       41310    NTT=       40470    LW2=     4508827
    MDV=  2096872424 MDiskM=       16391 NBas2p=       41295
 Fully in-core method, ICMem=  1722292712.
 IMap=   1   2   3   4   5   6   7
 JobTyp=1 Pass  1 fully in-core, NPsUse=  8.
 Compute canonical integrals.
 FoFCou: FMM=F IPFlag=           0 FMFlag=           0 FMFlg1=           0
         NFxFlg=           0 DoJE=F BraDBF=F KetDBF=F FulRan=T
         wScrn=  0.000000 ICntrl=     600 IOpCl=  1 I1Cent=           0 NGrid=           0
         NMat0=    1 NMatS0=  41310 NMatT0=    0 NMatD0=    1 NMtDS0=    0 NMtDT0=    0
 Symmetry not used in FoFCou.
 Spin components of T(2) and E(2):
     alpha-alpha T2 =       0.2330408348D-01 E2=     -0.1741380574D-01
     alpha-beta  T2 =       0.1517127766D+00 E2=     -0.1186953936D+00
     beta-beta   T2 =       0.2330408348D-01 E2=     -0.1741380574D-01
 The integrals were generated   1 times.
 E2(B2PLYPD3) =    -0.1535230051D+00 E(B2PLYPD3) =    -0.11560461544061D+03
 Leave Link  906 at Wed Aug 26 20:24:37 2020, MaxMem=  2097152000 cpu:       174.0
 (Enter /opt/cluster/programs/g09/g09_d.01/g09/l601.exe)
 Copying SCF densities to generalized density rwf, IOpCl= 0 IROHF=0.

 **********************************************************************

            Population analysis using the SCF density.

 **********************************************************************

 Orbital symmetries:
       Occupied  (A) (A) (A) (A) (A) (A) (A) (A) (A)
       Virtual   (A) (A) (A) (A) (A) (A) (A) (A) (A) (A) (A) (A)
                 (A) (A) (A) (A) (A) (A) (A) (A) (A) (A) (A) (A)
                 (A) (A) (A) (A) (A) (A) (A) (A) (A) (A) (A) (A)
                 (A) (A) (A) (A) (A) (A) (A) (A) (A) (A) (A) (A)
                 (A) (A) (A) (A) (A) (A) (A) (A) (A) (A) (A) (A)
                 (A) (A) (A) (A) (A) (A) (A) (A) (A) (A) (A) (A)
                 (A) (A) (A) (A) (A) (A) (A) (A) (A) (A) (A) (A)
                 (A) (A) (A) (A) (A) (A) (A) (A) (A) (A) (A) (A)
                 (A) (A) (A) (A) (A) (A) (A) (A) (A) (A) (A) (A)
                 (A) (A) (A) (A) (A) (A) (A) (A) (A) (A) (A) (A)
                 (A) (A) (A) (A) (A) (A) (A) (A) (A) (A) (A) (A)
                 (A) (A) (A) (A) (A) (A) (A) (A) (A) (A) (A) (A)
                 (A) (A) (A) (A) (A) (A) (A) (A) (A) (A) (A) (A)
                 (A) (A) (A) (A) (A) (A) (A) (A) (A) (A) (A) (A)
                 (A) (A) (A) (A) (A) (A) (A) (A) (A) (A) (A) (A)
                 (A) (A) (A) (A) (A) (A) (A) (A) (A) (A) (A) (A)
                 (A) (A) (A) (A) (A) (A) (A) (A) (A) (A) (A) (A)
                 (A) (A) (A) (A) (A) (A) (A) (A) (A) (A) (A) (A)
                 (A) (A) (A) (A) (A) (A) (A) (A) (A)
 The electronic state is 1-A.
 Alpha  occ. eigenvalues --  -19.74454 -10.61438  -1.11797  -0.80107  -0.55688
 Alpha  occ. eigenvalues --   -0.53853  -0.49047  -0.39543  -0.35112
 Alpha virt. eigenvalues --    0.00326   0.07627   0.12705   0.12853   0.14418
 Alpha virt. eigenvalues --    0.18052   0.18165   0.23739   0.29539   0.32567
 Alpha virt. eigenvalues --    0.34129   0.39684   0.40973   0.43176   0.44108
 Alpha virt. eigenvalues --    0.50157   0.53588   0.54090   0.58057   0.65449
 Alpha virt. eigenvalues --    0.70261   0.74463   0.76328   0.77568   0.79627
 Alpha virt. eigenvalues --    0.82069   0.84502   0.88889   0.89452   0.92652
 Alpha virt. eigenvalues --    0.99626   1.01817   1.04025   1.07018   1.10061
 Alpha virt. eigenvalues --    1.14115   1.16997   1.19895   1.35405   1.39586
 Alpha virt. eigenvalues --    1.43462   1.48160   1.50925   1.54317   1.58638
 Alpha virt. eigenvalues --    1.73520   1.76508   1.83220   1.83613   1.85701
 Alpha virt. eigenvalues --    1.88271   1.95303   1.96046   1.97913   2.01703
 Alpha virt. eigenvalues --    2.06659   2.11400   2.15865   2.18017   2.22208
 Alpha virt. eigenvalues --    2.23656   2.26061   2.29940   2.32665   2.36386
 Alpha virt. eigenvalues --    2.45353   2.49896   2.50772   2.53395   2.57364
 Alpha virt. eigenvalues --    2.60600   2.64786   2.65208   2.72174   2.74507
 Alpha virt. eigenvalues --    2.77008   2.89348   2.92182   2.94896   2.97891
 Alpha virt. eigenvalues --    3.09006   3.12781   3.17101   3.18931   3.25192
 Alpha virt. eigenvalues --    3.34587   3.45525   3.50779   3.53124   3.55558
 Alpha virt. eigenvalues --    3.65720   3.72153   3.83062   3.89093   3.91151
 Alpha virt. eigenvalues --    4.00900   4.05487   4.10017   4.14103   4.20148
 Alpha virt. eigenvalues --    4.24755   4.29065   4.30952   4.31961   4.36757
 Alpha virt. eigenvalues --    4.42142   4.54568   4.63530   4.70317   5.07594
 Alpha virt. eigenvalues --    5.24124   5.25498   5.45004   5.50264   5.66515
 Alpha virt. eigenvalues --    5.71548   5.73918   5.76634   5.79623   5.83580
 Alpha virt. eigenvalues --    5.88380   5.95219   5.97763   6.07237   6.14221
 Alpha virt. eigenvalues --    6.16604   6.18127   6.22147   6.23515   6.30137
 Alpha virt. eigenvalues --    6.34953   6.44380   6.48982   6.56982   6.60636
 Alpha virt. eigenvalues --    6.62074   6.66069   6.66941   6.68467   6.74100
 Alpha virt. eigenvalues --    6.86291   6.87402   6.93592   7.00956   7.06460
 Alpha virt. eigenvalues --    7.10936   7.23627   7.31634   7.42294   7.50103
 Alpha virt. eigenvalues --    7.59083   7.59739   7.65633   7.69502   7.71429
 Alpha virt. eigenvalues --    7.75396   7.76766   7.84385   7.91800   7.98492
 Alpha virt. eigenvalues --    8.01292   8.04466   8.11675   8.16054   8.18111
 Alpha virt. eigenvalues --    8.21673   8.25307   8.36860   8.38725   8.44859
 Alpha virt. eigenvalues --    8.52183   8.53287   8.56298   8.60022   8.65845
 Alpha virt. eigenvalues --    8.70014   8.73966   8.78114   8.85359   8.95310
 Alpha virt. eigenvalues --    9.01245   9.18187   9.23453   9.25262   9.29309
 Alpha virt. eigenvalues --    9.47465   9.55401   9.69497   9.74084   9.79858
 Alpha virt. eigenvalues --    9.93152  10.01671  10.18222  10.27474  10.32542
 Alpha virt. eigenvalues --   10.36992  10.51199  10.53780  10.65712  10.68687
 Alpha virt. eigenvalues --   10.75593  10.82912  11.01132  11.32372  11.36074
 Alpha virt. eigenvalues --   11.49848  11.64597  11.74736  11.79688  11.85290
 Alpha virt. eigenvalues --   12.00620  12.21113  12.22336  12.46116  12.61169
 Alpha virt. eigenvalues --   12.70725  12.82083  13.17256  13.53780  13.79398
 Alpha virt. eigenvalues --   14.53576  29.61065  48.51880 149.34364 254.24721
          Condensed to atoms (all electrons):
               1          2          3          4          5          6
     1  C    4.402501   0.240814   0.470407   0.442910   0.398164  -0.047978
     2  O    0.240814   8.094244  -0.044618  -0.039481  -0.027861   0.274390
     3  H    0.470407  -0.044618   0.627559  -0.059491  -0.047643  -0.008439
     4  H    0.442910  -0.039481  -0.059491   0.675616  -0.048024  -0.012854
     5  H    0.398164  -0.027861  -0.047643  -0.048024   0.656863   0.012861
     6  H   -0.047978   0.274390  -0.008439  -0.012854   0.012861   0.536902
 Mulliken charges:
               1
     1  C    0.093182
     2  O   -0.497487
     3  H    0.062224
     4  H    0.041323
     5  H    0.055640
     6  H    0.245118
 Sum of Mulliken charges =   0.00000
 Mulliken charges with hydrogens summed into heavy atoms:
               1
     1  C    0.252369
     2  O   -0.252369
 Electronic spatial extent (au):  <R**2>=             83.8831
 Charge=              0.0000 electrons
 Dipole moment (field-independent basis, Debye):
    X=              1.0652    Y=              1.7298    Z=              0.1060  Tot=              2.0342
 Quadrupole moment (field-independent basis, Debye-Ang):
   XX=            -12.8920   YY=            -11.7010   ZZ=            -13.7292
   XY=             -2.6307   XZ=             -0.2328   YZ=              0.0679
 Traceless Quadrupole moment (field-independent basis, Debye-Ang):
   XX=             -0.1179   YY=              1.0731   ZZ=             -0.9552
   XY=             -2.6307   XZ=             -0.2328   YZ=              0.0679
 Octapole moment (field-independent basis, Debye-Ang**2):
  XXX=             -1.9504  YYY=              1.3450  ZZZ=              0.3760  XYY=             -2.2467
  XXY=              2.5198  XXZ=             -0.0935  XZZ=              0.3848  YZZ=              0.2956
  YYZ=             -0.0178  XYZ=             -0.0579
 Hexadecapole moment (field-independent basis, Debye-Ang**3):
 XXXX=            -62.0688 YYYY=            -20.6662 ZZZZ=            -17.9652 XXXY=             -4.1864
 XXXZ=             -0.3221 YYYX=             -3.4896 YYYZ=              0.1974 ZZZX=              0.0376
 ZZZY=              0.1627 XXYY=            -11.9117 XXZZ=            -14.4808 YYZZ=             -6.8784
 XXYZ=              0.0231 YYXZ=             -0.1897 ZZXY=              0.1373
 N-N= 4.024955802402D+01 E-N=-3.522216803307D+02  KE= 1.153894749318D+02
 Leave Link  601 at Wed Aug 26 20:24:50 2020, MaxMem=  2097152000 cpu:         0.3
 (Enter /opt/cluster/programs/g09/g09_d.01/g09/l9999.exe)
 1\1\GINC-NODE38\SP\RB2PLYPD3-FC\def2QZVP\C1H4O1\BOITTIER\26-Aug-2020\0
 \\#p B2PLYPD3/Def2QZVP\\methanol\\0,1\C,0,-5.187528,-1.252048,0.905106
 \O,0,-3.76623,-1.130669,0.892562\H,0,-5.335812,-2.113226,0.589243\H,0,
 -5.684141,-0.525289,0.381882\H,0,-5.546523,-1.159353,1.82111\H,0,-3.49
 0665,-1.181118,-0.397378\\Version=ES64L-G09RevD.01\State=1-A\HF=-115.4
 510924\MP2=-115.6046154\RMSD=8.260e-09\PG=C01 [X(C1H4O1)]\\@


 SCIENCE IS A VERY HUMAN FORM OF KNOWLEDGE.
 WE ARE ALWAYS AT THE BRINK OF THE KNOWN,
 WE ALWAYS FEEL FORWARD FOR WHAT IS HOPED.
 EVERY JUDGEMENT IN SCIENCE STANDS ON THE EDGE OF ERROR, AND IS PERSONAL.
 SCIENCE IS A TRIBUTE TO WHAT WE CAN KNOW ALTHOUGH WE ARE FALLIBLE.

                     -- J. BRONOWSKI
 Job cpu time:       0 days  0 hours  8 minutes 40.6 seconds.
 File lengths (MBytes):  RWF=     23 Int=      0 D2E=      0 Chk=      4 Scr=      1
 Normal termination of Gaussian 09 at Wed Aug 26 20:24:59 2020.
