 Entering Gaussian System, Link 0=/opt/cluster/programs/g09/g09_d.01/g09//g09
 Input=/home/boittier/MDCM/nms_sampling/methanol_geom.xyz.dir/energies/methanol_3170_energy.com
 Output=/scratch/boittier/methanol_3170_energy/methanol_3170_energy.out
 Initial command:
 /opt/cluster/programs/g09/g09_d.01/g09/l1.exe "/scratch/boittier/methanol_3170_energy/Gau-160422.inp" -scrdir="/scratch/boittier/methanol_3170_energy/"
 Entering Link 1 = /opt/cluster/programs/g09/g09_d.01/g09/l1.exe PID=    160423.
  
 Copyright (c) 1988,1990,1992,1993,1995,1998,2003,2009,2013,
            Gaussian, Inc.  All Rights Reserved.
  
 This is part of the Gaussian(R) 09 program.  It is based on
 the Gaussian(R) 03 system (copyright 2003, Gaussian, Inc.),
 the Gaussian(R) 98 system (copyright 1998, Gaussian, Inc.),
 the Gaussian(R) 94 system (copyright 1995, Gaussian, Inc.),
 the Gaussian 92(TM) system (copyright 1992, Gaussian, Inc.),
 the Gaussian 90(TM) system (copyright 1990, Gaussian, Inc.),
 the Gaussian 88(TM) system (copyright 1988, Gaussian, Inc.),
 the Gaussian 86(TM) system (copyright 1986, Carnegie Mellon
 University), and the Gaussian 82(TM) system (copyright 1983,
 Carnegie Mellon University). Gaussian is a federally registered
 trademark of Gaussian, Inc.
  
 This software contains proprietary and confidential information,
 including trade secrets, belonging to Gaussian, Inc.
  
 This software is provided under written license and may be
 used, copied, transmitted, or stored only in accord with that
 written license.
  
 The following legend is applicable only to US Government
 contracts under FAR:
  
                    RESTRICTED RIGHTS LEGEND
  
 Use, reproduction and disclosure by the US Government is
 subject to restrictions as set forth in subparagraphs (a)
 and (c) of the Commercial Computer Software - Restricted
 Rights clause in FAR 52.227-19.
  
 Gaussian, Inc.
 340 Quinnipiac St., Bldg. 40, Wallingford CT 06492
  
  
 ---------------------------------------------------------------
 Warning -- This program may not be used in any manner that
 competes with the business of Gaussian, Inc. or will provide
 assistance to any competitor of Gaussian, Inc.  The licensee
 of this program is prohibited from giving any competitor of
 Gaussian, Inc. access to this program.  By using this program,
 the user acknowledges that Gaussian, Inc. is engaged in the
 business of creating and licensing software in the field of
 computational chemistry and represents and warrants to the
 licensee that it is not a competitor of Gaussian, Inc. and that
 it will not use this program in any manner prohibited above.
 ---------------------------------------------------------------
  

 Cite this work as:
 Gaussian 09, Revision D.01,
 M. J. Frisch, G. W. Trucks, H. B. Schlegel, G. E. Scuseria, 
 M. A. Robb, J. R. Cheeseman, G. Scalmani, V. Barone, B. Mennucci, 
 G. A. Petersson, H. Nakatsuji, M. Caricato, X. Li, H. P. Hratchian, 
 A. F. Izmaylov, J. Bloino, G. Zheng, J. L. Sonnenberg, M. Hada, 
 M. Ehara, K. Toyota, R. Fukuda, J. Hasegawa, M. Ishida, T. Nakajima, 
 Y. Honda, O. Kitao, H. Nakai, T. Vreven, J. A. Montgomery, Jr., 
 J. E. Peralta, F. Ogliaro, M. Bearpark, J. J. Heyd, E. Brothers, 
 K. N. Kudin, V. N. Staroverov, T. Keith, R. Kobayashi, J. Normand, 
 K. Raghavachari, A. Rendell, J. C. Burant, S. S. Iyengar, J. Tomasi, 
 M. Cossi, N. Rega, J. M. Millam, M. Klene, J. E. Knox, J. B. Cross, 
 V. Bakken, C. Adamo, J. Jaramillo, R. Gomperts, R. E. Stratmann, 
 O. Yazyev, A. J. Austin, R. Cammi, C. Pomelli, J. W. Ochterski, 
 R. L. Martin, K. Morokuma, V. G. Zakrzewski, G. A. Voth, 
 P. Salvador, J. J. Dannenberg, S. Dapprich, A. D. Daniels, 
 O. Farkas, J. B. Foresman, J. V. Ortiz, J. Cioslowski, 
 and D. J. Fox, Gaussian, Inc., Wallingford CT, 2013.
 
 ******************************************
 Gaussian 09:  ES64L-G09RevD.01 24-Apr-2013
                26-Aug-2020 
 ******************************************
 %chk=/home/boittier/MDCM/nms_sampling/methanol_geom.xyz.dir/methanol_3170.chk
 %nproc=8
 Will use up to    8 processors via shared memory.
 %mem=16000MB
 --------------------
 #p B2PLYPD3/Def2QZVP
 --------------------
 1/38=1/1;
 2/12=2,17=6,18=5,40=1/2;
 3/5=45,7=101,11=9,16=1,25=1,30=1,74=-60/1,2,3;
 4//1;
 5/5=2,38=5/2;
 8/10=1/1;
 9/16=-3/6;
 6/7=2,8=2,9=2,10=2/1;
 99/5=1,9=1/99;
 Leave Link    1 at Wed Aug 26 22:51:00 2020, MaxMem=  2097152000 cpu:         0.2
 (Enter /opt/cluster/programs/g09/g09_d.01/g09/l101.exe)
 --------
 methanol
 --------
 Symbolic Z-matrix:
 Charge =  0 Multiplicity = 1
 C                    -5.17314  -1.24284   0.89681 
 O                    -3.76398  -1.13023   0.88593 
 H                    -5.53608  -2.137     0.55403 
 H                    -5.64678  -0.60838   0.50152 
 H                    -5.58524  -1.1725    1.93651 
 H                    -3.49718  -1.1741   -0.39198 
 
 NAtoms=      6 NQM=        6 NQMF=       0 NMMI=      0 NMMIF=      0
                NMic=       0 NMicF=      0.
                    Isotopes and Nuclear Properties:
 (Nuclear quadrupole moments (NQMom) in fm**2, nuclear magnetic moments (NMagM)
  in nuclear magnetons)

  Atom         1           2           3           4           5           6
 IAtWgt=          12          16           1           1           1           1
 AtmWgt=  12.0000000  15.9949146   1.0078250   1.0078250   1.0078250   1.0078250
 NucSpn=           0           0           1           1           1           1
 AtZEff=   0.0000000   0.0000000   0.0000000   0.0000000   0.0000000   0.0000000
 NQMom=    0.0000000   0.0000000   0.0000000   0.0000000   0.0000000   0.0000000
 NMagM=    0.0000000   0.0000000   2.7928460   2.7928460   2.7928460   2.7928460
 AtZNuc=   6.0000000   8.0000000   1.0000000   1.0000000   1.0000000   1.0000000
 Leave Link  101 at Wed Aug 26 22:51:00 2020, MaxMem=  2097152000 cpu:         0.6
 (Enter /opt/cluster/programs/g09/g09_d.01/g09/l202.exe)
                          Input orientation:                          
 ---------------------------------------------------------------------
 Center     Atomic      Atomic             Coordinates (Angstroms)
 Number     Number       Type             X           Y           Z
 ---------------------------------------------------------------------
      1          6           0       -5.173139   -1.242836    0.896805
      2          8           0       -3.763978   -1.130229    0.885927
      3          1           0       -5.536076   -2.137002    0.554032
      4          1           0       -5.646783   -0.608375    0.501523
      5          1           0       -5.585242   -1.172502    1.936509
      6          1           0       -3.497175   -1.174102   -0.391979
 ---------------------------------------------------------------------
                    Distance matrix (angstroms):
                    1          2          3          4          5
     1  C    0.000000
     2  O    1.413695   0.000000
     3  H    1.024085   2.064964   0.000000
     4  H    0.884945   1.991244   1.533530   0.000000
     5  H    1.120607   2.102977   1.686393   1.543117   0.000000
     6  H    2.115312   1.306198   2.445247   2.395664   3.127600
                    6
     6  H    0.000000
 Stoichiometry    CH4O
 Framework group  C1[X(CH4O)]
 Deg. of freedom    12
 Full point group                 C1      NOp   1
 Largest Abelian subgroup         C1      NOp   1
 Largest concise Abelian subgroup C1      NOp   1
                         Standard orientation:                         
 ---------------------------------------------------------------------
 Center     Atomic      Atomic             Coordinates (Angstroms)
 Number     Number       Type             X           Y           Z
 ---------------------------------------------------------------------
      1          6           0        0.651306    0.058965   -0.017446
      2          8           0       -0.740336   -0.187072    0.019058
      3          1           0        1.014149    0.596977    0.774789
      4          1           0        0.993138    0.421918   -0.748571
      5          1           0        1.240404   -0.893601    0.019206
      6          1           0       -1.232844    1.017496   -0.093209
 ---------------------------------------------------------------------
 Rotational constants (GHZ):    125.2209886     25.1024795     23.1867444
 Leave Link  202 at Wed Aug 26 22:51:00 2020, MaxMem=  2097152000 cpu:         0.1
 (Enter /opt/cluster/programs/g09/g09_d.01/g09/l301.exe)
 Standard basis: def2QZVP (5D, 7F)
 Ernie: Thresh=  0.10000D-02 Tol=  0.10000D-05 Strict=F.
 There are   284 symmetry adapted cartesian basis functions of A   symmetry.
 There are   234 symmetry adapted basis functions of A   symmetry.
   234 basis functions,   336 primitive gaussians,   284 cartesian basis functions
     9 alpha electrons        9 beta electrons
       nuclear repulsion energy        40.0285527436 Hartrees.
 IExCor=  419 DFT=T Ex+Corr=B2PLYPD3 ExCW=0 ScaHFX=  0.530000
 ScaDFX=  0.470000  0.470000  0.730000  0.730000 ScalE2=  0.270000  0.270000
 IRadAn=      0 IRanWt=     -1 IRanGd=            0 ICorTp=0 IEmpDi=141
 NAtoms=    6 NActive=    6 NUniq=    6 SFac= 1.00D+00 NAtFMM=   60 NAOKFM=F Big=F
 Integral buffers will be    131072 words long.
 Regular integral format.
 Two-electron integral symmetry is turned on.
 R6Disp:  Grimme-D3(BJ) Dispersion energy=       -0.0014520472 Hartrees.
 Nuclear repulsion after empirical dispersion term =       40.0271006964 Hartrees.
 Leave Link  301 at Wed Aug 26 22:51:00 2020, MaxMem=  2097152000 cpu:         0.4
 (Enter /opt/cluster/programs/g09/g09_d.01/g09/l302.exe)
 NPDir=0 NMtPBC=     1 NCelOv=     1 NCel=       1 NClECP=     1 NCelD=      1
         NCelK=      1 NCelE2=     1 NClLst=     1 CellRange=     0.0.
 One-electron integrals computed using PRISM.
   1 Symmetry operations used in ECPInt.
 ECPInt:  NShTT=    2775 NPrTT=    6207 LenC2=    2774 LenP2D=    5736.
 LDataN:  DoStor=T MaxTD1= 8 Len=  415
 NBasis=   234 RedAO= T EigKep=  5.89D-05  NBF=   234
 NBsUse=   234 1.00D-06 EigRej= -1.00D+00 NBFU=   234
 Precomputing XC quadrature grid using
 IXCGrd= 4 IRadAn=           0 IRanWt=          -1 IRanGd=           0 AccXCQ= 0.00D+00.
 Generated NRdTot=       0 NPtTot=           0 NUsed=           0 NTot=          32
 NSgBfM=   284   284   284   284   284 MxSgAt=     6 MxSgA2=     6.
 Leave Link  302 at Wed Aug 26 22:51:00 2020, MaxMem=  2097152000 cpu:         1.8
 (Enter /opt/cluster/programs/g09/g09_d.01/g09/l303.exe)
 DipDrv:  MaxL=1.
 Leave Link  303 at Wed Aug 26 22:51:00 2020, MaxMem=  2097152000 cpu:         0.3
 (Enter /opt/cluster/programs/g09/g09_d.01/g09/l401.exe)
 ExpMin= 7.60D-02 ExpMax= 1.17D+05 ExpMxC= 1.13D+03 IAcc=2 IRadAn=         4 AccDes= 0.00D+00
 Harris functional with IExCor=  419 and IRadAn=       4 diagonalized for initial guess.
 HarFok:  IExCor=  419 AccDes= 0.00D+00 IRadAn=         4 IDoV= 1 UseB2=F ITyADJ=14
 ICtDFT=  3500011 ScaDFX=  1.000000  1.000000  1.000000  1.000000
 FoFCou: FMM=F IPFlag=           0 FMFlag=      100000 FMFlg1=           0
         NFxFlg=           0 DoJE=T BraDBF=F KetDBF=T FulRan=T
         wScrn=  0.000000 ICntrl=     500 IOpCl=  0 I1Cent=   200000004 NGrid=           0
         NMat0=    1 NMatS0=      1 NMatT0=    0 NMatD0=    1 NMtDS0=    0 NMtDT0=    0
 Petite list used in FoFCou.
 Harris En= -115.754704080501    
 JPrj=0 DoOrth=F DoCkMO=F.
 Leave Link  401 at Wed Aug 26 22:51:01 2020, MaxMem=  2097152000 cpu:         3.3
 (Enter /opt/cluster/programs/g09/g09_d.01/g09/l502.exe)
 Closed shell SCF:
 Using DIIS extrapolation, IDIIS=  1040.
 Integral symmetry usage will be decided dynamically.
 Keep R1 ints in memory in canonical form, NReq=389840494.
 IVT=      264814 IEndB=      264814 NGot=  2097152000 MDV=  1718885927
 LenX=  1718885927 LenY=  1718804830
 Requested convergence on RMS density matrix=1.00D-08 within 128 cycles.
 Requested convergence on MAX density matrix=1.00D-06.
 Requested convergence on             energy=1.00D-06.
 No special actions if energy rises.
 FoFCou: FMM=F IPFlag=           0 FMFlag=           0 FMFlg1=           0
         NFxFlg=           0 DoJE=F BraDBF=F KetDBF=F FulRan=T
         wScrn=  0.000000 ICntrl=     600 IOpCl=  0 I1Cent=           0 NGrid=           0
         NMat0=    1 NMatS0=  27495 NMatT0=    0 NMatD0=    1 NMtDS0=    0 NMtDT0=    0
 Symmetry not used in FoFCou.
 Integral accuracy reduced to 1.0D-05 until final iterations.

 Cycle   1  Pass 0  IDiag  1:
 E= -115.309381642093    
 DIIS: error= 3.74D-02 at cycle   1 NSaved=   1.
 NSaved= 1 IEnMin= 1 EnMin= -115.309381642093     IErMin= 1 ErrMin= 3.74D-02
 ErrMax= 3.74D-02  0.00D+00 EMaxC= 1.00D-01 BMatC= 2.00D-01 BMatP= 2.00D-01
 IDIUse=3 WtCom= 6.26D-01 WtEn= 3.74D-01
 Coeff-Com:  0.100D+01
 Coeff-En:   0.100D+01
 Coeff:      0.100D+01
 Gap=     0.241 Goal=   None    Shift=    0.000
 GapD=    0.241 DampG=1.000 DampE=0.500 DampFc=0.5000 IDamp=-1.
 Damping current iteration by 5.00D-01
 RMSDP=1.60D-03 MaxDP=5.27D-02              OVMax= 1.94D-01

 Cycle   2  Pass 0  IDiag  1:
 E= -115.372905269709     Delta-E=       -0.063523627616 Rises=F Damp=T
 DIIS: error= 8.43D-03 at cycle   2 NSaved=   2.
 NSaved= 2 IEnMin= 2 EnMin= -115.372905269709     IErMin= 2 ErrMin= 8.43D-03
 ErrMax= 8.43D-03  0.00D+00 EMaxC= 1.00D-01 BMatC= 2.29D-02 BMatP= 2.00D-01
 IDIUse=3 WtCom= 9.16D-01 WtEn= 8.43D-02
 Coeff-Com: -0.896D-01 0.109D+01
 Coeff-En:   0.000D+00 0.100D+01
 Coeff:     -0.820D-01 0.108D+01
 Gap=     0.374 Goal=   None    Shift=    0.000
 RMSDP=4.58D-04 MaxDP=1.35D-02 DE=-6.35D-02 OVMax= 1.18D-01

 Cycle   3  Pass 0  IDiag  1:
 E= -115.435276039296     Delta-E=       -0.062370769587 Rises=F Damp=F
 DIIS: error= 6.06D-03 at cycle   3 NSaved=   3.
 NSaved= 3 IEnMin= 3 EnMin= -115.435276039296     IErMin= 3 ErrMin= 6.06D-03
 ErrMax= 6.06D-03  0.00D+00 EMaxC= 1.00D-01 BMatC= 1.13D-02 BMatP= 2.29D-02
 IDIUse=3 WtCom= 9.39D-01 WtEn= 6.06D-02
 Coeff-Com: -0.141D+00 0.473D+00 0.668D+00
 Coeff-En:   0.000D+00 0.000D+00 0.100D+01
 Coeff:     -0.132D+00 0.445D+00 0.688D+00
 Gap=     0.360 Goal=   None    Shift=    0.000
 RMSDP=2.12D-04 MaxDP=9.09D-03 DE=-6.24D-02 OVMax= 3.25D-02

 Cycle   4  Pass 0  IDiag  1:
 E= -115.442270909846     Delta-E=       -0.006994870550 Rises=F Damp=F
 DIIS: error= 2.33D-03 at cycle   4 NSaved=   4.
 NSaved= 4 IEnMin= 4 EnMin= -115.442270909846     IErMin= 4 ErrMin= 2.33D-03
 ErrMax= 2.33D-03  0.00D+00 EMaxC= 1.00D-01 BMatC= 1.40D-03 BMatP= 1.13D-02
 IDIUse=3 WtCom= 9.77D-01 WtEn= 2.33D-02
 Coeff-Com: -0.476D-01 0.869D-01 0.314D+00 0.647D+00
 Coeff-En:   0.000D+00 0.000D+00 0.339D-01 0.966D+00
 Coeff:     -0.465D-01 0.848D-01 0.307D+00 0.654D+00
 Gap=     0.360 Goal=   None    Shift=    0.000
 RMSDP=6.20D-05 MaxDP=2.16D-03 DE=-6.99D-03 OVMax= 9.39D-03

 Cycle   5  Pass 0  IDiag  1:
 E= -115.443284369954     Delta-E=       -0.001013460108 Rises=F Damp=F
 DIIS: error= 2.09D-04 at cycle   5 NSaved=   5.
 NSaved= 5 IEnMin= 5 EnMin= -115.443284369954     IErMin= 5 ErrMin= 2.09D-04
 ErrMax= 2.09D-04  0.00D+00 EMaxC= 1.00D-01 BMatC= 1.12D-05 BMatP= 1.40D-03
 IDIUse=3 WtCom= 9.98D-01 WtEn= 2.09D-03
 Coeff-Com: -0.379D-02-0.175D-03 0.381D-01 0.132D+00 0.834D+00
 Coeff-En:   0.000D+00 0.000D+00 0.000D+00 0.000D+00 0.100D+01
 Coeff:     -0.379D-02-0.174D-03 0.381D-01 0.132D+00 0.834D+00
 Gap=     0.360 Goal=   None    Shift=    0.000
 RMSDP=1.06D-05 MaxDP=2.78D-04 DE=-1.01D-03 OVMax= 8.98D-04

 Cycle   6  Pass 0  IDiag  1:
 E= -115.443294294010     Delta-E=       -0.000009924056 Rises=F Damp=F
 DIIS: error= 2.94D-05 at cycle   6 NSaved=   6.
 NSaved= 6 IEnMin= 6 EnMin= -115.443294294010     IErMin= 6 ErrMin= 2.94D-05
 ErrMax= 2.94D-05  0.00D+00 EMaxC= 1.00D-01 BMatC= 3.25D-07 BMatP= 1.12D-05
 IDIUse=1 WtCom= 1.00D+00 WtEn= 0.00D+00
 Coeff-Com:  0.328D-02-0.504D-02-0.180D-01-0.477D-01-0.149D+00 0.122D+01
 Coeff:      0.328D-02-0.504D-02-0.180D-01-0.477D-01-0.149D+00 0.122D+01
 Gap=     0.361 Goal=   None    Shift=    0.000
 RMSDP=4.21D-06 MaxDP=1.27D-04 DE=-9.92D-06 OVMax= 4.19D-04

 Initial convergence to 1.0D-05 achieved.  Increase integral accuracy.
 Cycle   7  Pass 1  IDiag  1:
 E= -115.443287715663     Delta-E=        0.000006578347 Rises=F Damp=F
 DIIS: error= 8.08D-06 at cycle   1 NSaved=   1.
 NSaved= 1 IEnMin= 1 EnMin= -115.443287715663     IErMin= 1 ErrMin= 8.08D-06
 ErrMax= 8.08D-06  0.00D+00 EMaxC= 1.00D-01 BMatC= 2.77D-08 BMatP= 2.77D-08
 IDIUse=1 WtCom= 1.00D+00 WtEn= 0.00D+00
 Coeff-Com:  0.100D+01
 Coeff:      0.100D+01
 Gap=     0.361 Goal=   None    Shift=    0.000
 RMSDP=4.21D-06 MaxDP=1.27D-04 DE= 6.58D-06 OVMax= 4.81D-05

 Cycle   8  Pass 1  IDiag  1:
 E= -115.443287729932     Delta-E=       -0.000000014269 Rises=F Damp=F
 DIIS: error= 1.62D-06 at cycle   2 NSaved=   2.
 NSaved= 2 IEnMin= 2 EnMin= -115.443287729932     IErMin= 2 ErrMin= 1.62D-06
 ErrMax= 1.62D-06  0.00D+00 EMaxC= 1.00D-01 BMatC= 7.32D-10 BMatP= 2.77D-08
 IDIUse=1 WtCom= 1.00D+00 WtEn= 0.00D+00
 Coeff-Com: -0.200D-01 0.102D+01
 Coeff:     -0.200D-01 0.102D+01
 Gap=     0.361 Goal=   None    Shift=    0.000
 RMSDP=2.70D-07 MaxDP=1.01D-05 DE=-1.43D-08 OVMax= 2.94D-05

 Cycle   9  Pass 1  IDiag  1:
 E= -115.443287730582     Delta-E=       -0.000000000650 Rises=F Damp=F
 DIIS: error= 1.59D-06 at cycle   3 NSaved=   3.
 NSaved= 3 IEnMin= 3 EnMin= -115.443287730582     IErMin= 3 ErrMin= 1.59D-06
 ErrMax= 1.59D-06  0.00D+00 EMaxC= 1.00D-01 BMatC= 9.93D-10 BMatP= 7.32D-10
 IDIUse=1 WtCom= 1.00D+00 WtEn= 0.00D+00
 Coeff-Com: -0.383D-01 0.572D+00 0.467D+00
 Coeff:     -0.383D-01 0.572D+00 0.467D+00
 Gap=     0.361 Goal=   None    Shift=    0.000
 RMSDP=6.06D-08 MaxDP=2.58D-06 DE=-6.50D-10 OVMax= 7.44D-06

 Cycle  10  Pass 1  IDiag  1:
 E= -115.443287731281     Delta-E=       -0.000000000700 Rises=F Damp=F
 DIIS: error= 3.09D-07 at cycle   4 NSaved=   4.
 NSaved= 4 IEnMin= 4 EnMin= -115.443287731281     IErMin= 4 ErrMin= 3.09D-07
 ErrMax= 3.09D-07  0.00D+00 EMaxC= 1.00D-01 BMatC= 1.69D-11 BMatP= 7.32D-10
 IDIUse=1 WtCom= 1.00D+00 WtEn= 0.00D+00
 Coeff-Com:  0.164D-02-0.150D+00-0.379D-01 0.119D+01
 Coeff:      0.164D-02-0.150D+00-0.379D-01 0.119D+01
 Gap=     0.361 Goal=   None    Shift=    0.000
 RMSDP=3.31D-08 MaxDP=1.05D-06 DE=-7.00D-10 OVMax= 5.44D-06

 Cycle  11  Pass 1  IDiag  1:
 E= -115.443287731329     Delta-E=       -0.000000000047 Rises=F Damp=F
 DIIS: error= 1.02D-07 at cycle   5 NSaved=   5.
 NSaved= 5 IEnMin= 5 EnMin= -115.443287731329     IErMin= 5 ErrMin= 1.02D-07
 ErrMax= 1.02D-07  0.00D+00 EMaxC= 1.00D-01 BMatC= 2.34D-12 BMatP= 1.69D-11
 IDIUse=1 WtCom= 1.00D+00 WtEn= 0.00D+00
 Coeff-Com:  0.286D-02-0.784D-01-0.501D-01 0.345D+00 0.780D+00
 Coeff:      0.286D-02-0.784D-01-0.501D-01 0.345D+00 0.780D+00
 Gap=     0.361 Goal=   None    Shift=    0.000
 RMSDP=5.24D-09 MaxDP=1.42D-07 DE=-4.72D-11 OVMax= 8.02D-07

 SCF Done:  E(RB2PLYPD3) =  -115.443287731     A.U. after   11 cycles
            NFock= 11  Conv=0.52D-08     -V/T= 2.0014
 KE= 1.152871585558D+02 PE=-3.516240151660D+02 EE= 8.086646818250D+01
 Leave Link  502 at Wed Aug 26 22:51:15 2020, MaxMem=  2097152000 cpu:        72.5
 (Enter /opt/cluster/programs/g09/g09_d.01/g09/l801.exe)
 DoSCS=T DFT=T ScalE2(SS,OS)=  0.270000  0.270000
 ExpMin= 7.60D-02 ExpMax= 1.17D+05 ExpMxC= 1.13D+03 IAcc=3 IRadAn=         5 AccDes= 0.00D+00
 HarFok:  IExCor=  205 AccDes= 0.00D+00 IRadAn=         5 IDoV=-2 UseB2=F ITyADJ=14
 ICtDFT= 12500011 ScaDFX=  1.000000  1.000000  1.000000  1.000000
 Largest valence mixing into a core orbital is  1.02D-04
 Largest core mixing into a valence orbital is  1.28D-05
 Range of M.O.s used for correlation:     3   234
 NBasis=   234 NAE=     9 NBE=     9 NFC=     2 NFV=     0
 NROrb=    232 NOA=     7 NOB=     7 NVA=   225 NVB=   225

 **** Warning!!: The largest alpha MO coefficient is  0.29836337D+02

 Leave Link  801 at Wed Aug 26 22:51:16 2020, MaxMem=  2097152000 cpu:         0.5
 (Enter /opt/cluster/programs/g09/g09_d.01/g09/l906.exe)
 DoSCS=T DFT=T ScalE2(SS,OS)=  0.270000  0.270000
 FulOut=F Deriv=F AODrv=F NAtomX=     6
   MMem=        3646  MDisk=           7 MDiskD=           7
  W3Min=      447300 MinDsk=     1090093 NBas6D=         284
 NBas2D=       41310    NTT=       40470    LW2=     4508827
    MDV=  2096872772 MDiskM=       16391 NBas2p=       41259
 Fully in-core method, ICMem=  1722292712.
 IMap=   1   2   3   4   5   6   7
 JobTyp=1 Pass  1 fully in-core, NPsUse=  8.
 Compute canonical integrals.
 FoFCou: FMM=F IPFlag=           0 FMFlag=           0 FMFlg1=           0
         NFxFlg=           0 DoJE=F BraDBF=F KetDBF=F FulRan=T
         wScrn=  0.000000 ICntrl=     600 IOpCl=  1 I1Cent=           0 NGrid=           0
         NMat0=    1 NMatS0=  41310 NMatT0=    0 NMatD0=    1 NMtDS0=    0 NMtDT0=    0
 Symmetry not used in FoFCou.
 Spin components of T(2) and E(2):
     alpha-alpha T2 =       0.2335388600D-01 E2=     -0.1742927159D-01
     alpha-beta  T2 =       0.1520925107D+00 E2=     -0.1187011732D+00
     beta-beta   T2 =       0.2335388600D-01 E2=     -0.1742927159D-01
 The integrals were generated   1 times.
 E2(B2PLYPD3) =    -0.1535597164D+00 E(B2PLYPD3) =    -0.11559684744773D+03
 Leave Link  906 at Wed Aug 26 22:51:30 2020, MaxMem=  2097152000 cpu:       116.7
 (Enter /opt/cluster/programs/g09/g09_d.01/g09/l601.exe)
 Copying SCF densities to generalized density rwf, IOpCl= 0 IROHF=0.

 **********************************************************************

            Population analysis using the SCF density.

 **********************************************************************

 Orbital symmetries:
       Occupied  (A) (A) (A) (A) (A) (A) (A) (A) (A)
       Virtual   (A) (A) (A) (A) (A) (A) (A) (A) (A) (A) (A) (A)
                 (A) (A) (A) (A) (A) (A) (A) (A) (A) (A) (A) (A)
                 (A) (A) (A) (A) (A) (A) (A) (A) (A) (A) (A) (A)
                 (A) (A) (A) (A) (A) (A) (A) (A) (A) (A) (A) (A)
                 (A) (A) (A) (A) (A) (A) (A) (A) (A) (A) (A) (A)
                 (A) (A) (A) (A) (A) (A) (A) (A) (A) (A) (A) (A)
                 (A) (A) (A) (A) (A) (A) (A) (A) (A) (A) (A) (A)
                 (A) (A) (A) (A) (A) (A) (A) (A) (A) (A) (A) (A)
                 (A) (A) (A) (A) (A) (A) (A) (A) (A) (A) (A) (A)
                 (A) (A) (A) (A) (A) (A) (A) (A) (A) (A) (A) (A)
                 (A) (A) (A) (A) (A) (A) (A) (A) (A) (A) (A) (A)
                 (A) (A) (A) (A) (A) (A) (A) (A) (A) (A) (A) (A)
                 (A) (A) (A) (A) (A) (A) (A) (A) (A) (A) (A) (A)
                 (A) (A) (A) (A) (A) (A) (A) (A) (A) (A) (A) (A)
                 (A) (A) (A) (A) (A) (A) (A) (A) (A) (A) (A) (A)
                 (A) (A) (A) (A) (A) (A) (A) (A) (A) (A) (A) (A)
                 (A) (A) (A) (A) (A) (A) (A) (A) (A) (A) (A) (A)
                 (A) (A) (A) (A) (A) (A) (A) (A) (A) (A) (A) (A)
                 (A) (A) (A) (A) (A) (A) (A) (A) (A)
 The electronic state is 1-A.
 Alpha  occ. eigenvalues --  -19.75245 -10.62409  -1.12500  -0.80598  -0.55085
 Alpha  occ. eigenvalues --   -0.53423  -0.49017  -0.39256  -0.35696
 Alpha virt. eigenvalues --    0.00369   0.07251   0.12632   0.12990   0.14787
 Alpha virt. eigenvalues --    0.18135   0.18656   0.23532   0.29438   0.33697
 Alpha virt. eigenvalues --    0.34459   0.37392   0.40078   0.41988   0.45116
 Alpha virt. eigenvalues --    0.49726   0.52097   0.54362   0.56965   0.65800
 Alpha virt. eigenvalues --    0.70986   0.75406   0.76460   0.78337   0.81517
 Alpha virt. eigenvalues --    0.83000   0.84016   0.87817   0.88893   0.93649
 Alpha virt. eigenvalues --    0.94937   1.00582   1.01643   1.05656   1.13091
 Alpha virt. eigenvalues --    1.14556   1.16657   1.20826   1.32945   1.38278
 Alpha virt. eigenvalues --    1.43452   1.47481   1.51080   1.53639   1.62935
 Alpha virt. eigenvalues --    1.71758   1.76491   1.81029   1.84255   1.85356
 Alpha virt. eigenvalues --    1.86832   1.93420   1.95797   1.96934   2.02632
 Alpha virt. eigenvalues --    2.04342   2.13621   2.17510   2.17795   2.20289
 Alpha virt. eigenvalues --    2.23323   2.25140   2.30202   2.32569   2.33093
 Alpha virt. eigenvalues --    2.40124   2.48947   2.50753   2.53777   2.57696
 Alpha virt. eigenvalues --    2.60699   2.61799   2.67610   2.68882   2.71831
 Alpha virt. eigenvalues --    2.76721   2.90153   2.92254   2.93662   3.01236
 Alpha virt. eigenvalues --    3.11405   3.13932   3.17416   3.19170   3.25766
 Alpha virt. eigenvalues --    3.28294   3.39440   3.45453   3.47637   3.51554
 Alpha virt. eigenvalues --    3.59548   3.69274   3.80408   3.84237   3.87624
 Alpha virt. eigenvalues --    4.00719   4.05226   4.11826   4.12138   4.14599
 Alpha virt. eigenvalues --    4.18771   4.22836   4.27569   4.33125   4.40248
 Alpha virt. eigenvalues --    4.44428   4.54920   4.68291   4.75494   5.05770
 Alpha virt. eigenvalues --    5.18422   5.24705   5.44854   5.53046   5.56004
 Alpha virt. eigenvalues --    5.64984   5.71104   5.72047   5.77290   5.80530
 Alpha virt. eigenvalues --    5.86255   5.90041   5.99307   6.08726   6.14159
 Alpha virt. eigenvalues --    6.16476   6.17987   6.22147   6.24519   6.28469
 Alpha virt. eigenvalues --    6.35054   6.39079   6.41368   6.48765   6.49860
 Alpha virt. eigenvalues --    6.54115   6.59574   6.65599   6.67865   6.75512
 Alpha virt. eigenvalues --    6.77611   6.88652   6.90480   6.93883   6.96355
 Alpha virt. eigenvalues --    7.07315   7.10312   7.25587   7.35902   7.42455
 Alpha virt. eigenvalues --    7.58306   7.64032   7.67036   7.70552   7.71607
 Alpha virt. eigenvalues --    7.75313   7.77297   7.82758   7.84810   7.92297
 Alpha virt. eigenvalues --    7.97263   8.05300   8.11794   8.15611   8.20741
 Alpha virt. eigenvalues --    8.22562   8.33367   8.34994   8.40558   8.44168
 Alpha virt. eigenvalues --    8.48175   8.48750   8.54156   8.54609   8.56864
 Alpha virt. eigenvalues --    8.63482   8.71524   8.79448   8.87183   8.90724
 Alpha virt. eigenvalues --    9.00686   9.12902   9.15623   9.23905   9.29236
 Alpha virt. eigenvalues --    9.30568   9.38340   9.42143   9.52415   9.76517
 Alpha virt. eigenvalues --    9.90784  10.02707  10.05481  10.09232  10.17835
 Alpha virt. eigenvalues --   10.24754  10.42501  10.50014  10.62856  10.65695
 Alpha virt. eigenvalues --   10.80902  10.93389  10.99559  11.30395  11.42120
 Alpha virt. eigenvalues --   11.63334  11.68993  11.76037  11.79150  11.95555
 Alpha virt. eigenvalues --   12.14806  12.24908  12.28449  12.47063  12.61464
 Alpha virt. eigenvalues --   12.72624  12.90075  13.16182  13.31888  13.78561
 Alpha virt. eigenvalues --   14.52212  29.55309  48.46857 149.24985 254.18903
          Condensed to atoms (all electrons):
               1          2          3          4          5          6
     1  C    4.411003   0.272265   0.459748   0.443398   0.387369  -0.046858
     2  O    0.272265   8.043567  -0.046960  -0.025662  -0.034935   0.274305
     3  H    0.459748  -0.046960   0.669006  -0.080672  -0.039144  -0.008636
     4  H    0.443398  -0.025662  -0.080672   0.646889  -0.045132  -0.010834
     5  H    0.387369  -0.034935  -0.039144  -0.045132   0.677879   0.012320
     6  H   -0.046858   0.274305  -0.008636  -0.010834   0.012320   0.530511
 Mulliken charges:
               1
     1  C    0.073075
     2  O   -0.482580
     3  H    0.046658
     4  H    0.072013
     5  H    0.041642
     6  H    0.249192
 Sum of Mulliken charges =   0.00000
 Mulliken charges with hydrogens summed into heavy atoms:
               1
     1  C    0.233389
     2  O   -0.233389
 Electronic spatial extent (au):  <R**2>=             85.2338
 Charge=              0.0000 electrons
 Dipole moment (field-independent basis, Debye):
    X=              0.9245    Y=              1.8510    Z=             -0.2681  Tot=              2.0863
 Quadrupole moment (field-independent basis, Debye-Ang):
   XX=            -12.6947   YY=            -11.8663   ZZ=            -13.9660
   XY=             -2.4416   XZ=              0.0839   YZ=             -0.1561
 Traceless Quadrupole moment (field-independent basis, Debye-Ang):
   XX=              0.1476   YY=              0.9761   ZZ=             -1.1237
   XY=             -2.4416   XZ=              0.0839   YZ=             -0.1561
 Octapole moment (field-independent basis, Debye-Ang**2):
  XXX=             -2.3835  YYY=              1.7070  ZZZ=             -0.3433  XYY=             -2.3558
  XXY=              2.9013  XXZ=             -0.5084  XZZ=              0.1267  YZZ=              0.4203
  YYZ=             -0.2084  XYZ=              0.2829
 Hexadecapole moment (field-independent basis, Debye-Ang**3):
 XXXX=            -63.4761 YYYY=            -21.9808 ZZZZ=            -17.8467 XXXY=             -3.4663
 XXXZ=             -0.3069 YYYX=             -2.8866 YYYZ=             -0.3977 ZZZX=             -0.3943
 ZZZY=             -0.0871 XXYY=            -12.2893 XXZZ=            -14.6616 YYZZ=             -7.0720
 XXYZ=             -0.3080 YYXZ=              0.1629 ZZXY=              0.3558
 N-N= 4.002710069638D+01 E-N=-3.516240095088D+02  KE= 1.152871585558D+02
 Leave Link  601 at Wed Aug 26 22:51:31 2020, MaxMem=  2097152000 cpu:         0.3
 (Enter /opt/cluster/programs/g09/g09_d.01/g09/l9999.exe)
 1\1\GINC-NODE37\SP\RB2PLYPD3-FC\def2QZVP\C1H4O1\BOITTIER\26-Aug-2020\0
 \\#p B2PLYPD3/Def2QZVP\\methanol\\0,1\C,0,-5.173139,-1.242836,0.896805
 \O,0,-3.763978,-1.130229,0.885927\H,0,-5.536076,-2.137002,0.554032\H,0
 ,-5.646783,-0.608375,0.501523\H,0,-5.585242,-1.172502,1.936509\H,0,-3.
 497175,-1.174102,-0.391979\\Version=ES64L-G09RevD.01\State=1-A\HF=-115
 .4432877\MP2=-115.5968474\RMSD=5.235e-09\PG=C01 [X(C1H4O1)]\\@


 IMAGINATION WILL OFTEN CARRY US TO WORLDS THAT NEVER WERE.
 BUT WITHOUT IT, WE GO NOWHERE. -- CARL SAGAN (COSMOS)
 Job cpu time:       0 days  0 hours  3 minutes 17.1 seconds.
 File lengths (MBytes):  RWF=     23 Int=      0 D2E=      0 Chk=      4 Scr=      1
 Normal termination of Gaussian 09 at Wed Aug 26 22:51:31 2020.
