 Entering Gaussian System, Link 0=/opt/cluster/programs/g09/g09_d.01/g09//g09
 Input=/home/boittier/MDCM/nms_sampling/methanol_geom.xyz.dir/energies/methanol_170_energy.com
 Output=/scratch/boittier/methanol_170_energy/methanol_170_energy.out
 Initial command:
 /opt/cluster/programs/g09/g09_d.01/g09/l1.exe "/scratch/boittier/methanol_170_energy/Gau-210293.inp" -scrdir="/scratch/boittier/methanol_170_energy/"
 Entering Link 1 = /opt/cluster/programs/g09/g09_d.01/g09/l1.exe PID=    210294.
  
 Copyright (c) 1988,1990,1992,1993,1995,1998,2003,2009,2013,
            Gaussian, Inc.  All Rights Reserved.
  
 This is part of the Gaussian(R) 09 program.  It is based on
 the Gaussian(R) 03 system (copyright 2003, Gaussian, Inc.),
 the Gaussian(R) 98 system (copyright 1998, Gaussian, Inc.),
 the Gaussian(R) 94 system (copyright 1995, Gaussian, Inc.),
 the Gaussian 92(TM) system (copyright 1992, Gaussian, Inc.),
 the Gaussian 90(TM) system (copyright 1990, Gaussian, Inc.),
 the Gaussian 88(TM) system (copyright 1988, Gaussian, Inc.),
 the Gaussian 86(TM) system (copyright 1986, Carnegie Mellon
 University), and the Gaussian 82(TM) system (copyright 1983,
 Carnegie Mellon University). Gaussian is a federally registered
 trademark of Gaussian, Inc.
  
 This software contains proprietary and confidential information,
 including trade secrets, belonging to Gaussian, Inc.
  
 This software is provided under written license and may be
 used, copied, transmitted, or stored only in accord with that
 written license.
  
 The following legend is applicable only to US Government
 contracts under FAR:
  
                    RESTRICTED RIGHTS LEGEND
  
 Use, reproduction and disclosure by the US Government is
 subject to restrictions as set forth in subparagraphs (a)
 and (c) of the Commercial Computer Software - Restricted
 Rights clause in FAR 52.227-19.
  
 Gaussian, Inc.
 340 Quinnipiac St., Bldg. 40, Wallingford CT 06492
  
  
 ---------------------------------------------------------------
 Warning -- This program may not be used in any manner that
 competes with the business of Gaussian, Inc. or will provide
 assistance to any competitor of Gaussian, Inc.  The licensee
 of this program is prohibited from giving any competitor of
 Gaussian, Inc. access to this program.  By using this program,
 the user acknowledges that Gaussian, Inc. is engaged in the
 business of creating and licensing software in the field of
 computational chemistry and represents and warrants to the
 licensee that it is not a competitor of Gaussian, Inc. and that
 it will not use this program in any manner prohibited above.
 ---------------------------------------------------------------
  

 Cite this work as:
 Gaussian 09, Revision D.01,
 M. J. Frisch, G. W. Trucks, H. B. Schlegel, G. E. Scuseria, 
 M. A. Robb, J. R. Cheeseman, G. Scalmani, V. Barone, B. Mennucci, 
 G. A. Petersson, H. Nakatsuji, M. Caricato, X. Li, H. P. Hratchian, 
 A. F. Izmaylov, J. Bloino, G. Zheng, J. L. Sonnenberg, M. Hada, 
 M. Ehara, K. Toyota, R. Fukuda, J. Hasegawa, M. Ishida, T. Nakajima, 
 Y. Honda, O. Kitao, H. Nakai, T. Vreven, J. A. Montgomery, Jr., 
 J. E. Peralta, F. Ogliaro, M. Bearpark, J. J. Heyd, E. Brothers, 
 K. N. Kudin, V. N. Staroverov, T. Keith, R. Kobayashi, J. Normand, 
 K. Raghavachari, A. Rendell, J. C. Burant, S. S. Iyengar, J. Tomasi, 
 M. Cossi, N. Rega, J. M. Millam, M. Klene, J. E. Knox, J. B. Cross, 
 V. Bakken, C. Adamo, J. Jaramillo, R. Gomperts, R. E. Stratmann, 
 O. Yazyev, A. J. Austin, R. Cammi, C. Pomelli, J. W. Ochterski, 
 R. L. Martin, K. Morokuma, V. G. Zakrzewski, G. A. Voth, 
 P. Salvador, J. J. Dannenberg, S. Dapprich, A. D. Daniels, 
 O. Farkas, J. B. Foresman, J. V. Ortiz, J. Cioslowski, 
 and D. J. Fox, Gaussian, Inc., Wallingford CT, 2013.
 
 ******************************************
 Gaussian 09:  ES64L-G09RevD.01 24-Apr-2013
                26-Aug-2020 
 ******************************************
 %chk=/home/boittier/MDCM/nms_sampling/methanol_geom.xyz.dir/methanol_170.chk
 %nproc=8
 Will use up to    8 processors via shared memory.
 %mem=16000MB
 --------------------
 #p B2PLYPD3/Def2QZVP
 --------------------
 1/38=1/1;
 2/12=2,17=6,18=5,40=1/2;
 3/5=45,7=101,11=9,16=1,25=1,30=1,74=-60/1,2,3;
 4//1;
 5/5=2,38=5/2;
 8/10=1/1;
 9/16=-3/6;
 6/7=2,8=2,9=2,10=2/1;
 99/5=1,9=1/99;
 Leave Link    1 at Wed Aug 26 13:19:45 2020, MaxMem=  2097152000 cpu:         0.2
 (Enter /opt/cluster/programs/g09/g09_d.01/g09/l101.exe)
 --------
 methanol
 --------
 Symbolic Z-matrix:
 Charge =  0 Multiplicity = 1
 C                    -5.17461  -1.25637   0.91472 
 O                    -3.77221  -1.12145   0.87018 
 H                    -5.52172  -2.17711   0.58038 
 H                    -5.62626  -0.49736   0.36646 
 H                    -5.46256  -1.17359   1.91373 
 H                    -3.50749  -1.22081  -0.21239 
 
 NAtoms=      6 NQM=        6 NQMF=       0 NMMI=      0 NMMIF=      0
                NMic=       0 NMicF=      0.
                    Isotopes and Nuclear Properties:
 (Nuclear quadrupole moments (NQMom) in fm**2, nuclear magnetic moments (NMagM)
  in nuclear magnetons)

  Atom         1           2           3           4           5           6
 IAtWgt=          12          16           1           1           1           1
 AtmWgt=  12.0000000  15.9949146   1.0078250   1.0078250   1.0078250   1.0078250
 NucSpn=           0           0           1           1           1           1
 AtZEff=   0.0000000   0.0000000   0.0000000   0.0000000   0.0000000   0.0000000
 NQMom=    0.0000000   0.0000000   0.0000000   0.0000000   0.0000000   0.0000000
 NMagM=    0.0000000   0.0000000   2.7928460   2.7928460   2.7928460   2.7928460
 AtZNuc=   6.0000000   8.0000000   1.0000000   1.0000000   1.0000000   1.0000000
 Leave Link  101 at Wed Aug 26 13:19:45 2020, MaxMem=  2097152000 cpu:         0.6
 (Enter /opt/cluster/programs/g09/g09_d.01/g09/l202.exe)
                          Input orientation:                          
 ---------------------------------------------------------------------
 Center     Atomic      Atomic             Coordinates (Angstroms)
 Number     Number       Type             X           Y           Z
 ---------------------------------------------------------------------
      1          6           0       -5.174610   -1.256365    0.914723
      2          8           0       -3.772214   -1.121446    0.870180
      3          1           0       -5.521720   -2.177106    0.580377
      4          1           0       -5.626255   -0.497361    0.366457
      5          1           0       -5.462560   -1.173591    1.913725
      6          1           0       -3.507491   -1.220813   -0.212389
 ---------------------------------------------------------------------
                    Distance matrix (angstroms):
                    1          2          3          4          5
     1  C    0.000000
     2  O    1.409575   0.000000
     3  H    1.039248   2.063777   0.000000
     4  H    1.039551   2.020071   1.696535   0.000000
     5  H    1.042963   1.987203   1.669838   1.696503   0.000000
     6  H    2.012693   1.118887   2.366451   2.312489   2.888752
                    6
     6  H    0.000000
 Stoichiometry    CH4O
 Framework group  C1[X(CH4O)]
 Deg. of freedom    12
 Full point group                 C1      NOp   1
 Largest Abelian subgroup         C1      NOp   1
 Largest concise Abelian subgroup C1      NOp   1
                         Standard orientation:                         
 ---------------------------------------------------------------------
 Center     Atomic      Atomic             Coordinates (Angstroms)
 Number     Number       Type             X           Y           Z
 ---------------------------------------------------------------------
      1          6           0       -0.661841    0.027709    0.001082
      2          8           0        0.736638   -0.148802   -0.000221
      3          1           0       -1.028790    0.503897   -0.846639
      4          1           0       -0.956847    0.554011    0.847630
      5          1           0       -1.094182   -0.921211    0.021203
      6          1           0        1.157765    0.887464   -0.026917
 ---------------------------------------------------------------------
 Rotational constants (GHZ):    128.2681233     25.4337068     24.1633981
 Leave Link  202 at Wed Aug 26 13:19:46 2020, MaxMem=  2097152000 cpu:         0.0
 (Enter /opt/cluster/programs/g09/g09_d.01/g09/l301.exe)
 Standard basis: def2QZVP (5D, 7F)
 Ernie: Thresh=  0.10000D-02 Tol=  0.10000D-05 Strict=F.
 There are   284 symmetry adapted cartesian basis functions of A   symmetry.
 There are   234 symmetry adapted basis functions of A   symmetry.
   234 basis functions,   336 primitive gaussians,   284 cartesian basis functions
     9 alpha electrons        9 beta electrons
       nuclear repulsion energy        40.3884759389 Hartrees.
 IExCor=  419 DFT=T Ex+Corr=B2PLYPD3 ExCW=0 ScaHFX=  0.530000
 ScaDFX=  0.470000  0.470000  0.730000  0.730000 ScalE2=  0.270000  0.270000
 IRadAn=      0 IRanWt=     -1 IRanGd=            0 ICorTp=0 IEmpDi=141
 NAtoms=    6 NActive=    6 NUniq=    6 SFac= 1.00D+00 NAtFMM=   60 NAOKFM=F Big=F
 Integral buffers will be    131072 words long.
 Regular integral format.
 Two-electron integral symmetry is turned on.
 R6Disp:  Grimme-D3(BJ) Dispersion energy=       -0.0013117819 Hartrees.
 Nuclear repulsion after empirical dispersion term =       40.3871641569 Hartrees.
 Leave Link  301 at Wed Aug 26 13:19:46 2020, MaxMem=  2097152000 cpu:         0.6
 (Enter /opt/cluster/programs/g09/g09_d.01/g09/l302.exe)
 NPDir=0 NMtPBC=     1 NCelOv=     1 NCel=       1 NClECP=     1 NCelD=      1
         NCelK=      1 NCelE2=     1 NClLst=     1 CellRange=     0.0.
 One-electron integrals computed using PRISM.
   1 Symmetry operations used in ECPInt.
 ECPInt:  NShTT=    2775 NPrTT=    6207 LenC2=    2774 LenP2D=    5744.
 LDataN:  DoStor=T MaxTD1= 8 Len=  415
 NBasis=   234 RedAO= T EigKep=  1.07D-04  NBF=   234
 NBsUse=   234 1.00D-06 EigRej= -1.00D+00 NBFU=   234
 Precomputing XC quadrature grid using
 IXCGrd= 4 IRadAn=           0 IRanWt=          -1 IRanGd=           0 AccXCQ= 0.00D+00.
 Generated NRdTot=       0 NPtTot=           0 NUsed=           0 NTot=          32
 NSgBfM=   284   284   284   284   284 MxSgAt=     6 MxSgA2=     6.
 Leave Link  302 at Wed Aug 26 13:19:46 2020, MaxMem=  2097152000 cpu:         2.1
 (Enter /opt/cluster/programs/g09/g09_d.01/g09/l303.exe)
 DipDrv:  MaxL=1.
 Leave Link  303 at Wed Aug 26 13:19:46 2020, MaxMem=  2097152000 cpu:         0.2
 (Enter /opt/cluster/programs/g09/g09_d.01/g09/l401.exe)
 ExpMin= 7.60D-02 ExpMax= 1.17D+05 ExpMxC= 1.13D+03 IAcc=2 IRadAn=         4 AccDes= 0.00D+00
 Harris functional with IExCor=  419 and IRadAn=       4 diagonalized for initial guess.
 HarFok:  IExCor=  419 AccDes= 0.00D+00 IRadAn=         4 IDoV= 1 UseB2=F ITyADJ=14
 ICtDFT=  3500011 ScaDFX=  1.000000  1.000000  1.000000  1.000000
 FoFCou: FMM=F IPFlag=           0 FMFlag=      100000 FMFlg1=           0
         NFxFlg=           0 DoJE=T BraDBF=F KetDBF=T FulRan=T
         wScrn=  0.000000 ICntrl=     500 IOpCl=  0 I1Cent=   200000004 NGrid=           0
         NMat0=    1 NMatS0=      1 NMatT0=    0 NMatD0=    1 NMtDS0=    0 NMtDT0=    0
 Petite list used in FoFCou.
 Harris En= -115.812131826545    
 JPrj=0 DoOrth=F DoCkMO=F.
 Leave Link  401 at Wed Aug 26 13:19:46 2020, MaxMem=  2097152000 cpu:         3.4
 (Enter /opt/cluster/programs/g09/g09_d.01/g09/l502.exe)
 Closed shell SCF:
 Using DIIS extrapolation, IDIIS=  1040.
 Integral symmetry usage will be decided dynamically.
 Keep R1 ints in memory in canonical form, NReq=389840494.
 IVT=      264814 IEndB=      264814 NGot=  2097152000 MDV=  1718885927
 LenX=  1718885927 LenY=  1718804830
 Requested convergence on RMS density matrix=1.00D-08 within 128 cycles.
 Requested convergence on MAX density matrix=1.00D-06.
 Requested convergence on             energy=1.00D-06.
 No special actions if energy rises.
 FoFCou: FMM=F IPFlag=           0 FMFlag=           0 FMFlg1=           0
         NFxFlg=           0 DoJE=F BraDBF=F KetDBF=F FulRan=T
         wScrn=  0.000000 ICntrl=     600 IOpCl=  0 I1Cent=           0 NGrid=           0
         NMat0=    1 NMatS0=  27495 NMatT0=    0 NMatD0=    1 NMtDS0=    0 NMtDT0=    0
 Symmetry not used in FoFCou.
 Integral accuracy reduced to 1.0D-05 until final iterations.

 Cycle   1  Pass 0  IDiag  1:
 E= -115.417644785853    
 DIIS: error= 3.13D-02 at cycle   1 NSaved=   1.
 NSaved= 1 IEnMin= 1 EnMin= -115.417644785853     IErMin= 1 ErrMin= 3.13D-02
 ErrMax= 3.13D-02  0.00D+00 EMaxC= 1.00D-01 BMatC= 1.82D-01 BMatP= 1.82D-01
 IDIUse=3 WtCom= 6.87D-01 WtEn= 3.13D-01
 Coeff-Com:  0.100D+01
 Coeff-En:   0.100D+01
 Coeff:      0.100D+01
 Gap=     0.297 Goal=   None    Shift=    0.000
 GapD=    0.297 DampG=1.000 DampE=0.500 DampFc=0.5000 IDamp=-1.
 Damping current iteration by 5.00D-01
 RMSDP=1.41D-03 MaxDP=4.68D-02              OVMax= 1.48D-01

 Cycle   2  Pass 0  IDiag  1:
 E= -115.471411498617     Delta-E=       -0.053766712764 Rises=F Damp=T
 DIIS: error= 1.01D-02 at cycle   2 NSaved=   2.
 NSaved= 2 IEnMin= 2 EnMin= -115.471411498617     IErMin= 2 ErrMin= 1.01D-02
 ErrMax= 1.01D-02  0.00D+00 EMaxC= 1.00D-01 BMatC= 1.99D-02 BMatP= 1.82D-01
 IDIUse=3 WtCom= 8.99D-01 WtEn= 1.01D-01
 Coeff-Com: -0.120D+00 0.112D+01
 Coeff-En:   0.000D+00 0.100D+01
 Coeff:     -0.108D+00 0.111D+01
 Gap=     0.405 Goal=   None    Shift=    0.000
 RMSDP=3.86D-04 MaxDP=1.10D-02 DE=-5.38D-02 OVMax= 8.64D-02

 Cycle   3  Pass 0  IDiag  1:
 E= -115.523507866125     Delta-E=       -0.052096367509 Rises=F Damp=F
 DIIS: error= 4.89D-03 at cycle   3 NSaved=   3.
 NSaved= 3 IEnMin= 3 EnMin= -115.523507866125     IErMin= 3 ErrMin= 4.89D-03
 ErrMax= 4.89D-03  0.00D+00 EMaxC= 1.00D-01 BMatC= 6.44D-03 BMatP= 1.99D-02
 IDIUse=3 WtCom= 9.51D-01 WtEn= 4.89D-02
 Coeff-Com: -0.141D+00 0.403D+00 0.738D+00
 Coeff-En:   0.000D+00 0.000D+00 0.100D+01
 Coeff:     -0.134D+00 0.384D+00 0.751D+00
 Gap=     0.387 Goal=   None    Shift=    0.000
 RMSDP=1.54D-04 MaxDP=6.21D-03 DE=-5.21D-02 OVMax= 2.01D-02

 Cycle   4  Pass 0  IDiag  1:
 E= -115.527215680576     Delta-E=       -0.003707814450 Rises=F Damp=F
 DIIS: error= 2.10D-03 at cycle   4 NSaved=   4.
 NSaved= 4 IEnMin= 4 EnMin= -115.527215680576     IErMin= 4 ErrMin= 2.10D-03
 ErrMax= 2.10D-03  0.00D+00 EMaxC= 1.00D-01 BMatC= 8.27D-04 BMatP= 6.44D-03
 IDIUse=3 WtCom= 9.79D-01 WtEn= 2.10D-02
 Coeff-Com: -0.493D-01 0.881D-01 0.335D+00 0.626D+00
 Coeff-En:   0.000D+00 0.000D+00 0.204D-01 0.980D+00
 Coeff:     -0.482D-01 0.863D-01 0.329D+00 0.633D+00
 Gap=     0.386 Goal=   None    Shift=    0.000
 RMSDP=4.68D-05 MaxDP=1.94D-03 DE=-3.71D-03 OVMax= 7.03D-03

 Cycle   5  Pass 0  IDiag  1:
 E= -115.527827928850     Delta-E=       -0.000612248275 Rises=F Damp=F
 DIIS: error= 1.75D-04 at cycle   5 NSaved=   5.
 NSaved= 5 IEnMin= 5 EnMin= -115.527827928850     IErMin= 5 ErrMin= 1.75D-04
 ErrMax= 1.75D-04  0.00D+00 EMaxC= 1.00D-01 BMatC= 6.85D-06 BMatP= 8.27D-04
 IDIUse=3 WtCom= 9.98D-01 WtEn= 1.75D-03
 Coeff-Com: -0.653D-02 0.725D-02 0.508D-01 0.146D+00 0.802D+00
 Coeff-En:   0.000D+00 0.000D+00 0.000D+00 0.000D+00 0.100D+01
 Coeff:     -0.652D-02 0.723D-02 0.507D-01 0.146D+00 0.803D+00
 Gap=     0.386 Goal=   None    Shift=    0.000
 RMSDP=7.21D-06 MaxDP=2.00D-04 DE=-6.12D-04 OVMax= 5.65D-04

 Initial convergence to 1.0D-05 achieved.  Increase integral accuracy.
 Cycle   6  Pass 1  IDiag  1:
 E= -115.527832183784     Delta-E=       -0.000004254934 Rises=F Damp=F
 DIIS: error= 1.67D-05 at cycle   1 NSaved=   1.
 NSaved= 1 IEnMin= 1 EnMin= -115.527832183784     IErMin= 1 ErrMin= 1.67D-05
 ErrMax= 1.67D-05  0.00D+00 EMaxC= 1.00D-01 BMatC= 1.12D-07 BMatP= 1.12D-07
 IDIUse=1 WtCom= 1.00D+00 WtEn= 0.00D+00
 Coeff-Com:  0.100D+01
 Coeff:      0.100D+01
 Gap=     0.387 Goal=   None    Shift=    0.000
 RMSDP=7.21D-06 MaxDP=2.00D-04 DE=-4.25D-06 OVMax= 1.67D-04

 Cycle   7  Pass 1  IDiag  1:
 E= -115.527832375223     Delta-E=       -0.000000191439 Rises=F Damp=F
 DIIS: error= 7.71D-06 at cycle   2 NSaved=   2.
 NSaved= 2 IEnMin= 2 EnMin= -115.527832375223     IErMin= 2 ErrMin= 7.71D-06
 ErrMax= 7.71D-06  0.00D+00 EMaxC= 1.00D-01 BMatC= 1.04D-08 BMatP= 1.12D-07
 IDIUse=1 WtCom= 1.00D+00 WtEn= 0.00D+00
 Coeff-Com: -0.413D-01 0.104D+01
 Coeff:     -0.413D-01 0.104D+01
 Gap=     0.387 Goal=   None    Shift=    0.000
 RMSDP=5.08D-07 MaxDP=2.31D-05 DE=-1.91D-07 OVMax= 8.23D-05

 Cycle   8  Pass 1  IDiag  1:
 E= -115.527832390365     Delta-E=       -0.000000015143 Rises=F Damp=F
 DIIS: error= 4.17D-06 at cycle   3 NSaved=   3.
 NSaved= 3 IEnMin= 3 EnMin= -115.527832390365     IErMin= 3 ErrMin= 4.17D-06
 ErrMax= 4.17D-06  0.00D+00 EMaxC= 1.00D-01 BMatC= 7.09D-09 BMatP= 1.04D-08
 IDIUse=1 WtCom= 1.00D+00 WtEn= 0.00D+00
 Coeff-Com: -0.112D+00 0.495D+00 0.617D+00
 Coeff:     -0.112D+00 0.495D+00 0.617D+00
 Gap=     0.387 Goal=   None    Shift=    0.000
 RMSDP=2.22D-07 MaxDP=1.07D-05 DE=-1.51D-08 OVMax= 2.94D-05

 Cycle   9  Pass 1  IDiag  1:
 E= -115.527832395726     Delta-E=       -0.000000005360 Rises=F Damp=F
 DIIS: error= 1.14D-06 at cycle   4 NSaved=   4.
 NSaved= 4 IEnMin= 4 EnMin= -115.527832395726     IErMin= 4 ErrMin= 1.14D-06
 ErrMax= 1.14D-06  0.00D+00 EMaxC= 1.00D-01 BMatC= 3.83D-10 BMatP= 7.09D-09
 IDIUse=1 WtCom= 1.00D+00 WtEn= 0.00D+00
 Coeff-Com: -0.325D-01 0.240D-01 0.197D+00 0.811D+00
 Coeff:     -0.325D-01 0.240D-01 0.197D+00 0.811D+00
 Gap=     0.387 Goal=   None    Shift=    0.000
 RMSDP=5.95D-08 MaxDP=2.57D-06 DE=-5.36D-09 OVMax= 1.06D-05

 Cycle  10  Pass 1  IDiag  1:
 E= -115.527832396101     Delta-E=       -0.000000000375 Rises=F Damp=F
 DIIS: error= 3.92D-07 at cycle   5 NSaved=   5.
 NSaved= 5 IEnMin= 5 EnMin= -115.527832396101     IErMin= 5 ErrMin= 3.92D-07
 ErrMax= 3.92D-07  0.00D+00 EMaxC= 1.00D-01 BMatC= 2.14D-11 BMatP= 3.83D-10
 IDIUse=1 WtCom= 1.00D+00 WtEn= 0.00D+00
 Coeff-Com: -0.144D-02-0.219D-01 0.103D-01 0.224D+00 0.789D+00
 Coeff:     -0.144D-02-0.219D-01 0.103D-01 0.224D+00 0.789D+00
 Gap=     0.387 Goal=   None    Shift=    0.000
 RMSDP=1.49D-08 MaxDP=4.54D-07 DE=-3.75D-10 OVMax= 1.91D-06

 Cycle  11  Pass 1  IDiag  1:
 E= -115.527832396121     Delta-E=       -0.000000000021 Rises=F Damp=F
 DIIS: error= 1.33D-07 at cycle   6 NSaved=   6.
 NSaved= 6 IEnMin= 6 EnMin= -115.527832396121     IErMin= 6 ErrMin= 1.33D-07
 ErrMax= 1.33D-07  0.00D+00 EMaxC= 1.00D-01 BMatC= 1.80D-12 BMatP= 2.14D-11
 IDIUse=1 WtCom= 1.00D+00 WtEn= 0.00D+00
 Coeff-Com:  0.244D-02-0.109D-01-0.158D-01 0.127D-01 0.246D+00 0.765D+00
 Coeff:      0.244D-02-0.109D-01-0.158D-01 0.127D-01 0.246D+00 0.765D+00
 Gap=     0.387 Goal=   None    Shift=    0.000
 RMSDP=4.54D-09 MaxDP=1.31D-07 DE=-2.06D-11 OVMax= 5.67D-07

 SCF Done:  E(RB2PLYPD3) =  -115.527832396     A.U. after   11 cycles
            NFock= 11  Conv=0.45D-08     -V/T= 2.0026
 KE= 1.152267348316D+02 PE=-3.524078525374D+02 EE= 8.126612115277D+01
 Leave Link  502 at Wed Aug 26 13:20:04 2020, MaxMem=  2097152000 cpu:        89.3
 (Enter /opt/cluster/programs/g09/g09_d.01/g09/l801.exe)
 DoSCS=T DFT=T ScalE2(SS,OS)=  0.270000  0.270000
 ExpMin= 7.60D-02 ExpMax= 1.17D+05 ExpMxC= 1.13D+03 IAcc=3 IRadAn=         5 AccDes= 0.00D+00
 HarFok:  IExCor=  205 AccDes= 0.00D+00 IRadAn=         5 IDoV=-2 UseB2=F ITyADJ=14
 ICtDFT= 12500011 ScaDFX=  1.000000  1.000000  1.000000  1.000000
 Largest valence mixing into a core orbital is  1.08D-04
 Largest core mixing into a valence orbital is  1.42D-05
 Range of M.O.s used for correlation:     3   234
 NBasis=   234 NAE=     9 NBE=     9 NFC=     2 NFV=     0
 NROrb=    232 NOA=     7 NOB=     7 NVA=   225 NVB=   225

 **** Warning!!: The largest alpha MO coefficient is  0.25585595D+02

 Leave Link  801 at Wed Aug 26 13:20:04 2020, MaxMem=  2097152000 cpu:         0.6
 (Enter /opt/cluster/programs/g09/g09_d.01/g09/l906.exe)
 DoSCS=T DFT=T ScalE2(SS,OS)=  0.270000  0.270000
 FulOut=F Deriv=F AODrv=F NAtomX=     6
   MMem=        3646  MDisk=           7 MDiskD=           7
  W3Min=      447300 MinDsk=     1090093 NBas6D=         284
 NBas2D=       41310    NTT=       40470    LW2=     4508827
    MDV=  2096872268 MDiskM=       16391 NBas2p=       41304
 Fully in-core method, ICMem=  1722292712.
 IMap=   1   2   3   4   5   6   7
 JobTyp=1 Pass  1 fully in-core, NPsUse=  8.
 Compute canonical integrals.
 FoFCou: FMM=F IPFlag=           0 FMFlag=           0 FMFlg1=           0
         NFxFlg=           0 DoJE=F BraDBF=F KetDBF=F FulRan=T
         wScrn=  0.000000 ICntrl=     600 IOpCl=  1 I1Cent=           0 NGrid=           0
         NMat0=    1 NMatS0=  41310 NMatT0=    0 NMatD0=    1 NMtDS0=    0 NMtDT0=    0
 Symmetry not used in FoFCou.
 Spin components of T(2) and E(2):
     alpha-alpha T2 =       0.2179402130D-01 E2=     -0.1703076540D-01
     alpha-beta  T2 =       0.1368599948D+00 E2=     -0.1155401129D+00
     beta-beta   T2 =       0.2179402130D-01 E2=     -0.1703076540D-01
 The integrals were generated   1 times.
 E2(B2PLYPD3) =    -0.1496016437D+00 E(B2PLYPD3) =    -0.11567743403985D+03
 Leave Link  906 at Wed Aug 26 13:20:19 2020, MaxMem=  2097152000 cpu:       120.3
 (Enter /opt/cluster/programs/g09/g09_d.01/g09/l601.exe)
 Copying SCF densities to generalized density rwf, IOpCl= 0 IROHF=0.

 **********************************************************************

            Population analysis using the SCF density.

 **********************************************************************

 Orbital symmetries:
       Occupied  (A) (A) (A) (A) (A) (A) (A) (A) (A)
       Virtual   (A) (A) (A) (A) (A) (A) (A) (A) (A) (A) (A) (A)
                 (A) (A) (A) (A) (A) (A) (A) (A) (A) (A) (A) (A)
                 (A) (A) (A) (A) (A) (A) (A) (A) (A) (A) (A) (A)
                 (A) (A) (A) (A) (A) (A) (A) (A) (A) (A) (A) (A)
                 (A) (A) (A) (A) (A) (A) (A) (A) (A) (A) (A) (A)
                 (A) (A) (A) (A) (A) (A) (A) (A) (A) (A) (A) (A)
                 (A) (A) (A) (A) (A) (A) (A) (A) (A) (A) (A) (A)
                 (A) (A) (A) (A) (A) (A) (A) (A) (A) (A) (A) (A)
                 (A) (A) (A) (A) (A) (A) (A) (A) (A) (A) (A) (A)
                 (A) (A) (A) (A) (A) (A) (A) (A) (A) (A) (A) (A)
                 (A) (A) (A) (A) (A) (A) (A) (A) (A) (A) (A) (A)
                 (A) (A) (A) (A) (A) (A) (A) (A) (A) (A) (A) (A)
                 (A) (A) (A) (A) (A) (A) (A) (A) (A) (A) (A) (A)
                 (A) (A) (A) (A) (A) (A) (A) (A) (A) (A) (A) (A)
                 (A) (A) (A) (A) (A) (A) (A) (A) (A) (A) (A) (A)
                 (A) (A) (A) (A) (A) (A) (A) (A) (A) (A) (A) (A)
                 (A) (A) (A) (A) (A) (A) (A) (A) (A) (A) (A) (A)
                 (A) (A) (A) (A) (A) (A) (A) (A) (A) (A) (A) (A)
                 (A) (A) (A) (A) (A) (A) (A) (A) (A)
 The electronic state is 1-A.
 Alpha  occ. eigenvalues --  -19.73590 -10.63553  -1.13988  -0.78781  -0.56962
 Alpha  occ. eigenvalues --   -0.52814  -0.49697  -0.40747  -0.35117
 Alpha virt. eigenvalues --    0.03539   0.07930   0.12641   0.12684   0.14892
 Alpha virt. eigenvalues --    0.17507   0.18182   0.28594   0.29871   0.33313
 Alpha virt. eigenvalues --    0.34541   0.39469   0.40161   0.42527   0.44027
 Alpha virt. eigenvalues --    0.46896   0.53304   0.55285   0.58457   0.66318
 Alpha virt. eigenvalues --    0.71097   0.73779   0.77338   0.79110   0.80270
 Alpha virt. eigenvalues --    0.82437   0.85299   0.88430   0.93015   0.94333
 Alpha virt. eigenvalues --    0.99341   1.00937   1.02917   1.08343   1.10270
 Alpha virt. eigenvalues --    1.12221   1.15202   1.20210   1.31833   1.41701
 Alpha virt. eigenvalues --    1.43781   1.47501   1.49326   1.50945   1.52858
 Alpha virt. eigenvalues --    1.75638   1.82854   1.84582   1.85532   1.87960
 Alpha virt. eigenvalues --    1.90301   1.95484   1.95726   1.98380   2.03416
 Alpha virt. eigenvalues --    2.08282   2.14959   2.17468   2.22220   2.23394
 Alpha virt. eigenvalues --    2.24086   2.26526   2.31234   2.32925   2.38954
 Alpha virt. eigenvalues --    2.43813   2.51297   2.56249   2.56617   2.61062
 Alpha virt. eigenvalues --    2.63261   2.64795   2.69667   2.72529   2.77204
 Alpha virt. eigenvalues --    2.83304   2.87219   2.90878   2.95168   3.02898
 Alpha virt. eigenvalues --    3.04850   3.07867   3.13080   3.19209   3.22731
 Alpha virt. eigenvalues --    3.32008   3.35907   3.43331   3.46158   3.54014
 Alpha virt. eigenvalues --    3.57223   3.70668   3.77093   3.90126   3.95277
 Alpha virt. eigenvalues --    4.00879   4.02423   4.04715   4.12875   4.18932
 Alpha virt. eigenvalues --    4.20983   4.26743   4.36163   4.37032   4.42304
 Alpha virt. eigenvalues --    4.47748   4.53191   4.63579   4.77737   5.10731
 Alpha virt. eigenvalues --    5.17946   5.37343   5.49390   5.49788   5.61349
 Alpha virt. eigenvalues --    5.62893   5.71312   5.79298   5.81721   5.83614
 Alpha virt. eigenvalues --    5.95011   5.97093   5.99416   6.11788   6.12257
 Alpha virt. eigenvalues --    6.19219   6.25434   6.32642   6.35208   6.40150
 Alpha virt. eigenvalues --    6.42819   6.45684   6.48235   6.60809   6.62476
 Alpha virt. eigenvalues --    6.64529   6.71044   6.72063   6.80035   6.83675
 Alpha virt. eigenvalues --    6.83814   6.87948   6.95555   7.01863   7.09413
 Alpha virt. eigenvalues --    7.13013   7.32590   7.35479   7.36854   7.61671
 Alpha virt. eigenvalues --    7.62158   7.64629   7.66136   7.67485   7.69308
 Alpha virt. eigenvalues --    7.76791   7.79613   7.84455   7.91037   7.94007
 Alpha virt. eigenvalues --    7.94615   7.96393   7.99648   8.07163   8.15295
 Alpha virt. eigenvalues --    8.21141   8.35104   8.35612   8.37135   8.44177
 Alpha virt. eigenvalues --    8.45782   8.54612   8.54866   8.57255   8.59865
 Alpha virt. eigenvalues --    8.62583   8.68024   8.68914   8.76591   8.84393
 Alpha virt. eigenvalues --    8.94405   8.96162   9.11902   9.17277   9.22132
 Alpha virt. eigenvalues --    9.31195   9.55910   9.63022   9.89369   9.94349
 Alpha virt. eigenvalues --   10.05977  10.08797  10.14216  10.20521  10.26334
 Alpha virt. eigenvalues --   10.35242  10.37772  10.48250  10.52567  10.71713
 Alpha virt. eigenvalues --   10.72460  10.90474  11.07257  11.16547  11.34275
 Alpha virt. eigenvalues --   11.39296  11.54428  11.66356  11.80607  11.81594
 Alpha virt. eigenvalues --   12.03721  12.20482  12.29460  12.73339  12.76878
 Alpha virt. eigenvalues --   12.97323  13.09025  13.54339  13.77352  14.59658
 Alpha virt. eigenvalues --   15.06145  29.45210  48.59674 149.10121 254.33251
          Condensed to atoms (all electrons):
               1          2          3          4          5          6
     1  C    4.409540   0.265418   0.440323   0.450579   0.400317  -0.050523
     2  O    0.265418   8.043160  -0.044222  -0.050861  -0.036917   0.310244
     3  H    0.440323  -0.044222   0.672020  -0.060052  -0.042657  -0.009016
     4  H    0.450579  -0.050861  -0.060052   0.664795  -0.040196  -0.008651
     5  H    0.400317  -0.036917  -0.042657  -0.040196   0.643013   0.012297
     6  H   -0.050523   0.310244  -0.009016  -0.008651   0.012297   0.495311
 Mulliken charges:
               1
     1  C    0.084347
     2  O   -0.486821
     3  H    0.043605
     4  H    0.044387
     5  H    0.064144
     6  H    0.250338
 Sum of Mulliken charges =   0.00000
 Mulliken charges with hydrogens summed into heavy atoms:
               1
     1  C    0.236483
     2  O   -0.236483
 Electronic spatial extent (au):  <R**2>=             83.4493
 Charge=              0.0000 electrons
 Dipole moment (field-independent basis, Debye):
    X=             -0.9088    Y=              1.6422    Z=             -0.0418  Tot=              1.8774
 Quadrupole moment (field-independent basis, Debye-Ang):
   XX=            -13.0354   YY=            -11.9278   ZZ=            -13.8084
   XY=              2.4021   XZ=              0.0074   YZ=             -0.0245
 Traceless Quadrupole moment (field-independent basis, Debye-Ang):
   XX=             -0.1115   YY=              0.9960   ZZ=             -0.8845
   XY=              2.4021   XZ=              0.0074   YZ=             -0.0245
 Octapole moment (field-independent basis, Debye-Ang**2):
  XXX=              3.2936  YYY=              0.9586  ZZZ=             -0.0069  XYY=              1.9960
  XXY=              2.4726  XXZ=             -0.1641  XZZ=              0.0368  YZZ=              0.5013
  YYZ=             -0.0030  XYZ=             -0.0652
 Hexadecapole moment (field-independent basis, Debye-Ang**3):
 XXXX=            -61.6858 YYYY=            -20.2608 ZZZZ=            -19.2380 XXXY=              3.9377
 XXXZ=              0.0907 YYYX=              3.2146 YYYZ=             -0.0324 ZZZX=              0.0745
 ZZZY=              0.0411 XXYY=            -12.2678 XXZZ=            -14.3993 YYZZ=             -6.8534
 XXYZ=             -0.1077 YYXZ=             -0.0649 ZZXY=             -0.1123
 N-N= 4.038716415694D+01 E-N=-3.524078598328D+02  KE= 1.152267348316D+02
 Leave Link  601 at Wed Aug 26 13:20:21 2020, MaxMem=  2097152000 cpu:         0.3
 (Enter /opt/cluster/programs/g09/g09_d.01/g09/l9999.exe)
 1\1\GINC-NODE27\SP\RB2PLYPD3-FC\def2QZVP\C1H4O1\BOITTIER\26-Aug-2020\0
 \\#p B2PLYPD3/Def2QZVP\\methanol\\0,1\C,0,-5.17461,-1.256365,0.914723\
 O,0,-3.772214,-1.121446,0.87018\H,0,-5.52172,-2.177106,0.580377\H,0,-5
 .626255,-0.497361,0.366457\H,0,-5.46256,-1.173591,1.913725\H,0,-3.5074
 91,-1.220813,-0.212389\\Version=ES64L-G09RevD.01\State=1-A\HF=-115.527
 8324\MP2=-115.677434\RMSD=4.542e-09\PG=C01 [X(C1H4O1)]\\@


 A ROPE OVER THE TOP OF A FENCE HAS THE SAME LENGTH ON EACH SIDE.
 WEIGHS 1/3 POUND PER FOOT.  ON ONE END HANGS A MONKEY HOLDING A
 BANANA, AND ON THE OTHER END A WEIGHT EQUAL TO THE WEIGHT
 OF THE MONKEY.  THE BANANA WEIGHS TWO OUNCES PER INCH.
 THE ROPE IS AS LONG AS THE AGE OF THE MONKEY, 
 AND THE WEIGHT OF THE MONKEY (IN OUNCES) IS AS MUCH
 AS THE AGE OF THE MONKEY'S MOTHER.  THE COMBINED AGES OF MONKEY
 AND MOTHER ARE THIRTY YEARS.  HALF THE WEIGHT OF THE MONKEY,
  PLUS THE WEIGHT OF THE BANANA, IS ONE FOURTH AS MUCH AS THE WEIGHT
 OF THE WEIGHT AND THE ROPE.
 THE MONKEY'S MOTHER IS HALF AS OLD AS THE MONKEY WILL BE
 WHEN IT IS 3 TIMES AS OLD AS ITS MOTHER WAS WHEN
 SHE WAS HALF AS OLD AS THE MONKEY WILL BE WHEN IT IS
 AS OLD AS ITS MOTHER WILL BE WHEN SHE IS 4 TIMES AS
 OLD AS THE MONKEY WAS WHEN IT WAS TWICE AS OLD AS 
 ITS MOTHER WAS WHEN SHE WAS ONE THIRD AS OLD AS THE
 MONKEY WAS WHEN IT WAS AS OLD AS ITS MOTHER WAS WHEN 
 SHE WAS 3 TIMES AS OLD AS THE MONKEY WAS WHEN IT WAS AS OLD AS ITS
 MOTHER WAS WHEN SHE WAS 3 TIMES AS OLD AS THE MONKEY 
 WAS WHEN IT WAS ONE FOURTH WAS OLD AS IT IS NOW.

 HOW LONG IS THE BANANA?
 Job cpu time:       0 days  0 hours  3 minutes 38.1 seconds.
 File lengths (MBytes):  RWF=     23 Int=      0 D2E=      0 Chk=      4 Scr=      1
 Normal termination of Gaussian 09 at Wed Aug 26 13:20:22 2020.
