 Entering Gaussian System, Link 0=/opt/cluster/programs/g09/g09_d.01/g09//g09
 Input=/home/boittier/MDCM/nms_sampling/methanol_geom.xyz.dir/energies/methanol_566_energy.com
 Output=/scratch/boittier/methanol_566_energy/methanol_566_energy.out
 Initial command:
 /opt/cluster/programs/g09/g09_d.01/g09/l1.exe "/scratch/boittier/methanol_566_energy/Gau-108356.inp" -scrdir="/scratch/boittier/methanol_566_energy/"
 Entering Link 1 = /opt/cluster/programs/g09/g09_d.01/g09/l1.exe PID=    108357.
  
 Copyright (c) 1988,1990,1992,1993,1995,1998,2003,2009,2013,
            Gaussian, Inc.  All Rights Reserved.
  
 This is part of the Gaussian(R) 09 program.  It is based on
 the Gaussian(R) 03 system (copyright 2003, Gaussian, Inc.),
 the Gaussian(R) 98 system (copyright 1998, Gaussian, Inc.),
 the Gaussian(R) 94 system (copyright 1995, Gaussian, Inc.),
 the Gaussian 92(TM) system (copyright 1992, Gaussian, Inc.),
 the Gaussian 90(TM) system (copyright 1990, Gaussian, Inc.),
 the Gaussian 88(TM) system (copyright 1988, Gaussian, Inc.),
 the Gaussian 86(TM) system (copyright 1986, Carnegie Mellon
 University), and the Gaussian 82(TM) system (copyright 1983,
 Carnegie Mellon University). Gaussian is a federally registered
 trademark of Gaussian, Inc.
  
 This software contains proprietary and confidential information,
 including trade secrets, belonging to Gaussian, Inc.
  
 This software is provided under written license and may be
 used, copied, transmitted, or stored only in accord with that
 written license.
  
 The following legend is applicable only to US Government
 contracts under FAR:
  
                    RESTRICTED RIGHTS LEGEND
  
 Use, reproduction and disclosure by the US Government is
 subject to restrictions as set forth in subparagraphs (a)
 and (c) of the Commercial Computer Software - Restricted
 Rights clause in FAR 52.227-19.
  
 Gaussian, Inc.
 340 Quinnipiac St., Bldg. 40, Wallingford CT 06492
  
  
 ---------------------------------------------------------------
 Warning -- This program may not be used in any manner that
 competes with the business of Gaussian, Inc. or will provide
 assistance to any competitor of Gaussian, Inc.  The licensee
 of this program is prohibited from giving any competitor of
 Gaussian, Inc. access to this program.  By using this program,
 the user acknowledges that Gaussian, Inc. is engaged in the
 business of creating and licensing software in the field of
 computational chemistry and represents and warrants to the
 licensee that it is not a competitor of Gaussian, Inc. and that
 it will not use this program in any manner prohibited above.
 ---------------------------------------------------------------
  

 Cite this work as:
 Gaussian 09, Revision D.01,
 M. J. Frisch, G. W. Trucks, H. B. Schlegel, G. E. Scuseria, 
 M. A. Robb, J. R. Cheeseman, G. Scalmani, V. Barone, B. Mennucci, 
 G. A. Petersson, H. Nakatsuji, M. Caricato, X. Li, H. P. Hratchian, 
 A. F. Izmaylov, J. Bloino, G. Zheng, J. L. Sonnenberg, M. Hada, 
 M. Ehara, K. Toyota, R. Fukuda, J. Hasegawa, M. Ishida, T. Nakajima, 
 Y. Honda, O. Kitao, H. Nakai, T. Vreven, J. A. Montgomery, Jr., 
 J. E. Peralta, F. Ogliaro, M. Bearpark, J. J. Heyd, E. Brothers, 
 K. N. Kudin, V. N. Staroverov, T. Keith, R. Kobayashi, J. Normand, 
 K. Raghavachari, A. Rendell, J. C. Burant, S. S. Iyengar, J. Tomasi, 
 M. Cossi, N. Rega, J. M. Millam, M. Klene, J. E. Knox, J. B. Cross, 
 V. Bakken, C. Adamo, J. Jaramillo, R. Gomperts, R. E. Stratmann, 
 O. Yazyev, A. J. Austin, R. Cammi, C. Pomelli, J. W. Ochterski, 
 R. L. Martin, K. Morokuma, V. G. Zakrzewski, G. A. Voth, 
 P. Salvador, J. J. Dannenberg, S. Dapprich, A. D. Daniels, 
 O. Farkas, J. B. Foresman, J. V. Ortiz, J. Cioslowski, 
 and D. J. Fox, Gaussian, Inc., Wallingford CT, 2013.
 
 ******************************************
 Gaussian 09:  ES64L-G09RevD.01 24-Apr-2013
                27-Aug-2020 
 ******************************************
 %chk=/home/boittier/MDCM/nms_sampling/methanol_geom.xyz.dir/methanol_566.chk
 %nproc=8
 Will use up to    8 processors via shared memory.
 %mem=16000MB
 --------------------
 #p B2PLYPD3/Def2QZVP
 --------------------
 1/38=1/1;
 2/12=2,17=6,18=5,40=1/2;
 3/5=45,7=101,11=9,16=1,25=1,30=1,74=-60/1,2,3;
 4//1;
 5/5=2,38=5/2;
 8/10=1/1;
 9/16=-3/6;
 6/7=2,8=2,9=2,10=2/1;
 99/5=1,9=1/99;
 Leave Link    1 at Thu Aug 27 00:03:15 2020, MaxMem=  2097152000 cpu:         0.2
 (Enter /opt/cluster/programs/g09/g09_d.01/g09/l101.exe)
 --------
 methanol
 --------
 Symbolic Z-matrix:
 Charge =  0 Multiplicity = 1
 C                    -5.18158  -1.25438   0.91118 
 O                    -3.76824  -1.12484   0.87476 
 H                    -5.50367  -2.20449   0.56845 
 H                    -5.71789  -0.52962   0.37005 
 H                    -5.43966  -1.13399   1.8968 
 H                    -3.44138  -1.17009  -0.2207 
 
 NAtoms=      6 NQM=        6 NQMF=       0 NMMI=      0 NMMIF=      0
                NMic=       0 NMicF=      0.
                    Isotopes and Nuclear Properties:
 (Nuclear quadrupole moments (NQMom) in fm**2, nuclear magnetic moments (NMagM)
  in nuclear magnetons)

  Atom         1           2           3           4           5           6
 IAtWgt=          12          16           1           1           1           1
 AtmWgt=  12.0000000  15.9949146   1.0078250   1.0078250   1.0078250   1.0078250
 NucSpn=           0           0           1           1           1           1
 AtZEff=   0.0000000   0.0000000   0.0000000   0.0000000   0.0000000   0.0000000
 NQMom=    0.0000000   0.0000000   0.0000000   0.0000000   0.0000000   0.0000000
 NMagM=    0.0000000   0.0000000   2.7928460   2.7928460   2.7928460   2.7928460
 AtZNuc=   6.0000000   8.0000000   1.0000000   1.0000000   1.0000000   1.0000000
 Leave Link  101 at Thu Aug 27 00:03:16 2020, MaxMem=  2097152000 cpu:         0.5
 (Enter /opt/cluster/programs/g09/g09_d.01/g09/l202.exe)
                          Input orientation:                          
 ---------------------------------------------------------------------
 Center     Atomic      Atomic             Coordinates (Angstroms)
 Number     Number       Type             X           Y           Z
 ---------------------------------------------------------------------
      1          6           0       -5.181582   -1.254381    0.911176
      2          8           0       -3.768238   -1.124841    0.874763
      3          1           0       -5.503669   -2.204485    0.568446
      4          1           0       -5.717892   -0.529616    0.370048
      5          1           0       -5.439658   -1.133992    1.896795
      6          1           0       -3.441383   -1.170085   -0.220702
 ---------------------------------------------------------------------
                    Distance matrix (angstroms):
                    1          2          3          4          5
     1  C    0.000000
     2  O    1.419735   0.000000
     3  H    1.060142   2.066684   0.000000
     4  H    1.051538   2.100043   1.700129   0.000000
     5  H    1.025934   1.959152   1.707209   1.665425   0.000000
     6  H    2.077630   1.144083   2.438393   2.437556   2.911735
                    6
     6  H    0.000000
 Stoichiometry    CH4O
 Framework group  C1[X(CH4O)]
 Deg. of freedom    12
 Full point group                 C1      NOp   1
 Largest Abelian subgroup         C1      NOp   1
 Largest concise Abelian subgroup C1      NOp   1
                         Standard orientation:                         
 ---------------------------------------------------------------------
 Center     Atomic      Atomic             Coordinates (Angstroms)
 Number     Number       Type             X           Y           Z
 ---------------------------------------------------------------------
      1          6           0        0.668808    0.024045    0.000646
      2          8           0       -0.740646   -0.146481    0.003258
      3          1           0        1.011872    0.519927    0.872602
      4          1           0        1.061992    0.540473   -0.826664
      5          1           0        1.056753   -0.925025   -0.035507
      6          1           0       -1.218295    0.892207   -0.040372
 ---------------------------------------------------------------------
 Rotational constants (GHZ):    127.6482725     24.8611561     23.6502174
 Leave Link  202 at Thu Aug 27 00:03:16 2020, MaxMem=  2097152000 cpu:         0.0
 (Enter /opt/cluster/programs/g09/g09_d.01/g09/l301.exe)
 Standard basis: def2QZVP (5D, 7F)
 Ernie: Thresh=  0.10000D-02 Tol=  0.10000D-05 Strict=F.
 There are   284 symmetry adapted cartesian basis functions of A   symmetry.
 There are   234 symmetry adapted basis functions of A   symmetry.
   234 basis functions,   336 primitive gaussians,   284 cartesian basis functions
     9 alpha electrons        9 beta electrons
       nuclear repulsion energy        40.0086360097 Hartrees.
 IExCor=  419 DFT=T Ex+Corr=B2PLYPD3 ExCW=0 ScaHFX=  0.530000
 ScaDFX=  0.470000  0.470000  0.730000  0.730000 ScalE2=  0.270000  0.270000
 IRadAn=      0 IRanWt=     -1 IRanGd=            0 ICorTp=0 IEmpDi=141
 NAtoms=    6 NActive=    6 NUniq=    6 SFac= 1.00D+00 NAtFMM=   60 NAOKFM=F Big=F
 Integral buffers will be    131072 words long.
 Regular integral format.
 Two-electron integral symmetry is turned on.
 R6Disp:  Grimme-D3(BJ) Dispersion energy=       -0.0013103893 Hartrees.
 Nuclear repulsion after empirical dispersion term =       40.0073256205 Hartrees.
 Leave Link  301 at Thu Aug 27 00:03:16 2020, MaxMem=  2097152000 cpu:         0.4
 (Enter /opt/cluster/programs/g09/g09_d.01/g09/l302.exe)
 NPDir=0 NMtPBC=     1 NCelOv=     1 NCel=       1 NClECP=     1 NCelD=      1
         NCelK=      1 NCelE2=     1 NClLst=     1 CellRange=     0.0.
 One-electron integrals computed using PRISM.
   1 Symmetry operations used in ECPInt.
 ECPInt:  NShTT=    2775 NPrTT=    6207 LenC2=    2774 LenP2D=    5737.
 LDataN:  DoStor=T MaxTD1= 8 Len=  415
 NBasis=   234 RedAO= T EigKep=  1.06D-04  NBF=   234
 NBsUse=   234 1.00D-06 EigRej= -1.00D+00 NBFU=   234
 Precomputing XC quadrature grid using
 IXCGrd= 4 IRadAn=           0 IRanWt=          -1 IRanGd=           0 AccXCQ= 0.00D+00.
 Generated NRdTot=       0 NPtTot=           0 NUsed=           0 NTot=          32
 NSgBfM=   284   284   284   284   284 MxSgAt=     6 MxSgA2=     6.
 Leave Link  302 at Thu Aug 27 00:03:16 2020, MaxMem=  2097152000 cpu:         1.8
 (Enter /opt/cluster/programs/g09/g09_d.01/g09/l303.exe)
 DipDrv:  MaxL=1.
 Leave Link  303 at Thu Aug 27 00:03:16 2020, MaxMem=  2097152000 cpu:         0.2
 (Enter /opt/cluster/programs/g09/g09_d.01/g09/l401.exe)
 ExpMin= 7.60D-02 ExpMax= 1.17D+05 ExpMxC= 1.13D+03 IAcc=2 IRadAn=         4 AccDes= 0.00D+00
 Harris functional with IExCor=  419 and IRadAn=       4 diagonalized for initial guess.
 HarFok:  IExCor=  419 AccDes= 0.00D+00 IRadAn=         4 IDoV= 1 UseB2=F ITyADJ=14
 ICtDFT=  3500011 ScaDFX=  1.000000  1.000000  1.000000  1.000000
 FoFCou: FMM=F IPFlag=           0 FMFlag=      100000 FMFlg1=           0
         NFxFlg=           0 DoJE=T BraDBF=F KetDBF=T FulRan=T
         wScrn=  0.000000 ICntrl=     500 IOpCl=  0 I1Cent=   200000004 NGrid=           0
         NMat0=    1 NMatS0=      1 NMatT0=    0 NMatD0=    1 NMtDS0=    0 NMtDT0=    0
 Petite list used in FoFCou.
 Harris En= -115.806994091745    
 JPrj=0 DoOrth=F DoCkMO=F.
 Leave Link  401 at Thu Aug 27 00:03:17 2020, MaxMem=  2097152000 cpu:         3.3
 (Enter /opt/cluster/programs/g09/g09_d.01/g09/l502.exe)
 Closed shell SCF:
 Using DIIS extrapolation, IDIIS=  1040.
 Integral symmetry usage will be decided dynamically.
 Keep R1 ints in memory in canonical form, NReq=389840494.
 IVT=      264814 IEndB=      264814 NGot=  2097152000 MDV=  1718885927
 LenX=  1718885927 LenY=  1718804830
 Requested convergence on RMS density matrix=1.00D-08 within 128 cycles.
 Requested convergence on MAX density matrix=1.00D-06.
 Requested convergence on             energy=1.00D-06.
 No special actions if energy rises.
 FoFCou: FMM=F IPFlag=           0 FMFlag=           0 FMFlg1=           0
         NFxFlg=           0 DoJE=F BraDBF=F KetDBF=F FulRan=T
         wScrn=  0.000000 ICntrl=     600 IOpCl=  0 I1Cent=           0 NGrid=           0
         NMat0=    1 NMatS0=  27495 NMatT0=    0 NMatD0=    1 NMtDS0=    0 NMtDT0=    0
 Symmetry not used in FoFCou.
 Integral accuracy reduced to 1.0D-05 until final iterations.

 Cycle   1  Pass 0  IDiag  1:
 E= -115.414051500234    
 DIIS: error= 3.19D-02 at cycle   1 NSaved=   1.
 NSaved= 1 IEnMin= 1 EnMin= -115.414051500234     IErMin= 1 ErrMin= 3.19D-02
 ErrMax= 3.19D-02  0.00D+00 EMaxC= 1.00D-01 BMatC= 1.80D-01 BMatP= 1.80D-01
 IDIUse=3 WtCom= 6.81D-01 WtEn= 3.19D-01
 Coeff-Com:  0.100D+01
 Coeff-En:   0.100D+01
 Coeff:      0.100D+01
 Gap=     0.294 Goal=   None    Shift=    0.000
 GapD=    0.294 DampG=1.000 DampE=0.500 DampFc=0.5000 IDamp=-1.
 Damping current iteration by 5.00D-01
 RMSDP=1.39D-03 MaxDP=4.57D-02              OVMax= 1.51D-01

 Cycle   2  Pass 0  IDiag  1:
 E= -115.466750130383     Delta-E=       -0.052698630149 Rises=F Damp=T
 DIIS: error= 1.26D-02 at cycle   2 NSaved=   2.
 NSaved= 2 IEnMin= 2 EnMin= -115.466750130383     IErMin= 2 ErrMin= 1.26D-02
 ErrMax= 1.26D-02  0.00D+00 EMaxC= 1.00D-01 BMatC= 2.00D-02 BMatP= 1.80D-01
 IDIUse=3 WtCom= 8.74D-01 WtEn= 1.26D-01
 Coeff-Com: -0.111D+00 0.111D+01
 Coeff-En:   0.000D+00 0.100D+01
 Coeff:     -0.967D-01 0.110D+01
 Gap=     0.401 Goal=   None    Shift=    0.000
 RMSDP=3.84D-04 MaxDP=1.10D-02 DE=-5.27D-02 OVMax= 8.99D-02

 Cycle   3  Pass 0  IDiag  1:
 E= -115.518609587429     Delta-E=       -0.051859457047 Rises=F Damp=F
 DIIS: error= 4.25D-03 at cycle   3 NSaved=   3.
 NSaved= 3 IEnMin= 3 EnMin= -115.518609587429     IErMin= 3 ErrMin= 4.25D-03
 ErrMax= 4.25D-03  0.00D+00 EMaxC= 1.00D-01 BMatC= 6.76D-03 BMatP= 2.00D-02
 IDIUse=3 WtCom= 9.58D-01 WtEn= 4.25D-02
 Coeff-Com: -0.141D+00 0.407D+00 0.734D+00
 Coeff-En:   0.000D+00 0.000D+00 0.100D+01
 Coeff:     -0.135D+00 0.390D+00 0.746D+00
 Gap=     0.385 Goal=   None    Shift=    0.000
 RMSDP=1.56D-04 MaxDP=6.38D-03 DE=-5.19D-02 OVMax= 2.11D-02

 Cycle   4  Pass 0  IDiag  1:
 E= -115.522548572665     Delta-E=       -0.003938985235 Rises=F Damp=F
 DIIS: error= 2.06D-03 at cycle   4 NSaved=   4.
 NSaved= 4 IEnMin= 4 EnMin= -115.522548572665     IErMin= 4 ErrMin= 2.06D-03
 ErrMax= 2.06D-03  0.00D+00 EMaxC= 1.00D-01 BMatC= 8.54D-04 BMatP= 6.76D-03
 IDIUse=3 WtCom= 9.79D-01 WtEn= 2.06D-02
 Coeff-Com: -0.507D-01 0.908D-01 0.334D+00 0.626D+00
 Coeff-En:   0.000D+00 0.000D+00 0.179D-01 0.982D+00
 Coeff:     -0.497D-01 0.890D-01 0.327D+00 0.634D+00
 Gap=     0.383 Goal=   None    Shift=    0.000
 RMSDP=4.77D-05 MaxDP=2.03D-03 DE=-3.94D-03 OVMax= 7.18D-03

 Cycle   5  Pass 0  IDiag  1:
 E= -115.523187889834     Delta-E=       -0.000639317170 Rises=F Damp=F
 DIIS: error= 1.98D-04 at cycle   5 NSaved=   5.
 NSaved= 5 IEnMin= 5 EnMin= -115.523187889834     IErMin= 5 ErrMin= 1.98D-04
 ErrMax= 1.98D-04  0.00D+00 EMaxC= 1.00D-01 BMatC= 7.10D-06 BMatP= 8.54D-04
 IDIUse=3 WtCom= 9.98D-01 WtEn= 1.98D-03
 Coeff-Com: -0.674D-02 0.748D-02 0.502D-01 0.145D+00 0.804D+00
 Coeff-En:   0.000D+00 0.000D+00 0.000D+00 0.000D+00 0.100D+01
 Coeff:     -0.673D-02 0.746D-02 0.501D-01 0.145D+00 0.804D+00
 Gap=     0.383 Goal=   None    Shift=    0.000
 RMSDP=7.30D-06 MaxDP=1.96D-04 DE=-6.39D-04 OVMax= 5.81D-04

 Initial convergence to 1.0D-05 achieved.  Increase integral accuracy.
 Cycle   6  Pass 1  IDiag  1:
 E= -115.523188367593     Delta-E=       -0.000000477759 Rises=F Damp=F
 DIIS: error= 1.76D-05 at cycle   1 NSaved=   1.
 NSaved= 1 IEnMin= 1 EnMin= -115.523188367593     IErMin= 1 ErrMin= 1.76D-05
 ErrMax= 1.76D-05  0.00D+00 EMaxC= 1.00D-01 BMatC= 1.23D-07 BMatP= 1.23D-07
 IDIUse=1 WtCom= 1.00D+00 WtEn= 0.00D+00
 Coeff-Com:  0.100D+01
 Coeff:      0.100D+01
 Gap=     0.383 Goal=   None    Shift=    0.000
 RMSDP=7.30D-06 MaxDP=1.96D-04 DE=-4.78D-07 OVMax= 1.75D-04

 Cycle   7  Pass 1  IDiag  1:
 E= -115.523188584269     Delta-E=       -0.000000216676 Rises=F Damp=F
 DIIS: error= 7.92D-06 at cycle   2 NSaved=   2.
 NSaved= 2 IEnMin= 2 EnMin= -115.523188584269     IErMin= 2 ErrMin= 7.92D-06
 ErrMax= 7.92D-06  0.00D+00 EMaxC= 1.00D-01 BMatC= 1.38D-08 BMatP= 1.23D-07
 IDIUse=1 WtCom= 1.00D+00 WtEn= 0.00D+00
 Coeff-Com: -0.632D-02 0.101D+01
 Coeff:     -0.632D-02 0.101D+01
 Gap=     0.383 Goal=   None    Shift=    0.000
 RMSDP=5.45D-07 MaxDP=2.58D-05 DE=-2.17D-07 OVMax= 9.31D-05

 Cycle   8  Pass 1  IDiag  1:
 E= -115.523188600993     Delta-E=       -0.000000016724 Rises=F Damp=F
 DIIS: error= 5.74D-06 at cycle   3 NSaved=   3.
 NSaved= 3 IEnMin= 3 EnMin= -115.523188600993     IErMin= 3 ErrMin= 5.74D-06
 ErrMax= 5.74D-06  0.00D+00 EMaxC= 1.00D-01 BMatC= 1.10D-08 BMatP= 1.38D-08
 IDIUse=1 WtCom= 1.00D+00 WtEn= 0.00D+00
 Coeff-Com: -0.121D+00 0.516D+00 0.605D+00
 Coeff:     -0.121D+00 0.516D+00 0.605D+00
 Gap=     0.383 Goal=   None    Shift=    0.000
 RMSDP=2.62D-07 MaxDP=1.26D-05 DE=-1.67D-08 OVMax= 3.53D-05

 Cycle   9  Pass 1  IDiag  1:
 E= -115.523188609291     Delta-E=       -0.000000008298 Rises=F Damp=F
 DIIS: error= 1.10D-06 at cycle   4 NSaved=   4.
 NSaved= 4 IEnMin= 4 EnMin= -115.523188609291     IErMin= 4 ErrMin= 1.10D-06
 ErrMax= 1.10D-06  0.00D+00 EMaxC= 1.00D-01 BMatC= 3.84D-10 BMatP= 1.10D-08
 IDIUse=1 WtCom= 1.00D+00 WtEn= 0.00D+00
 Coeff-Com: -0.353D-01 0.300D-01 0.168D+00 0.837D+00
 Coeff:     -0.353D-01 0.300D-01 0.168D+00 0.837D+00
 Gap=     0.383 Goal=   None    Shift=    0.000
 RMSDP=6.33D-08 MaxDP=2.68D-06 DE=-8.30D-09 OVMax= 1.16D-05

 Cycle  10  Pass 1  IDiag  1:
 E= -115.523188609705     Delta-E=       -0.000000000413 Rises=F Damp=F
 DIIS: error= 3.93D-07 at cycle   5 NSaved=   5.
 NSaved= 5 IEnMin= 5 EnMin= -115.523188609705     IErMin= 5 ErrMin= 3.93D-07
 ErrMax= 3.93D-07  0.00D+00 EMaxC= 1.00D-01 BMatC= 2.11D-11 BMatP= 3.84D-10
 IDIUse=1 WtCom= 1.00D+00 WtEn= 0.00D+00
 Coeff-Com: -0.135D-02-0.193D-01 0.164D-02 0.204D+00 0.815D+00
 Coeff:     -0.135D-02-0.193D-01 0.164D-02 0.204D+00 0.815D+00
 Gap=     0.383 Goal=   None    Shift=    0.000
 RMSDP=1.56D-08 MaxDP=4.94D-07 DE=-4.13D-10 OVMax= 2.22D-06

 Cycle  11  Pass 1  IDiag  1:
 E= -115.523188609728     Delta-E=       -0.000000000023 Rises=F Damp=F
 DIIS: error= 1.25D-07 at cycle   6 NSaved=   6.
 NSaved= 6 IEnMin= 6 EnMin= -115.523188609728     IErMin= 6 ErrMin= 1.25D-07
 ErrMax= 1.25D-07  0.00D+00 EMaxC= 1.00D-01 BMatC= 2.32D-12 BMatP= 2.11D-11
 IDIUse=1 WtCom= 1.00D+00 WtEn= 0.00D+00
 Coeff-Com:  0.280D-02-0.107D-01-0.169D-01 0.311D-02 0.265D+00 0.756D+00
 Coeff:      0.280D-02-0.107D-01-0.169D-01 0.311D-02 0.265D+00 0.756D+00
 Gap=     0.383 Goal=   None    Shift=    0.000
 RMSDP=4.84D-09 MaxDP=1.49D-07 DE=-2.35D-11 OVMax= 6.23D-07

 SCF Done:  E(RB2PLYPD3) =  -115.523188610     A.U. after   11 cycles
            NFock= 11  Conv=0.48D-08     -V/T= 2.0033
 KE= 1.151482028551D+02 PE=-3.516019440859D+02 EE= 8.092322700066D+01
 Leave Link  502 at Thu Aug 27 00:03:32 2020, MaxMem=  2097152000 cpu:        70.9
 (Enter /opt/cluster/programs/g09/g09_d.01/g09/l801.exe)
 DoSCS=T DFT=T ScalE2(SS,OS)=  0.270000  0.270000
 ExpMin= 7.60D-02 ExpMax= 1.17D+05 ExpMxC= 1.13D+03 IAcc=3 IRadAn=         5 AccDes= 0.00D+00
 HarFok:  IExCor=  205 AccDes= 0.00D+00 IRadAn=         5 IDoV=-2 UseB2=F ITyADJ=14
 ICtDFT= 12500011 ScaDFX=  1.000000  1.000000  1.000000  1.000000
 Largest valence mixing into a core orbital is  1.10D-04
 Largest core mixing into a valence orbital is  1.45D-05
 Range of M.O.s used for correlation:     3   234
 NBasis=   234 NAE=     9 NBE=     9 NFC=     2 NFV=     0
 NROrb=    232 NOA=     7 NOB=     7 NVA=   225 NVB=   225

 **** Warning!!: The largest alpha MO coefficient is  0.35068099D+02

 Leave Link  801 at Thu Aug 27 00:03:32 2020, MaxMem=  2097152000 cpu:         0.6
 (Enter /opt/cluster/programs/g09/g09_d.01/g09/l906.exe)
 DoSCS=T DFT=T ScalE2(SS,OS)=  0.270000  0.270000
 FulOut=F Deriv=F AODrv=F NAtomX=     6
   MMem=        3646  MDisk=           7 MDiskD=           7
  W3Min=      447300 MinDsk=     1090093 NBas6D=         284
 NBas2D=       41310    NTT=       40470    LW2=     4508827
    MDV=  2096872576 MDiskM=       16391 NBas2p=       41304
 Fully in-core method, ICMem=  1722292712.
 IMap=   1   2   3   4   5   6   7
 JobTyp=1 Pass  1 fully in-core, NPsUse=  8.
 Compute canonical integrals.
 FoFCou: FMM=F IPFlag=           0 FMFlag=           0 FMFlg1=           0
         NFxFlg=           0 DoJE=F BraDBF=F KetDBF=F FulRan=T
         wScrn=  0.000000 ICntrl=     600 IOpCl=  1 I1Cent=           0 NGrid=           0
         NMat0=    1 NMatS0=  41310 NMatT0=    0 NMatD0=    1 NMtDS0=    0 NMtDT0=    0
 Symmetry not used in FoFCou.
 Spin components of T(2) and E(2):
     alpha-alpha T2 =       0.2218345567D-01 E2=     -0.1710289519D-01
     alpha-beta  T2 =       0.1397777865D+00 E2=     -0.1161124236D+00
     beta-beta   T2 =       0.2218345567D-01 E2=     -0.1710289519D-01
 The integrals were generated   1 times.
 E2(B2PLYPD3) =    -0.1503182139D+00 E(B2PLYPD3) =    -0.11567350682367D+03
 Leave Link  906 at Thu Aug 27 00:03:46 2020, MaxMem=  2097152000 cpu:       111.0
 (Enter /opt/cluster/programs/g09/g09_d.01/g09/l601.exe)
 Copying SCF densities to generalized density rwf, IOpCl= 0 IROHF=0.

 **********************************************************************

            Population analysis using the SCF density.

 **********************************************************************

 Orbital symmetries:
       Occupied  (A) (A) (A) (A) (A) (A) (A) (A) (A)
       Virtual   (A) (A) (A) (A) (A) (A) (A) (A) (A) (A) (A) (A)
                 (A) (A) (A) (A) (A) (A) (A) (A) (A) (A) (A) (A)
                 (A) (A) (A) (A) (A) (A) (A) (A) (A) (A) (A) (A)
                 (A) (A) (A) (A) (A) (A) (A) (A) (A) (A) (A) (A)
                 (A) (A) (A) (A) (A) (A) (A) (A) (A) (A) (A) (A)
                 (A) (A) (A) (A) (A) (A) (A) (A) (A) (A) (A) (A)
                 (A) (A) (A) (A) (A) (A) (A) (A) (A) (A) (A) (A)
                 (A) (A) (A) (A) (A) (A) (A) (A) (A) (A) (A) (A)
                 (A) (A) (A) (A) (A) (A) (A) (A) (A) (A) (A) (A)
                 (A) (A) (A) (A) (A) (A) (A) (A) (A) (A) (A) (A)
                 (A) (A) (A) (A) (A) (A) (A) (A) (A) (A) (A) (A)
                 (A) (A) (A) (A) (A) (A) (A) (A) (A) (A) (A) (A)
                 (A) (A) (A) (A) (A) (A) (A) (A) (A) (A) (A) (A)
                 (A) (A) (A) (A) (A) (A) (A) (A) (A) (A) (A) (A)
                 (A) (A) (A) (A) (A) (A) (A) (A) (A) (A) (A) (A)
                 (A) (A) (A) (A) (A) (A) (A) (A) (A) (A) (A) (A)
                 (A) (A) (A) (A) (A) (A) (A) (A) (A) (A) (A) (A)
                 (A) (A) (A) (A) (A) (A) (A) (A) (A) (A) (A) (A)
                 (A) (A) (A) (A) (A) (A) (A) (A) (A)
 The electronic state is 1-A.
 Alpha  occ. eigenvalues --  -19.73821 -10.63836  -1.13250  -0.78723  -0.56666
 Alpha  occ. eigenvalues --   -0.51966  -0.49524  -0.40682  -0.35063
 Alpha virt. eigenvalues --    0.03264   0.07737   0.12643   0.12716   0.15012
 Alpha virt. eigenvalues --    0.17185   0.18333   0.28070   0.29694   0.33428
 Alpha virt. eigenvalues --    0.34379   0.39004   0.39849   0.41953   0.43992
 Alpha virt. eigenvalues --    0.46559   0.53256   0.55610   0.57876   0.66134
 Alpha virt. eigenvalues --    0.71795   0.73833   0.76906   0.79073   0.79822
 Alpha virt. eigenvalues --    0.81733   0.84936   0.88627   0.93036   0.93701
 Alpha virt. eigenvalues --    0.98424   0.99935   1.01886   1.08606   1.10577
 Alpha virt. eigenvalues --    1.12688   1.14917   1.20790   1.31700   1.41325
 Alpha virt. eigenvalues --    1.42843   1.46809   1.50006   1.50665   1.52700
 Alpha virt. eigenvalues --    1.75124   1.81765   1.84079   1.85811   1.87047
 Alpha virt. eigenvalues --    1.89968   1.96004   1.97374   1.98199   2.03361
 Alpha virt. eigenvalues --    2.08028   2.14255   2.17557   2.20025   2.22910
 Alpha virt. eigenvalues --    2.24282   2.25573   2.30513   2.33184   2.38588
 Alpha virt. eigenvalues --    2.41702   2.49457   2.52151   2.55909   2.60144
 Alpha virt. eigenvalues --    2.62023   2.65024   2.66628   2.73369   2.77472
 Alpha virt. eigenvalues --    2.84576   2.87887   2.88588   2.93837   3.02648
 Alpha virt. eigenvalues --    3.06497   3.07154   3.11483   3.18897   3.20333
 Alpha virt. eigenvalues --    3.30995   3.33777   3.40491   3.44078   3.51521
 Alpha virt. eigenvalues --    3.54174   3.73516   3.74750   3.85928   3.91886
 Alpha virt. eigenvalues --    3.99643   4.00690   4.04751   4.08979   4.18480
 Alpha virt. eigenvalues --    4.21034   4.26399   4.34438   4.35193   4.40980
 Alpha virt. eigenvalues --    4.46534   4.51942   4.63039   4.76523   5.12579
 Alpha virt. eigenvalues --    5.16782   5.39081   5.47206   5.49982   5.59884
 Alpha virt. eigenvalues --    5.61520   5.70608   5.77617   5.82005   5.83098
 Alpha virt. eigenvalues --    5.92933   5.94413   5.98827   6.07020   6.12501
 Alpha virt. eigenvalues --    6.15743   6.25486   6.29559   6.34522   6.36935
 Alpha virt. eigenvalues --    6.41684   6.43678   6.45837   6.56895   6.58584
 Alpha virt. eigenvalues --    6.62691   6.66804   6.71445   6.78030   6.79599
 Alpha virt. eigenvalues --    6.80014   6.88949   6.90994   6.98304   7.06820
 Alpha virt. eigenvalues --    7.09055   7.30174   7.33298   7.36456   7.61623
 Alpha virt. eigenvalues --    7.62465   7.63930   7.65760   7.66517   7.68961
 Alpha virt. eigenvalues --    7.78449   7.79206   7.84631   7.87578   7.89699
 Alpha virt. eigenvalues --    7.91460   7.95679   7.98924   8.04516   8.14652
 Alpha virt. eigenvalues --    8.15913   8.33894   8.35293   8.36347   8.41320
 Alpha virt. eigenvalues --    8.45960   8.53618   8.54162   8.55663   8.57279
 Alpha virt. eigenvalues --    8.59952   8.63031   8.64969   8.71802   8.85131
 Alpha virt. eigenvalues --    8.88677   8.96143   9.10147   9.16032   9.16743
 Alpha virt. eigenvalues --    9.28124   9.47864   9.55606   9.83434   9.86852
 Alpha virt. eigenvalues --   10.00079  10.01460  10.09845  10.17413  10.21427
 Alpha virt. eigenvalues --   10.30379  10.35138  10.47421  10.48776  10.65479
 Alpha virt. eigenvalues --   10.72048  10.83898  11.00939  11.13338  11.31967
 Alpha virt. eigenvalues --   11.42974  11.52522  11.62271  11.76756  11.83397
 Alpha virt. eigenvalues --   12.01660  12.19521  12.29183  12.66549  12.72807
 Alpha virt. eigenvalues --   12.87044  12.98512  13.44263  13.73228  14.54188
 Alpha virt. eigenvalues --   14.84521  29.41334  48.54367 149.06037 254.27304
          Condensed to atoms (all electrons):
               1          2          3          4          5          6
     1  C    4.411017   0.271106   0.445155   0.436637   0.402540  -0.045577
     2  O    0.271106   8.048181  -0.048593  -0.042901  -0.038563   0.303112
     3  H    0.445155  -0.048593   0.662043  -0.059468  -0.039883  -0.006719
     4  H    0.436637  -0.042901  -0.059468   0.674297  -0.042792  -0.009822
     5  H    0.402540  -0.038563  -0.039883  -0.042792   0.637889   0.011848
     6  H   -0.045577   0.303112  -0.006719  -0.009822   0.011848   0.494415
 Mulliken charges:
               1
     1  C    0.079122
     2  O   -0.492344
     3  H    0.047466
     4  H    0.044050
     5  H    0.068962
     6  H    0.252744
 Sum of Mulliken charges =   0.00000
 Mulliken charges with hydrogens summed into heavy atoms:
               1
     1  C    0.239600
     2  O   -0.239600
 Electronic spatial extent (au):  <R**2>=             84.6736
 Charge=              0.0000 electrons
 Dipole moment (field-independent basis, Debye):
    X=              0.8574    Y=              1.6192    Z=             -0.0854  Tot=              1.8342
 Quadrupole moment (field-independent basis, Debye-Ang):
   XX=            -12.7893   YY=            -11.9636   ZZ=            -13.9082
   XY=             -2.4472   XZ=              0.0234   YZ=             -0.0356
 Traceless Quadrupole moment (field-independent basis, Debye-Ang):
   XX=              0.0978   YY=              0.9235   ZZ=             -1.0212
   XY=             -2.4472   XZ=              0.0234   YZ=             -0.0356
 Octapole moment (field-independent basis, Debye-Ang**2):
  XXX=             -3.6973  YYY=              0.8114  ZZZ=              0.0159  XYY=             -2.0482
  XXY=              2.7619  XXZ=             -0.2431  XZZ=             -0.0224  YZZ=              0.4514
  YYZ=             -0.1025  XYZ=              0.1289
 Hexadecapole moment (field-independent basis, Debye-Ang**3):
 XXXX=            -62.4904 YYYY=            -20.3880 ZZZZ=            -19.6449 XXXY=             -4.3040
 XXXZ=             -0.0667 YYYX=             -3.3473 YYYZ=             -0.0535 ZZZX=             -0.0197
 ZZZY=              0.0338 XXYY=            -12.3276 XXZZ=            -14.6758 YYZZ=             -6.9364
 XXYZ=             -0.1237 YYXZ=              0.0171 ZZXY=              0.1311
 N-N= 4.000732562046D+01 E-N=-3.516019528771D+02  KE= 1.151482028551D+02
 Leave Link  601 at Thu Aug 27 00:03:49 2020, MaxMem=  2097152000 cpu:         0.3
 (Enter /opt/cluster/programs/g09/g09_d.01/g09/l9999.exe)
 1\1\GINC-NODE28\SP\RB2PLYPD3-FC\def2QZVP\C1H4O1\BOITTIER\27-Aug-2020\0
 \\#p B2PLYPD3/Def2QZVP\\methanol\\0,1\C,0,-5.181582,-1.254381,0.911176
 \O,0,-3.768238,-1.124841,0.874763\H,0,-5.503669,-2.204485,0.568446\H,0
 ,-5.717892,-0.529616,0.370048\H,0,-5.439658,-1.133992,1.896795\H,0,-3.
 441383,-1.170085,-0.220702\\Version=ES64L-G09RevD.01\State=1-A\HF=-115
 .5231886\MP2=-115.6735068\RMSD=4.836e-09\PG=C01 [X(C1H4O1)]\\@


 GARBAGE IN, GARBAGE OUT
 Job cpu time:       0 days  0 hours  3 minutes  9.8 seconds.
 File lengths (MBytes):  RWF=     23 Int=      0 D2E=      0 Chk=      4 Scr=      1
 Normal termination of Gaussian 09 at Thu Aug 27 00:03:56 2020.
