 Entering Gaussian System, Link 0=/opt/cluster/programs/g09/g09_d.01/g09//g09
 Input=/home/boittier/MDCM/nms_sampling/methanol_geom.xyz.dir/energies/methanol_245_energy.com
 Output=/scratch/boittier/methanol_245_energy/methanol_245_energy.out
 Initial command:
 /opt/cluster/programs/g09/g09_d.01/g09/l1.exe "/scratch/boittier/methanol_245_energy/Gau-202515.inp" -scrdir="/scratch/boittier/methanol_245_energy/"
 Entering Link 1 = /opt/cluster/programs/g09/g09_d.01/g09/l1.exe PID=    202516.
  
 Copyright (c) 1988,1990,1992,1993,1995,1998,2003,2009,2013,
            Gaussian, Inc.  All Rights Reserved.
  
 This is part of the Gaussian(R) 09 program.  It is based on
 the Gaussian(R) 03 system (copyright 2003, Gaussian, Inc.),
 the Gaussian(R) 98 system (copyright 1998, Gaussian, Inc.),
 the Gaussian(R) 94 system (copyright 1995, Gaussian, Inc.),
 the Gaussian 92(TM) system (copyright 1992, Gaussian, Inc.),
 the Gaussian 90(TM) system (copyright 1990, Gaussian, Inc.),
 the Gaussian 88(TM) system (copyright 1988, Gaussian, Inc.),
 the Gaussian 86(TM) system (copyright 1986, Carnegie Mellon
 University), and the Gaussian 82(TM) system (copyright 1983,
 Carnegie Mellon University). Gaussian is a federally registered
 trademark of Gaussian, Inc.
  
 This software contains proprietary and confidential information,
 including trade secrets, belonging to Gaussian, Inc.
  
 This software is provided under written license and may be
 used, copied, transmitted, or stored only in accord with that
 written license.
  
 The following legend is applicable only to US Government
 contracts under FAR:
  
                    RESTRICTED RIGHTS LEGEND
  
 Use, reproduction and disclosure by the US Government is
 subject to restrictions as set forth in subparagraphs (a)
 and (c) of the Commercial Computer Software - Restricted
 Rights clause in FAR 52.227-19.
  
 Gaussian, Inc.
 340 Quinnipiac St., Bldg. 40, Wallingford CT 06492
  
  
 ---------------------------------------------------------------
 Warning -- This program may not be used in any manner that
 competes with the business of Gaussian, Inc. or will provide
 assistance to any competitor of Gaussian, Inc.  The licensee
 of this program is prohibited from giving any competitor of
 Gaussian, Inc. access to this program.  By using this program,
 the user acknowledges that Gaussian, Inc. is engaged in the
 business of creating and licensing software in the field of
 computational chemistry and represents and warrants to the
 licensee that it is not a competitor of Gaussian, Inc. and that
 it will not use this program in any manner prohibited above.
 ---------------------------------------------------------------
  

 Cite this work as:
 Gaussian 09, Revision D.01,
 M. J. Frisch, G. W. Trucks, H. B. Schlegel, G. E. Scuseria, 
 M. A. Robb, J. R. Cheeseman, G. Scalmani, V. Barone, B. Mennucci, 
 G. A. Petersson, H. Nakatsuji, M. Caricato, X. Li, H. P. Hratchian, 
 A. F. Izmaylov, J. Bloino, G. Zheng, J. L. Sonnenberg, M. Hada, 
 M. Ehara, K. Toyota, R. Fukuda, J. Hasegawa, M. Ishida, T. Nakajima, 
 Y. Honda, O. Kitao, H. Nakai, T. Vreven, J. A. Montgomery, Jr., 
 J. E. Peralta, F. Ogliaro, M. Bearpark, J. J. Heyd, E. Brothers, 
 K. N. Kudin, V. N. Staroverov, T. Keith, R. Kobayashi, J. Normand, 
 K. Raghavachari, A. Rendell, J. C. Burant, S. S. Iyengar, J. Tomasi, 
 M. Cossi, N. Rega, J. M. Millam, M. Klene, J. E. Knox, J. B. Cross, 
 V. Bakken, C. Adamo, J. Jaramillo, R. Gomperts, R. E. Stratmann, 
 O. Yazyev, A. J. Austin, R. Cammi, C. Pomelli, J. W. Ochterski, 
 R. L. Martin, K. Morokuma, V. G. Zakrzewski, G. A. Voth, 
 P. Salvador, J. J. Dannenberg, S. Dapprich, A. D. Daniels, 
 O. Farkas, J. B. Foresman, J. V. Ortiz, J. Cioslowski, 
 and D. J. Fox, Gaussian, Inc., Wallingford CT, 2013.
 
 ******************************************
 Gaussian 09:  ES64L-G09RevD.01 24-Apr-2013
                26-Aug-2020 
 ******************************************
 %chk=/home/boittier/MDCM/nms_sampling/methanol_geom.xyz.dir/methanol_245.chk
 %nproc=8
 Will use up to    8 processors via shared memory.
 %mem=16000MB
 --------------------
 #p B2PLYPD3/Def2QZVP
 --------------------
 1/38=1/1;
 2/12=2,17=6,18=5,40=1/2;
 3/5=45,7=101,11=9,16=1,25=1,30=1,74=-60/1,2,3;
 4//1;
 5/5=2,38=5/2;
 8/10=1/1;
 9/16=-3/6;
 6/7=2,8=2,9=2,10=2/1;
 99/5=1,9=1/99;
 Leave Link    1 at Wed Aug 26 18:51:40 2020, MaxMem=  2097152000 cpu:         0.2
 (Enter /opt/cluster/programs/g09/g09_d.01/g09/l101.exe)
 --------
 methanol
 --------
 Symbolic Z-matrix:
 Charge =  0 Multiplicity = 1
 C                    -5.16756  -1.25695   0.91609 
 O                    -3.77221  -1.1227    0.85361 
 H                    -5.53586  -2.23107   0.55631 
 H                    -5.66759  -0.44004   0.32459 
 H                    -5.47913  -1.1772    1.9934 
 H                    -3.51538  -1.19667   0.02792 
 
 NAtoms=      6 NQM=        6 NQMF=       0 NMMI=      0 NMMIF=      0
                NMic=       0 NMicF=      0.
                    Isotopes and Nuclear Properties:
 (Nuclear quadrupole moments (NQMom) in fm**2, nuclear magnetic moments (NMagM)
  in nuclear magnetons)

  Atom         1           2           3           4           5           6
 IAtWgt=          12          16           1           1           1           1
 AtmWgt=  12.0000000  15.9949146   1.0078250   1.0078250   1.0078250   1.0078250
 NucSpn=           0           0           1           1           1           1
 AtZEff=   0.0000000   0.0000000   0.0000000   0.0000000   0.0000000   0.0000000
 NQMom=    0.0000000   0.0000000   0.0000000   0.0000000   0.0000000   0.0000000
 NMagM=    0.0000000   0.0000000   2.7928460   2.7928460   2.7928460   2.7928460
 AtZNuc=   6.0000000   8.0000000   1.0000000   1.0000000   1.0000000   1.0000000
 Leave Link  101 at Wed Aug 26 18:51:40 2020, MaxMem=  2097152000 cpu:         0.5
 (Enter /opt/cluster/programs/g09/g09_d.01/g09/l202.exe)
                          Input orientation:                          
 ---------------------------------------------------------------------
 Center     Atomic      Atomic             Coordinates (Angstroms)
 Number     Number       Type             X           Y           Z
 ---------------------------------------------------------------------
      1          6           0       -5.167557   -1.256947    0.916094
      2          8           0       -3.772206   -1.122697    0.853606
      3          1           0       -5.535863   -2.231074    0.556313
      4          1           0       -5.667592   -0.440037    0.324593
      5          1           0       -5.479126   -1.177199    1.993401
      6          1           0       -3.515379   -1.196671    0.027915
 ---------------------------------------------------------------------
                    Distance matrix (angstroms):
                    1          2          3          4          5
     1  C    0.000000
     2  O    1.403186   0.000000
     3  H    1.101824   2.104131   0.000000
     4  H    1.125722   2.082875   1.810762   0.000000
     5  H    1.124289   2.053212   1.783001   1.834079   0.000000
     6  H    1.876749   0.867870   2.330569   2.300551   2.778456
                    6
     6  H    0.000000
 Stoichiometry    CH4O
 Framework group  C1[X(CH4O)]
 Deg. of freedom    12
 Full point group                 C1      NOp   1
 Largest Abelian subgroup         C1      NOp   1
 Largest concise Abelian subgroup C1      NOp   1
                         Standard orientation:                         
 ---------------------------------------------------------------------
 Center     Atomic      Atomic             Coordinates (Angstroms)
 Number     Number       Type             X           Y           Z
 ---------------------------------------------------------------------
      1          6           0       -0.652545   -0.019206    0.001899
      2          8           0        0.744600    0.110554   -0.007165
      3          1           0       -1.050584   -0.463849    0.928113
      4          1           0       -0.995122   -0.638780   -0.873326
      5          1           0       -1.100249    1.009208   -0.075247
      6          1           0        1.104426   -0.675774    0.066389
 ---------------------------------------------------------------------
 Rotational constants (GHZ):    129.0692028     25.1604928     24.4066839
 Leave Link  202 at Wed Aug 26 18:51:40 2020, MaxMem=  2097152000 cpu:         0.0
 (Enter /opt/cluster/programs/g09/g09_d.01/g09/l301.exe)
 Standard basis: def2QZVP (5D, 7F)
 Ernie: Thresh=  0.10000D-02 Tol=  0.10000D-05 Strict=F.
 There are   284 symmetry adapted cartesian basis functions of A   symmetry.
 There are   234 symmetry adapted basis functions of A   symmetry.
   234 basis functions,   336 primitive gaussians,   284 cartesian basis functions
     9 alpha electrons        9 beta electrons
       nuclear repulsion energy        40.8293111684 Hartrees.
 IExCor=  419 DFT=T Ex+Corr=B2PLYPD3 ExCW=0 ScaHFX=  0.530000
 ScaDFX=  0.470000  0.470000  0.730000  0.730000 ScalE2=  0.270000  0.270000
 IRadAn=      0 IRanWt=     -1 IRanGd=            0 ICorTp=0 IEmpDi=141
 NAtoms=    6 NActive=    6 NUniq=    6 SFac= 1.00D+00 NAtFMM=   60 NAOKFM=F Big=F
 Integral buffers will be    131072 words long.
 Regular integral format.
 Two-electron integral symmetry is turned on.
 R6Disp:  Grimme-D3(BJ) Dispersion energy=       -0.0013092333 Hartrees.
 Nuclear repulsion after empirical dispersion term =       40.8280019351 Hartrees.
 Leave Link  301 at Wed Aug 26 18:51:40 2020, MaxMem=  2097152000 cpu:         0.4
 (Enter /opt/cluster/programs/g09/g09_d.01/g09/l302.exe)
 NPDir=0 NMtPBC=     1 NCelOv=     1 NCel=       1 NClECP=     1 NCelD=      1
         NCelK=      1 NCelE2=     1 NClLst=     1 CellRange=     0.0.
 One-electron integrals computed using PRISM.
   1 Symmetry operations used in ECPInt.
 ECPInt:  NShTT=    2775 NPrTT=    6207 LenC2=    2774 LenP2D=    5735.
 LDataN:  DoStor=T MaxTD1= 8 Len=  415
 NBasis=   234 RedAO= T EigKep=  1.39D-04  NBF=   234
 NBsUse=   234 1.00D-06 EigRej= -1.00D+00 NBFU=   234
 Precomputing XC quadrature grid using
 IXCGrd= 4 IRadAn=           0 IRanWt=          -1 IRanGd=           0 AccXCQ= 0.00D+00.
 Generated NRdTot=       0 NPtTot=           0 NUsed=           0 NTot=          32
 NSgBfM=   284   284   284   284   284 MxSgAt=     6 MxSgA2=     6.
 Leave Link  302 at Wed Aug 26 18:51:41 2020, MaxMem=  2097152000 cpu:         1.8
 (Enter /opt/cluster/programs/g09/g09_d.01/g09/l303.exe)
 DipDrv:  MaxL=1.
 Leave Link  303 at Wed Aug 26 18:51:41 2020, MaxMem=  2097152000 cpu:         0.2
 (Enter /opt/cluster/programs/g09/g09_d.01/g09/l401.exe)
 ExpMin= 7.60D-02 ExpMax= 1.17D+05 ExpMxC= 1.13D+03 IAcc=2 IRadAn=         4 AccDes= 0.00D+00
 Harris functional with IExCor=  419 and IRadAn=       4 diagonalized for initial guess.
 HarFok:  IExCor=  419 AccDes= 0.00D+00 IRadAn=         4 IDoV= 1 UseB2=F ITyADJ=14
 ICtDFT=  3500011 ScaDFX=  1.000000  1.000000  1.000000  1.000000
 FoFCou: FMM=F IPFlag=           0 FMFlag=      100000 FMFlg1=           0
         NFxFlg=           0 DoJE=T BraDBF=F KetDBF=T FulRan=T
         wScrn=  0.000000 ICntrl=     500 IOpCl=  0 I1Cent=   200000004 NGrid=           0
         NMat0=    1 NMatS0=      1 NMatT0=    0 NMatD0=    1 NMtDS0=    0 NMtDT0=    0
 Petite list used in FoFCou.
 Harris En= -115.810298499377    
 JPrj=0 DoOrth=F DoCkMO=F.
 Leave Link  401 at Wed Aug 26 18:51:42 2020, MaxMem=  2097152000 cpu:         3.2
 (Enter /opt/cluster/programs/g09/g09_d.01/g09/l502.exe)
 Closed shell SCF:
 Using DIIS extrapolation, IDIIS=  1040.
 Integral symmetry usage will be decided dynamically.
 Keep R1 ints in memory in canonical form, NReq=389840494.
 IVT=      264814 IEndB=      264814 NGot=  2097152000 MDV=  1718885927
 LenX=  1718885927 LenY=  1718804830
 Requested convergence on RMS density matrix=1.00D-08 within 128 cycles.
 Requested convergence on MAX density matrix=1.00D-06.
 Requested convergence on             energy=1.00D-06.
 No special actions if energy rises.
 FoFCou: FMM=F IPFlag=           0 FMFlag=           0 FMFlg1=           0
         NFxFlg=           0 DoJE=F BraDBF=F KetDBF=F FulRan=T
         wScrn=  0.000000 ICntrl=     600 IOpCl=  0 I1Cent=           0 NGrid=           0
         NMat0=    1 NMatS0=  27495 NMatT0=    0 NMatD0=    1 NMtDS0=    0 NMtDT0=    0
 Symmetry not used in FoFCou.
 Integral accuracy reduced to 1.0D-05 until final iterations.

 Cycle   1  Pass 0  IDiag  1:
 E= -115.441354725880    
 DIIS: error= 2.45D-02 at cycle   1 NSaved=   1.
 NSaved= 1 IEnMin= 1 EnMin= -115.441354725880     IErMin= 1 ErrMin= 2.45D-02
 ErrMax= 2.45D-02  0.00D+00 EMaxC= 1.00D-01 BMatC= 1.88D-01 BMatP= 1.88D-01
 IDIUse=3 WtCom= 7.55D-01 WtEn= 2.45D-01
 Coeff-Com:  0.100D+01
 Coeff-En:   0.100D+01
 Coeff:      0.100D+01
 Gap=     0.327 Goal=   None    Shift=    0.000
 GapD=    0.327 DampG=1.000 DampE=0.500 DampFc=0.5000 IDamp=-1.
 Damping current iteration by 5.00D-01
 RMSDP=1.34D-03 MaxDP=4.95D-02              OVMax= 1.50D-01

 Cycle   2  Pass 0  IDiag  1:
 E= -115.491257454741     Delta-E=       -0.049902728861 Rises=F Damp=T
 DIIS: error= 1.02D-02 at cycle   2 NSaved=   2.
 NSaved= 2 IEnMin= 2 EnMin= -115.491257454741     IErMin= 2 ErrMin= 1.02D-02
 ErrMax= 1.02D-02  0.00D+00 EMaxC= 1.00D-01 BMatC= 1.83D-02 BMatP= 1.88D-01
 IDIUse=3 WtCom= 8.98D-01 WtEn= 1.02D-01
 Coeff-Com: -0.121D+00 0.112D+01
 Coeff-En:   0.000D+00 0.100D+01
 Coeff:     -0.108D+00 0.111D+01
 Gap=     0.430 Goal=   None    Shift=    0.000
 RMSDP=3.39D-04 MaxDP=8.99D-03 DE=-4.99D-02 OVMax= 8.63D-02

 Cycle   3  Pass 0  IDiag  1:
 E= -115.540659101789     Delta-E=       -0.049401647048 Rises=F Damp=F
 DIIS: error= 4.62D-03 at cycle   3 NSaved=   3.
 NSaved= 3 IEnMin= 3 EnMin= -115.540659101789     IErMin= 3 ErrMin= 4.62D-03
 ErrMax= 4.62D-03  0.00D+00 EMaxC= 1.00D-01 BMatC= 3.53D-03 BMatP= 1.83D-02
 IDIUse=3 WtCom= 9.54D-01 WtEn= 4.62D-02
 Coeff-Com: -0.124D+00 0.296D+00 0.828D+00
 Coeff-En:   0.000D+00 0.000D+00 0.100D+01
 Coeff:     -0.119D+00 0.283D+00 0.836D+00
 Gap=     0.409 Goal=   None    Shift=    0.000
 RMSDP=1.09D-04 MaxDP=4.28D-03 DE=-4.94D-02 OVMax= 1.29D-02

 Cycle   4  Pass 0  IDiag  1:
 E= -115.542629888617     Delta-E=       -0.001970786828 Rises=F Damp=F
 DIIS: error= 1.82D-03 at cycle   4 NSaved=   4.
 NSaved= 4 IEnMin= 4 EnMin= -115.542629888617     IErMin= 4 ErrMin= 1.82D-03
 ErrMax= 1.82D-03  0.00D+00 EMaxC= 1.00D-01 BMatC= 3.78D-04 BMatP= 3.53D-03
 IDIUse=3 WtCom= 9.82D-01 WtEn= 1.82D-02
 Coeff-Com: -0.438D-01 0.769D-01 0.354D+00 0.613D+00
 Coeff-En:   0.000D+00 0.000D+00 0.000D+00 0.100D+01
 Coeff:     -0.430D-01 0.755D-01 0.347D+00 0.620D+00
 Gap=     0.408 Goal=   None    Shift=    0.000
 RMSDP=3.41D-05 MaxDP=1.69D-03 DE=-1.97D-03 OVMax= 4.84D-03

 Cycle   5  Pass 0  IDiag  1:
 E= -115.542931726556     Delta-E=       -0.000301837939 Rises=F Damp=F
 DIIS: error= 1.83D-04 at cycle   5 NSaved=   5.
 NSaved= 5 IEnMin= 5 EnMin= -115.542931726556     IErMin= 5 ErrMin= 1.83D-04
 ErrMax= 1.83D-04  0.00D+00 EMaxC= 1.00D-01 BMatC= 6.15D-06 BMatP= 3.78D-04
 IDIUse=3 WtCom= 9.98D-01 WtEn= 1.83D-03
 Coeff-Com: -0.677D-02 0.855D-02 0.608D-01 0.174D+00 0.764D+00
 Coeff-En:   0.000D+00 0.000D+00 0.000D+00 0.000D+00 0.100D+01
 Coeff:     -0.676D-02 0.854D-02 0.607D-01 0.173D+00 0.764D+00
 Gap=     0.408 Goal=   None    Shift=    0.000
 RMSDP=6.37D-06 MaxDP=1.96D-04 DE=-3.02D-04 OVMax= 5.61D-04

 Initial convergence to 1.0D-05 achieved.  Increase integral accuracy.
 Cycle   6  Pass 1  IDiag  1:
 E= -115.542938906265     Delta-E=       -0.000007179709 Rises=F Damp=F
 DIIS: error= 2.20D-05 at cycle   1 NSaved=   1.
 NSaved= 1 IEnMin= 1 EnMin= -115.542938906265     IErMin= 1 ErrMin= 2.20D-05
 ErrMax= 2.20D-05  0.00D+00 EMaxC= 1.00D-01 BMatC= 7.07D-08 BMatP= 7.07D-08
 IDIUse=1 WtCom= 1.00D+00 WtEn= 0.00D+00
 Coeff-Com:  0.100D+01
 Coeff:      0.100D+01
 Gap=     0.408 Goal=   None    Shift=    0.000
 RMSDP=6.37D-06 MaxDP=1.96D-04 DE=-7.18D-06 OVMax= 9.46D-05

 Cycle   7  Pass 1  IDiag  1:
 E= -115.542938997532     Delta-E=       -0.000000091267 Rises=F Damp=F
 DIIS: error= 5.41D-06 at cycle   2 NSaved=   2.
 NSaved= 2 IEnMin= 2 EnMin= -115.542938997532     IErMin= 2 ErrMin= 5.41D-06
 ErrMax= 5.41D-06  0.00D+00 EMaxC= 1.00D-01 BMatC= 4.04D-09 BMatP= 7.07D-08
 IDIUse=1 WtCom= 1.00D+00 WtEn= 0.00D+00
 Coeff-Com: -0.435D-01 0.104D+01
 Coeff:     -0.435D-01 0.104D+01
 Gap=     0.408 Goal=   None    Shift=    0.000
 RMSDP=4.18D-07 MaxDP=1.13D-05 DE=-9.13D-08 OVMax= 3.88D-05

 Cycle   8  Pass 1  IDiag  1:
 E= -115.542939004299     Delta-E=       -0.000000006767 Rises=F Damp=F
 DIIS: error= 3.43D-06 at cycle   3 NSaved=   3.
 NSaved= 3 IEnMin= 3 EnMin= -115.542939004299     IErMin= 3 ErrMin= 3.43D-06
 ErrMax= 3.43D-06  0.00D+00 EMaxC= 1.00D-01 BMatC= 1.39D-09 BMatP= 4.04D-09
 IDIUse=1 WtCom= 1.00D+00 WtEn= 0.00D+00
 Coeff-Com: -0.737D-01 0.334D+00 0.740D+00
 Coeff:     -0.737D-01 0.334D+00 0.740D+00
 Gap=     0.408 Goal=   None    Shift=    0.000
 RMSDP=1.11D-07 MaxDP=3.90D-06 DE=-6.77D-09 OVMax= 1.34D-05

 Cycle   9  Pass 1  IDiag  1:
 E= -115.542939005490     Delta-E=       -0.000000001192 Rises=F Damp=F
 DIIS: error= 9.30D-07 at cycle   4 NSaved=   4.
 NSaved= 4 IEnMin= 4 EnMin= -115.542939005490     IErMin= 4 ErrMin= 9.30D-07
 ErrMax= 9.30D-07  0.00D+00 EMaxC= 1.00D-01 BMatC= 2.00D-10 BMatP= 1.39D-09
 IDIUse=1 WtCom= 1.00D+00 WtEn= 0.00D+00
 Coeff-Com: -0.215D-01-0.690D-02 0.285D+00 0.743D+00
 Coeff:     -0.215D-01-0.690D-02 0.285D+00 0.743D+00
 Gap=     0.408 Goal=   None    Shift=    0.000
 RMSDP=4.10D-08 MaxDP=1.65D-06 DE=-1.19D-09 OVMax= 5.49D-06

 Cycle  10  Pass 1  IDiag  1:
 E= -115.542939005651     Delta-E=       -0.000000000160 Rises=F Damp=F
 DIIS: error= 2.23D-07 at cycle   5 NSaved=   5.
 NSaved= 5 IEnMin= 5 EnMin= -115.542939005651     IErMin= 5 ErrMin= 2.23D-07
 ErrMax= 2.23D-07  0.00D+00 EMaxC= 1.00D-01 BMatC= 8.30D-12 BMatP= 2.00D-10
 IDIUse=1 WtCom= 1.00D+00 WtEn= 0.00D+00
 Coeff-Com: -0.231D-03-0.276D-01 0.267D-01 0.184D+00 0.817D+00
 Coeff:     -0.231D-03-0.276D-01 0.267D-01 0.184D+00 0.817D+00
 Gap=     0.408 Goal=   None    Shift=    0.000
 RMSDP=9.55D-09 MaxDP=3.35D-07 DE=-1.60D-10 OVMax= 1.11D-06

 SCF Done:  E(RB2PLYPD3) =  -115.542939006     A.U. after   10 cycles
            NFock= 10  Conv=0.95D-08     -V/T= 2.0020
 KE= 1.153123237008D+02 PE=-3.531962269012D+02 EE= 8.151296225970D+01
 Leave Link  502 at Wed Aug 26 18:51:57 2020, MaxMem=  2097152000 cpu:        68.2
 (Enter /opt/cluster/programs/g09/g09_d.01/g09/l801.exe)
 DoSCS=T DFT=T ScalE2(SS,OS)=  0.270000  0.270000
 ExpMin= 7.60D-02 ExpMax= 1.17D+05 ExpMxC= 1.13D+03 IAcc=3 IRadAn=         5 AccDes= 0.00D+00
 HarFok:  IExCor=  205 AccDes= 0.00D+00 IRadAn=         5 IDoV=-2 UseB2=F ITyADJ=14
 ICtDFT= 12500011 ScaDFX=  1.000000  1.000000  1.000000  1.000000
 Largest valence mixing into a core orbital is  1.18D-04
 Largest core mixing into a valence orbital is  1.50D-05
 Range of M.O.s used for correlation:     3   234
 NBasis=   234 NAE=     9 NBE=     9 NFC=     2 NFV=     0
 NROrb=    232 NOA=     7 NOB=     7 NVA=   225 NVB=   225

 **** Warning!!: The largest alpha MO coefficient is  0.24831714D+02

 Leave Link  801 at Wed Aug 26 18:51:57 2020, MaxMem=  2097152000 cpu:         0.7
 (Enter /opt/cluster/programs/g09/g09_d.01/g09/l906.exe)
 DoSCS=T DFT=T ScalE2(SS,OS)=  0.270000  0.270000
 FulOut=F Deriv=F AODrv=F NAtomX=     6
   MMem=        3646  MDisk=           7 MDiskD=           7
  W3Min=      447300 MinDsk=     1090093 NBas6D=         284
 NBas2D=       41310    NTT=       40470    LW2=     4508827
    MDV=  2096872436 MDiskM=       16391 NBas2p=       41304
 Fully in-core method, ICMem=  1722292712.
 IMap=   1   2   3   4   5   6   7
 JobTyp=1 Pass  1 fully in-core, NPsUse=  8.
 Compute canonical integrals.
 FoFCou: FMM=F IPFlag=           0 FMFlag=           0 FMFlg1=           0
         NFxFlg=           0 DoJE=F BraDBF=F KetDBF=F FulRan=T
         wScrn=  0.000000 ICntrl=     600 IOpCl=  1 I1Cent=           0 NGrid=           0
         NMat0=    1 NMatS0=  41310 NMatT0=    0 NMatD0=    1 NMtDS0=    0 NMtDT0=    0
 Symmetry not used in FoFCou.
 Spin components of T(2) and E(2):
     alpha-alpha T2 =       0.2013378739D-01 E2=     -0.1650097645D-01
     alpha-beta  T2 =       0.1281088044D+00 E2=     -0.1127541095D+00
     beta-beta   T2 =       0.2013378739D-01 E2=     -0.1650097645D-01
 The integrals were generated   1 times.
 E2(B2PLYPD3) =    -0.1457560624D+00 E(B2PLYPD3) =    -0.11568869506810D+03
 Leave Link  906 at Wed Aug 26 18:52:18 2020, MaxMem=  2097152000 cpu:       165.8
 (Enter /opt/cluster/programs/g09/g09_d.01/g09/l601.exe)
 Copying SCF densities to generalized density rwf, IOpCl= 0 IROHF=0.

 **********************************************************************

            Population analysis using the SCF density.

 **********************************************************************

 Orbital symmetries:
       Occupied  (A) (A) (A) (A) (A) (A) (A) (A) (A)
       Virtual   (A) (A) (A) (A) (A) (A) (A) (A) (A) (A) (A) (A)
                 (A) (A) (A) (A) (A) (A) (A) (A) (A) (A) (A) (A)
                 (A) (A) (A) (A) (A) (A) (A) (A) (A) (A) (A) (A)
                 (A) (A) (A) (A) (A) (A) (A) (A) (A) (A) (A) (A)
                 (A) (A) (A) (A) (A) (A) (A) (A) (A) (A) (A) (A)
                 (A) (A) (A) (A) (A) (A) (A) (A) (A) (A) (A) (A)
                 (A) (A) (A) (A) (A) (A) (A) (A) (A) (A) (A) (A)
                 (A) (A) (A) (A) (A) (A) (A) (A) (A) (A) (A) (A)
                 (A) (A) (A) (A) (A) (A) (A) (A) (A) (A) (A) (A)
                 (A) (A) (A) (A) (A) (A) (A) (A) (A) (A) (A) (A)
                 (A) (A) (A) (A) (A) (A) (A) (A) (A) (A) (A) (A)
                 (A) (A) (A) (A) (A) (A) (A) (A) (A) (A) (A) (A)
                 (A) (A) (A) (A) (A) (A) (A) (A) (A) (A) (A) (A)
                 (A) (A) (A) (A) (A) (A) (A) (A) (A) (A) (A) (A)
                 (A) (A) (A) (A) (A) (A) (A) (A) (A) (A) (A) (A)
                 (A) (A) (A) (A) (A) (A) (A) (A) (A) (A) (A) (A)
                 (A) (A) (A) (A) (A) (A) (A) (A) (A) (A) (A) (A)
                 (A) (A) (A) (A) (A) (A) (A) (A) (A) (A) (A) (A)
                 (A) (A) (A) (A) (A) (A) (A) (A) (A)
 The electronic state is 1-A.
 Alpha  occ. eigenvalues --  -19.71853 -10.66505  -1.19013  -0.79069  -0.60298
 Alpha  occ. eigenvalues --   -0.51854  -0.50162  -0.40995  -0.35529
 Alpha virt. eigenvalues --    0.05266   0.08604   0.12231   0.12309   0.14821
 Alpha virt. eigenvalues --    0.17338   0.18003   0.28988   0.33036   0.34029
 Alpha virt. eigenvalues --    0.36992   0.38548   0.39845   0.40492   0.43342
 Alpha virt. eigenvalues --    0.46805   0.52907   0.56126   0.59676   0.67040
 Alpha virt. eigenvalues --    0.70960   0.72444   0.75385   0.78990   0.80633
 Alpha virt. eigenvalues --    0.82540   0.86213   0.87523   0.93631   0.96618
 Alpha virt. eigenvalues --    1.01433   1.01814   1.03907   1.09936   1.11424
 Alpha virt. eigenvalues --    1.12342   1.19244   1.22888   1.28608   1.40066
 Alpha virt. eigenvalues --    1.40457   1.42364   1.43998   1.47326   1.50994
 Alpha virt. eigenvalues --    1.78129   1.81315   1.84936   1.87423   1.89145
 Alpha virt. eigenvalues --    1.92006   1.95127   1.96563   1.98952   2.03735
 Alpha virt. eigenvalues --    2.06316   2.14234   2.18839   2.21101   2.22422
 Alpha virt. eigenvalues --    2.25299   2.29924   2.31422   2.37565   2.38974
 Alpha virt. eigenvalues --    2.44896   2.48983   2.56590   2.62901   2.63476
 Alpha virt. eigenvalues --    2.65575   2.69031   2.69818   2.79256   2.82909
 Alpha virt. eigenvalues --    2.85734   2.89245   2.93612   2.94964   2.95675
 Alpha virt. eigenvalues --    2.97300   3.07377   3.09030   3.10691   3.21644
 Alpha virt. eigenvalues --    3.24317   3.28370   3.35309   3.37257   3.43441
 Alpha virt. eigenvalues --    3.49350   3.62019   3.68571   3.83960   3.87304
 Alpha virt. eigenvalues --    3.90906   4.01685   4.03432   4.04852   4.14919
 Alpha virt. eigenvalues --    4.22906   4.25779   4.27397   4.37819   4.57749
 Alpha virt. eigenvalues --    4.58289   4.67872   4.72366   4.89761   5.24521
 Alpha virt. eigenvalues --    5.39966   5.46542   5.50685   5.60323   5.62248
 Alpha virt. eigenvalues --    5.71483   5.73905   5.83696   5.85302   5.89514
 Alpha virt. eigenvalues --    5.91601   5.95629   6.02978   6.03521   6.17685
 Alpha virt. eigenvalues --    6.18131   6.23262   6.28546   6.30001   6.31168
 Alpha virt. eigenvalues --    6.31778   6.36254   6.38188   6.46604   6.50397
 Alpha virt. eigenvalues --    6.56302   6.64691   6.68498   6.77449   6.93229
 Alpha virt. eigenvalues --    6.94110   7.02030   7.08441   7.17802   7.19200
 Alpha virt. eigenvalues --    7.26049   7.32326   7.35936   7.38969   7.41484
 Alpha virt. eigenvalues --    7.50931   7.51836   7.55721   7.62075   7.69420
 Alpha virt. eigenvalues --    7.73842   7.74983   7.78071   7.79741   7.88729
 Alpha virt. eigenvalues --    7.90375   7.91815   7.96562   7.98181   8.14147
 Alpha virt. eigenvalues --    8.17793   8.29744   8.35575   8.38833   8.43998
 Alpha virt. eigenvalues --    8.45852   8.47092   8.49087   8.50708   8.54069
 Alpha virt. eigenvalues --    8.57156   8.74968   8.85447   8.87117   8.91841
 Alpha virt. eigenvalues --    8.92740   9.00826   9.06823   9.25428   9.37829
 Alpha virt. eigenvalues --    9.52523   9.54309   9.60430   9.67380   9.76917
 Alpha virt. eigenvalues --    9.79578   9.85979   9.88352   9.97450  10.11641
 Alpha virt. eigenvalues --   10.21373  10.22735  10.33224  10.44858  10.68801
 Alpha virt. eigenvalues --   11.03322  11.07798  11.23185  11.57194  11.64757
 Alpha virt. eigenvalues --   11.80914  11.86265  12.02602  12.07900  12.12254
 Alpha virt. eigenvalues --   12.35547  12.47428  12.70094  12.84883  13.05305
 Alpha virt. eigenvalues --   13.20847  13.53168  14.65250  14.87521  15.00046
 Alpha virt. eigenvalues --   17.08904  29.16125  49.00983 148.73828 254.81202
          Condensed to atoms (all electrons):
               1          2          3          4          5          6
     1  C    4.449408   0.273345   0.427395   0.435388   0.397299  -0.046350
     2  O    0.273345   7.926442  -0.048371  -0.055124  -0.035859   0.343727
     3  H    0.427395  -0.048371   0.669522  -0.051181  -0.039008  -0.005970
     4  H    0.435388  -0.055124  -0.051181   0.666761  -0.035104  -0.004950
     5  H    0.397299  -0.035859  -0.039008  -0.035104   0.634059   0.009409
     6  H   -0.046350   0.343727  -0.005970  -0.004950   0.009409   0.524515
 Mulliken charges:
               1
     1  C    0.063514
     2  O   -0.404160
     3  H    0.047613
     4  H    0.044210
     5  H    0.069204
     6  H    0.179619
 Sum of Mulliken charges =   0.00000
 Mulliken charges with hydrogens summed into heavy atoms:
               1
     1  C    0.224541
     2  O   -0.224541
 Electronic spatial extent (au):  <R**2>=             83.9731
 Charge=              0.0000 electrons
 Dipole moment (field-independent basis, Debye):
    X=             -0.8300    Y=             -1.4142    Z=              0.1576  Tot=              1.6473
 Quadrupole moment (field-independent basis, Debye-Ang):
   XX=            -13.1028   YY=            -12.3785   ZZ=            -13.7478
   XY=             -2.1474   XZ=              0.1075   YZ=             -0.0944
 Traceless Quadrupole moment (field-independent basis, Debye-Ang):
   XX=             -0.0264   YY=              0.6979   ZZ=             -0.6714
   XY=             -2.1474   XZ=              0.1075   YZ=             -0.0944
 Octapole moment (field-independent basis, Debye-Ang**2):
  XXX=              4.6623  YYY=             -0.4151  ZZZ=              0.2282  XYY=              1.6923
  XXY=             -2.1312  XXZ=              0.3535  XZZ=              0.5043  YZZ=             -0.6976
  YYZ=             -0.0475  XYZ=             -0.1349
 Hexadecapole moment (field-independent basis, Debye-Ang**3):
 XXXX=            -62.0454 YYYY=            -20.7297 ZZZZ=            -20.6815 XXXY=             -3.8265
 XXXZ=              0.0423 YYYX=             -2.9389 YYYZ=             -0.1461 ZZZX=             -0.1522
 ZZZY=             -0.0422 XXYY=            -12.9178 XXZZ=            -14.5039 YYZZ=             -7.0140
 XXYZ=             -0.2185 YYXZ=              0.2300 ZZXY=              0.1161
 N-N= 4.082800193514D+01 E-N=-3.531961957450D+02  KE= 1.153123237008D+02
 Leave Link  601 at Wed Aug 26 18:52:18 2020, MaxMem=  2097152000 cpu:         0.3
 (Enter /opt/cluster/programs/g09/g09_d.01/g09/l9999.exe)
 1\1\GINC-NODE40\SP\RB2PLYPD3-FC\def2QZVP\C1H4O1\BOITTIER\26-Aug-2020\0
 \\#p B2PLYPD3/Def2QZVP\\methanol\\0,1\C,0,-5.167557,-1.256947,0.916094
 \O,0,-3.772206,-1.122697,0.853606\H,0,-5.535863,-2.231074,0.556313\H,0
 ,-5.667592,-0.440037,0.324593\H,0,-5.479126,-1.177199,1.993401\H,0,-3.
 515379,-1.196671,0.027915\\Version=ES64L-G09RevD.01\State=1-A\HF=-115.
 542939\MP2=-115.6886951\RMSD=9.550e-09\PG=C01 [X(C1H4O1)]\\@


 MARY HAD A LITTLE LAMB
      HIS FEET WERE BLACK AS SOOT,
           AND EVERYWHERE THAT MARY WENT
                HIS SOOTY FOOT HE PUT.

                    -- NONAME
 Job cpu time:       0 days  0 hours  4 minutes  1.8 seconds.
 File lengths (MBytes):  RWF=     23 Int=      0 D2E=      0 Chk=      4 Scr=      1
 Normal termination of Gaussian 09 at Wed Aug 26 18:52:18 2020.
