 Entering Gaussian System, Link 0=/opt/cluster/programs/g09/g09_d.01/g09//g09
 Input=/home/boittier/MDCM/nms_sampling/methanol_geom.xyz.dir/energies/methanol_225_energy.com
 Output=/scratch/boittier/methanol_225_energy/methanol_225_energy.out
 Initial command:
 /opt/cluster/programs/g09/g09_d.01/g09/l1.exe "/scratch/boittier/methanol_225_energy/Gau-141831.inp" -scrdir="/scratch/boittier/methanol_225_energy/"
 Entering Link 1 = /opt/cluster/programs/g09/g09_d.01/g09/l1.exe PID=    141832.
  
 Copyright (c) 1988,1990,1992,1993,1995,1998,2003,2009,2013,
            Gaussian, Inc.  All Rights Reserved.
  
 This is part of the Gaussian(R) 09 program.  It is based on
 the Gaussian(R) 03 system (copyright 2003, Gaussian, Inc.),
 the Gaussian(R) 98 system (copyright 1998, Gaussian, Inc.),
 the Gaussian(R) 94 system (copyright 1995, Gaussian, Inc.),
 the Gaussian 92(TM) system (copyright 1992, Gaussian, Inc.),
 the Gaussian 90(TM) system (copyright 1990, Gaussian, Inc.),
 the Gaussian 88(TM) system (copyright 1988, Gaussian, Inc.),
 the Gaussian 86(TM) system (copyright 1986, Carnegie Mellon
 University), and the Gaussian 82(TM) system (copyright 1983,
 Carnegie Mellon University). Gaussian is a federally registered
 trademark of Gaussian, Inc.
  
 This software contains proprietary and confidential information,
 including trade secrets, belonging to Gaussian, Inc.
  
 This software is provided under written license and may be
 used, copied, transmitted, or stored only in accord with that
 written license.
  
 The following legend is applicable only to US Government
 contracts under FAR:
  
                    RESTRICTED RIGHTS LEGEND
  
 Use, reproduction and disclosure by the US Government is
 subject to restrictions as set forth in subparagraphs (a)
 and (c) of the Commercial Computer Software - Restricted
 Rights clause in FAR 52.227-19.
  
 Gaussian, Inc.
 340 Quinnipiac St., Bldg. 40, Wallingford CT 06492
  
  
 ---------------------------------------------------------------
 Warning -- This program may not be used in any manner that
 competes with the business of Gaussian, Inc. or will provide
 assistance to any competitor of Gaussian, Inc.  The licensee
 of this program is prohibited from giving any competitor of
 Gaussian, Inc. access to this program.  By using this program,
 the user acknowledges that Gaussian, Inc. is engaged in the
 business of creating and licensing software in the field of
 computational chemistry and represents and warrants to the
 licensee that it is not a competitor of Gaussian, Inc. and that
 it will not use this program in any manner prohibited above.
 ---------------------------------------------------------------
  

 Cite this work as:
 Gaussian 09, Revision D.01,
 M. J. Frisch, G. W. Trucks, H. B. Schlegel, G. E. Scuseria, 
 M. A. Robb, J. R. Cheeseman, G. Scalmani, V. Barone, B. Mennucci, 
 G. A. Petersson, H. Nakatsuji, M. Caricato, X. Li, H. P. Hratchian, 
 A. F. Izmaylov, J. Bloino, G. Zheng, J. L. Sonnenberg, M. Hada, 
 M. Ehara, K. Toyota, R. Fukuda, J. Hasegawa, M. Ishida, T. Nakajima, 
 Y. Honda, O. Kitao, H. Nakai, T. Vreven, J. A. Montgomery, Jr., 
 J. E. Peralta, F. Ogliaro, M. Bearpark, J. J. Heyd, E. Brothers, 
 K. N. Kudin, V. N. Staroverov, T. Keith, R. Kobayashi, J. Normand, 
 K. Raghavachari, A. Rendell, J. C. Burant, S. S. Iyengar, J. Tomasi, 
 M. Cossi, N. Rega, J. M. Millam, M. Klene, J. E. Knox, J. B. Cross, 
 V. Bakken, C. Adamo, J. Jaramillo, R. Gomperts, R. E. Stratmann, 
 O. Yazyev, A. J. Austin, R. Cammi, C. Pomelli, J. W. Ochterski, 
 R. L. Martin, K. Morokuma, V. G. Zakrzewski, G. A. Voth, 
 P. Salvador, J. J. Dannenberg, S. Dapprich, A. D. Daniels, 
 O. Farkas, J. B. Foresman, J. V. Ortiz, J. Cioslowski, 
 and D. J. Fox, Gaussian, Inc., Wallingford CT, 2013.
 
 ******************************************
 Gaussian 09:  ES64L-G09RevD.01 24-Apr-2013
                26-Aug-2020 
 ******************************************
 %chk=/home/boittier/MDCM/nms_sampling/methanol_geom.xyz.dir/methanol_225.chk
 %nproc=8
 Will use up to    8 processors via shared memory.
 %mem=16000MB
 --------------------
 #p B2PLYPD3/Def2QZVP
 --------------------
 1/38=1/1;
 2/12=2,17=6,18=5,40=1/2;
 3/5=45,7=101,11=9,16=1,25=1,30=1,74=-60/1,2,3;
 4//1;
 5/5=2,38=5/2;
 8/10=1/1;
 9/16=-3/6;
 6/7=2,8=2,9=2,10=2/1;
 99/5=1,9=1/99;
 Leave Link    1 at Wed Aug 26 16:01:46 2020, MaxMem=  2097152000 cpu:         0.2
 (Enter /opt/cluster/programs/g09/g09_d.01/g09/l101.exe)
 --------
 methanol
 --------
 Symbolic Z-matrix:
 Charge =  0 Multiplicity = 1
 C                    -5.17058  -1.25244   0.91361 
 O                    -3.77258  -1.12266   0.87263 
 H                    -5.50655  -2.21372   0.57364 
 H                    -5.68993  -0.51212   0.36918 
 H                    -5.47758  -1.15659   1.88866 
 H                    -3.48778  -1.21276  -0.20944 
 
 NAtoms=      6 NQM=        6 NQMF=       0 NMMI=      0 NMMIF=      0
                NMic=       0 NMicF=      0.
                    Isotopes and Nuclear Properties:
 (Nuclear quadrupole moments (NQMom) in fm**2, nuclear magnetic moments (NMagM)
  in nuclear magnetons)

  Atom         1           2           3           4           5           6
 IAtWgt=          12          16           1           1           1           1
 AtmWgt=  12.0000000  15.9949146   1.0078250   1.0078250   1.0078250   1.0078250
 NucSpn=           0           0           1           1           1           1
 AtZEff=   0.0000000   0.0000000   0.0000000   0.0000000   0.0000000   0.0000000
 NQMom=    0.0000000   0.0000000   0.0000000   0.0000000   0.0000000   0.0000000
 NMagM=    0.0000000   0.0000000   2.7928460   2.7928460   2.7928460   2.7928460
 AtZNuc=   6.0000000   8.0000000   1.0000000   1.0000000   1.0000000   1.0000000
 Leave Link  101 at Wed Aug 26 16:01:46 2020, MaxMem=  2097152000 cpu:         0.5
 (Enter /opt/cluster/programs/g09/g09_d.01/g09/l202.exe)
                          Input orientation:                          
 ---------------------------------------------------------------------
 Center     Atomic      Atomic             Coordinates (Angstroms)
 Number     Number       Type             X           Y           Z
 ---------------------------------------------------------------------
      1          6           0       -5.170579   -1.252436    0.913605
      2          8           0       -3.772575   -1.122662    0.872626
      3          1           0       -5.506547   -2.213719    0.573640
      4          1           0       -5.689933   -0.512123    0.369175
      5          1           0       -5.477584   -1.156588    1.888664
      6          1           0       -3.487780   -1.212756   -0.209440
 ---------------------------------------------------------------------
                    Distance matrix (angstroms):
                    1          2          3          4          5
     1  C    0.000000
     2  O    1.404612   0.000000
     3  H    1.073553   2.070376   0.000000
     4  H    1.055555   2.074243   1.723620   0.000000
     5  H    1.026732   1.985079   1.687499   1.664114   0.000000
     6  H    2.023516   1.122538   2.385490   2.382259   2.892147
                    6
     6  H    0.000000
 Stoichiometry    CH4O
 Framework group  C1[X(CH4O)]
 Deg. of freedom    12
 Full point group                 C1      NOp   1
 Largest Abelian subgroup         C1      NOp   1
 Largest concise Abelian subgroup C1      NOp   1
                         Standard orientation:                         
 ---------------------------------------------------------------------
 Center     Atomic      Atomic             Coordinates (Angstroms)
 Number     Number       Type             X           Y           Z
 ---------------------------------------------------------------------
      1          6           0        0.656390    0.022012   -0.002317
      2          8           0       -0.738045   -0.146693    0.002824
      3          1           0        1.013319    0.539258    0.868071
      4          1           0        1.028806    0.519810   -0.855370
      5          1           0        1.096171   -0.905761    0.000483
      6          1           0       -1.172276    0.888163   -0.021874
 ---------------------------------------------------------------------
 Rotational constants (GHZ):    127.8537872     25.2587655     24.1047634
 Leave Link  202 at Wed Aug 26 16:01:46 2020, MaxMem=  2097152000 cpu:         0.0
 (Enter /opt/cluster/programs/g09/g09_d.01/g09/l301.exe)
 Standard basis: def2QZVP (5D, 7F)
 Ernie: Thresh=  0.10000D-02 Tol=  0.10000D-05 Strict=F.
 There are   284 symmetry adapted cartesian basis functions of A   symmetry.
 There are   234 symmetry adapted basis functions of A   symmetry.
   234 basis functions,   336 primitive gaussians,   284 cartesian basis functions
     9 alpha electrons        9 beta electrons
       nuclear repulsion energy        40.2657496584 Hartrees.
 IExCor=  419 DFT=T Ex+Corr=B2PLYPD3 ExCW=0 ScaHFX=  0.530000
 ScaDFX=  0.470000  0.470000  0.730000  0.730000 ScalE2=  0.270000  0.270000
 IRadAn=      0 IRanWt=     -1 IRanGd=            0 ICorTp=0 IEmpDi=141
 NAtoms=    6 NActive=    6 NUniq=    6 SFac= 1.00D+00 NAtFMM=   60 NAOKFM=F Big=F
 Integral buffers will be    131072 words long.
 Regular integral format.
 Two-electron integral symmetry is turned on.
 R6Disp:  Grimme-D3(BJ) Dispersion energy=       -0.0013101242 Hartrees.
 Nuclear repulsion after empirical dispersion term =       40.2644395342 Hartrees.
 Leave Link  301 at Wed Aug 26 16:01:46 2020, MaxMem=  2097152000 cpu:         0.5
 (Enter /opt/cluster/programs/g09/g09_d.01/g09/l302.exe)
 NPDir=0 NMtPBC=     1 NCelOv=     1 NCel=       1 NClECP=     1 NCelD=      1
         NCelK=      1 NCelE2=     1 NClLst=     1 CellRange=     0.0.
 One-electron integrals computed using PRISM.
   1 Symmetry operations used in ECPInt.
 ECPInt:  NShTT=    2775 NPrTT=    6207 LenC2=    2774 LenP2D=    5739.
 LDataN:  DoStor=T MaxTD1= 8 Len=  415
 NBasis=   234 RedAO= T EigKep=  1.06D-04  NBF=   234
 NBsUse=   234 1.00D-06 EigRej= -1.00D+00 NBFU=   234
 Precomputing XC quadrature grid using
 IXCGrd= 4 IRadAn=           0 IRanWt=          -1 IRanGd=           0 AccXCQ= 0.00D+00.
 Generated NRdTot=       0 NPtTot=           0 NUsed=           0 NTot=          32
 NSgBfM=   284   284   284   284   284 MxSgAt=     6 MxSgA2=     6.
 Leave Link  302 at Wed Aug 26 16:01:47 2020, MaxMem=  2097152000 cpu:         1.8
 (Enter /opt/cluster/programs/g09/g09_d.01/g09/l303.exe)
 DipDrv:  MaxL=1.
 Leave Link  303 at Wed Aug 26 16:01:47 2020, MaxMem=  2097152000 cpu:         0.2
 (Enter /opt/cluster/programs/g09/g09_d.01/g09/l401.exe)
 ExpMin= 7.60D-02 ExpMax= 1.17D+05 ExpMxC= 1.13D+03 IAcc=2 IRadAn=         4 AccDes= 0.00D+00
 Harris functional with IExCor=  419 and IRadAn=       4 diagonalized for initial guess.
 HarFok:  IExCor=  419 AccDes= 0.00D+00 IRadAn=         4 IDoV= 1 UseB2=F ITyADJ=14
 ICtDFT=  3500011 ScaDFX=  1.000000  1.000000  1.000000  1.000000
 FoFCou: FMM=F IPFlag=           0 FMFlag=      100000 FMFlg1=           0
         NFxFlg=           0 DoJE=T BraDBF=F KetDBF=T FulRan=T
         wScrn=  0.000000 ICntrl=     500 IOpCl=  0 I1Cent=   200000004 NGrid=           0
         NMat0=    1 NMatS0=      1 NMatT0=    0 NMatD0=    1 NMtDS0=    0 NMtDT0=    0
 Petite list used in FoFCou.
 Harris En= -115.810306484561    
 JPrj=0 DoOrth=F DoCkMO=F.
 Leave Link  401 at Wed Aug 26 16:01:47 2020, MaxMem=  2097152000 cpu:         3.3
 (Enter /opt/cluster/programs/g09/g09_d.01/g09/l502.exe)
 Closed shell SCF:
 Using DIIS extrapolation, IDIIS=  1040.
 Integral symmetry usage will be decided dynamically.
 Keep R1 ints in memory in canonical form, NReq=389840494.
 IVT=      264814 IEndB=      264814 NGot=  2097152000 MDV=  1718885927
 LenX=  1718885927 LenY=  1718804830
 Requested convergence on RMS density matrix=1.00D-08 within 128 cycles.
 Requested convergence on MAX density matrix=1.00D-06.
 Requested convergence on             energy=1.00D-06.
 No special actions if energy rises.
 FoFCou: FMM=F IPFlag=           0 FMFlag=           0 FMFlg1=           0
         NFxFlg=           0 DoJE=F BraDBF=F KetDBF=F FulRan=T
         wScrn=  0.000000 ICntrl=     600 IOpCl=  0 I1Cent=           0 NGrid=           0
         NMat0=    1 NMatS0=  27495 NMatT0=    0 NMatD0=    1 NMtDS0=    0 NMtDT0=    0
 Symmetry not used in FoFCou.
 Integral accuracy reduced to 1.0D-05 until final iterations.

 Cycle   1  Pass 0  IDiag  1:
 E= -115.419859180149    
 DIIS: error= 3.10D-02 at cycle   1 NSaved=   1.
 NSaved= 1 IEnMin= 1 EnMin= -115.419859180149     IErMin= 1 ErrMin= 3.10D-02
 ErrMax= 3.10D-02  0.00D+00 EMaxC= 1.00D-01 BMatC= 1.80D-01 BMatP= 1.80D-01
 IDIUse=3 WtCom= 6.90D-01 WtEn= 3.10D-01
 Coeff-Com:  0.100D+01
 Coeff-En:   0.100D+01
 Coeff:      0.100D+01
 Gap=     0.294 Goal=   None    Shift=    0.000
 GapD=    0.294 DampG=1.000 DampE=0.500 DampFc=0.5000 IDamp=-1.
 Damping current iteration by 5.00D-01
 RMSDP=1.39D-03 MaxDP=4.56D-02              OVMax= 1.49D-01

 Cycle   2  Pass 0  IDiag  1:
 E= -115.472468185447     Delta-E=       -0.052609005297 Rises=F Damp=T
 DIIS: error= 1.19D-02 at cycle   2 NSaved=   2.
 NSaved= 2 IEnMin= 2 EnMin= -115.472468185447     IErMin= 2 ErrMin= 1.19D-02
 ErrMax= 1.19D-02  0.00D+00 EMaxC= 1.00D-01 BMatC= 1.98D-02 BMatP= 1.80D-01
 IDIUse=3 WtCom= 8.81D-01 WtEn= 1.19D-01
 Coeff-Com: -0.115D+00 0.111D+01
 Coeff-En:   0.000D+00 0.100D+01
 Coeff:     -0.101D+00 0.110D+01
 Gap=     0.403 Goal=   None    Shift=    0.000
 RMSDP=3.78D-04 MaxDP=1.07D-02 DE=-5.26D-02 OVMax= 8.75D-02

 Cycle   3  Pass 0  IDiag  1:
 E= -115.524102871527     Delta-E=       -0.051634686081 Rises=F Damp=F
 DIIS: error= 4.79D-03 at cycle   3 NSaved=   3.
 NSaved= 3 IEnMin= 3 EnMin= -115.524102871527     IErMin= 3 ErrMin= 4.79D-03
 ErrMax= 4.79D-03  0.00D+00 EMaxC= 1.00D-01 BMatC= 6.26D-03 BMatP= 1.98D-02
 IDIUse=3 WtCom= 9.52D-01 WtEn= 4.79D-02
 Coeff-Com: -0.140D+00 0.395D+00 0.745D+00
 Coeff-En:   0.000D+00 0.000D+00 0.100D+01
 Coeff:     -0.134D+00 0.377D+00 0.757D+00
 Gap=     0.386 Goal=   None    Shift=    0.000
 RMSDP=1.50D-04 MaxDP=6.12D-03 DE=-5.16D-02 OVMax= 1.97D-02

 Cycle   4  Pass 0  IDiag  1:
 E= -115.527711119235     Delta-E=       -0.003608247707 Rises=F Damp=F
 DIIS: error= 2.07D-03 at cycle   4 NSaved=   4.
 NSaved= 4 IEnMin= 4 EnMin= -115.527711119235     IErMin= 4 ErrMin= 2.07D-03
 ErrMax= 2.07D-03  0.00D+00 EMaxC= 1.00D-01 BMatC= 8.02D-04 BMatP= 6.26D-03
 IDIUse=3 WtCom= 9.79D-01 WtEn= 2.07D-02
 Coeff-Com: -0.497D-01 0.891D-01 0.338D+00 0.623D+00
 Coeff-En:   0.000D+00 0.000D+00 0.162D-01 0.984D+00
 Coeff:     -0.487D-01 0.872D-01 0.331D+00 0.630D+00
 Gap=     0.385 Goal=   None    Shift=    0.000
 RMSDP=4.61D-05 MaxDP=1.96D-03 DE=-3.61D-03 OVMax= 6.78D-03

 Cycle   5  Pass 0  IDiag  1:
 E= -115.528307074041     Delta-E=       -0.000595954806 Rises=F Damp=F
 DIIS: error= 1.82D-04 at cycle   5 NSaved=   5.
 NSaved= 5 IEnMin= 5 EnMin= -115.528307074041     IErMin= 5 ErrMin= 1.82D-04
 ErrMax= 1.82D-04  0.00D+00 EMaxC= 1.00D-01 BMatC= 6.99D-06 BMatP= 8.02D-04
 IDIUse=3 WtCom= 9.98D-01 WtEn= 1.82D-03
 Coeff-Com: -0.664D-02 0.740D-02 0.514D-01 0.147D+00 0.801D+00
 Coeff-En:   0.000D+00 0.000D+00 0.000D+00 0.000D+00 0.100D+01
 Coeff:     -0.662D-02 0.739D-02 0.513D-01 0.147D+00 0.801D+00
 Gap=     0.385 Goal=   None    Shift=    0.000
 RMSDP=7.17D-06 MaxDP=1.95D-04 DE=-5.96D-04 OVMax= 5.76D-04

 Initial convergence to 1.0D-05 achieved.  Increase integral accuracy.
 Cycle   6  Pass 1  IDiag  1:
 E= -115.528312395882     Delta-E=       -0.000005321841 Rises=F Damp=F
 DIIS: error= 1.70D-05 at cycle   1 NSaved=   1.
 NSaved= 1 IEnMin= 1 EnMin= -115.528312395882     IErMin= 1 ErrMin= 1.70D-05
 ErrMax= 1.70D-05  0.00D+00 EMaxC= 1.00D-01 BMatC= 1.11D-07 BMatP= 1.11D-07
 IDIUse=1 WtCom= 1.00D+00 WtEn= 0.00D+00
 Coeff-Com:  0.100D+01
 Coeff:      0.100D+01
 Gap=     0.385 Goal=   None    Shift=    0.000
 RMSDP=7.17D-06 MaxDP=1.95D-04 DE=-5.32D-06 OVMax= 1.64D-04

 Cycle   7  Pass 1  IDiag  1:
 E= -115.528312583040     Delta-E=       -0.000000187158 Rises=F Damp=F
 DIIS: error= 7.71D-06 at cycle   2 NSaved=   2.
 NSaved= 2 IEnMin= 2 EnMin= -115.528312583040     IErMin= 2 ErrMin= 7.71D-06
 ErrMax= 7.71D-06  0.00D+00 EMaxC= 1.00D-01 BMatC= 1.09D-08 BMatP= 1.11D-07
 IDIUse=1 WtCom= 1.00D+00 WtEn= 0.00D+00
 Coeff-Com: -0.253D-01 0.103D+01
 Coeff:     -0.253D-01 0.103D+01
 Gap=     0.385 Goal=   None    Shift=    0.000
 RMSDP=4.98D-07 MaxDP=2.35D-05 DE=-1.87D-07 OVMax= 8.09D-05

 Cycle   8  Pass 1  IDiag  1:
 E= -115.528312597533     Delta-E=       -0.000000014493 Rises=F Damp=F
 DIIS: error= 4.51D-06 at cycle   3 NSaved=   3.
 NSaved= 3 IEnMin= 3 EnMin= -115.528312597533     IErMin= 3 ErrMin= 4.51D-06
 ErrMax= 4.51D-06  0.00D+00 EMaxC= 1.00D-01 BMatC= 7.89D-09 BMatP= 1.09D-08
 IDIUse=1 WtCom= 1.00D+00 WtEn= 0.00D+00
 Coeff-Com: -0.112D+00 0.500D+00 0.612D+00
 Coeff:     -0.112D+00 0.500D+00 0.612D+00
 Gap=     0.385 Goal=   None    Shift=    0.000
 RMSDP=2.28D-07 MaxDP=1.09D-05 DE=-1.45D-08 OVMax= 3.08D-05

 Cycle   9  Pass 1  IDiag  1:
 E= -115.528312603494     Delta-E=       -0.000000005961 Rises=F Damp=F
 DIIS: error= 1.17D-06 at cycle   4 NSaved=   4.
 NSaved= 4 IEnMin= 4 EnMin= -115.528312603494     IErMin= 4 ErrMin= 1.17D-06
 ErrMax= 1.17D-06  0.00D+00 EMaxC= 1.00D-01 BMatC= 3.57D-10 BMatP= 7.89D-09
 IDIUse=1 WtCom= 1.00D+00 WtEn= 0.00D+00
 Coeff-Com: -0.332D-01 0.283D-01 0.185D+00 0.820D+00
 Coeff:     -0.332D-01 0.283D-01 0.185D+00 0.820D+00
 Gap=     0.385 Goal=   None    Shift=    0.000
 RMSDP=5.87D-08 MaxDP=2.50D-06 DE=-5.96D-09 OVMax= 1.03D-05

 Cycle  10  Pass 1  IDiag  1:
 E= -115.528312603853     Delta-E=       -0.000000000360 Rises=F Damp=F
 DIIS: error= 3.72D-07 at cycle   5 NSaved=   5.
 NSaved= 5 IEnMin= 5 EnMin= -115.528312603853     IErMin= 5 ErrMin= 3.72D-07
 ErrMax= 3.72D-07  0.00D+00 EMaxC= 1.00D-01 BMatC= 2.11D-11 BMatP= 3.57D-10
 IDIUse=1 WtCom= 1.00D+00 WtEn= 0.00D+00
 Coeff-Com: -0.159D-02-0.209D-01 0.669D-02 0.221D+00 0.795D+00
 Coeff:     -0.159D-02-0.209D-01 0.669D-02 0.221D+00 0.795D+00
 Gap=     0.385 Goal=   None    Shift=    0.000
 RMSDP=1.52D-08 MaxDP=4.58D-07 DE=-3.60D-10 OVMax= 1.97D-06

 Cycle  11  Pass 1  IDiag  1:
 E= -115.528312603873     Delta-E=       -0.000000000020 Rises=F Damp=F
 DIIS: error= 1.43D-07 at cycle   6 NSaved=   6.
 NSaved= 6 IEnMin= 6 EnMin= -115.528312603873     IErMin= 6 ErrMin= 1.43D-07
 ErrMax= 1.43D-07  0.00D+00 EMaxC= 1.00D-01 BMatC= 1.91D-12 BMatP= 2.11D-11
 IDIUse=1 WtCom= 1.00D+00 WtEn= 0.00D+00
 Coeff-Com:  0.245D-02-0.108D-01-0.161D-01 0.972D-02 0.251D+00 0.764D+00
 Coeff:      0.245D-02-0.108D-01-0.161D-01 0.972D-02 0.251D+00 0.764D+00
 Gap=     0.385 Goal=   None    Shift=    0.000
 RMSDP=4.67D-09 MaxDP=1.39D-07 DE=-2.02D-11 OVMax= 5.87D-07

 SCF Done:  E(RB2PLYPD3) =  -115.528312604     A.U. after   11 cycles
            NFock= 11  Conv=0.47D-08     -V/T= 2.0031
 KE= 1.151704458748D+02 PE=-3.521099619109D+02 EE= 8.114676389800D+01
 Leave Link  502 at Wed Aug 26 16:02:00 2020, MaxMem=  2097152000 cpu:        62.0
 (Enter /opt/cluster/programs/g09/g09_d.01/g09/l801.exe)
 DoSCS=T DFT=T ScalE2(SS,OS)=  0.270000  0.270000
 ExpMin= 7.60D-02 ExpMax= 1.17D+05 ExpMxC= 1.13D+03 IAcc=3 IRadAn=         5 AccDes= 0.00D+00
 HarFok:  IExCor=  205 AccDes= 0.00D+00 IRadAn=         5 IDoV=-2 UseB2=F ITyADJ=14
 ICtDFT= 12500011 ScaDFX=  1.000000  1.000000  1.000000  1.000000
 Largest valence mixing into a core orbital is  1.10D-04
 Largest core mixing into a valence orbital is  1.44D-05
 Range of M.O.s used for correlation:     3   234
 NBasis=   234 NAE=     9 NBE=     9 NFC=     2 NFV=     0
 NROrb=    232 NOA=     7 NOB=     7 NVA=   225 NVB=   225

 **** Warning!!: The largest alpha MO coefficient is  0.34928865D+02

 Leave Link  801 at Wed Aug 26 16:02:01 2020, MaxMem=  2097152000 cpu:         0.6
 (Enter /opt/cluster/programs/g09/g09_d.01/g09/l906.exe)
 DoSCS=T DFT=T ScalE2(SS,OS)=  0.270000  0.270000
 FulOut=F Deriv=F AODrv=F NAtomX=     6
   MMem=        3646  MDisk=           7 MDiskD=           7
  W3Min=      447300 MinDsk=     1090093 NBas6D=         284
 NBas2D=       41310    NTT=       40470    LW2=     4508827
    MDV=  2096872422 MDiskM=       16391 NBas2p=       41304
 Fully in-core method, ICMem=  1722292712.
 IMap=   1   2   3   4   5   6   7
 JobTyp=1 Pass  1 fully in-core, NPsUse=  8.
 Compute canonical integrals.
 FoFCou: FMM=F IPFlag=           0 FMFlag=           0 FMFlg1=           0
         NFxFlg=           0 DoJE=F BraDBF=F KetDBF=F FulRan=T
         wScrn=  0.000000 ICntrl=     600 IOpCl=  1 I1Cent=           0 NGrid=           0
         NMat0=    1 NMatS0=  41310 NMatT0=    0 NMatD0=    1 NMtDS0=    0 NMtDT0=    0
 Symmetry not used in FoFCou.
 Spin components of T(2) and E(2):
     alpha-alpha T2 =       0.2188141113D-01 E2=     -0.1704443944D-01
     alpha-beta  T2 =       0.1377041889D+00 E2=     -0.1156562919D+00
     beta-beta   T2 =       0.2188141113D-01 E2=     -0.1704443944D-01
 The integrals were generated   1 times.
 E2(B2PLYPD3) =    -0.1497451708D+00 E(B2PLYPD3) =    -0.11567805777465D+03
 Leave Link  906 at Wed Aug 26 16:02:16 2020, MaxMem=  2097152000 cpu:       121.3
 (Enter /opt/cluster/programs/g09/g09_d.01/g09/l601.exe)
 Copying SCF densities to generalized density rwf, IOpCl= 0 IROHF=0.

 **********************************************************************

            Population analysis using the SCF density.

 **********************************************************************

 Orbital symmetries:
       Occupied  (A) (A) (A) (A) (A) (A) (A) (A) (A)
       Virtual   (A) (A) (A) (A) (A) (A) (A) (A) (A) (A) (A) (A)
                 (A) (A) (A) (A) (A) (A) (A) (A) (A) (A) (A) (A)
                 (A) (A) (A) (A) (A) (A) (A) (A) (A) (A) (A) (A)
                 (A) (A) (A) (A) (A) (A) (A) (A) (A) (A) (A) (A)
                 (A) (A) (A) (A) (A) (A) (A) (A) (A) (A) (A) (A)
                 (A) (A) (A) (A) (A) (A) (A) (A) (A) (A) (A) (A)
                 (A) (A) (A) (A) (A) (A) (A) (A) (A) (A) (A) (A)
                 (A) (A) (A) (A) (A) (A) (A) (A) (A) (A) (A) (A)
                 (A) (A) (A) (A) (A) (A) (A) (A) (A) (A) (A) (A)
                 (A) (A) (A) (A) (A) (A) (A) (A) (A) (A) (A) (A)
                 (A) (A) (A) (A) (A) (A) (A) (A) (A) (A) (A) (A)
                 (A) (A) (A) (A) (A) (A) (A) (A) (A) (A) (A) (A)
                 (A) (A) (A) (A) (A) (A) (A) (A) (A) (A) (A) (A)
                 (A) (A) (A) (A) (A) (A) (A) (A) (A) (A) (A) (A)
                 (A) (A) (A) (A) (A) (A) (A) (A) (A) (A) (A) (A)
                 (A) (A) (A) (A) (A) (A) (A) (A) (A) (A) (A) (A)
                 (A) (A) (A) (A) (A) (A) (A) (A) (A) (A) (A) (A)
                 (A) (A) (A) (A) (A) (A) (A) (A) (A) (A) (A) (A)
                 (A) (A) (A) (A) (A) (A) (A) (A) (A)
 The electronic state is 1-A.
 Alpha  occ. eigenvalues --  -19.73810 -10.63920  -1.14146  -0.78601  -0.56886
 Alpha  occ. eigenvalues --   -0.52071  -0.50202  -0.40652  -0.35050
 Alpha virt. eigenvalues --    0.03455   0.07821   0.12601   0.12793   0.14912
 Alpha virt. eigenvalues --    0.17539   0.18326   0.28417   0.29793   0.33389
 Alpha virt. eigenvalues --    0.34680   0.39180   0.40527   0.41772   0.43689
 Alpha virt. eigenvalues --    0.46759   0.52920   0.55271   0.58115   0.66221
 Alpha virt. eigenvalues --    0.71789   0.73887   0.77268   0.79400   0.80547
 Alpha virt. eigenvalues --    0.82183   0.85110   0.88205   0.93275   0.93811
 Alpha virt. eigenvalues --    0.99275   0.99614   1.02349   1.07705   1.10663
 Alpha virt. eigenvalues --    1.13385   1.14423   1.20844   1.31350   1.41352
 Alpha virt. eigenvalues --    1.43057   1.46928   1.50043   1.50616   1.53215
 Alpha virt. eigenvalues --    1.75433   1.82462   1.84363   1.84973   1.87482
 Alpha virt. eigenvalues --    1.89976   1.95423   1.95962   1.98610   2.03412
 Alpha virt. eigenvalues --    2.08291   2.14592   2.17327   2.21963   2.24025
 Alpha virt. eigenvalues --    2.24168   2.26096   2.30949   2.33569   2.36932
 Alpha virt. eigenvalues --    2.43512   2.50517   2.53409   2.56038   2.60654
 Alpha virt. eigenvalues --    2.62917   2.65482   2.67996   2.71766   2.77687
 Alpha virt. eigenvalues --    2.83052   2.88022   2.90415   2.94499   3.02956
 Alpha virt. eigenvalues --    3.05542   3.08169   3.13719   3.19703   3.21644
 Alpha virt. eigenvalues --    3.31693   3.33403   3.39407   3.44273   3.51481
 Alpha virt. eigenvalues --    3.54615   3.72085   3.74281   3.88273   3.94011
 Alpha virt. eigenvalues --    3.99448   4.01140   4.04153   4.09831   4.19090
 Alpha virt. eigenvalues --    4.20400   4.26279   4.36073   4.36380   4.41944
 Alpha virt. eigenvalues --    4.47376   4.52568   4.63799   4.78819   5.10760
 Alpha virt. eigenvalues --    5.16699   5.37532   5.49817   5.50648   5.60448
 Alpha virt. eigenvalues --    5.61415   5.70839   5.79225   5.81133   5.82389
 Alpha virt. eigenvalues --    5.95238   5.96929   5.97984   6.09292   6.12966
 Alpha virt. eigenvalues --    6.18099   6.25435   6.30462   6.36162   6.36590
 Alpha virt. eigenvalues --    6.42704   6.43884   6.47225   6.58720   6.60526
 Alpha virt. eigenvalues --    6.62724   6.64471   6.70080   6.77392   6.79256
 Alpha virt. eigenvalues --    6.83803   6.90120   6.92284   6.99987   7.06908
 Alpha virt. eigenvalues --    7.10744   7.28873   7.33341   7.36726   7.60824
 Alpha virt. eigenvalues --    7.63327   7.64455   7.65088   7.67025   7.70756
 Alpha virt. eigenvalues --    7.77750   7.79224   7.82898   7.90207   7.91116
 Alpha virt. eigenvalues --    7.94068   7.95865   8.01550   8.07233   8.15654
 Alpha virt. eigenvalues --    8.18212   8.33094   8.34917   8.37057   8.43224
 Alpha virt. eigenvalues --    8.45533   8.53960   8.54836   8.55220   8.58469
 Alpha virt. eigenvalues --    8.58962   8.63631   8.66159   8.70817   8.83182
 Alpha virt. eigenvalues --    8.92483   8.93483   9.07803   9.12998   9.19269
 Alpha virt. eigenvalues --    9.24543   9.50803   9.60625   9.84630   9.86570
 Alpha virt. eigenvalues --    9.99716  10.01867  10.13512  10.23128  10.24417
 Alpha virt. eigenvalues --   10.27266  10.36617  10.43845  10.50122  10.65736
 Alpha virt. eigenvalues --   10.72676  10.89237  10.96442  11.17393  11.37196
 Alpha virt. eigenvalues --   11.50286  11.61463  11.64913  11.79388  11.81752
 Alpha virt. eigenvalues --   12.02695  12.20463  12.29315  12.72067  12.76960
 Alpha virt. eigenvalues --   12.95739  13.07807  13.51497  13.70182  14.59912
 Alpha virt. eigenvalues --   15.02478  29.41140  48.58214 149.05202 254.31631
          Condensed to atoms (all electrons):
               1          2          3          4          5          6
     1  C    4.414451   0.271395   0.444888   0.441128   0.399485  -0.049586
     2  O    0.271395   8.034381  -0.050377  -0.046907  -0.035052   0.309550
     3  H    0.444888  -0.050377   0.671695  -0.058072  -0.041959  -0.008370
     4  H    0.441128  -0.046907  -0.058072   0.674410  -0.044032  -0.009421
     5  H    0.399485  -0.035052  -0.041959  -0.044032   0.643504   0.012179
     6  H   -0.049586   0.309550  -0.008370  -0.009421   0.012179   0.491862
 Mulliken charges:
               1
     1  C    0.078240
     2  O   -0.482990
     3  H    0.042196
     4  H    0.042894
     5  H    0.065876
     6  H    0.253785
 Sum of Mulliken charges =   0.00000
 Mulliken charges with hydrogens summed into heavy atoms:
               1
     1  C    0.229205
     2  O   -0.229205
 Electronic spatial extent (au):  <R**2>=             83.9805
 Charge=              0.0000 electrons
 Dipole moment (field-independent basis, Debye):
    X=              0.8506    Y=              1.6081    Z=             -0.0574  Tot=              1.8201
 Quadrupole moment (field-independent basis, Debye-Ang):
   XX=            -12.9383   YY=            -12.0045   ZZ=            -13.8767
   XY=             -2.4622   XZ=              0.0135   YZ=             -0.0384
 Traceless Quadrupole moment (field-independent basis, Debye-Ang):
   XX=              0.0015   YY=              0.9353   ZZ=             -0.9369
   XY=             -2.4622   XZ=              0.0135   YZ=             -0.0384
 Octapole moment (field-independent basis, Debye-Ang**2):
  XXX=             -3.4857  YYY=              0.8561  ZZZ=             -0.0501  XYY=             -2.1135
  XXY=              2.4876  XXZ=             -0.1318  XZZ=             -0.0908  YZZ=              0.4398
  YYZ=             -0.0444  XYZ=              0.0517
 Hexadecapole moment (field-independent basis, Debye-Ang**3):
 XXXX=            -61.9655 YYYY=            -20.3115 ZZZZ=            -19.8359 XXXY=             -4.2556
 XXXZ=             -0.0668 YYYX=             -3.3866 YYYZ=             -0.0811 ZZZX=             -0.0613
 ZZZY=             -0.0208 XXYY=            -12.3013 XXZZ=            -14.5551 YYZZ=             -6.9498
 XXYZ=             -0.0861 YYXZ=              0.0249 ZZXY=              0.0803
 N-N= 4.026443953422D+01 E-N=-3.521099695799D+02  KE= 1.151704458748D+02
 Leave Link  601 at Wed Aug 26 16:02:16 2020, MaxMem=  2097152000 cpu:         0.3
 (Enter /opt/cluster/programs/g09/g09_d.01/g09/l9999.exe)
 1\1\GINC-NODE31\SP\RB2PLYPD3-FC\def2QZVP\C1H4O1\BOITTIER\26-Aug-2020\0
 \\#p B2PLYPD3/Def2QZVP\\methanol\\0,1\C,0,-5.170579,-1.252436,0.913605
 \O,0,-3.772575,-1.122662,0.872626\H,0,-5.506547,-2.213719,0.57364\H,0,
 -5.689933,-0.512123,0.369175\H,0,-5.477584,-1.156588,1.888664\H,0,-3.4
 8778,-1.212756,-0.20944\\Version=ES64L-G09RevD.01\State=1-A\HF=-115.52
 83126\MP2=-115.6780578\RMSD=4.669e-09\PG=C01 [X(C1H4O1)]\\@


 THE FIRST AND LAST THING REQUIRED OF GENIUS IS THE LOVE OF TRUTH.

                          -- GOETHE
 Job cpu time:       0 days  0 hours  3 minutes 11.2 seconds.
 File lengths (MBytes):  RWF=     23 Int=      0 D2E=      0 Chk=      4 Scr=      1
 Normal termination of Gaussian 09 at Wed Aug 26 16:02:16 2020.
