 Entering Gaussian System, Link 0=/opt/cluster/programs/g09/g09_d.01/g09//g09
 Input=/home/boittier/MDCM/nms_sampling/methanol_geom.xyz.dir/energies/methanol_2603_energy.com
 Output=/scratch/boittier/methanol_2603_energy/methanol_2603_energy.out
 Initial command:
 /opt/cluster/programs/g09/g09_d.01/g09/l1.exe "/scratch/boittier/methanol_2603_energy/Gau-98184.inp" -scrdir="/scratch/boittier/methanol_2603_energy/"
 Entering Link 1 = /opt/cluster/programs/g09/g09_d.01/g09/l1.exe PID=     98185.
  
 Copyright (c) 1988,1990,1992,1993,1995,1998,2003,2009,2013,
            Gaussian, Inc.  All Rights Reserved.
  
 This is part of the Gaussian(R) 09 program.  It is based on
 the Gaussian(R) 03 system (copyright 2003, Gaussian, Inc.),
 the Gaussian(R) 98 system (copyright 1998, Gaussian, Inc.),
 the Gaussian(R) 94 system (copyright 1995, Gaussian, Inc.),
 the Gaussian 92(TM) system (copyright 1992, Gaussian, Inc.),
 the Gaussian 90(TM) system (copyright 1990, Gaussian, Inc.),
 the Gaussian 88(TM) system (copyright 1988, Gaussian, Inc.),
 the Gaussian 86(TM) system (copyright 1986, Carnegie Mellon
 University), and the Gaussian 82(TM) system (copyright 1983,
 Carnegie Mellon University). Gaussian is a federally registered
 trademark of Gaussian, Inc.
  
 This software contains proprietary and confidential information,
 including trade secrets, belonging to Gaussian, Inc.
  
 This software is provided under written license and may be
 used, copied, transmitted, or stored only in accord with that
 written license.
  
 The following legend is applicable only to US Government
 contracts under FAR:
  
                    RESTRICTED RIGHTS LEGEND
  
 Use, reproduction and disclosure by the US Government is
 subject to restrictions as set forth in subparagraphs (a)
 and (c) of the Commercial Computer Software - Restricted
 Rights clause in FAR 52.227-19.
  
 Gaussian, Inc.
 340 Quinnipiac St., Bldg. 40, Wallingford CT 06492
  
  
 ---------------------------------------------------------------
 Warning -- This program may not be used in any manner that
 competes with the business of Gaussian, Inc. or will provide
 assistance to any competitor of Gaussian, Inc.  The licensee
 of this program is prohibited from giving any competitor of
 Gaussian, Inc. access to this program.  By using this program,
 the user acknowledges that Gaussian, Inc. is engaged in the
 business of creating and licensing software in the field of
 computational chemistry and represents and warrants to the
 licensee that it is not a competitor of Gaussian, Inc. and that
 it will not use this program in any manner prohibited above.
 ---------------------------------------------------------------
  

 Cite this work as:
 Gaussian 09, Revision D.01,
 M. J. Frisch, G. W. Trucks, H. B. Schlegel, G. E. Scuseria, 
 M. A. Robb, J. R. Cheeseman, G. Scalmani, V. Barone, B. Mennucci, 
 G. A. Petersson, H. Nakatsuji, M. Caricato, X. Li, H. P. Hratchian, 
 A. F. Izmaylov, J. Bloino, G. Zheng, J. L. Sonnenberg, M. Hada, 
 M. Ehara, K. Toyota, R. Fukuda, J. Hasegawa, M. Ishida, T. Nakajima, 
 Y. Honda, O. Kitao, H. Nakai, T. Vreven, J. A. Montgomery, Jr., 
 J. E. Peralta, F. Ogliaro, M. Bearpark, J. J. Heyd, E. Brothers, 
 K. N. Kudin, V. N. Staroverov, T. Keith, R. Kobayashi, J. Normand, 
 K. Raghavachari, A. Rendell, J. C. Burant, S. S. Iyengar, J. Tomasi, 
 M. Cossi, N. Rega, J. M. Millam, M. Klene, J. E. Knox, J. B. Cross, 
 V. Bakken, C. Adamo, J. Jaramillo, R. Gomperts, R. E. Stratmann, 
 O. Yazyev, A. J. Austin, R. Cammi, C. Pomelli, J. W. Ochterski, 
 R. L. Martin, K. Morokuma, V. G. Zakrzewski, G. A. Voth, 
 P. Salvador, J. J. Dannenberg, S. Dapprich, A. D. Daniels, 
 O. Farkas, J. B. Foresman, J. V. Ortiz, J. Cioslowski, 
 and D. J. Fox, Gaussian, Inc., Wallingford CT, 2013.
 
 ******************************************
 Gaussian 09:  ES64L-G09RevD.01 24-Apr-2013
                26-Aug-2020 
 ******************************************
 %chk=/home/boittier/MDCM/nms_sampling/methanol_geom.xyz.dir/methanol_2603.chk
 %nproc=8
 Will use up to    8 processors via shared memory.
 %mem=16000MB
 --------------------
 #p B2PLYPD3/Def2QZVP
 --------------------
 1/38=1/1;
 2/12=2,17=6,18=5,40=1/2;
 3/5=45,7=101,11=9,16=1,25=1,30=1,74=-60/1,2,3;
 4//1;
 5/5=2,38=5/2;
 8/10=1/1;
 9/16=-3/6;
 6/7=2,8=2,9=2,10=2/1;
 99/5=1,9=1/99;
 Leave Link    1 at Wed Aug 26 19:25:09 2020, MaxMem=  2097152000 cpu:         1.1
 (Enter /opt/cluster/programs/g09/g09_d.01/g09/l101.exe)
 --------
 methanol
 --------
 Symbolic Z-matrix:
 Charge =  0 Multiplicity = 1
 C                    -5.20183  -1.26346   0.93089 
 O                    -3.77256  -1.13055   0.88504 
 H                    -5.53135  -2.13429   0.62931 
 H                    -5.54923  -0.45523   0.37456 
 H                    -5.41259  -1.09952   1.7087 
 H                    -3.29888  -1.15598  -0.49118 
 
 NAtoms=      6 NQM=        6 NQMF=       0 NMMI=      0 NMMIF=      0
                NMic=       0 NMicF=      0.
                    Isotopes and Nuclear Properties:
 (Nuclear quadrupole moments (NQMom) in fm**2, nuclear magnetic moments (NMagM)
  in nuclear magnetons)

  Atom         1           2           3           4           5           6
 IAtWgt=          12          16           1           1           1           1
 AtmWgt=  12.0000000  15.9949146   1.0078250   1.0078250   1.0078250   1.0078250
 NucSpn=           0           0           1           1           1           1
 AtZEff=   0.0000000   0.0000000   0.0000000   0.0000000   0.0000000   0.0000000
 NQMom=    0.0000000   0.0000000   0.0000000   0.0000000   0.0000000   0.0000000
 NMagM=    0.0000000   0.0000000   2.7928460   2.7928460   2.7928460   2.7928460
 AtZNuc=   6.0000000   8.0000000   1.0000000   1.0000000   1.0000000   1.0000000
 Leave Link  101 at Wed Aug 26 19:25:12 2020, MaxMem=  2097152000 cpu:         0.5
 (Enter /opt/cluster/programs/g09/g09_d.01/g09/l202.exe)
                          Input orientation:                          
 ---------------------------------------------------------------------
 Center     Atomic      Atomic             Coordinates (Angstroms)
 Number     Number       Type             X           Y           Z
 ---------------------------------------------------------------------
      1          6           0       -5.201835   -1.263464    0.930888
      2          8           0       -3.772562   -1.130555    0.885038
      3          1           0       -5.531354   -2.134286    0.629305
      4          1           0       -5.549233   -0.455225    0.374558
      5          1           0       -5.412586   -1.099522    1.708695
      6          1           0       -3.298882   -1.155978   -0.491178
 ---------------------------------------------------------------------
                    Distance matrix (angstroms):
                    1          2          3          4          5
     1  C    0.000000
     2  O    1.436171   0.000000
     3  H    0.978706   2.041133   0.000000
     4  H    1.040884   1.968050   1.698370   0.000000
     5  H    0.822360   1.835498   1.499975   1.487855   0.000000
     6  H    2.378036   1.455675   2.682629   2.510903   3.051290
                    6
     6  H    0.000000
 Stoichiometry    CH4O
 Framework group  C1[X(CH4O)]
 Deg. of freedom    12
 Full point group                 C1      NOp   1
 Largest Abelian subgroup         C1      NOp   1
 Largest concise Abelian subgroup C1      NOp   1
                         Standard orientation:                         
 ---------------------------------------------------------------------
 Center     Atomic      Atomic             Coordinates (Angstroms)
 Number     Number       Type             X           Y           Z
 ---------------------------------------------------------------------
      1          6           0        0.702025    0.032789    0.014966
      2          8           0       -0.715056   -0.200090   -0.000436
      3          1           0        1.033912    0.417939    0.851252
      4          1           0        0.871118    0.620846   -0.827077
      5          1           0        1.045789   -0.694789   -0.154540
      6          1           0       -1.442517    1.059993    0.044057
 ---------------------------------------------------------------------
 Rotational constants (GHZ):    122.2160790     24.5312721     23.1393192
 Leave Link  202 at Wed Aug 26 19:25:12 2020, MaxMem=  2097152000 cpu:         0.0
 (Enter /opt/cluster/programs/g09/g09_d.01/g09/l301.exe)
 Standard basis: def2QZVP (5D, 7F)
 Ernie: Thresh=  0.10000D-02 Tol=  0.10000D-05 Strict=F.
 There are   284 symmetry adapted cartesian basis functions of A   symmetry.
 There are   234 symmetry adapted basis functions of A   symmetry.
   234 basis functions,   336 primitive gaussians,   284 cartesian basis functions
     9 alpha electrons        9 beta electrons
       nuclear repulsion energy        40.2180660905 Hartrees.
 IExCor=  419 DFT=T Ex+Corr=B2PLYPD3 ExCW=0 ScaHFX=  0.530000
 ScaDFX=  0.470000  0.470000  0.730000  0.730000 ScalE2=  0.270000  0.270000
 IRadAn=      0 IRanWt=     -1 IRanGd=            0 ICorTp=0 IEmpDi=141
 NAtoms=    6 NActive=    6 NUniq=    6 SFac= 1.00D+00 NAtFMM=   60 NAOKFM=F Big=F
 Integral buffers will be    131072 words long.
 Regular integral format.
 Two-electron integral symmetry is turned on.
 R6Disp:  Grimme-D3(BJ) Dispersion energy=       -0.0015126675 Hartrees.
 Nuclear repulsion after empirical dispersion term =       40.2165534229 Hartrees.
 Leave Link  301 at Wed Aug 26 19:25:15 2020, MaxMem=  2097152000 cpu:         0.4
 (Enter /opt/cluster/programs/g09/g09_d.01/g09/l302.exe)
 NPDir=0 NMtPBC=     1 NCelOv=     1 NCel=       1 NClECP=     1 NCelD=      1
         NCelK=      1 NCelE2=     1 NClLst=     1 CellRange=     0.0.
 One-electron integrals computed using PRISM.
   1 Symmetry operations used in ECPInt.
 ECPInt:  NShTT=    2775 NPrTT=    6207 LenC2=    2773 LenP2D=    5739.
 LDataN:  DoStor=T MaxTD1= 8 Len=  415
 NBasis=   234 RedAO= T EigKep=  4.87D-05  NBF=   234
 NBsUse=   234 1.00D-06 EigRej= -1.00D+00 NBFU=   234
 Precomputing XC quadrature grid using
 IXCGrd= 4 IRadAn=           0 IRanWt=          -1 IRanGd=           0 AccXCQ= 0.00D+00.
 Generated NRdTot=       0 NPtTot=           0 NUsed=           0 NTot=          32
 NSgBfM=   284   284   284   284   284 MxSgAt=     6 MxSgA2=     6.
 Leave Link  302 at Wed Aug 26 19:25:18 2020, MaxMem=  2097152000 cpu:         2.2
 (Enter /opt/cluster/programs/g09/g09_d.01/g09/l303.exe)
 DipDrv:  MaxL=1.
 Leave Link  303 at Wed Aug 26 19:25:18 2020, MaxMem=  2097152000 cpu:         0.2
 (Enter /opt/cluster/programs/g09/g09_d.01/g09/l401.exe)
 ExpMin= 7.60D-02 ExpMax= 1.17D+05 ExpMxC= 1.13D+03 IAcc=2 IRadAn=         4 AccDes= 0.00D+00
 Harris functional with IExCor=  419 and IRadAn=       4 diagonalized for initial guess.
 HarFok:  IExCor=  419 AccDes= 0.00D+00 IRadAn=         4 IDoV= 1 UseB2=F ITyADJ=14
 ICtDFT=  3500011 ScaDFX=  1.000000  1.000000  1.000000  1.000000
 FoFCou: FMM=F IPFlag=           0 FMFlag=      100000 FMFlg1=           0
         NFxFlg=           0 DoJE=T BraDBF=F KetDBF=T FulRan=T
         wScrn=  0.000000 ICntrl=     500 IOpCl=  0 I1Cent=   200000004 NGrid=           0
         NMat0=    1 NMatS0=      1 NMatT0=    0 NMatD0=    1 NMtDS0=    0 NMtDT0=    0
 Petite list used in FoFCou.
 Harris En= -115.708326866596    
 JPrj=0 DoOrth=F DoCkMO=F.
 Leave Link  401 at Wed Aug 26 19:25:19 2020, MaxMem=  2097152000 cpu:         3.8
 (Enter /opt/cluster/programs/g09/g09_d.01/g09/l502.exe)
 Closed shell SCF:
 Using DIIS extrapolation, IDIIS=  1040.
 Integral symmetry usage will be decided dynamically.
 Keep R1 ints in memory in canonical form, NReq=389840494.
 IVT=      264814 IEndB=      264814 NGot=  2097152000 MDV=  1718885927
 LenX=  1718885927 LenY=  1718804830
 Requested convergence on RMS density matrix=1.00D-08 within 128 cycles.
 Requested convergence on MAX density matrix=1.00D-06.
 Requested convergence on             energy=1.00D-06.
 No special actions if energy rises.
 FoFCou: FMM=F IPFlag=           0 FMFlag=           0 FMFlg1=           0
         NFxFlg=           0 DoJE=F BraDBF=F KetDBF=F FulRan=T
         wScrn=  0.000000 ICntrl=     600 IOpCl=  0 I1Cent=           0 NGrid=           0
         NMat0=    1 NMatS0=  27495 NMatT0=    0 NMatD0=    1 NMtDS0=    0 NMtDT0=    0
 Symmetry not used in FoFCou.
 Integral accuracy reduced to 1.0D-05 until final iterations.

 Cycle   1  Pass 0  IDiag  1:
 E= -115.189132288847    
 DIIS: error= 4.22D-02 at cycle   1 NSaved=   1.
 NSaved= 1 IEnMin= 1 EnMin= -115.189132288847     IErMin= 1 ErrMin= 4.22D-02
 ErrMax= 4.22D-02  0.00D+00 EMaxC= 1.00D-01 BMatC= 2.40D-01 BMatP= 2.40D-01
 IDIUse=3 WtCom= 5.78D-01 WtEn= 4.22D-01
 Coeff-Com:  0.100D+01
 Coeff-En:   0.100D+01
 Coeff:      0.100D+01
 Gap=     0.163 Goal=   None    Shift=    0.000
 GapD=    0.163 DampG=1.000 DampE=0.500 DampFc=0.5000 IDamp=-1.
 Damping current iteration by 5.00D-01
 RMSDP=2.02D-03 MaxDP=7.60D-02              OVMax= 2.61D-01

 Cycle   2  Pass 0  IDiag  1:
 E= -115.265371868774     Delta-E=       -0.076239579927 Rises=F Damp=T
 DIIS: error= 1.03D-02 at cycle   2 NSaved=   2.
 NSaved= 2 IEnMin= 2 EnMin= -115.265371868774     IErMin= 2 ErrMin= 1.03D-02
 ErrMax= 1.03D-02  0.00D+00 EMaxC= 1.00D-01 BMatC= 2.86D-02 BMatP= 2.40D-01
 IDIUse=3 WtCom= 8.97D-01 WtEn= 1.03D-01
 Coeff-Com: -0.149D-01 0.101D+01
 Coeff-En:   0.713D-01 0.929D+00
 Coeff:     -0.603D-02 0.101D+01
 Gap=     0.331 Goal=   None    Shift=    0.000
 RMSDP=6.77D-04 MaxDP=2.11D-02 DE=-7.62D-02 OVMax= 2.02D-01

 Cycle   3  Pass 0  IDiag  1:
 E= -115.349181476265     Delta-E=       -0.083809607491 Rises=F Damp=F
 DIIS: error= 7.44D-03 at cycle   3 NSaved=   3.
 NSaved= 3 IEnMin= 3 EnMin= -115.349181476265     IErMin= 3 ErrMin= 7.44D-03
 ErrMax= 7.44D-03  0.00D+00 EMaxC= 1.00D-01 BMatC= 2.14D-02 BMatP= 2.86D-02
 IDIUse=3 WtCom= 9.26D-01 WtEn= 7.44D-02
 Coeff-Com: -0.118D+00 0.514D+00 0.604D+00
 Coeff-En:   0.000D+00 0.000D+00 0.100D+01
 Coeff:     -0.109D+00 0.476D+00 0.634D+00
 Gap=     0.325 Goal=   None    Shift=    0.000
 RMSDP=2.97D-04 MaxDP=1.27D-02 DE=-8.38D-02 OVMax= 5.42D-02

 Cycle   4  Pass 0  IDiag  1:
 E= -115.363556940087     Delta-E=       -0.014375463822 Rises=F Damp=F
 DIIS: error= 2.89D-03 at cycle   4 NSaved=   4.
 NSaved= 4 IEnMin= 4 EnMin= -115.363556940087     IErMin= 4 ErrMin= 2.89D-03
 ErrMax= 2.89D-03  0.00D+00 EMaxC= 1.00D-01 BMatC= 1.97D-03 BMatP= 2.14D-02
 IDIUse=3 WtCom= 9.71D-01 WtEn= 2.89D-02
 Coeff-Com: -0.404D-01 0.672D-01 0.272D+00 0.701D+00
 Coeff-En:   0.000D+00 0.000D+00 0.000D+00 0.100D+01
 Coeff:     -0.393D-01 0.653D-01 0.264D+00 0.710D+00
 Gap=     0.323 Goal=   None    Shift=    0.000
 RMSDP=7.90D-05 MaxDP=2.71D-03 DE=-1.44D-02 OVMax= 1.18D-02

 Cycle   5  Pass 0  IDiag  1:
 E= -115.364966529935     Delta-E=       -0.001409589848 Rises=F Damp=F
 DIIS: error= 3.60D-04 at cycle   5 NSaved=   5.
 NSaved= 5 IEnMin= 5 EnMin= -115.364966529935     IErMin= 5 ErrMin= 3.60D-04
 ErrMax= 3.60D-04  0.00D+00 EMaxC= 1.00D-01 BMatC= 1.51D-05 BMatP= 1.97D-03
 IDIUse=3 WtCom= 9.96D-01 WtEn= 3.60D-03
 Coeff-Com: -0.110D-02-0.751D-02 0.222D-01 0.113D+00 0.874D+00
 Coeff-En:   0.000D+00 0.000D+00 0.000D+00 0.000D+00 0.100D+01
 Coeff:     -0.110D-02-0.748D-02 0.221D-01 0.112D+00 0.874D+00
 Gap=     0.324 Goal=   None    Shift=    0.000
 RMSDP=1.63D-05 MaxDP=5.60D-04 DE=-1.41D-03 OVMax= 1.31D-03

 Cycle   6  Pass 0  IDiag  1:
 E= -115.364982663324     Delta-E=       -0.000016133389 Rises=F Damp=F
 DIIS: error= 4.86D-05 at cycle   6 NSaved=   6.
 NSaved= 6 IEnMin= 6 EnMin= -115.364982663324     IErMin= 6 ErrMin= 4.86D-05
 ErrMax= 4.86D-05  0.00D+00 EMaxC= 1.00D-01 BMatC= 9.23D-07 BMatP= 1.51D-05
 IDIUse=1 WtCom= 1.00D+00 WtEn= 0.00D+00
 Coeff-Com:  0.339D-02-0.500D-02-0.154D-01-0.516D-01-0.116D+00 0.118D+01
 Coeff:      0.339D-02-0.500D-02-0.154D-01-0.516D-01-0.116D+00 0.118D+01
 Gap=     0.325 Goal=   None    Shift=    0.000
 RMSDP=6.63D-06 MaxDP=2.17D-04 DE=-1.61D-05 OVMax= 5.86D-04

 Initial convergence to 1.0D-05 achieved.  Increase integral accuracy.
 Cycle   7  Pass 1  IDiag  1:
 E= -115.364989021639     Delta-E=       -0.000006358315 Rises=F Damp=F
 DIIS: error= 6.04D-06 at cycle   1 NSaved=   1.
 NSaved= 1 IEnMin= 1 EnMin= -115.364989021639     IErMin= 1 ErrMin= 6.04D-06
 ErrMax= 6.04D-06  0.00D+00 EMaxC= 1.00D-01 BMatC= 3.12D-08 BMatP= 3.12D-08
 IDIUse=1 WtCom= 1.00D+00 WtEn= 0.00D+00
 Coeff-Com:  0.100D+01
 Coeff:      0.100D+01
 Gap=     0.325 Goal=   None    Shift=    0.000
 RMSDP=6.63D-06 MaxDP=2.17D-04 DE=-6.36D-06 OVMax= 9.10D-05

 Cycle   8  Pass 1  IDiag  1:
 E= -115.364989045810     Delta-E=       -0.000000024171 Rises=F Damp=F
 DIIS: error= 2.00D-06 at cycle   2 NSaved=   2.
 NSaved= 2 IEnMin= 2 EnMin= -115.364989045810     IErMin= 2 ErrMin= 2.00D-06
 ErrMax= 2.00D-06  0.00D+00 EMaxC= 1.00D-01 BMatC= 1.23D-09 BMatP= 3.12D-08
 IDIUse=1 WtCom= 1.00D+00 WtEn= 0.00D+00
 Coeff-Com: -0.382D-01 0.104D+01
 Coeff:     -0.382D-01 0.104D+01
 Gap=     0.325 Goal=   None    Shift=    0.000
 RMSDP=3.37D-07 MaxDP=9.72D-06 DE=-2.42D-08 OVMax= 2.50D-05

 Cycle   9  Pass 1  IDiag  1:
 E= -115.364989047938     Delta-E=       -0.000000002128 Rises=F Damp=F
 DIIS: error= 1.69D-06 at cycle   3 NSaved=   3.
 NSaved= 3 IEnMin= 3 EnMin= -115.364989047938     IErMin= 3 ErrMin= 1.69D-06
 ErrMax= 1.69D-06  0.00D+00 EMaxC= 1.00D-01 BMatC= 9.36D-10 BMatP= 1.23D-09
 IDIUse=1 WtCom= 1.00D+00 WtEn= 0.00D+00
 Coeff-Com: -0.487D-01 0.493D+00 0.556D+00
 Coeff:     -0.487D-01 0.493D+00 0.556D+00
 Gap=     0.325 Goal=   None    Shift=    0.000
 RMSDP=8.12D-08 MaxDP=3.78D-06 DE=-2.13D-09 OVMax= 1.74D-05

 Cycle  10  Pass 1  IDiag  1:
 E= -115.364989048700     Delta-E=       -0.000000000763 Rises=F Damp=F
 DIIS: error= 6.93D-07 at cycle   4 NSaved=   4.
 NSaved= 4 IEnMin= 4 EnMin= -115.364989048700     IErMin= 4 ErrMin= 6.93D-07
 ErrMax= 6.93D-07  0.00D+00 EMaxC= 1.00D-01 BMatC= 1.54D-10 BMatP= 9.36D-10
 IDIUse=1 WtCom= 1.00D+00 WtEn= 0.00D+00
 Coeff-Com: -0.107D-01-0.123D+00 0.220D+00 0.913D+00
 Coeff:     -0.107D-01-0.123D+00 0.220D+00 0.913D+00
 Gap=     0.325 Goal=   None    Shift=    0.000
 RMSDP=5.66D-08 MaxDP=1.92D-06 DE=-7.63D-10 OVMax= 7.73D-06

 Cycle  11  Pass 1  IDiag  1:
 E= -115.364989048895     Delta-E=       -0.000000000195 Rises=F Damp=F
 DIIS: error= 2.80D-07 at cycle   5 NSaved=   5.
 NSaved= 5 IEnMin= 5 EnMin= -115.364989048895     IErMin= 5 ErrMin= 2.80D-07
 ErrMax= 2.80D-07  0.00D+00 EMaxC= 1.00D-01 BMatC= 1.08D-11 BMatP= 1.54D-10
 IDIUse=1 WtCom= 1.00D+00 WtEn= 0.00D+00
 Coeff-Com:  0.414D-02-0.105D+00 0.138D-03 0.314D+00 0.787D+00
 Coeff:      0.414D-02-0.105D+00 0.138D-03 0.314D+00 0.787D+00
 Gap=     0.325 Goal=   None    Shift=    0.000
 RMSDP=1.53D-08 MaxDP=5.99D-07 DE=-1.95D-10 OVMax= 3.44D-06

 Cycle  12  Pass 1  IDiag  1:
 E= -115.364989048913     Delta-E=       -0.000000000018 Rises=F Damp=F
 DIIS: error= 7.51D-08 at cycle   6 NSaved=   6.
 NSaved= 6 IEnMin= 6 EnMin= -115.364989048913     IErMin= 6 ErrMin= 7.51D-08
 ErrMax= 7.51D-08  0.00D+00 EMaxC= 1.00D-01 BMatC= 5.83D-13 BMatP= 1.08D-11
 IDIUse=1 WtCom= 1.00D+00 WtEn= 0.00D+00
 Coeff-Com:  0.132D-02-0.118D-01-0.931D-02 0.316D-02 0.158D+00 0.859D+00
 Coeff:      0.132D-02-0.118D-01-0.931D-02 0.316D-02 0.158D+00 0.859D+00
 Gap=     0.325 Goal=   None    Shift=    0.000
 RMSDP=3.44D-09 MaxDP=7.25D-08 DE=-1.78D-11 OVMax= 6.74D-07

 SCF Done:  E(RB2PLYPD3) =  -115.364989049     A.U. after   12 cycles
            NFock= 12  Conv=0.34D-08     -V/T= 1.9982
 KE= 1.155720010446D+02 PE=-3.521969269630D+02 EE= 8.104338344649D+01
 Leave Link  502 at Wed Aug 26 19:25:49 2020, MaxMem=  2097152000 cpu:       177.2
 (Enter /opt/cluster/programs/g09/g09_d.01/g09/l801.exe)
 DoSCS=T DFT=T ScalE2(SS,OS)=  0.270000  0.270000
 ExpMin= 7.60D-02 ExpMax= 1.17D+05 ExpMxC= 1.13D+03 IAcc=3 IRadAn=         5 AccDes= 0.00D+00
 HarFok:  IExCor=  205 AccDes= 0.00D+00 IRadAn=         5 IDoV=-2 UseB2=F ITyADJ=14
 ICtDFT= 12500011 ScaDFX=  1.000000  1.000000  1.000000  1.000000
 Largest valence mixing into a core orbital is  9.36D-05
 Largest core mixing into a valence orbital is  1.27D-05
 Range of M.O.s used for correlation:     3   234
 NBasis=   234 NAE=     9 NBE=     9 NFC=     2 NFV=     0
 NROrb=    232 NOA=     7 NOB=     7 NVA=   225 NVB=   225

 **** Warning!!: The largest alpha MO coefficient is  0.33734190D+02

 Leave Link  801 at Wed Aug 26 19:25:51 2020, MaxMem=  2097152000 cpu:         0.6
 (Enter /opt/cluster/programs/g09/g09_d.01/g09/l906.exe)
 DoSCS=T DFT=T ScalE2(SS,OS)=  0.270000  0.270000
 FulOut=F Deriv=F AODrv=F NAtomX=     6
   MMem=        3646  MDisk=           7 MDiskD=           7
  W3Min=      447300 MinDsk=     1090093 NBas6D=         284
 NBas2D=       41310    NTT=       40470    LW2=     4508827
    MDV=  2096872932 MDiskM=       16391 NBas2p=       41283
 Fully in-core method, ICMem=  1722292712.
 IMap=   1   2   3   4   5   6   7
 JobTyp=1 Pass  1 fully in-core, NPsUse=  8.
 Compute canonical integrals.
 FoFCou: FMM=F IPFlag=           0 FMFlag=           0 FMFlg1=           0
         NFxFlg=           0 DoJE=F BraDBF=F KetDBF=F FulRan=T
         wScrn=  0.000000 ICntrl=     600 IOpCl=  1 I1Cent=           0 NGrid=           0
         NMat0=    1 NMatS0=  41310 NMatT0=    0 NMatD0=    1 NMtDS0=    0 NMtDT0=    0
 Symmetry not used in FoFCou.
 Spin components of T(2) and E(2):
     alpha-alpha T2 =       0.2432280507D-01 E2=     -0.1762264025D-01
     alpha-beta  T2 =       0.1669748274D+00 E2=     -0.1211725285D+00
     beta-beta   T2 =       0.2432280507D-01 E2=     -0.1762264025D-01
 The integrals were generated   1 times.
 E2(B2PLYPD3) =    -0.1564178090D+00 E(B2PLYPD3) =    -0.11552140685789D+03
 Leave Link  906 at Wed Aug 26 19:26:09 2020, MaxMem=  2097152000 cpu:       125.8
 (Enter /opt/cluster/programs/g09/g09_d.01/g09/l601.exe)
 Copying SCF densities to generalized density rwf, IOpCl= 0 IROHF=0.

 **********************************************************************

            Population analysis using the SCF density.

 **********************************************************************

 Orbital symmetries:
       Occupied  (A) (A) (A) (A) (A) (A) (A) (A) (A)
       Virtual   (A) (A) (A) (A) (A) (A) (A) (A) (A) (A) (A) (A)
                 (A) (A) (A) (A) (A) (A) (A) (A) (A) (A) (A) (A)
                 (A) (A) (A) (A) (A) (A) (A) (A) (A) (A) (A) (A)
                 (A) (A) (A) (A) (A) (A) (A) (A) (A) (A) (A) (A)
                 (A) (A) (A) (A) (A) (A) (A) (A) (A) (A) (A) (A)
                 (A) (A) (A) (A) (A) (A) (A) (A) (A) (A) (A) (A)
                 (A) (A) (A) (A) (A) (A) (A) (A) (A) (A) (A) (A)
                 (A) (A) (A) (A) (A) (A) (A) (A) (A) (A) (A) (A)
                 (A) (A) (A) (A) (A) (A) (A) (A) (A) (A) (A) (A)
                 (A) (A) (A) (A) (A) (A) (A) (A) (A) (A) (A) (A)
                 (A) (A) (A) (A) (A) (A) (A) (A) (A) (A) (A) (A)
                 (A) (A) (A) (A) (A) (A) (A) (A) (A) (A) (A) (A)
                 (A) (A) (A) (A) (A) (A) (A) (A) (A) (A) (A) (A)
                 (A) (A) (A) (A) (A) (A) (A) (A) (A) (A) (A) (A)
                 (A) (A) (A) (A) (A) (A) (A) (A) (A) (A) (A) (A)
                 (A) (A) (A) (A) (A) (A) (A) (A) (A) (A) (A) (A)
                 (A) (A) (A) (A) (A) (A) (A) (A) (A) (A) (A) (A)
                 (A) (A) (A) (A) (A) (A) (A) (A) (A) (A) (A) (A)
                 (A) (A) (A) (A) (A) (A) (A) (A) (A)
 The electronic state is 1-A.
 Alpha  occ. eigenvalues --  -19.74607 -10.60550  -1.10750  -0.81585  -0.56403
 Alpha  occ. eigenvalues --   -0.53241  -0.48941  -0.38400  -0.34717
 Alpha virt. eigenvalues --   -0.02210   0.07571   0.12661   0.13204   0.14322
 Alpha virt. eigenvalues --    0.17211   0.18432   0.21831   0.29386   0.32849
 Alpha virt. eigenvalues --    0.33740   0.37821   0.42025   0.43489   0.44914
 Alpha virt. eigenvalues --    0.52049   0.53984   0.54851   0.56731   0.65340
 Alpha virt. eigenvalues --    0.70669   0.73600   0.75054   0.76941   0.77251
 Alpha virt. eigenvalues --    0.79427   0.82985   0.88816   0.90258   0.91899
 Alpha virt. eigenvalues --    0.97437   1.02638   1.04203   1.07705   1.10468
 Alpha virt. eigenvalues --    1.13597   1.18221   1.23937   1.36685   1.39583
 Alpha virt. eigenvalues --    1.42875   1.48360   1.51944   1.53087   1.57675
 Alpha virt. eigenvalues --    1.71441   1.73984   1.80446   1.84760   1.85647
 Alpha virt. eigenvalues --    1.87401   1.95295   1.95692   1.98051   2.01130
 Alpha virt. eigenvalues --    2.06654   2.08397   2.12974   2.16974   2.17713
 Alpha virt. eigenvalues --    2.20861   2.24221   2.25661   2.29314   2.37572
 Alpha virt. eigenvalues --    2.42589   2.47674   2.50120   2.52497   2.54925
 Alpha virt. eigenvalues --    2.58744   2.64881   2.67134   2.74225   2.75695
 Alpha virt. eigenvalues --    2.76952   2.86511   2.91357   2.94855   2.97663
 Alpha virt. eigenvalues --    3.00518   3.09688   3.10695   3.21792   3.23759
 Alpha virt. eigenvalues --    3.37059   3.43188   3.50494   3.54607   3.59230
 Alpha virt. eigenvalues --    3.65875   3.66498   3.76797   3.81657   3.85834
 Alpha virt. eigenvalues --    3.98983   4.02252   4.11605   4.14629   4.19871
 Alpha virt. eigenvalues --    4.22750   4.29040   4.33102   4.34556   4.42944
 Alpha virt. eigenvalues --    4.51347   4.54388   4.61567   4.83947   5.03912
 Alpha virt. eigenvalues --    5.20582   5.25144   5.38069   5.54244   5.58552
 Alpha virt. eigenvalues --    5.68268   5.70091   5.74432   5.77891   5.86760
 Alpha virt. eigenvalues --    5.89082   5.90247   5.92958   5.95847   6.05122
 Alpha virt. eigenvalues --    6.07316   6.10086   6.13716   6.22014   6.26891
 Alpha virt. eigenvalues --    6.30012   6.37501   6.38931   6.43454   6.48954
 Alpha virt. eigenvalues --    6.54791   6.60153   6.66992   6.67166   6.75516
 Alpha virt. eigenvalues --    6.78777   6.89516   6.93989   7.02549   7.05774
 Alpha virt. eigenvalues --    7.09076   7.13526   7.40317   7.48942   7.53736
 Alpha virt. eigenvalues --    7.55170   7.60736   7.65212   7.69435   7.70633
 Alpha virt. eigenvalues --    7.72216   7.76253   7.83829   7.87209   7.96889
 Alpha virt. eigenvalues --    8.03155   8.05855   8.11035   8.18680   8.21867
 Alpha virt. eigenvalues --    8.25090   8.32927   8.35605   8.40681   8.45212
 Alpha virt. eigenvalues --    8.48252   8.54307   8.57336   8.63885   8.66449
 Alpha virt. eigenvalues --    8.73238   8.78590   8.81697   8.97855   8.99274
 Alpha virt. eigenvalues --    9.08240   9.13847   9.17522   9.20737   9.28394
 Alpha virt. eigenvalues --    9.51331   9.57232   9.68700   9.75355   9.78128
 Alpha virt. eigenvalues --    9.93916  10.03695  10.13761  10.19788  10.26802
 Alpha virt. eigenvalues --   10.45149  10.46120  10.64206  10.68094  10.84877
 Alpha virt. eigenvalues --   10.90862  10.96111  11.13901  11.44468  11.49721
 Alpha virt. eigenvalues --   11.58190  11.60796  11.81108  12.06853  12.16341
 Alpha virt. eigenvalues --   12.25018  12.39327  12.41334  12.55668  12.59637
 Alpha virt. eigenvalues --   12.66405  12.77445  13.03652  13.43787  13.68117
 Alpha virt. eigenvalues --   14.48171  29.81362  48.50481 149.55753 254.22826
          Condensed to atoms (all electrons):
               1          2          3          4          5          6
     1  C    4.484142   0.233440   0.444330   0.458698   0.413448  -0.034885
     2  O    0.233440   8.124652  -0.037015  -0.057431  -0.009771   0.246799
     3  H    0.444330  -0.037015   0.636964  -0.053241  -0.041830  -0.007076
     4  H    0.458698  -0.057431  -0.053241   0.656821  -0.042024  -0.012904
     5  H    0.413448  -0.009771  -0.041830  -0.042024   0.510431   0.012151
     6  H   -0.034885   0.246799  -0.007076  -0.012904   0.012151   0.561610
 Mulliken charges:
               1
     1  C    0.000828
     2  O   -0.500675
     3  H    0.057867
     4  H    0.050080
     5  H    0.157594
     6  H    0.234306
 Sum of Mulliken charges =   0.00000
 Mulliken charges with hydrogens summed into heavy atoms:
               1
     1  C    0.266369
     2  O   -0.266369
 Electronic spatial extent (au):  <R**2>=             85.0357
 Charge=              0.0000 electrons
 Dipole moment (field-independent basis, Debye):
    X=              0.9103    Y=              1.6137    Z=              0.0451  Tot=              1.8533
 Quadrupole moment (field-independent basis, Debye-Ang):
   XX=            -12.0978   YY=            -11.8598   ZZ=            -13.6685
   XY=             -2.9495   XZ=              0.0196   YZ=              0.1487
 Traceless Quadrupole moment (field-independent basis, Debye-Ang):
   XX=              0.4442   YY=              0.6823   ZZ=             -1.1265
   XY=             -2.9495   XZ=              0.0196   YZ=              0.1487
 Octapole moment (field-independent basis, Debye-Ang**2):
  XXX=             -3.1356  YYY=              0.5739  ZZZ=              0.0653  XYY=             -2.3131
  XXY=              3.2315  XXZ=              0.2647  XZZ=              0.7956  YZZ=              0.0915
  YYZ=             -0.0487  XYZ=              0.0340
 Hexadecapole moment (field-independent basis, Debye-Ang**3):
 XXXX=            -61.1644 YYYY=            -20.9855 ZZZZ=            -18.7515 XXXY=             -6.2596
 XXXZ=              0.1680 YYYX=             -3.8453 YYYZ=              0.2918 ZZZX=              0.3181
 ZZZY=              0.1198 XXYY=            -11.4782 XXZZ=            -14.9083 YYZZ=             -6.9417
 XXYZ=              0.4772 YYXZ=             -0.1368 ZZXY=              0.1494
 N-N= 4.021655342294D+01 E-N=-3.521969326451D+02  KE= 1.155720010446D+02
 Leave Link  601 at Wed Aug 26 19:26:12 2020, MaxMem=  2097152000 cpu:         0.3
 (Enter /opt/cluster/programs/g09/g09_d.01/g09/l9999.exe)
 1\1\GINC-NODE12\SP\RB2PLYPD3-FC\def2QZVP\C1H4O1\BOITTIER\26-Aug-2020\0
 \\#p B2PLYPD3/Def2QZVP\\methanol\\0,1\C,0,-5.201835,-1.263464,0.930888
 \O,0,-3.772562,-1.130555,0.885038\H,0,-5.531354,-2.134286,0.629305\H,0
 ,-5.549233,-0.455225,0.374558\H,0,-5.412586,-1.099522,1.708695\H,0,-3.
 298882,-1.155978,-0.491178\\Version=ES64L-G09RevD.01\State=1-A\HF=-115
 .364989\MP2=-115.5214069\RMSD=3.445e-09\PG=C01 [X(C1H4O1)]\\@


 THE ENLIGHTENED ONE, BECAUSE HE SAW MANKIND DROWNING  
 IN THE GREAT SEA OF BIRTH, DEATH, AND SORROW, LONGED TO SAVE 
 THEM, FOR THIS HE WAS MOVED TO PITY.                         
 BECAUSE HE SAW MEN OF THE WORLD STRAYING IN FALSE PATHS, AND 
 NONE TO GUIDE THEM, FOR THIS HE WAS MOVED TO PITY.           
                     ..................                       
 BECAUSE HE SAW THE MEN OF THE WORLD PLOUGHING THEIR FIELDS,  
 SOWING THE SEED, TRAFFICKING, HUCKSTERING, BUYING, SELLING,  
 AND AT THE END WINNOWING NOTHING BUT BITTERNESS,             
 FOR THIS HE WAS MOVED TO PITY......                   
                   BUDAH'S PITY - UPSAKA SILA SUTRA           
 Job cpu time:       0 days  0 hours  5 minutes 27.3 seconds.
 File lengths (MBytes):  RWF=     23 Int=      0 D2E=      0 Chk=      4 Scr=      1
 Normal termination of Gaussian 09 at Wed Aug 26 19:26:28 2020.
