 Entering Gaussian System, Link 0=/opt/cluster/programs/g09/g09_d.01/g09//g09
 Input=/home/boittier/MDCM/nms_sampling/methanol_geom.xyz.dir/energies/methanol_952_energy.com
 Output=/scratch/boittier/methanol_952_energy/methanol_952_energy.out
 Initial command:
 /opt/cluster/programs/g09/g09_d.01/g09/l1.exe "/scratch/boittier/methanol_952_energy/Gau-227107.inp" -scrdir="/scratch/boittier/methanol_952_energy/"
 Entering Link 1 = /opt/cluster/programs/g09/g09_d.01/g09/l1.exe PID=    227108.
  
 Copyright (c) 1988,1990,1992,1993,1995,1998,2003,2009,2013,
            Gaussian, Inc.  All Rights Reserved.
  
 This is part of the Gaussian(R) 09 program.  It is based on
 the Gaussian(R) 03 system (copyright 2003, Gaussian, Inc.),
 the Gaussian(R) 98 system (copyright 1998, Gaussian, Inc.),
 the Gaussian(R) 94 system (copyright 1995, Gaussian, Inc.),
 the Gaussian 92(TM) system (copyright 1992, Gaussian, Inc.),
 the Gaussian 90(TM) system (copyright 1990, Gaussian, Inc.),
 the Gaussian 88(TM) system (copyright 1988, Gaussian, Inc.),
 the Gaussian 86(TM) system (copyright 1986, Carnegie Mellon
 University), and the Gaussian 82(TM) system (copyright 1983,
 Carnegie Mellon University). Gaussian is a federally registered
 trademark of Gaussian, Inc.
  
 This software contains proprietary and confidential information,
 including trade secrets, belonging to Gaussian, Inc.
  
 This software is provided under written license and may be
 used, copied, transmitted, or stored only in accord with that
 written license.
  
 The following legend is applicable only to US Government
 contracts under FAR:
  
                    RESTRICTED RIGHTS LEGEND
  
 Use, reproduction and disclosure by the US Government is
 subject to restrictions as set forth in subparagraphs (a)
 and (c) of the Commercial Computer Software - Restricted
 Rights clause in FAR 52.227-19.
  
 Gaussian, Inc.
 340 Quinnipiac St., Bldg. 40, Wallingford CT 06492
  
  
 ---------------------------------------------------------------
 Warning -- This program may not be used in any manner that
 competes with the business of Gaussian, Inc. or will provide
 assistance to any competitor of Gaussian, Inc.  The licensee
 of this program is prohibited from giving any competitor of
 Gaussian, Inc. access to this program.  By using this program,
 the user acknowledges that Gaussian, Inc. is engaged in the
 business of creating and licensing software in the field of
 computational chemistry and represents and warrants to the
 licensee that it is not a competitor of Gaussian, Inc. and that
 it will not use this program in any manner prohibited above.
 ---------------------------------------------------------------
  

 Cite this work as:
 Gaussian 09, Revision D.01,
 M. J. Frisch, G. W. Trucks, H. B. Schlegel, G. E. Scuseria, 
 M. A. Robb, J. R. Cheeseman, G. Scalmani, V. Barone, B. Mennucci, 
 G. A. Petersson, H. Nakatsuji, M. Caricato, X. Li, H. P. Hratchian, 
 A. F. Izmaylov, J. Bloino, G. Zheng, J. L. Sonnenberg, M. Hada, 
 M. Ehara, K. Toyota, R. Fukuda, J. Hasegawa, M. Ishida, T. Nakajima, 
 Y. Honda, O. Kitao, H. Nakai, T. Vreven, J. A. Montgomery, Jr., 
 J. E. Peralta, F. Ogliaro, M. Bearpark, J. J. Heyd, E. Brothers, 
 K. N. Kudin, V. N. Staroverov, T. Keith, R. Kobayashi, J. Normand, 
 K. Raghavachari, A. Rendell, J. C. Burant, S. S. Iyengar, J. Tomasi, 
 M. Cossi, N. Rega, J. M. Millam, M. Klene, J. E. Knox, J. B. Cross, 
 V. Bakken, C. Adamo, J. Jaramillo, R. Gomperts, R. E. Stratmann, 
 O. Yazyev, A. J. Austin, R. Cammi, C. Pomelli, J. W. Ochterski, 
 R. L. Martin, K. Morokuma, V. G. Zakrzewski, G. A. Voth, 
 P. Salvador, J. J. Dannenberg, S. Dapprich, A. D. Daniels, 
 O. Farkas, J. B. Foresman, J. V. Ortiz, J. Cioslowski, 
 and D. J. Fox, Gaussian, Inc., Wallingford CT, 2013.
 
 ******************************************
 Gaussian 09:  ES64L-G09RevD.01 24-Apr-2013
                27-Aug-2020 
 ******************************************
 %chk=/home/boittier/MDCM/nms_sampling/methanol_geom.xyz.dir/methanol_952.chk
 %nproc=8
 Will use up to    8 processors via shared memory.
 %mem=16000MB
 --------------------
 #p B2PLYPD3/Def2QZVP
 --------------------
 1/38=1/1;
 2/12=2,17=6,18=5,40=1/2;
 3/5=45,7=101,11=9,16=1,25=1,30=1,74=-60/1,2,3;
 4//1;
 5/5=2,38=5/2;
 8/10=1/1;
 9/16=-3/6;
 6/7=2,8=2,9=2,10=2/1;
 99/5=1,9=1/99;
 Leave Link    1 at Thu Aug 27 00:14:12 2020, MaxMem=  2097152000 cpu:         0.3
 (Enter /opt/cluster/programs/g09/g09_d.01/g09/l101.exe)
 --------
 methanol
 --------
 Symbolic Z-matrix:
 Charge =  0 Multiplicity = 1
 C                    -5.1794   -1.2544    0.91235 
 O                    -3.76384  -1.12361   0.86783 
 H                    -5.49774  -2.2112    0.58633 
 H                    -5.69957  -0.46346   0.34956 
 H                    -5.4985   -1.18826   1.9115 
 H                    -3.49724  -1.1982   -0.13178 
 
 NAtoms=      6 NQM=        6 NQMF=       0 NMMI=      0 NMMIF=      0
                NMic=       0 NMicF=      0.
                    Isotopes and Nuclear Properties:
 (Nuclear quadrupole moments (NQMom) in fm**2, nuclear magnetic moments (NMagM)
  in nuclear magnetons)

  Atom         1           2           3           4           5           6
 IAtWgt=          12          16           1           1           1           1
 AtmWgt=  12.0000000  15.9949146   1.0078250   1.0078250   1.0078250   1.0078250
 NucSpn=           0           0           1           1           1           1
 AtZEff=   0.0000000   0.0000000   0.0000000   0.0000000   0.0000000   0.0000000
 NQMom=    0.0000000   0.0000000   0.0000000   0.0000000   0.0000000   0.0000000
 NMagM=    0.0000000   0.0000000   2.7928460   2.7928460   2.7928460   2.7928460
 AtZNuc=   6.0000000   8.0000000   1.0000000   1.0000000   1.0000000   1.0000000
 Leave Link  101 at Thu Aug 27 00:14:22 2020, MaxMem=  2097152000 cpu:         0.5
 (Enter /opt/cluster/programs/g09/g09_d.01/g09/l202.exe)
                          Input orientation:                          
 ---------------------------------------------------------------------
 Center     Atomic      Atomic             Coordinates (Angstroms)
 Number     Number       Type             X           Y           Z
 ---------------------------------------------------------------------
      1          6           0       -5.179403   -1.254402    0.912348
      2          8           0       -3.763837   -1.123606    0.867834
      3          1           0       -5.497743   -2.211204    0.586329
      4          1           0       -5.699566   -0.463462    0.349557
      5          1           0       -5.498495   -1.188255    1.911496
      6          1           0       -3.497236   -1.198199   -0.131776
 ---------------------------------------------------------------------
                    Distance matrix (angstroms):
                    1          2          3          4          5
     1  C    0.000000
     2  O    1.422293   0.000000
     3  H    1.059764   2.066046   0.000000
     4  H    1.101313   2.109845   1.775217   0.000000
     5  H    1.050948   2.025450   1.674065   1.733611   0.000000
     6  H    1.980666   1.037237   2.354545   2.371029   2.860087
                    6
     6  H    0.000000
 Stoichiometry    CH4O
 Framework group  C1[X(CH4O)]
 Deg. of freedom    12
 Full point group                 C1      NOp   1
 Largest Abelian subgroup         C1      NOp   1
 Largest concise Abelian subgroup C1      NOp   1
                         Standard orientation:                         
 ---------------------------------------------------------------------
 Center     Atomic      Atomic             Coordinates (Angstroms)
 Number     Number       Type             X           Y           Z
 ---------------------------------------------------------------------
      1          6           0        0.664118    0.022607    0.003563
      2          8           0       -0.749338   -0.134686   -0.014277
      3          1           0        1.006678    0.407561    0.929610
      4          1           0        1.036143    0.638377   -0.830291
      5          1           0        1.115304   -0.922812   -0.080738
      6          1           0       -1.148130    0.818722    0.074255
 ---------------------------------------------------------------------
 Rotational constants (GHZ):    128.9395525     24.7026322     23.8192696
 Leave Link  202 at Thu Aug 27 00:14:23 2020, MaxMem=  2097152000 cpu:         0.0
 (Enter /opt/cluster/programs/g09/g09_d.01/g09/l301.exe)
 Standard basis: def2QZVP (5D, 7F)
 Ernie: Thresh=  0.10000D-02 Tol=  0.10000D-05 Strict=F.
 There are   284 symmetry adapted cartesian basis functions of A   symmetry.
 There are   234 symmetry adapted basis functions of A   symmetry.
   234 basis functions,   336 primitive gaussians,   284 cartesian basis functions
     9 alpha electrons        9 beta electrons
       nuclear repulsion energy        40.1415017842 Hartrees.
 IExCor=  419 DFT=T Ex+Corr=B2PLYPD3 ExCW=0 ScaHFX=  0.530000
 ScaDFX=  0.470000  0.470000  0.730000  0.730000 ScalE2=  0.270000  0.270000
 IRadAn=      0 IRanWt=     -1 IRanGd=            0 ICorTp=0 IEmpDi=141
 NAtoms=    6 NActive=    6 NUniq=    6 SFac= 1.00D+00 NAtFMM=   60 NAOKFM=F Big=F
 Integral buffers will be    131072 words long.
 Regular integral format.
 Two-electron integral symmetry is turned on.
 R6Disp:  Grimme-D3(BJ) Dispersion energy=       -0.0013066178 Hartrees.
 Nuclear repulsion after empirical dispersion term =       40.1401951664 Hartrees.
 Leave Link  301 at Thu Aug 27 00:14:24 2020, MaxMem=  2097152000 cpu:         0.4
 (Enter /opt/cluster/programs/g09/g09_d.01/g09/l302.exe)
 NPDir=0 NMtPBC=     1 NCelOv=     1 NCel=       1 NClECP=     1 NCelD=      1
         NCelK=      1 NCelE2=     1 NClLst=     1 CellRange=     0.0.
 One-electron integrals computed using PRISM.
   1 Symmetry operations used in ECPInt.
 ECPInt:  NShTT=    2775 NPrTT=    6207 LenC2=    2774 LenP2D=    5733.
 LDataN:  DoStor=T MaxTD1= 8 Len=  415
 NBasis=   234 RedAO= T EigKep=  1.18D-04  NBF=   234
 NBsUse=   234 1.00D-06 EigRej= -1.00D+00 NBFU=   234
 Precomputing XC quadrature grid using
 IXCGrd= 4 IRadAn=           0 IRanWt=          -1 IRanGd=           0 AccXCQ= 0.00D+00.
 Generated NRdTot=       0 NPtTot=           0 NUsed=           0 NTot=          32
 NSgBfM=   284   284   284   284   284 MxSgAt=     6 MxSgA2=     6.
 Leave Link  302 at Thu Aug 27 00:14:25 2020, MaxMem=  2097152000 cpu:         2.1
 (Enter /opt/cluster/programs/g09/g09_d.01/g09/l303.exe)
 DipDrv:  MaxL=1.
 Leave Link  303 at Thu Aug 27 00:14:26 2020, MaxMem=  2097152000 cpu:         0.2
 (Enter /opt/cluster/programs/g09/g09_d.01/g09/l401.exe)
 ExpMin= 7.60D-02 ExpMax= 1.17D+05 ExpMxC= 1.13D+03 IAcc=2 IRadAn=         4 AccDes= 0.00D+00
 Harris functional with IExCor=  419 and IRadAn=       4 diagonalized for initial guess.
 HarFok:  IExCor=  419 AccDes= 0.00D+00 IRadAn=         4 IDoV= 1 UseB2=F ITyADJ=14
 ICtDFT=  3500011 ScaDFX=  1.000000  1.000000  1.000000  1.000000
 FoFCou: FMM=F IPFlag=           0 FMFlag=      100000 FMFlg1=           0
         NFxFlg=           0 DoJE=T BraDBF=F KetDBF=T FulRan=T
         wScrn=  0.000000 ICntrl=     500 IOpCl=  0 I1Cent=   200000004 NGrid=           0
         NMat0=    1 NMatS0=      1 NMatT0=    0 NMatD0=    1 NMtDS0=    0 NMtDT0=    0
 Petite list used in FoFCou.
 Harris En= -115.818946923936    
 JPrj=0 DoOrth=F DoCkMO=F.
 Leave Link  401 at Thu Aug 27 00:14:27 2020, MaxMem=  2097152000 cpu:         3.6
 (Enter /opt/cluster/programs/g09/g09_d.01/g09/l502.exe)
 Closed shell SCF:
 Using DIIS extrapolation, IDIIS=  1040.
 Integral symmetry usage will be decided dynamically.
 Keep R1 ints in memory in canonical form, NReq=389840494.
 IVT=      264814 IEndB=      264814 NGot=  2097152000 MDV=  1718885927
 LenX=  1718885927 LenY=  1718804830
 Requested convergence on RMS density matrix=1.00D-08 within 128 cycles.
 Requested convergence on MAX density matrix=1.00D-06.
 Requested convergence on             energy=1.00D-06.
 No special actions if energy rises.
 FoFCou: FMM=F IPFlag=           0 FMFlag=           0 FMFlg1=           0
         NFxFlg=           0 DoJE=F BraDBF=F KetDBF=F FulRan=T
         wScrn=  0.000000 ICntrl=     600 IOpCl=  0 I1Cent=           0 NGrid=           0
         NMat0=    1 NMatS0=  27495 NMatT0=    0 NMatD0=    1 NMtDS0=    0 NMtDT0=    0
 Symmetry not used in FoFCou.
 Integral accuracy reduced to 1.0D-05 until final iterations.

 Cycle   1  Pass 0  IDiag  1:
 E= -115.443646035973    
 DIIS: error= 2.78D-02 at cycle   1 NSaved=   1.
 NSaved= 1 IEnMin= 1 EnMin= -115.443646035973     IErMin= 1 ErrMin= 2.78D-02
 ErrMax= 2.78D-02  0.00D+00 EMaxC= 1.00D-01 BMatC= 1.75D-01 BMatP= 1.75D-01
 IDIUse=3 WtCom= 7.22D-01 WtEn= 2.78D-01
 Coeff-Com:  0.100D+01
 Coeff-En:   0.100D+01
 Coeff:      0.100D+01
 Gap=     0.322 Goal=   None    Shift=    0.000
 GapD=    0.322 DampG=1.000 DampE=0.500 DampFc=0.5000 IDamp=-1.
 Damping current iteration by 5.00D-01
 RMSDP=1.33D-03 MaxDP=4.51D-02              OVMax= 1.36D-01

 Cycle   2  Pass 0  IDiag  1:
 E= -115.493187750103     Delta-E=       -0.049541714130 Rises=F Damp=T
 DIIS: error= 1.00D-02 at cycle   2 NSaved=   2.
 NSaved= 2 IEnMin= 2 EnMin= -115.493187750103     IErMin= 2 ErrMin= 1.00D-02
 ErrMax= 1.00D-02  0.00D+00 EMaxC= 1.00D-01 BMatC= 1.91D-02 BMatP= 1.75D-01
 IDIUse=3 WtCom= 9.00D-01 WtEn= 1.00D-01
 Coeff-Com: -0.129D+00 0.113D+01
 Coeff-En:   0.000D+00 0.100D+01
 Coeff:     -0.116D+00 0.112D+01
 Gap=     0.418 Goal=   None    Shift=    0.000
 RMSDP=3.55D-04 MaxDP=9.66D-03 DE=-4.95D-02 OVMax= 8.31D-02

 Cycle   3  Pass 0  IDiag  1:
 E= -115.541156868191     Delta-E=       -0.047969118088 Rises=F Damp=F
 DIIS: error= 4.79D-03 at cycle   3 NSaved=   3.
 NSaved= 3 IEnMin= 3 EnMin= -115.541156868191     IErMin= 3 ErrMin= 4.79D-03
 ErrMax= 4.79D-03  0.00D+00 EMaxC= 1.00D-01 BMatC= 5.18D-03 BMatP= 1.91D-02
 IDIUse=3 WtCom= 9.52D-01 WtEn= 4.79D-02
 Coeff-Com: -0.141D+00 0.373D+00 0.768D+00
 Coeff-En:   0.000D+00 0.000D+00 0.100D+01
 Coeff:     -0.135D+00 0.355D+00 0.779D+00
 Gap=     0.399 Goal=   None    Shift=    0.000
 RMSDP=1.36D-04 MaxDP=5.32D-03 DE=-4.80D-02 OVMax= 1.67D-02

 Cycle   4  Pass 0  IDiag  1:
 E= -115.544079309094     Delta-E=       -0.002922440903 Rises=F Damp=F
 DIIS: error= 1.78D-03 at cycle   4 NSaved=   4.
 NSaved= 4 IEnMin= 4 EnMin= -115.544079309094     IErMin= 4 ErrMin= 1.78D-03
 ErrMax= 1.78D-03  0.00D+00 EMaxC= 1.00D-01 BMatC= 6.62D-04 BMatP= 5.18D-03
 IDIUse=3 WtCom= 9.82D-01 WtEn= 1.78D-02
 Coeff-Com: -0.502D-01 0.902D-01 0.347D+00 0.613D+00
 Coeff-En:   0.000D+00 0.000D+00 0.117D-01 0.988D+00
 Coeff:     -0.493D-01 0.886D-01 0.341D+00 0.619D+00
 Gap=     0.397 Goal=   None    Shift=    0.000
 RMSDP=4.24D-05 MaxDP=1.89D-03 DE=-2.92D-03 OVMax= 6.20D-03

 Cycle   5  Pass 0  IDiag  1:
 E= -115.544580686102     Delta-E=       -0.000501377008 Rises=F Damp=F
 DIIS: error= 1.77D-04 at cycle   5 NSaved=   5.
 NSaved= 5 IEnMin= 5 EnMin= -115.544580686102     IErMin= 5 ErrMin= 1.77D-04
 ErrMax= 1.77D-04  0.00D+00 EMaxC= 1.00D-01 BMatC= 6.44D-06 BMatP= 6.62D-04
 IDIUse=3 WtCom= 9.98D-01 WtEn= 1.77D-03
 Coeff-Com: -0.750D-02 0.950D-02 0.579D-01 0.156D+00 0.784D+00
 Coeff-En:   0.000D+00 0.000D+00 0.000D+00 0.000D+00 0.100D+01
 Coeff:     -0.749D-02 0.948D-02 0.578D-01 0.155D+00 0.785D+00
 Gap=     0.397 Goal=   None    Shift=    0.000
 RMSDP=6.49D-06 MaxDP=1.80D-04 DE=-5.01D-04 OVMax= 5.56D-04

 Initial convergence to 1.0D-05 achieved.  Increase integral accuracy.
 Cycle   6  Pass 1  IDiag  1:
 E= -115.544595518236     Delta-E=       -0.000014832135 Rises=F Damp=F
 DIIS: error= 1.56D-05 at cycle   1 NSaved=   1.
 NSaved= 1 IEnMin= 1 EnMin= -115.544595518236     IErMin= 1 ErrMin= 1.56D-05
 ErrMax= 1.56D-05  0.00D+00 EMaxC= 1.00D-01 BMatC= 7.69D-08 BMatP= 7.69D-08
 IDIUse=1 WtCom= 1.00D+00 WtEn= 0.00D+00
 Coeff-Com:  0.100D+01
 Coeff:      0.100D+01
 Gap=     0.398 Goal=   None    Shift=    0.000
 RMSDP=6.49D-06 MaxDP=1.80D-04 DE=-1.48D-05 OVMax= 1.21D-04

 Cycle   7  Pass 1  IDiag  1:
 E= -115.544595632129     Delta-E=       -0.000000113892 Rises=F Damp=F
 DIIS: error= 4.30D-06 at cycle   2 NSaved=   2.
 NSaved= 2 IEnMin= 2 EnMin= -115.544595632129     IErMin= 2 ErrMin= 4.30D-06
 ErrMax= 4.30D-06  0.00D+00 EMaxC= 1.00D-01 BMatC= 4.49D-09 BMatP= 7.69D-08
 IDIUse=1 WtCom= 1.00D+00 WtEn= 0.00D+00
 Coeff-Com: -0.784D-01 0.108D+01
 Coeff:     -0.784D-01 0.108D+01
 Gap=     0.398 Goal=   None    Shift=    0.000
 RMSDP=4.17D-07 MaxDP=1.47D-05 DE=-1.14D-07 OVMax= 4.19D-05

 Cycle   8  Pass 1  IDiag  1:
 E= -115.544595641075     Delta-E=       -0.000000008946 Rises=F Damp=F
 DIIS: error= 2.42D-06 at cycle   3 NSaved=   3.
 NSaved= 3 IEnMin= 3 EnMin= -115.544595641075     IErMin= 3 ErrMin= 2.42D-06
 ErrMax= 2.42D-06  0.00D+00 EMaxC= 1.00D-01 BMatC= 8.48D-10 BMatP= 4.49D-09
 IDIUse=1 WtCom= 1.00D+00 WtEn= 0.00D+00
 Coeff-Com: -0.717D-01 0.243D+00 0.829D+00
 Coeff:     -0.717D-01 0.243D+00 0.829D+00
 Gap=     0.398 Goal=   None    Shift=    0.000
 RMSDP=1.23D-07 MaxDP=5.11D-06 DE=-8.95D-09 OVMax= 1.41D-05

 Cycle   9  Pass 1  IDiag  1:
 E= -115.544595642023     Delta-E=       -0.000000000948 Rises=F Damp=F
 DIIS: error= 8.26D-07 at cycle   4 NSaved=   4.
 NSaved= 4 IEnMin= 4 EnMin= -115.544595642023     IErMin= 4 ErrMin= 8.26D-07
 ErrMax= 8.26D-07  0.00D+00 EMaxC= 1.00D-01 BMatC= 1.22D-10 BMatP= 8.48D-10
 IDIUse=1 WtCom= 1.00D+00 WtEn= 0.00D+00
 Coeff-Com: -0.175D-01-0.919D-02 0.284D+00 0.742D+00
 Coeff:     -0.175D-01-0.919D-02 0.284D+00 0.742D+00
 Gap=     0.398 Goal=   None    Shift=    0.000
 RMSDP=3.14D-08 MaxDP=1.27D-06 DE=-9.48D-10 OVMax= 4.81D-06

 Cycle  10  Pass 1  IDiag  1:
 E= -115.544595642137     Delta-E=       -0.000000000114 Rises=F Damp=F
 DIIS: error= 2.38D-07 at cycle   5 NSaved=   5.
 NSaved= 5 IEnMin= 5 EnMin= -115.544595642137     IErMin= 5 ErrMin= 2.38D-07
 ErrMax= 2.38D-07  0.00D+00 EMaxC= 1.00D-01 BMatC= 1.19D-11 BMatP= 1.22D-10
 IDIUse=1 WtCom= 1.00D+00 WtEn= 0.00D+00
 Coeff-Com:  0.292D-03-0.248D-01 0.278D-01 0.262D+00 0.734D+00
 Coeff:      0.292D-03-0.248D-01 0.278D-01 0.262D+00 0.734D+00
 Gap=     0.398 Goal=   None    Shift=    0.000
 RMSDP=9.88D-09 MaxDP=4.78D-07 DE=-1.14D-10 OVMax= 1.42D-06

 SCF Done:  E(RB2PLYPD3) =  -115.544595642     A.U. after   10 cycles
            NFock= 10  Conv=0.99D-08     -V/T= 2.0034
 KE= 1.151516556258D+02 PE=-3.518392978210D+02 EE= 8.100285138671D+01
 Leave Link  502 at Thu Aug 27 00:14:42 2020, MaxMem=  2097152000 cpu:        73.5
 (Enter /opt/cluster/programs/g09/g09_d.01/g09/l801.exe)
 DoSCS=T DFT=T ScalE2(SS,OS)=  0.270000  0.270000
 ExpMin= 7.60D-02 ExpMax= 1.17D+05 ExpMxC= 1.13D+03 IAcc=3 IRadAn=         5 AccDes= 0.00D+00
 HarFok:  IExCor=  205 AccDes= 0.00D+00 IRadAn=         5 IDoV=-2 UseB2=F ITyADJ=14
 ICtDFT= 12500011 ScaDFX=  1.000000  1.000000  1.000000  1.000000
 Largest valence mixing into a core orbital is  1.13D-04
 Largest core mixing into a valence orbital is  1.49D-05
 Range of M.O.s used for correlation:     3   234
 NBasis=   234 NAE=     9 NBE=     9 NFC=     2 NFV=     0
 NROrb=    232 NOA=     7 NOB=     7 NVA=   225 NVB=   225

 **** Warning!!: The largest alpha MO coefficient is  0.24492961D+02

 Leave Link  801 at Thu Aug 27 00:14:43 2020, MaxMem=  2097152000 cpu:         0.6
 (Enter /opt/cluster/programs/g09/g09_d.01/g09/l906.exe)
 DoSCS=T DFT=T ScalE2(SS,OS)=  0.270000  0.270000
 FulOut=F Deriv=F AODrv=F NAtomX=     6
   MMem=        3646  MDisk=           7 MDiskD=           7
  W3Min=      447300 MinDsk=     1090093 NBas6D=         284
 NBas2D=       41310    NTT=       40470    LW2=     4508827
    MDV=  2096872478 MDiskM=       16391 NBas2p=       41304
 Fully in-core method, ICMem=  1722292712.
 IMap=   1   2   3   4   5   6   7
 JobTyp=1 Pass  1 fully in-core, NPsUse=  8.
 Compute canonical integrals.
 FoFCou: FMM=F IPFlag=           0 FMFlag=           0 FMFlg1=           0
         NFxFlg=           0 DoJE=F BraDBF=F KetDBF=F FulRan=T
         wScrn=  0.000000 ICntrl=     600 IOpCl=  1 I1Cent=           0 NGrid=           0
         NMat0=    1 NMatS0=  41310 NMatT0=    0 NMatD0=    1 NMtDS0=    0 NMtDT0=    0
 Symmetry not used in FoFCou.
 Spin components of T(2) and E(2):
     alpha-alpha T2 =       0.2141234264D-01 E2=     -0.1688686684D-01
     alpha-beta  T2 =       0.1344500949D+00 E2=     -0.1147695405D+00
     beta-beta   T2 =       0.2141234264D-01 E2=     -0.1688686684D-01
 The integrals were generated   1 times.
 E2(B2PLYPD3) =    -0.1485432741D+00 E(B2PLYPD3) =    -0.11569313891627D+03
 Leave Link  906 at Thu Aug 27 00:15:00 2020, MaxMem=  2097152000 cpu:       133.2
 (Enter /opt/cluster/programs/g09/g09_d.01/g09/l601.exe)
 Copying SCF densities to generalized density rwf, IOpCl= 0 IROHF=0.

 **********************************************************************

            Population analysis using the SCF density.

 **********************************************************************

 Orbital symmetries:
       Occupied  (A) (A) (A) (A) (A) (A) (A) (A) (A)
       Virtual   (A) (A) (A) (A) (A) (A) (A) (A) (A) (A) (A) (A)
                 (A) (A) (A) (A) (A) (A) (A) (A) (A) (A) (A) (A)
                 (A) (A) (A) (A) (A) (A) (A) (A) (A) (A) (A) (A)
                 (A) (A) (A) (A) (A) (A) (A) (A) (A) (A) (A) (A)
                 (A) (A) (A) (A) (A) (A) (A) (A) (A) (A) (A) (A)
                 (A) (A) (A) (A) (A) (A) (A) (A) (A) (A) (A) (A)
                 (A) (A) (A) (A) (A) (A) (A) (A) (A) (A) (A) (A)
                 (A) (A) (A) (A) (A) (A) (A) (A) (A) (A) (A) (A)
                 (A) (A) (A) (A) (A) (A) (A) (A) (A) (A) (A) (A)
                 (A) (A) (A) (A) (A) (A) (A) (A) (A) (A) (A) (A)
                 (A) (A) (A) (A) (A) (A) (A) (A) (A) (A) (A) (A)
                 (A) (A) (A) (A) (A) (A) (A) (A) (A) (A) (A) (A)
                 (A) (A) (A) (A) (A) (A) (A) (A) (A) (A) (A) (A)
                 (A) (A) (A) (A) (A) (A) (A) (A) (A) (A) (A) (A)
                 (A) (A) (A) (A) (A) (A) (A) (A) (A) (A) (A) (A)
                 (A) (A) (A) (A) (A) (A) (A) (A) (A) (A) (A) (A)
                 (A) (A) (A) (A) (A) (A) (A) (A) (A) (A) (A) (A)
                 (A) (A) (A) (A) (A) (A) (A) (A) (A) (A) (A) (A)
                 (A) (A) (A) (A) (A) (A) (A) (A) (A)
 The electronic state is 1-A.
 Alpha  occ. eigenvalues --  -19.73235 -10.64823  -1.14722  -0.78685  -0.57391
 Alpha  occ. eigenvalues --   -0.52014  -0.50043  -0.40860  -0.35337
 Alpha virt. eigenvalues --    0.04424   0.07957   0.12361   0.12753   0.14699
 Alpha virt. eigenvalues --    0.17539   0.18336   0.29047   0.31966   0.33416
 Alpha virt. eigenvalues --    0.33786   0.39026   0.40432   0.41345   0.43815
 Alpha virt. eigenvalues --    0.45871   0.52780   0.55199   0.58555   0.66590
 Alpha virt. eigenvalues --    0.71498   0.73225   0.76660   0.79046   0.80452
 Alpha virt. eigenvalues --    0.82554   0.85508   0.87982   0.93061   0.96821
 Alpha virt. eigenvalues --    0.98489   1.00509   1.03448   1.08396   1.11069
 Alpha virt. eigenvalues --    1.13083   1.13912   1.20709   1.30012   1.41860
 Alpha virt. eigenvalues --    1.42201   1.46591   1.47815   1.48756   1.52200
 Alpha virt. eigenvalues --    1.76565   1.82408   1.84008   1.85629   1.88143
 Alpha virt. eigenvalues --    1.91216   1.94856   1.96444   1.97688   2.02942
 Alpha virt. eigenvalues --    2.08558   2.14417   2.17861   2.22424   2.23792
 Alpha virt. eigenvalues --    2.25620   2.27624   2.30477   2.35805   2.37519
 Alpha virt. eigenvalues --    2.44571   2.49645   2.54382   2.58055   2.62846
 Alpha virt. eigenvalues --    2.63449   2.64869   2.67527   2.73576   2.80073
 Alpha virt. eigenvalues --    2.85474   2.87336   2.90435   2.93855   3.00045
 Alpha virt. eigenvalues --    3.04394   3.05714   3.12411   3.16276   3.22052
 Alpha virt. eigenvalues --    3.28196   3.32118   3.39110   3.40327   3.50810
 Alpha virt. eigenvalues --    3.52551   3.66761   3.72228   3.89152   3.94505
 Alpha virt. eigenvalues --    3.97229   4.00120   4.00364   4.08135   4.16890
 Alpha virt. eigenvalues --    4.22028   4.24616   4.33752   4.38229   4.45398
 Alpha virt. eigenvalues --    4.53100   4.55913   4.61570   4.80541   5.17900
 Alpha virt. eigenvalues --    5.22491   5.40653   5.49033   5.49430   5.55865
 Alpha virt. eigenvalues --    5.57789   5.71446   5.79485   5.81501   5.83970
 Alpha virt. eigenvalues --    5.93824   5.95722   6.00438   6.09132   6.10200
 Alpha virt. eigenvalues --    6.17966   6.25795   6.30001   6.30856   6.34986
 Alpha virt. eigenvalues --    6.37913   6.40050   6.48264   6.52010   6.60859
 Alpha virt. eigenvalues --    6.64431   6.68025   6.71103   6.76660   6.79589
 Alpha virt. eigenvalues --    6.88139   6.91913   6.94027   7.03283   7.18148
 Alpha virt. eigenvalues --    7.25472   7.30807   7.37146   7.45296   7.53386
 Alpha virt. eigenvalues --    7.57201   7.58234   7.63800   7.65290   7.67091
 Alpha virt. eigenvalues --    7.76097   7.77913   7.79357   7.87806   7.89129
 Alpha virt. eigenvalues --    7.91888   7.94764   8.04298   8.11460   8.17613
 Alpha virt. eigenvalues --    8.19606   8.22918   8.41256   8.42686   8.43967
 Alpha virt. eigenvalues --    8.46635   8.49681   8.51923   8.54191   8.55772
 Alpha virt. eigenvalues --    8.59427   8.61662   8.66779   8.69515   8.82458
 Alpha virt. eigenvalues --    8.88631   8.93882   8.99252   9.08932   9.15120
 Alpha virt. eigenvalues --    9.23200   9.50703   9.63430   9.79384   9.84992
 Alpha virt. eigenvalues --    9.90686  10.05247  10.08484  10.15234  10.25772
 Alpha virt. eigenvalues --   10.30496  10.32553  10.42845  10.57614  10.61849
 Alpha virt. eigenvalues --   10.74694  10.82077  11.08087  11.22562  11.56746
 Alpha virt. eigenvalues --   11.61573  11.63925  11.70499  11.83968  11.84985
 Alpha virt. eigenvalues --   12.06452  12.21228  12.35084  12.74779  12.76257
 Alpha virt. eigenvalues --   13.10612  13.45630  13.53897  13.89625  14.59073
 Alpha virt. eigenvalues --   15.98586  29.32813  48.64608 148.94797 254.38247
          Condensed to atoms (all electrons):
               1          2          3          4          5          6
     1  C    4.430519   0.268868   0.438433   0.440178   0.396119  -0.047813
     2  O    0.268868   8.015505  -0.047476  -0.048665  -0.033177   0.323098
     3  H    0.438433  -0.047476   0.661027  -0.051583  -0.042368  -0.007113
     4  H    0.440178  -0.048665  -0.051583   0.663396  -0.040324  -0.007341
     5  H    0.396119  -0.033177  -0.042368  -0.040324   0.641514   0.010955
     6  H   -0.047813   0.323098  -0.007113  -0.007341   0.010955   0.484457
 Mulliken charges:
               1
     1  C    0.073695
     2  O   -0.478153
     3  H    0.049081
     4  H    0.044340
     5  H    0.067280
     6  H    0.243757
 Sum of Mulliken charges =   0.00000
 Mulliken charges with hydrogens summed into heavy atoms:
               1
     1  C    0.234396
     2  O   -0.234396
 Electronic spatial extent (au):  <R**2>=             84.6581
 Charge=              0.0000 electrons
 Dipole moment (field-independent basis, Debye):
    X=              0.9135    Y=              1.5397    Z=              0.1828  Tot=              1.7996
 Quadrupole moment (field-independent basis, Debye-Ang):
   XX=            -12.9832   YY=            -12.1877   ZZ=            -13.7744
   XY=             -2.3942   XZ=             -0.1900   YZ=              0.1006
 Traceless Quadrupole moment (field-independent basis, Debye-Ang):
   XX=             -0.0014   YY=              0.7940   ZZ=             -0.7927
   XY=             -2.3942   XZ=             -0.1900   YZ=              0.1006
 Octapole moment (field-independent basis, Debye-Ang**2):
  XXX=             -3.7162  YYY=              0.7050  ZZZ=              0.2918  XYY=             -1.9672
  XXY=              2.3171  XXZ=              0.2850  XZZ=             -0.1296  YZZ=              0.5236
  YYZ=             -0.0260  XYZ=             -0.2258
 Hexadecapole moment (field-independent basis, Debye-Ang**3):
 XXXX=            -62.8562 YYYY=            -20.3012 ZZZZ=            -20.0299 XXXY=             -4.2698
 XXXZ=             -0.2240 YYYX=             -3.2427 YYYZ=              0.1847 ZZZX=              0.1575
 ZZZY=              0.0729 XXYY=            -12.6504 XXZZ=            -14.6240 YYZZ=             -6.9213
 XXYZ=              0.1634 YYXZ=             -0.3070 ZZXY=              0.0515
 N-N= 4.014019516641D+01 E-N=-3.518393171741D+02  KE= 1.151516556258D+02
 Leave Link  601 at Thu Aug 27 00:15:07 2020, MaxMem=  2097152000 cpu:         0.3
 (Enter /opt/cluster/programs/g09/g09_d.01/g09/l9999.exe)
 1\1\GINC-NODE40\SP\RB2PLYPD3-FC\def2QZVP\C1H4O1\BOITTIER\27-Aug-2020\0
 \\#p B2PLYPD3/Def2QZVP\\methanol\\0,1\C,0,-5.179403,-1.254402,0.912348
 \O,0,-3.763837,-1.123606,0.867834\H,0,-5.497743,-2.211204,0.586329\H,0
 ,-5.699566,-0.463462,0.349557\H,0,-5.498495,-1.188255,1.911496\H,0,-3.
 497236,-1.198199,-0.131776\\Version=ES64L-G09RevD.01\State=1-A\HF=-115
 .5445956\MP2=-115.6931389\RMSD=9.878e-09\PG=C01 [X(C1H4O1)]\\@


 AN AIRPLANE IS A COLLECTION OF SPARE PARTS
 FLYING IN CLOSE FORMATION.
 Job cpu time:       0 days  0 hours  3 minutes 35.3 seconds.
 File lengths (MBytes):  RWF=     23 Int=      0 D2E=      0 Chk=      4 Scr=      1
 Normal termination of Gaussian 09 at Thu Aug 27 00:15:09 2020.
