 Entering Gaussian System, Link 0=/opt/cluster/programs/g09/g09_d.01/g09//g09
 Input=/home/boittier/MDCM/nms_sampling/methanol_geom.xyz.dir/energies/methanol_40_energy.com
 Output=/scratch/boittier/methanol_40_energy/methanol_40_energy.out
 Initial command:
 /opt/cluster/programs/g09/g09_d.01/g09/l1.exe "/scratch/boittier/methanol_40_energy/Gau-166004.inp" -scrdir="/scratch/boittier/methanol_40_energy/"
 Entering Link 1 = /opt/cluster/programs/g09/g09_d.01/g09/l1.exe PID=    166005.
  
 Copyright (c) 1988,1990,1992,1993,1995,1998,2003,2009,2013,
            Gaussian, Inc.  All Rights Reserved.
  
 This is part of the Gaussian(R) 09 program.  It is based on
 the Gaussian(R) 03 system (copyright 2003, Gaussian, Inc.),
 the Gaussian(R) 98 system (copyright 1998, Gaussian, Inc.),
 the Gaussian(R) 94 system (copyright 1995, Gaussian, Inc.),
 the Gaussian 92(TM) system (copyright 1992, Gaussian, Inc.),
 the Gaussian 90(TM) system (copyright 1990, Gaussian, Inc.),
 the Gaussian 88(TM) system (copyright 1988, Gaussian, Inc.),
 the Gaussian 86(TM) system (copyright 1986, Carnegie Mellon
 University), and the Gaussian 82(TM) system (copyright 1983,
 Carnegie Mellon University). Gaussian is a federally registered
 trademark of Gaussian, Inc.
  
 This software contains proprietary and confidential information,
 including trade secrets, belonging to Gaussian, Inc.
  
 This software is provided under written license and may be
 used, copied, transmitted, or stored only in accord with that
 written license.
  
 The following legend is applicable only to US Government
 contracts under FAR:
  
                    RESTRICTED RIGHTS LEGEND
  
 Use, reproduction and disclosure by the US Government is
 subject to restrictions as set forth in subparagraphs (a)
 and (c) of the Commercial Computer Software - Restricted
 Rights clause in FAR 52.227-19.
  
 Gaussian, Inc.
 340 Quinnipiac St., Bldg. 40, Wallingford CT 06492
  
  
 ---------------------------------------------------------------
 Warning -- This program may not be used in any manner that
 competes with the business of Gaussian, Inc. or will provide
 assistance to any competitor of Gaussian, Inc.  The licensee
 of this program is prohibited from giving any competitor of
 Gaussian, Inc. access to this program.  By using this program,
 the user acknowledges that Gaussian, Inc. is engaged in the
 business of creating and licensing software in the field of
 computational chemistry and represents and warrants to the
 licensee that it is not a competitor of Gaussian, Inc. and that
 it will not use this program in any manner prohibited above.
 ---------------------------------------------------------------
  

 Cite this work as:
 Gaussian 09, Revision D.01,
 M. J. Frisch, G. W. Trucks, H. B. Schlegel, G. E. Scuseria, 
 M. A. Robb, J. R. Cheeseman, G. Scalmani, V. Barone, B. Mennucci, 
 G. A. Petersson, H. Nakatsuji, M. Caricato, X. Li, H. P. Hratchian, 
 A. F. Izmaylov, J. Bloino, G. Zheng, J. L. Sonnenberg, M. Hada, 
 M. Ehara, K. Toyota, R. Fukuda, J. Hasegawa, M. Ishida, T. Nakajima, 
 Y. Honda, O. Kitao, H. Nakai, T. Vreven, J. A. Montgomery, Jr., 
 J. E. Peralta, F. Ogliaro, M. Bearpark, J. J. Heyd, E. Brothers, 
 K. N. Kudin, V. N. Staroverov, T. Keith, R. Kobayashi, J. Normand, 
 K. Raghavachari, A. Rendell, J. C. Burant, S. S. Iyengar, J. Tomasi, 
 M. Cossi, N. Rega, J. M. Millam, M. Klene, J. E. Knox, J. B. Cross, 
 V. Bakken, C. Adamo, J. Jaramillo, R. Gomperts, R. E. Stratmann, 
 O. Yazyev, A. J. Austin, R. Cammi, C. Pomelli, J. W. Ochterski, 
 R. L. Martin, K. Morokuma, V. G. Zakrzewski, G. A. Voth, 
 P. Salvador, J. J. Dannenberg, S. Dapprich, A. D. Daniels, 
 O. Farkas, J. B. Foresman, J. V. Ortiz, J. Cioslowski, 
 and D. J. Fox, Gaussian, Inc., Wallingford CT, 2013.
 
 ******************************************
 Gaussian 09:  ES64L-G09RevD.01 24-Apr-2013
                26-Aug-2020 
 ******************************************
 %chk=/home/boittier/MDCM/nms_sampling/methanol_geom.xyz.dir/methanol_40.chk
 %nproc=8
 Will use up to    8 processors via shared memory.
 %mem=16000MB
 --------------------
 #p B2PLYPD3/Def2QZVP
 --------------------
 1/38=1/1;
 2/12=2,17=6,18=5,40=1/2;
 3/5=45,7=101,11=9,16=1,25=1,30=1,74=-60/1,2,3;
 4//1;
 5/5=2,38=5/2;
 8/10=1/1;
 9/16=-3/6;
 6/7=2,8=2,9=2,10=2/1;
 99/5=1,9=1/99;
 Leave Link    1 at Wed Aug 26 23:58:37 2020, MaxMem=  2097152000 cpu:         0.3
 (Enter /opt/cluster/programs/g09/g09_d.01/g09/l101.exe)
 --------
 methanol
 --------
 Symbolic Z-matrix:
 Charge =  0 Multiplicity = 1
 C                    -5.18968  -1.26208   0.91598 
 O                    -3.76263  -1.12041   0.85361 
 H                    -5.52117  -2.23014   0.55238 
 H                    -5.65003  -0.43062   0.33584 
 H                    -5.44216  -1.14926   1.98895 
 H                    -3.48123  -1.20954   0.02689 
 
 NAtoms=      6 NQM=        6 NQMF=       0 NMMI=      0 NMMIF=      0
                NMic=       0 NMicF=      0.
                    Isotopes and Nuclear Properties:
 (Nuclear quadrupole moments (NQMom) in fm**2, nuclear magnetic moments (NMagM)
  in nuclear magnetons)

  Atom         1           2           3           4           5           6
 IAtWgt=          12          16           1           1           1           1
 AtmWgt=  12.0000000  15.9949146   1.0078250   1.0078250   1.0078250   1.0078250
 NucSpn=           0           0           1           1           1           1
 AtZEff=   0.0000000   0.0000000   0.0000000   0.0000000   0.0000000   0.0000000
 NQMom=    0.0000000   0.0000000   0.0000000   0.0000000   0.0000000   0.0000000
 NMagM=    0.0000000   0.0000000   2.7928460   2.7928460   2.7928460   2.7928460
 AtZNuc=   6.0000000   8.0000000   1.0000000   1.0000000   1.0000000   1.0000000
 Leave Link  101 at Wed Aug 26 23:58:40 2020, MaxMem=  2097152000 cpu:         0.5
 (Enter /opt/cluster/programs/g09/g09_d.01/g09/l202.exe)
                          Input orientation:                          
 ---------------------------------------------------------------------
 Center     Atomic      Atomic             Coordinates (Angstroms)
 Number     Number       Type             X           Y           Z
 ---------------------------------------------------------------------
      1          6           0       -5.189685   -1.262080    0.915976
      2          8           0       -3.762632   -1.120412    0.853610
      3          1           0       -5.521174   -2.230138    0.552384
      4          1           0       -5.650031   -0.430617    0.335842
      5          1           0       -5.442157   -1.149258    1.988948
      6          1           0       -3.481232   -1.209535    0.026885
 ---------------------------------------------------------------------
                    Distance matrix (angstroms):
                    1          2          3          4          5
     1  C    0.000000
     2  O    1.435423   0.000000
     3  H    1.085919   2.101118   0.000000
     4  H    1.113465   2.075133   1.817077   0.000000
     5  H    1.108034   2.027469   1.799517   1.814502   0.000000
     6  H    1.926670   0.877840   2.340757   2.325050   2.774626
                    6
     6  H    0.000000
 Stoichiometry    CH4O
 Framework group  C1[X(CH4O)]
 Deg. of freedom    12
 Full point group                 C1      NOp   1
 Largest Abelian subgroup         C1      NOp   1
 Largest concise Abelian subgroup C1      NOp   1
                         Standard orientation:                         
 ---------------------------------------------------------------------
 Center     Atomic      Atomic             Coordinates (Angstroms)
 Number     Number       Type             X           Y           Z
 ---------------------------------------------------------------------
      1          6           0        0.677483   -0.021874   -0.005471
      2          8           0       -0.751841    0.110168    0.000597
      3          1           0        1.036638   -0.543035   -0.887865
      4          1           0        0.985077   -0.544296    0.928480
      5          1           0        1.061262    1.017489    0.007915
      6          1           0       -1.133143   -0.680255   -0.020476
 ---------------------------------------------------------------------
 Rotational constants (GHZ):    128.8323778     24.5133540     23.8261703
 Leave Link  202 at Wed Aug 26 23:58:41 2020, MaxMem=  2097152000 cpu:         0.0
 (Enter /opt/cluster/programs/g09/g09_d.01/g09/l301.exe)
 Standard basis: def2QZVP (5D, 7F)
 Ernie: Thresh=  0.10000D-02 Tol=  0.10000D-05 Strict=F.
 There are   284 symmetry adapted cartesian basis functions of A   symmetry.
 There are   234 symmetry adapted basis functions of A   symmetry.
   234 basis functions,   336 primitive gaussians,   284 cartesian basis functions
     9 alpha electrons        9 beta electrons
       nuclear repulsion energy        40.4710925287 Hartrees.
 IExCor=  419 DFT=T Ex+Corr=B2PLYPD3 ExCW=0 ScaHFX=  0.530000
 ScaDFX=  0.470000  0.470000  0.730000  0.730000 ScalE2=  0.270000  0.270000
 IRadAn=      0 IRanWt=     -1 IRanGd=            0 ICorTp=0 IEmpDi=141
 NAtoms=    6 NActive=    6 NUniq=    6 SFac= 1.00D+00 NAtFMM=   60 NAOKFM=F Big=F
 Integral buffers will be    131072 words long.
 Regular integral format.
 Two-electron integral symmetry is turned on.
 R6Disp:  Grimme-D3(BJ) Dispersion energy=       -0.0013087123 Hartrees.
 Nuclear repulsion after empirical dispersion term =       40.4697838164 Hartrees.
 Leave Link  301 at Wed Aug 26 23:58:42 2020, MaxMem=  2097152000 cpu:         0.4
 (Enter /opt/cluster/programs/g09/g09_d.01/g09/l302.exe)
 NPDir=0 NMtPBC=     1 NCelOv=     1 NCel=       1 NClECP=     1 NCelD=      1
         NCelK=      1 NCelE2=     1 NClLst=     1 CellRange=     0.0.
 One-electron integrals computed using PRISM.
   1 Symmetry operations used in ECPInt.
 ECPInt:  NShTT=    2775 NPrTT=    6207 LenC2=    2773 LenP2D=    5734.
 LDataN:  DoStor=T MaxTD1= 8 Len=  415
 NBasis=   234 RedAO= T EigKep=  1.38D-04  NBF=   234
 NBsUse=   234 1.00D-06 EigRej= -1.00D+00 NBFU=   234
 Precomputing XC quadrature grid using
 IXCGrd= 4 IRadAn=           0 IRanWt=          -1 IRanGd=           0 AccXCQ= 0.00D+00.
 Generated NRdTot=       0 NPtTot=           0 NUsed=           0 NTot=          32
 NSgBfM=   284   284   284   284   284 MxSgAt=     6 MxSgA2=     6.
 Leave Link  302 at Wed Aug 26 23:58:44 2020, MaxMem=  2097152000 cpu:         1.8
 (Enter /opt/cluster/programs/g09/g09_d.01/g09/l303.exe)
 DipDrv:  MaxL=1.
 Leave Link  303 at Wed Aug 26 23:58:46 2020, MaxMem=  2097152000 cpu:         0.2
 (Enter /opt/cluster/programs/g09/g09_d.01/g09/l401.exe)
 ExpMin= 7.60D-02 ExpMax= 1.17D+05 ExpMxC= 1.13D+03 IAcc=2 IRadAn=         4 AccDes= 0.00D+00
 Harris functional with IExCor=  419 and IRadAn=       4 diagonalized for initial guess.
 HarFok:  IExCor=  419 AccDes= 0.00D+00 IRadAn=         4 IDoV= 1 UseB2=F ITyADJ=14
 ICtDFT=  3500011 ScaDFX=  1.000000  1.000000  1.000000  1.000000
 FoFCou: FMM=F IPFlag=           0 FMFlag=      100000 FMFlg1=           0
         NFxFlg=           0 DoJE=T BraDBF=F KetDBF=T FulRan=T
         wScrn=  0.000000 ICntrl=     500 IOpCl=  0 I1Cent=   200000004 NGrid=           0
         NMat0=    1 NMatS0=      1 NMatT0=    0 NMatD0=    1 NMtDS0=    0 NMtDT0=    0
 Petite list used in FoFCou.
 Harris En= -115.814524572099    
 JPrj=0 DoOrth=F DoCkMO=F.
 Leave Link  401 at Wed Aug 26 23:58:49 2020, MaxMem=  2097152000 cpu:         3.1
 (Enter /opt/cluster/programs/g09/g09_d.01/g09/l502.exe)
 Closed shell SCF:
 Using DIIS extrapolation, IDIIS=  1040.
 Integral symmetry usage will be decided dynamically.
 Keep R1 ints in memory in canonical form, NReq=389840494.
 IVT=      264814 IEndB=      264814 NGot=  2097152000 MDV=  1718885927
 LenX=  1718885927 LenY=  1718804830
 Requested convergence on RMS density matrix=1.00D-08 within 128 cycles.
 Requested convergence on MAX density matrix=1.00D-06.
 Requested convergence on             energy=1.00D-06.
 No special actions if energy rises.
 FoFCou: FMM=F IPFlag=           0 FMFlag=           0 FMFlg1=           0
         NFxFlg=           0 DoJE=F BraDBF=F KetDBF=F FulRan=T
         wScrn=  0.000000 ICntrl=     600 IOpCl=  0 I1Cent=           0 NGrid=           0
         NMat0=    1 NMatS0=  27495 NMatT0=    0 NMatD0=    1 NMtDS0=    0 NMtDT0=    0
 Symmetry not used in FoFCou.
 Integral accuracy reduced to 1.0D-05 until final iterations.

 Cycle   1  Pass 0  IDiag  1:
 E= -115.443970021670    
 DIIS: error= 2.74D-02 at cycle   1 NSaved=   1.
 NSaved= 1 IEnMin= 1 EnMin= -115.443970021670     IErMin= 1 ErrMin= 2.74D-02
 ErrMax= 2.74D-02  0.00D+00 EMaxC= 1.00D-01 BMatC= 1.87D-01 BMatP= 1.87D-01
 IDIUse=3 WtCom= 7.26D-01 WtEn= 2.74D-01
 Coeff-Com:  0.100D+01
 Coeff-En:   0.100D+01
 Coeff:      0.100D+01
 Gap=     0.348 Goal=   None    Shift=    0.000
 GapD=    0.348 DampG=1.000 DampE=0.500 DampFc=0.5000 IDamp=-1.
 Damping current iteration by 5.00D-01
 RMSDP=1.34D-03 MaxDP=5.13D-02              OVMax= 1.49D-01

 Cycle   2  Pass 0  IDiag  1:
 E= -115.493723314747     Delta-E=       -0.049753293077 Rises=F Damp=T
 DIIS: error= 1.01D-02 at cycle   2 NSaved=   2.
 NSaved= 2 IEnMin= 2 EnMin= -115.493723314747     IErMin= 2 ErrMin= 1.01D-02
 ErrMax= 1.01D-02  0.00D+00 EMaxC= 1.00D-01 BMatC= 1.85D-02 BMatP= 1.87D-01
 IDIUse=3 WtCom= 8.99D-01 WtEn= 1.01D-01
 Coeff-Com: -0.120D+00 0.112D+01
 Coeff-En:   0.000D+00 0.100D+01
 Coeff:     -0.108D+00 0.111D+01
 Gap=     0.430 Goal=   None    Shift=    0.000
 RMSDP=3.48D-04 MaxDP=9.66D-03 DE=-4.98D-02 OVMax= 8.65D-02

 Cycle   3  Pass 0  IDiag  1:
 E= -115.542845453266     Delta-E=       -0.049122138519 Rises=F Damp=F
 DIIS: error= 4.85D-03 at cycle   3 NSaved=   3.
 NSaved= 3 IEnMin= 3 EnMin= -115.542845453266     IErMin= 3 ErrMin= 4.85D-03
 ErrMax= 4.85D-03  0.00D+00 EMaxC= 1.00D-01 BMatC= 3.89D-03 BMatP= 1.85D-02
 IDIUse=3 WtCom= 9.51D-01 WtEn= 4.85D-02
 Coeff-Com: -0.127D+00 0.313D+00 0.814D+00
 Coeff-En:   0.000D+00 0.000D+00 0.100D+01
 Coeff:     -0.121D+00 0.298D+00 0.823D+00
 Gap=     0.410 Goal=   None    Shift=    0.000
 RMSDP=1.16D-04 MaxDP=4.51D-03 DE=-4.91D-02 OVMax= 1.40D-02

 Cycle   4  Pass 0  IDiag  1:
 E= -115.545006006906     Delta-E=       -0.002160553640 Rises=F Damp=F
 DIIS: error= 2.09D-03 at cycle   4 NSaved=   4.
 NSaved= 4 IEnMin= 4 EnMin= -115.545006006906     IErMin= 4 ErrMin= 2.09D-03
 ErrMax= 2.09D-03  0.00D+00 EMaxC= 1.00D-01 BMatC= 4.48D-04 BMatP= 3.89D-03
 IDIUse=3 WtCom= 9.79D-01 WtEn= 2.09D-02
 Coeff-Com: -0.446D-01 0.784D-01 0.354D+00 0.612D+00
 Coeff-En:   0.000D+00 0.000D+00 0.000D+00 0.100D+01
 Coeff:     -0.437D-01 0.768D-01 0.347D+00 0.620D+00
 Gap=     0.409 Goal=   None    Shift=    0.000
 RMSDP=3.69D-05 MaxDP=1.83D-03 DE=-2.16D-03 OVMax= 5.40D-03

 Cycle   5  Pass 0  IDiag  1:
 E= -115.545365252491     Delta-E=       -0.000359245585 Rises=F Damp=F
 DIIS: error= 1.83D-04 at cycle   5 NSaved=   5.
 NSaved= 5 IEnMin= 5 EnMin= -115.545365252491     IErMin= 5 ErrMin= 1.83D-04
 ErrMax= 1.83D-04  0.00D+00 EMaxC= 1.00D-01 BMatC= 5.96D-06 BMatP= 4.48D-04
 IDIUse=3 WtCom= 9.98D-01 WtEn= 1.83D-03
 Coeff-Com: -0.717D-02 0.930D-02 0.619D-01 0.169D+00 0.767D+00
 Coeff-En:   0.000D+00 0.000D+00 0.000D+00 0.000D+00 0.100D+01
 Coeff:     -0.716D-02 0.928D-02 0.618D-01 0.168D+00 0.768D+00
 Gap=     0.409 Goal=   None    Shift=    0.000
 RMSDP=6.27D-06 MaxDP=1.78D-04 DE=-3.59D-04 OVMax= 5.57D-04

 Initial convergence to 1.0D-05 achieved.  Increase integral accuracy.
 Cycle   6  Pass 1  IDiag  1:
 E= -115.545377385007     Delta-E=       -0.000012132516 Rises=F Damp=F
 DIIS: error= 2.33D-05 at cycle   1 NSaved=   1.
 NSaved= 1 IEnMin= 1 EnMin= -115.545377385007     IErMin= 1 ErrMin= 2.33D-05
 ErrMax= 2.33D-05  0.00D+00 EMaxC= 1.00D-01 BMatC= 6.73D-08 BMatP= 6.73D-08
 IDIUse=1 WtCom= 1.00D+00 WtEn= 0.00D+00
 Coeff-Com:  0.100D+01
 Coeff:      0.100D+01
 Gap=     0.409 Goal=   None    Shift=    0.000
 RMSDP=6.27D-06 MaxDP=1.78D-04 DE=-1.21D-05 OVMax= 9.68D-05

 Cycle   7  Pass 1  IDiag  1:
 E= -115.545377474376     Delta-E=       -0.000000089369 Rises=F Damp=F
 DIIS: error= 4.90D-06 at cycle   2 NSaved=   2.
 NSaved= 2 IEnMin= 2 EnMin= -115.545377474376     IErMin= 2 ErrMin= 4.90D-06
 ErrMax= 4.90D-06  0.00D+00 EMaxC= 1.00D-01 BMatC= 3.63D-09 BMatP= 6.73D-08
 IDIUse=1 WtCom= 1.00D+00 WtEn= 0.00D+00
 Coeff-Com: -0.615D-01 0.106D+01
 Coeff:     -0.615D-01 0.106D+01
 Gap=     0.409 Goal=   None    Shift=    0.000
 RMSDP=4.09D-07 MaxDP=1.23D-05 DE=-8.94D-08 OVMax= 3.86D-05

 Cycle   8  Pass 1  IDiag  1:
 E= -115.545377481159     Delta-E=       -0.000000006783 Rises=F Damp=F
 DIIS: error= 2.81D-06 at cycle   3 NSaved=   3.
 NSaved= 3 IEnMin= 3 EnMin= -115.545377481159     IErMin= 3 ErrMin= 2.81D-06
 ErrMax= 2.81D-06  0.00D+00 EMaxC= 1.00D-01 BMatC= 9.17D-10 BMatP= 3.63D-09
 IDIUse=1 WtCom= 1.00D+00 WtEn= 0.00D+00
 Coeff-Com: -0.691D-01 0.273D+00 0.796D+00
 Coeff:     -0.691D-01 0.273D+00 0.796D+00
 Gap=     0.409 Goal=   None    Shift=    0.000
 RMSDP=1.03D-07 MaxDP=3.62D-06 DE=-6.78D-09 OVMax= 1.24D-05

 Cycle   9  Pass 1  IDiag  1:
 E= -115.545377481980     Delta-E=       -0.000000000821 Rises=F Damp=F
 DIIS: error= 1.08D-06 at cycle   4 NSaved=   4.
 NSaved= 4 IEnMin= 4 EnMin= -115.545377481980     IErMin= 4 ErrMin= 1.08D-06
 ErrMax= 1.08D-06  0.00D+00 EMaxC= 1.00D-01 BMatC= 2.25D-10 BMatP= 9.17D-10
 IDIUse=1 WtCom= 1.00D+00 WtEn= 0.00D+00
 Coeff-Com: -0.216D-01-0.991D-02 0.354D+00 0.678D+00
 Coeff:     -0.216D-01-0.991D-02 0.354D+00 0.678D+00
 Gap=     0.409 Goal=   None    Shift=    0.000
 RMSDP=3.74D-08 MaxDP=1.60D-06 DE=-8.21D-10 OVMax= 5.36D-06

 Cycle  10  Pass 1  IDiag  1:
 E= -115.545377482153     Delta-E=       -0.000000000173 Rises=F Damp=F
 DIIS: error= 2.03D-07 at cycle   5 NSaved=   5.
 NSaved= 5 IEnMin= 5 EnMin= -115.545377482153     IErMin= 5 ErrMin= 2.03D-07
 ErrMax= 2.03D-07  0.00D+00 EMaxC= 1.00D-01 BMatC= 6.52D-12 BMatP= 2.25D-10
 IDIUse=1 WtCom= 1.00D+00 WtEn= 0.00D+00
 Coeff-Com:  0.118D-02-0.288D-01 0.189D-01 0.142D+00 0.867D+00
 Coeff:      0.118D-02-0.288D-01 0.189D-01 0.142D+00 0.867D+00
 Gap=     0.409 Goal=   None    Shift=    0.000
 RMSDP=9.14D-09 MaxDP=3.27D-07 DE=-1.73D-10 OVMax= 1.12D-06

 SCF Done:  E(RB2PLYPD3) =  -115.545377482     A.U. after   10 cycles
            NFock= 10  Conv=0.91D-08     -V/T= 2.0022
 KE= 1.152942839838D+02 PE=-3.525307319951D+02 EE= 8.122128671265D+01
 Leave Link  502 at Wed Aug 26 23:59:06 2020, MaxMem=  2097152000 cpu:        76.9
 (Enter /opt/cluster/programs/g09/g09_d.01/g09/l801.exe)
 DoSCS=T DFT=T ScalE2(SS,OS)=  0.270000  0.270000
 ExpMin= 7.60D-02 ExpMax= 1.17D+05 ExpMxC= 1.13D+03 IAcc=3 IRadAn=         5 AccDes= 0.00D+00
 HarFok:  IExCor=  205 AccDes= 0.00D+00 IRadAn=         5 IDoV=-2 UseB2=F ITyADJ=14
 ICtDFT= 12500011 ScaDFX=  1.000000  1.000000  1.000000  1.000000
 DSYEVD-2 returned Info=        1739 IAlg= 4 N=    57 NDim=    57 NE2=    36788970 trying  DSYEV.
 Largest valence mixing into a core orbital is  1.17D-04
 Largest core mixing into a valence orbital is  1.53D-05
 Range of M.O.s used for correlation:     3   234
 NBasis=   234 NAE=     9 NBE=     9 NFC=     2 NFV=     0
 NROrb=    232 NOA=     7 NOB=     7 NVA=   225 NVB=   225

 **** Warning!!: The largest alpha MO coefficient is  0.28378468D+02

 Leave Link  801 at Wed Aug 26 23:59:07 2020, MaxMem=  2097152000 cpu:         0.5
 (Enter /opt/cluster/programs/g09/g09_d.01/g09/l906.exe)
 DoSCS=T DFT=T ScalE2(SS,OS)=  0.270000  0.270000
 FulOut=F Deriv=F AODrv=F NAtomX=     6
   MMem=        3646  MDisk=           7 MDiskD=           7
  W3Min=      447300 MinDsk=     1090093 NBas6D=         284
 NBas2D=       41310    NTT=       40470    LW2=     4508827
    MDV=  2096872436 MDiskM=       16391 NBas2p=       41304
 Fully in-core method, ICMem=  1722292712.
 IMap=   1   2   3   4   5   6   7
 JobTyp=1 Pass  1 fully in-core, NPsUse=  8.
 Compute canonical integrals.
 FoFCou: FMM=F IPFlag=           0 FMFlag=           0 FMFlg1=           0
         NFxFlg=           0 DoJE=F BraDBF=F KetDBF=F FulRan=T
         wScrn=  0.000000 ICntrl=     600 IOpCl=  1 I1Cent=           0 NGrid=           0
         NMat0=    1 NMatS0=  41310 NMatT0=    0 NMatD0=    1 NMtDS0=    0 NMtDT0=    0
 Symmetry not used in FoFCou.
 Spin components of T(2) and E(2):
     alpha-alpha T2 =       0.2033128878D-01 E2=     -0.1653130709D-01
     alpha-beta  T2 =       0.1289712477D+00 E2=     -0.1130277750D+00
     beta-beta   T2 =       0.2033128878D-01 E2=     -0.1653130709D-01
 The integrals were generated   1 times.
 E2(B2PLYPD3) =    -0.1460903892D+00 E(B2PLYPD3) =    -0.11569146787133D+03
 Leave Link  906 at Wed Aug 26 23:59:22 2020, MaxMem=  2097152000 cpu:       115.4
 (Enter /opt/cluster/programs/g09/g09_d.01/g09/l601.exe)
 Copying SCF densities to generalized density rwf, IOpCl= 0 IROHF=0.

 **********************************************************************

            Population analysis using the SCF density.

 **********************************************************************

 Orbital symmetries:
       Occupied  (A) (A) (A) (A) (A) (A) (A) (A) (A)
       Virtual   (A) (A) (A) (A) (A) (A) (A) (A) (A) (A) (A) (A)
                 (A) (A) (A) (A) (A) (A) (A) (A) (A) (A) (A) (A)
                 (A) (A) (A) (A) (A) (A) (A) (A) (A) (A) (A) (A)
                 (A) (A) (A) (A) (A) (A) (A) (A) (A) (A) (A) (A)
                 (A) (A) (A) (A) (A) (A) (A) (A) (A) (A) (A) (A)
                 (A) (A) (A) (A) (A) (A) (A) (A) (A) (A) (A) (A)
                 (A) (A) (A) (A) (A) (A) (A) (A) (A) (A) (A) (A)
                 (A) (A) (A) (A) (A) (A) (A) (A) (A) (A) (A) (A)
                 (A) (A) (A) (A) (A) (A) (A) (A) (A) (A) (A) (A)
                 (A) (A) (A) (A) (A) (A) (A) (A) (A) (A) (A) (A)
                 (A) (A) (A) (A) (A) (A) (A) (A) (A) (A) (A) (A)
                 (A) (A) (A) (A) (A) (A) (A) (A) (A) (A) (A) (A)
                 (A) (A) (A) (A) (A) (A) (A) (A) (A) (A) (A) (A)
                 (A) (A) (A) (A) (A) (A) (A) (A) (A) (A) (A) (A)
                 (A) (A) (A) (A) (A) (A) (A) (A) (A) (A) (A) (A)
                 (A) (A) (A) (A) (A) (A) (A) (A) (A) (A) (A) (A)
                 (A) (A) (A) (A) (A) (A) (A) (A) (A) (A) (A) (A)
                 (A) (A) (A) (A) (A) (A) (A) (A) (A) (A) (A) (A)
                 (A) (A) (A) (A) (A) (A) (A) (A) (A)
 The electronic state is 1-A.
 Alpha  occ. eigenvalues --  -19.71487 -10.66279  -1.17434  -0.79278  -0.59387
 Alpha  occ. eigenvalues --   -0.51918  -0.49614  -0.41142  -0.35584
 Alpha virt. eigenvalues --    0.05297   0.08582   0.12183   0.12280   0.14671
 Alpha virt. eigenvalues --    0.17046   0.17944   0.29103   0.32554   0.33418
 Alpha virt. eigenvalues --    0.37379   0.38642   0.39817   0.40732   0.43370
 Alpha virt. eigenvalues --    0.46602   0.53534   0.56212   0.59664   0.66924
 Alpha virt. eigenvalues --    0.70627   0.71847   0.75094   0.78144   0.80004
 Alpha virt. eigenvalues --    0.82497   0.86238   0.87926   0.93149   0.96732
 Alpha virt. eigenvalues --    1.02437   1.02934   1.05633   1.08512   1.09777
 Alpha virt. eigenvalues --    1.12952   1.18744   1.22622   1.29072   1.40516
 Alpha virt. eigenvalues --    1.41265   1.42152   1.42569   1.47586   1.50546
 Alpha virt. eigenvalues --    1.78487   1.81929   1.84832   1.87452   1.89596
 Alpha virt. eigenvalues --    1.92655   1.95103   1.96836   1.99022   2.02773
 Alpha virt. eigenvalues --    2.05950   2.14097   2.18270   2.20585   2.22016
 Alpha virt. eigenvalues --    2.25277   2.29574   2.31083   2.37190   2.42514
 Alpha virt. eigenvalues --    2.45490   2.48182   2.58839   2.61519   2.63844
 Alpha virt. eigenvalues --    2.64847   2.69362   2.71598   2.78062   2.82000
 Alpha virt. eigenvalues --    2.85427   2.89234   2.91129   2.93685   2.96859
 Alpha virt. eigenvalues --    2.97390   3.05025   3.07572   3.09480   3.21406
 Alpha virt. eigenvalues --    3.24723   3.28743   3.34861   3.41113   3.45187
 Alpha virt. eigenvalues --    3.50557   3.64596   3.68641   3.86016   3.88771
 Alpha virt. eigenvalues --    3.91132   4.00837   4.03739   4.08160   4.14881
 Alpha virt. eigenvalues --    4.21793   4.22429   4.27319   4.36150   4.55878
 Alpha virt. eigenvalues --    4.57899   4.68091   4.71402   4.89371   5.23842
 Alpha virt. eigenvalues --    5.40629   5.46779   5.49410   5.58875   5.60714
 Alpha virt. eigenvalues --    5.71170   5.73161   5.82792   5.84205   5.89932
 Alpha virt. eigenvalues --    5.92115   5.95905   6.01728   6.02320   6.14321
 Alpha virt. eigenvalues --    6.18926   6.22815   6.26922   6.28513   6.30379
 Alpha virt. eigenvalues --    6.34641   6.40763   6.41807   6.48687   6.51559
 Alpha virt. eigenvalues --    6.56714   6.67850   6.74737   6.77106   6.92547
 Alpha virt. eigenvalues --    6.92975   7.07546   7.10069   7.17431   7.22289
 Alpha virt. eigenvalues --    7.27826   7.33446   7.36543   7.39361   7.42454
 Alpha virt. eigenvalues --    7.47870   7.50529   7.54650   7.62950   7.68096
 Alpha virt. eigenvalues --    7.72385   7.77975   7.80335   7.80607   7.84200
 Alpha virt. eigenvalues --    7.85472   7.90471   7.99300   7.99974   8.10801
 Alpha virt. eigenvalues --    8.16442   8.32790   8.35260   8.39499   8.44204
 Alpha virt. eigenvalues --    8.46536   8.48560   8.50380   8.51542   8.55039
 Alpha virt. eigenvalues --    8.55886   8.74844   8.86928   8.88801   8.92136
 Alpha virt. eigenvalues --    8.96855   9.03933   9.12260   9.20714   9.34496
 Alpha virt. eigenvalues --    9.51039   9.52939   9.64581   9.70431   9.76871
 Alpha virt. eigenvalues --    9.85561   9.87866   9.93896  10.02280  10.15385
 Alpha virt. eigenvalues --   10.18612  10.28932  10.35162  10.56609  10.66822
 Alpha virt. eigenvalues --   10.96120  11.07213  11.16725  11.54865  11.62270
 Alpha virt. eigenvalues --   11.72113  11.77025  11.99000  12.07384  12.11962
 Alpha virt. eigenvalues --   12.26130  12.43963  12.68159  12.77579  12.98969
 Alpha virt. eigenvalues --   13.31235  13.43127  14.60839  14.79106  14.91988
 Alpha virt. eigenvalues --   17.14813  29.18500  48.97047 148.76978 254.75857
          Condensed to atoms (all electrons):
               1          2          3          4          5          6
     1  C    4.447436   0.264083   0.429116   0.434586   0.399466  -0.043759
     2  O    0.264083   7.961066  -0.045159  -0.052380  -0.038136   0.341361
     3  H    0.429116  -0.045159   0.650481  -0.046947  -0.036687  -0.005147
     4  H    0.434586  -0.052380  -0.046947   0.652289  -0.034278  -0.004051
     5  H    0.399466  -0.038136  -0.036687  -0.034278   0.626748   0.009103
     6  H   -0.043759   0.341361  -0.005147  -0.004051   0.009103   0.519642
 Mulliken charges:
               1
     1  C    0.069074
     2  O   -0.430834
     3  H    0.054344
     4  H    0.050782
     5  H    0.073784
     6  H    0.182850
 Sum of Mulliken charges =   0.00000
 Mulliken charges with hydrogens summed into heavy atoms:
               1
     1  C    0.247984
     2  O   -0.247984
 Electronic spatial extent (au):  <R**2>=             84.6203
 Charge=              0.0000 electrons
 Dipole moment (field-independent basis, Debye):
    X=              0.9363    Y=             -1.4321    Z=             -0.0601  Tot=              1.7120
 Quadrupole moment (field-independent basis, Debye-Ang):
   XX=            -13.0735   YY=            -12.3048   ZZ=            -13.6457
   XY=              2.1575   XZ=             -0.0289   YZ=              0.0613
 Traceless Quadrupole moment (field-independent basis, Debye-Ang):
   XX=             -0.0655   YY=              0.7032   ZZ=             -0.6377
   XY=              2.1575   XZ=             -0.0289   YZ=              0.0613
 Octapole moment (field-independent basis, Debye-Ang**2):
  XXX=             -4.6767  YYY=             -0.3618  ZZZ=             -0.0526  XYY=             -1.5935
  XXY=             -2.2865  XXZ=             -0.1940  XZZ=             -0.2827  YZZ=             -0.7776
  YYZ=             -0.0518  XYZ=              0.0120
 Hexadecapole moment (field-independent basis, Debye-Ang**3):
 XXXX=            -62.8252 YYYY=            -20.2817 ZZZZ=            -20.2701 XXXY=              3.8963
 XXXZ=             -0.2068 YYYX=              2.9848 YYYZ=              0.1375 ZZZX=             -0.1005
 ZZZY=              0.0409 XXYY=            -13.0050 XXZZ=            -14.5952 YYZZ=             -6.9021
 XXYZ=              0.1658 YYXZ=             -0.0250 ZZXY=             -0.1769
 N-N= 4.046978381644D+01 E-N=-3.525307058980D+02  KE= 1.152942839838D+02
 Leave Link  601 at Wed Aug 26 23:59:23 2020, MaxMem=  2097152000 cpu:         0.3
 (Enter /opt/cluster/programs/g09/g09_d.01/g09/l9999.exe)
 1\1\GINC-NODE37\SP\RB2PLYPD3-FC\def2QZVP\C1H4O1\BOITTIER\26-Aug-2020\0
 \\#p B2PLYPD3/Def2QZVP\\methanol\\0,1\C,0,-5.189685,-1.26208,0.915976\
 O,0,-3.762632,-1.120412,0.85361\H,0,-5.521174,-2.230138,0.552384\H,0,-
 5.650031,-0.430617,0.335842\H,0,-5.442157,-1.149258,1.988948\H,0,-3.48
 1232,-1.209535,0.026885\\Version=ES64L-G09RevD.01\State=1-A\HF=-115.54
 53775\MP2=-115.6914679\RMSD=9.141e-09\PG=C01 [X(C1H4O1)]\\@


 GOORD'S AXIOM:  A MEETING IS AN EVENT AT WHICH
 THE MINUTES ARE KEPT AND THE HOURS ARE LOST.
 Job cpu time:       0 days  0 hours  3 minutes 19.9 seconds.
 File lengths (MBytes):  RWF=     23 Int=      0 D2E=      0 Chk=      4 Scr=      1
 Normal termination of Gaussian 09 at Wed Aug 26 23:59:25 2020.
