 Entering Gaussian System, Link 0=/opt/cluster/programs/g09/g09_d.01/g09//g09
 Input=/home/boittier/MDCM/nms_sampling/methanol_geom.xyz.dir/energies/methanol_2129_energy.com
 Output=/scratch/boittier/methanol_2129_energy/methanol_2129_energy.out
 Initial command:
 /opt/cluster/programs/g09/g09_d.01/g09/l1.exe "/scratch/boittier/methanol_2129_energy/Gau-138363.inp" -scrdir="/scratch/boittier/methanol_2129_energy/"
 Entering Link 1 = /opt/cluster/programs/g09/g09_d.01/g09/l1.exe PID=    138364.
  
 Copyright (c) 1988,1990,1992,1993,1995,1998,2003,2009,2013,
            Gaussian, Inc.  All Rights Reserved.
  
 This is part of the Gaussian(R) 09 program.  It is based on
 the Gaussian(R) 03 system (copyright 2003, Gaussian, Inc.),
 the Gaussian(R) 98 system (copyright 1998, Gaussian, Inc.),
 the Gaussian(R) 94 system (copyright 1995, Gaussian, Inc.),
 the Gaussian 92(TM) system (copyright 1992, Gaussian, Inc.),
 the Gaussian 90(TM) system (copyright 1990, Gaussian, Inc.),
 the Gaussian 88(TM) system (copyright 1988, Gaussian, Inc.),
 the Gaussian 86(TM) system (copyright 1986, Carnegie Mellon
 University), and the Gaussian 82(TM) system (copyright 1983,
 Carnegie Mellon University). Gaussian is a federally registered
 trademark of Gaussian, Inc.
  
 This software contains proprietary and confidential information,
 including trade secrets, belonging to Gaussian, Inc.
  
 This software is provided under written license and may be
 used, copied, transmitted, or stored only in accord with that
 written license.
  
 The following legend is applicable only to US Government
 contracts under FAR:
  
                    RESTRICTED RIGHTS LEGEND
  
 Use, reproduction and disclosure by the US Government is
 subject to restrictions as set forth in subparagraphs (a)
 and (c) of the Commercial Computer Software - Restricted
 Rights clause in FAR 52.227-19.
  
 Gaussian, Inc.
 340 Quinnipiac St., Bldg. 40, Wallingford CT 06492
  
  
 ---------------------------------------------------------------
 Warning -- This program may not be used in any manner that
 competes with the business of Gaussian, Inc. or will provide
 assistance to any competitor of Gaussian, Inc.  The licensee
 of this program is prohibited from giving any competitor of
 Gaussian, Inc. access to this program.  By using this program,
 the user acknowledges that Gaussian, Inc. is engaged in the
 business of creating and licensing software in the field of
 computational chemistry and represents and warrants to the
 licensee that it is not a competitor of Gaussian, Inc. and that
 it will not use this program in any manner prohibited above.
 ---------------------------------------------------------------
  

 Cite this work as:
 Gaussian 09, Revision D.01,
 M. J. Frisch, G. W. Trucks, H. B. Schlegel, G. E. Scuseria, 
 M. A. Robb, J. R. Cheeseman, G. Scalmani, V. Barone, B. Mennucci, 
 G. A. Petersson, H. Nakatsuji, M. Caricato, X. Li, H. P. Hratchian, 
 A. F. Izmaylov, J. Bloino, G. Zheng, J. L. Sonnenberg, M. Hada, 
 M. Ehara, K. Toyota, R. Fukuda, J. Hasegawa, M. Ishida, T. Nakajima, 
 Y. Honda, O. Kitao, H. Nakai, T. Vreven, J. A. Montgomery, Jr., 
 J. E. Peralta, F. Ogliaro, M. Bearpark, J. J. Heyd, E. Brothers, 
 K. N. Kudin, V. N. Staroverov, T. Keith, R. Kobayashi, J. Normand, 
 K. Raghavachari, A. Rendell, J. C. Burant, S. S. Iyengar, J. Tomasi, 
 M. Cossi, N. Rega, J. M. Millam, M. Klene, J. E. Knox, J. B. Cross, 
 V. Bakken, C. Adamo, J. Jaramillo, R. Gomperts, R. E. Stratmann, 
 O. Yazyev, A. J. Austin, R. Cammi, C. Pomelli, J. W. Ochterski, 
 R. L. Martin, K. Morokuma, V. G. Zakrzewski, G. A. Voth, 
 P. Salvador, J. J. Dannenberg, S. Dapprich, A. D. Daniels, 
 O. Farkas, J. B. Foresman, J. V. Ortiz, J. Cioslowski, 
 and D. J. Fox, Gaussian, Inc., Wallingford CT, 2013.
 
 ******************************************
 Gaussian 09:  ES64L-G09RevD.01 24-Apr-2013
                26-Aug-2020 
 ******************************************
 %chk=/home/boittier/MDCM/nms_sampling/methanol_geom.xyz.dir/methanol_2129.chk
 %nproc=8
 Will use up to    8 processors via shared memory.
 %mem=16000MB
 --------------------
 #p B2PLYPD3/Def2QZVP
 --------------------
 1/38=1/1;
 2/12=2,17=6,18=5,40=1/2;
 3/5=45,7=101,11=9,16=1,25=1,30=1,74=-60/1,2,3;
 4//1;
 5/5=2,38=5/2;
 8/10=1/1;
 9/16=-3/6;
 6/7=2,8=2,9=2,10=2/1;
 99/5=1,9=1/99;
 Leave Link    1 at Wed Aug 26 15:25:24 2020, MaxMem=  2097152000 cpu:         0.2
 (Enter /opt/cluster/programs/g09/g09_d.01/g09/l101.exe)
 --------
 methanol
 --------
 Symbolic Z-matrix:
 Charge =  0 Multiplicity = 1
 C                    -5.17852  -1.26207   0.90555 
 O                    -3.771    -1.12206   0.84441 
 H                    -5.48641  -2.25264   0.54935 
 H                    -5.70291  -0.40454   0.31797 
 H                    -5.4062   -1.16343   2.0924 
 H                    -3.49397  -1.17273   0.21556 
 
 NAtoms=      6 NQM=        6 NQMF=       0 NMMI=      0 NMMIF=      0
                NMic=       0 NMicF=      0.
                    Isotopes and Nuclear Properties:
 (Nuclear quadrupole moments (NQMom) in fm**2, nuclear magnetic moments (NMagM)
  in nuclear magnetons)

  Atom         1           2           3           4           5           6
 IAtWgt=          12          16           1           1           1           1
 AtmWgt=  12.0000000  15.9949146   1.0078250   1.0078250   1.0078250   1.0078250
 NucSpn=           0           0           1           1           1           1
 AtZEff=   0.0000000   0.0000000   0.0000000   0.0000000   0.0000000   0.0000000
 NQMom=    0.0000000   0.0000000   0.0000000   0.0000000   0.0000000   0.0000000
 NMagM=    0.0000000   0.0000000   2.7928460   2.7928460   2.7928460   2.7928460
 AtZNuc=   6.0000000   8.0000000   1.0000000   1.0000000   1.0000000   1.0000000
 Leave Link  101 at Wed Aug 26 15:25:24 2020, MaxMem=  2097152000 cpu:         0.5
 (Enter /opt/cluster/programs/g09/g09_d.01/g09/l202.exe)
                          Input orientation:                          
 ---------------------------------------------------------------------
 Center     Atomic      Atomic             Coordinates (Angstroms)
 Number     Number       Type             X           Y           Z
 ---------------------------------------------------------------------
      1          6           0       -5.178524   -1.262070    0.905551
      2          8           0       -3.771003   -1.122060    0.844407
      3          1           0       -5.486414   -2.252636    0.549352
      4          1           0       -5.702915   -0.404536    0.317966
      5          1           0       -5.406204   -1.163431    2.092399
      6          1           0       -3.493971   -1.172731    0.215561
 ---------------------------------------------------------------------
                    Distance matrix (angstroms):
                    1          2          3          4          5
     1  C    0.000000
     2  O    1.415788   0.000000
     3  H    1.096766   2.075547   0.000000
     4  H    1.164305   2.127032   1.875070   0.000000
     5  H    1.212508   2.057445   1.890448   1.952581   0.000000
     6  H    1.822577   0.689029   2.290729   2.340949   2.679411
                    6
     6  H    0.000000
 Stoichiometry    CH4O
 Framework group  C1[X(CH4O)]
 Deg. of freedom    12
 Full point group                 C1      NOp   1
 Largest Abelian subgroup         C1      NOp   1
 Largest concise Abelian subgroup C1      NOp   1
                         Standard orientation:                         
 ---------------------------------------------------------------------
 Center     Atomic      Atomic             Coordinates (Angstroms)
 Number     Number       Type             X           Y           Z
 ---------------------------------------------------------------------
      1          6           0       -0.664880   -0.026781    0.011493
      2          8           0        0.746649    0.079637   -0.015297
      3          1           0       -1.008243   -0.398280    0.984625
      4          1           0       -1.043960   -0.689832   -0.867295
      5          1           0       -1.022995    1.121794   -0.139187
      6          1           0        1.091288   -0.510092    0.075281
 ---------------------------------------------------------------------
 Rotational constants (GHZ):    125.7454653     24.9408165     24.3518612
 Leave Link  202 at Wed Aug 26 15:25:24 2020, MaxMem=  2097152000 cpu:         0.0
 (Enter /opt/cluster/programs/g09/g09_d.01/g09/l301.exe)
 Standard basis: def2QZVP (5D, 7F)
 Ernie: Thresh=  0.10000D-02 Tol=  0.10000D-05 Strict=F.
 There are   284 symmetry adapted cartesian basis functions of A   symmetry.
 There are   234 symmetry adapted basis functions of A   symmetry.
   234 basis functions,   336 primitive gaussians,   284 cartesian basis functions
     9 alpha electrons        9 beta electrons
       nuclear repulsion energy        41.6428006016 Hartrees.
 IExCor=  419 DFT=T Ex+Corr=B2PLYPD3 ExCW=0 ScaHFX=  0.530000
 ScaDFX=  0.470000  0.470000  0.730000  0.730000 ScalE2=  0.270000  0.270000
 IRadAn=      0 IRanWt=     -1 IRanGd=            0 ICorTp=0 IEmpDi=141
 NAtoms=    6 NActive=    6 NUniq=    6 SFac= 1.00D+00 NAtFMM=   60 NAOKFM=F Big=F
 Integral buffers will be    131072 words long.
 Regular integral format.
 Two-electron integral symmetry is turned on.
 R6Disp:  Grimme-D3(BJ) Dispersion energy=       -0.0013128840 Hartrees.
 Nuclear repulsion after empirical dispersion term =       41.6414877177 Hartrees.
 Leave Link  301 at Wed Aug 26 15:25:24 2020, MaxMem=  2097152000 cpu:         0.5
 (Enter /opt/cluster/programs/g09/g09_d.01/g09/l302.exe)
 NPDir=0 NMtPBC=     1 NCelOv=     1 NCel=       1 NClECP=     1 NCelD=      1
         NCelK=      1 NCelE2=     1 NClLst=     1 CellRange=     0.0.
 One-electron integrals computed using PRISM.
   1 Symmetry operations used in ECPInt.
 ECPInt:  NShTT=    2775 NPrTT=    6207 LenC2=    2774 LenP2D=    5743.
 LDataN:  DoStor=T MaxTD1= 8 Len=  415
 NBasis=   234 RedAO= T EigKep=  5.83D-05  NBF=   234
 NBsUse=   234 1.00D-06 EigRej= -1.00D+00 NBFU=   234
 Precomputing XC quadrature grid using
 IXCGrd= 4 IRadAn=           0 IRanWt=          -1 IRanGd=           0 AccXCQ= 0.00D+00.
 Generated NRdTot=       0 NPtTot=           0 NUsed=           0 NTot=          32
 NSgBfM=   284   284   284   284   284 MxSgAt=     6 MxSgA2=     6.
 Leave Link  302 at Wed Aug 26 15:25:24 2020, MaxMem=  2097152000 cpu:         2.0
 (Enter /opt/cluster/programs/g09/g09_d.01/g09/l303.exe)
 DipDrv:  MaxL=1.
 Leave Link  303 at Wed Aug 26 15:25:24 2020, MaxMem=  2097152000 cpu:         0.3
 (Enter /opt/cluster/programs/g09/g09_d.01/g09/l401.exe)
 ExpMin= 7.60D-02 ExpMax= 1.17D+05 ExpMxC= 1.13D+03 IAcc=2 IRadAn=         4 AccDes= 0.00D+00
 Harris functional with IExCor=  419 and IRadAn=       4 diagonalized for initial guess.
 HarFok:  IExCor=  419 AccDes= 0.00D+00 IRadAn=         4 IDoV= 1 UseB2=F ITyADJ=14
 ICtDFT=  3500011 ScaDFX=  1.000000  1.000000  1.000000  1.000000
 FoFCou: FMM=F IPFlag=           0 FMFlag=      100000 FMFlg1=           0
         NFxFlg=           0 DoJE=T BraDBF=F KetDBF=T FulRan=T
         wScrn=  0.000000 ICntrl=     500 IOpCl=  0 I1Cent=   200000004 NGrid=           0
         NMat0=    1 NMatS0=      1 NMatT0=    0 NMatD0=    1 NMtDS0=    0 NMtDT0=    0
 Petite list used in FoFCou.
 Harris En= -115.695137647800    
 JPrj=0 DoOrth=F DoCkMO=F.
 Leave Link  401 at Wed Aug 26 15:25:25 2020, MaxMem=  2097152000 cpu:         3.6
 (Enter /opt/cluster/programs/g09/g09_d.01/g09/l502.exe)
 Closed shell SCF:
 Using DIIS extrapolation, IDIIS=  1040.
 Integral symmetry usage will be decided dynamically.
 Keep R1 ints in memory in canonical form, NReq=389840494.
 IVT=      264814 IEndB=      264814 NGot=  2097152000 MDV=  1718885927
 LenX=  1718885927 LenY=  1718804830
 Requested convergence on RMS density matrix=1.00D-08 within 128 cycles.
 Requested convergence on MAX density matrix=1.00D-06.
 Requested convergence on             energy=1.00D-06.
 No special actions if energy rises.
 FoFCou: FMM=F IPFlag=           0 FMFlag=           0 FMFlg1=           0
         NFxFlg=           0 DoJE=F BraDBF=F KetDBF=F FulRan=T
         wScrn=  0.000000 ICntrl=     600 IOpCl=  0 I1Cent=           0 NGrid=           0
         NMat0=    1 NMatS0=  27495 NMatT0=    0 NMatD0=    1 NMtDS0=    0 NMtDT0=    0
 Symmetry not used in FoFCou.
 Integral accuracy reduced to 1.0D-05 until final iterations.

 Cycle   1  Pass 0  IDiag  1:
 E= -115.267456045788    
 DIIS: error= 2.90D-02 at cycle   1 NSaved=   1.
 NSaved= 1 IEnMin= 1 EnMin= -115.267456045788     IErMin= 1 ErrMin= 2.90D-02
 ErrMax= 2.90D-02  0.00D+00 EMaxC= 1.00D-01 BMatC= 2.60D-01 BMatP= 2.60D-01
 IDIUse=3 WtCom= 7.10D-01 WtEn= 2.90D-01
 Coeff-Com:  0.100D+01
 Coeff-En:   0.100D+01
 Coeff:      0.100D+01
 Gap=     0.346 Goal=   None    Shift=    0.000
 GapD=    0.346 DampG=1.000 DampE=0.500 DampFc=0.5000 IDamp=-1.
 Damping current iteration by 5.00D-01
 RMSDP=1.58D-03 MaxDP=6.50D-02              OVMax= 1.95D-01

 Cycle   2  Pass 0  IDiag  1:
 E= -115.333259211541     Delta-E=       -0.065803165753 Rises=F Damp=T
 DIIS: error= 1.36D-02 at cycle   2 NSaved=   2.
 NSaved= 2 IEnMin= 2 EnMin= -115.333259211541     IErMin= 2 ErrMin= 1.36D-02
 ErrMax= 1.36D-02  0.00D+00 EMaxC= 1.00D-01 BMatC= 1.92D-02 BMatP= 2.60D-01
 IDIUse=3 WtCom= 8.64D-01 WtEn= 1.36D-01
 Coeff-Com: -0.870D-01 0.109D+01
 Coeff-En:   0.000D+00 0.100D+01
 Coeff:     -0.752D-01 0.108D+01
 Gap=     0.440 Goal=   None    Shift=    0.000
 RMSDP=3.84D-04 MaxDP=1.17D-02 DE=-6.58D-02 OVMax= 1.04D-01

 Cycle   3  Pass 0  IDiag  1:
 E= -115.401638702751     Delta-E=       -0.068379491210 Rises=F Damp=F
 DIIS: error= 4.35D-03 at cycle   3 NSaved=   3.
 NSaved= 3 IEnMin= 3 EnMin= -115.401638702751     IErMin= 3 ErrMin= 4.35D-03
 ErrMax= 4.35D-03  0.00D+00 EMaxC= 1.00D-01 BMatC= 3.08D-03 BMatP= 1.92D-02
 IDIUse=3 WtCom= 9.56D-01 WtEn= 4.35D-02
 Coeff-Com: -0.977D-01 0.234D+00 0.863D+00
 Coeff-En:   0.000D+00 0.000D+00 0.100D+01
 Coeff:     -0.935D-01 0.224D+00 0.869D+00
 Gap=     0.418 Goal=   None    Shift=    0.000
 RMSDP=1.03D-04 MaxDP=4.00D-03 DE=-6.84D-02 OVMax= 1.33D-02

 Cycle   4  Pass 0  IDiag  1:
 E= -115.403415861762     Delta-E=       -0.001777159011 Rises=F Damp=F
 DIIS: error= 1.42D-03 at cycle   4 NSaved=   4.
 NSaved= 4 IEnMin= 4 EnMin= -115.403415861762     IErMin= 4 ErrMin= 1.42D-03
 ErrMax= 1.42D-03  0.00D+00 EMaxC= 1.00D-01 BMatC= 2.67D-04 BMatP= 3.08D-03
 IDIUse=3 WtCom= 9.86D-01 WtEn= 1.42D-02
 Coeff-Com: -0.321D-01 0.547D-01 0.337D+00 0.640D+00
 Coeff-En:   0.000D+00 0.000D+00 0.000D+00 0.100D+01
 Coeff:     -0.317D-01 0.539D-01 0.333D+00 0.645D+00
 Gap=     0.416 Goal=   None    Shift=    0.000
 RMSDP=3.31D-05 MaxDP=1.70D-03 DE=-1.78D-03 OVMax= 4.58D-03

 Cycle   5  Pass 0  IDiag  1:
 E= -115.403647621888     Delta-E=       -0.000231760126 Rises=F Damp=F
 DIIS: error= 2.44D-04 at cycle   5 NSaved=   5.
 NSaved= 5 IEnMin= 5 EnMin= -115.403647621888     IErMin= 5 ErrMin= 2.44D-04
 ErrMax= 2.44D-04  0.00D+00 EMaxC= 1.00D-01 BMatC= 8.29D-06 BMatP= 2.67D-04
 IDIUse=3 WtCom= 9.98D-01 WtEn= 2.44D-03
 Coeff-Com: -0.423D-02 0.334D-02 0.529D-01 0.194D+00 0.753D+00
 Coeff-En:   0.000D+00 0.000D+00 0.000D+00 0.000D+00 0.100D+01
 Coeff:     -0.422D-02 0.333D-02 0.528D-01 0.194D+00 0.754D+00
 Gap=     0.416 Goal=   None    Shift=    0.000
 RMSDP=8.80D-06 MaxDP=2.92D-04 DE=-2.32D-04 OVMax= 7.35D-04

 Initial convergence to 1.0D-05 achieved.  Increase integral accuracy.
 Cycle   6  Pass 1  IDiag  1:
 E= -115.403666216770     Delta-E=       -0.000018594882 Rises=F Damp=F
 DIIS: error= 3.51D-05 at cycle   1 NSaved=   1.
 NSaved= 1 IEnMin= 1 EnMin= -115.403666216770     IErMin= 1 ErrMin= 3.51D-05
 ErrMax= 3.51D-05  0.00D+00 EMaxC= 1.00D-01 BMatC= 1.45D-07 BMatP= 1.45D-07
 IDIUse=1 WtCom= 1.00D+00 WtEn= 0.00D+00
 Coeff-Com:  0.100D+01
 Coeff:      0.100D+01
 Gap=     0.416 Goal=   None    Shift=    0.000
 RMSDP=8.80D-06 MaxDP=2.92D-04 DE=-1.86D-05 OVMax= 1.53D-04

 Cycle   7  Pass 1  IDiag  1:
 E= -115.403666432371     Delta-E=       -0.000000215601 Rises=F Damp=F
 DIIS: error= 1.19D-05 at cycle   2 NSaved=   2.
 NSaved= 2 IEnMin= 2 EnMin= -115.403666432371     IErMin= 2 ErrMin= 1.19D-05
 ErrMax= 1.19D-05  0.00D+00 EMaxC= 1.00D-01 BMatC= 9.62D-09 BMatP= 1.45D-07
 IDIUse=1 WtCom= 1.00D+00 WtEn= 0.00D+00
 Coeff-Com: -0.775D-01 0.108D+01
 Coeff:     -0.775D-01 0.108D+01
 Gap=     0.416 Goal=   None    Shift=    0.000
 RMSDP=7.72D-07 MaxDP=3.12D-05 DE=-2.16D-07 OVMax= 6.26D-05

 Cycle   8  Pass 1  IDiag  1:
 E= -115.403666451729     Delta-E=       -0.000000019357 Rises=F Damp=F
 DIIS: error= 3.01D-06 at cycle   3 NSaved=   3.
 NSaved= 3 IEnMin= 3 EnMin= -115.403666451729     IErMin= 3 ErrMin= 3.01D-06
 ErrMax= 3.01D-06  0.00D+00 EMaxC= 1.00D-01 BMatC= 1.66D-09 BMatP= 9.62D-09
 IDIUse=1 WtCom= 1.00D+00 WtEn= 0.00D+00
 Coeff-Com: -0.786D-01 0.203D+00 0.875D+00
 Coeff:     -0.786D-01 0.203D+00 0.875D+00
 Gap=     0.416 Goal=   None    Shift=    0.000
 RMSDP=2.29D-07 MaxDP=8.16D-06 DE=-1.94D-08 OVMax= 2.10D-05

 Cycle   9  Pass 1  IDiag  1:
 E= -115.403666453446     Delta-E=       -0.000000001717 Rises=F Damp=F
 DIIS: error= 1.44D-06 at cycle   4 NSaved=   4.
 NSaved= 4 IEnMin= 4 EnMin= -115.403666453446     IErMin= 4 ErrMin= 1.44D-06
 ErrMax= 1.44D-06  0.00D+00 EMaxC= 1.00D-01 BMatC= 3.46D-10 BMatP= 1.66D-09
 IDIUse=1 WtCom= 1.00D+00 WtEn= 0.00D+00
 Coeff-Com: -0.265D-01-0.680D-02 0.351D+00 0.682D+00
 Coeff:     -0.265D-01-0.680D-02 0.351D+00 0.682D+00
 Gap=     0.416 Goal=   None    Shift=    0.000
 RMSDP=4.52D-08 MaxDP=1.92D-06 DE=-1.72D-09 OVMax= 5.86D-06

 Cycle  10  Pass 1  IDiag  1:
 E= -115.403666453696     Delta-E=       -0.000000000250 Rises=F Damp=F
 DIIS: error= 2.43D-07 at cycle   5 NSaved=   5.
 NSaved= 5 IEnMin= 5 EnMin= -115.403666453696     IErMin= 5 ErrMin= 2.43D-07
 ErrMax= 2.43D-07  0.00D+00 EMaxC= 1.00D-01 BMatC= 1.46D-11 BMatP= 3.46D-10
 IDIUse=1 WtCom= 1.00D+00 WtEn= 0.00D+00
 Coeff-Com:  0.240D-02-0.196D-01-0.171D-01 0.162D+00 0.872D+00
 Coeff:      0.240D-02-0.196D-01-0.171D-01 0.162D+00 0.872D+00
 Gap=     0.416 Goal=   None    Shift=    0.000
 RMSDP=1.19D-08 MaxDP=4.26D-07 DE=-2.50D-10 OVMax= 1.36D-06

 Cycle  11  Pass 1  IDiag  1:
 E= -115.403666453708     Delta-E=       -0.000000000012 Rises=F Damp=F
 DIIS: error= 5.77D-08 at cycle   6 NSaved=   6.
 NSaved= 6 IEnMin= 6 EnMin= -115.403666453708     IErMin= 6 ErrMin= 5.77D-08
 ErrMax= 5.77D-08  0.00D+00 EMaxC= 1.00D-01 BMatC= 4.43D-13 BMatP= 1.46D-11
 IDIUse=1 WtCom= 1.00D+00 WtEn= 0.00D+00
 Coeff-Com:  0.109D-02-0.597D-02-0.111D-01 0.366D-01 0.249D+00 0.731D+00
 Coeff:      0.109D-02-0.597D-02-0.111D-01 0.366D-01 0.249D+00 0.731D+00
 Gap=     0.416 Goal=   None    Shift=    0.000
 RMSDP=2.00D-09 MaxDP=9.26D-08 DE=-1.21D-11 OVMax= 2.76D-07

 SCF Done:  E(RB2PLYPD3) =  -115.403666454     A.U. after   11 cycles
            NFock= 11  Conv=0.20D-08     -V/T= 1.9965
 KE= 1.158072615587D+02 PE=-3.548366174510D+02 EE= 8.198420172091D+01
 Leave Link  502 at Wed Aug 26 15:25:40 2020, MaxMem=  2097152000 cpu:        76.4
 (Enter /opt/cluster/programs/g09/g09_d.01/g09/l801.exe)
 DoSCS=T DFT=T ScalE2(SS,OS)=  0.270000  0.270000
 ExpMin= 7.60D-02 ExpMax= 1.17D+05 ExpMxC= 1.13D+03 IAcc=3 IRadAn=         5 AccDes= 0.00D+00
 HarFok:  IExCor=  205 AccDes= 0.00D+00 IRadAn=         5 IDoV=-2 UseB2=F ITyADJ=14
 ICtDFT= 12500011 ScaDFX=  1.000000  1.000000  1.000000  1.000000
 DSYEVD-2 returned Info=        1739 IAlg= 4 N=    57 NDim=    57 NE2=    36788970 trying  DSYEV.
 Largest valence mixing into a core orbital is  1.22D-04
 Largest core mixing into a valence orbital is  1.46D-05
 Range of M.O.s used for correlation:     3   234
 NBasis=   234 NAE=     9 NBE=     9 NFC=     2 NFV=     0
 NROrb=    232 NOA=     7 NOB=     7 NVA=   225 NVB=   225

 **** Warning!!: The largest alpha MO coefficient is  0.24181273D+02

 Leave Link  801 at Wed Aug 26 15:25:40 2020, MaxMem=  2097152000 cpu:         0.6
 (Enter /opt/cluster/programs/g09/g09_d.01/g09/l906.exe)
 DoSCS=T DFT=T ScalE2(SS,OS)=  0.270000  0.270000
 FulOut=F Deriv=F AODrv=F NAtomX=     6
   MMem=        3646  MDisk=           7 MDiskD=           7
  W3Min=      447300 MinDsk=     1090093 NBas6D=         284
 NBas2D=       41310    NTT=       40470    LW2=     4508827
    MDV=  2096872478 MDiskM=       16391 NBas2p=       41304
 Fully in-core method, ICMem=  1722292712.
 IMap=   1   2   3   4   5   6   7
 JobTyp=1 Pass  1 fully in-core, NPsUse=  8.
 Compute canonical integrals.
 FoFCou: FMM=F IPFlag=           0 FMFlag=           0 FMFlg1=           0
         NFxFlg=           0 DoJE=F BraDBF=F KetDBF=F FulRan=T
         wScrn=  0.000000 ICntrl=     600 IOpCl=  1 I1Cent=           0 NGrid=           0
         NMat0=    1 NMatS0=  41310 NMatT0=    0 NMatD0=    1 NMtDS0=    0 NMtDT0=    0
 Symmetry not used in FoFCou.
 Spin components of T(2) and E(2):
     alpha-alpha T2 =       0.1918489763D-01 E2=     -0.1614900440D-01
     alpha-beta  T2 =       0.1255910100D+00 E2=     -0.1114936462D+00
     beta-beta   T2 =       0.1918489763D-01 E2=     -0.1614900440D-01
 The integrals were generated   1 times.
 E2(B2PLYPD3) =    -0.1437916550D+00 E(B2PLYPD3) =    -0.11554745810867D+03
 Leave Link  906 at Wed Aug 26 15:25:55 2020, MaxMem=  2097152000 cpu:       114.5
 (Enter /opt/cluster/programs/g09/g09_d.01/g09/l601.exe)
 Copying SCF densities to generalized density rwf, IOpCl= 0 IROHF=0.

 **********************************************************************

            Population analysis using the SCF density.

 **********************************************************************

 Orbital symmetries:
       Occupied  (A) (A) (A) (A) (A) (A) (A) (A) (A)
       Virtual   (A) (A) (A) (A) (A) (A) (A) (A) (A) (A) (A) (A)
                 (A) (A) (A) (A) (A) (A) (A) (A) (A) (A) (A) (A)
                 (A) (A) (A) (A) (A) (A) (A) (A) (A) (A) (A) (A)
                 (A) (A) (A) (A) (A) (A) (A) (A) (A) (A) (A) (A)
                 (A) (A) (A) (A) (A) (A) (A) (A) (A) (A) (A) (A)
                 (A) (A) (A) (A) (A) (A) (A) (A) (A) (A) (A) (A)
                 (A) (A) (A) (A) (A) (A) (A) (A) (A) (A) (A) (A)
                 (A) (A) (A) (A) (A) (A) (A) (A) (A) (A) (A) (A)
                 (A) (A) (A) (A) (A) (A) (A) (A) (A) (A) (A) (A)
                 (A) (A) (A) (A) (A) (A) (A) (A) (A) (A) (A) (A)
                 (A) (A) (A) (A) (A) (A) (A) (A) (A) (A) (A) (A)
                 (A) (A) (A) (A) (A) (A) (A) (A) (A) (A) (A) (A)
                 (A) (A) (A) (A) (A) (A) (A) (A) (A) (A) (A) (A)
                 (A) (A) (A) (A) (A) (A) (A) (A) (A) (A) (A) (A)
                 (A) (A) (A) (A) (A) (A) (A) (A) (A) (A) (A) (A)
                 (A) (A) (A) (A) (A) (A) (A) (A) (A) (A) (A) (A)
                 (A) (A) (A) (A) (A) (A) (A) (A) (A) (A) (A) (A)
                 (A) (A) (A) (A) (A) (A) (A) (A) (A) (A) (A) (A)
                 (A) (A) (A) (A) (A) (A) (A) (A) (A)
 The electronic state is 1-A.
 Alpha  occ. eigenvalues --  -19.69491 -10.68286  -1.24622  -0.81462  -0.61914
 Alpha  occ. eigenvalues --   -0.52130  -0.49384  -0.40514  -0.36298
 Alpha virt. eigenvalues --    0.05310   0.09317   0.11532   0.11983   0.14643
 Alpha virt. eigenvalues --    0.16686   0.17815   0.28748   0.32702   0.33131
 Alpha virt. eigenvalues --    0.35746   0.38036   0.40507   0.40853   0.42185
 Alpha virt. eigenvalues --    0.50279   0.53137   0.57792   0.60299   0.67665
 Alpha virt. eigenvalues --    0.69574   0.71101   0.72216   0.78469   0.79693
 Alpha virt. eigenvalues --    0.82316   0.87081   0.88256   0.93448   0.95667
 Alpha virt. eigenvalues --    1.02228   1.05149   1.07549   1.07751   1.09502
 Alpha virt. eigenvalues --    1.09757   1.21491   1.24182   1.35345   1.37050
 Alpha virt. eigenvalues --    1.39318   1.40748   1.43561   1.46609   1.49581
 Alpha virt. eigenvalues --    1.78637   1.79267   1.84803   1.89738   1.91158
 Alpha virt. eigenvalues --    1.94405   1.95913   1.97748   2.00916   2.02756
 Alpha virt. eigenvalues --    2.02851   2.13117   2.16749   2.19042   2.19798
 Alpha virt. eigenvalues --    2.25205   2.31346   2.32373   2.36271   2.44142
 Alpha virt. eigenvalues --    2.45119   2.46196   2.59214   2.62399   2.63551
 Alpha virt. eigenvalues --    2.65070   2.72157   2.73767   2.75559   2.82117
 Alpha virt. eigenvalues --    2.84066   2.85282   2.88295   2.94733   2.96648
 Alpha virt. eigenvalues --    3.00886   3.03007   3.08259   3.12856   3.17928
 Alpha virt. eigenvalues --    3.21051   3.25967   3.34797   3.37482   3.43735
 Alpha virt. eigenvalues --    3.46972   3.58767   3.71585   3.80160   3.86744
 Alpha virt. eigenvalues --    3.90253   3.99483   4.07012   4.08498   4.16613
 Alpha virt. eigenvalues --    4.18101   4.20295   4.29826   4.42697   4.49860
 Alpha virt. eigenvalues --    4.55215   4.70229   4.82126   5.09162   5.30432
 Alpha virt. eigenvalues --    5.39992   5.40863   5.47520   5.58104   5.68563
 Alpha virt. eigenvalues --    5.74083   5.80547   5.86858   5.89632   5.92997
 Alpha virt. eigenvalues --    5.93841   5.96191   5.99054   6.02247   6.04784
 Alpha virt. eigenvalues --    6.13320   6.16415   6.18692   6.25742   6.26248
 Alpha virt. eigenvalues --    6.30631   6.36015   6.43842   6.45863   6.51699
 Alpha virt. eigenvalues --    6.55783   6.59101   6.67801   6.73797   6.92727
 Alpha virt. eigenvalues --    6.95613   7.03813   7.09047   7.13279   7.16258
 Alpha virt. eigenvalues --    7.18449   7.27412   7.32602   7.39127   7.39644
 Alpha virt. eigenvalues --    7.43957   7.46217   7.56990   7.62958   7.66361
 Alpha virt. eigenvalues --    7.69380   7.71483   7.74453   7.77915   7.84863
 Alpha virt. eigenvalues --    7.86423   7.89805   8.02891   8.11982   8.13507
 Alpha virt. eigenvalues --    8.22633   8.24214   8.26885   8.32508   8.38244
 Alpha virt. eigenvalues --    8.43491   8.47138   8.50704   8.51822   8.56467
 Alpha virt. eigenvalues --    8.74562   8.78151   8.80199   8.84751   8.87498
 Alpha virt. eigenvalues --    8.91986   8.98512   9.16813   9.32706   9.39786
 Alpha virt. eigenvalues --    9.46105   9.49717   9.59569   9.64161   9.74421
 Alpha virt. eigenvalues --    9.79353   9.91160  10.02040  10.09557  10.25595
 Alpha virt. eigenvalues --   10.32559  10.43019  10.46733  10.60181  11.08430
 Alpha virt. eigenvalues --   11.15236  11.29322  11.50445  11.71690  11.84009
 Alpha virt. eigenvalues --   11.87717  11.95098  11.98651  12.11009  12.33153
 Alpha virt. eigenvalues --   12.56291  12.84629  13.22895  13.27144  13.41402
 Alpha virt. eigenvalues --   13.84479  13.99876  15.15967  16.25525  16.43666
 Alpha virt. eigenvalues --   17.45643  28.96302  49.14001 148.52242 255.03151
          Condensed to atoms (all electrons):
               1          2          3          4          5          6
     1  C    4.482721   0.260640   0.421811   0.422803   0.397464  -0.034114
     2  O    0.260640   7.643858  -0.049073  -0.050817  -0.043694   0.476303
     3  H    0.421811  -0.049073   0.646759  -0.045122  -0.033110  -0.002758
     4  H    0.422803  -0.050817  -0.045122   0.654609  -0.031232  -0.001721
     5  H    0.397464  -0.043694  -0.033110  -0.031232   0.634523   0.005439
     6  H   -0.034114   0.476303  -0.002758  -0.001721   0.005439   0.551891
 Mulliken charges:
               1
     1  C    0.048675
     2  O   -0.237217
     3  H    0.061493
     4  H    0.051480
     5  H    0.070609
     6  H    0.004960
 Sum of Mulliken charges =   0.00000
 Mulliken charges with hydrogens summed into heavy atoms:
               1
     1  C    0.232256
     2  O   -0.232256
 Electronic spatial extent (au):  <R**2>=             84.1627
 Charge=              0.0000 electrons
 Dipole moment (field-independent basis, Debye):
    X=             -0.8722    Y=             -1.2539    Z=              0.2563  Tot=              1.5488
 Quadrupole moment (field-independent basis, Debye-Ang):
   XX=            -13.1796   YY=            -12.5207   ZZ=            -13.4665
   XY=             -1.7608   XZ=              0.2165   YZ=             -0.1344
 Traceless Quadrupole moment (field-independent basis, Debye-Ang):
   XX=             -0.1240   YY=              0.5349   ZZ=             -0.4110
   XY=             -1.7608   XZ=              0.2165   YZ=             -0.1344
 Octapole moment (field-independent basis, Debye-Ang**2):
  XXX=              5.7674  YYY=             -0.1522  ZZZ=              0.5773  XYY=              1.4566
  XXY=             -2.1422  XXZ=              0.4305  XZZ=              0.6059  YZZ=             -0.9225
  YYZ=             -0.1755  XYZ=             -0.1498
 Hexadecapole moment (field-independent basis, Debye-Ang**3):
 XXXX=            -61.9988 YYYY=            -21.2892 ZZZZ=            -20.6457 XXXY=             -2.9989
 XXXZ=              0.1627 YYYX=             -2.5557 YYYZ=             -0.2878 ZZZX=             -0.2897
 ZZZY=             -0.1063 XXYY=            -13.4993 XXZZ=            -14.2572 YYZZ=             -7.1428
 XXYZ=             -0.1710 YYXZ=              0.3873 ZZXY=              0.2776
 N-N= 4.164148771765D+01 E-N=-3.548366221502D+02  KE= 1.158072615587D+02
 Leave Link  601 at Wed Aug 26 15:25:55 2020, MaxMem=  2097152000 cpu:         0.3
 (Enter /opt/cluster/programs/g09/g09_d.01/g09/l9999.exe)
 1\1\GINC-NODE22\SP\RB2PLYPD3-FC\def2QZVP\C1H4O1\BOITTIER\26-Aug-2020\0
 \\#p B2PLYPD3/Def2QZVP\\methanol\\0,1\C,0,-5.178524,-1.26207,0.905551\
 O,0,-3.771003,-1.12206,0.844407\H,0,-5.486414,-2.252636,0.549352\H,0,-
 5.702915,-0.404536,0.317966\H,0,-5.406204,-1.163431,2.092399\H,0,-3.49
 3971,-1.172731,0.215561\\Version=ES64L-G09RevD.01\State=1-A\HF=-115.40
 36665\MP2=-115.5474581\RMSD=1.998e-09\PG=C01 [X(C1H4O1)]\\@


 Some scientists claim that hydrogen, because it is so
 plentiful, is the basic building block of the universe. 
 I dispute that. I say that stupidity is far more
 abundant than hydrogen, and THAT is the basic building 
 block of the universe.
                   --Frank Zappa
 Job cpu time:       0 days  0 hours  3 minutes 19.7 seconds.
 File lengths (MBytes):  RWF=     23 Int=      0 D2E=      0 Chk=      4 Scr=      1
 Normal termination of Gaussian 09 at Wed Aug 26 15:25:55 2020.
