 Entering Gaussian System, Link 0=/opt/cluster/programs/g09/g09_d.01/g09//g09
 Input=/home/boittier/MDCM/nms_sampling/methanol_geom.xyz.dir/energies/methanol_273_energy.com
 Output=/scratch/boittier/methanol_273_energy/methanol_273_energy.out
 Initial command:
 /opt/cluster/programs/g09/g09_d.01/g09/l1.exe "/scratch/boittier/methanol_273_energy/Gau-134714.inp" -scrdir="/scratch/boittier/methanol_273_energy/"
 Entering Link 1 = /opt/cluster/programs/g09/g09_d.01/g09/l1.exe PID=    134715.
  
 Copyright (c) 1988,1990,1992,1993,1995,1998,2003,2009,2013,
            Gaussian, Inc.  All Rights Reserved.
  
 This is part of the Gaussian(R) 09 program.  It is based on
 the Gaussian(R) 03 system (copyright 2003, Gaussian, Inc.),
 the Gaussian(R) 98 system (copyright 1998, Gaussian, Inc.),
 the Gaussian(R) 94 system (copyright 1995, Gaussian, Inc.),
 the Gaussian 92(TM) system (copyright 1992, Gaussian, Inc.),
 the Gaussian 90(TM) system (copyright 1990, Gaussian, Inc.),
 the Gaussian 88(TM) system (copyright 1988, Gaussian, Inc.),
 the Gaussian 86(TM) system (copyright 1986, Carnegie Mellon
 University), and the Gaussian 82(TM) system (copyright 1983,
 Carnegie Mellon University). Gaussian is a federally registered
 trademark of Gaussian, Inc.
  
 This software contains proprietary and confidential information,
 including trade secrets, belonging to Gaussian, Inc.
  
 This software is provided under written license and may be
 used, copied, transmitted, or stored only in accord with that
 written license.
  
 The following legend is applicable only to US Government
 contracts under FAR:
  
                    RESTRICTED RIGHTS LEGEND
  
 Use, reproduction and disclosure by the US Government is
 subject to restrictions as set forth in subparagraphs (a)
 and (c) of the Commercial Computer Software - Restricted
 Rights clause in FAR 52.227-19.
  
 Gaussian, Inc.
 340 Quinnipiac St., Bldg. 40, Wallingford CT 06492
  
  
 ---------------------------------------------------------------
 Warning -- This program may not be used in any manner that
 competes with the business of Gaussian, Inc. or will provide
 assistance to any competitor of Gaussian, Inc.  The licensee
 of this program is prohibited from giving any competitor of
 Gaussian, Inc. access to this program.  By using this program,
 the user acknowledges that Gaussian, Inc. is engaged in the
 business of creating and licensing software in the field of
 computational chemistry and represents and warrants to the
 licensee that it is not a competitor of Gaussian, Inc. and that
 it will not use this program in any manner prohibited above.
 ---------------------------------------------------------------
  

 Cite this work as:
 Gaussian 09, Revision D.01,
 M. J. Frisch, G. W. Trucks, H. B. Schlegel, G. E. Scuseria, 
 M. A. Robb, J. R. Cheeseman, G. Scalmani, V. Barone, B. Mennucci, 
 G. A. Petersson, H. Nakatsuji, M. Caricato, X. Li, H. P. Hratchian, 
 A. F. Izmaylov, J. Bloino, G. Zheng, J. L. Sonnenberg, M. Hada, 
 M. Ehara, K. Toyota, R. Fukuda, J. Hasegawa, M. Ishida, T. Nakajima, 
 Y. Honda, O. Kitao, H. Nakai, T. Vreven, J. A. Montgomery, Jr., 
 J. E. Peralta, F. Ogliaro, M. Bearpark, J. J. Heyd, E. Brothers, 
 K. N. Kudin, V. N. Staroverov, T. Keith, R. Kobayashi, J. Normand, 
 K. Raghavachari, A. Rendell, J. C. Burant, S. S. Iyengar, J. Tomasi, 
 M. Cossi, N. Rega, J. M. Millam, M. Klene, J. E. Knox, J. B. Cross, 
 V. Bakken, C. Adamo, J. Jaramillo, R. Gomperts, R. E. Stratmann, 
 O. Yazyev, A. J. Austin, R. Cammi, C. Pomelli, J. W. Ochterski, 
 R. L. Martin, K. Morokuma, V. G. Zakrzewski, G. A. Voth, 
 P. Salvador, J. J. Dannenberg, S. Dapprich, A. D. Daniels, 
 O. Farkas, J. B. Foresman, J. V. Ortiz, J. Cioslowski, 
 and D. J. Fox, Gaussian, Inc., Wallingford CT, 2013.
 
 ******************************************
 Gaussian 09:  ES64L-G09RevD.01 24-Apr-2013
                26-Aug-2020 
 ******************************************
 %chk=/home/boittier/MDCM/nms_sampling/methanol_geom.xyz.dir/methanol_273.chk
 %nproc=8
 Will use up to    8 processors via shared memory.
 %mem=16000MB
 --------------------
 #p B2PLYPD3/Def2QZVP
 --------------------
 1/38=1/1;
 2/12=2,17=6,18=5,40=1/2;
 3/5=45,7=101,11=9,16=1,25=1,30=1,74=-60/1,2,3;
 4//1;
 5/5=2,38=5/2;
 8/10=1/1;
 9/16=-3/6;
 6/7=2,8=2,9=2,10=2/1;
 99/5=1,9=1/99;
 Leave Link    1 at Wed Aug 26 21:04:37 2020, MaxMem=  2097152000 cpu:         0.4
 (Enter /opt/cluster/programs/g09/g09_d.01/g09/l101.exe)
 --------
 methanol
 --------
 Symbolic Z-matrix:
 Charge =  0 Multiplicity = 1
 C                    -5.18768  -1.25674   0.90981 
 O                    -3.76391  -1.12158   0.87272 
 H                    -5.51505  -2.18346   0.57119 
 H                    -5.68285  -0.53709   0.36699 
 H                    -5.44162  -1.13778   1.93438 
 H                    -3.46166  -1.20316  -0.20986 
 
 NAtoms=      6 NQM=        6 NQMF=       0 NMMI=      0 NMMIF=      0
                NMic=       0 NMicF=      0.
                    Isotopes and Nuclear Properties:
 (Nuclear quadrupole moments (NQMom) in fm**2, nuclear magnetic moments (NMagM)
  in nuclear magnetons)

  Atom         1           2           3           4           5           6
 IAtWgt=          12          16           1           1           1           1
 AtmWgt=  12.0000000  15.9949146   1.0078250   1.0078250   1.0078250   1.0078250
 NucSpn=           0           0           1           1           1           1
 AtZEff=   0.0000000   0.0000000   0.0000000   0.0000000   0.0000000   0.0000000
 NQMom=    0.0000000   0.0000000   0.0000000   0.0000000   0.0000000   0.0000000
 NMagM=    0.0000000   0.0000000   2.7928460   2.7928460   2.7928460   2.7928460
 AtZNuc=   6.0000000   8.0000000   1.0000000   1.0000000   1.0000000   1.0000000
 Leave Link  101 at Wed Aug 26 21:04:39 2020, MaxMem=  2097152000 cpu:         0.5
 (Enter /opt/cluster/programs/g09/g09_d.01/g09/l202.exe)
                          Input orientation:                          
 ---------------------------------------------------------------------
 Center     Atomic      Atomic             Coordinates (Angstroms)
 Number     Number       Type             X           Y           Z
 ---------------------------------------------------------------------
      1          6           0       -5.187676   -1.256740    0.909808
      2          8           0       -3.763914   -1.121584    0.872720
      3          1           0       -5.515053   -2.183458    0.571194
      4          1           0       -5.682849   -0.537091    0.366989
      5          1           0       -5.441615   -1.137783    1.934377
      6          1           0       -3.461655   -1.203164   -0.209862
 ---------------------------------------------------------------------
                    Distance matrix (angstroms):
                    1          2          3          4          5
     1  C    0.000000
     2  O    1.430644   0.000000
     3  H    1.039539   2.070020   0.000000
     4  H    1.028467   2.068745   1.667447   0.000000
     5  H    1.062251   1.985462   1.719621   1.695798   0.000000
     6  H    2.058077   1.126943   2.405716   2.389584   2.919294
                    6
     6  H    0.000000
 Stoichiometry    CH4O
 Framework group  C1[X(CH4O)]
 Deg. of freedom    12
 Full point group                 C1      NOp   1
 Largest Abelian subgroup         C1      NOp   1
 Largest concise Abelian subgroup C1      NOp   1
                         Standard orientation:                         
 ---------------------------------------------------------------------
 Center     Atomic      Atomic             Coordinates (Angstroms)
 Number     Number       Type             X           Y           Z
 ---------------------------------------------------------------------
      1          6           0        0.674456    0.029654   -0.000254
      2          8           0       -0.745314   -0.146364    0.003346
      3          1           0        1.021606    0.534997    0.839244
      4          1           0        1.024259    0.529553   -0.828192
      5          1           0        1.066880   -0.957358   -0.013940
      6          1           0       -1.196965    0.885795   -0.022356
 ---------------------------------------------------------------------
 Rotational constants (GHZ):    127.6829091     24.7905469     23.4621929
 Leave Link  202 at Wed Aug 26 21:04:39 2020, MaxMem=  2097152000 cpu:         0.0
 (Enter /opt/cluster/programs/g09/g09_d.01/g09/l301.exe)
 Standard basis: def2QZVP (5D, 7F)
 Ernie: Thresh=  0.10000D-02 Tol=  0.10000D-05 Strict=F.
 There are   284 symmetry adapted cartesian basis functions of A   symmetry.
 There are   234 symmetry adapted basis functions of A   symmetry.
   234 basis functions,   336 primitive gaussians,   284 cartesian basis functions
     9 alpha electrons        9 beta electrons
       nuclear repulsion energy        39.9678755420 Hartrees.
 IExCor=  419 DFT=T Ex+Corr=B2PLYPD3 ExCW=0 ScaHFX=  0.530000
 ScaDFX=  0.470000  0.470000  0.730000  0.730000 ScalE2=  0.270000  0.270000
 IRadAn=      0 IRanWt=     -1 IRanGd=            0 ICorTp=0 IEmpDi=141
 NAtoms=    6 NActive=    6 NUniq=    6 SFac= 1.00D+00 NAtFMM=   60 NAOKFM=F Big=F
 Integral buffers will be    131072 words long.
 Regular integral format.
 Two-electron integral symmetry is turned on.
 R6Disp:  Grimme-D3(BJ) Dispersion energy=       -0.0013091669 Hartrees.
 Nuclear repulsion after empirical dispersion term =       39.9665663751 Hartrees.
 Leave Link  301 at Wed Aug 26 21:04:39 2020, MaxMem=  2097152000 cpu:         0.4
 (Enter /opt/cluster/programs/g09/g09_d.01/g09/l302.exe)
 NPDir=0 NMtPBC=     1 NCelOv=     1 NCel=       1 NClECP=     1 NCelD=      1
         NCelK=      1 NCelE2=     1 NClLst=     1 CellRange=     0.0.
 One-electron integrals computed using PRISM.
   1 Symmetry operations used in ECPInt.
 ECPInt:  NShTT=    2775 NPrTT=    6207 LenC2=    2773 LenP2D=    5738.
 LDataN:  DoStor=T MaxTD1= 8 Len=  415
 NBasis=   234 RedAO= T EigKep=  1.08D-04  NBF=   234
 NBsUse=   234 1.00D-06 EigRej= -1.00D+00 NBFU=   234
 Precomputing XC quadrature grid using
 IXCGrd= 4 IRadAn=           0 IRanWt=          -1 IRanGd=           0 AccXCQ= 0.00D+00.
 Generated NRdTot=       0 NPtTot=           0 NUsed=           0 NTot=          32
 NSgBfM=   284   284   284   284   284 MxSgAt=     6 MxSgA2=     6.
 Leave Link  302 at Wed Aug 26 21:04:41 2020, MaxMem=  2097152000 cpu:         1.8
 (Enter /opt/cluster/programs/g09/g09_d.01/g09/l303.exe)
 DipDrv:  MaxL=1.
 Leave Link  303 at Wed Aug 26 21:04:42 2020, MaxMem=  2097152000 cpu:         0.2
 (Enter /opt/cluster/programs/g09/g09_d.01/g09/l401.exe)
 ExpMin= 7.60D-02 ExpMax= 1.17D+05 ExpMxC= 1.13D+03 IAcc=2 IRadAn=         4 AccDes= 0.00D+00
 Harris functional with IExCor=  419 and IRadAn=       4 diagonalized for initial guess.
 HarFok:  IExCor=  419 AccDes= 0.00D+00 IRadAn=         4 IDoV= 1 UseB2=F ITyADJ=14
 ICtDFT=  3500011 ScaDFX=  1.000000  1.000000  1.000000  1.000000
 FoFCou: FMM=F IPFlag=           0 FMFlag=      100000 FMFlg1=           0
         NFxFlg=           0 DoJE=T BraDBF=F KetDBF=T FulRan=T
         wScrn=  0.000000 ICntrl=     500 IOpCl=  0 I1Cent=   200000004 NGrid=           0
         NMat0=    1 NMatS0=      1 NMatT0=    0 NMatD0=    1 NMtDS0=    0 NMtDT0=    0
 Petite list used in FoFCou.
 Harris En= -115.809729544352    
 JPrj=0 DoOrth=F DoCkMO=F.
 Leave Link  401 at Wed Aug 26 21:04:43 2020, MaxMem=  2097152000 cpu:         3.2
 (Enter /opt/cluster/programs/g09/g09_d.01/g09/l502.exe)
 Closed shell SCF:
 Using DIIS extrapolation, IDIIS=  1040.
 Integral symmetry usage will be decided dynamically.
 Keep R1 ints in memory in canonical form, NReq=389840494.
 IVT=      264814 IEndB=      264814 NGot=  2097152000 MDV=  1718885927
 LenX=  1718885927 LenY=  1718804830
 Requested convergence on RMS density matrix=1.00D-08 within 128 cycles.
 Requested convergence on MAX density matrix=1.00D-06.
 Requested convergence on             energy=1.00D-06.
 No special actions if energy rises.
 FoFCou: FMM=F IPFlag=           0 FMFlag=           0 FMFlg1=           0
         NFxFlg=           0 DoJE=F BraDBF=F KetDBF=F FulRan=T
         wScrn=  0.000000 ICntrl=     600 IOpCl=  0 I1Cent=           0 NGrid=           0
         NMat0=    1 NMatS0=  27495 NMatT0=    0 NMatD0=    1 NMtDS0=    0 NMtDT0=    0
 Symmetry not used in FoFCou.
 Integral accuracy reduced to 1.0D-05 until final iterations.

 Cycle   1  Pass 0  IDiag  1:
 E= -115.418874628013    
 DIIS: error= 3.15D-02 at cycle   1 NSaved=   1.
 NSaved= 1 IEnMin= 1 EnMin= -115.418874628013     IErMin= 1 ErrMin= 3.15D-02
 ErrMax= 3.15D-02  0.00D+00 EMaxC= 1.00D-01 BMatC= 1.78D-01 BMatP= 1.78D-01
 IDIUse=3 WtCom= 6.85D-01 WtEn= 3.15D-01
 Coeff-Com:  0.100D+01
 Coeff-En:   0.100D+01
 Coeff:      0.100D+01
 Gap=     0.304 Goal=   None    Shift=    0.000
 GapD=    0.304 DampG=1.000 DampE=0.500 DampFc=0.5000 IDamp=-1.
 Damping current iteration by 5.00D-01
 RMSDP=1.37D-03 MaxDP=4.56D-02              OVMax= 1.46D-01

 Cycle   2  Pass 0  IDiag  1:
 E= -115.471210105697     Delta-E=       -0.052335477684 Rises=F Damp=T
 DIIS: error= 1.11D-02 at cycle   2 NSaved=   2.
 NSaved= 2 IEnMin= 2 EnMin= -115.471210105697     IErMin= 2 ErrMin= 1.11D-02
 ErrMax= 1.11D-02  0.00D+00 EMaxC= 1.00D-01 BMatC= 1.99D-02 BMatP= 1.78D-01
 IDIUse=3 WtCom= 8.89D-01 WtEn= 1.11D-01
 Coeff-Com: -0.121D+00 0.112D+01
 Coeff-En:   0.000D+00 0.100D+01
 Coeff:     -0.107D+00 0.111D+01
 Gap=     0.406 Goal=   None    Shift=    0.000
 RMSDP=3.78D-04 MaxDP=1.08D-02 DE=-5.23D-02 OVMax= 8.61D-02

 Cycle   3  Pass 0  IDiag  1:
 E= -115.521879892856     Delta-E=       -0.050669787159 Rises=F Damp=F
 DIIS: error= 4.88D-03 at cycle   3 NSaved=   3.
 NSaved= 3 IEnMin= 3 EnMin= -115.521879892856     IErMin= 3 ErrMin= 4.88D-03
 ErrMax= 4.88D-03  0.00D+00 EMaxC= 1.00D-01 BMatC= 6.61D-03 BMatP= 1.99D-02
 IDIUse=3 WtCom= 9.51D-01 WtEn= 4.88D-02
 Coeff-Com: -0.144D+00 0.410D+00 0.734D+00
 Coeff-En:   0.000D+00 0.000D+00 0.100D+01
 Coeff:     -0.137D+00 0.390D+00 0.747D+00
 Gap=     0.388 Goal=   None    Shift=    0.000
 RMSDP=1.56D-04 MaxDP=6.31D-03 DE=-5.07D-02 OVMax= 2.08D-02

 Cycle   4  Pass 0  IDiag  1:
 E= -115.525698470479     Delta-E=       -0.003818577623 Rises=F Damp=F
 DIIS: error= 2.09D-03 at cycle   4 NSaved=   4.
 NSaved= 4 IEnMin= 4 EnMin= -115.525698470479     IErMin= 4 ErrMin= 2.09D-03
 ErrMax= 2.09D-03  0.00D+00 EMaxC= 1.00D-01 BMatC= 8.70D-04 BMatP= 6.61D-03
 IDIUse=3 WtCom= 9.79D-01 WtEn= 2.09D-02
 Coeff-Com: -0.504D-01 0.905D-01 0.337D+00 0.623D+00
 Coeff-En:   0.000D+00 0.000D+00 0.305D-01 0.969D+00
 Coeff:     -0.494D-01 0.886D-01 0.331D+00 0.630D+00
 Gap=     0.387 Goal=   None    Shift=    0.000
 RMSDP=4.80D-05 MaxDP=2.01D-03 DE=-3.82D-03 OVMax= 7.44D-03

 Cycle   5  Pass 0  IDiag  1:
 E= -115.526347771894     Delta-E=       -0.000649301415 Rises=F Damp=F
 DIIS: error= 1.75D-04 at cycle   5 NSaved=   5.
 NSaved= 5 IEnMin= 5 EnMin= -115.526347771894     IErMin= 5 ErrMin= 1.75D-04
 ErrMax= 1.75D-04  0.00D+00 EMaxC= 1.00D-01 BMatC= 7.06D-06 BMatP= 8.70D-04
 IDIUse=3 WtCom= 9.98D-01 WtEn= 1.75D-03
 Coeff-Com: -0.679D-02 0.766D-02 0.521D-01 0.147D+00 0.801D+00
 Coeff-En:   0.000D+00 0.000D+00 0.000D+00 0.000D+00 0.100D+01
 Coeff:     -0.678D-02 0.764D-02 0.520D-01 0.146D+00 0.801D+00
 Gap=     0.387 Goal=   None    Shift=    0.000
 RMSDP=7.13D-06 MaxDP=1.97D-04 DE=-6.49D-04 OVMax= 5.75D-04

 Initial convergence to 1.0D-05 achieved.  Increase integral accuracy.
 Cycle   6  Pass 1  IDiag  1:
 E= -115.526349753538     Delta-E=       -0.000001981645 Rises=F Damp=F
 DIIS: error= 1.64D-05 at cycle   1 NSaved=   1.
 NSaved= 1 IEnMin= 1 EnMin= -115.526349753538     IErMin= 1 ErrMin= 1.64D-05
 ErrMax= 1.64D-05  0.00D+00 EMaxC= 1.00D-01 BMatC= 1.16D-07 BMatP= 1.16D-07
 IDIUse=1 WtCom= 1.00D+00 WtEn= 0.00D+00
 Coeff-Com:  0.100D+01
 Coeff:      0.100D+01
 Gap=     0.388 Goal=   None    Shift=    0.000
 RMSDP=7.13D-06 MaxDP=1.97D-04 DE=-1.98D-06 OVMax= 1.73D-04

 Cycle   7  Pass 1  IDiag  1:
 E= -115.526349956619     Delta-E=       -0.000000203081 Rises=F Damp=F
 DIIS: error= 7.54D-06 at cycle   2 NSaved=   2.
 NSaved= 2 IEnMin= 2 EnMin= -115.526349956619     IErMin= 2 ErrMin= 7.54D-06
 ErrMax= 7.54D-06  0.00D+00 EMaxC= 1.00D-01 BMatC= 1.09D-08 BMatP= 1.16D-07
 IDIUse=1 WtCom= 1.00D+00 WtEn= 0.00D+00
 Coeff-Com: -0.456D-01 0.105D+01
 Coeff:     -0.456D-01 0.105D+01
 Gap=     0.388 Goal=   None    Shift=    0.000
 RMSDP=5.27D-07 MaxDP=2.40D-05 DE=-2.03D-07 OVMax= 8.62D-05

 Cycle   8  Pass 1  IDiag  1:
 E= -115.526349972779     Delta-E=       -0.000000016160 Rises=F Damp=F
 DIIS: error= 5.03D-06 at cycle   3 NSaved=   3.
 NSaved= 3 IEnMin= 3 EnMin= -115.526349972779     IErMin= 3 ErrMin= 5.03D-06
 ErrMax= 5.03D-06  0.00D+00 EMaxC= 1.00D-01 BMatC= 7.53D-09 BMatP= 1.09D-08
 IDIUse=1 WtCom= 1.00D+00 WtEn= 0.00D+00
 Coeff-Com: -0.116D+00 0.501D+00 0.615D+00
 Coeff:     -0.116D+00 0.501D+00 0.615D+00
 Gap=     0.388 Goal=   None    Shift=    0.000
 RMSDP=2.24D-07 MaxDP=1.10D-05 DE=-1.62D-08 OVMax= 3.04D-05

 Cycle   9  Pass 1  IDiag  1:
 E= -115.526349978460     Delta-E=       -0.000000005681 Rises=F Damp=F
 DIIS: error= 1.21D-06 at cycle   4 NSaved=   4.
 NSaved= 4 IEnMin= 4 EnMin= -115.526349978460     IErMin= 4 ErrMin= 1.21D-06
 ErrMax= 1.21D-06  0.00D+00 EMaxC= 1.00D-01 BMatC= 4.21D-10 BMatP= 7.53D-09
 IDIUse=1 WtCom= 1.00D+00 WtEn= 0.00D+00
 Coeff-Com: -0.338D-01 0.266D-01 0.203D+00 0.804D+00
 Coeff:     -0.338D-01 0.266D-01 0.203D+00 0.804D+00
 Gap=     0.388 Goal=   None    Shift=    0.000
 RMSDP=6.01D-08 MaxDP=2.66D-06 DE=-5.68D-09 OVMax= 1.11D-05

 Cycle  10  Pass 1  IDiag  1:
 E= -115.526349978866     Delta-E=       -0.000000000406 Rises=F Damp=F
 DIIS: error= 4.01D-07 at cycle   5 NSaved=   5.
 NSaved= 5 IEnMin= 5 EnMin= -115.526349978866     IErMin= 5 ErrMin= 4.01D-07
 ErrMax= 4.01D-07  0.00D+00 EMaxC= 1.00D-01 BMatC= 2.25D-11 BMatP= 4.21D-10
 IDIUse=1 WtCom= 1.00D+00 WtEn= 0.00D+00
 Coeff-Com: -0.164D-02-0.210D-01 0.123D-01 0.223D+00 0.787D+00
 Coeff:     -0.164D-02-0.210D-01 0.123D-01 0.223D+00 0.787D+00
 Gap=     0.388 Goal=   None    Shift=    0.000
 RMSDP=1.45D-08 MaxDP=4.85D-07 DE=-4.06D-10 OVMax= 1.94D-06

 Cycle  11  Pass 1  IDiag  1:
 E= -115.526349978891     Delta-E=       -0.000000000025 Rises=F Damp=F
 DIIS: error= 1.33D-07 at cycle   6 NSaved=   6.
 NSaved= 6 IEnMin= 6 EnMin= -115.526349978891     IErMin= 6 ErrMin= 1.33D-07
 ErrMax= 1.33D-07  0.00D+00 EMaxC= 1.00D-01 BMatC= 1.95D-12 BMatP= 2.25D-11
 IDIUse=1 WtCom= 1.00D+00 WtEn= 0.00D+00
 Coeff-Com:  0.263D-02-0.111D-01-0.162D-01 0.109D-01 0.247D+00 0.767D+00
 Coeff:      0.263D-02-0.111D-01-0.162D-01 0.109D-01 0.247D+00 0.767D+00
 Gap=     0.388 Goal=   None    Shift=    0.000
 RMSDP=4.49D-09 MaxDP=1.34D-07 DE=-2.46D-11 OVMax= 5.76D-07

 SCF Done:  E(RB2PLYPD3) =  -115.526349979     A.U. after   11 cycles
            NFock= 11  Conv=0.45D-08     -V/T= 2.0032
 KE= 1.151623299889D+02 PE=-3.515361702287D+02 EE= 8.088092388582D+01
 Leave Link  502 at Wed Aug 26 21:05:08 2020, MaxMem=  2097152000 cpu:       140.3
 (Enter /opt/cluster/programs/g09/g09_d.01/g09/l801.exe)
 DoSCS=T DFT=T ScalE2(SS,OS)=  0.270000  0.270000
 ExpMin= 7.60D-02 ExpMax= 1.17D+05 ExpMxC= 1.13D+03 IAcc=3 IRadAn=         5 AccDes= 0.00D+00
 HarFok:  IExCor=  205 AccDes= 0.00D+00 IRadAn=         5 IDoV=-2 UseB2=F ITyADJ=14
 ICtDFT= 12500011 ScaDFX=  1.000000  1.000000  1.000000  1.000000
 Largest valence mixing into a core orbital is  1.10D-04
 Largest core mixing into a valence orbital is  1.46D-05
 Range of M.O.s used for correlation:     3   234
 NBasis=   234 NAE=     9 NBE=     9 NFC=     2 NFV=     0
 NROrb=    232 NOA=     7 NOB=     7 NVA=   225 NVB=   225

 **** Warning!!: The largest alpha MO coefficient is  0.32384228D+02

 Leave Link  801 at Wed Aug 26 21:05:11 2020, MaxMem=  2097152000 cpu:         0.5
 (Enter /opt/cluster/programs/g09/g09_d.01/g09/l906.exe)
 DoSCS=T DFT=T ScalE2(SS,OS)=  0.270000  0.270000
 FulOut=F Deriv=F AODrv=F NAtomX=     6
   MMem=        3646  MDisk=           7 MDiskD=           7
  W3Min=      447300 MinDsk=     1090093 NBas6D=         284
 NBas2D=       41310    NTT=       40470    LW2=     4508827
    MDV=  2096872520 MDiskM=       16391 NBas2p=       41304
 Fully in-core method, ICMem=  1722292712.
 IMap=   1   2   3   4   5   6   7
 JobTyp=1 Pass  1 fully in-core, NPsUse=  8.
 Compute canonical integrals.
 FoFCou: FMM=F IPFlag=           0 FMFlag=           0 FMFlg1=           0
         NFxFlg=           0 DoJE=F BraDBF=F KetDBF=F FulRan=T
         wScrn=  0.000000 ICntrl=     600 IOpCl=  1 I1Cent=           0 NGrid=           0
         NMat0=    1 NMatS0=  41310 NMatT0=    0 NMatD0=    1 NMtDS0=    0 NMtDT0=    0
 Symmetry not used in FoFCou.
 Spin components of T(2) and E(2):
     alpha-alpha T2 =       0.2210833170D-01 E2=     -0.1707724509D-01
     alpha-beta  T2 =       0.1390101575D+00 E2=     -0.1159646449D+00
     beta-beta   T2 =       0.2210833170D-01 E2=     -0.1707724509D-01
 The integrals were generated   1 times.
 E2(B2PLYPD3) =    -0.1501191351D+00 E(B2PLYPD3) =    -0.11567646911395D+03
 Leave Link  906 at Wed Aug 26 21:05:26 2020, MaxMem=  2097152000 cpu:       117.0
 (Enter /opt/cluster/programs/g09/g09_d.01/g09/l601.exe)
 Copying SCF densities to generalized density rwf, IOpCl= 0 IROHF=0.

 **********************************************************************

            Population analysis using the SCF density.

 **********************************************************************

 Orbital symmetries:
       Occupied  (A) (A) (A) (A) (A) (A) (A) (A) (A)
       Virtual   (A) (A) (A) (A) (A) (A) (A) (A) (A) (A) (A) (A)
                 (A) (A) (A) (A) (A) (A) (A) (A) (A) (A) (A) (A)
                 (A) (A) (A) (A) (A) (A) (A) (A) (A) (A) (A) (A)
                 (A) (A) (A) (A) (A) (A) (A) (A) (A) (A) (A) (A)
                 (A) (A) (A) (A) (A) (A) (A) (A) (A) (A) (A) (A)
                 (A) (A) (A) (A) (A) (A) (A) (A) (A) (A) (A) (A)
                 (A) (A) (A) (A) (A) (A) (A) (A) (A) (A) (A) (A)
                 (A) (A) (A) (A) (A) (A) (A) (A) (A) (A) (A) (A)
                 (A) (A) (A) (A) (A) (A) (A) (A) (A) (A) (A) (A)
                 (A) (A) (A) (A) (A) (A) (A) (A) (A) (A) (A) (A)
                 (A) (A) (A) (A) (A) (A) (A) (A) (A) (A) (A) (A)
                 (A) (A) (A) (A) (A) (A) (A) (A) (A) (A) (A) (A)
                 (A) (A) (A) (A) (A) (A) (A) (A) (A) (A) (A) (A)
                 (A) (A) (A) (A) (A) (A) (A) (A) (A) (A) (A) (A)
                 (A) (A) (A) (A) (A) (A) (A) (A) (A) (A) (A) (A)
                 (A) (A) (A) (A) (A) (A) (A) (A) (A) (A) (A) (A)
                 (A) (A) (A) (A) (A) (A) (A) (A) (A) (A) (A) (A)
                 (A) (A) (A) (A) (A) (A) (A) (A) (A) (A) (A) (A)
                 (A) (A) (A) (A) (A) (A) (A) (A) (A)
 The electronic state is 1-A.
 Alpha  occ. eigenvalues --  -19.73671 -10.63853  -1.13095  -0.78869  -0.56803
 Alpha  occ. eigenvalues --   -0.52329  -0.48952  -0.40880  -0.35239
 Alpha virt. eigenvalues --    0.03517   0.07793   0.12450   0.12758   0.15009
 Alpha virt. eigenvalues --    0.17206   0.18192   0.28493   0.29885   0.33602
 Alpha virt. eigenvalues --    0.33800   0.38992   0.39584   0.42373   0.44398
 Alpha virt. eigenvalues --    0.46021   0.53382   0.55592   0.58165   0.66303
 Alpha virt. eigenvalues --    0.71118   0.73870   0.76719   0.79160   0.79764
 Alpha virt. eigenvalues --    0.81852   0.85012   0.88834   0.93050   0.94248
 Alpha virt. eigenvalues --    0.98512   1.00830   1.01650   1.09263   1.10772
 Alpha virt. eigenvalues --    1.11474   1.15168   1.20315   1.31823   1.41538
 Alpha virt. eigenvalues --    1.43207   1.47056   1.49677   1.50697   1.51604
 Alpha virt. eigenvalues --    1.75575   1.82379   1.84797   1.86060   1.86695
 Alpha virt. eigenvalues --    1.90143   1.95389   1.97298   1.97384   2.03775
 Alpha virt. eigenvalues --    2.07651   2.14774   2.17596   2.20156   2.23197
 Alpha virt. eigenvalues --    2.24061   2.25573   2.31453   2.32724   2.39086
 Alpha virt. eigenvalues --    2.41301   2.50749   2.54707   2.56744   2.60754
 Alpha virt. eigenvalues --    2.62565   2.63811   2.67447   2.73084   2.77503
 Alpha virt. eigenvalues --    2.85066   2.87125   2.89206   2.93866   3.01740
 Alpha virt. eigenvalues --    3.06612   3.07237   3.11010   3.18457   3.20763
 Alpha virt. eigenvalues --    3.32038   3.33373   3.41792   3.44803   3.51722
 Alpha virt. eigenvalues --    3.54973   3.72243   3.75256   3.87660   3.92131
 Alpha virt. eigenvalues --    4.00602   4.01048   4.04760   4.09876   4.18746
 Alpha virt. eigenvalues --    4.20022   4.26446   4.33834   4.35779   4.40156
 Alpha virt. eigenvalues --    4.47256   4.52329   4.62678   4.75755   5.14537
 Alpha virt. eigenvalues --    5.17718   5.38740   5.46015   5.49816   5.58942
 Alpha virt. eigenvalues --    5.61207   5.70266   5.77169   5.81318   5.84126
 Alpha virt. eigenvalues --    5.92497   5.94072   6.00455   6.09018   6.10470
 Alpha virt. eigenvalues --    6.16273   6.26727   6.30672   6.34557   6.37343
 Alpha virt. eigenvalues --    6.41356   6.44595   6.45420   6.55946   6.59112
 Alpha virt. eigenvalues --    6.62008   6.70711   6.73961   6.81103   6.81309
 Alpha virt. eigenvalues --    6.83779   6.85249   6.94095   6.97785   7.10333
 Alpha virt. eigenvalues --    7.11320   7.31833   7.34366   7.36657   7.59887
 Alpha virt. eigenvalues --    7.61492   7.63535   7.65699   7.66964   7.68147
 Alpha virt. eigenvalues --    7.76583   7.78979   7.84828   7.88292   7.89157
 Alpha virt. eigenvalues --    7.91157   7.95927   7.97442   8.04295   8.15119
 Alpha virt. eigenvalues --    8.18046   8.33080   8.35500   8.37190   8.38408
 Alpha virt. eigenvalues --    8.46747   8.54230   8.54724   8.55601   8.57312
 Alpha virt. eigenvalues --    8.60747   8.68021   8.68941   8.75743   8.80046
 Alpha virt. eigenvalues --    8.88939   8.95174   9.09656   9.16552   9.22473
 Alpha virt. eigenvalues --    9.28253   9.52171   9.56957   9.86350   9.90307
 Alpha virt. eigenvalues --   10.03728  10.03848  10.09633  10.17559  10.19676
 Alpha virt. eigenvalues --   10.31011  10.33332  10.49322  10.51456  10.68860
 Alpha virt. eigenvalues --   10.70815  10.87577  11.04163  11.14374  11.27544
 Alpha virt. eigenvalues --   11.33949  11.55560  11.63084  11.80623  11.81863
 Alpha virt. eigenvalues --   12.02905  12.18923  12.29307  12.67662  12.72211
 Alpha virt. eigenvalues --   12.90614  13.04560  13.43235  13.76120  14.55679
 Alpha virt. eigenvalues --   14.98034  29.41580  48.54671 149.06353 254.27463
          Condensed to atoms (all electrons):
               1          2          3          4          5          6
     1  C    4.408301   0.267984   0.442272   0.439997   0.402792  -0.045535
     2  O    0.267984   8.048254  -0.044154  -0.042484  -0.040181   0.305708
     3  H    0.442272  -0.044154   0.661570  -0.062387  -0.038318  -0.007195
     4  H    0.439997  -0.042484  -0.062387   0.665802  -0.039491  -0.008532
     5  H    0.402792  -0.040181  -0.038318  -0.039491   0.637155   0.011529
     6  H   -0.045535   0.305708  -0.007195  -0.008532   0.011529   0.494906
 Mulliken charges:
               1
     1  C    0.084188
     2  O   -0.495127
     3  H    0.048213
     4  H    0.047094
     5  H    0.066514
     6  H    0.249118
 Sum of Mulliken charges =   0.00000
 Mulliken charges with hydrogens summed into heavy atoms:
               1
     1  C    0.246009
     2  O   -0.246009
 Electronic spatial extent (au):  <R**2>=             84.7301
 Charge=              0.0000 electrons
 Dipole moment (field-independent basis, Debye):
    X=              0.9295    Y=              1.6598    Z=             -0.0546  Tot=              1.9031
 Quadrupole moment (field-independent basis, Debye-Ang):
   XX=            -12.8965   YY=            -11.9017   ZZ=            -13.8884
   XY=             -2.3541   XZ=              0.0315   YZ=             -0.0252
 Traceless Quadrupole moment (field-independent basis, Debye-Ang):
   XX=             -0.0010   YY=              0.9938   ZZ=             -0.9929
   XY=             -2.3541   XZ=              0.0315   YZ=             -0.0252
 Octapole moment (field-independent basis, Debye-Ang**2):
  XXX=             -3.5183  YYY=              0.9447  ZZZ=             -0.0279  XYY=             -1.9301
  XXY=              2.7672  XXZ=             -0.1151  XZZ=             -0.0046  YZZ=              0.5358
  YYZ=             -0.0518  XYZ=              0.0743
 Hexadecapole moment (field-independent basis, Debye-Ang**3):
 XXXX=            -62.9106 YYYY=            -20.5119 ZZZZ=            -19.1395 XXXY=             -3.8703
 XXXZ=              0.0045 YYYX=             -3.1472 YYYZ=             -0.0437 ZZZX=             -0.0182
 ZZZY=             -0.0071 XXYY=            -12.4224 XXZZ=            -14.6190 YYZZ=             -6.8941
 XXYZ=             -0.0531 YYXZ=              0.0236 ZZXY=              0.2000
 N-N= 3.996656637507D+01 E-N=-3.515361778521D+02  KE= 1.151623299889D+02
 Leave Link  601 at Wed Aug 26 21:05:41 2020, MaxMem=  2097152000 cpu:         0.3
 (Enter /opt/cluster/programs/g09/g09_d.01/g09/l9999.exe)
 1\1\GINC-NODE36\SP\RB2PLYPD3-FC\def2QZVP\C1H4O1\BOITTIER\26-Aug-2020\0
 \\#p B2PLYPD3/Def2QZVP\\methanol\\0,1\C,0,-5.187676,-1.25674,0.909808\
 O,0,-3.763914,-1.121584,0.87272\H,0,-5.515053,-2.183458,0.571194\H,0,-
 5.682849,-0.537091,0.366989\H,0,-5.441615,-1.137783,1.934377\H,0,-3.46
 1655,-1.203164,-0.209862\\Version=ES64L-G09RevD.01\State=1-A\HF=-115.5
 2635\MP2=-115.6764691\RMSD=4.488e-09\PG=C01 [X(C1H4O1)]\\@


 HERE WE GO......
 SLIDING DOWN THE RAZOR BLADE OF LIFE......
                                 TOM LEHRER
 Job cpu time:       0 days  0 hours  4 minutes 26.8 seconds.
 File lengths (MBytes):  RWF=     23 Int=      0 D2E=      0 Chk=      4 Scr=      1
 Normal termination of Gaussian 09 at Wed Aug 26 21:05:43 2020.
