 Entering Gaussian System, Link 0=/opt/cluster/programs/g09/g09_d.01/g09//g09
 Input=/home/boittier/MDCM/nms_sampling/methanol_geom.xyz.dir/energies/methanol_1003_energy.com
 Output=/scratch/boittier/methanol_1003_energy/methanol_1003_energy.out
 Initial command:
 /opt/cluster/programs/g09/g09_d.01/g09/l1.exe "/scratch/boittier/methanol_1003_energy/Gau-106561.inp" -scrdir="/scratch/boittier/methanol_1003_energy/"
 Entering Link 1 = /opt/cluster/programs/g09/g09_d.01/g09/l1.exe PID=    106562.
  
 Copyright (c) 1988,1990,1992,1993,1995,1998,2003,2009,2013,
            Gaussian, Inc.  All Rights Reserved.
  
 This is part of the Gaussian(R) 09 program.  It is based on
 the Gaussian(R) 03 system (copyright 2003, Gaussian, Inc.),
 the Gaussian(R) 98 system (copyright 1998, Gaussian, Inc.),
 the Gaussian(R) 94 system (copyright 1995, Gaussian, Inc.),
 the Gaussian 92(TM) system (copyright 1992, Gaussian, Inc.),
 the Gaussian 90(TM) system (copyright 1990, Gaussian, Inc.),
 the Gaussian 88(TM) system (copyright 1988, Gaussian, Inc.),
 the Gaussian 86(TM) system (copyright 1986, Carnegie Mellon
 University), and the Gaussian 82(TM) system (copyright 1983,
 Carnegie Mellon University). Gaussian is a federally registered
 trademark of Gaussian, Inc.
  
 This software contains proprietary and confidential information,
 including trade secrets, belonging to Gaussian, Inc.
  
 This software is provided under written license and may be
 used, copied, transmitted, or stored only in accord with that
 written license.
  
 The following legend is applicable only to US Government
 contracts under FAR:
  
                    RESTRICTED RIGHTS LEGEND
  
 Use, reproduction and disclosure by the US Government is
 subject to restrictions as set forth in subparagraphs (a)
 and (c) of the Commercial Computer Software - Restricted
 Rights clause in FAR 52.227-19.
  
 Gaussian, Inc.
 340 Quinnipiac St., Bldg. 40, Wallingford CT 06492
  
  
 ---------------------------------------------------------------
 Warning -- This program may not be used in any manner that
 competes with the business of Gaussian, Inc. or will provide
 assistance to any competitor of Gaussian, Inc.  The licensee
 of this program is prohibited from giving any competitor of
 Gaussian, Inc. access to this program.  By using this program,
 the user acknowledges that Gaussian, Inc. is engaged in the
 business of creating and licensing software in the field of
 computational chemistry and represents and warrants to the
 licensee that it is not a competitor of Gaussian, Inc. and that
 it will not use this program in any manner prohibited above.
 ---------------------------------------------------------------
  

 Cite this work as:
 Gaussian 09, Revision D.01,
 M. J. Frisch, G. W. Trucks, H. B. Schlegel, G. E. Scuseria, 
 M. A. Robb, J. R. Cheeseman, G. Scalmani, V. Barone, B. Mennucci, 
 G. A. Petersson, H. Nakatsuji, M. Caricato, X. Li, H. P. Hratchian, 
 A. F. Izmaylov, J. Bloino, G. Zheng, J. L. Sonnenberg, M. Hada, 
 M. Ehara, K. Toyota, R. Fukuda, J. Hasegawa, M. Ishida, T. Nakajima, 
 Y. Honda, O. Kitao, H. Nakai, T. Vreven, J. A. Montgomery, Jr., 
 J. E. Peralta, F. Ogliaro, M. Bearpark, J. J. Heyd, E. Brothers, 
 K. N. Kudin, V. N. Staroverov, T. Keith, R. Kobayashi, J. Normand, 
 K. Raghavachari, A. Rendell, J. C. Burant, S. S. Iyengar, J. Tomasi, 
 M. Cossi, N. Rega, J. M. Millam, M. Klene, J. E. Knox, J. B. Cross, 
 V. Bakken, C. Adamo, J. Jaramillo, R. Gomperts, R. E. Stratmann, 
 O. Yazyev, A. J. Austin, R. Cammi, C. Pomelli, J. W. Ochterski, 
 R. L. Martin, K. Morokuma, V. G. Zakrzewski, G. A. Voth, 
 P. Salvador, J. J. Dannenberg, S. Dapprich, A. D. Daniels, 
 O. Farkas, J. B. Foresman, J. V. Ortiz, J. Cioslowski, 
 and D. J. Fox, Gaussian, Inc., Wallingford CT, 2013.
 
 ******************************************
 Gaussian 09:  ES64L-G09RevD.01 24-Apr-2013
                26-Aug-2020 
 ******************************************
 %chk=/home/boittier/MDCM/nms_sampling/methanol_geom.xyz.dir/methanol_1003.chk
 %nproc=8
 Will use up to    8 processors via shared memory.
 %mem=16000MB
 --------------------
 #p B2PLYPD3/Def2QZVP
 --------------------
 1/38=1/1;
 2/12=2,17=6,18=5,40=1/2;
 3/5=45,7=101,11=9,16=1,25=1,30=1,74=-60/1,2,3;
 4//1;
 5/5=2,38=5/2;
 8/10=1/1;
 9/16=-3/6;
 6/7=2,8=2,9=2,10=2/1;
 99/5=1,9=1/99;
 Leave Link    1 at Wed Aug 26 09:48:59 2020, MaxMem=  2097152000 cpu:         0.2
 (Enter /opt/cluster/programs/g09/g09_d.01/g09/l101.exe)
 --------
 methanol
 --------
 Symbolic Z-matrix:
 Charge =  0 Multiplicity = 1
 C                    -5.18036  -1.25749   0.9112 
 O                    -3.76912  -1.12357   0.87089 
 H                    -5.52959  -2.15629   0.56985 
 H                    -5.687    -0.49467   0.363 
 H                    -5.44795  -1.18188   1.93547 
 H                    -3.43395  -1.19114  -0.19185 
 
 NAtoms=      6 NQM=        6 NQMF=       0 NMMI=      0 NMMIF=      0
                NMic=       0 NMicF=      0.
                    Isotopes and Nuclear Properties:
 (Nuclear quadrupole moments (NQMom) in fm**2, nuclear magnetic moments (NMagM)
  in nuclear magnetons)

  Atom         1           2           3           4           5           6
 IAtWgt=          12          16           1           1           1           1
 AtmWgt=  12.0000000  15.9949146   1.0078250   1.0078250   1.0078250   1.0078250
 NucSpn=           0           0           1           1           1           1
 AtZEff=   0.0000000   0.0000000   0.0000000   0.0000000   0.0000000   0.0000000
 NQMom=    0.0000000   0.0000000   0.0000000   0.0000000   0.0000000   0.0000000
 NMagM=    0.0000000   0.0000000   2.7928460   2.7928460   2.7928460   2.7928460
 AtZNuc=   6.0000000   8.0000000   1.0000000   1.0000000   1.0000000   1.0000000
 Leave Link  101 at Wed Aug 26 09:48:59 2020, MaxMem=  2097152000 cpu:         0.6
 (Enter /opt/cluster/programs/g09/g09_d.01/g09/l202.exe)
                          Input orientation:                          
 ---------------------------------------------------------------------
 Center     Atomic      Atomic             Coordinates (Angstroms)
 Number     Number       Type             X           Y           Z
 ---------------------------------------------------------------------
      1          6           0       -5.180355   -1.257490    0.911196
      2          8           0       -3.769116   -1.123570    0.870894
      3          1           0       -5.529592   -2.156286    0.569845
      4          1           0       -5.686996   -0.494672    0.363002
      5          1           0       -5.447951   -1.181884    1.935469
      6          1           0       -3.433953   -1.191138   -0.191846
 ---------------------------------------------------------------------
                    Distance matrix (angstroms):
                    1          2          3          4          5
     1  C    0.000000
     2  O    1.418152   0.000000
     3  H    1.022898   2.063107   0.000000
     4  H    1.067283   2.081281   1.681821   0.000000
     5  H    1.061348   1.988770   1.679599   1.732644   0.000000
     6  H    2.066646   1.116385   2.429689   2.422627   2.929461
                    6
     6  H    0.000000
 Stoichiometry    CH4O
 Framework group  C1[X(CH4O)]
 Deg. of freedom    12
 Full point group                 C1      NOp   1
 Largest Abelian subgroup         C1      NOp   1
 Largest concise Abelian subgroup C1      NOp   1
                         Standard orientation:                         
 ---------------------------------------------------------------------
 Center     Atomic      Atomic             Coordinates (Angstroms)
 Number     Number       Type             X           Y           Z
 ---------------------------------------------------------------------
      1          6           0        0.667713    0.029436    0.005351
      2          8           0       -0.739623   -0.144889   -0.007742
      3          1           0        1.031734    0.465574    0.855994
      4          1           0        1.023891    0.604724   -0.820042
      5          1           0        1.079673   -0.947056   -0.051327
      6          1           0       -1.224595    0.859259    0.045204
 ---------------------------------------------------------------------
 Rotational constants (GHZ):    128.8314753     24.9242030     23.6649294
 Leave Link  202 at Wed Aug 26 09:48:59 2020, MaxMem=  2097152000 cpu:         0.0
 (Enter /opt/cluster/programs/g09/g09_d.01/g09/l301.exe)
 Standard basis: def2QZVP (5D, 7F)
 Ernie: Thresh=  0.10000D-02 Tol=  0.10000D-05 Strict=F.
 There are   284 symmetry adapted cartesian basis functions of A   symmetry.
 There are   234 symmetry adapted basis functions of A   symmetry.
   234 basis functions,   336 primitive gaussians,   284 cartesian basis functions
     9 alpha electrons        9 beta electrons
       nuclear repulsion energy        40.0764924602 Hartrees.
 IExCor=  419 DFT=T Ex+Corr=B2PLYPD3 ExCW=0 ScaHFX=  0.530000
 ScaDFX=  0.470000  0.470000  0.730000  0.730000 ScalE2=  0.270000  0.270000
 IRadAn=      0 IRanWt=     -1 IRanGd=            0 ICorTp=0 IEmpDi=141
 NAtoms=    6 NActive=    6 NUniq=    6 SFac= 1.00D+00 NAtFMM=   60 NAOKFM=F Big=F
 Integral buffers will be    131072 words long.
 Regular integral format.
 Two-electron integral symmetry is turned on.
 R6Disp:  Grimme-D3(BJ) Dispersion energy=       -0.0013065729 Hartrees.
 Nuclear repulsion after empirical dispersion term =       40.0751858873 Hartrees.
 Leave Link  301 at Wed Aug 26 09:48:59 2020, MaxMem=  2097152000 cpu:         0.5
 (Enter /opt/cluster/programs/g09/g09_d.01/g09/l302.exe)
 NPDir=0 NMtPBC=     1 NCelOv=     1 NCel=       1 NClECP=     1 NCelD=      1
         NCelK=      1 NCelE2=     1 NClLst=     1 CellRange=     0.0.
 One-electron integrals computed using PRISM.
   1 Symmetry operations used in ECPInt.
 ECPInt:  NShTT=    2775 NPrTT=    6207 LenC2=    2774 LenP2D=    5733.
 LDataN:  DoStor=T MaxTD1= 8 Len=  415
 NBasis=   234 RedAO= T EigKep=  1.08D-04  NBF=   234
 NBsUse=   234 1.00D-06 EigRej= -1.00D+00 NBFU=   234
 Precomputing XC quadrature grid using
 IXCGrd= 4 IRadAn=           0 IRanWt=          -1 IRanGd=           0 AccXCQ= 0.00D+00.
 Generated NRdTot=       0 NPtTot=           0 NUsed=           0 NTot=          32
 NSgBfM=   284   284   284   284   284 MxSgAt=     6 MxSgA2=     6.
 Leave Link  302 at Wed Aug 26 09:48:59 2020, MaxMem=  2097152000 cpu:         2.1
 (Enter /opt/cluster/programs/g09/g09_d.01/g09/l303.exe)
 DipDrv:  MaxL=1.
 Leave Link  303 at Wed Aug 26 09:48:59 2020, MaxMem=  2097152000 cpu:         0.2
 (Enter /opt/cluster/programs/g09/g09_d.01/g09/l401.exe)
 ExpMin= 7.60D-02 ExpMax= 1.17D+05 ExpMxC= 1.13D+03 IAcc=2 IRadAn=         4 AccDes= 0.00D+00
 Harris functional with IExCor=  419 and IRadAn=       4 diagonalized for initial guess.
 HarFok:  IExCor=  419 AccDes= 0.00D+00 IRadAn=         4 IDoV= 1 UseB2=F ITyADJ=14
 ICtDFT=  3500011 ScaDFX=  1.000000  1.000000  1.000000  1.000000
 FoFCou: FMM=F IPFlag=           0 FMFlag=      100000 FMFlg1=           0
         NFxFlg=           0 DoJE=T BraDBF=F KetDBF=T FulRan=T
         wScrn=  0.000000 ICntrl=     500 IOpCl=  0 I1Cent=   200000004 NGrid=           0
         NMat0=    1 NMatS0=      1 NMatT0=    0 NMatD0=    1 NMtDS0=    0 NMtDT0=    0
 Petite list used in FoFCou.
 Harris En= -115.811112696625    
 JPrj=0 DoOrth=F DoCkMO=F.
 Leave Link  401 at Wed Aug 26 09:49:00 2020, MaxMem=  2097152000 cpu:         3.7
 (Enter /opt/cluster/programs/g09/g09_d.01/g09/l502.exe)
 Closed shell SCF:
 Using DIIS extrapolation, IDIIS=  1040.
 Integral symmetry usage will be decided dynamically.
 Keep R1 ints in memory in canonical form, NReq=389840494.
 IVT=      264814 IEndB=      264814 NGot=  2097152000 MDV=  1718885927
 LenX=  1718885927 LenY=  1718804830
 Requested convergence on RMS density matrix=1.00D-08 within 128 cycles.
 Requested convergence on MAX density matrix=1.00D-06.
 Requested convergence on             energy=1.00D-06.
 No special actions if energy rises.
 FoFCou: FMM=F IPFlag=           0 FMFlag=           0 FMFlg1=           0
         NFxFlg=           0 DoJE=F BraDBF=F KetDBF=F FulRan=T
         wScrn=  0.000000 ICntrl=     600 IOpCl=  0 I1Cent=           0 NGrid=           0
         NMat0=    1 NMatS0=  27495 NMatT0=    0 NMatD0=    1 NMtDS0=    0 NMtDT0=    0
 Symmetry not used in FoFCou.
 Integral accuracy reduced to 1.0D-05 until final iterations.

 Cycle   1  Pass 0  IDiag  1:
 E= -115.422110837862    
 DIIS: error= 3.12D-02 at cycle   1 NSaved=   1.
 NSaved= 1 IEnMin= 1 EnMin= -115.422110837862     IErMin= 1 ErrMin= 3.12D-02
 ErrMax= 3.12D-02  0.00D+00 EMaxC= 1.00D-01 BMatC= 1.79D-01 BMatP= 1.79D-01
 IDIUse=3 WtCom= 6.88D-01 WtEn= 3.12D-01
 Coeff-Com:  0.100D+01
 Coeff-En:   0.100D+01
 Coeff:      0.100D+01
 Gap=     0.302 Goal=   None    Shift=    0.000
 GapD=    0.302 DampG=1.000 DampE=0.500 DampFc=0.5000 IDamp=-1.
 Damping current iteration by 5.00D-01
 RMSDP=1.38D-03 MaxDP=4.59D-02              OVMax= 1.46D-01

 Cycle   2  Pass 0  IDiag  1:
 E= -115.474209552872     Delta-E=       -0.052098715010 Rises=F Damp=T
 DIIS: error= 1.10D-02 at cycle   2 NSaved=   2.
 NSaved= 2 IEnMin= 2 EnMin= -115.474209552872     IErMin= 2 ErrMin= 1.10D-02
 ErrMax= 1.10D-02  0.00D+00 EMaxC= 1.00D-01 BMatC= 1.98D-02 BMatP= 1.79D-01
 IDIUse=3 WtCom= 8.90D-01 WtEn= 1.10D-01
 Coeff-Com: -0.117D+00 0.112D+01
 Coeff-En:   0.000D+00 0.100D+01
 Coeff:     -0.104D+00 0.110D+01
 Gap=     0.406 Goal=   None    Shift=    0.000
 RMSDP=3.77D-04 MaxDP=1.07D-02 DE=-5.21D-02 OVMax= 8.55D-02

 Cycle   3  Pass 0  IDiag  1:
 E= -115.525121749919     Delta-E=       -0.050912197047 Rises=F Damp=F
 DIIS: error= 4.86D-03 at cycle   3 NSaved=   3.
 NSaved= 3 IEnMin= 3 EnMin= -115.525121749919     IErMin= 3 ErrMin= 4.86D-03
 ErrMax= 4.86D-03  0.00D+00 EMaxC= 1.00D-01 BMatC= 6.30D-03 BMatP= 1.98D-02
 IDIUse=3 WtCom= 9.51D-01 WtEn= 4.86D-02
 Coeff-Com: -0.142D+00 0.399D+00 0.743D+00
 Coeff-En:   0.000D+00 0.000D+00 0.100D+01
 Coeff:     -0.135D+00 0.379D+00 0.756D+00
 Gap=     0.389 Goal=   None    Shift=    0.000
 RMSDP=1.51D-04 MaxDP=6.13D-03 DE=-5.09D-02 OVMax= 1.98D-02

 Cycle   4  Pass 0  IDiag  1:
 E= -115.528750655261     Delta-E=       -0.003628905343 Rises=F Damp=F
 DIIS: error= 1.99D-03 at cycle   4 NSaved=   4.
 NSaved= 4 IEnMin= 4 EnMin= -115.528750655261     IErMin= 4 ErrMin= 1.99D-03
 ErrMax= 1.99D-03  0.00D+00 EMaxC= 1.00D-01 BMatC= 8.11D-04 BMatP= 6.30D-03
 IDIUse=3 WtCom= 9.80D-01 WtEn= 1.99D-02
 Coeff-Com: -0.502D-01 0.902D-01 0.339D+00 0.621D+00
 Coeff-En:   0.000D+00 0.000D+00 0.200D-01 0.980D+00
 Coeff:     -0.492D-01 0.884D-01 0.332D+00 0.629D+00
 Gap=     0.387 Goal=   None    Shift=    0.000
 RMSDP=4.64D-05 MaxDP=1.97D-03 DE=-3.63D-03 OVMax= 6.99D-03

 Cycle   5  Pass 0  IDiag  1:
 E= -115.529355703927     Delta-E=       -0.000605048666 Rises=F Damp=F
 DIIS: error= 2.04D-04 at cycle   5 NSaved=   5.
 NSaved= 5 IEnMin= 5 EnMin= -115.529355703927     IErMin= 5 ErrMin= 2.04D-04
 ErrMax= 2.04D-04  0.00D+00 EMaxC= 1.00D-01 BMatC= 6.91D-06 BMatP= 8.11D-04
 IDIUse=3 WtCom= 9.98D-01 WtEn= 2.04D-03
 Coeff-Com: -0.684D-02 0.784D-02 0.524D-01 0.148D+00 0.799D+00
 Coeff-En:   0.000D+00 0.000D+00 0.000D+00 0.000D+00 0.100D+01
 Coeff:     -0.683D-02 0.782D-02 0.523D-01 0.147D+00 0.799D+00
 Gap=     0.387 Goal=   None    Shift=    0.000
 RMSDP=7.12D-06 MaxDP=1.91D-04 DE=-6.05D-04 OVMax= 5.61D-04

 Initial convergence to 1.0D-05 achieved.  Increase integral accuracy.
 Cycle   6  Pass 1  IDiag  1:
 E= -115.529356522371     Delta-E=       -0.000000818444 Rises=F Damp=F
 DIIS: error= 1.53D-05 at cycle   1 NSaved=   1.
 NSaved= 1 IEnMin= 1 EnMin= -115.529356522371     IErMin= 1 ErrMin= 1.53D-05
 ErrMax= 1.53D-05  0.00D+00 EMaxC= 1.00D-01 BMatC= 1.09D-07 BMatP= 1.09D-07
 IDIUse=1 WtCom= 1.00D+00 WtEn= 0.00D+00
 Coeff-Com:  0.100D+01
 Coeff:      0.100D+01
 Gap=     0.388 Goal=   None    Shift=    0.000
 RMSDP=7.12D-06 MaxDP=1.91D-04 DE=-8.18D-07 OVMax= 1.63D-04

 Cycle   7  Pass 1  IDiag  1:
 E= -115.529356710066     Delta-E=       -0.000000187695 Rises=F Damp=F
 DIIS: error= 7.05D-06 at cycle   2 NSaved=   2.
 NSaved= 2 IEnMin= 2 EnMin= -115.529356710066     IErMin= 2 ErrMin= 7.05D-06
 ErrMax= 7.05D-06  0.00D+00 EMaxC= 1.00D-01 BMatC= 9.78D-09 BMatP= 1.09D-07
 IDIUse=1 WtCom= 1.00D+00 WtEn= 0.00D+00
 Coeff-Com: -0.496D-01 0.105D+01
 Coeff:     -0.496D-01 0.105D+01
 Gap=     0.388 Goal=   None    Shift=    0.000
 RMSDP=5.11D-07 MaxDP=2.30D-05 DE=-1.88D-07 OVMax= 7.98D-05

 Cycle   8  Pass 1  IDiag  1:
 E= -115.529356724997     Delta-E=       -0.000000014931 Rises=F Damp=F
 DIIS: error= 4.41D-06 at cycle   3 NSaved=   3.
 NSaved= 3 IEnMin= 3 EnMin= -115.529356724997     IErMin= 3 ErrMin= 4.41D-06
 ErrMax= 4.41D-06  0.00D+00 EMaxC= 1.00D-01 BMatC= 6.24D-09 BMatP= 9.78D-09
 IDIUse=1 WtCom= 1.00D+00 WtEn= 0.00D+00
 Coeff-Com: -0.110D+00 0.485D+00 0.625D+00
 Coeff:     -0.110D+00 0.485D+00 0.625D+00
 Gap=     0.388 Goal=   None    Shift=    0.000
 RMSDP=2.11D-07 MaxDP=1.02D-05 DE=-1.49D-08 OVMax= 2.85D-05

 Cycle   9  Pass 1  IDiag  1:
 E= -115.529356729737     Delta-E=       -0.000000004740 Rises=F Damp=F
 DIIS: error= 1.28D-06 at cycle   4 NSaved=   4.
 NSaved= 4 IEnMin= 4 EnMin= -115.529356729737     IErMin= 4 ErrMin= 1.28D-06
 ErrMax= 1.28D-06  0.00D+00 EMaxC= 1.00D-01 BMatC= 4.03D-10 BMatP= 6.24D-09
 IDIUse=1 WtCom= 1.00D+00 WtEn= 0.00D+00
 Coeff-Com: -0.320D-01 0.223D-01 0.212D+00 0.797D+00
 Coeff:     -0.320D-01 0.223D-01 0.212D+00 0.797D+00
 Gap=     0.388 Goal=   None    Shift=    0.000
 RMSDP=5.78D-08 MaxDP=2.59D-06 DE=-4.74D-09 OVMax= 1.06D-05

 Cycle  10  Pass 1  IDiag  1:
 E= -115.529356730120     Delta-E=       -0.000000000383 Rises=F Damp=F
 DIIS: error= 3.75D-07 at cycle   5 NSaved=   5.
 NSaved= 5 IEnMin= 5 EnMin= -115.529356730120     IErMin= 5 ErrMin= 3.75D-07
 ErrMax= 3.75D-07  0.00D+00 EMaxC= 1.00D-01 BMatC= 2.11D-11 BMatP= 4.03D-10
 IDIUse=1 WtCom= 1.00D+00 WtEn= 0.00D+00
 Coeff-Com: -0.113D-02-0.226D-01 0.120D-01 0.218D+00 0.794D+00
 Coeff:     -0.113D-02-0.226D-01 0.120D-01 0.218D+00 0.794D+00
 Gap=     0.388 Goal=   None    Shift=    0.000
 RMSDP=1.44D-08 MaxDP=4.62D-07 DE=-3.83D-10 OVMax= 1.94D-06

 Cycle  11  Pass 1  IDiag  1:
 E= -115.529356730141     Delta-E=       -0.000000000022 Rises=F Damp=F
 DIIS: error= 1.12D-07 at cycle   6 NSaved=   6.
 NSaved= 6 IEnMin= 6 EnMin= -115.529356730141     IErMin= 6 ErrMin= 1.12D-07
 ErrMax= 1.12D-07  0.00D+00 EMaxC= 1.00D-01 BMatC= 1.94D-12 BMatP= 2.11D-11
 IDIUse=1 WtCom= 1.00D+00 WtEn= 0.00D+00
 Coeff-Com:  0.263D-02-0.115D-01-0.171D-01 0.118D-01 0.255D+00 0.759D+00
 Coeff:      0.263D-02-0.115D-01-0.171D-01 0.118D-01 0.255D+00 0.759D+00
 Gap=     0.388 Goal=   None    Shift=    0.000
 RMSDP=4.48D-09 MaxDP=1.37D-07 DE=-2.15D-11 OVMax= 5.88D-07

 SCF Done:  E(RB2PLYPD3) =  -115.529356730     A.U. after   11 cycles
            NFock= 11  Conv=0.45D-08     -V/T= 2.0033
 KE= 1.151545596735D+02 PE=-3.517412867765D+02 EE= 8.098218448554D+01
 Leave Link  502 at Wed Aug 26 09:49:18 2020, MaxMem=  2097152000 cpu:        84.3
 (Enter /opt/cluster/programs/g09/g09_d.01/g09/l801.exe)
 DoSCS=T DFT=T ScalE2(SS,OS)=  0.270000  0.270000
 ExpMin= 7.60D-02 ExpMax= 1.17D+05 ExpMxC= 1.13D+03 IAcc=3 IRadAn=         5 AccDes= 0.00D+00
 HarFok:  IExCor=  205 AccDes= 0.00D+00 IRadAn=         5 IDoV=-2 UseB2=F ITyADJ=14
 ICtDFT= 12500011 ScaDFX=  1.000000  1.000000  1.000000  1.000000
 Largest valence mixing into a core orbital is  1.10D-04
 Largest core mixing into a valence orbital is  1.45D-05
 Range of M.O.s used for correlation:     3   234
 NBasis=   234 NAE=     9 NBE=     9 NFC=     2 NFV=     0
 NROrb=    232 NOA=     7 NOB=     7 NVA=   225 NVB=   225

 **** Warning!!: The largest alpha MO coefficient is  0.34193571D+02

 Leave Link  801 at Wed Aug 26 09:49:18 2020, MaxMem=  2097152000 cpu:         0.7
 (Enter /opt/cluster/programs/g09/g09_d.01/g09/l906.exe)
 DoSCS=T DFT=T ScalE2(SS,OS)=  0.270000  0.270000
 FulOut=F Deriv=F AODrv=F NAtomX=     6
   MMem=        3646  MDisk=           7 MDiskD=           7
  W3Min=      447300 MinDsk=     1090093 NBas6D=         284
 NBas2D=       41310    NTT=       40470    LW2=     4508827
    MDV=  2096872548 MDiskM=       16391 NBas2p=       41304
 Fully in-core method, ICMem=  1722292712.
 IMap=   1   2   3   4   5   6   7
 JobTyp=1 Pass  1 fully in-core, NPsUse=  8.
 Compute canonical integrals.
 FoFCou: FMM=F IPFlag=           0 FMFlag=           0 FMFlg1=           0
         NFxFlg=           0 DoJE=F BraDBF=F KetDBF=F FulRan=T
         wScrn=  0.000000 ICntrl=     600 IOpCl=  1 I1Cent=           0 NGrid=           0
         NMat0=    1 NMatS0=  41310 NMatT0=    0 NMatD0=    1 NMtDS0=    0 NMtDT0=    0
 Symmetry not used in FoFCou.
 Spin components of T(2) and E(2):
     alpha-alpha T2 =       0.2192381213D-01 E2=     -0.1703434829D-01
     alpha-beta  T2 =       0.1378536618D+00 E2=     -0.1156526912D+00
     beta-beta   T2 =       0.2192381213D-01 E2=     -0.1703434829D-01
 The integrals were generated   1 times.
 E2(B2PLYPD3) =    -0.1497213878D+00 E(B2PLYPD3) =    -0.11567907811790D+03
 Leave Link  906 at Wed Aug 26 09:49:39 2020, MaxMem=  2097152000 cpu:       166.5
 (Enter /opt/cluster/programs/g09/g09_d.01/g09/l601.exe)
 Copying SCF densities to generalized density rwf, IOpCl= 0 IROHF=0.

 **********************************************************************

            Population analysis using the SCF density.

 **********************************************************************

 Orbital symmetries:
       Occupied  (A) (A) (A) (A) (A) (A) (A) (A) (A)
       Virtual   (A) (A) (A) (A) (A) (A) (A) (A) (A) (A) (A) (A)
                 (A) (A) (A) (A) (A) (A) (A) (A) (A) (A) (A) (A)
                 (A) (A) (A) (A) (A) (A) (A) (A) (A) (A) (A) (A)
                 (A) (A) (A) (A) (A) (A) (A) (A) (A) (A) (A) (A)
                 (A) (A) (A) (A) (A) (A) (A) (A) (A) (A) (A) (A)
                 (A) (A) (A) (A) (A) (A) (A) (A) (A) (A) (A) (A)
                 (A) (A) (A) (A) (A) (A) (A) (A) (A) (A) (A) (A)
                 (A) (A) (A) (A) (A) (A) (A) (A) (A) (A) (A) (A)
                 (A) (A) (A) (A) (A) (A) (A) (A) (A) (A) (A) (A)
                 (A) (A) (A) (A) (A) (A) (A) (A) (A) (A) (A) (A)
                 (A) (A) (A) (A) (A) (A) (A) (A) (A) (A) (A) (A)
                 (A) (A) (A) (A) (A) (A) (A) (A) (A) (A) (A) (A)
                 (A) (A) (A) (A) (A) (A) (A) (A) (A) (A) (A) (A)
                 (A) (A) (A) (A) (A) (A) (A) (A) (A) (A) (A) (A)
                 (A) (A) (A) (A) (A) (A) (A) (A) (A) (A) (A) (A)
                 (A) (A) (A) (A) (A) (A) (A) (A) (A) (A) (A) (A)
                 (A) (A) (A) (A) (A) (A) (A) (A) (A) (A) (A) (A)
                 (A) (A) (A) (A) (A) (A) (A) (A) (A) (A) (A) (A)
                 (A) (A) (A) (A) (A) (A) (A) (A) (A)
 The electronic state is 1-A.
 Alpha  occ. eigenvalues --  -19.73601 -10.64003  -1.13556  -0.78735  -0.57036
 Alpha  occ. eigenvalues --   -0.52114  -0.49449  -0.40575  -0.35139
 Alpha virt. eigenvalues --    0.03628   0.07771   0.12544   0.12772   0.15056
 Alpha virt. eigenvalues --    0.17228   0.18274   0.28730   0.29973   0.33566
 Alpha virt. eigenvalues --    0.34226   0.39123   0.39453   0.42123   0.44383
 Alpha virt. eigenvalues --    0.46050   0.53414   0.55869   0.57956   0.66177
 Alpha virt. eigenvalues --    0.71503   0.73981   0.76753   0.79328   0.80107
 Alpha virt. eigenvalues --    0.81820   0.84995   0.88537   0.93260   0.94229
 Alpha virt. eigenvalues --    0.98356   1.00317   1.01427   1.09072   1.10780
 Alpha virt. eigenvalues --    1.12374   1.14608   1.20557   1.31371   1.41805
 Alpha virt. eigenvalues --    1.42847   1.46830   1.49369   1.51208   1.51886
 Alpha virt. eigenvalues --    1.75302   1.82901   1.84492   1.86048   1.87148
 Alpha virt. eigenvalues --    1.90560   1.95728   1.97759   1.98062   2.03516
 Alpha virt. eigenvalues --    2.07681   2.14740   2.17986   2.20345   2.23616
 Alpha virt. eigenvalues --    2.24594   2.25660   2.30992   2.33117   2.38855
 Alpha virt. eigenvalues --    2.41019   2.49927   2.53305   2.56404   2.60956
 Alpha virt. eigenvalues --    2.62918   2.64132   2.67173   2.73506   2.77309
 Alpha virt. eigenvalues --    2.85714   2.87833   2.88989   2.93471   3.02288
 Alpha virt. eigenvalues --    3.06596   3.07485   3.11312   3.18697   3.20241
 Alpha virt. eigenvalues --    3.31754   3.32754   3.39338   3.42429   3.52121
 Alpha virt. eigenvalues --    3.53918   3.72072   3.74611   3.87342   3.91843
 Alpha virt. eigenvalues --    3.99589   4.00795   4.03730   4.09864   4.19033
 Alpha virt. eigenvalues --    4.19603   4.26836   4.34779   4.37978   4.39840
 Alpha virt. eigenvalues --    4.47879   4.53335   4.63093   4.78123   5.14299
 Alpha virt. eigenvalues --    5.17395   5.39638   5.48045   5.49860   5.58818
 Alpha virt. eigenvalues --    5.60692   5.69884   5.76345   5.81439   5.84647
 Alpha virt. eigenvalues --    5.92638   5.95128   5.99661   6.07553   6.10847
 Alpha virt. eigenvalues --    6.15430   6.27261   6.30967   6.34687   6.37865
 Alpha virt. eigenvalues --    6.40393   6.44887   6.46011   6.57357   6.58770
 Alpha virt. eigenvalues --    6.62139   6.64040   6.74328   6.80235   6.82350
 Alpha virt. eigenvalues --    6.84639   6.85646   6.93853   6.99801   7.09548
 Alpha virt. eigenvalues --    7.12173   7.30869   7.35424   7.37994   7.59830
 Alpha virt. eigenvalues --    7.61629   7.64866   7.65950   7.67316   7.67948
 Alpha virt. eigenvalues --    7.76449   7.79165   7.83384   7.86643   7.88635
 Alpha virt. eigenvalues --    7.91464   7.97264   7.99927   8.07257   8.15160
 Alpha virt. eigenvalues --    8.16665   8.32635   8.35425   8.37323   8.38826
 Alpha virt. eigenvalues --    8.46501   8.53566   8.54321   8.55099   8.57601
 Alpha virt. eigenvalues --    8.58546   8.63051   8.69972   8.75010   8.79163
 Alpha virt. eigenvalues --    8.85538   8.95277   9.09716   9.12001   9.19519
 Alpha virt. eigenvalues --    9.25476   9.49719   9.55201   9.83271   9.89899
 Alpha virt. eigenvalues --   10.01140  10.03740  10.12789  10.16528  10.23111
 Alpha virt. eigenvalues --   10.27757  10.35653  10.46792  10.49542  10.64067
 Alpha virt. eigenvalues --   10.74583  10.90591  11.00599  11.17199  11.32286
 Alpha virt. eigenvalues --   11.37831  11.60499  11.61916  11.82863  11.84414
 Alpha virt. eigenvalues --   12.02692  12.19881  12.32655  12.66529  12.74078
 Alpha virt. eigenvalues --   12.91655  13.10668  13.47661  13.74985  14.59745
 Alpha virt. eigenvalues --   15.08092  29.39971  48.56836 149.04142 254.29997
          Condensed to atoms (all electrons):
               1          2          3          4          5          6
     1  C    4.409807   0.271873   0.437440   0.443549   0.402004  -0.045317
     2  O    0.271873   8.042090  -0.042988  -0.048333  -0.038845   0.307919
     3  H    0.437440  -0.042988   0.667779  -0.061151  -0.041881  -0.007905
     4  H    0.443549  -0.048333  -0.061151   0.667760  -0.038235  -0.007856
     5  H    0.402004  -0.038845  -0.041881  -0.038235   0.638978   0.011365
     6  H   -0.045317   0.307919  -0.007905  -0.007856   0.011365   0.490310
 Mulliken charges:
               1
     1  C    0.080644
     2  O   -0.491716
     3  H    0.048707
     4  H    0.044267
     5  H    0.066615
     6  H    0.251484
 Sum of Mulliken charges =   0.00000
 Mulliken charges with hydrogens summed into heavy atoms:
               1
     1  C    0.240232
     2  O   -0.240232
 Electronic spatial extent (au):  <R**2>=             84.5558
 Charge=              0.0000 electrons
 Dipole moment (field-independent basis, Debye):
    X=              0.8294    Y=              1.6291    Z=              0.1239  Tot=              1.8323
 Quadrupole moment (field-independent basis, Debye-Ang):
   XX=            -12.7163   YY=            -12.0314   ZZ=            -13.9044
   XY=             -2.4207   XZ=             -0.0641   YZ=              0.0780
 Traceless Quadrupole moment (field-independent basis, Debye-Ang):
   XX=              0.1678   YY=              0.8526   ZZ=             -1.0204
   XY=             -2.4207   XZ=             -0.0641   YZ=              0.0780
 Octapole moment (field-independent basis, Debye-Ang**2):
  XXX=             -3.9448  YYY=              0.8302  ZZZ=              0.2003  XYY=             -1.9407
  XXY=              2.8016  XXZ=              0.2548  XZZ=             -0.0830  YZZ=              0.5063
  YYZ=              0.0092  XYZ=             -0.1139
 Hexadecapole moment (field-independent basis, Debye-Ang**3):
 XXXX=            -62.1865 YYYY=            -20.6488 ZZZZ=            -19.3779 XXXY=             -4.2590
 XXXZ=              0.0478 YYYX=             -3.1705 YYYZ=              0.1596 ZZZX=              0.1879
 ZZZY=              0.0561 XXYY=            -12.3877 XXZZ=            -14.6286 YYZZ=             -6.9121
 XXYZ=              0.1635 YYXZ=             -0.1499 ZZXY=              0.1432
 N-N= 4.007518588733D+01 E-N=-3.517412942286D+02  KE= 1.151545596735D+02
 Leave Link  601 at Wed Aug 26 09:49:40 2020, MaxMem=  2097152000 cpu:         0.3
 (Enter /opt/cluster/programs/g09/g09_d.01/g09/l9999.exe)
 1\1\GINC-NODE31\SP\RB2PLYPD3-FC\def2QZVP\C1H4O1\BOITTIER\26-Aug-2020\0
 \\#p B2PLYPD3/Def2QZVP\\methanol\\0,1\C,0,-5.180355,-1.25749,0.911196\
 O,0,-3.769116,-1.12357,0.870894\H,0,-5.529592,-2.156286,0.569845\H,0,-
 5.686996,-0.494672,0.363002\H,0,-5.447951,-1.181884,1.935469\H,0,-3.43
 3953,-1.191138,-0.191846\\Version=ES64L-G09RevD.01\State=1-A\HF=-115.5
 293567\MP2=-115.6790781\RMSD=4.476e-09\PG=C01 [X(C1H4O1)]\\@


 KNOWLEDGE IS CHIMERA - FOR BEYOND IT LIES OTHER KNOWLEDGE,
 AND THE INCOMPLETENESS OF WHAT IS KNOWN RENDERS THE KNOWING FALSE.
     -- THE THOMAS COVENANT CHRONICLES
 Job cpu time:       0 days  0 hours  4 minutes 19.7 seconds.
 File lengths (MBytes):  RWF=     23 Int=      0 D2E=      0 Chk=      4 Scr=      1
 Normal termination of Gaussian 09 at Wed Aug 26 09:49:41 2020.
