 Entering Gaussian System, Link 0=/opt/cluster/programs/g09/g09_d.01/g09//g09
 Input=/home/boittier/MDCM/nms_sampling/methanol_geom.xyz.dir/energies/methanol_2686_energy.com
 Output=/scratch/boittier/methanol_2686_energy/methanol_2686_energy.out
 Initial command:
 /opt/cluster/programs/g09/g09_d.01/g09/l1.exe "/scratch/boittier/methanol_2686_energy/Gau-103275.inp" -scrdir="/scratch/boittier/methanol_2686_energy/"
 Entering Link 1 = /opt/cluster/programs/g09/g09_d.01/g09/l1.exe PID=    103276.
  
 Copyright (c) 1988,1990,1992,1993,1995,1998,2003,2009,2013,
            Gaussian, Inc.  All Rights Reserved.
  
 This is part of the Gaussian(R) 09 program.  It is based on
 the Gaussian(R) 03 system (copyright 2003, Gaussian, Inc.),
 the Gaussian(R) 98 system (copyright 1998, Gaussian, Inc.),
 the Gaussian(R) 94 system (copyright 1995, Gaussian, Inc.),
 the Gaussian 92(TM) system (copyright 1992, Gaussian, Inc.),
 the Gaussian 90(TM) system (copyright 1990, Gaussian, Inc.),
 the Gaussian 88(TM) system (copyright 1988, Gaussian, Inc.),
 the Gaussian 86(TM) system (copyright 1986, Carnegie Mellon
 University), and the Gaussian 82(TM) system (copyright 1983,
 Carnegie Mellon University). Gaussian is a federally registered
 trademark of Gaussian, Inc.
  
 This software contains proprietary and confidential information,
 including trade secrets, belonging to Gaussian, Inc.
  
 This software is provided under written license and may be
 used, copied, transmitted, or stored only in accord with that
 written license.
  
 The following legend is applicable only to US Government
 contracts under FAR:
  
                    RESTRICTED RIGHTS LEGEND
  
 Use, reproduction and disclosure by the US Government is
 subject to restrictions as set forth in subparagraphs (a)
 and (c) of the Commercial Computer Software - Restricted
 Rights clause in FAR 52.227-19.
  
 Gaussian, Inc.
 340 Quinnipiac St., Bldg. 40, Wallingford CT 06492
  
  
 ---------------------------------------------------------------
 Warning -- This program may not be used in any manner that
 competes with the business of Gaussian, Inc. or will provide
 assistance to any competitor of Gaussian, Inc.  The licensee
 of this program is prohibited from giving any competitor of
 Gaussian, Inc. access to this program.  By using this program,
 the user acknowledges that Gaussian, Inc. is engaged in the
 business of creating and licensing software in the field of
 computational chemistry and represents and warrants to the
 licensee that it is not a competitor of Gaussian, Inc. and that
 it will not use this program in any manner prohibited above.
 ---------------------------------------------------------------
  

 Cite this work as:
 Gaussian 09, Revision D.01,
 M. J. Frisch, G. W. Trucks, H. B. Schlegel, G. E. Scuseria, 
 M. A. Robb, J. R. Cheeseman, G. Scalmani, V. Barone, B. Mennucci, 
 G. A. Petersson, H. Nakatsuji, M. Caricato, X. Li, H. P. Hratchian, 
 A. F. Izmaylov, J. Bloino, G. Zheng, J. L. Sonnenberg, M. Hada, 
 M. Ehara, K. Toyota, R. Fukuda, J. Hasegawa, M. Ishida, T. Nakajima, 
 Y. Honda, O. Kitao, H. Nakai, T. Vreven, J. A. Montgomery, Jr., 
 J. E. Peralta, F. Ogliaro, M. Bearpark, J. J. Heyd, E. Brothers, 
 K. N. Kudin, V. N. Staroverov, T. Keith, R. Kobayashi, J. Normand, 
 K. Raghavachari, A. Rendell, J. C. Burant, S. S. Iyengar, J. Tomasi, 
 M. Cossi, N. Rega, J. M. Millam, M. Klene, J. E. Knox, J. B. Cross, 
 V. Bakken, C. Adamo, J. Jaramillo, R. Gomperts, R. E. Stratmann, 
 O. Yazyev, A. J. Austin, R. Cammi, C. Pomelli, J. W. Ochterski, 
 R. L. Martin, K. Morokuma, V. G. Zakrzewski, G. A. Voth, 
 P. Salvador, J. J. Dannenberg, S. Dapprich, A. D. Daniels, 
 O. Farkas, J. B. Foresman, J. V. Ortiz, J. Cioslowski, 
 and D. J. Fox, Gaussian, Inc., Wallingford CT, 2013.
 
 ******************************************
 Gaussian 09:  ES64L-G09RevD.01 24-Apr-2013
                26-Aug-2020 
 ******************************************
 %chk=/home/boittier/MDCM/nms_sampling/methanol_geom.xyz.dir/methanol_2686.chk
 %nproc=8
 Will use up to    8 processors via shared memory.
 %mem=16000MB
 --------------------
 #p B2PLYPD3/Def2QZVP
 --------------------
 1/38=1/1;
 2/12=2,17=6,18=5,40=1/2;
 3/5=45,7=101,11=9,16=1,25=1,30=1,74=-60/1,2,3;
 4//1;
 5/5=2,38=5/2;
 8/10=1/1;
 9/16=-3/6;
 6/7=2,8=2,9=2,10=2/1;
 99/5=1,9=1/99;
 Leave Link    1 at Wed Aug 26 20:40:12 2020, MaxMem=  2097152000 cpu:        33.0
 (Enter /opt/cluster/programs/g09/g09_d.01/g09/l101.exe)
 --------
 methanol
 --------
 Symbolic Z-matrix:
 Charge =  0 Multiplicity = 1
 C                    -5.17248  -1.27961   0.91045 
 O                    -3.76341  -1.12313   0.88247 
 H                    -5.6025   -2.01746   0.63111 
 H                    -5.75608  -0.50853   0.29309 
 H                    -5.46785  -1.1281    1.92182 
 H                    -3.44305  -1.13091  -0.3539 
 
 NAtoms=      6 NQM=        6 NQMF=       0 NMMI=      0 NMMIF=      0
                NMic=       0 NMicF=      0.
                    Isotopes and Nuclear Properties:
 (Nuclear quadrupole moments (NQMom) in fm**2, nuclear magnetic moments (NMagM)
  in nuclear magnetons)

  Atom         1           2           3           4           5           6
 IAtWgt=          12          16           1           1           1           1
 AtmWgt=  12.0000000  15.9949146   1.0078250   1.0078250   1.0078250   1.0078250
 NucSpn=           0           0           1           1           1           1
 AtZEff=   0.0000000   0.0000000   0.0000000   0.0000000   0.0000000   0.0000000
 NQMom=    0.0000000   0.0000000   0.0000000   0.0000000   0.0000000   0.0000000
 NMagM=    0.0000000   0.0000000   2.7928460   2.7928460   2.7928460   2.7928460
 AtZNuc=   6.0000000   8.0000000   1.0000000   1.0000000   1.0000000   1.0000000
 Leave Link  101 at Wed Aug 26 20:40:15 2020, MaxMem=  2097152000 cpu:         0.5
 (Enter /opt/cluster/programs/g09/g09_d.01/g09/l202.exe)
                          Input orientation:                          
 ---------------------------------------------------------------------
 Center     Atomic      Atomic             Coordinates (Angstroms)
 Number     Number       Type             X           Y           Z
 ---------------------------------------------------------------------
      1          6           0       -5.172481   -1.279609    0.910450
      2          8           0       -3.763413   -1.123129    0.882473
      3          1           0       -5.602495   -2.017461    0.631106
      4          1           0       -5.756084   -0.508534    0.293094
      5          1           0       -5.467849   -1.128101    1.921815
      6          1           0       -3.443052   -1.130907   -0.353895
 ---------------------------------------------------------------------
                    Distance matrix (angstroms):
                    1          2          3          4          5
     1  C    0.000000
     2  O    1.418006   0.000000
     3  H    0.898538   2.060397   0.000000
     4  H    1.147291   2.166987   1.553931   0.000000
     5  H    1.064451   1.996336   1.573220   1.766260   0.000000
     6  H    2.147465   1.277223   2.533653   2.481141   3.046090
                    6
     6  H    0.000000
 Stoichiometry    CH4O
 Framework group  C1[X(CH4O)]
 Deg. of freedom    12
 Full point group                 C1      NOp   1
 Largest Abelian subgroup         C1      NOp   1
 Largest concise Abelian subgroup C1      NOp   1
                         Standard orientation:                         
 ---------------------------------------------------------------------
 Center     Atomic      Atomic             Coordinates (Angstroms)
 Number     Number       Type             X           Y           Z
 ---------------------------------------------------------------------
      1          6           0        0.658399    0.023261    0.039275
      2          8           0       -0.745808   -0.164704   -0.020840
      3          1           0        1.095084    0.325405    0.764110
      4          1           0        1.078811    0.768207   -0.725307
      5          1           0        1.094282   -0.917978   -0.199746
      6          1           0       -1.252108    1.002438    0.092013
 ---------------------------------------------------------------------
 Rotational constants (GHZ):    123.5994794     24.7785668     22.8589509
 Leave Link  202 at Wed Aug 26 20:40:29 2020, MaxMem=  2097152000 cpu:         0.0
 (Enter /opt/cluster/programs/g09/g09_d.01/g09/l301.exe)
 Standard basis: def2QZVP (5D, 7F)
 Ernie: Thresh=  0.10000D-02 Tol=  0.10000D-05 Strict=F.
 There are   284 symmetry adapted cartesian basis functions of A   symmetry.
 There are   234 symmetry adapted basis functions of A   symmetry.
   234 basis functions,   336 primitive gaussians,   284 cartesian basis functions
     9 alpha electrons        9 beta electrons
       nuclear repulsion energy        39.6909701611 Hartrees.
 IExCor=  419 DFT=T Ex+Corr=B2PLYPD3 ExCW=0 ScaHFX=  0.530000
 ScaDFX=  0.470000  0.470000  0.730000  0.730000 ScalE2=  0.270000  0.270000
 IRadAn=      0 IRanWt=     -1 IRanGd=            0 ICorTp=0 IEmpDi=141
 NAtoms=    6 NActive=    6 NUniq=    6 SFac= 1.00D+00 NAtFMM=   60 NAOKFM=F Big=F
 Integral buffers will be    131072 words long.
 Regular integral format.
 Two-electron integral symmetry is turned on.
 R6Disp:  Grimme-D3(BJ) Dispersion energy=       -0.0014113510 Hartrees.
 Nuclear repulsion after empirical dispersion term =       39.6895588101 Hartrees.
 Leave Link  301 at Wed Aug 26 20:40:44 2020, MaxMem=  2097152000 cpu:         0.4
 (Enter /opt/cluster/programs/g09/g09_d.01/g09/l302.exe)
 NPDir=0 NMtPBC=     1 NCelOv=     1 NCel=       1 NClECP=     1 NCelD=      1
         NCelK=      1 NCelE2=     1 NClLst=     1 CellRange=     0.0.
 One-electron integrals computed using PRISM.
   1 Symmetry operations used in ECPInt.
 ECPInt:  NShTT=    2775 NPrTT=    6207 LenC2=    2774 LenP2D=    5727.
 LDataN:  DoStor=T MaxTD1= 8 Len=  415
 NBasis=   234 RedAO= T EigKep=  6.46D-05  NBF=   234
 NBsUse=   234 1.00D-06 EigRej= -1.00D+00 NBFU=   234
 Precomputing XC quadrature grid using
 IXCGrd= 4 IRadAn=           0 IRanWt=          -1 IRanGd=           0 AccXCQ= 0.00D+00.
 Generated NRdTot=       0 NPtTot=           0 NUsed=           0 NTot=          32
 NSgBfM=   284   284   284   284   284 MxSgAt=     6 MxSgA2=     6.
 Leave Link  302 at Wed Aug 26 20:40:47 2020, MaxMem=  2097152000 cpu:         2.0
 (Enter /opt/cluster/programs/g09/g09_d.01/g09/l303.exe)
 DipDrv:  MaxL=1.
 Leave Link  303 at Wed Aug 26 20:40:51 2020, MaxMem=  2097152000 cpu:         0.2
 (Enter /opt/cluster/programs/g09/g09_d.01/g09/l401.exe)
 ExpMin= 7.60D-02 ExpMax= 1.17D+05 ExpMxC= 1.13D+03 IAcc=2 IRadAn=         4 AccDes= 0.00D+00
 Harris functional with IExCor=  419 and IRadAn=       4 diagonalized for initial guess.
 HarFok:  IExCor=  419 AccDes= 0.00D+00 IRadAn=         4 IDoV= 1 UseB2=F ITyADJ=14
 ICtDFT=  3500011 ScaDFX=  1.000000  1.000000  1.000000  1.000000
 FoFCou: FMM=F IPFlag=           0 FMFlag=      100000 FMFlg1=           0
         NFxFlg=           0 DoJE=T BraDBF=F KetDBF=T FulRan=T
         wScrn=  0.000000 ICntrl=     500 IOpCl=  0 I1Cent=   200000004 NGrid=           0
         NMat0=    1 NMatS0=      1 NMatT0=    0 NMatD0=    1 NMtDS0=    0 NMtDT0=    0
 Petite list used in FoFCou.
 Harris En= -115.756154339166    
 JPrj=0 DoOrth=F DoCkMO=F.
 Leave Link  401 at Wed Aug 26 20:40:54 2020, MaxMem=  2097152000 cpu:         3.6
 (Enter /opt/cluster/programs/g09/g09_d.01/g09/l502.exe)
 Closed shell SCF:
 Using DIIS extrapolation, IDIIS=  1040.
 Integral symmetry usage will be decided dynamically.
 Keep R1 ints in memory in canonical form, NReq=389840494.
 IVT=      264814 IEndB=      264814 NGot=  2097152000 MDV=  1718885927
 LenX=  1718885927 LenY=  1718804830
 Requested convergence on RMS density matrix=1.00D-08 within 128 cycles.
 Requested convergence on MAX density matrix=1.00D-06.
 Requested convergence on             energy=1.00D-06.
 No special actions if energy rises.
 FoFCou: FMM=F IPFlag=           0 FMFlag=           0 FMFlg1=           0
         NFxFlg=           0 DoJE=F BraDBF=F KetDBF=F FulRan=T
         wScrn=  0.000000 ICntrl=     600 IOpCl=  0 I1Cent=           0 NGrid=           0
         NMat0=    1 NMatS0=  27495 NMatT0=    0 NMatD0=    1 NMtDS0=    0 NMtDT0=    0
 Symmetry not used in FoFCou.
 Integral accuracy reduced to 1.0D-05 until final iterations.

 Cycle   1  Pass 0  IDiag  1:
 E= -115.330970641290    
 DIIS: error= 2.66D-02 at cycle   1 NSaved=   1.
 NSaved= 1 IEnMin= 1 EnMin= -115.330970641290     IErMin= 1 ErrMin= 2.66D-02
 ErrMax= 2.66D-02  0.00D+00 EMaxC= 1.00D-01 BMatC= 1.90D-01 BMatP= 1.90D-01
 IDIUse=3 WtCom= 7.34D-01 WtEn= 2.66D-01
 Coeff-Com:  0.100D+01
 Coeff-En:   0.100D+01
 Coeff:      0.100D+01
 Gap=     0.251 Goal=   None    Shift=    0.000
 GapD=    0.251 DampG=1.000 DampE=0.500 DampFc=0.5000 IDamp=-1.
 Damping current iteration by 5.00D-01
 RMSDP=1.51D-03 MaxDP=5.02D-02              OVMax= 1.82D-01

 Cycle   2  Pass 0  IDiag  1:
 E= -115.389463276346     Delta-E=       -0.058492635056 Rises=F Damp=T
 DIIS: error= 7.04D-03 at cycle   2 NSaved=   2.
 NSaved= 2 IEnMin= 2 EnMin= -115.389463276346     IErMin= 2 ErrMin= 7.04D-03
 ErrMax= 7.04D-03  0.00D+00 EMaxC= 1.00D-01 BMatC= 2.20D-02 BMatP= 1.90D-01
 IDIUse=3 WtCom= 9.30D-01 WtEn= 7.04D-02
 Coeff-Com: -0.840D-01 0.108D+01
 Coeff-En:   0.000D+00 0.100D+01
 Coeff:     -0.781D-01 0.108D+01
 Gap=     0.374 Goal=   None    Shift=    0.000
 RMSDP=4.17D-04 MaxDP=1.22D-02 DE=-5.85D-02 OVMax= 1.16D-01

 Cycle   3  Pass 0  IDiag  1:
 E= -115.448052164074     Delta-E=       -0.058588887728 Rises=F Damp=F
 DIIS: error= 5.14D-03 at cycle   3 NSaved=   3.
 NSaved= 3 IEnMin= 3 EnMin= -115.448052164074     IErMin= 3 ErrMin= 5.14D-03
 ErrMax= 5.14D-03  0.00D+00 EMaxC= 1.00D-01 BMatC= 1.03D-02 BMatP= 2.20D-02
 IDIUse=3 WtCom= 9.49D-01 WtEn= 5.14D-02
 Coeff-Com: -0.143D+00 0.458D+00 0.685D+00
 Coeff-En:   0.000D+00 0.000D+00 0.100D+01
 Coeff:     -0.136D+00 0.435D+00 0.701D+00
 Gap=     0.362 Goal=   None    Shift=    0.000
 RMSDP=2.00D-04 MaxDP=8.44D-03 DE=-5.86D-02 OVMax= 3.01D-02

 Cycle   4  Pass 0  IDiag  1:
 E= -115.454369061133     Delta-E=       -0.006316897059 Rises=F Damp=F
 DIIS: error= 2.18D-03 at cycle   4 NSaved=   4.
 NSaved= 4 IEnMin= 4 EnMin= -115.454369061133     IErMin= 4 ErrMin= 2.18D-03
 ErrMax= 2.18D-03  0.00D+00 EMaxC= 1.00D-01 BMatC= 1.27D-03 BMatP= 1.03D-02
 IDIUse=3 WtCom= 9.78D-01 WtEn= 2.18D-02
 Coeff-Com: -0.522D-01 0.954D-01 0.321D+00 0.635D+00
 Coeff-En:   0.000D+00 0.000D+00 0.251D-01 0.975D+00
 Coeff:     -0.510D-01 0.933D-01 0.315D+00 0.643D+00
 Gap=     0.358 Goal=   None    Shift=    0.000
 RMSDP=5.95D-05 MaxDP=2.12D-03 DE=-6.32D-03 OVMax= 8.89D-03

 Cycle   5  Pass 0  IDiag  1:
 E= -115.455300487276     Delta-E=       -0.000931426143 Rises=F Damp=F
 DIIS: error= 2.39D-04 at cycle   5 NSaved=   5.
 NSaved= 5 IEnMin= 5 EnMin= -115.455300487276     IErMin= 5 ErrMin= 2.39D-04
 ErrMax= 2.39D-04  0.00D+00 EMaxC= 1.00D-01 BMatC= 1.07D-05 BMatP= 1.27D-03
 IDIUse=3 WtCom= 9.98D-01 WtEn= 2.39D-03
 Coeff-Com: -0.521D-02 0.296D-02 0.416D-01 0.136D+00 0.824D+00
 Coeff-En:   0.000D+00 0.000D+00 0.000D+00 0.000D+00 0.100D+01
 Coeff:     -0.520D-02 0.295D-02 0.415D-01 0.136D+00 0.825D+00
 Gap=     0.358 Goal=   None    Shift=    0.000
 RMSDP=9.48D-06 MaxDP=2.43D-04 DE=-9.31D-04 OVMax= 8.56D-04

 Initial convergence to 1.0D-05 achieved.  Increase integral accuracy.
 Cycle   6  Pass 1  IDiag  1:
 E= -115.455306163911     Delta-E=       -0.000005676635 Rises=F Damp=F
 DIIS: error= 2.81D-05 at cycle   1 NSaved=   1.
 NSaved= 1 IEnMin= 1 EnMin= -115.455306163911     IErMin= 1 ErrMin= 2.81D-05
 ErrMax= 2.81D-05  0.00D+00 EMaxC= 1.00D-01 BMatC= 2.70D-07 BMatP= 2.70D-07
 IDIUse=1 WtCom= 1.00D+00 WtEn= 0.00D+00
 Coeff-Com:  0.100D+01
 Coeff:      0.100D+01
 Gap=     0.359 Goal=   None    Shift=    0.000
 RMSDP=9.48D-06 MaxDP=2.43D-04 DE=-5.68D-06 OVMax= 2.92D-04

 Cycle   7  Pass 1  IDiag  1:
 E= -115.455306622435     Delta-E=       -0.000000458524 Rises=F Damp=F
 DIIS: error= 1.75D-05 at cycle   2 NSaved=   2.
 NSaved= 2 IEnMin= 2 EnMin= -115.455306622435     IErMin= 2 ErrMin= 1.75D-05
 ErrMax= 1.75D-05  0.00D+00 EMaxC= 1.00D-01 BMatC= 7.51D-08 BMatP= 2.70D-07
 IDIUse=1 WtCom= 1.00D+00 WtEn= 0.00D+00
 Coeff-Com:  0.226D+00 0.774D+00
 Coeff:      0.226D+00 0.774D+00
 Gap=     0.359 Goal=   None    Shift=    0.000
 RMSDP=9.16D-07 MaxDP=4.57D-05 DE=-4.59D-07 OVMax= 1.81D-04

 Cycle   8  Pass 1  IDiag  1:
 E= -115.455306675443     Delta-E=       -0.000000053008 Rises=F Damp=F
 DIIS: error= 1.29D-05 at cycle   3 NSaved=   3.
 NSaved= 3 IEnMin= 3 EnMin= -115.455306675443     IErMin= 3 ErrMin= 1.29D-05
 ErrMax= 1.29D-05  0.00D+00 EMaxC= 1.00D-01 BMatC= 4.86D-08 BMatP= 7.51D-08
 IDIUse=1 WtCom= 1.00D+00 WtEn= 0.00D+00
 Coeff-Com: -0.155D+00 0.451D+00 0.704D+00
 Coeff:     -0.155D+00 0.451D+00 0.704D+00
 Gap=     0.359 Goal=   None    Shift=    0.000
 RMSDP=6.54D-07 MaxDP=2.58D-05 DE=-5.30D-08 OVMax= 7.50D-05

 Cycle   9  Pass 1  IDiag  1:
 E= -115.455306715308     Delta-E=       -0.000000039865 Rises=F Damp=F
 DIIS: error= 1.87D-06 at cycle   4 NSaved=   4.
 NSaved= 4 IEnMin= 4 EnMin= -115.455306715308     IErMin= 4 ErrMin= 1.87D-06
 ErrMax= 1.87D-06  0.00D+00 EMaxC= 1.00D-01 BMatC= 5.74D-10 BMatP= 4.86D-08
 IDIUse=1 WtCom= 1.00D+00 WtEn= 0.00D+00
 Coeff-Com: -0.503D-01 0.564D-01 0.141D+00 0.853D+00
 Coeff:     -0.503D-01 0.564D-01 0.141D+00 0.853D+00
 Gap=     0.359 Goal=   None    Shift=    0.000
 RMSDP=1.01D-07 MaxDP=2.93D-06 DE=-3.99D-08 OVMax= 1.57D-05

 Cycle  10  Pass 1  IDiag  1:
 E= -115.455306716078     Delta-E=       -0.000000000770 Rises=F Damp=F
 DIIS: error= 6.24D-07 at cycle   5 NSaved=   5.
 NSaved= 5 IEnMin= 5 EnMin= -115.455306716078     IErMin= 5 ErrMin= 6.24D-07
 ErrMax= 6.24D-07  0.00D+00 EMaxC= 1.00D-01 BMatC= 6.87D-11 BMatP= 5.74D-10
 IDIUse=1 WtCom= 1.00D+00 WtEn= 0.00D+00
 Coeff-Com: -0.618D-02-0.534D-02 0.415D-03 0.259D+00 0.752D+00
 Coeff:     -0.618D-02-0.534D-02 0.415D-03 0.259D+00 0.752D+00
 Gap=     0.359 Goal=   None    Shift=    0.000
 RMSDP=2.58D-08 MaxDP=8.21D-07 DE=-7.70D-10 OVMax= 3.74D-06

 Cycle  11  Pass 1  IDiag  1:
 E= -115.455306716149     Delta-E=       -0.000000000072 Rises=F Damp=F
 DIIS: error= 1.64D-07 at cycle   6 NSaved=   6.
 NSaved= 6 IEnMin= 6 EnMin= -115.455306716149     IErMin= 6 ErrMin= 1.64D-07
 ErrMax= 1.64D-07  0.00D+00 EMaxC= 1.00D-01 BMatC= 5.03D-12 BMatP= 6.87D-11
 IDIUse=1 WtCom= 1.00D+00 WtEn= 0.00D+00
 Coeff-Com:  0.455D-02-0.832D-02-0.200D-01-0.305D-01 0.156D+00 0.899D+00
 Coeff:      0.455D-02-0.832D-02-0.200D-01-0.305D-01 0.156D+00 0.899D+00
 Gap=     0.359 Goal=   None    Shift=    0.000
 RMSDP=9.48D-09 MaxDP=3.07D-07 DE=-7.15D-11 OVMax= 1.31D-06

 SCF Done:  E(RB2PLYPD3) =  -115.455306716     A.U. after   11 cycles
            NFock= 11  Conv=0.95D-08     -V/T= 2.0026
 KE= 1.151581487325D+02 PE=-3.508567754790D+02 EE= 8.055376122029D+01
 Leave Link  502 at Wed Aug 26 20:41:29 2020, MaxMem=  2097152000 cpu:       201.4
 (Enter /opt/cluster/programs/g09/g09_d.01/g09/l801.exe)
 DoSCS=T DFT=T ScalE2(SS,OS)=  0.270000  0.270000
 ExpMin= 7.60D-02 ExpMax= 1.17D+05 ExpMxC= 1.13D+03 IAcc=3 IRadAn=         5 AccDes= 0.00D+00
 HarFok:  IExCor=  205 AccDes= 0.00D+00 IRadAn=         5 IDoV=-2 UseB2=F ITyADJ=14
 ICtDFT= 12500011 ScaDFX=  1.000000  1.000000  1.000000  1.000000
 Largest valence mixing into a core orbital is  1.06D-04
 Largest core mixing into a valence orbital is  1.33D-05
 Range of M.O.s used for correlation:     3   234
 NBasis=   234 NAE=     9 NBE=     9 NFC=     2 NFV=     0
 NROrb=    232 NOA=     7 NOB=     7 NVA=   225 NVB=   225

 **** Warning!!: The largest alpha MO coefficient is  0.26690579D+02

 Leave Link  801 at Wed Aug 26 20:41:33 2020, MaxMem=  2097152000 cpu:         0.6
 (Enter /opt/cluster/programs/g09/g09_d.01/g09/l906.exe)
 DoSCS=T DFT=T ScalE2(SS,OS)=  0.270000  0.270000
 FulOut=F Deriv=F AODrv=F NAtomX=     6
   MMem=        3646  MDisk=           7 MDiskD=           7
  W3Min=      447300 MinDsk=     1090093 NBas6D=         284
 NBas2D=       41310    NTT=       40470    LW2=     4508827
    MDV=  2096872942 MDiskM=       16391 NBas2p=       41295
 Fully in-core method, ICMem=  1722292712.
 IMap=   1   2   3   4   5   6   7
 JobTyp=1 Pass  1 fully in-core, NPsUse=  8.
 Compute canonical integrals.
 FoFCou: FMM=F IPFlag=           0 FMFlag=           0 FMFlg1=           0
         NFxFlg=           0 DoJE=F BraDBF=F KetDBF=F FulRan=T
         wScrn=  0.000000 ICntrl=     600 IOpCl=  1 I1Cent=           0 NGrid=           0
         NMat0=    1 NMatS0=  41310 NMatT0=    0 NMatD0=    1 NMtDS0=    0 NMtDT0=    0
 Symmetry not used in FoFCou.
 Spin components of T(2) and E(2):
     alpha-alpha T2 =       0.2351295803D-01 E2=     -0.1744313401D-01
     alpha-beta  T2 =       0.1520830441D+00 E2=     -0.1186741790D+00
     beta-beta   T2 =       0.2351295803D-01 E2=     -0.1744313401D-01
 The integrals were generated   1 times.
 E2(B2PLYPD3) =    -0.1535604470D+00 E(B2PLYPD3) =    -0.11560886716316D+03
 Leave Link  906 at Wed Aug 26 20:41:50 2020, MaxMem=  2097152000 cpu:       126.7
 (Enter /opt/cluster/programs/g09/g09_d.01/g09/l601.exe)
 Copying SCF densities to generalized density rwf, IOpCl= 0 IROHF=0.

 **********************************************************************

            Population analysis using the SCF density.

 **********************************************************************

 Orbital symmetries:
       Occupied  (A) (A) (A) (A) (A) (A) (A) (A) (A)
       Virtual   (A) (A) (A) (A) (A) (A) (A) (A) (A) (A) (A) (A)
                 (A) (A) (A) (A) (A) (A) (A) (A) (A) (A) (A) (A)
                 (A) (A) (A) (A) (A) (A) (A) (A) (A) (A) (A) (A)
                 (A) (A) (A) (A) (A) (A) (A) (A) (A) (A) (A) (A)
                 (A) (A) (A) (A) (A) (A) (A) (A) (A) (A) (A) (A)
                 (A) (A) (A) (A) (A) (A) (A) (A) (A) (A) (A) (A)
                 (A) (A) (A) (A) (A) (A) (A) (A) (A) (A) (A) (A)
                 (A) (A) (A) (A) (A) (A) (A) (A) (A) (A) (A) (A)
                 (A) (A) (A) (A) (A) (A) (A) (A) (A) (A) (A) (A)
                 (A) (A) (A) (A) (A) (A) (A) (A) (A) (A) (A) (A)
                 (A) (A) (A) (A) (A) (A) (A) (A) (A) (A) (A) (A)
                 (A) (A) (A) (A) (A) (A) (A) (A) (A) (A) (A) (A)
                 (A) (A) (A) (A) (A) (A) (A) (A) (A) (A) (A) (A)
                 (A) (A) (A) (A) (A) (A) (A) (A) (A) (A) (A) (A)
                 (A) (A) (A) (A) (A) (A) (A) (A) (A) (A) (A) (A)
                 (A) (A) (A) (A) (A) (A) (A) (A) (A) (A) (A) (A)
                 (A) (A) (A) (A) (A) (A) (A) (A) (A) (A) (A) (A)
                 (A) (A) (A) (A) (A) (A) (A) (A) (A) (A) (A) (A)
                 (A) (A) (A) (A) (A) (A) (A) (A) (A)
 The electronic state is 1-A.
 Alpha  occ. eigenvalues --  -19.75322 -10.63503  -1.12559  -0.80034  -0.56537
 Alpha  occ. eigenvalues --   -0.50743  -0.49165  -0.40195  -0.35024
 Alpha virt. eigenvalues --    0.00864   0.07272   0.12270   0.13141   0.15138
 Alpha virt. eigenvalues --    0.17397   0.18635   0.24120   0.29561   0.33141
 Alpha virt. eigenvalues --    0.34676   0.37011   0.37852   0.41421   0.45435
 Alpha virt. eigenvalues --    0.48448   0.51578   0.55864   0.56898   0.65989
 Alpha virt. eigenvalues --    0.71451   0.75182   0.76550   0.77455   0.80546
 Alpha virt. eigenvalues --    0.82345   0.83741   0.87552   0.90297   0.94193
 Alpha virt. eigenvalues --    0.95973   0.96750   0.99677   1.08769   1.11956
 Alpha virt. eigenvalues --    1.13459   1.16656   1.21978   1.31811   1.37940
 Alpha virt. eigenvalues --    1.41316   1.46196   1.50226   1.52174   1.60552
 Alpha virt. eigenvalues --    1.74391   1.77626   1.80269   1.82180   1.84939
 Alpha virt. eigenvalues --    1.87669   1.92301   1.95756   1.98232   2.05221
 Alpha virt. eigenvalues --    2.05483   2.11838   2.13561   2.18129   2.18822
 Alpha virt. eigenvalues --    2.24010   2.26508   2.30760   2.31771   2.33813
 Alpha virt. eigenvalues --    2.38123   2.44685   2.52082   2.53214   2.58169
 Alpha virt. eigenvalues --    2.61439   2.63089   2.63973   2.69686   2.75819
 Alpha virt. eigenvalues --    2.79293   2.86278   2.87479   2.91047   3.00584
 Alpha virt. eigenvalues --    3.03883   3.12142   3.15589   3.17601   3.25113
 Alpha virt. eigenvalues --    3.29434   3.33114   3.36135   3.43868   3.48165
 Alpha virt. eigenvalues --    3.57795   3.70911   3.79136   3.83838   3.87125
 Alpha virt. eigenvalues --    3.92912   3.99102   4.07632   4.12122   4.15114
 Alpha virt. eigenvalues --    4.17988   4.26692   4.28342   4.35710   4.38370
 Alpha virt. eigenvalues --    4.42826   4.51088   4.66351   4.72665   5.04085
 Alpha virt. eigenvalues --    5.15024   5.30315   5.44188   5.51983   5.53482
 Alpha virt. eigenvalues --    5.57758   5.68005   5.71599   5.79478   5.82359
 Alpha virt. eigenvalues --    5.85193   5.92187   5.99521   6.03114   6.07870
 Alpha virt. eigenvalues --    6.13932   6.17378   6.22718   6.27265   6.30505
 Alpha virt. eigenvalues --    6.32556   6.36021   6.40240   6.43562   6.46367
 Alpha virt. eigenvalues --    6.48006   6.49919   6.62819   6.71379   6.73893
 Alpha virt. eigenvalues --    6.75835   6.80790   6.81918   6.90953   7.03333
 Alpha virt. eigenvalues --    7.04224   7.17545   7.27667   7.32258   7.40224
 Alpha virt. eigenvalues --    7.53300   7.57719   7.63552   7.66456   7.71960
 Alpha virt. eigenvalues --    7.72362   7.74906   7.79345   7.84425   7.87943
 Alpha virt. eigenvalues --    7.95431   8.02076   8.07406   8.09838   8.13732
 Alpha virt. eigenvalues --    8.18253   8.29306   8.35511   8.36911   8.38853
 Alpha virt. eigenvalues --    8.44755   8.46053   8.50218   8.50747   8.59107
 Alpha virt. eigenvalues --    8.59427   8.64792   8.73723   8.76619   8.88134
 Alpha virt. eigenvalues --    8.93730   8.99833   9.06122   9.22416   9.30121
 Alpha virt. eigenvalues --    9.32118   9.40759   9.42017   9.52213   9.59042
 Alpha virt. eigenvalues --    9.83712   9.86994   9.97533  10.12726  10.17668
 Alpha virt. eigenvalues --   10.19904  10.26424  10.37773  10.46616  10.56361
 Alpha virt. eigenvalues --   10.69064  10.81236  11.03553  11.32315  11.39899
 Alpha virt. eigenvalues --   11.52886  11.59611  11.71499  11.82954  11.96385
 Alpha virt. eigenvalues --   12.15582  12.18055  12.26028  12.51063  12.63496
 Alpha virt. eigenvalues --   12.71569  12.87161  13.06600  13.38659  13.84846
 Alpha virt. eigenvalues --   14.54434  29.46190  48.45165 149.14158 254.17264
          Condensed to atoms (all electrons):
               1          2          3          4          5          6
     1  C    4.411777   0.281090   0.422951   0.442935   0.411081  -0.039798
     2  O    0.281090   8.034907  -0.023013  -0.051810  -0.042632   0.277569
     3  H    0.422951  -0.023013   0.674635  -0.080575  -0.055918  -0.009206
     4  H    0.442935  -0.051810  -0.080575   0.710865  -0.031035  -0.011372
     5  H    0.411081  -0.042632  -0.055918  -0.031035   0.646813   0.011788
     6  H   -0.039798   0.277569  -0.009206  -0.011372   0.011788   0.516892
 Mulliken charges:
               1
     1  C    0.069964
     2  O   -0.476112
     3  H    0.071125
     4  H    0.020992
     5  H    0.059903
     6  H    0.254128
 Sum of Mulliken charges =   0.00000
 Mulliken charges with hydrogens summed into heavy atoms:
               1
     1  C    0.221984
     2  O   -0.221984
 Electronic spatial extent (au):  <R**2>=             86.3061
 Charge=              0.0000 electrons
 Dipole moment (field-independent basis, Debye):
    X=              0.8254    Y=              1.6832    Z=              0.3564  Tot=              1.9082
 Quadrupole moment (field-independent basis, Debye-Ang):
   XX=            -12.6667   YY=            -11.7753   ZZ=            -14.2441
   XY=             -2.5049   XZ=              0.0362   YZ=              0.3141
 Traceless Quadrupole moment (field-independent basis, Debye-Ang):
   XX=              0.2287   YY=              1.1201   ZZ=             -1.3488
   XY=             -2.5049   XZ=              0.0362   YZ=              0.3141
 Octapole moment (field-independent basis, Debye-Ang**2):
  XXX=             -3.0842  YYY=              1.1545  ZZZ=              0.7500  XYY=             -2.3608
  XXY=              2.9811  XXZ=              0.7005  XZZ=             -0.1520  YZZ=              0.1683
  YYZ=              0.1241  XYZ=             -0.0985
 Hexadecapole moment (field-independent basis, Debye-Ang**3):
 XXXX=            -64.0724 YYYY=            -22.3478 ZZZZ=            -19.0065 XXXY=             -4.1291
 XXXZ=              0.9433 YYYX=             -3.5159 YYYZ=              0.7495 ZZZX=              0.9498
 ZZZY=              0.3922 XXYY=            -12.4148 XXZZ=            -15.0080 YYZZ=             -7.2040
 XXYZ=              0.6027 YYXZ=             -0.2359 ZZXY=              0.0685
 N-N= 3.968955881008D+01 E-N=-3.508567879662D+02  KE= 1.151581487325D+02
 Leave Link  601 at Wed Aug 26 20:41:58 2020, MaxMem=  2097152000 cpu:         0.3
 (Enter /opt/cluster/programs/g09/g09_d.01/g09/l9999.exe)
 1\1\GINC-NODE16\SP\RB2PLYPD3-FC\def2QZVP\C1H4O1\BOITTIER\26-Aug-2020\0
 \\#p B2PLYPD3/Def2QZVP\\methanol\\0,1\C,0,-5.172481,-1.279609,0.91045\
 O,0,-3.763413,-1.123129,0.882473\H,0,-5.602495,-2.017461,0.631106\H,0,
 -5.756084,-0.508534,0.293094\H,0,-5.467849,-1.128101,1.921815\H,0,-3.4
 43052,-1.130907,-0.353895\\Version=ES64L-G09RevD.01\State=1-A\HF=-115.
 4553067\MP2=-115.6088672\RMSD=9.484e-09\PG=C01 [X(C1H4O1)]\\@


 The best way to pay for a lovely moment is to enjoy it.
 -- Richard Bach
 Job cpu time:       0 days  0 hours  6 minutes  9.8 seconds.
 File lengths (MBytes):  RWF=     23 Int=      0 D2E=      0 Chk=      4 Scr=      1
 Normal termination of Gaussian 09 at Wed Aug 26 20:42:02 2020.
