 Entering Gaussian System, Link 0=/opt/cluster/programs/g09/g09_d.01/g09//g09
 Input=/home/boittier/MDCM/nms_sampling/methanol_geom.xyz.dir/energies/methanol_1449_energy.com
 Output=/scratch/boittier/methanol_1449_energy/methanol_1449_energy.out
 Initial command:
 /opt/cluster/programs/g09/g09_d.01/g09/l1.exe "/scratch/boittier/methanol_1449_energy/Gau-101566.inp" -scrdir="/scratch/boittier/methanol_1449_energy/"
 Entering Link 1 = /opt/cluster/programs/g09/g09_d.01/g09/l1.exe PID=    101567.
  
 Copyright (c) 1988,1990,1992,1993,1995,1998,2003,2009,2013,
            Gaussian, Inc.  All Rights Reserved.
  
 This is part of the Gaussian(R) 09 program.  It is based on
 the Gaussian(R) 03 system (copyright 2003, Gaussian, Inc.),
 the Gaussian(R) 98 system (copyright 1998, Gaussian, Inc.),
 the Gaussian(R) 94 system (copyright 1995, Gaussian, Inc.),
 the Gaussian 92(TM) system (copyright 1992, Gaussian, Inc.),
 the Gaussian 90(TM) system (copyright 1990, Gaussian, Inc.),
 the Gaussian 88(TM) system (copyright 1988, Gaussian, Inc.),
 the Gaussian 86(TM) system (copyright 1986, Carnegie Mellon
 University), and the Gaussian 82(TM) system (copyright 1983,
 Carnegie Mellon University). Gaussian is a federally registered
 trademark of Gaussian, Inc.
  
 This software contains proprietary and confidential information,
 including trade secrets, belonging to Gaussian, Inc.
  
 This software is provided under written license and may be
 used, copied, transmitted, or stored only in accord with that
 written license.
  
 The following legend is applicable only to US Government
 contracts under FAR:
  
                    RESTRICTED RIGHTS LEGEND
  
 Use, reproduction and disclosure by the US Government is
 subject to restrictions as set forth in subparagraphs (a)
 and (c) of the Commercial Computer Software - Restricted
 Rights clause in FAR 52.227-19.
  
 Gaussian, Inc.
 340 Quinnipiac St., Bldg. 40, Wallingford CT 06492
  
  
 ---------------------------------------------------------------
 Warning -- This program may not be used in any manner that
 competes with the business of Gaussian, Inc. or will provide
 assistance to any competitor of Gaussian, Inc.  The licensee
 of this program is prohibited from giving any competitor of
 Gaussian, Inc. access to this program.  By using this program,
 the user acknowledges that Gaussian, Inc. is engaged in the
 business of creating and licensing software in the field of
 computational chemistry and represents and warrants to the
 licensee that it is not a competitor of Gaussian, Inc. and that
 it will not use this program in any manner prohibited above.
 ---------------------------------------------------------------
  

 Cite this work as:
 Gaussian 09, Revision D.01,
 M. J. Frisch, G. W. Trucks, H. B. Schlegel, G. E. Scuseria, 
 M. A. Robb, J. R. Cheeseman, G. Scalmani, V. Barone, B. Mennucci, 
 G. A. Petersson, H. Nakatsuji, M. Caricato, X. Li, H. P. Hratchian, 
 A. F. Izmaylov, J. Bloino, G. Zheng, J. L. Sonnenberg, M. Hada, 
 M. Ehara, K. Toyota, R. Fukuda, J. Hasegawa, M. Ishida, T. Nakajima, 
 Y. Honda, O. Kitao, H. Nakai, T. Vreven, J. A. Montgomery, Jr., 
 J. E. Peralta, F. Ogliaro, M. Bearpark, J. J. Heyd, E. Brothers, 
 K. N. Kudin, V. N. Staroverov, T. Keith, R. Kobayashi, J. Normand, 
 K. Raghavachari, A. Rendell, J. C. Burant, S. S. Iyengar, J. Tomasi, 
 M. Cossi, N. Rega, J. M. Millam, M. Klene, J. E. Knox, J. B. Cross, 
 V. Bakken, C. Adamo, J. Jaramillo, R. Gomperts, R. E. Stratmann, 
 O. Yazyev, A. J. Austin, R. Cammi, C. Pomelli, J. W. Ochterski, 
 R. L. Martin, K. Morokuma, V. G. Zakrzewski, G. A. Voth, 
 P. Salvador, J. J. Dannenberg, S. Dapprich, A. D. Daniels, 
 O. Farkas, J. B. Foresman, J. V. Ortiz, J. Cioslowski, 
 and D. J. Fox, Gaussian, Inc., Wallingford CT, 2013.
 
 ******************************************
 Gaussian 09:  ES64L-G09RevD.01 24-Apr-2013
                26-Aug-2020 
 ******************************************
 %chk=/home/boittier/MDCM/nms_sampling/methanol_geom.xyz.dir/methanol_1449.chk
 %nproc=8
 Will use up to    8 processors via shared memory.
 %mem=16000MB
 --------------------
 #p B2PLYPD3/Def2QZVP
 --------------------
 1/38=1/1;
 2/12=2,17=6,18=5,40=1/2;
 3/5=45,7=101,11=9,16=1,25=1,30=1,74=-60/1,2,3;
 4//1;
 5/5=2,38=5/2;
 8/10=1/1;
 9/16=-3/6;
 6/7=2,8=2,9=2,10=2/1;
 99/5=1,9=1/99;
 Leave Link    1 at Wed Aug 26 11:56:54 2020, MaxMem=  2097152000 cpu:         0.3
 (Enter /opt/cluster/programs/g09/g09_d.01/g09/l101.exe)
 --------
 methanol
 --------
 Symbolic Z-matrix:
 Charge =  0 Multiplicity = 1
 C                    -5.18799  -1.2457    0.91741 
 O                    -3.76607  -1.12569   0.87902 
 H                    -5.44818  -2.17764   0.55405 
 H                    -5.61081  -0.54797   0.37816 
 H                    -5.51486  -1.17073   1.85514 
 H                    -3.48887  -1.22875  -0.31584 
 
 NAtoms=      6 NQM=        6 NQMF=       0 NMMI=      0 NMMIF=      0
                NMic=       0 NMicF=      0.
                    Isotopes and Nuclear Properties:
 (Nuclear quadrupole moments (NQMom) in fm**2, nuclear magnetic moments (NMagM)
  in nuclear magnetons)

  Atom         1           2           3           4           5           6
 IAtWgt=          12          16           1           1           1           1
 AtmWgt=  12.0000000  15.9949146   1.0078250   1.0078250   1.0078250   1.0078250
 NucSpn=           0           0           1           1           1           1
 AtZEff=   0.0000000   0.0000000   0.0000000   0.0000000   0.0000000   0.0000000
 NQMom=    0.0000000   0.0000000   0.0000000   0.0000000   0.0000000   0.0000000
 NMagM=    0.0000000   0.0000000   2.7928460   2.7928460   2.7928460   2.7928460
 AtZNuc=   6.0000000   8.0000000   1.0000000   1.0000000   1.0000000   1.0000000
 Leave Link  101 at Wed Aug 26 11:56:55 2020, MaxMem=  2097152000 cpu:         0.5
 (Enter /opt/cluster/programs/g09/g09_d.01/g09/l202.exe)
                          Input orientation:                          
 ---------------------------------------------------------------------
 Center     Atomic      Atomic             Coordinates (Angstroms)
 Number     Number       Type             X           Y           Z
 ---------------------------------------------------------------------
      1          6           0       -5.187994   -1.245702    0.917408
      2          8           0       -3.766070   -1.125692    0.879016
      3          1           0       -5.448183   -2.177643    0.554045
      4          1           0       -5.610814   -0.547973    0.378164
      5          1           0       -5.514863   -1.170729    1.855137
      6          1           0       -3.488867   -1.228748   -0.315837
 ---------------------------------------------------------------------
                    Distance matrix (angstroms):
                    1          2          3          4          5
     1  C    0.000000
     2  O    1.427496   0.000000
     3  H    1.033559   2.010401   0.000000
     4  H    0.977950   1.996921   1.647182   0.000000
     5  H    0.995892   2.003277   1.646561   1.605765   0.000000
     6  H    2.099575   1.230908   2.344358   2.334042   2.970043
                    6
     6  H    0.000000
 Stoichiometry    CH4O
 Framework group  C1[X(CH4O)]
 Deg. of freedom    12
 Full point group                 C1      NOp   1
 Largest Abelian subgroup         C1      NOp   1
 Largest concise Abelian subgroup C1      NOp   1
                         Standard orientation:                         
 ---------------------------------------------------------------------
 Center     Atomic      Atomic             Coordinates (Angstroms)
 Number     Number       Type             X           Y           Z
 ---------------------------------------------------------------------
      1          6           0        0.676353    0.027842   -0.008626
      2          8           0       -0.737213   -0.170564    0.005839
      3          1           0        0.940479    0.565545    0.833608
      4          1           0        0.951647    0.511718   -0.812656
      5          1           0        1.147609   -0.849121    0.016920
      6          1           0       -1.200146    0.969319   -0.032824
 ---------------------------------------------------------------------
 Rotational constants (GHZ):    126.6232801     25.1453597     23.6682185
 Leave Link  202 at Wed Aug 26 11:56:55 2020, MaxMem=  2097152000 cpu:         0.0
 (Enter /opt/cluster/programs/g09/g09_d.01/g09/l301.exe)
 Standard basis: def2QZVP (5D, 7F)
 Ernie: Thresh=  0.10000D-02 Tol=  0.10000D-05 Strict=F.
 There are   284 symmetry adapted cartesian basis functions of A   symmetry.
 There are   234 symmetry adapted basis functions of A   symmetry.
   234 basis functions,   336 primitive gaussians,   284 cartesian basis functions
     9 alpha electrons        9 beta electrons
       nuclear repulsion energy        40.1938268649 Hartrees.
 IExCor=  419 DFT=T Ex+Corr=B2PLYPD3 ExCW=0 ScaHFX=  0.530000
 ScaDFX=  0.470000  0.470000  0.730000  0.730000 ScalE2=  0.270000  0.270000
 IRadAn=      0 IRanWt=     -1 IRanGd=            0 ICorTp=0 IEmpDi=141
 NAtoms=    6 NActive=    6 NUniq=    6 SFac= 1.00D+00 NAtFMM=   60 NAOKFM=F Big=F
 Integral buffers will be    131072 words long.
 Regular integral format.
 Two-electron integral symmetry is turned on.
 R6Disp:  Grimme-D3(BJ) Dispersion energy=       -0.0013605970 Hartrees.
 Nuclear repulsion after empirical dispersion term =       40.1924662679 Hartrees.
 Leave Link  301 at Wed Aug 26 11:56:55 2020, MaxMem=  2097152000 cpu:         0.4
 (Enter /opt/cluster/programs/g09/g09_d.01/g09/l302.exe)
 NPDir=0 NMtPBC=     1 NCelOv=     1 NCel=       1 NClECP=     1 NCelD=      1
         NCelK=      1 NCelE2=     1 NClLst=     1 CellRange=     0.0.
 One-electron integrals computed using PRISM.
   1 Symmetry operations used in ECPInt.
 ECPInt:  NShTT=    2775 NPrTT=    6207 LenC2=    2774 LenP2D=    5738.
 LDataN:  DoStor=T MaxTD1= 8 Len=  415
 NBasis=   234 RedAO= T EigKep=  8.49D-05  NBF=   234
 NBsUse=   234 1.00D-06 EigRej= -1.00D+00 NBFU=   234
 Precomputing XC quadrature grid using
 IXCGrd= 4 IRadAn=           0 IRanWt=          -1 IRanGd=           0 AccXCQ= 0.00D+00.
 Generated NRdTot=       0 NPtTot=           0 NUsed=           0 NTot=          32
 NSgBfM=   284   284   284   284   284 MxSgAt=     6 MxSgA2=     6.
 Leave Link  302 at Wed Aug 26 11:56:55 2020, MaxMem=  2097152000 cpu:         2.1
 (Enter /opt/cluster/programs/g09/g09_d.01/g09/l303.exe)
 DipDrv:  MaxL=1.
 Leave Link  303 at Wed Aug 26 11:56:57 2020, MaxMem=  2097152000 cpu:         0.2
 (Enter /opt/cluster/programs/g09/g09_d.01/g09/l401.exe)
 ExpMin= 7.60D-02 ExpMax= 1.17D+05 ExpMxC= 1.13D+03 IAcc=2 IRadAn=         4 AccDes= 0.00D+00
 Harris functional with IExCor=  419 and IRadAn=       4 diagonalized for initial guess.
 HarFok:  IExCor=  419 AccDes= 0.00D+00 IRadAn=         4 IDoV= 1 UseB2=F ITyADJ=14
 ICtDFT=  3500011 ScaDFX=  1.000000  1.000000  1.000000  1.000000
 FoFCou: FMM=F IPFlag=           0 FMFlag=      100000 FMFlg1=           0
         NFxFlg=           0 DoJE=T BraDBF=F KetDBF=T FulRan=T
         wScrn=  0.000000 ICntrl=     500 IOpCl=  0 I1Cent=   200000004 NGrid=           0
         NMat0=    1 NMatS0=      1 NMatT0=    0 NMatD0=    1 NMtDS0=    0 NMtDT0=    0
 Petite list used in FoFCou.
 Harris En= -115.791020068536    
 JPrj=0 DoOrth=F DoCkMO=F.
 Leave Link  401 at Wed Aug 26 11:56:57 2020, MaxMem=  2097152000 cpu:         3.7
 (Enter /opt/cluster/programs/g09/g09_d.01/g09/l502.exe)
 Closed shell SCF:
 Using DIIS extrapolation, IDIIS=  1040.
 Integral symmetry usage will be decided dynamically.
 Keep R1 ints in memory in canonical form, NReq=389840494.
 IVT=      264814 IEndB=      264814 NGot=  2097152000 MDV=  1718885927
 LenX=  1718885927 LenY=  1718804830
 Requested convergence on RMS density matrix=1.00D-08 within 128 cycles.
 Requested convergence on MAX density matrix=1.00D-06.
 Requested convergence on             energy=1.00D-06.
 No special actions if energy rises.
 FoFCou: FMM=F IPFlag=           0 FMFlag=           0 FMFlg1=           0
         NFxFlg=           0 DoJE=F BraDBF=F KetDBF=F FulRan=T
         wScrn=  0.000000 ICntrl=     600 IOpCl=  0 I1Cent=           0 NGrid=           0
         NMat0=    1 NMatS0=  27495 NMatT0=    0 NMatD0=    1 NMtDS0=    0 NMtDT0=    0
 Symmetry not used in FoFCou.
 Integral accuracy reduced to 1.0D-05 until final iterations.

 Cycle   1  Pass 0  IDiag  1:
 E= -115.365324782839    
 DIIS: error= 3.30D-02 at cycle   1 NSaved=   1.
 NSaved= 1 IEnMin= 1 EnMin= -115.365324782839     IErMin= 1 ErrMin= 3.30D-02
 ErrMax= 3.30D-02  0.00D+00 EMaxC= 1.00D-01 BMatC= 1.93D-01 BMatP= 1.93D-01
 IDIUse=3 WtCom= 6.70D-01 WtEn= 3.30D-01
 Coeff-Com:  0.100D+01
 Coeff-En:   0.100D+01
 Coeff:      0.100D+01
 Gap=     0.264 Goal=   None    Shift=    0.000
 GapD=    0.264 DampG=1.000 DampE=0.500 DampFc=0.5000 IDamp=-1.
 Damping current iteration by 5.00D-01
 RMSDP=1.51D-03 MaxDP=4.99D-02              OVMax= 1.69D-01

 Cycle   2  Pass 0  IDiag  1:
 E= -115.425190485660     Delta-E=       -0.059865702821 Rises=F Damp=T
 DIIS: error= 1.03D-02 at cycle   2 NSaved=   2.
 NSaved= 2 IEnMin= 2 EnMin= -115.425190485660     IErMin= 2 ErrMin= 1.03D-02
 ErrMax= 1.03D-02  0.00D+00 EMaxC= 1.00D-01 BMatC= 2.16D-02 BMatP= 1.93D-01
 IDIUse=3 WtCom= 8.97D-01 WtEn= 1.03D-01
 Coeff-Com: -0.104D+00 0.110D+01
 Coeff-En:   0.000D+00 0.100D+01
 Coeff:     -0.930D-01 0.109D+01
 Gap=     0.385 Goal=   None    Shift=    0.000
 RMSDP=4.31D-04 MaxDP=1.35D-02 DE=-5.99D-02 OVMax= 1.07D-01

 Cycle   3  Pass 0  IDiag  1:
 E= -115.483374436605     Delta-E=       -0.058183950945 Rises=F Damp=F
 DIIS: error= 5.28D-03 at cycle   3 NSaved=   3.
 NSaved= 3 IEnMin= 3 EnMin= -115.483374436605     IErMin= 3 ErrMin= 5.28D-03
 ErrMax= 5.28D-03  0.00D+00 EMaxC= 1.00D-01 BMatC= 9.31D-03 BMatP= 2.16D-02
 IDIUse=3 WtCom= 9.47D-01 WtEn= 5.28D-02
 Coeff-Com: -0.142D+00 0.453D+00 0.688D+00
 Coeff-En:   0.000D+00 0.000D+00 0.100D+01
 Coeff:     -0.134D+00 0.429D+00 0.705D+00
 Gap=     0.368 Goal=   None    Shift=    0.000
 RMSDP=1.89D-04 MaxDP=7.86D-03 DE=-5.82D-02 OVMax= 2.81D-02

 Cycle   4  Pass 0  IDiag  1:
 E= -115.488996775395     Delta-E=       -0.005622338790 Rises=F Damp=F
 DIIS: error= 2.23D-03 at cycle   4 NSaved=   4.
 NSaved= 4 IEnMin= 4 EnMin= -115.488996775395     IErMin= 4 ErrMin= 2.23D-03
 ErrMax= 2.23D-03  0.00D+00 EMaxC= 1.00D-01 BMatC= 1.13D-03 BMatP= 9.31D-03
 IDIUse=3 WtCom= 9.78D-01 WtEn= 2.23D-02
 Coeff-Com: -0.478D-01 0.851D-01 0.315D+00 0.647D+00
 Coeff-En:   0.000D+00 0.000D+00 0.252D-01 0.975D+00
 Coeff:     -0.468D-01 0.832D-01 0.309D+00 0.654D+00
 Gap=     0.368 Goal=   None    Shift=    0.000
 RMSDP=5.47D-05 MaxDP=1.98D-03 DE=-5.62D-03 OVMax= 8.40D-03

 Cycle   5  Pass 0  IDiag  1:
 E= -115.489822305797     Delta-E=       -0.000825530402 Rises=F Damp=F
 DIIS: error= 1.90D-04 at cycle   5 NSaved=   5.
 NSaved= 5 IEnMin= 5 EnMin= -115.489822305797     IErMin= 5 ErrMin= 1.90D-04
 ErrMax= 1.90D-04  0.00D+00 EMaxC= 1.00D-01 BMatC= 8.23D-06 BMatP= 1.13D-03
 IDIUse=3 WtCom= 9.98D-01 WtEn= 1.90D-03
 Coeff-Com: -0.508D-02 0.349D-02 0.421D-01 0.136D+00 0.824D+00
 Coeff-En:   0.000D+00 0.000D+00 0.000D+00 0.000D+00 0.100D+01
 Coeff:     -0.507D-02 0.349D-02 0.421D-01 0.135D+00 0.824D+00
 Gap=     0.368 Goal=   None    Shift=    0.000
 RMSDP=8.56D-06 MaxDP=2.64D-04 DE=-8.26D-04 OVMax= 7.09D-04

 Initial convergence to 1.0D-05 achieved.  Increase integral accuracy.
 Cycle   6  Pass 1  IDiag  1:
 E= -115.489815976872     Delta-E=        0.000006328925 Rises=F Damp=F
 DIIS: error= 2.72D-05 at cycle   1 NSaved=   1.
 NSaved= 1 IEnMin= 1 EnMin= -115.489815976872     IErMin= 1 ErrMin= 2.72D-05
 ErrMax= 2.72D-05  0.00D+00 EMaxC= 1.00D-01 BMatC= 2.24D-07 BMatP= 2.24D-07
 IDIUse=1 WtCom= 1.00D+00 WtEn= 0.00D+00
 Coeff-Com:  0.100D+01
 Coeff:      0.100D+01
 Gap=     0.368 Goal=   None    Shift=    0.000
 RMSDP=8.56D-06 MaxDP=2.64D-04 DE= 6.33D-06 OVMax= 2.53D-04

 Cycle   7  Pass 1  IDiag  1:
 E= -115.489816377196     Delta-E=       -0.000000400325 Rises=F Damp=F
 DIIS: error= 1.26D-05 at cycle   2 NSaved=   2.
 NSaved= 2 IEnMin= 2 EnMin= -115.489816377196     IErMin= 2 ErrMin= 1.26D-05
 ErrMax= 1.26D-05  0.00D+00 EMaxC= 1.00D-01 BMatC= 4.66D-08 BMatP= 2.24D-07
 IDIUse=1 WtCom= 1.00D+00 WtEn= 0.00D+00
 Coeff-Com:  0.143D+00 0.857D+00
 Coeff:      0.143D+00 0.857D+00
 Gap=     0.368 Goal=   None    Shift=    0.000
 RMSDP=7.90D-07 MaxDP=4.06D-05 DE=-4.00D-07 OVMax= 1.55D-04

 Cycle   8  Pass 1  IDiag  1:
 E= -115.489816413629     Delta-E=       -0.000000036432 Rises=F Damp=F
 DIIS: error= 1.28D-05 at cycle   3 NSaved=   3.
 NSaved= 3 IEnMin= 3 EnMin= -115.489816413629     IErMin= 2 ErrMin= 1.26D-05
 ErrMax= 1.28D-05  0.00D+00 EMaxC= 1.00D-01 BMatC= 3.73D-08 BMatP= 4.66D-08
 IDIUse=1 WtCom= 1.00D+00 WtEn= 0.00D+00
 Coeff-Com: -0.152D+00 0.497D+00 0.655D+00
 Coeff:     -0.152D+00 0.497D+00 0.655D+00
 Gap=     0.368 Goal=   None    Shift=    0.000
 RMSDP=4.92D-07 MaxDP=2.39D-05 DE=-3.64D-08 OVMax= 6.16D-05

 Cycle   9  Pass 1  IDiag  1:
 E= -115.489816443213     Delta-E=       -0.000000029584 Rises=F Damp=F
 DIIS: error= 1.66D-06 at cycle   4 NSaved=   4.
 NSaved= 4 IEnMin= 4 EnMin= -115.489816443213     IErMin= 4 ErrMin= 1.66D-06
 ErrMax= 1.66D-06  0.00D+00 EMaxC= 1.00D-01 BMatC= 4.40D-10 BMatP= 3.73D-08
 IDIUse=1 WtCom= 1.00D+00 WtEn= 0.00D+00
 Coeff-Com: -0.429D-01 0.389D-01 0.120D+00 0.884D+00
 Coeff:     -0.429D-01 0.389D-01 0.120D+00 0.884D+00
 Gap=     0.368 Goal=   None    Shift=    0.000
 RMSDP=9.31D-08 MaxDP=3.16D-06 DE=-2.96D-08 OVMax= 1.63D-05

 Cycle  10  Pass 1  IDiag  1:
 E= -115.489816443841     Delta-E=       -0.000000000628 Rises=F Damp=F
 DIIS: error= 5.25D-07 at cycle   5 NSaved=   5.
 NSaved= 5 IEnMin= 5 EnMin= -115.489816443841     IErMin= 5 ErrMin= 5.25D-07
 ErrMax= 5.25D-07  0.00D+00 EMaxC= 1.00D-01 BMatC= 3.63D-11 BMatP= 4.40D-10
 IDIUse=1 WtCom= 1.00D+00 WtEn= 0.00D+00
 Coeff-Com: -0.253D-02-0.120D-01-0.631D-02 0.218D+00 0.803D+00
 Coeff:     -0.253D-02-0.120D-01-0.631D-02 0.218D+00 0.803D+00
 Gap=     0.368 Goal=   None    Shift=    0.000
 RMSDP=2.16D-08 MaxDP=6.61D-07 DE=-6.28D-10 OVMax= 3.14D-06

 Cycle  11  Pass 1  IDiag  1:
 E= -115.489816443879     Delta-E=       -0.000000000039 Rises=F Damp=F
 DIIS: error= 1.68D-07 at cycle   6 NSaved=   6.
 NSaved= 6 IEnMin= 6 EnMin= -115.489816443879     IErMin= 6 ErrMin= 1.68D-07
 ErrMax= 1.68D-07  0.00D+00 EMaxC= 1.00D-01 BMatC= 3.93D-12 BMatP= 3.63D-11
 IDIUse=1 WtCom= 1.00D+00 WtEn= 0.00D+00
 Coeff-Com:  0.392D-02-0.917D-02-0.177D-01-0.148D-01 0.230D+00 0.807D+00
 Coeff:      0.392D-02-0.917D-02-0.177D-01-0.148D-01 0.230D+00 0.807D+00
 Gap=     0.368 Goal=   None    Shift=    0.000
 RMSDP=7.38D-09 MaxDP=2.03D-07 DE=-3.85D-11 OVMax= 9.57D-07

 SCF Done:  E(RB2PLYPD3) =  -115.489816444     A.U. after   11 cycles
            NFock= 11  Conv=0.74D-08     -V/T= 2.0016
 KE= 1.153015255292D+02 PE=-3.520807335074D+02 EE= 8.109692526649D+01
 Leave Link  502 at Wed Aug 26 11:57:12 2020, MaxMem=  2097152000 cpu:        70.8
 (Enter /opt/cluster/programs/g09/g09_d.01/g09/l801.exe)
 DoSCS=T DFT=T ScalE2(SS,OS)=  0.270000  0.270000
 ExpMin= 7.60D-02 ExpMax= 1.17D+05 ExpMxC= 1.13D+03 IAcc=3 IRadAn=         5 AccDes= 0.00D+00
 HarFok:  IExCor=  205 AccDes= 0.00D+00 IRadAn=         5 IDoV=-2 UseB2=F ITyADJ=14
 ICtDFT= 12500011 ScaDFX=  1.000000  1.000000  1.000000  1.000000
 DSYEVD-2 returned Info=        1739 IAlg= 4 N=    57 NDim=    57 NE2=    36788970 trying  DSYEV.
 Largest valence mixing into a core orbital is  1.04D-04
 Largest core mixing into a valence orbital is  1.35D-05
 Range of M.O.s used for correlation:     3   234
 NBasis=   234 NAE=     9 NBE=     9 NFC=     2 NFV=     0
 NROrb=    232 NOA=     7 NOB=     7 NVA=   225 NVB=   225

 **** Warning!!: The largest alpha MO coefficient is  0.36426820D+02

 Leave Link  801 at Wed Aug 26 11:57:12 2020, MaxMem=  2097152000 cpu:         0.8
 (Enter /opt/cluster/programs/g09/g09_d.01/g09/l906.exe)
 DoSCS=T DFT=T ScalE2(SS,OS)=  0.270000  0.270000
 FulOut=F Deriv=F AODrv=F NAtomX=     6
   MMem=        3646  MDisk=           7 MDiskD=           7
  W3Min=      447300 MinDsk=     1090093 NBas6D=         284
 NBas2D=       41310    NTT=       40470    LW2=     4508827
    MDV=  2096872296 MDiskM=       16391 NBas2p=       41304
 Fully in-core method, ICMem=  1722292712.
 IMap=   1   2   3   4   5   6   7
 JobTyp=1 Pass  1 fully in-core, NPsUse=  8.
 Compute canonical integrals.
 FoFCou: FMM=F IPFlag=           0 FMFlag=           0 FMFlg1=           0
         NFxFlg=           0 DoJE=F BraDBF=F KetDBF=F FulRan=T
         wScrn=  0.000000 ICntrl=     600 IOpCl=  1 I1Cent=           0 NGrid=           0
         NMat0=    1 NMatS0=  41310 NMatT0=    0 NMatD0=    1 NMtDS0=    0 NMtDT0=    0
 Symmetry not used in FoFCou.
 Spin components of T(2) and E(2):
     alpha-alpha T2 =       0.2264245010D-01 E2=     -0.1723903238D-01
     alpha-beta  T2 =       0.1441452457D+00 E2=     -0.1171951806D+00
     beta-beta   T2 =       0.2264245010D-01 E2=     -0.1723903238D-01
 The integrals were generated   1 times.
 E2(B2PLYPD3) =    -0.1516732453D+00 E(B2PLYPD3) =    -0.11564148968922D+03
 Leave Link  906 at Wed Aug 26 11:57:30 2020, MaxMem=  2097152000 cpu:       144.9
 (Enter /opt/cluster/programs/g09/g09_d.01/g09/l601.exe)
 Copying SCF densities to generalized density rwf, IOpCl= 0 IROHF=0.

 **********************************************************************

            Population analysis using the SCF density.

 **********************************************************************

 Orbital symmetries:
       Occupied  (A) (A) (A) (A) (A) (A) (A) (A) (A)
       Virtual   (A) (A) (A) (A) (A) (A) (A) (A) (A) (A) (A) (A)
                 (A) (A) (A) (A) (A) (A) (A) (A) (A) (A) (A) (A)
                 (A) (A) (A) (A) (A) (A) (A) (A) (A) (A) (A) (A)
                 (A) (A) (A) (A) (A) (A) (A) (A) (A) (A) (A) (A)
                 (A) (A) (A) (A) (A) (A) (A) (A) (A) (A) (A) (A)
                 (A) (A) (A) (A) (A) (A) (A) (A) (A) (A) (A) (A)
                 (A) (A) (A) (A) (A) (A) (A) (A) (A) (A) (A) (A)
                 (A) (A) (A) (A) (A) (A) (A) (A) (A) (A) (A) (A)
                 (A) (A) (A) (A) (A) (A) (A) (A) (A) (A) (A) (A)
                 (A) (A) (A) (A) (A) (A) (A) (A) (A) (A) (A) (A)
                 (A) (A) (A) (A) (A) (A) (A) (A) (A) (A) (A) (A)
                 (A) (A) (A) (A) (A) (A) (A) (A) (A) (A) (A) (A)
                 (A) (A) (A) (A) (A) (A) (A) (A) (A) (A) (A) (A)
                 (A) (A) (A) (A) (A) (A) (A) (A) (A) (A) (A) (A)
                 (A) (A) (A) (A) (A) (A) (A) (A) (A) (A) (A) (A)
                 (A) (A) (A) (A) (A) (A) (A) (A) (A) (A) (A) (A)
                 (A) (A) (A) (A) (A) (A) (A) (A) (A) (A) (A) (A)
                 (A) (A) (A) (A) (A) (A) (A) (A) (A) (A) (A) (A)
                 (A) (A) (A) (A) (A) (A) (A) (A) (A)
 The electronic state is 1-A.
 Alpha  occ. eigenvalues --  -19.73988 -10.62300  -1.12187  -0.79636  -0.55718
 Alpha  occ. eigenvalues --   -0.53214  -0.49653  -0.40349  -0.34931
 Alpha virt. eigenvalues --    0.01914   0.07753   0.12711   0.12836   0.14609
 Alpha virt. eigenvalues --    0.17891   0.17951   0.25721   0.29629   0.33209
 Alpha virt. eigenvalues --    0.33686   0.39663   0.41036   0.42804   0.44105
 Alpha virt. eigenvalues --    0.48781   0.54074   0.54504   0.57817   0.65502
 Alpha virt. eigenvalues --    0.70609   0.74288   0.77219   0.78203   0.79820
 Alpha virt. eigenvalues --    0.82198   0.84579   0.89356   0.91004   0.92175
 Alpha virt. eigenvalues --    1.00915   1.01645   1.03742   1.06530   1.10346
 Alpha virt. eigenvalues --    1.12059   1.15875   1.19789   1.33911   1.40501
 Alpha virt. eigenvalues --    1.44180   1.47835   1.51080   1.53320   1.54749
 Alpha virt. eigenvalues --    1.75399   1.80517   1.84229   1.84813   1.87428
 Alpha virt. eigenvalues --    1.88954   1.94885   1.96031   1.97133   2.03251
 Alpha virt. eigenvalues --    2.07500   2.13326   2.15823   2.20168   2.23155
 Alpha virt. eigenvalues --    2.24518   2.25031   2.29116   2.32331   2.39140
 Alpha virt. eigenvalues --    2.43665   2.51584   2.54675   2.55622   2.56585
 Alpha virt. eigenvalues --    2.62326   2.65006   2.70063   2.71592   2.75016
 Alpha virt. eigenvalues --    2.76914   2.88619   2.91740   2.94513   3.01178
 Alpha virt. eigenvalues --    3.04231   3.12526   3.14224   3.20783   3.23893
 Alpha virt. eigenvalues --    3.37860   3.40103   3.44295   3.48871   3.55880
 Alpha virt. eigenvalues --    3.64323   3.73847   3.83610   3.85700   3.90429
 Alpha virt. eigenvalues --    4.06544   4.10565   4.11392   4.11744   4.16952
 Alpha virt. eigenvalues --    4.19178   4.26773   4.31401   4.35087   4.37538
 Alpha virt. eigenvalues --    4.43389   4.52671   4.62992   4.73510   5.11433
 Alpha virt. eigenvalues --    5.18321   5.31182   5.46269   5.50235   5.66066
 Alpha virt. eigenvalues --    5.68582   5.70830   5.78521   5.80691   5.83228
 Alpha virt. eigenvalues --    5.91087   5.95791   6.00172   6.12479   6.13640
 Alpha virt. eigenvalues --    6.18150   6.22538   6.27682   6.32570   6.36966
 Alpha virt. eigenvalues --    6.40034   6.42254   6.49066   6.55831   6.60765
 Alpha virt. eigenvalues --    6.66369   6.67649   6.73046   6.75881   6.83133
 Alpha virt. eigenvalues --    6.86405   6.89510   6.93999   7.01332   7.04447
 Alpha virt. eigenvalues --    7.13503   7.24846   7.31277   7.44397   7.47913
 Alpha virt. eigenvalues --    7.58734   7.63855   7.64250   7.66116   7.70565
 Alpha virt. eigenvalues --    7.77035   7.79377   7.83417   7.90037   7.95596
 Alpha virt. eigenvalues --    7.98138   8.02739   8.07762   8.10340   8.15754
 Alpha virt. eigenvalues --    8.18422   8.26155   8.37712   8.38106   8.46183
 Alpha virt. eigenvalues --    8.52558   8.54972   8.56662   8.58889   8.60762
 Alpha virt. eigenvalues --    8.67852   8.70083   8.73558   8.81069   8.94164
 Alpha virt. eigenvalues --    8.99285   9.09858   9.15774   9.23134   9.42139
 Alpha virt. eigenvalues --    9.53857   9.55267   9.60887   9.63114   9.91438
 Alpha virt. eigenvalues --    9.95400  10.09511  10.11623  10.27695  10.34518
 Alpha virt. eigenvalues --   10.43628  10.52208  10.54795  10.60938  10.72045
 Alpha virt. eigenvalues --   10.74381  10.82567  10.97538  11.04018  11.30076
 Alpha virt. eigenvalues --   11.34604  11.52438  11.66588  11.78798  11.81927
 Alpha virt. eigenvalues --   12.01540  12.19438  12.24288  12.61982  12.67842
 Alpha virt. eigenvalues --   12.76379  12.78470  13.30398  13.73556  14.08448
 Alpha virt. eigenvalues --   14.60800  29.54919  48.53534 149.25293 254.26412
          Condensed to atoms (all electrons):
               1          2          3          4          5          6
     1  C    4.385510   0.251515   0.454739   0.448182   0.404861  -0.047377
     2  O    0.251515   8.082058  -0.049810  -0.040198  -0.030058   0.289829
     3  H    0.454739  -0.049810   0.666151  -0.061279  -0.042809  -0.009656
     4  H    0.448182  -0.040198  -0.061279   0.666530  -0.046966  -0.010126
     5  H    0.404861  -0.030058  -0.042809  -0.046966   0.639722   0.012122
     6  H   -0.047377   0.289829  -0.009656  -0.010126   0.012122   0.514092
 Mulliken charges:
               1
     1  C    0.102569
     2  O   -0.503336
     3  H    0.042665
     4  H    0.043858
     5  H    0.063128
     6  H    0.251115
 Sum of Mulliken charges =   0.00000
 Mulliken charges with hydrogens summed into heavy atoms:
               1
     1  C    0.252221
     2  O   -0.252221
 Electronic spatial extent (au):  <R**2>=             83.8579
 Charge=              0.0000 electrons
 Dipole moment (field-independent basis, Debye):
    X=              1.0130    Y=              1.7061    Z=             -0.0950  Tot=              1.9865
 Quadrupole moment (field-independent basis, Debye-Ang):
   XX=            -12.9120   YY=            -11.7407   ZZ=            -13.7992
   XY=             -2.5900   XZ=              0.0164   YZ=             -0.0819
 Traceless Quadrupole moment (field-independent basis, Debye-Ang):
   XX=             -0.0947   YY=              1.0766   ZZ=             -0.9819
   XY=             -2.5900   XZ=              0.0164   YZ=             -0.0819
 Octapole moment (field-independent basis, Debye-Ang**2):
  XXX=             -2.5901  YYY=              1.1716  ZZZ=             -0.1326  XYY=             -2.0360
  XXY=              2.5113  XXZ=             -0.1974  XZZ=              0.1866  YZZ=              0.4182
  YYZ=             -0.0721  XYZ=              0.0526
 Hexadecapole moment (field-independent basis, Debye-Ang**3):
 XXXX=            -61.9406 YYYY=            -20.2737 ZZZZ=            -18.6045 XXXY=             -4.3783
 XXXZ=             -0.1540 YYYX=             -3.4168 YYYZ=             -0.1947 ZZZX=             -0.1621
 ZZZY=             -0.0706 XXYY=            -11.9698 XXZZ=            -14.5462 YYZZ=             -6.7807
 XXYZ=             -0.1793 YYXZ=              0.0404 ZZXY=              0.1101
 N-N= 4.019246626786D+01 E-N=-3.520807448297D+02  KE= 1.153015255292D+02
 Leave Link  601 at Wed Aug 26 11:57:31 2020, MaxMem=  2097152000 cpu:         0.4
 (Enter /opt/cluster/programs/g09/g09_d.01/g09/l9999.exe)
 1\1\GINC-NODE09\SP\RB2PLYPD3-FC\def2QZVP\C1H4O1\BOITTIER\26-Aug-2020\0
 \\#p B2PLYPD3/Def2QZVP\\methanol\\0,1\C,0,-5.187994,-1.245702,0.917408
 \O,0,-3.76607,-1.125692,0.879016\H,0,-5.448183,-2.177643,0.554045\H,0,
 -5.610814,-0.547973,0.378164\H,0,-5.514863,-1.170729,1.855137\H,0,-3.4
 88867,-1.228748,-0.315837\\Version=ES64L-G09RevD.01\State=1-A\HF=-115.
 4898164\MP2=-115.6414897\RMSD=7.384e-09\PG=C01 [X(C1H4O1)]\\@


          EVOLUTION
 IN THE BEGINNING GOD MADE MAN.
 HE WORKED THE DIRT WITH HIS HANDS.
 THEN GOD DECIDED TO GIVE MAN SCIENCE,
 MAN SHOULD BE USEFUL (LIKE AN APPLIANCE.)
 BUT SOON MAN'S KNOWLEDGE GREW TOO GREAT,
 TO THE HEADING SCIENCE HE COULDN'T RELATE
 SO GOD SAID "LETS HAVE DIFFERENT FIELDS,
 WE'LL DIVIDE THEM UP, SEE WHAT IT YIELDS."
 ENTER PHYSICS, CHEMISTRY, BIO
 THEY SPRANG UP AROUND THE NILE.
 BUT CHEMISTRY SURPASSED THE REST
 FAR AND AWAY IT WAS THE BEST.
 EXPERIMENT WAS GOD'S DECREE
 EXPERIMENT DID CHEMISTS WITH LOTS OF GLEE
 BUT SOON THEIR TESTS BEGAN TO BOG,
 THEY FOUND THEMSELVES DEEP IN A FOG.
 "GIVE US SOME HELP" THEY CRIED TO GOD.
 GOD LOOKED AROUND, THEN GAVE THE NOD.
 ENTER EINSTEIN, HEISENBERG, BOHR,
 REACTION PATHS WERE CLEAR ONCE MORE.
 WITH THEORISTS GOD SEND DIRECTION
 AND THEN HE STOPPED, HE'D MADE PERFECTION.
          -- THOMAS A. HOLME, 1981
 Job cpu time:       0 days  0 hours  3 minutes 44.8 seconds.
 File lengths (MBytes):  RWF=     23 Int=      0 D2E=      0 Chk=      4 Scr=      1
 Normal termination of Gaussian 09 at Wed Aug 26 11:57:31 2020.
