 Entering Gaussian System, Link 0=/opt/cluster/programs/g09/g09_d.01/g09//g09
 Input=/home/boittier/MDCM/nms_sampling/methanol_geom.xyz.dir/energies/methanol_1554_energy.com
 Output=/scratch/boittier/methanol_1554_energy/methanol_1554_energy.out
 Initial command:
 /opt/cluster/programs/g09/g09_d.01/g09/l1.exe "/scratch/boittier/methanol_1554_energy/Gau-112557.inp" -scrdir="/scratch/boittier/methanol_1554_energy/"
 Entering Link 1 = /opt/cluster/programs/g09/g09_d.01/g09/l1.exe PID=    112558.
  
 Copyright (c) 1988,1990,1992,1993,1995,1998,2003,2009,2013,
            Gaussian, Inc.  All Rights Reserved.
  
 This is part of the Gaussian(R) 09 program.  It is based on
 the Gaussian(R) 03 system (copyright 2003, Gaussian, Inc.),
 the Gaussian(R) 98 system (copyright 1998, Gaussian, Inc.),
 the Gaussian(R) 94 system (copyright 1995, Gaussian, Inc.),
 the Gaussian 92(TM) system (copyright 1992, Gaussian, Inc.),
 the Gaussian 90(TM) system (copyright 1990, Gaussian, Inc.),
 the Gaussian 88(TM) system (copyright 1988, Gaussian, Inc.),
 the Gaussian 86(TM) system (copyright 1986, Carnegie Mellon
 University), and the Gaussian 82(TM) system (copyright 1983,
 Carnegie Mellon University). Gaussian is a federally registered
 trademark of Gaussian, Inc.
  
 This software contains proprietary and confidential information,
 including trade secrets, belonging to Gaussian, Inc.
  
 This software is provided under written license and may be
 used, copied, transmitted, or stored only in accord with that
 written license.
  
 The following legend is applicable only to US Government
 contracts under FAR:
  
                    RESTRICTED RIGHTS LEGEND
  
 Use, reproduction and disclosure by the US Government is
 subject to restrictions as set forth in subparagraphs (a)
 and (c) of the Commercial Computer Software - Restricted
 Rights clause in FAR 52.227-19.
  
 Gaussian, Inc.
 340 Quinnipiac St., Bldg. 40, Wallingford CT 06492
  
  
 ---------------------------------------------------------------
 Warning -- This program may not be used in any manner that
 competes with the business of Gaussian, Inc. or will provide
 assistance to any competitor of Gaussian, Inc.  The licensee
 of this program is prohibited from giving any competitor of
 Gaussian, Inc. access to this program.  By using this program,
 the user acknowledges that Gaussian, Inc. is engaged in the
 business of creating and licensing software in the field of
 computational chemistry and represents and warrants to the
 licensee that it is not a competitor of Gaussian, Inc. and that
 it will not use this program in any manner prohibited above.
 ---------------------------------------------------------------
  

 Cite this work as:
 Gaussian 09, Revision D.01,
 M. J. Frisch, G. W. Trucks, H. B. Schlegel, G. E. Scuseria, 
 M. A. Robb, J. R. Cheeseman, G. Scalmani, V. Barone, B. Mennucci, 
 G. A. Petersson, H. Nakatsuji, M. Caricato, X. Li, H. P. Hratchian, 
 A. F. Izmaylov, J. Bloino, G. Zheng, J. L. Sonnenberg, M. Hada, 
 M. Ehara, K. Toyota, R. Fukuda, J. Hasegawa, M. Ishida, T. Nakajima, 
 Y. Honda, O. Kitao, H. Nakai, T. Vreven, J. A. Montgomery, Jr., 
 J. E. Peralta, F. Ogliaro, M. Bearpark, J. J. Heyd, E. Brothers, 
 K. N. Kudin, V. N. Staroverov, T. Keith, R. Kobayashi, J. Normand, 
 K. Raghavachari, A. Rendell, J. C. Burant, S. S. Iyengar, J. Tomasi, 
 M. Cossi, N. Rega, J. M. Millam, M. Klene, J. E. Knox, J. B. Cross, 
 V. Bakken, C. Adamo, J. Jaramillo, R. Gomperts, R. E. Stratmann, 
 O. Yazyev, A. J. Austin, R. Cammi, C. Pomelli, J. W. Ochterski, 
 R. L. Martin, K. Morokuma, V. G. Zakrzewski, G. A. Voth, 
 P. Salvador, J. J. Dannenberg, S. Dapprich, A. D. Daniels, 
 O. Farkas, J. B. Foresman, J. V. Ortiz, J. Cioslowski, 
 and D. J. Fox, Gaussian, Inc., Wallingford CT, 2013.
 
 ******************************************
 Gaussian 09:  ES64L-G09RevD.01 24-Apr-2013
                26-Aug-2020 
 ******************************************
 %chk=/home/boittier/MDCM/nms_sampling/methanol_geom.xyz.dir/methanol_1554.chk
 %nproc=8
 Will use up to    8 processors via shared memory.
 %mem=16000MB
 --------------------
 #p B2PLYPD3/Def2QZVP
 --------------------
 1/38=1/1;
 2/12=2,17=6,18=5,40=1/2;
 3/5=45,7=101,11=9,16=1,25=1,30=1,74=-60/1,2,3;
 4//1;
 5/5=2,38=5/2;
 8/10=1/1;
 9/16=-3/6;
 6/7=2,8=2,9=2,10=2/1;
 99/5=1,9=1/99;
 Leave Link    1 at Wed Aug 26 12:29:41 2020, MaxMem=  2097152000 cpu:         0.2
 (Enter /opt/cluster/programs/g09/g09_d.01/g09/l101.exe)
 --------
 methanol
 --------
 Symbolic Z-matrix:
 Charge =  0 Multiplicity = 1
 C                    -5.18483  -1.25003   0.90541 
 O                    -3.76249  -1.11965   0.88212 
 H                    -5.47566  -2.16602   0.58402 
 H                    -5.66124  -0.62148   0.37065 
 H                    -5.44325  -1.16536   1.92824 
 H                    -3.57939  -1.21423  -0.32417 
 
 NAtoms=      6 NQM=        6 NQMF=       0 NMMI=      0 NMMIF=      0
                NMic=       0 NMicF=      0.
                    Isotopes and Nuclear Properties:
 (Nuclear quadrupole moments (NQMom) in fm**2, nuclear magnetic moments (NMagM)
  in nuclear magnetons)

  Atom         1           2           3           4           5           6
 IAtWgt=          12          16           1           1           1           1
 AtmWgt=  12.0000000  15.9949146   1.0078250   1.0078250   1.0078250   1.0078250
 NucSpn=           0           0           1           1           1           1
 AtZEff=   0.0000000   0.0000000   0.0000000   0.0000000   0.0000000   0.0000000
 NQMom=    0.0000000   0.0000000   0.0000000   0.0000000   0.0000000   0.0000000
 NMagM=    0.0000000   0.0000000   2.7928460   2.7928460   2.7928460   2.7928460
 AtZNuc=   6.0000000   8.0000000   1.0000000   1.0000000   1.0000000   1.0000000
 Leave Link  101 at Wed Aug 26 12:29:41 2020, MaxMem=  2097152000 cpu:         0.5
 (Enter /opt/cluster/programs/g09/g09_d.01/g09/l202.exe)
                          Input orientation:                          
 ---------------------------------------------------------------------
 Center     Atomic      Atomic             Coordinates (Angstroms)
 Number     Number       Type             X           Y           Z
 ---------------------------------------------------------------------
      1          6           0       -5.184834   -1.250025    0.905405
      2          8           0       -3.762486   -1.119650    0.882119
      3          1           0       -5.475657   -2.166019    0.584021
      4          1           0       -5.661235   -0.621475    0.370654
      5          1           0       -5.443252   -1.165363    1.928237
      6          1           0       -3.579394   -1.214228   -0.324165
 ---------------------------------------------------------------------
                    Distance matrix (angstroms):
                    1          2          3          4          5
     1  C    0.000000
     2  O    1.428501   0.000000
     3  H    1.013366   2.029459   0.000000
     4  H    0.952886   2.028552   1.570217   0.000000
     5  H    1.058363   1.980259   1.676090   1.664150   0.000000
     6  H    2.022514   1.223760   2.307926   2.273366   2.923982
                    6
     6  H    0.000000
 Stoichiometry    CH4O
 Framework group  C1[X(CH4O)]
 Deg. of freedom    12
 Full point group                 C1      NOp   1
 Largest Abelian subgroup         C1      NOp   1
 Largest concise Abelian subgroup C1      NOp   1
                         Standard orientation:                         
 ---------------------------------------------------------------------
 Center     Atomic      Atomic             Coordinates (Angstroms)
 Number     Number       Type             X           Y           Z
 ---------------------------------------------------------------------
      1          6           0        0.668907    0.030753   -0.013553
      2          8           0       -0.746516   -0.161383    0.003027
      3          1           0        0.986590    0.498534    0.827380
      4          1           0        1.002386    0.546620   -0.742021
      5          1           0        1.070530   -0.948446   -0.014334
      6          1           0       -1.100823    1.009842   -0.013922
 ---------------------------------------------------------------------
 Rotational constants (GHZ):    124.5278263     25.4624813     23.6025143
 Leave Link  202 at Wed Aug 26 12:29:41 2020, MaxMem=  2097152000 cpu:         0.0
 (Enter /opt/cluster/programs/g09/g09_d.01/g09/l301.exe)
 Standard basis: def2QZVP (5D, 7F)
 Ernie: Thresh=  0.10000D-02 Tol=  0.10000D-05 Strict=F.
 There are   284 symmetry adapted cartesian basis functions of A   symmetry.
 There are   234 symmetry adapted basis functions of A   symmetry.
   234 basis functions,   336 primitive gaussians,   284 cartesian basis functions
     9 alpha electrons        9 beta electrons
       nuclear repulsion energy        40.2001223443 Hartrees.
 IExCor=  419 DFT=T Ex+Corr=B2PLYPD3 ExCW=0 ScaHFX=  0.530000
 ScaDFX=  0.470000  0.470000  0.730000  0.730000 ScalE2=  0.270000  0.270000
 IRadAn=      0 IRanWt=     -1 IRanGd=            0 ICorTp=0 IEmpDi=141
 NAtoms=    6 NActive=    6 NUniq=    6 SFac= 1.00D+00 NAtFMM=   60 NAOKFM=F Big=F
 Integral buffers will be    131072 words long.
 Regular integral format.
 Two-electron integral symmetry is turned on.
 R6Disp:  Grimme-D3(BJ) Dispersion energy=       -0.0013561955 Hartrees.
 Nuclear repulsion after empirical dispersion term =       40.1987661488 Hartrees.
 Leave Link  301 at Wed Aug 26 12:29:41 2020, MaxMem=  2097152000 cpu:         0.4
 (Enter /opt/cluster/programs/g09/g09_d.01/g09/l302.exe)
 NPDir=0 NMtPBC=     1 NCelOv=     1 NCel=       1 NClECP=     1 NCelD=      1
         NCelK=      1 NCelE2=     1 NClLst=     1 CellRange=     0.0.
 One-electron integrals computed using PRISM.
   1 Symmetry operations used in ECPInt.
 ECPInt:  NShTT=    2775 NPrTT=    6207 LenC2=    2773 LenP2D=    5735.
 LDataN:  DoStor=T MaxTD1= 8 Len=  415
 NBasis=   234 RedAO= T EigKep=  7.72D-05  NBF=   234
 NBsUse=   234 1.00D-06 EigRej= -1.00D+00 NBFU=   234
 Precomputing XC quadrature grid using
 IXCGrd= 4 IRadAn=           0 IRanWt=          -1 IRanGd=           0 AccXCQ= 0.00D+00.
 Generated NRdTot=       0 NPtTot=           0 NUsed=           0 NTot=          32
 NSgBfM=   284   284   284   284   284 MxSgAt=     6 MxSgA2=     6.
 Leave Link  302 at Wed Aug 26 12:29:41 2020, MaxMem=  2097152000 cpu:         2.0
 (Enter /opt/cluster/programs/g09/g09_d.01/g09/l303.exe)
 DipDrv:  MaxL=1.
 Leave Link  303 at Wed Aug 26 12:29:41 2020, MaxMem=  2097152000 cpu:         0.2
 (Enter /opt/cluster/programs/g09/g09_d.01/g09/l401.exe)
 ExpMin= 7.60D-02 ExpMax= 1.17D+05 ExpMxC= 1.13D+03 IAcc=2 IRadAn=         4 AccDes= 0.00D+00
 Harris functional with IExCor=  419 and IRadAn=       4 diagonalized for initial guess.
 HarFok:  IExCor=  419 AccDes= 0.00D+00 IRadAn=         4 IDoV= 1 UseB2=F ITyADJ=14
 ICtDFT=  3500011 ScaDFX=  1.000000  1.000000  1.000000  1.000000
 FoFCou: FMM=F IPFlag=           0 FMFlag=      100000 FMFlg1=           0
         NFxFlg=           0 DoJE=T BraDBF=F KetDBF=T FulRan=T
         wScrn=  0.000000 ICntrl=     500 IOpCl=  0 I1Cent=   200000004 NGrid=           0
         NMat0=    1 NMatS0=      1 NMatT0=    0 NMatD0=    1 NMtDS0=    0 NMtDT0=    0
 Petite list used in FoFCou.
 Harris En= -115.787212257650    
 JPrj=0 DoOrth=F DoCkMO=F.
 Leave Link  401 at Wed Aug 26 12:29:42 2020, MaxMem=  2097152000 cpu:         3.6
 (Enter /opt/cluster/programs/g09/g09_d.01/g09/l502.exe)
 Closed shell SCF:
 Using DIIS extrapolation, IDIIS=  1040.
 Integral symmetry usage will be decided dynamically.
 Keep R1 ints in memory in canonical form, NReq=389840494.
 IVT=      264814 IEndB=      264814 NGot=  2097152000 MDV=  1718885927
 LenX=  1718885927 LenY=  1718804830
 Requested convergence on RMS density matrix=1.00D-08 within 128 cycles.
 Requested convergence on MAX density matrix=1.00D-06.
 Requested convergence on             energy=1.00D-06.
 No special actions if energy rises.
 FoFCou: FMM=F IPFlag=           0 FMFlag=           0 FMFlg1=           0
         NFxFlg=           0 DoJE=F BraDBF=F KetDBF=F FulRan=T
         wScrn=  0.000000 ICntrl=     600 IOpCl=  0 I1Cent=           0 NGrid=           0
         NMat0=    1 NMatS0=  27495 NMatT0=    0 NMatD0=    1 NMtDS0=    0 NMtDT0=    0
 Symmetry not used in FoFCou.
 Integral accuracy reduced to 1.0D-05 until final iterations.

 Cycle   1  Pass 0  IDiag  1:
 E= -115.366237999144    
 DIIS: error= 3.55D-02 at cycle   1 NSaved=   1.
 NSaved= 1 IEnMin= 1 EnMin= -115.366237999144     IErMin= 1 ErrMin= 3.55D-02
 ErrMax= 3.55D-02  0.00D+00 EMaxC= 1.00D-01 BMatC= 1.89D-01 BMatP= 1.89D-01
 IDIUse=3 WtCom= 6.45D-01 WtEn= 3.55D-01
 Coeff-Com:  0.100D+01
 Coeff-En:   0.100D+01
 Coeff:      0.100D+01
 Gap=     0.273 Goal=   None    Shift=    0.000
 GapD=    0.273 DampG=1.000 DampE=0.500 DampFc=0.5000 IDamp=-1.
 Damping current iteration by 5.00D-01
 RMSDP=1.46D-03 MaxDP=4.75D-02              OVMax= 1.62D-01

 Cycle   2  Pass 0  IDiag  1:
 E= -115.425097082016     Delta-E=       -0.058859082872 Rises=F Damp=T
 DIIS: error= 9.51D-03 at cycle   2 NSaved=   2.
 NSaved= 2 IEnMin= 2 EnMin= -115.425097082016     IErMin= 2 ErrMin= 9.51D-03
 ErrMax= 9.51D-03  0.00D+00 EMaxC= 1.00D-01 BMatC= 2.14D-02 BMatP= 1.89D-01
 IDIUse=3 WtCom= 9.05D-01 WtEn= 9.51D-02
 Coeff-Com: -0.115D+00 0.111D+01
 Coeff-En:   0.000D+00 0.100D+01
 Coeff:     -0.104D+00 0.110D+01
 Gap=     0.390 Goal=   None    Shift=    0.000
 RMSDP=4.10D-04 MaxDP=1.23D-02 DE=-5.89D-02 OVMax= 1.04D-01

 Cycle   3  Pass 0  IDiag  1:
 E= -115.481245427125     Delta-E=       -0.056148345108 Rises=F Damp=F
 DIIS: error= 4.86D-03 at cycle   3 NSaved=   3.
 NSaved= 3 IEnMin= 3 EnMin= -115.481245427125     IErMin= 3 ErrMin= 4.86D-03
 ErrMax= 4.86D-03  0.00D+00 EMaxC= 1.00D-01 BMatC= 9.19D-03 BMatP= 2.14D-02
 IDIUse=3 WtCom= 9.51D-01 WtEn= 4.86D-02
 Coeff-Com: -0.146D+00 0.460D+00 0.686D+00
 Coeff-En:   0.000D+00 0.000D+00 0.100D+01
 Coeff:     -0.139D+00 0.437D+00 0.701D+00
 Gap=     0.373 Goal=   None    Shift=    0.000
 RMSDP=1.86D-04 MaxDP=7.81D-03 DE=-5.61D-02 OVMax= 2.80D-02

 Cycle   4  Pass 0  IDiag  1:
 E= -115.486777457822     Delta-E=       -0.005532030697 Rises=F Damp=F
 DIIS: error= 2.38D-03 at cycle   4 NSaved=   4.
 NSaved= 4 IEnMin= 4 EnMin= -115.486777457822     IErMin= 4 ErrMin= 2.38D-03
 ErrMax= 2.38D-03  0.00D+00 EMaxC= 1.00D-01 BMatC= 1.15D-03 BMatP= 9.19D-03
 IDIUse=3 WtCom= 9.76D-01 WtEn= 2.38D-02
 Coeff-Com: -0.489D-01 0.877D-01 0.318D+00 0.644D+00
 Coeff-En:   0.000D+00 0.000D+00 0.344D-01 0.966D+00
 Coeff:     -0.478D-01 0.856D-01 0.311D+00 0.651D+00
 Gap=     0.372 Goal=   None    Shift=    0.000
 RMSDP=5.52D-05 MaxDP=2.02D-03 DE=-5.53D-03 OVMax= 9.03D-03

 Cycle   5  Pass 0  IDiag  1:
 E= -115.487622051000     Delta-E=       -0.000844593178 Rises=F Damp=F
 DIIS: error= 2.27D-04 at cycle   5 NSaved=   5.
 NSaved= 5 IEnMin= 5 EnMin= -115.487622051000     IErMin= 5 ErrMin= 2.27D-04
 ErrMax= 2.27D-04  0.00D+00 EMaxC= 1.00D-01 BMatC= 8.72D-06 BMatP= 1.15D-03
 IDIUse=3 WtCom= 9.98D-01 WtEn= 2.27D-03
 Coeff-Com: -0.513D-02 0.355D-02 0.425D-01 0.137D+00 0.822D+00
 Coeff-En:   0.000D+00 0.000D+00 0.000D+00 0.000D+00 0.100D+01
 Coeff:     -0.512D-02 0.354D-02 0.424D-01 0.137D+00 0.822D+00
 Gap=     0.373 Goal=   None    Shift=    0.000
 RMSDP=8.41D-06 MaxDP=2.37D-04 DE=-8.45D-04 OVMax= 7.51D-04

 Initial convergence to 1.0D-05 achieved.  Increase integral accuracy.
 Cycle   6  Pass 1  IDiag  1:
 E= -115.487635156320     Delta-E=       -0.000013105320 Rises=F Damp=F
 DIIS: error= 2.48D-05 at cycle   1 NSaved=   1.
 NSaved= 1 IEnMin= 1 EnMin= -115.487635156320     IErMin= 1 ErrMin= 2.48D-05
 ErrMax= 2.48D-05  0.00D+00 EMaxC= 1.00D-01 BMatC= 2.19D-07 BMatP= 2.19D-07
 IDIUse=1 WtCom= 1.00D+00 WtEn= 0.00D+00
 Coeff-Com:  0.100D+01
 Coeff:      0.100D+01
 Gap=     0.373 Goal=   None    Shift=    0.000
 RMSDP=8.41D-06 MaxDP=2.37D-04 DE=-1.31D-05 OVMax= 2.47D-04

 Cycle   7  Pass 1  IDiag  1:
 E= -115.487635559571     Delta-E=       -0.000000403251 Rises=F Damp=F
 DIIS: error= 1.35D-05 at cycle   2 NSaved=   2.
 NSaved= 2 IEnMin= 2 EnMin= -115.487635559571     IErMin= 2 ErrMin= 1.35D-05
 ErrMax= 1.35D-05  0.00D+00 EMaxC= 1.00D-01 BMatC= 4.38D-08 BMatP= 2.19D-07
 IDIUse=1 WtCom= 1.00D+00 WtEn= 0.00D+00
 Coeff-Com:  0.131D+00 0.869D+00
 Coeff:      0.131D+00 0.869D+00
 Gap=     0.373 Goal=   None    Shift=    0.000
 RMSDP=7.88D-07 MaxDP=4.03D-05 DE=-4.03D-07 OVMax= 1.62D-04

 Cycle   8  Pass 1  IDiag  1:
 E= -115.487635595336     Delta-E=       -0.000000035764 Rises=F Damp=F
 DIIS: error= 1.02D-05 at cycle   3 NSaved=   3.
 NSaved= 3 IEnMin= 3 EnMin= -115.487635595336     IErMin= 3 ErrMin= 1.02D-05
 ErrMax= 1.02D-05  0.00D+00 EMaxC= 1.00D-01 BMatC= 3.67D-08 BMatP= 4.38D-08
 IDIUse=1 WtCom= 1.00D+00 WtEn= 0.00D+00
 Coeff-Com: -0.155D+00 0.506D+00 0.649D+00
 Coeff:     -0.155D+00 0.506D+00 0.649D+00
 Gap=     0.373 Goal=   None    Shift=    0.000
 RMSDP=4.81D-07 MaxDP=2.24D-05 DE=-3.58D-08 OVMax= 6.07D-05

 Cycle   9  Pass 1  IDiag  1:
 E= -115.487635624315     Delta-E=       -0.000000028980 Rises=F Damp=F
 DIIS: error= 1.90D-06 at cycle   4 NSaved=   4.
 NSaved= 4 IEnMin= 4 EnMin= -115.487635624315     IErMin= 4 ErrMin= 1.90D-06
 ErrMax= 1.90D-06  0.00D+00 EMaxC= 1.00D-01 BMatC= 4.79D-10 BMatP= 3.67D-08
 IDIUse=1 WtCom= 1.00D+00 WtEn= 0.00D+00
 Coeff-Com: -0.466D-01 0.501D-01 0.134D+00 0.863D+00
 Coeff:     -0.466D-01 0.501D-01 0.134D+00 0.863D+00
 Gap=     0.373 Goal=   None    Shift=    0.000
 RMSDP=8.91D-08 MaxDP=2.99D-06 DE=-2.90D-08 OVMax= 1.54D-05

 Cycle  10  Pass 1  IDiag  1:
 E= -115.487635624934     Delta-E=       -0.000000000618 Rises=F Damp=F
 DIIS: error= 6.02D-07 at cycle   5 NSaved=   5.
 NSaved= 5 IEnMin= 5 EnMin= -115.487635624934     IErMin= 5 ErrMin= 6.02D-07
 ErrMax= 6.02D-07  0.00D+00 EMaxC= 1.00D-01 BMatC= 4.07D-11 BMatP= 4.79D-10
 IDIUse=1 WtCom= 1.00D+00 WtEn= 0.00D+00
 Coeff-Com: -0.505D-02-0.784D-02 0.232D-02 0.241D+00 0.769D+00
 Coeff:     -0.505D-02-0.784D-02 0.232D-02 0.241D+00 0.769D+00
 Gap=     0.373 Goal=   None    Shift=    0.000
 RMSDP=1.92D-08 MaxDP=6.39D-07 DE=-6.18D-10 OVMax= 2.59D-06

 Cycle  11  Pass 1  IDiag  1:
 E= -115.487635624971     Delta-E=       -0.000000000037 Rises=F Damp=F
 DIIS: error= 1.68D-07 at cycle   6 NSaved=   6.
 NSaved= 6 IEnMin= 6 EnMin= -115.487635624971     IErMin= 6 ErrMin= 1.68D-07
 ErrMax= 1.68D-07  0.00D+00 EMaxC= 1.00D-01 BMatC= 3.03D-12 BMatP= 4.07D-11
 IDIUse=1 WtCom= 1.00D+00 WtEn= 0.00D+00
 Coeff-Com:  0.322D-02-0.788D-02-0.151D-01-0.876D-02 0.197D+00 0.832D+00
 Coeff:      0.322D-02-0.788D-02-0.151D-01-0.876D-02 0.197D+00 0.832D+00
 Gap=     0.373 Goal=   None    Shift=    0.000
 RMSDP=6.08D-09 MaxDP=1.86D-07 DE=-3.69D-11 OVMax= 7.47D-07

 SCF Done:  E(RB2PLYPD3) =  -115.487635625     A.U. after   11 cycles
            NFock= 11  Conv=0.61D-08     -V/T= 2.0017
 KE= 1.152956936135D+02 PE=-3.520500978837D+02 EE= 8.106800249638D+01
 Leave Link  502 at Wed Aug 26 12:29:58 2020, MaxMem=  2097152000 cpu:        71.2
 (Enter /opt/cluster/programs/g09/g09_d.01/g09/l801.exe)
 DoSCS=T DFT=T ScalE2(SS,OS)=  0.270000  0.270000
 ExpMin= 7.60D-02 ExpMax= 1.17D+05 ExpMxC= 1.13D+03 IAcc=3 IRadAn=         5 AccDes= 0.00D+00
 HarFok:  IExCor=  205 AccDes= 0.00D+00 IRadAn=         5 IDoV=-2 UseB2=F ITyADJ=14
 ICtDFT= 12500011 ScaDFX=  1.000000  1.000000  1.000000  1.000000
 Largest valence mixing into a core orbital is  1.04D-04
 Largest core mixing into a valence orbital is  1.35D-05
 Range of M.O.s used for correlation:     3   234
 NBasis=   234 NAE=     9 NBE=     9 NFC=     2 NFV=     0
 NROrb=    232 NOA=     7 NOB=     7 NVA=   225 NVB=   225

 **** Warning!!: The largest alpha MO coefficient is  0.27390583D+02

 Leave Link  801 at Wed Aug 26 12:29:58 2020, MaxMem=  2097152000 cpu:         0.7
 (Enter /opt/cluster/programs/g09/g09_d.01/g09/l906.exe)
 DoSCS=T DFT=T ScalE2(SS,OS)=  0.270000  0.270000
 FulOut=F Deriv=F AODrv=F NAtomX=     6
   MMem=        3646  MDisk=           7 MDiskD=           7
  W3Min=      447300 MinDsk=     1090093 NBas6D=         284
 NBas2D=       41310    NTT=       40470    LW2=     4508827
    MDV=  2096872296 MDiskM=       16391 NBas2p=       41304
 Fully in-core method, ICMem=  1722292712.
 IMap=   1   2   3   4   5   6   7
 JobTyp=1 Pass  1 fully in-core, NPsUse=  8.
 Compute canonical integrals.
 FoFCou: FMM=F IPFlag=           0 FMFlag=           0 FMFlg1=           0
         NFxFlg=           0 DoJE=F BraDBF=F KetDBF=F FulRan=T
         wScrn=  0.000000 ICntrl=     600 IOpCl=  1 I1Cent=           0 NGrid=           0
         NMat0=    1 NMatS0=  41310 NMatT0=    0 NMatD0=    1 NMtDS0=    0 NMtDT0=    0
 Symmetry not used in FoFCou.
 Spin components of T(2) and E(2):
     alpha-alpha T2 =       0.2283091352D-01 E2=     -0.1730689904D-01
     alpha-beta  T2 =       0.1450974858D+00 E2=     -0.1174923943D+00
     beta-beta   T2 =       0.2283091352D-01 E2=     -0.1730689904D-01
 The integrals were generated   1 times.
 E2(B2PLYPD3) =    -0.1521061924D+00 E(B2PLYPD3) =    -0.11563974181736D+03
 Leave Link  906 at Wed Aug 26 12:30:14 2020, MaxMem=  2097152000 cpu:       127.0
 (Enter /opt/cluster/programs/g09/g09_d.01/g09/l601.exe)
 Copying SCF densities to generalized density rwf, IOpCl= 0 IROHF=0.

 **********************************************************************

            Population analysis using the SCF density.

 **********************************************************************

 Orbital symmetries:
       Occupied  (A) (A) (A) (A) (A) (A) (A) (A) (A)
       Virtual   (A) (A) (A) (A) (A) (A) (A) (A) (A) (A) (A) (A)
                 (A) (A) (A) (A) (A) (A) (A) (A) (A) (A) (A) (A)
                 (A) (A) (A) (A) (A) (A) (A) (A) (A) (A) (A) (A)
                 (A) (A) (A) (A) (A) (A) (A) (A) (A) (A) (A) (A)
                 (A) (A) (A) (A) (A) (A) (A) (A) (A) (A) (A) (A)
                 (A) (A) (A) (A) (A) (A) (A) (A) (A) (A) (A) (A)
                 (A) (A) (A) (A) (A) (A) (A) (A) (A) (A) (A) (A)
                 (A) (A) (A) (A) (A) (A) (A) (A) (A) (A) (A) (A)
                 (A) (A) (A) (A) (A) (A) (A) (A) (A) (A) (A) (A)
                 (A) (A) (A) (A) (A) (A) (A) (A) (A) (A) (A) (A)
                 (A) (A) (A) (A) (A) (A) (A) (A) (A) (A) (A) (A)
                 (A) (A) (A) (A) (A) (A) (A) (A) (A) (A) (A) (A)
                 (A) (A) (A) (A) (A) (A) (A) (A) (A) (A) (A) (A)
                 (A) (A) (A) (A) (A) (A) (A) (A) (A) (A) (A) (A)
                 (A) (A) (A) (A) (A) (A) (A) (A) (A) (A) (A) (A)
                 (A) (A) (A) (A) (A) (A) (A) (A) (A) (A) (A) (A)
                 (A) (A) (A) (A) (A) (A) (A) (A) (A) (A) (A) (A)
                 (A) (A) (A) (A) (A) (A) (A) (A) (A) (A) (A) (A)
                 (A) (A) (A) (A) (A) (A) (A) (A) (A)
 The electronic state is 1-A.
 Alpha  occ. eigenvalues --  -19.74425 -10.62549  -1.12596  -0.79714  -0.56597
 Alpha  occ. eigenvalues --   -0.53122  -0.48337  -0.41065  -0.35299
 Alpha virt. eigenvalues --    0.01993   0.07784   0.12299   0.12913   0.14956
 Alpha virt. eigenvalues --    0.17494   0.18076   0.25663   0.29610   0.33457
 Alpha virt. eigenvalues --    0.34130   0.38718   0.39709   0.42981   0.45217
 Alpha virt. eigenvalues --    0.47616   0.52547   0.55210   0.58899   0.66181
 Alpha virt. eigenvalues --    0.70200   0.74483   0.76976   0.78716   0.79525
 Alpha virt. eigenvalues --    0.82604   0.85117   0.89318   0.92075   0.93125
 Alpha virt. eigenvalues --    0.99758   1.00389   1.01931   1.07989   1.10710
 Alpha virt. eigenvalues --    1.12108   1.16910   1.20537   1.33588   1.39770
 Alpha virt. eigenvalues --    1.43870   1.47670   1.51752   1.52719   1.55607
 Alpha virt. eigenvalues --    1.75689   1.79417   1.83468   1.84722   1.85606
 Alpha virt. eigenvalues --    1.87642   1.93221   1.95665   1.97355   2.04567
 Alpha virt. eigenvalues --    2.07023   2.14580   2.15856   2.18373   2.22236
 Alpha virt. eigenvalues --    2.24828   2.26755   2.30689   2.34148   2.37555
 Alpha virt. eigenvalues --    2.41594   2.53783   2.55893   2.57030   2.59847
 Alpha virt. eigenvalues --    2.62308   2.64405   2.69320   2.71248   2.74643
 Alpha virt. eigenvalues --    2.77891   2.84551   2.92346   2.94654   3.03334
 Alpha virt. eigenvalues --    3.06326   3.12985   3.15810   3.22240   3.23549
 Alpha virt. eigenvalues --    3.36189   3.40663   3.45368   3.49544   3.54946
 Alpha virt. eigenvalues --    3.64548   3.72232   3.82795   3.85824   3.92009
 Alpha virt. eigenvalues --    4.04451   4.08020   4.10383   4.11239   4.16087
 Alpha virt. eigenvalues --    4.16846   4.26664   4.30968   4.31748   4.39739
 Alpha virt. eigenvalues --    4.43509   4.54682   4.64528   4.71207   5.08418
 Alpha virt. eigenvalues --    5.16716   5.33990   5.47349   5.50987   5.62900
 Alpha virt. eigenvalues --    5.66706   5.70056   5.77033   5.78771   5.83408
 Alpha virt. eigenvalues --    5.92221   5.93673   6.05172   6.12456   6.14388
 Alpha virt. eigenvalues --    6.16172   6.25656   6.27803   6.31498   6.32953
 Alpha virt. eigenvalues --    6.40804   6.43330   6.48538   6.54678   6.57866
 Alpha virt. eigenvalues --    6.60507   6.65160   6.73387   6.80712   6.81347
 Alpha virt. eigenvalues --    6.88742   6.89380   6.90605   6.98509   7.03232
 Alpha virt. eigenvalues --    7.14221   7.26498   7.29379   7.37740   7.44894
 Alpha virt. eigenvalues --    7.60320   7.64627   7.65448   7.68364   7.70504
 Alpha virt. eigenvalues --    7.77442   7.81132   7.82509   7.85693   7.91631
 Alpha virt. eigenvalues --    7.96883   8.02619   8.08115   8.09101   8.20613
 Alpha virt. eigenvalues --    8.22158   8.27983   8.38455   8.39863   8.47250
 Alpha virt. eigenvalues --    8.51230   8.53393   8.55642   8.58850   8.62492
 Alpha virt. eigenvalues --    8.68749   8.71044   8.78408   8.83077   8.88736
 Alpha virt. eigenvalues --    9.00819   9.06086   9.14480   9.27429   9.35111
 Alpha virt. eigenvalues --    9.49333   9.61107   9.63891   9.71241   9.86027
 Alpha virt. eigenvalues --    9.92440  10.04018  10.17029  10.18391  10.24441
 Alpha virt. eigenvalues --   10.32357  10.36240  10.49251  10.61318  10.77059
 Alpha virt. eigenvalues --   10.82636  10.91258  11.08386  11.09521  11.21968
 Alpha virt. eigenvalues --   11.30263  11.67657  11.68927  11.78267  11.82644
 Alpha virt. eigenvalues --   11.96188  12.18897  12.29362  12.63386  12.70790
 Alpha virt. eigenvalues --   12.78437  12.82813  13.24861  13.64892  14.14013
 Alpha virt. eigenvalues --   14.57193  29.54061  48.52624 149.23881 254.25345
          Condensed to atoms (all electrons):
               1          2          3          4          5          6
     1  C    4.384688   0.261382   0.451084   0.444472   0.406219  -0.050173
     2  O    0.261382   8.058971  -0.043926  -0.033014  -0.043555   0.290149
     3  H    0.451084  -0.043926   0.674443  -0.076636  -0.037188  -0.008905
     4  H    0.444472  -0.033014  -0.076636   0.675340  -0.042178  -0.011037
     5  H    0.406219  -0.043555  -0.037188  -0.042178   0.644036   0.013316
     6  H   -0.050173   0.290149  -0.008905  -0.011037   0.013316   0.522501
 Mulliken charges:
               1
     1  C    0.102329
     2  O   -0.490009
     3  H    0.041129
     4  H    0.043052
     5  H    0.059350
     6  H    0.244148
 Sum of Mulliken charges =   0.00000
 Mulliken charges with hydrogens summed into heavy atoms:
               1
     1  C    0.245860
     2  O   -0.245860
 Electronic spatial extent (au):  <R**2>=             83.8092
 Charge=              0.0000 electrons
 Dipole moment (field-independent basis, Debye):
    X=              1.1318    Y=              1.7628    Z=             -0.0533  Tot=              2.0955
 Quadrupole moment (field-independent basis, Debye-Ang):
   XX=            -13.4016   YY=            -11.4502   ZZ=            -13.9228
   XY=             -2.1643   XZ=             -0.0245   YZ=             -0.0843
 Traceless Quadrupole moment (field-independent basis, Debye-Ang):
   XX=             -0.4768   YY=              1.4747   ZZ=             -0.9979
   XY=             -2.1643   XZ=             -0.0245   YZ=             -0.0843
 Octapole moment (field-independent basis, Debye-Ang**2):
  XXX=             -1.9716  YYY=              1.5128  ZZZ=             -0.0448  XYY=             -1.9712
  XXY=              2.4586  XXZ=             -0.1096  XZZ=              0.1102  YZZ=              0.4563
  YYZ=             -0.1005  XYZ=             -0.0325
 Hexadecapole moment (field-independent basis, Debye-Ang**3):
 XXXX=            -63.0776 YYYY=            -20.4565 ZZZZ=            -18.2129 XXXY=             -2.5592
 XXXZ=             -0.2381 YYYX=             -2.9951 YYYZ=             -0.2221 ZZZX=             -0.0936
 ZZZY=             -0.0938 XXYY=            -12.2984 XXZZ=            -14.3558 YYZZ=             -6.9100
 XXYZ=             -0.1663 YYXZ=             -0.0675 ZZXY=              0.2836
 N-N= 4.019876614879D+01 E-N=-3.520501080313D+02  KE= 1.152956936135D+02
 Leave Link  601 at Wed Aug 26 12:30:14 2020, MaxMem=  2097152000 cpu:         0.3
 (Enter /opt/cluster/programs/g09/g09_d.01/g09/l9999.exe)
 1\1\GINC-NODE14\SP\RB2PLYPD3-FC\def2QZVP\C1H4O1\BOITTIER\26-Aug-2020\0
 \\#p B2PLYPD3/Def2QZVP\\methanol\\0,1\C,0,-5.184834,-1.250025,0.905405
 \O,0,-3.762486,-1.11965,0.882119\H,0,-5.475657,-2.166019,0.584021\H,0,
 -5.661235,-0.621475,0.370654\H,0,-5.443252,-1.165363,1.928237\H,0,-3.5
 79394,-1.214228,-0.324165\\Version=ES64L-G09RevD.01\State=1-A\HF=-115.
 4876356\MP2=-115.6397418\RMSD=6.084e-09\PG=C01 [X(C1H4O1)]\\@


 IT CANNOT BE MY BEAUTY, FOR I HAVE NONE; AND IT CANNOT BE MY WIT,
 FOR HE HAS NOT ENOUGH TO KNOW THAT I HAVE ANY.
 -- CATHARINE SEDLEY, PUZZLED ABOUT WHY SHE WAS MISTRESS TO JAMES II
 Job cpu time:       0 days  0 hours  3 minutes 26.7 seconds.
 File lengths (MBytes):  RWF=     23 Int=      0 D2E=      0 Chk=      4 Scr=      1
 Normal termination of Gaussian 09 at Wed Aug 26 12:30:14 2020.
