 Entering Gaussian System, Link 0=/opt/cluster/programs/g09/g09_d.01/g09//g09
 Input=/home/boittier/MDCM/nms_sampling/methanol_geom.xyz.dir/energies/methanol_2996_energy.com
 Output=/scratch/boittier/methanol_2996_energy/methanol_2996_energy.out
 Initial command:
 /opt/cluster/programs/g09/g09_d.01/g09/l1.exe "/scratch/boittier/methanol_2996_energy/Gau-144478.inp" -scrdir="/scratch/boittier/methanol_2996_energy/"
 Entering Link 1 = /opt/cluster/programs/g09/g09_d.01/g09/l1.exe PID=    144479.
  
 Copyright (c) 1988,1990,1992,1993,1995,1998,2003,2009,2013,
            Gaussian, Inc.  All Rights Reserved.
  
 This is part of the Gaussian(R) 09 program.  It is based on
 the Gaussian(R) 03 system (copyright 2003, Gaussian, Inc.),
 the Gaussian(R) 98 system (copyright 1998, Gaussian, Inc.),
 the Gaussian(R) 94 system (copyright 1995, Gaussian, Inc.),
 the Gaussian 92(TM) system (copyright 1992, Gaussian, Inc.),
 the Gaussian 90(TM) system (copyright 1990, Gaussian, Inc.),
 the Gaussian 88(TM) system (copyright 1988, Gaussian, Inc.),
 the Gaussian 86(TM) system (copyright 1986, Carnegie Mellon
 University), and the Gaussian 82(TM) system (copyright 1983,
 Carnegie Mellon University). Gaussian is a federally registered
 trademark of Gaussian, Inc.
  
 This software contains proprietary and confidential information,
 including trade secrets, belonging to Gaussian, Inc.
  
 This software is provided under written license and may be
 used, copied, transmitted, or stored only in accord with that
 written license.
  
 The following legend is applicable only to US Government
 contracts under FAR:
  
                    RESTRICTED RIGHTS LEGEND
  
 Use, reproduction and disclosure by the US Government is
 subject to restrictions as set forth in subparagraphs (a)
 and (c) of the Commercial Computer Software - Restricted
 Rights clause in FAR 52.227-19.
  
 Gaussian, Inc.
 340 Quinnipiac St., Bldg. 40, Wallingford CT 06492
  
  
 ---------------------------------------------------------------
 Warning -- This program may not be used in any manner that
 competes with the business of Gaussian, Inc. or will provide
 assistance to any competitor of Gaussian, Inc.  The licensee
 of this program is prohibited from giving any competitor of
 Gaussian, Inc. access to this program.  By using this program,
 the user acknowledges that Gaussian, Inc. is engaged in the
 business of creating and licensing software in the field of
 computational chemistry and represents and warrants to the
 licensee that it is not a competitor of Gaussian, Inc. and that
 it will not use this program in any manner prohibited above.
 ---------------------------------------------------------------
  

 Cite this work as:
 Gaussian 09, Revision D.01,
 M. J. Frisch, G. W. Trucks, H. B. Schlegel, G. E. Scuseria, 
 M. A. Robb, J. R. Cheeseman, G. Scalmani, V. Barone, B. Mennucci, 
 G. A. Petersson, H. Nakatsuji, M. Caricato, X. Li, H. P. Hratchian, 
 A. F. Izmaylov, J. Bloino, G. Zheng, J. L. Sonnenberg, M. Hada, 
 M. Ehara, K. Toyota, R. Fukuda, J. Hasegawa, M. Ishida, T. Nakajima, 
 Y. Honda, O. Kitao, H. Nakai, T. Vreven, J. A. Montgomery, Jr., 
 J. E. Peralta, F. Ogliaro, M. Bearpark, J. J. Heyd, E. Brothers, 
 K. N. Kudin, V. N. Staroverov, T. Keith, R. Kobayashi, J. Normand, 
 K. Raghavachari, A. Rendell, J. C. Burant, S. S. Iyengar, J. Tomasi, 
 M. Cossi, N. Rega, J. M. Millam, M. Klene, J. E. Knox, J. B. Cross, 
 V. Bakken, C. Adamo, J. Jaramillo, R. Gomperts, R. E. Stratmann, 
 O. Yazyev, A. J. Austin, R. Cammi, C. Pomelli, J. W. Ochterski, 
 R. L. Martin, K. Morokuma, V. G. Zakrzewski, G. A. Voth, 
 P. Salvador, J. J. Dannenberg, S. Dapprich, A. D. Daniels, 
 O. Farkas, J. B. Foresman, J. V. Ortiz, J. Cioslowski, 
 and D. J. Fox, Gaussian, Inc., Wallingford CT, 2013.
 
 ******************************************
 Gaussian 09:  ES64L-G09RevD.01 24-Apr-2013
                26-Aug-2020 
 ******************************************
 %chk=/home/boittier/MDCM/nms_sampling/methanol_geom.xyz.dir/methanol_2996.chk
 %nproc=8
 Will use up to    8 processors via shared memory.
 %mem=16000MB
 --------------------
 #p B2PLYPD3/Def2QZVP
 --------------------
 1/38=1/1;
 2/12=2,17=6,18=5,40=1/2;
 3/5=45,7=101,11=9,16=1,25=1,30=1,74=-60/1,2,3;
 4//1;
 5/5=2,38=5/2;
 8/10=1/1;
 9/16=-3/6;
 6/7=2,8=2,9=2,10=2/1;
 99/5=1,9=1/99;
 Leave Link    1 at Wed Aug 26 22:18:37 2020, MaxMem=  2097152000 cpu:         0.2
 (Enter /opt/cluster/programs/g09/g09_d.01/g09/l101.exe)
 --------
 methanol
 --------
 Symbolic Z-matrix:
 Charge =  0 Multiplicity = 1
 C                    -5.18768  -1.27322   0.91581 
 O                    -3.74904  -1.11762   0.88629 
 H                    -5.67495  -2.03001   0.65635 
 H                    -5.64082  -0.51753   0.36237 
 H                    -5.5466   -1.16184   1.85329 
 H                    -3.46355  -1.23544  -0.50054 
 
 NAtoms=      6 NQM=        6 NQMF=       0 NMMI=      0 NMMIF=      0
                NMic=       0 NMicF=      0.
                    Isotopes and Nuclear Properties:
 (Nuclear quadrupole moments (NQMom) in fm**2, nuclear magnetic moments (NMagM)
  in nuclear magnetons)

  Atom         1           2           3           4           5           6
 IAtWgt=          12          16           1           1           1           1
 AtmWgt=  12.0000000  15.9949146   1.0078250   1.0078250   1.0078250   1.0078250
 NucSpn=           0           0           1           1           1           1
 AtZEff=   0.0000000   0.0000000   0.0000000   0.0000000   0.0000000   0.0000000
 NQMom=    0.0000000   0.0000000   0.0000000   0.0000000   0.0000000   0.0000000
 NMagM=    0.0000000   0.0000000   2.7928460   2.7928460   2.7928460   2.7928460
 AtZNuc=   6.0000000   8.0000000   1.0000000   1.0000000   1.0000000   1.0000000
 Leave Link  101 at Wed Aug 26 22:18:37 2020, MaxMem=  2097152000 cpu:         0.5
 (Enter /opt/cluster/programs/g09/g09_d.01/g09/l202.exe)
                          Input orientation:                          
 ---------------------------------------------------------------------
 Center     Atomic      Atomic             Coordinates (Angstroms)
 Number     Number       Type             X           Y           Z
 ---------------------------------------------------------------------
      1          6           0       -5.187680   -1.273223    0.915809
      2          8           0       -3.749038   -1.117616    0.886291
      3          1           0       -5.674950   -2.030007    0.656354
      4          1           0       -5.640821   -0.517528    0.362367
      5          1           0       -5.546604   -1.161837    1.853289
      6          1           0       -3.463552   -1.235441   -0.500540
 ---------------------------------------------------------------------
                    Distance matrix (angstroms):
                    1          2          3          4          5
     1  C    0.000000
     2  O    1.447334   0.000000
     3  H    0.936734   2.143470   0.000000
     4  H    1.040533   2.052668   1.541164   0.000000
     5  H    1.010001   2.041638   1.484199   1.626917   0.000000
     6  H    2.231611   1.420804   2.619164   2.449593   3.144047
                    6
     6  H    0.000000
 Stoichiometry    CH4O
 Framework group  C1[X(CH4O)]
 Deg. of freedom    12
 Full point group                 C1      NOp   1
 Largest Abelian subgroup         C1      NOp   1
 Largest concise Abelian subgroup C1      NOp   1
                         Standard orientation:                         
 ---------------------------------------------------------------------
 Center     Atomic      Atomic             Coordinates (Angstroms)
 Number     Number       Type             X           Y           Z
 ---------------------------------------------------------------------
      1          6           0       -0.671494    0.037352   -0.021420
      2          8           0        0.756738   -0.195181    0.007859
      3          1           0       -1.163648    0.414228   -0.723716
      4          1           0       -0.954948    0.625889    0.788511
      5          1           0       -1.183168   -0.826146    0.091108
      6          1           0        1.276818    1.123369   -0.090261
 ---------------------------------------------------------------------
 Rotational constants (GHZ):    120.7984089     24.0072059     22.0862182
 Leave Link  202 at Wed Aug 26 22:18:37 2020, MaxMem=  2097152000 cpu:         0.1
 (Enter /opt/cluster/programs/g09/g09_d.01/g09/l301.exe)
 Standard basis: def2QZVP (5D, 7F)
 Ernie: Thresh=  0.10000D-02 Tol=  0.10000D-05 Strict=F.
 There are   284 symmetry adapted cartesian basis functions of A   symmetry.
 There are   234 symmetry adapted basis functions of A   symmetry.
   234 basis functions,   336 primitive gaussians,   284 cartesian basis functions
     9 alpha electrons        9 beta electrons
       nuclear repulsion energy        39.2592367046 Hartrees.
 IExCor=  419 DFT=T Ex+Corr=B2PLYPD3 ExCW=0 ScaHFX=  0.530000
 ScaDFX=  0.470000  0.470000  0.730000  0.730000 ScalE2=  0.270000  0.270000
 IRadAn=      0 IRanWt=     -1 IRanGd=            0 ICorTp=0 IEmpDi=141
 NAtoms=    6 NActive=    6 NUniq=    6 SFac= 1.00D+00 NAtFMM=   60 NAOKFM=F Big=F
 Integral buffers will be    131072 words long.
 Regular integral format.
 Two-electron integral symmetry is turned on.
 R6Disp:  Grimme-D3(BJ) Dispersion energy=       -0.0015083176 Hartrees.
 Nuclear repulsion after empirical dispersion term =       39.2577283870 Hartrees.
 Leave Link  301 at Wed Aug 26 22:18:38 2020, MaxMem=  2097152000 cpu:         0.4
 (Enter /opt/cluster/programs/g09/g09_d.01/g09/l302.exe)
 NPDir=0 NMtPBC=     1 NCelOv=     1 NCel=       1 NClECP=     1 NCelD=      1
         NCelK=      1 NCelE2=     1 NClLst=     1 CellRange=     0.0.
 One-electron integrals computed using PRISM.
   1 Symmetry operations used in ECPInt.
 ECPInt:  NShTT=    2775 NPrTT=    6207 LenC2=    2773 LenP2D=    5731.
 LDataN:  DoStor=T MaxTD1= 8 Len=  415
 NBasis=   234 RedAO= T EigKep=  7.08D-05  NBF=   234
 NBsUse=   234 1.00D-06 EigRej= -1.00D+00 NBFU=   234
 Precomputing XC quadrature grid using
 IXCGrd= 4 IRadAn=           0 IRanWt=          -1 IRanGd=           0 AccXCQ= 0.00D+00.
 Generated NRdTot=       0 NPtTot=           0 NUsed=           0 NTot=          32
 NSgBfM=   284   284   284   284   284 MxSgAt=     6 MxSgA2=     6.
 Leave Link  302 at Wed Aug 26 22:18:38 2020, MaxMem=  2097152000 cpu:         2.2
 (Enter /opt/cluster/programs/g09/g09_d.01/g09/l303.exe)
 DipDrv:  MaxL=1.
 Leave Link  303 at Wed Aug 26 22:18:38 2020, MaxMem=  2097152000 cpu:         0.2
 (Enter /opt/cluster/programs/g09/g09_d.01/g09/l401.exe)
 ExpMin= 7.60D-02 ExpMax= 1.17D+05 ExpMxC= 1.13D+03 IAcc=2 IRadAn=         4 AccDes= 0.00D+00
 Harris functional with IExCor=  419 and IRadAn=       4 diagonalized for initial guess.
 HarFok:  IExCor=  419 AccDes= 0.00D+00 IRadAn=         4 IDoV= 1 UseB2=F ITyADJ=14
 ICtDFT=  3500011 ScaDFX=  1.000000  1.000000  1.000000  1.000000
 FoFCou: FMM=F IPFlag=           0 FMFlag=      100000 FMFlg1=           0
         NFxFlg=           0 DoJE=T BraDBF=F KetDBF=T FulRan=T
         wScrn=  0.000000 ICntrl=     500 IOpCl=  0 I1Cent=   200000004 NGrid=           0
         NMat0=    1 NMatS0=      1 NMatT0=    0 NMatD0=    1 NMtDS0=    0 NMtDT0=    0
 Petite list used in FoFCou.
 Harris En= -115.743182185360    
 JPrj=0 DoOrth=F DoCkMO=F.
 Leave Link  401 at Wed Aug 26 22:18:39 2020, MaxMem=  2097152000 cpu:         3.9
 (Enter /opt/cluster/programs/g09/g09_d.01/g09/l502.exe)
 Closed shell SCF:
 Using DIIS extrapolation, IDIIS=  1040.
 Integral symmetry usage will be decided dynamically.
 Keep R1 ints in memory in canonical form, NReq=389840494.
 IVT=      264814 IEndB=      264814 NGot=  2097152000 MDV=  1718885927
 LenX=  1718885927 LenY=  1718804830
 Requested convergence on RMS density matrix=1.00D-08 within 128 cycles.
 Requested convergence on MAX density matrix=1.00D-06.
 Requested convergence on             energy=1.00D-06.
 No special actions if energy rises.
 FoFCou: FMM=F IPFlag=           0 FMFlag=           0 FMFlg1=           0
         NFxFlg=           0 DoJE=F BraDBF=F KetDBF=F FulRan=T
         wScrn=  0.000000 ICntrl=     600 IOpCl=  0 I1Cent=           0 NGrid=           0
         NMat0=    1 NMatS0=  27495 NMatT0=    0 NMatD0=    1 NMtDS0=    0 NMtDT0=    0
 Symmetry not used in FoFCou.
 Integral accuracy reduced to 1.0D-05 until final iterations.

 Cycle   1  Pass 0  IDiag  1:
 E= -115.285431342844    
 DIIS: error= 3.42D-02 at cycle   1 NSaved=   1.
 NSaved= 1 IEnMin= 1 EnMin= -115.285431342844     IErMin= 1 ErrMin= 3.42D-02
 ErrMax= 3.42D-02  0.00D+00 EMaxC= 1.00D-01 BMatC= 2.00D-01 BMatP= 2.00D-01
 IDIUse=3 WtCom= 6.58D-01 WtEn= 3.42D-01
 Coeff-Com:  0.100D+01
 Coeff-En:   0.100D+01
 Coeff:      0.100D+01
 Gap=     0.196 Goal=   None    Shift=    0.000
 GapD=    0.196 DampG=1.000 DampE=0.500 DampFc=0.5000 IDamp=-1.
 Damping current iteration by 5.00D-01
 RMSDP=1.69D-03 MaxDP=6.50D-02              OVMax= 2.17D-01

 Cycle   2  Pass 0  IDiag  1:
 E= -115.347791699649     Delta-E=       -0.062360356805 Rises=F Damp=T
 DIIS: error= 1.16D-02 at cycle   2 NSaved=   2.
 NSaved= 2 IEnMin= 2 EnMin= -115.347791699649     IErMin= 2 ErrMin= 1.16D-02
 ErrMax= 1.16D-02  0.00D+00 EMaxC= 1.00D-01 BMatC= 2.52D-02 BMatP= 2.00D-01
 IDIUse=3 WtCom= 8.84D-01 WtEn= 1.16D-01
 Coeff-Com: -0.409D-01 0.104D+01
 Coeff-En:   0.319D-01 0.968D+00
 Coeff:     -0.325D-01 0.103D+01
 Gap=     0.342 Goal=   None    Shift=    0.000
 RMSDP=5.22D-04 MaxDP=1.57D-02 DE=-6.24D-02 OVMax= 1.61D-01

 Cycle   3  Pass 0  IDiag  1:
 E= -115.413286213565     Delta-E=       -0.065494513916 Rises=F Damp=F
 DIIS: error= 7.24D-03 at cycle   3 NSaved=   3.
 NSaved= 3 IEnMin= 3 EnMin= -115.413286213565     IErMin= 3 ErrMin= 7.24D-03
 ErrMax= 7.24D-03  0.00D+00 EMaxC= 1.00D-01 BMatC= 1.63D-02 BMatP= 2.52D-02
 IDIUse=3 WtCom= 9.28D-01 WtEn= 7.24D-02
 Coeff-Com: -0.136D+00 0.503D+00 0.633D+00
 Coeff-En:   0.000D+00 0.000D+00 0.100D+01
 Coeff:     -0.126D+00 0.467D+00 0.659D+00
 Gap=     0.337 Goal=   None    Shift=    0.000
 RMSDP=2.57D-04 MaxDP=1.12D-02 DE=-6.55D-02 OVMax= 4.66D-02

 Cycle   4  Pass 0  IDiag  1:
 E= -115.423920242818     Delta-E=       -0.010634029253 Rises=F Damp=F
 DIIS: error= 2.71D-03 at cycle   4 NSaved=   4.
 NSaved= 4 IEnMin= 4 EnMin= -115.423920242818     IErMin= 4 ErrMin= 2.71D-03
 ErrMax= 2.71D-03  0.00D+00 EMaxC= 1.00D-01 BMatC= 1.85D-03 BMatP= 1.63D-02
 IDIUse=3 WtCom= 9.73D-01 WtEn= 2.71D-02
 Coeff-Com: -0.467D-01 0.833D-01 0.301D+00 0.662D+00
 Coeff-En:   0.000D+00 0.000D+00 0.349D-01 0.965D+00
 Coeff:     -0.454D-01 0.811D-01 0.294D+00 0.670D+00
 Gap=     0.334 Goal=   None    Shift=    0.000
 RMSDP=7.37D-05 MaxDP=2.56D-03 DE=-1.06D-02 OVMax= 1.11D-02

 Cycle   5  Pass 0  IDiag  1:
 E= -115.425269468180     Delta-E=       -0.001349225362 Rises=F Damp=F
 DIIS: error= 2.44D-04 at cycle   5 NSaved=   5.
 NSaved= 5 IEnMin= 5 EnMin= -115.425269468180     IErMin= 5 ErrMin= 2.44D-04
 ErrMax= 2.44D-04  0.00D+00 EMaxC= 1.00D-01 BMatC= 1.42D-05 BMatP= 1.85D-03
 IDIUse=3 WtCom= 9.98D-01 WtEn= 2.44D-03
 Coeff-Com: -0.255D-02-0.410D-02 0.320D-01 0.124D+00 0.850D+00
 Coeff-En:   0.000D+00 0.000D+00 0.000D+00 0.000D+00 0.100D+01
 Coeff:     -0.254D-02-0.409D-02 0.320D-01 0.124D+00 0.851D+00
 Gap=     0.335 Goal=   None    Shift=    0.000
 RMSDP=1.22D-05 MaxDP=2.93D-04 DE=-1.35D-03 OVMax= 1.17D-03

 Cycle   6  Pass 0  IDiag  1:
 E= -115.425283468371     Delta-E=       -0.000014000191 Rises=F Damp=F
 DIIS: error= 5.29D-05 at cycle   6 NSaved=   6.
 NSaved= 6 IEnMin= 6 EnMin= -115.425283468371     IErMin= 6 ErrMin= 5.29D-05
 ErrMax= 5.29D-05  0.00D+00 EMaxC= 1.00D-01 BMatC= 6.27D-07 BMatP= 1.42D-05
 IDIUse=1 WtCom= 1.00D+00 WtEn= 0.00D+00
 Coeff-Com:  0.363D-02-0.547D-02-0.177D-01-0.507D-01-0.139D+00 0.121D+01
 Coeff:      0.363D-02-0.547D-02-0.177D-01-0.507D-01-0.139D+00 0.121D+01
 Gap=     0.335 Goal=   None    Shift=    0.000
 RMSDP=5.30D-06 MaxDP=1.70D-04 DE=-1.40D-05 OVMax= 5.08D-04

 Initial convergence to 1.0D-05 achieved.  Increase integral accuracy.
 Cycle   7  Pass 1  IDiag  1:
 E= -115.425285577208     Delta-E=       -0.000002108837 Rises=F Damp=F
 DIIS: error= 6.21D-06 at cycle   1 NSaved=   1.
 NSaved= 1 IEnMin= 1 EnMin= -115.425285577208     IErMin= 1 ErrMin= 6.21D-06
 ErrMax= 6.21D-06  0.00D+00 EMaxC= 1.00D-01 BMatC= 2.57D-08 BMatP= 2.57D-08
 IDIUse=1 WtCom= 1.00D+00 WtEn= 0.00D+00
 Coeff-Com:  0.100D+01
 Coeff:      0.100D+01
 Gap=     0.335 Goal=   None    Shift=    0.000
 RMSDP=5.30D-06 MaxDP=1.70D-04 DE=-2.11D-06 OVMax= 6.19D-05

 Cycle   8  Pass 1  IDiag  1:
 E= -115.425285594220     Delta-E=       -0.000000017012 Rises=F Damp=F
 DIIS: error= 1.21D-06 at cycle   2 NSaved=   2.
 NSaved= 2 IEnMin= 2 EnMin= -115.425285594220     IErMin= 2 ErrMin= 1.21D-06
 ErrMax= 1.21D-06  0.00D+00 EMaxC= 1.00D-01 BMatC= 5.55D-10 BMatP= 2.57D-08
 IDIUse=1 WtCom= 1.00D+00 WtEn= 0.00D+00
 Coeff-Com: -0.563D-01 0.106D+01
 Coeff:     -0.563D-01 0.106D+01
 Gap=     0.336 Goal=   None    Shift=    0.000
 RMSDP=2.79D-07 MaxDP=8.16D-06 DE=-1.70D-08 OVMax= 2.70D-05

 Cycle   9  Pass 1  IDiag  1:
 E= -115.425285595517     Delta-E=       -0.000000001297 Rises=F Damp=F
 DIIS: error= 1.10D-06 at cycle   3 NSaved=   3.
 NSaved= 3 IEnMin= 3 EnMin= -115.425285595517     IErMin= 3 ErrMin= 1.10D-06
 ErrMax= 1.10D-06  0.00D+00 EMaxC= 1.00D-01 BMatC= 1.97D-10 BMatP= 5.55D-10
 IDIUse=1 WtCom= 1.00D+00 WtEn= 0.00D+00
 Coeff-Com: -0.348D-01 0.322D+00 0.712D+00
 Coeff:     -0.348D-01 0.322D+00 0.712D+00
 Gap=     0.336 Goal=   None    Shift=    0.000
 RMSDP=5.19D-08 MaxDP=2.01D-06 DE=-1.30D-09 OVMax= 5.10D-06

 Cycle  10  Pass 1  IDiag  1:
 E= -115.425285595696     Delta-E=       -0.000000000178 Rises=F Damp=F
 DIIS: error= 4.19D-07 at cycle   4 NSaved=   4.
 NSaved= 4 IEnMin= 4 EnMin= -115.425285595696     IErMin= 4 ErrMin= 4.19D-07
 ErrMax= 4.19D-07  0.00D+00 EMaxC= 1.00D-01 BMatC= 4.85D-11 BMatP= 1.97D-10
 IDIUse=1 WtCom= 1.00D+00 WtEn= 0.00D+00
 Coeff-Com: -0.208D-02-0.930D-01 0.298D+00 0.797D+00
 Coeff:     -0.208D-02-0.930D-01 0.298D+00 0.797D+00
 Gap=     0.336 Goal=   None    Shift=    0.000
 RMSDP=2.80D-08 MaxDP=1.34D-06 DE=-1.78D-10 OVMax= 6.49D-06

 Cycle  11  Pass 1  IDiag  1:
 E= -115.425285595749     Delta-E=       -0.000000000053 Rises=F Damp=F
 DIIS: error= 2.22D-07 at cycle   5 NSaved=   5.
 NSaved= 5 IEnMin= 5 EnMin= -115.425285595749     IErMin= 5 ErrMin= 2.22D-07
 ErrMax= 2.22D-07  0.00D+00 EMaxC= 1.00D-01 BMatC= 1.55D-11 BMatP= 4.85D-11
 IDIUse=1 WtCom= 1.00D+00 WtEn= 0.00D+00
 Coeff-Com:  0.387D-02-0.102D+00 0.396D-01 0.449D+00 0.610D+00
 Coeff:      0.387D-02-0.102D+00 0.396D-01 0.449D+00 0.610D+00
 Gap=     0.336 Goal=   None    Shift=    0.000
 RMSDP=9.01D-09 MaxDP=3.37D-07 DE=-5.33D-11 OVMax= 1.38D-06

 SCF Done:  E(RB2PLYPD3) =  -115.425285596     A.U. after   11 cycles
            NFock= 11  Conv=0.90D-08     -V/T= 2.0020
 KE= 1.151910339649D+02 PE=-3.500323907234D+02 EE= 8.015834277572D+01
 Leave Link  502 at Wed Aug 26 22:18:53 2020, MaxMem=  2097152000 cpu:        73.1
 (Enter /opt/cluster/programs/g09/g09_d.01/g09/l801.exe)
 DoSCS=T DFT=T ScalE2(SS,OS)=  0.270000  0.270000
 ExpMin= 7.60D-02 ExpMax= 1.17D+05 ExpMxC= 1.13D+03 IAcc=3 IRadAn=         5 AccDes= 0.00D+00
 HarFok:  IExCor=  205 AccDes= 0.00D+00 IRadAn=         5 IDoV=-2 UseB2=F ITyADJ=14
 ICtDFT= 12500011 ScaDFX=  1.000000  1.000000  1.000000  1.000000
 Largest valence mixing into a core orbital is  1.03D-04
 Largest core mixing into a valence orbital is  1.34D-05
 Range of M.O.s used for correlation:     3   234
 NBasis=   234 NAE=     9 NBE=     9 NFC=     2 NFV=     0
 NROrb=    232 NOA=     7 NOB=     7 NVA=   225 NVB=   225

 **** Warning!!: The largest alpha MO coefficient is  0.28354776D+02

 Leave Link  801 at Wed Aug 26 22:18:54 2020, MaxMem=  2097152000 cpu:         0.6
 (Enter /opt/cluster/programs/g09/g09_d.01/g09/l906.exe)
 DoSCS=T DFT=T ScalE2(SS,OS)=  0.270000  0.270000
 FulOut=F Deriv=F AODrv=F NAtomX=     6
   MMem=        3646  MDisk=           7 MDiskD=           7
  W3Min=      447300 MinDsk=     1090093 NBas6D=         284
 NBas2D=       41310    NTT=       40470    LW2=     4508827
    MDV=  2096873242 MDiskM=       16391 NBas2p=       41253
 Fully in-core method, ICMem=  1722292712.
 IMap=   1   2   3   4   5   6   7
 JobTyp=1 Pass  1 fully in-core, NPsUse=  8.
 Compute canonical integrals.
 FoFCou: FMM=F IPFlag=           0 FMFlag=           0 FMFlg1=           0
         NFxFlg=           0 DoJE=F BraDBF=F KetDBF=F FulRan=T
         wScrn=  0.000000 ICntrl=     600 IOpCl=  1 I1Cent=           0 NGrid=           0
         NMat0=    1 NMatS0=  41310 NMatT0=    0 NMatD0=    1 NMtDS0=    0 NMtDT0=    0
 Symmetry not used in FoFCou.
 Spin components of T(2) and E(2):
     alpha-alpha T2 =       0.2476709526D-01 E2=     -0.1772456704D-01
     alpha-beta  T2 =       0.1670013448D+00 E2=     -0.1213873697D+00
     beta-beta   T2 =       0.2476709526D-01 E2=     -0.1772456704D-01
 The integrals were generated   1 times.
 E2(B2PLYPD3) =    -0.1568365038D+00 E(B2PLYPD3) =    -0.11558212209952D+03
 Leave Link  906 at Wed Aug 26 22:19:09 2020, MaxMem=  2097152000 cpu:       123.9
 (Enter /opt/cluster/programs/g09/g09_d.01/g09/l601.exe)
 Copying SCF densities to generalized density rwf, IOpCl= 0 IROHF=0.

 **********************************************************************

            Population analysis using the SCF density.

 **********************************************************************

 Orbital symmetries:
       Occupied  (A) (A) (A) (A) (A) (A) (A) (A) (A)
       Virtual   (A) (A) (A) (A) (A) (A) (A) (A) (A) (A) (A) (A)
                 (A) (A) (A) (A) (A) (A) (A) (A) (A) (A) (A) (A)
                 (A) (A) (A) (A) (A) (A) (A) (A) (A) (A) (A) (A)
                 (A) (A) (A) (A) (A) (A) (A) (A) (A) (A) (A) (A)
                 (A) (A) (A) (A) (A) (A) (A) (A) (A) (A) (A) (A)
                 (A) (A) (A) (A) (A) (A) (A) (A) (A) (A) (A) (A)
                 (A) (A) (A) (A) (A) (A) (A) (A) (A) (A) (A) (A)
                 (A) (A) (A) (A) (A) (A) (A) (A) (A) (A) (A) (A)
                 (A) (A) (A) (A) (A) (A) (A) (A) (A) (A) (A) (A)
                 (A) (A) (A) (A) (A) (A) (A) (A) (A) (A) (A) (A)
                 (A) (A) (A) (A) (A) (A) (A) (A) (A) (A) (A) (A)
                 (A) (A) (A) (A) (A) (A) (A) (A) (A) (A) (A) (A)
                 (A) (A) (A) (A) (A) (A) (A) (A) (A) (A) (A) (A)
                 (A) (A) (A) (A) (A) (A) (A) (A) (A) (A) (A) (A)
                 (A) (A) (A) (A) (A) (A) (A) (A) (A) (A) (A) (A)
                 (A) (A) (A) (A) (A) (A) (A) (A) (A) (A) (A) (A)
                 (A) (A) (A) (A) (A) (A) (A) (A) (A) (A) (A) (A)
                 (A) (A) (A) (A) (A) (A) (A) (A) (A) (A) (A) (A)
                 (A) (A) (A) (A) (A) (A) (A) (A) (A)
 The electronic state is 1-A.
 Alpha  occ. eigenvalues --  -19.75974 -10.62269  -1.10827  -0.81115  -0.53830
 Alpha  occ. eigenvalues --   -0.52271  -0.48646  -0.39472  -0.35418
 Alpha virt. eigenvalues --   -0.01867   0.07163   0.12602   0.13016   0.14538
 Alpha virt. eigenvalues --    0.17880   0.18812   0.21820   0.29349   0.32125
 Alpha virt. eigenvalues --    0.34754   0.38563   0.38754   0.41905   0.45301
 Alpha virt. eigenvalues --    0.48575   0.51484   0.54038   0.57007   0.65434
 Alpha virt. eigenvalues --    0.71947   0.75423   0.76057   0.76487   0.79511
 Alpha virt. eigenvalues --    0.81969   0.82753   0.87396   0.87774   0.92587
 Alpha virt. eigenvalues --    0.94354   0.98520   1.01460   1.05756   1.13457
 Alpha virt. eigenvalues --    1.14754   1.17612   1.22667   1.34934   1.36038
 Alpha virt. eigenvalues --    1.41534   1.47475   1.49541   1.61655   1.62381
 Alpha virt. eigenvalues --    1.70679   1.73043   1.77695   1.80753   1.83282
 Alpha virt. eigenvalues --    1.86922   1.94096   1.94608   1.95594   2.04122
 Alpha virt. eigenvalues --    2.04634   2.08793   2.13941   2.17327   2.19139
 Alpha virt. eigenvalues --    2.21387   2.25574   2.27714   2.29261   2.33088
 Alpha virt. eigenvalues --    2.38793   2.46628   2.47602   2.51346   2.54127
 Alpha virt. eigenvalues --    2.56642   2.62971   2.63641   2.68362   2.70668
 Alpha virt. eigenvalues --    2.74382   2.88752   2.89593   2.94197   2.97662
 Alpha virt. eigenvalues --    3.07327   3.14767   3.16750   3.19473   3.30204
 Alpha virt. eigenvalues --    3.35287   3.39070   3.45128   3.46097   3.51598
 Alpha virt. eigenvalues --    3.66819   3.72479   3.76412   3.83231   3.88099
 Alpha virt. eigenvalues --    3.95135   3.99526   4.04738   4.13448   4.15593
 Alpha virt. eigenvalues --    4.22082   4.25379   4.26875   4.30768   4.37662
 Alpha virt. eigenvalues --    4.38587   4.50706   4.65336   4.70638   5.04716
 Alpha virt. eigenvalues --    5.21030   5.22693   5.47734   5.50057   5.52621
 Alpha virt. eigenvalues --    5.56828   5.66661   5.73878   5.77520   5.83418
 Alpha virt. eigenvalues --    5.85526   5.89372   5.96667   5.99035   6.04544
 Alpha virt. eigenvalues --    6.07366   6.17288   6.19251   6.27623   6.33620
 Alpha virt. eigenvalues --    6.35227   6.39670   6.41130   6.45783   6.50866
 Alpha virt. eigenvalues --    6.52452   6.59287   6.62942   6.64656   6.71792
 Alpha virt. eigenvalues --    6.76882   6.83057   6.86911   6.89535   6.96908
 Alpha virt. eigenvalues --    7.07296   7.09598   7.26613   7.39065   7.44376
 Alpha virt. eigenvalues --    7.53837   7.58327   7.60598   7.64543   7.69168
 Alpha virt. eigenvalues --    7.75447   7.75770   7.80676   7.84150   7.90227
 Alpha virt. eigenvalues --    7.99046   8.03343   8.06186   8.14755   8.16422
 Alpha virt. eigenvalues --    8.18179   8.28975   8.32180   8.38247   8.41925
 Alpha virt. eigenvalues --    8.43870   8.50543   8.52949   8.53276   8.53334
 Alpha virt. eigenvalues --    8.57910   8.68941   8.72653   8.84372   8.95164
 Alpha virt. eigenvalues --    9.01115   9.02474   9.10167   9.23081   9.25158
 Alpha virt. eigenvalues --    9.26432   9.34030   9.40439   9.60548   9.71008
 Alpha virt. eigenvalues --    9.76030   9.82944   9.93558  10.13742  10.27755
 Alpha virt. eigenvalues --   10.31233  10.46155  10.50989  10.57448  10.62708
 Alpha virt. eigenvalues --   10.83605  10.92445  11.05292  11.19608  11.26644
 Alpha virt. eigenvalues --   11.42806  11.55359  11.66741  11.71081  11.79301
 Alpha virt. eigenvalues --   11.97728  12.11235  12.21929  12.37841  12.53909
 Alpha virt. eigenvalues --   12.64198  12.81361  12.94576  13.20501  13.68778
 Alpha virt. eigenvalues --   14.38329  29.59654  48.38437 149.31120 254.09029
          Condensed to atoms (all electrons):
               1          2          3          4          5          6
     1  C    4.380546   0.270806   0.416432   0.462531   0.405799  -0.036282
     2  O    0.270806   8.057669  -0.020159  -0.050110  -0.032617   0.252539
     3  H    0.416432  -0.020159   0.707905  -0.079641  -0.060756  -0.011008
     4  H    0.462531  -0.050110  -0.079641   0.678655  -0.040958  -0.009848
     5  H    0.405799  -0.032617  -0.060756  -0.040958   0.665698   0.011671
     6  H   -0.036282   0.252539  -0.011008  -0.009848   0.011671   0.552731
 Mulliken charges:
               1
     1  C    0.100169
     2  O   -0.478129
     3  H    0.047228
     4  H    0.039371
     5  H    0.051163
     6  H    0.240198
 Sum of Mulliken charges =   0.00000
 Mulliken charges with hydrogens summed into heavy atoms:
               1
     1  C    0.237931
     2  O   -0.237931
 Electronic spatial extent (au):  <R**2>=             87.6755
 Charge=              0.0000 electrons
 Dipole moment (field-independent basis, Debye):
    X=             -1.0660    Y=              1.7741    Z=             -0.1875  Tot=              2.0782
 Quadrupole moment (field-independent basis, Debye-Ang):
   XX=            -12.5423   YY=            -11.6107   ZZ=            -14.1896
   XY=              2.6102   XZ=              0.0423   YZ=             -0.1393
 Traceless Quadrupole moment (field-independent basis, Debye-Ang):
   XX=              0.2386   YY=              1.1702   ZZ=             -1.4087
   XY=              2.6102   XZ=              0.0423   YZ=             -0.1393
 Octapole moment (field-independent basis, Debye-Ang**2):
  XXX=              1.5095  YYY=              1.5962  ZZZ=             -0.1167  XYY=              2.5987
  XXY=              2.9347  XXZ=             -0.5395  XZZ=             -0.2456  YZZ=              0.1411
  YYZ=             -0.1119  XYZ=             -0.2405
 Hexadecapole moment (field-independent basis, Debye-Ang**3):
 XXXX=            -65.3148 YYYY=            -21.8525 ZZZZ=            -18.6150 XXXY=              4.0075
 XXXZ=              0.6659 YYYX=              3.6859 YYYZ=             -0.3541 ZZZX=              0.4453
 ZZZY=              0.0644 XXYY=            -12.2116 XXZZ=            -15.2673 YYZZ=             -7.2601
 XXYZ=             -0.4710 YYXZ=             -0.2214 ZZXY=             -0.2831
 N-N= 3.925772838703D+01 E-N=-3.500324018444D+02  KE= 1.151910339649D+02
 Leave Link  601 at Wed Aug 26 22:19:09 2020, MaxMem=  2097152000 cpu:         0.3
 (Enter /opt/cluster/programs/g09/g09_d.01/g09/l9999.exe)
 1\1\GINC-NODE14\SP\RB2PLYPD3-FC\def2QZVP\C1H4O1\BOITTIER\26-Aug-2020\0
 \\#p B2PLYPD3/Def2QZVP\\methanol\\0,1\C,0,-5.18768,-1.273223,0.915809\
 O,0,-3.749038,-1.117616,0.886291\H,0,-5.67495,-2.030007,0.656354\H,0,-
 5.640821,-0.517528,0.362367\H,0,-5.546604,-1.161837,1.853289\H,0,-3.46
 3552,-1.235441,-0.50054\\Version=ES64L-G09RevD.01\State=1-A\HF=-115.42
 52856\MP2=-115.5821221\RMSD=9.009e-09\PG=C01 [X(C1H4O1)]\\@


 "MATHEMATICS IS THE ART OF GIVING THE SAME NAME
 TO DIFFERENT THINGS."
                    - H. POINCARE
 Job cpu time:       0 days  0 hours  3 minutes 26.4 seconds.
 File lengths (MBytes):  RWF=     23 Int=      0 D2E=      0 Chk=      4 Scr=      1
 Normal termination of Gaussian 09 at Wed Aug 26 22:19:09 2020.
