 Entering Gaussian System, Link 0=/opt/cluster/programs/g09/g09_d.01/g09//g09
 Input=/home/boittier/MDCM/nms_sampling/methanol_geom.xyz.dir/energies/methanol_3416_energy.com
 Output=/scratch/boittier/methanol_3416_energy/methanol_3416_energy.out
 Initial command:
 /opt/cluster/programs/g09/g09_d.01/g09/l1.exe "/scratch/boittier/methanol_3416_energy/Gau-98867.inp" -scrdir="/scratch/boittier/methanol_3416_energy/"
 Entering Link 1 = /opt/cluster/programs/g09/g09_d.01/g09/l1.exe PID=     98868.
  
 Copyright (c) 1988,1990,1992,1993,1995,1998,2003,2009,2013,
            Gaussian, Inc.  All Rights Reserved.
  
 This is part of the Gaussian(R) 09 program.  It is based on
 the Gaussian(R) 03 system (copyright 2003, Gaussian, Inc.),
 the Gaussian(R) 98 system (copyright 1998, Gaussian, Inc.),
 the Gaussian(R) 94 system (copyright 1995, Gaussian, Inc.),
 the Gaussian 92(TM) system (copyright 1992, Gaussian, Inc.),
 the Gaussian 90(TM) system (copyright 1990, Gaussian, Inc.),
 the Gaussian 88(TM) system (copyright 1988, Gaussian, Inc.),
 the Gaussian 86(TM) system (copyright 1986, Carnegie Mellon
 University), and the Gaussian 82(TM) system (copyright 1983,
 Carnegie Mellon University). Gaussian is a federally registered
 trademark of Gaussian, Inc.
  
 This software contains proprietary and confidential information,
 including trade secrets, belonging to Gaussian, Inc.
  
 This software is provided under written license and may be
 used, copied, transmitted, or stored only in accord with that
 written license.
  
 The following legend is applicable only to US Government
 contracts under FAR:
  
                    RESTRICTED RIGHTS LEGEND
  
 Use, reproduction and disclosure by the US Government is
 subject to restrictions as set forth in subparagraphs (a)
 and (c) of the Commercial Computer Software - Restricted
 Rights clause in FAR 52.227-19.
  
 Gaussian, Inc.
 340 Quinnipiac St., Bldg. 40, Wallingford CT 06492
  
  
 ---------------------------------------------------------------
 Warning -- This program may not be used in any manner that
 competes with the business of Gaussian, Inc. or will provide
 assistance to any competitor of Gaussian, Inc.  The licensee
 of this program is prohibited from giving any competitor of
 Gaussian, Inc. access to this program.  By using this program,
 the user acknowledges that Gaussian, Inc. is engaged in the
 business of creating and licensing software in the field of
 computational chemistry and represents and warrants to the
 licensee that it is not a competitor of Gaussian, Inc. and that
 it will not use this program in any manner prohibited above.
 ---------------------------------------------------------------
  

 Cite this work as:
 Gaussian 09, Revision D.01,
 M. J. Frisch, G. W. Trucks, H. B. Schlegel, G. E. Scuseria, 
 M. A. Robb, J. R. Cheeseman, G. Scalmani, V. Barone, B. Mennucci, 
 G. A. Petersson, H. Nakatsuji, M. Caricato, X. Li, H. P. Hratchian, 
 A. F. Izmaylov, J. Bloino, G. Zheng, J. L. Sonnenberg, M. Hada, 
 M. Ehara, K. Toyota, R. Fukuda, J. Hasegawa, M. Ishida, T. Nakajima, 
 Y. Honda, O. Kitao, H. Nakai, T. Vreven, J. A. Montgomery, Jr., 
 J. E. Peralta, F. Ogliaro, M. Bearpark, J. J. Heyd, E. Brothers, 
 K. N. Kudin, V. N. Staroverov, T. Keith, R. Kobayashi, J. Normand, 
 K. Raghavachari, A. Rendell, J. C. Burant, S. S. Iyengar, J. Tomasi, 
 M. Cossi, N. Rega, J. M. Millam, M. Klene, J. E. Knox, J. B. Cross, 
 V. Bakken, C. Adamo, J. Jaramillo, R. Gomperts, R. E. Stratmann, 
 O. Yazyev, A. J. Austin, R. Cammi, C. Pomelli, J. W. Ochterski, 
 R. L. Martin, K. Morokuma, V. G. Zakrzewski, G. A. Voth, 
 P. Salvador, J. J. Dannenberg, S. Dapprich, A. D. Daniels, 
 O. Farkas, J. B. Foresman, J. V. Ortiz, J. Cioslowski, 
 and D. J. Fox, Gaussian, Inc., Wallingford CT, 2013.
 
 ******************************************
 Gaussian 09:  ES64L-G09RevD.01 24-Apr-2013
                26-Aug-2020 
 ******************************************
 %chk=/home/boittier/MDCM/nms_sampling/methanol_geom.xyz.dir/methanol_3416.chk
 %nproc=8
 Will use up to    8 processors via shared memory.
 %mem=16000MB
 --------------------
 #p B2PLYPD3/Def2QZVP
 --------------------
 1/38=1/1;
 2/12=2,17=6,18=5,40=1/2;
 3/5=45,7=101,11=9,16=1,25=1,30=1,74=-60/1,2,3;
 4//1;
 5/5=2,38=5/2;
 8/10=1/1;
 9/16=-3/6;
 6/7=2,8=2,9=2,10=2/1;
 99/5=1,9=1/99;
 Leave Link    1 at Wed Aug 26 23:46:12 2020, MaxMem=  2097152000 cpu:         1.9
 (Enter /opt/cluster/programs/g09/g09_d.01/g09/l101.exe)
 --------
 methanol
 --------
 Symbolic Z-matrix:
 Charge =  0 Multiplicity = 1
 C                    -5.18086  -1.2554    0.908 
 O                    -3.77878  -1.12764   0.85001 
 H                    -5.53546  -2.19862   0.63669 
 H                    -5.59994  -0.42789   0.28545 
 H                    -5.42579  -1.17649   2.06793 
 H                    -3.37685  -1.18085   0.06544 
 
 NAtoms=      6 NQM=        6 NQMF=       0 NMMI=      0 NMMIF=      0
                NMic=       0 NMicF=      0.
                    Isotopes and Nuclear Properties:
 (Nuclear quadrupole moments (NQMom) in fm**2, nuclear magnetic moments (NMagM)
  in nuclear magnetons)

  Atom         1           2           3           4           5           6
 IAtWgt=          12          16           1           1           1           1
 AtmWgt=  12.0000000  15.9949146   1.0078250   1.0078250   1.0078250   1.0078250
 NucSpn=           0           0           1           1           1           1
 AtZEff=   0.0000000   0.0000000   0.0000000   0.0000000   0.0000000   0.0000000
 NQMom=    0.0000000   0.0000000   0.0000000   0.0000000   0.0000000   0.0000000
 NMagM=    0.0000000   0.0000000   2.7928460   2.7928460   2.7928460   2.7928460
 AtZNuc=   6.0000000   8.0000000   1.0000000   1.0000000   1.0000000   1.0000000
 Leave Link  101 at Wed Aug 26 23:46:13 2020, MaxMem=  2097152000 cpu:         0.5
 (Enter /opt/cluster/programs/g09/g09_d.01/g09/l202.exe)
                          Input orientation:                          
 ---------------------------------------------------------------------
 Center     Atomic      Atomic             Coordinates (Angstroms)
 Number     Number       Type             X           Y           Z
 ---------------------------------------------------------------------
      1          6           0       -5.180859   -1.255402    0.907996
      2          8           0       -3.778779   -1.127644    0.850009
      3          1           0       -5.535463   -2.198622    0.636687
      4          1           0       -5.599938   -0.427886    0.285453
      5          1           0       -5.425786   -1.176486    2.067930
      6          1           0       -3.376853   -1.180852    0.065440
 ---------------------------------------------------------------------
                    Distance matrix (angstroms):
                    1          2          3          4          5
     1  C    0.000000
     2  O    1.409082   0.000000
     3  H    1.043560   2.068439   0.000000
     4  H    1.117126   2.031011   1.806385   0.000000
     5  H    1.188135   2.048987   1.762171   1.941122   0.000000
     6  H    1.992460   0.883133   2.453931   2.357429   2.864980
                    6
     6  H    0.000000
 Stoichiometry    CH4O
 Framework group  C1[X(CH4O)]
 Deg. of freedom    12
 Full point group                 C1      NOp   1
 Largest Abelian subgroup         C1      NOp   1
 Largest concise Abelian subgroup C1      NOp   1
                         Standard orientation:                         
 ---------------------------------------------------------------------
 Center     Atomic      Atomic             Coordinates (Angstroms)
 Number     Number       Type             X           Y           Z
 ---------------------------------------------------------------------
      1          6           0       -0.670326   -0.044745    0.008013
      2          8           0        0.729811    0.110853   -0.022337
      3          1           0       -1.058361   -0.236479    0.957583
      4          1           0       -0.916902   -0.836726   -0.740275
      5          1           0       -1.082444    1.036831   -0.260345
      6          1           0        1.241176   -0.581979    0.173658
 ---------------------------------------------------------------------
 Rotational constants (GHZ):    128.2909574     25.0916829     24.1610872
 Leave Link  202 at Wed Aug 26 23:46:13 2020, MaxMem=  2097152000 cpu:         0.0
 (Enter /opt/cluster/programs/g09/g09_d.01/g09/l301.exe)
 Standard basis: def2QZVP (5D, 7F)
 Ernie: Thresh=  0.10000D-02 Tol=  0.10000D-05 Strict=F.
 There are   284 symmetry adapted cartesian basis functions of A   symmetry.
 There are   234 symmetry adapted basis functions of A   symmetry.
   234 basis functions,   336 primitive gaussians,   284 cartesian basis functions
     9 alpha electrons        9 beta electrons
       nuclear repulsion energy        40.6583110060 Hartrees.
 IExCor=  419 DFT=T Ex+Corr=B2PLYPD3 ExCW=0 ScaHFX=  0.530000
 ScaDFX=  0.470000  0.470000  0.730000  0.730000 ScalE2=  0.270000  0.270000
 IRadAn=      0 IRanWt=     -1 IRanGd=            0 ICorTp=0 IEmpDi=141
 NAtoms=    6 NActive=    6 NUniq=    6 SFac= 1.00D+00 NAtFMM=   60 NAOKFM=F Big=F
 Integral buffers will be    131072 words long.
 Regular integral format.
 Two-electron integral symmetry is turned on.
 R6Disp:  Grimme-D3(BJ) Dispersion energy=       -0.0013051168 Hartrees.
 Nuclear repulsion after empirical dispersion term =       40.6570058892 Hartrees.
 Leave Link  301 at Wed Aug 26 23:46:13 2020, MaxMem=  2097152000 cpu:         0.5
 (Enter /opt/cluster/programs/g09/g09_d.01/g09/l302.exe)
 NPDir=0 NMtPBC=     1 NCelOv=     1 NCel=       1 NClECP=     1 NCelD=      1
         NCelK=      1 NCelE2=     1 NClLst=     1 CellRange=     0.0.
 One-electron integrals computed using PRISM.
   1 Symmetry operations used in ECPInt.
 ECPInt:  NShTT=    2775 NPrTT=    6207 LenC2=    2774 LenP2D=    5736.
 LDataN:  DoStor=T MaxTD1= 8 Len=  415
 NBasis=   234 RedAO= T EigKep=  1.25D-04  NBF=   234
 NBsUse=   234 1.00D-06 EigRej= -1.00D+00 NBFU=   234
 Precomputing XC quadrature grid using
 IXCGrd= 4 IRadAn=           0 IRanWt=          -1 IRanGd=           0 AccXCQ= 0.00D+00.
 Generated NRdTot=       0 NPtTot=           0 NUsed=           0 NTot=          32
 NSgBfM=   284   284   284   284   284 MxSgAt=     6 MxSgA2=     6.
 Leave Link  302 at Wed Aug 26 23:46:13 2020, MaxMem=  2097152000 cpu:         1.8
 (Enter /opt/cluster/programs/g09/g09_d.01/g09/l303.exe)
 DipDrv:  MaxL=1.
 Leave Link  303 at Wed Aug 26 23:46:13 2020, MaxMem=  2097152000 cpu:         0.2
 (Enter /opt/cluster/programs/g09/g09_d.01/g09/l401.exe)
 ExpMin= 7.60D-02 ExpMax= 1.17D+05 ExpMxC= 1.13D+03 IAcc=2 IRadAn=         4 AccDes= 0.00D+00
 Harris functional with IExCor=  419 and IRadAn=       4 diagonalized for initial guess.
 HarFok:  IExCor=  419 AccDes= 0.00D+00 IRadAn=         4 IDoV= 1 UseB2=F ITyADJ=14
 ICtDFT=  3500011 ScaDFX=  1.000000  1.000000  1.000000  1.000000
 FoFCou: FMM=F IPFlag=           0 FMFlag=      100000 FMFlg1=           0
         NFxFlg=           0 DoJE=T BraDBF=F KetDBF=T FulRan=T
         wScrn=  0.000000 ICntrl=     500 IOpCl=  0 I1Cent=   200000004 NGrid=           0
         NMat0=    1 NMatS0=      1 NMatT0=    0 NMatD0=    1 NMtDS0=    0 NMtDT0=    0
 Petite list used in FoFCou.
 Harris En= -115.804981235522    
 JPrj=0 DoOrth=F DoCkMO=F.
 Leave Link  401 at Wed Aug 26 23:46:14 2020, MaxMem=  2097152000 cpu:         3.2
 (Enter /opt/cluster/programs/g09/g09_d.01/g09/l502.exe)
 Closed shell SCF:
 Using DIIS extrapolation, IDIIS=  1040.
 Integral symmetry usage will be decided dynamically.
 Keep R1 ints in memory in canonical form, NReq=389840494.
 IVT=      264814 IEndB=      264814 NGot=  2097152000 MDV=  1718885927
 LenX=  1718885927 LenY=  1718804830
 Requested convergence on RMS density matrix=1.00D-08 within 128 cycles.
 Requested convergence on MAX density matrix=1.00D-06.
 Requested convergence on             energy=1.00D-06.
 No special actions if energy rises.
 FoFCou: FMM=F IPFlag=           0 FMFlag=           0 FMFlg1=           0
         NFxFlg=           0 DoJE=F BraDBF=F KetDBF=F FulRan=T
         wScrn=  0.000000 ICntrl=     600 IOpCl=  0 I1Cent=           0 NGrid=           0
         NMat0=    1 NMatS0=  27495 NMatT0=    0 NMatD0=    1 NMtDS0=    0 NMtDT0=    0
 Symmetry not used in FoFCou.
 Integral accuracy reduced to 1.0D-05 until final iterations.

 Cycle   1  Pass 0  IDiag  1:
 E= -115.431835340545    
 DIIS: error= 2.37D-02 at cycle   1 NSaved=   1.
 NSaved= 1 IEnMin= 1 EnMin= -115.431835340545     IErMin= 1 ErrMin= 2.37D-02
 ErrMax= 2.37D-02  0.00D+00 EMaxC= 1.00D-01 BMatC= 1.91D-01 BMatP= 1.91D-01
 IDIUse=3 WtCom= 7.63D-01 WtEn= 2.37D-01
 Coeff-Com:  0.100D+01
 Coeff-En:   0.100D+01
 Coeff:      0.100D+01
 Gap=     0.332 Goal=   None    Shift=    0.000
 GapD=    0.332 DampG=1.000 DampE=0.500 DampFc=0.5000 IDamp=-1.
 Damping current iteration by 5.00D-01
 RMSDP=1.41D-03 MaxDP=5.14D-02              OVMax= 1.51D-01

 Cycle   2  Pass 0  IDiag  1:
 E= -115.482393622442     Delta-E=       -0.050558281897 Rises=F Damp=T
 DIIS: error= 1.16D-02 at cycle   2 NSaved=   2.
 NSaved= 2 IEnMin= 2 EnMin= -115.482393622442     IErMin= 2 ErrMin= 1.16D-02
 ErrMax= 1.16D-02  0.00D+00 EMaxC= 1.00D-01 BMatC= 1.84D-02 BMatP= 1.91D-01
 IDIUse=3 WtCom= 8.84D-01 WtEn= 1.16D-01
 Coeff-Com: -0.110D+00 0.111D+01
 Coeff-En:   0.000D+00 0.100D+01
 Coeff:     -0.971D-01 0.110D+01
 Gap=     0.428 Goal=   None    Shift=    0.000
 RMSDP=3.65D-04 MaxDP=9.76D-03 DE=-5.06D-02 OVMax= 8.81D-02

 Cycle   3  Pass 0  IDiag  1:
 E= -115.533254530961     Delta-E=       -0.050860908519 Rises=F Damp=F
 DIIS: error= 4.51D-03 at cycle   3 NSaved=   3.
 NSaved= 3 IEnMin= 3 EnMin= -115.533254530961     IErMin= 3 ErrMin= 4.51D-03
 ErrMax= 4.51D-03  0.00D+00 EMaxC= 1.00D-01 BMatC= 3.64D-03 BMatP= 1.84D-02
 IDIUse=3 WtCom= 9.55D-01 WtEn= 4.51D-02
 Coeff-Com: -0.122D+00 0.294D+00 0.828D+00
 Coeff-En:   0.000D+00 0.000D+00 0.100D+01
 Coeff:     -0.117D+00 0.281D+00 0.835D+00
 Gap=     0.408 Goal=   None    Shift=    0.000
 RMSDP=1.13D-04 MaxDP=4.29D-03 DE=-5.09D-02 OVMax= 1.32D-02

 Cycle   4  Pass 0  IDiag  1:
 E= -115.535282491819     Delta-E=       -0.002027960859 Rises=F Damp=F
 DIIS: error= 1.41D-03 at cycle   4 NSaved=   4.
 NSaved= 4 IEnMin= 4 EnMin= -115.535282491819     IErMin= 4 ErrMin= 1.41D-03
 ErrMax= 1.41D-03  0.00D+00 EMaxC= 1.00D-01 BMatC= 3.89D-04 BMatP= 3.64D-03
 IDIUse=3 WtCom= 9.86D-01 WtEn= 1.41D-02
 Coeff-Com: -0.435D-01 0.762D-01 0.353D+00 0.614D+00
 Coeff-En:   0.000D+00 0.000D+00 0.000D+00 0.100D+01
 Coeff:     -0.429D-01 0.752D-01 0.348D+00 0.620D+00
 Gap=     0.407 Goal=   None    Shift=    0.000
 RMSDP=3.51D-05 MaxDP=1.70D-03 DE=-2.03D-03 OVMax= 5.20D-03

 Cycle   5  Pass 0  IDiag  1:
 E= -115.535596219429     Delta-E=       -0.000313727610 Rises=F Damp=F
 DIIS: error= 1.54D-04 at cycle   5 NSaved=   5.
 NSaved= 5 IEnMin= 5 EnMin= -115.535596219429     IErMin= 5 ErrMin= 1.54D-04
 ErrMax= 1.54D-04  0.00D+00 EMaxC= 1.00D-01 BMatC= 5.80D-06 BMatP= 3.89D-04
 IDIUse=3 WtCom= 9.98D-01 WtEn= 1.54D-03
 Coeff-Com: -0.693D-02 0.883D-02 0.614D-01 0.170D+00 0.766D+00
 Coeff-En:   0.000D+00 0.000D+00 0.000D+00 0.000D+00 0.100D+01
 Coeff:     -0.691D-02 0.882D-02 0.613D-01 0.170D+00 0.767D+00
 Gap=     0.407 Goal=   None    Shift=    0.000
 RMSDP=6.83D-06 MaxDP=1.98D-04 DE=-3.14D-04 OVMax= 4.90D-04

 Initial convergence to 1.0D-05 achieved.  Increase integral accuracy.
 Cycle   6  Pass 1  IDiag  1:
 E= -115.535602849470     Delta-E=       -0.000006630041 Rises=F Damp=F
 DIIS: error= 1.52D-05 at cycle   1 NSaved=   1.
 NSaved= 1 IEnMin= 1 EnMin= -115.535602849470     IErMin= 1 ErrMin= 1.52D-05
 ErrMax= 1.52D-05  0.00D+00 EMaxC= 1.00D-01 BMatC= 6.92D-08 BMatP= 6.92D-08
 IDIUse=1 WtCom= 1.00D+00 WtEn= 0.00D+00
 Coeff-Com:  0.100D+01
 Coeff:      0.100D+01
 Gap=     0.407 Goal=   None    Shift=    0.000
 RMSDP=6.83D-06 MaxDP=1.98D-04 DE=-6.63D-06 OVMax= 1.02D-04

 Cycle   7  Pass 1  IDiag  1:
 E= -115.535602939831     Delta-E=       -0.000000090362 Rises=F Damp=F
 DIIS: error= 3.60D-06 at cycle   2 NSaved=   2.
 NSaved= 2 IEnMin= 2 EnMin= -115.535602939831     IErMin= 2 ErrMin= 3.60D-06
 ErrMax= 3.60D-06  0.00D+00 EMaxC= 1.00D-01 BMatC= 4.03D-09 BMatP= 6.92D-08
 IDIUse=1 WtCom= 1.00D+00 WtEn= 0.00D+00
 Coeff-Com: -0.337D-01 0.103D+01
 Coeff:     -0.337D-01 0.103D+01
 Gap=     0.407 Goal=   None    Shift=    0.000
 RMSDP=5.45D-07 MaxDP=1.33D-05 DE=-9.04D-08 OVMax= 3.52D-05

 Cycle   8  Pass 1  IDiag  1:
 E= -115.535602946409     Delta-E=       -0.000000006577 Rises=F Damp=F
 DIIS: error= 2.81D-06 at cycle   3 NSaved=   3.
 NSaved= 3 IEnMin= 3 EnMin= -115.535602946409     IErMin= 3 ErrMin= 2.81D-06
 ErrMax= 2.81D-06  0.00D+00 EMaxC= 1.00D-01 BMatC= 1.41D-09 BMatP= 4.03D-09
 IDIUse=1 WtCom= 1.00D+00 WtEn= 0.00D+00
 Coeff-Com: -0.728D-01 0.334D+00 0.739D+00
 Coeff:     -0.728D-01 0.334D+00 0.739D+00
 Gap=     0.407 Goal=   None    Shift=    0.000
 RMSDP=1.28D-07 MaxDP=4.23D-06 DE=-6.58D-09 OVMax= 1.23D-05

 Cycle   9  Pass 1  IDiag  1:
 E= -115.535602947628     Delta-E=       -0.000000001220 Rises=F Damp=F
 DIIS: error= 8.19D-07 at cycle   4 NSaved=   4.
 NSaved= 4 IEnMin= 4 EnMin= -115.535602947628     IErMin= 4 ErrMin= 8.19D-07
 ErrMax= 8.19D-07  0.00D+00 EMaxC= 1.00D-01 BMatC= 2.02D-10 BMatP= 1.41D-09
 IDIUse=1 WtCom= 1.00D+00 WtEn= 0.00D+00
 Coeff-Com: -0.229D-01-0.462D-03 0.288D+00 0.736D+00
 Coeff:     -0.229D-01-0.462D-03 0.288D+00 0.736D+00
 Gap=     0.407 Goal=   None    Shift=    0.000
 RMSDP=4.53D-08 MaxDP=1.62D-06 DE=-1.22D-09 OVMax= 5.37D-06

 Cycle  10  Pass 1  IDiag  1:
 E= -115.535602947787     Delta-E=       -0.000000000159 Rises=F Damp=F
 DIIS: error= 1.96D-07 at cycle   5 NSaved=   5.
 NSaved= 5 IEnMin= 5 EnMin= -115.535602947787     IErMin= 5 ErrMin= 1.96D-07
 ErrMax= 1.96D-07  0.00D+00 EMaxC= 1.00D-01 BMatC= 8.49D-12 BMatP= 2.02D-10
 IDIUse=1 WtCom= 1.00D+00 WtEn= 0.00D+00
 Coeff-Com: -0.419D-03-0.269D-01 0.260D-01 0.182D+00 0.820D+00
 Coeff:     -0.419D-03-0.269D-01 0.260D-01 0.182D+00 0.820D+00
 Gap=     0.407 Goal=   None    Shift=    0.000
 RMSDP=1.17D-08 MaxDP=3.84D-07 DE=-1.59D-10 OVMax= 1.37D-06

 Cycle  11  Pass 1  IDiag  1:
 E= -115.535602947794     Delta-E=       -0.000000000007 Rises=F Damp=F
 DIIS: error= 7.19D-08 at cycle   6 NSaved=   6.
 NSaved= 6 IEnMin= 6 EnMin= -115.535602947794     IErMin= 6 ErrMin= 7.19D-08
 ErrMax= 7.19D-08  0.00D+00 EMaxC= 1.00D-01 BMatC= 1.32D-12 BMatP= 8.49D-12
 IDIUse=1 WtCom= 1.00D+00 WtEn= 0.00D+00
 Coeff-Com:  0.178D-02-0.116D-01-0.120D-01 0.663D-02 0.316D+00 0.699D+00
 Coeff:      0.178D-02-0.116D-01-0.120D-01 0.663D-02 0.316D+00 0.699D+00
 Gap=     0.407 Goal=   None    Shift=    0.000
 RMSDP=3.38D-09 MaxDP=1.19D-07 DE=-6.99D-12 OVMax= 3.73D-07

 SCF Done:  E(RB2PLYPD3) =  -115.535602948     A.U. after   11 cycles
            NFock= 11  Conv=0.34D-08     -V/T= 2.0023
 KE= 1.152751201374D+02 PE=-3.528848163221D+02 EE= 8.141708734765D+01
 Leave Link  502 at Wed Aug 26 23:46:28 2020, MaxMem=  2097152000 cpu:        72.1
 (Enter /opt/cluster/programs/g09/g09_d.01/g09/l801.exe)
 DoSCS=T DFT=T ScalE2(SS,OS)=  0.270000  0.270000
 ExpMin= 7.60D-02 ExpMax= 1.17D+05 ExpMxC= 1.13D+03 IAcc=3 IRadAn=         5 AccDes= 0.00D+00
 HarFok:  IExCor=  205 AccDes= 0.00D+00 IRadAn=         5 IDoV=-2 UseB2=F ITyADJ=14
 ICtDFT= 12500011 ScaDFX=  1.000000  1.000000  1.000000  1.000000
 Largest valence mixing into a core orbital is  1.18D-04
 Largest core mixing into a valence orbital is  1.48D-05
 Range of M.O.s used for correlation:     3   234
 NBasis=   234 NAE=     9 NBE=     9 NFC=     2 NFV=     0
 NROrb=    232 NOA=     7 NOB=     7 NVA=   225 NVB=   225

 **** Warning!!: The largest alpha MO coefficient is  0.25468276D+02

 Leave Link  801 at Wed Aug 26 23:46:29 2020, MaxMem=  2097152000 cpu:         0.5
 (Enter /opt/cluster/programs/g09/g09_d.01/g09/l906.exe)
 DoSCS=T DFT=T ScalE2(SS,OS)=  0.270000  0.270000
 FulOut=F Deriv=F AODrv=F NAtomX=     6
   MMem=        3646  MDisk=           7 MDiskD=           7
  W3Min=      447300 MinDsk=     1090093 NBas6D=         284
 NBas2D=       41310    NTT=       40470    LW2=     4508827
    MDV=  2096872408 MDiskM=       16391 NBas2p=       41304
 Fully in-core method, ICMem=  1722292712.
 IMap=   1   2   3   4   5   6   7
 JobTyp=1 Pass  1 fully in-core, NPsUse=  8.
 Compute canonical integrals.
 FoFCou: FMM=F IPFlag=           0 FMFlag=           0 FMFlg1=           0
         NFxFlg=           0 DoJE=F BraDBF=F KetDBF=F FulRan=T
         wScrn=  0.000000 ICntrl=     600 IOpCl=  1 I1Cent=           0 NGrid=           0
         NMat0=    1 NMatS0=  41310 NMatT0=    0 NMatD0=    1 NMtDS0=    0 NMtDT0=    0
 Symmetry not used in FoFCou.
 Spin components of T(2) and E(2):
     alpha-alpha T2 =       0.2022190521D-01 E2=     -0.1651655944D-01
     alpha-beta  T2 =       0.1290558125D+00 E2=     -0.1129432122D+00
     beta-beta   T2 =       0.2022190521D-01 E2=     -0.1651655944D-01
 The integrals were generated   1 times.
 E2(B2PLYPD3) =    -0.1459763310D+00 E(B2PLYPD3) =    -0.11568157927883D+03
 Leave Link  906 at Wed Aug 26 23:46:43 2020, MaxMem=  2097152000 cpu:       113.2
 (Enter /opt/cluster/programs/g09/g09_d.01/g09/l601.exe)
 Copying SCF densities to generalized density rwf, IOpCl= 0 IROHF=0.

 **********************************************************************

            Population analysis using the SCF density.

 **********************************************************************

 Orbital symmetries:
       Occupied  (A) (A) (A) (A) (A) (A) (A) (A) (A)
       Virtual   (A) (A) (A) (A) (A) (A) (A) (A) (A) (A) (A) (A)
                 (A) (A) (A) (A) (A) (A) (A) (A) (A) (A) (A) (A)
                 (A) (A) (A) (A) (A) (A) (A) (A) (A) (A) (A) (A)
                 (A) (A) (A) (A) (A) (A) (A) (A) (A) (A) (A) (A)
                 (A) (A) (A) (A) (A) (A) (A) (A) (A) (A) (A) (A)
                 (A) (A) (A) (A) (A) (A) (A) (A) (A) (A) (A) (A)
                 (A) (A) (A) (A) (A) (A) (A) (A) (A) (A) (A) (A)
                 (A) (A) (A) (A) (A) (A) (A) (A) (A) (A) (A) (A)
                 (A) (A) (A) (A) (A) (A) (A) (A) (A) (A) (A) (A)
                 (A) (A) (A) (A) (A) (A) (A) (A) (A) (A) (A) (A)
                 (A) (A) (A) (A) (A) (A) (A) (A) (A) (A) (A) (A)
                 (A) (A) (A) (A) (A) (A) (A) (A) (A) (A) (A) (A)
                 (A) (A) (A) (A) (A) (A) (A) (A) (A) (A) (A) (A)
                 (A) (A) (A) (A) (A) (A) (A) (A) (A) (A) (A) (A)
                 (A) (A) (A) (A) (A) (A) (A) (A) (A) (A) (A) (A)
                 (A) (A) (A) (A) (A) (A) (A) (A) (A) (A) (A) (A)
                 (A) (A) (A) (A) (A) (A) (A) (A) (A) (A) (A) (A)
                 (A) (A) (A) (A) (A) (A) (A) (A) (A) (A) (A) (A)
                 (A) (A) (A) (A) (A) (A) (A) (A) (A)
 The electronic state is 1-A.
 Alpha  occ. eigenvalues --  -19.71187 -10.66577  -1.17503  -0.79494  -0.60040
 Alpha  occ. eigenvalues --   -0.52940  -0.48848  -0.39238  -0.35462
 Alpha virt. eigenvalues --    0.05282   0.08444   0.11922   0.12388   0.14777
 Alpha virt. eigenvalues --    0.16759   0.18143   0.29104   0.32542   0.34071
 Alpha virt. eigenvalues --    0.36173   0.38072   0.39468   0.42177   0.42965
 Alpha virt. eigenvalues --    0.46462   0.53835   0.58234   0.59404   0.66500
 Alpha virt. eigenvalues --    0.70018   0.71798   0.74831   0.78287   0.79993
 Alpha virt. eigenvalues --    0.82319   0.86424   0.88419   0.93489   0.97076
 Alpha virt. eigenvalues --    1.00753   1.03635   1.05295   1.07504   1.10414
 Alpha virt. eigenvalues --    1.11652   1.19005   1.22204   1.27845   1.38427
 Alpha virt. eigenvalues --    1.41001   1.41823   1.44921   1.48201   1.51418
 Alpha virt. eigenvalues --    1.77070   1.81110   1.85219   1.89244   1.91467
 Alpha virt. eigenvalues --    1.94918   1.96971   1.98789   2.01469   2.02535
 Alpha virt. eigenvalues --    2.05296   2.13669   2.15532   2.20635   2.22130
 Alpha virt. eigenvalues --    2.28014   2.29661   2.31118   2.37948   2.40416
 Alpha virt. eigenvalues --    2.44645   2.48865   2.57151   2.60786   2.62985
 Alpha virt. eigenvalues --    2.66199   2.68570   2.70575   2.75660   2.79905
 Alpha virt. eigenvalues --    2.84595   2.87803   2.88954   2.92666   2.94943
 Alpha virt. eigenvalues --    2.97836   3.04978   3.05763   3.13304   3.16652
 Alpha virt. eigenvalues --    3.24959   3.28590   3.31370   3.39706   3.46621
 Alpha virt. eigenvalues --    3.50820   3.62554   3.69358   3.83792   3.88991
 Alpha virt. eigenvalues --    3.91276   3.96673   4.06320   4.08005   4.17195
 Alpha virt. eigenvalues --    4.21438   4.24842   4.32644   4.33913   4.54041
 Alpha virt. eigenvalues --    4.56775   4.69968   4.71923   4.89096   5.21678
 Alpha virt. eigenvalues --    5.36831   5.44654   5.49010   5.57492   5.63447
 Alpha virt. eigenvalues --    5.70923   5.74609   5.81346   5.87773   5.88899
 Alpha virt. eigenvalues --    5.92027   5.96170   6.00235   6.02704   6.06318
 Alpha virt. eigenvalues --    6.11856   6.18166   6.21987   6.26675   6.32373
 Alpha virt. eigenvalues --    6.33551   6.37765   6.44131   6.49922   6.54213
 Alpha virt. eigenvalues --    6.58736   6.67614   6.75204   6.82204   6.91632
 Alpha virt. eigenvalues --    6.93978   7.06123   7.15721   7.18286   7.20297
 Alpha virt. eigenvalues --    7.22379   7.28989   7.32929   7.35299   7.42490
 Alpha virt. eigenvalues --    7.47992   7.51347   7.55901   7.63481   7.67290
 Alpha virt. eigenvalues --    7.70782   7.75783   7.76736   7.80740   7.83049
 Alpha virt. eigenvalues --    7.84639   7.89197   7.91816   7.99936   8.09414
 Alpha virt. eigenvalues --    8.12047   8.24838   8.33476   8.36214   8.40684
 Alpha virt. eigenvalues --    8.44201   8.49354   8.51278   8.55370   8.57323
 Alpha virt. eigenvalues --    8.61448   8.73149   8.77933   8.85969   8.89706
 Alpha virt. eigenvalues --    8.91941   9.03300   9.13751   9.24836   9.39053
 Alpha virt. eigenvalues --    9.45258   9.48415   9.51419   9.57439   9.69118
 Alpha virt. eigenvalues --    9.73986   9.75018   9.92791  10.05103  10.07445
 Alpha virt. eigenvalues --   10.24272  10.34166  10.51782  10.62340  10.72039
 Alpha virt. eigenvalues --   10.99971  11.10975  11.22557  11.46955  11.57664
 Alpha virt. eigenvalues --   11.59508  11.65614  11.92264  12.09918  12.17301
 Alpha virt. eigenvalues --   12.23932  12.44326  12.68155  12.81686  13.00340
 Alpha virt. eigenvalues --   13.14544  13.36717  14.63648  14.74505  14.93757
 Alpha virt. eigenvalues --   17.24402  29.14649  49.04371 148.74140 254.83440
          Condensed to atoms (all electrons):
               1          2          3          4          5          6
     1  C    4.455796   0.260828   0.421502   0.443616   0.396803  -0.044292
     2  O    0.260828   7.973093  -0.043647  -0.061868  -0.040324   0.344080
     3  H    0.421502  -0.043647   0.656025  -0.048502  -0.040899  -0.004915
     4  H    0.443616  -0.061868  -0.048502   0.646942  -0.029492  -0.003587
     5  H    0.396803  -0.040324  -0.040899  -0.029492   0.641082   0.008789
     6  H   -0.044292   0.344080  -0.004915  -0.003587   0.008789   0.510880
 Mulliken charges:
               1
     1  C    0.065748
     2  O   -0.432162
     3  H    0.060436
     4  H    0.052891
     5  H    0.064042
     6  H    0.189044
 Sum of Mulliken charges =   0.00000
 Mulliken charges with hydrogens summed into heavy atoms:
               1
     1  C    0.243118
     2  O   -0.243118
 Electronic spatial extent (au):  <R**2>=             84.1571
 Charge=              0.0000 electrons
 Dipole moment (field-independent basis, Debye):
    X=             -0.6354    Y=             -1.3741    Z=              0.4574  Tot=              1.5815
 Quadrupole moment (field-independent basis, Debye-Ang):
   XX=            -12.5775   YY=            -12.6222   ZZ=            -13.6533
   XY=             -2.1295   XZ=              0.3385   YZ=             -0.1333
 Traceless Quadrupole moment (field-independent basis, Debye-Ang):
   XX=              0.3735   YY=              0.3288   ZZ=             -0.7023
   XY=             -2.1295   XZ=              0.3385   YZ=             -0.1333
 Octapole moment (field-independent basis, Debye-Ang**2):
  XXX=              6.1697  YYY=             -0.4511  ZZZ=              0.8050  XYY=              1.3648
  XXY=             -2.3518  XXZ=              1.1172  XZZ=              0.5452  YZZ=             -0.6587
  YYZ=             -0.2779  XYZ=             -0.3945
 Hexadecapole moment (field-independent basis, Debye-Ang**3):
 XXXX=            -60.4709 YYYY=            -21.7902 ZZZZ=            -19.8744 XXXY=             -4.0315
 XXXZ=              0.2817 YYYX=             -2.3869 YYYZ=             -0.1488 ZZZX=             -0.5204
 ZZZY=              0.0861 XXYY=            -13.3964 XXZZ=            -14.3372 YYZZ=             -6.9838
 XXYZ=             -0.4553 YYXZ=              0.6520 ZZXY=             -0.0491
 N-N= 4.065700588919D+01 E-N=-3.528848257537D+02  KE= 1.152751201374D+02
 Leave Link  601 at Wed Aug 26 23:46:43 2020, MaxMem=  2097152000 cpu:         0.3
 (Enter /opt/cluster/programs/g09/g09_d.01/g09/l9999.exe)
 1\1\GINC-NODE29\SP\RB2PLYPD3-FC\def2QZVP\C1H4O1\BOITTIER\26-Aug-2020\0
 \\#p B2PLYPD3/Def2QZVP\\methanol\\0,1\C,0,-5.180859,-1.255402,0.907996
 \O,0,-3.778779,-1.127644,0.850009\H,0,-5.535463,-2.198622,0.636687\H,0
 ,-5.599938,-0.427886,0.285453\H,0,-5.425786,-1.176486,2.06793\H,0,-3.3
 76853,-1.180852,0.06544\\Version=ES64L-G09RevD.01\State=1-A\HF=-115.53
 56029\MP2=-115.6815793\RMSD=3.378e-09\PG=C01 [X(C1H4O1)]\\@


 THE DIFFERENCE BETWEEN A NOOSE AND A HALO IS ONLY 12 INCHES.
 Job cpu time:       0 days  0 hours  3 minutes 14.9 seconds.
 File lengths (MBytes):  RWF=     23 Int=      0 D2E=      0 Chk=      4 Scr=      1
 Normal termination of Gaussian 09 at Wed Aug 26 23:46:44 2020.
