 Entering Gaussian System, Link 0=/opt/cluster/programs/g09/g09_d.01/g09//g09
 Input=/home/boittier/MDCM/nms_sampling/methanol_geom.xyz.dir/energies/methanol_2632_energy.com
 Output=/scratch/boittier/methanol_2632_energy/methanol_2632_energy.out
 Initial command:
 /opt/cluster/programs/g09/g09_d.01/g09/l1.exe "/scratch/boittier/methanol_2632_energy/Gau-200152.inp" -scrdir="/scratch/boittier/methanol_2632_energy/"
 Entering Link 1 = /opt/cluster/programs/g09/g09_d.01/g09/l1.exe PID=    200156.
  
 Copyright (c) 1988,1990,1992,1993,1995,1998,2003,2009,2013,
            Gaussian, Inc.  All Rights Reserved.
  
 This is part of the Gaussian(R) 09 program.  It is based on
 the Gaussian(R) 03 system (copyright 2003, Gaussian, Inc.),
 the Gaussian(R) 98 system (copyright 1998, Gaussian, Inc.),
 the Gaussian(R) 94 system (copyright 1995, Gaussian, Inc.),
 the Gaussian 92(TM) system (copyright 1992, Gaussian, Inc.),
 the Gaussian 90(TM) system (copyright 1990, Gaussian, Inc.),
 the Gaussian 88(TM) system (copyright 1988, Gaussian, Inc.),
 the Gaussian 86(TM) system (copyright 1986, Carnegie Mellon
 University), and the Gaussian 82(TM) system (copyright 1983,
 Carnegie Mellon University). Gaussian is a federally registered
 trademark of Gaussian, Inc.
  
 This software contains proprietary and confidential information,
 including trade secrets, belonging to Gaussian, Inc.
  
 This software is provided under written license and may be
 used, copied, transmitted, or stored only in accord with that
 written license.
  
 The following legend is applicable only to US Government
 contracts under FAR:
  
                    RESTRICTED RIGHTS LEGEND
  
 Use, reproduction and disclosure by the US Government is
 subject to restrictions as set forth in subparagraphs (a)
 and (c) of the Commercial Computer Software - Restricted
 Rights clause in FAR 52.227-19.
  
 Gaussian, Inc.
 340 Quinnipiac St., Bldg. 40, Wallingford CT 06492
  
  
 ---------------------------------------------------------------
 Warning -- This program may not be used in any manner that
 competes with the business of Gaussian, Inc. or will provide
 assistance to any competitor of Gaussian, Inc.  The licensee
 of this program is prohibited from giving any competitor of
 Gaussian, Inc. access to this program.  By using this program,
 the user acknowledges that Gaussian, Inc. is engaged in the
 business of creating and licensing software in the field of
 computational chemistry and represents and warrants to the
 licensee that it is not a competitor of Gaussian, Inc. and that
 it will not use this program in any manner prohibited above.
 ---------------------------------------------------------------
  

 Cite this work as:
 Gaussian 09, Revision D.01,
 M. J. Frisch, G. W. Trucks, H. B. Schlegel, G. E. Scuseria, 
 M. A. Robb, J. R. Cheeseman, G. Scalmani, V. Barone, B. Mennucci, 
 G. A. Petersson, H. Nakatsuji, M. Caricato, X. Li, H. P. Hratchian, 
 A. F. Izmaylov, J. Bloino, G. Zheng, J. L. Sonnenberg, M. Hada, 
 M. Ehara, K. Toyota, R. Fukuda, J. Hasegawa, M. Ishida, T. Nakajima, 
 Y. Honda, O. Kitao, H. Nakai, T. Vreven, J. A. Montgomery, Jr., 
 J. E. Peralta, F. Ogliaro, M. Bearpark, J. J. Heyd, E. Brothers, 
 K. N. Kudin, V. N. Staroverov, T. Keith, R. Kobayashi, J. Normand, 
 K. Raghavachari, A. Rendell, J. C. Burant, S. S. Iyengar, J. Tomasi, 
 M. Cossi, N. Rega, J. M. Millam, M. Klene, J. E. Knox, J. B. Cross, 
 V. Bakken, C. Adamo, J. Jaramillo, R. Gomperts, R. E. Stratmann, 
 O. Yazyev, A. J. Austin, R. Cammi, C. Pomelli, J. W. Ochterski, 
 R. L. Martin, K. Morokuma, V. G. Zakrzewski, G. A. Voth, 
 P. Salvador, J. J. Dannenberg, S. Dapprich, A. D. Daniels, 
 O. Farkas, J. B. Foresman, J. V. Ortiz, J. Cioslowski, 
 and D. J. Fox, Gaussian, Inc., Wallingford CT, 2013.
 
 ******************************************
 Gaussian 09:  ES64L-G09RevD.01 24-Apr-2013
                26-Aug-2020 
 ******************************************
 %chk=/home/boittier/MDCM/nms_sampling/methanol_geom.xyz.dir/methanol_2632.chk
 %nproc=8
 Will use up to    8 processors via shared memory.
 %mem=16000MB
 --------------------
 #p B2PLYPD3/Def2QZVP
 --------------------
 1/38=1/1;
 2/12=2,17=6,18=5,40=1/2;
 3/5=45,7=101,11=9,16=1,25=1,30=1,74=-60/1,2,3;
 4//1;
 5/5=2,38=5/2;
 8/10=1/1;
 9/16=-3/6;
 6/7=2,8=2,9=2,10=2/1;
 99/5=1,9=1/99;
 Leave Link    1 at Wed Aug 26 20:10:54 2020, MaxMem=  2097152000 cpu:         4.6
 (Enter /opt/cluster/programs/g09/g09_d.01/g09/l101.exe)
 --------
 methanol
 --------
 Symbolic Z-matrix:
 Charge =  0 Multiplicity = 1
 C                    -5.19164  -1.27772   0.90936 
 O                    -3.74276  -1.11882   0.89627 
 H                    -5.52245  -2.04985   0.58684 
 H                    -5.81716  -0.491     0.39593 
 H                    -5.51844  -1.16183   1.7836 
 H                    -3.51781  -1.1721   -0.48159 
 
 NAtoms=      6 NQM=        6 NQMF=       0 NMMI=      0 NMMIF=      0
                NMic=       0 NMicF=      0.
                    Isotopes and Nuclear Properties:
 (Nuclear quadrupole moments (NQMom) in fm**2, nuclear magnetic moments (NMagM)
  in nuclear magnetons)

  Atom         1           2           3           4           5           6
 IAtWgt=          12          16           1           1           1           1
 AtmWgt=  12.0000000  15.9949146   1.0078250   1.0078250   1.0078250   1.0078250
 NucSpn=           0           0           1           1           1           1
 AtZEff=   0.0000000   0.0000000   0.0000000   0.0000000   0.0000000   0.0000000
 NQMom=    0.0000000   0.0000000   0.0000000   0.0000000   0.0000000   0.0000000
 NMagM=    0.0000000   0.0000000   2.7928460   2.7928460   2.7928460   2.7928460
 AtZNuc=   6.0000000   8.0000000   1.0000000   1.0000000   1.0000000   1.0000000
 Leave Link  101 at Wed Aug 26 20:11:02 2020, MaxMem=  2097152000 cpu:         0.4
 (Enter /opt/cluster/programs/g09/g09_d.01/g09/l202.exe)
                          Input orientation:                          
 ---------------------------------------------------------------------
 Center     Atomic      Atomic             Coordinates (Angstroms)
 Number     Number       Type             X           Y           Z
 ---------------------------------------------------------------------
      1          6           0       -5.191642   -1.277715    0.909356
      2          8           0       -3.742759   -1.118817    0.896272
      3          1           0       -5.522452   -2.049848    0.586839
      4          1           0       -5.817164   -0.491003    0.395933
      5          1           0       -5.518436   -1.161830    1.783601
      6          1           0       -3.517812   -1.172097   -0.481593
 ---------------------------------------------------------------------
                    Distance matrix (angstroms):
                    1          2          3          4          5
     1  C    0.000000
     2  O    1.457629   0.000000
     3  H    0.899801   2.032209   0.000000
     4  H    1.128626   2.224330   1.597904   0.000000
     5  H    0.940493   1.985505   1.490245   1.569990   0.000000
     6  H    2.178899   1.397123   2.435277   2.553617   3.022202
                    6
     6  H    0.000000
 Stoichiometry    CH4O
 Framework group  C1[X(CH4O)]
 Deg. of freedom    12
 Full point group                 C1      NOp   1
 Largest Abelian subgroup         C1      NOp   1
 Largest concise Abelian subgroup C1      NOp   1
                         Standard orientation:                         
 ---------------------------------------------------------------------
 Center     Atomic      Atomic             Coordinates (Angstroms)
 Number     Number       Type             X           Y           Z
 ---------------------------------------------------------------------
      1          6           0       -0.674488    0.015216   -0.038675
      2          8           0        0.768822   -0.179196    0.022480
      3          1           0       -1.006781    0.387551   -0.787400
      4          1           0       -1.166552    0.606226    0.787386
      5          1           0       -1.114024   -0.804528    0.100450
      6          1           0        1.183708    1.153028   -0.048225
 ---------------------------------------------------------------------
 Rotational constants (GHZ):    120.5828610     23.8507311     22.1520920
 Leave Link  202 at Wed Aug 26 20:11:05 2020, MaxMem=  2097152000 cpu:         0.0
 (Enter /opt/cluster/programs/g09/g09_d.01/g09/l301.exe)
 Standard basis: def2QZVP (5D, 7F)
 Ernie: Thresh=  0.10000D-02 Tol=  0.10000D-05 Strict=F.
 There are   284 symmetry adapted cartesian basis functions of A   symmetry.
 There are   234 symmetry adapted basis functions of A   symmetry.
   234 basis functions,   336 primitive gaussians,   284 cartesian basis functions
     9 alpha electrons        9 beta electrons
       nuclear repulsion energy        39.3724812242 Hartrees.
 IExCor=  419 DFT=T Ex+Corr=B2PLYPD3 ExCW=0 ScaHFX=  0.530000
 ScaDFX=  0.470000  0.470000  0.730000  0.730000 ScalE2=  0.270000  0.270000
 IRadAn=      0 IRanWt=     -1 IRanGd=            0 ICorTp=0 IEmpDi=141
 NAtoms=    6 NActive=    6 NUniq=    6 SFac= 1.00D+00 NAtFMM=   60 NAOKFM=F Big=F
 Integral buffers will be    131072 words long.
 Regular integral format.
 Two-electron integral symmetry is turned on.
 R6Disp:  Grimme-D3(BJ) Dispersion energy=       -0.0015117003 Hartrees.
 Nuclear repulsion after empirical dispersion term =       39.3709695239 Hartrees.
 Leave Link  301 at Wed Aug 26 20:11:06 2020, MaxMem=  2097152000 cpu:         0.4
 (Enter /opt/cluster/programs/g09/g09_d.01/g09/l302.exe)
 NPDir=0 NMtPBC=     1 NCelOv=     1 NCel=       1 NClECP=     1 NCelD=      1
         NCelK=      1 NCelE2=     1 NClLst=     1 CellRange=     0.0.
 One-electron integrals computed using PRISM.
   1 Symmetry operations used in ECPInt.
 ECPInt:  NShTT=    2775 NPrTT=    6207 LenC2=    2773 LenP2D=    5729.
 LDataN:  DoStor=T MaxTD1= 8 Len=  415
 NBasis=   234 RedAO= T EigKep=  6.05D-05  NBF=   234
 NBsUse=   234 1.00D-06 EigRej= -1.00D+00 NBFU=   234
 Precomputing XC quadrature grid using
 IXCGrd= 4 IRadAn=           0 IRanWt=          -1 IRanGd=           0 AccXCQ= 0.00D+00.
 Generated NRdTot=       0 NPtTot=           0 NUsed=           0 NTot=          32
 NSgBfM=   284   284   284   284   284 MxSgAt=     6 MxSgA2=     6.
 Leave Link  302 at Wed Aug 26 20:11:14 2020, MaxMem=  2097152000 cpu:         2.0
 (Enter /opt/cluster/programs/g09/g09_d.01/g09/l303.exe)
 DipDrv:  MaxL=1.
 Leave Link  303 at Wed Aug 26 20:11:19 2020, MaxMem=  2097152000 cpu:         0.3
 (Enter /opt/cluster/programs/g09/g09_d.01/g09/l401.exe)
 ExpMin= 7.60D-02 ExpMax= 1.17D+05 ExpMxC= 1.13D+03 IAcc=2 IRadAn=         4 AccDes= 0.00D+00
 Harris functional with IExCor=  419 and IRadAn=       4 diagonalized for initial guess.
 HarFok:  IExCor=  419 AccDes= 0.00D+00 IRadAn=         4 IDoV= 1 UseB2=F ITyADJ=14
 ICtDFT=  3500011 ScaDFX=  1.000000  1.000000  1.000000  1.000000
 FoFCou: FMM=F IPFlag=           0 FMFlag=      100000 FMFlg1=           0
         NFxFlg=           0 DoJE=T BraDBF=F KetDBF=T FulRan=T
         wScrn=  0.000000 ICntrl=     500 IOpCl=  0 I1Cent=   200000004 NGrid=           0
         NMat0=    1 NMatS0=      1 NMatT0=    0 NMatD0=    1 NMtDS0=    0 NMtDT0=    0
 Petite list used in FoFCou.
 Harris En= -115.733008638891    
 JPrj=0 DoOrth=F DoCkMO=F.
 Leave Link  401 at Wed Aug 26 20:11:21 2020, MaxMem=  2097152000 cpu:         3.9
 (Enter /opt/cluster/programs/g09/g09_d.01/g09/l502.exe)
 Closed shell SCF:
 Using DIIS extrapolation, IDIIS=  1040.
 Integral symmetry usage will be decided dynamically.
 Keep R1 ints in memory in canonical form, NReq=389840494.
 IVT=      264814 IEndB=      264814 NGot=  2097152000 MDV=  1718885927
 LenX=  1718885927 LenY=  1718804830
 Requested convergence on RMS density matrix=1.00D-08 within 128 cycles.
 Requested convergence on MAX density matrix=1.00D-06.
 Requested convergence on             energy=1.00D-06.
 No special actions if energy rises.
 FoFCou: FMM=F IPFlag=           0 FMFlag=           0 FMFlg1=           0
         NFxFlg=           0 DoJE=F BraDBF=F KetDBF=F FulRan=T
         wScrn=  0.000000 ICntrl=     600 IOpCl=  0 I1Cent=           0 NGrid=           0
         NMat0=    1 NMatS0=  27495 NMatT0=    0 NMatD0=    1 NMtDS0=    0 NMtDT0=    0
 Symmetry not used in FoFCou.
 Integral accuracy reduced to 1.0D-05 until final iterations.

 Cycle   1  Pass 0  IDiag  1:
 E= -115.265961907273    
 DIIS: error= 3.21D-02 at cycle   1 NSaved=   1.
 NSaved= 1 IEnMin= 1 EnMin= -115.265961907273     IErMin= 1 ErrMin= 3.21D-02
 ErrMax= 3.21D-02  0.00D+00 EMaxC= 1.00D-01 BMatC= 2.06D-01 BMatP= 2.06D-01
 IDIUse=3 WtCom= 6.79D-01 WtEn= 3.21D-01
 Coeff-Com:  0.100D+01
 Coeff-En:   0.100D+01
 Coeff:      0.100D+01
 Gap=     0.211 Goal=   None    Shift=    0.000
 GapD=    0.211 DampG=1.000 DampE=0.500 DampFc=0.5000 IDamp=-1.
 Damping current iteration by 5.00D-01
 RMSDP=1.65D-03 MaxDP=6.18D-02              OVMax= 2.06D-01

 Cycle   2  Pass 0  IDiag  1:
 E= -115.332195437130     Delta-E=       -0.066233529857 Rises=F Damp=T
 DIIS: error= 1.02D-02 at cycle   2 NSaved=   2.
 NSaved= 2 IEnMin= 2 EnMin= -115.332195437130     IErMin= 2 ErrMin= 1.02D-02
 ErrMax= 1.02D-02  0.00D+00 EMaxC= 1.00D-01 BMatC= 2.48D-02 BMatP= 2.06D-01
 IDIUse=3 WtCom= 8.98D-01 WtEn= 1.02D-01
 Coeff-Com: -0.649D-01 0.106D+01
 Coeff-En:   0.000D+00 0.100D+01
 Coeff:     -0.583D-01 0.106D+01
 Gap=     0.353 Goal=   None    Shift=    0.000
 RMSDP=4.91D-04 MaxDP=1.48D-02 DE=-6.62D-02 OVMax= 1.50D-01

 Cycle   3  Pass 0  IDiag  1:
 E= -115.397912021600     Delta-E=       -0.065716584471 Rises=F Damp=F
 DIIS: error= 6.99D-03 at cycle   3 NSaved=   3.
 NSaved= 3 IEnMin= 3 EnMin= -115.397912021600     IErMin= 3 ErrMin= 6.99D-03
 ErrMax= 6.99D-03  0.00D+00 EMaxC= 1.00D-01 BMatC= 1.66D-02 BMatP= 2.48D-02
 IDIUse=3 WtCom= 9.30D-01 WtEn= 6.99D-02
 Coeff-Com: -0.141D+00 0.521D+00 0.620D+00
 Coeff-En:   0.000D+00 0.000D+00 0.100D+01
 Coeff:     -0.131D+00 0.485D+00 0.646D+00
 Gap=     0.346 Goal=   None    Shift=    0.000
 RMSDP=2.54D-04 MaxDP=1.13D-02 DE=-6.57D-02 OVMax= 4.62D-02

 Cycle   4  Pass 0  IDiag  1:
 E= -115.408623213026     Delta-E=       -0.010711191425 Rises=F Damp=F
 DIIS: error= 2.77D-03 at cycle   4 NSaved=   4.
 NSaved= 4 IEnMin= 4 EnMin= -115.408623213026     IErMin= 4 ErrMin= 2.77D-03
 ErrMax= 2.77D-03  0.00D+00 EMaxC= 1.00D-01 BMatC= 1.92D-03 BMatP= 1.66D-02
 IDIUse=3 WtCom= 9.72D-01 WtEn= 2.77D-02
 Coeff-Com: -0.475D-01 0.854D-01 0.300D+00 0.662D+00
 Coeff-En:   0.000D+00 0.000D+00 0.419D-01 0.958D+00
 Coeff:     -0.461D-01 0.831D-01 0.292D+00 0.671D+00
 Gap=     0.340 Goal=   None    Shift=    0.000
 RMSDP=7.25D-05 MaxDP=2.70D-03 DE=-1.07D-02 OVMax= 1.18D-02

 Cycle   5  Pass 0  IDiag  1:
 E= -115.410020171163     Delta-E=       -0.001396958137 Rises=F Damp=F
 DIIS: error= 2.65D-04 at cycle   5 NSaved=   5.
 NSaved= 5 IEnMin= 5 EnMin= -115.410020171163     IErMin= 5 ErrMin= 2.65D-04
 ErrMax= 2.65D-04  0.00D+00 EMaxC= 1.00D-01 BMatC= 1.44D-05 BMatP= 1.92D-03
 IDIUse=3 WtCom= 9.97D-01 WtEn= 2.65D-03
 Coeff-Com: -0.288D-02-0.330D-02 0.330D-01 0.128D+00 0.846D+00
 Coeff-En:   0.000D+00 0.000D+00 0.000D+00 0.000D+00 0.100D+01
 Coeff:     -0.287D-02-0.329D-02 0.329D-01 0.127D+00 0.846D+00
 Gap=     0.341 Goal=   None    Shift=    0.000
 RMSDP=1.18D-05 MaxDP=3.41D-04 DE=-1.40D-03 OVMax= 1.19D-03

 Cycle   6  Pass 0  IDiag  1:
 E= -115.410033844511     Delta-E=       -0.000013673348 Rises=F Damp=F
 DIIS: error= 3.98D-05 at cycle   6 NSaved=   6.
 NSaved= 6 IEnMin= 6 EnMin= -115.410033844511     IErMin= 6 ErrMin= 3.98D-05
 ErrMax= 3.98D-05  0.00D+00 EMaxC= 1.00D-01 BMatC= 5.74D-07 BMatP= 1.44D-05
 IDIUse=1 WtCom= 1.00D+00 WtEn= 0.00D+00
 Coeff-Com:  0.355D-02-0.540D-02-0.171D-01-0.496D-01-0.138D+00 0.121D+01
 Coeff:      0.355D-02-0.540D-02-0.171D-01-0.496D-01-0.138D+00 0.121D+01
 Gap=     0.341 Goal=   None    Shift=    0.000
 RMSDP=4.97D-06 MaxDP=1.50D-04 DE=-1.37D-05 OVMax= 4.94D-04

 Initial convergence to 1.0D-05 achieved.  Increase integral accuracy.
 Cycle   7  Pass 1  IDiag  1:
 E= -115.410036510212     Delta-E=       -0.000002665702 Rises=F Damp=F
 DIIS: error= 5.96D-06 at cycle   1 NSaved=   1.
 NSaved= 1 IEnMin= 1 EnMin= -115.410036510212     IErMin= 1 ErrMin= 5.96D-06
 ErrMax= 5.96D-06  0.00D+00 EMaxC= 1.00D-01 BMatC= 2.74D-08 BMatP= 2.74D-08
 IDIUse=1 WtCom= 1.00D+00 WtEn= 0.00D+00
 Coeff-Com:  0.100D+01
 Coeff:      0.100D+01
 Gap=     0.341 Goal=   None    Shift=    0.000
 RMSDP=4.97D-06 MaxDP=1.50D-04 DE=-2.67D-06 OVMax= 6.46D-05

 Cycle   8  Pass 1  IDiag  1:
 E= -115.410036528218     Delta-E=       -0.000000018006 Rises=F Damp=F
 DIIS: error= 1.69D-06 at cycle   2 NSaved=   2.
 NSaved= 2 IEnMin= 2 EnMin= -115.410036528218     IErMin= 2 ErrMin= 1.69D-06
 ErrMax= 1.69D-06  0.00D+00 EMaxC= 1.00D-01 BMatC= 6.63D-10 BMatP= 2.74D-08
 IDIUse=1 WtCom= 1.00D+00 WtEn= 0.00D+00
 Coeff-Com: -0.472D-01 0.105D+01
 Coeff:     -0.472D-01 0.105D+01
 Gap=     0.341 Goal=   None    Shift=    0.000
 RMSDP=3.09D-07 MaxDP=1.22D-05 DE=-1.80D-08 OVMax= 2.19D-05

 Cycle   9  Pass 1  IDiag  1:
 E= -115.410036529557     Delta-E=       -0.000000001339 Rises=F Damp=F
 DIIS: error= 1.20D-06 at cycle   3 NSaved=   3.
 NSaved= 3 IEnMin= 3 EnMin= -115.410036529557     IErMin= 3 ErrMin= 1.20D-06
 ErrMax= 1.20D-06  0.00D+00 EMaxC= 1.00D-01 BMatC= 1.08D-10 BMatP= 6.63D-10
 IDIUse=1 WtCom= 1.00D+00 WtEn= 0.00D+00
 Coeff-Com: -0.253D-01 0.183D+00 0.842D+00
 Coeff:     -0.253D-01 0.183D+00 0.842D+00
 Gap=     0.341 Goal=   None    Shift=    0.000
 RMSDP=4.83D-08 MaxDP=1.59D-06 DE=-1.34D-09 OVMax= 5.26D-06

 Cycle  10  Pass 1  IDiag  1:
 E= -115.410036529709     Delta-E=       -0.000000000152 Rises=F Damp=F
 DIIS: error= 2.90D-07 at cycle   4 NSaved=   4.
 NSaved= 4 IEnMin= 4 EnMin= -115.410036529709     IErMin= 4 ErrMin= 2.90D-07
 ErrMax= 2.90D-07  0.00D+00 EMaxC= 1.00D-01 BMatC= 1.52D-11 BMatP= 1.08D-10
 IDIUse=1 WtCom= 1.00D+00 WtEn= 0.00D+00
 Coeff-Com:  0.216D-02-0.111D+00 0.145D+00 0.964D+00
 Coeff:      0.216D-02-0.111D+00 0.145D+00 0.964D+00
 Gap=     0.341 Goal=   None    Shift=    0.000
 RMSDP=2.21D-08 MaxDP=7.78D-07 DE=-1.52D-10 OVMax= 4.11D-06

 Cycle  11  Pass 1  IDiag  1:
 E= -115.410036529737     Delta-E=       -0.000000000028 Rises=F Damp=F
 DIIS: error= 1.09D-07 at cycle   5 NSaved=   5.
 NSaved= 5 IEnMin= 5 EnMin= -115.410036529737     IErMin= 5 ErrMin= 1.09D-07
 ErrMax= 1.09D-07  0.00D+00 EMaxC= 1.00D-01 BMatC= 2.81D-12 BMatP= 1.52D-11
 IDIUse=1 WtCom= 1.00D+00 WtEn= 0.00D+00
 Coeff-Com:  0.258D-02-0.641D-01-0.833D-02 0.409D+00 0.661D+00
 Coeff:      0.258D-02-0.641D-01-0.833D-02 0.409D+00 0.661D+00
 Gap=     0.341 Goal=   None    Shift=    0.000
 RMSDP=5.48D-09 MaxDP=1.85D-07 DE=-2.79D-11 OVMax= 6.51D-07

 SCF Done:  E(RB2PLYPD3) =  -115.410036530     A.U. after   11 cycles
            NFock= 11  Conv=0.55D-08     -V/T= 2.0011
 KE= 1.152821440333D+02 PE=-3.502805831526D+02 EE= 8.021743306559D+01
 Leave Link  502 at Wed Aug 26 20:11:39 2020, MaxMem=  2097152000 cpu:        86.6
 (Enter /opt/cluster/programs/g09/g09_d.01/g09/l801.exe)
 DoSCS=T DFT=T ScalE2(SS,OS)=  0.270000  0.270000
 ExpMin= 7.60D-02 ExpMax= 1.17D+05 ExpMxC= 1.13D+03 IAcc=3 IRadAn=         5 AccDes= 0.00D+00
 HarFok:  IExCor=  205 AccDes= 0.00D+00 IRadAn=         5 IDoV=-2 UseB2=F ITyADJ=14
 ICtDFT= 12500011 ScaDFX=  1.000000  1.000000  1.000000  1.000000
 Largest valence mixing into a core orbital is  1.00D-04
 Largest core mixing into a valence orbital is  1.33D-05
 Range of M.O.s used for correlation:     3   234
 NBasis=   234 NAE=     9 NBE=     9 NFC=     2 NFV=     0
 NROrb=    232 NOA=     7 NOB=     7 NVA=   225 NVB=   225

 **** Warning!!: The largest alpha MO coefficient is  0.32463048D+02

 Leave Link  801 at Wed Aug 26 20:11:41 2020, MaxMem=  2097152000 cpu:         0.6
 (Enter /opt/cluster/programs/g09/g09_d.01/g09/l906.exe)
 DoSCS=T DFT=T ScalE2(SS,OS)=  0.270000  0.270000
 FulOut=F Deriv=F AODrv=F NAtomX=     6
   MMem=        3646  MDisk=           7 MDiskD=           7
  W3Min=      447300 MinDsk=     1090093 NBas6D=         284
 NBas2D=       41310    NTT=       40470    LW2=     4508827
    MDV=  2096873048 MDiskM=       16391 NBas2p=       41289
 Fully in-core method, ICMem=  1722292712.
 IMap=   1   2   3   4   5   6   7
 JobTyp=1 Pass  1 fully in-core, NPsUse=  8.
 Compute canonical integrals.
 FoFCou: FMM=F IPFlag=           0 FMFlag=           0 FMFlg1=           0
         NFxFlg=           0 DoJE=F BraDBF=F KetDBF=F FulRan=T
         wScrn=  0.000000 ICntrl=     600 IOpCl=  1 I1Cent=           0 NGrid=           0
         NMat0=    1 NMatS0=  41310 NMatT0=    0 NMatD0=    1 NMtDS0=    0 NMtDT0=    0
 Symmetry not used in FoFCou.
 Spin components of T(2) and E(2):
     alpha-alpha T2 =       0.2473036481D-01 E2=     -0.1771567247D-01
     alpha-beta  T2 =       0.1652036607D+00 E2=     -0.1212038663D+00
     beta-beta   T2 =       0.2473036481D-01 E2=     -0.1771567247D-01
 The integrals were generated   1 times.
 E2(B2PLYPD3) =    -0.1566352112D+00 E(B2PLYPD3) =    -0.11556667174095D+03
 Leave Link  906 at Wed Aug 26 20:11:58 2020, MaxMem=  2097152000 cpu:       123.2
 (Enter /opt/cluster/programs/g09/g09_d.01/g09/l601.exe)
 Copying SCF densities to generalized density rwf, IOpCl= 0 IROHF=0.

 **********************************************************************

            Population analysis using the SCF density.

 **********************************************************************

 Orbital symmetries:
       Occupied  (A) (A) (A) (A) (A) (A) (A) (A) (A)
       Virtual   (A) (A) (A) (A) (A) (A) (A) (A) (A) (A) (A) (A)
                 (A) (A) (A) (A) (A) (A) (A) (A) (A) (A) (A) (A)
                 (A) (A) (A) (A) (A) (A) (A) (A) (A) (A) (A) (A)
                 (A) (A) (A) (A) (A) (A) (A) (A) (A) (A) (A) (A)
                 (A) (A) (A) (A) (A) (A) (A) (A) (A) (A) (A) (A)
                 (A) (A) (A) (A) (A) (A) (A) (A) (A) (A) (A) (A)
                 (A) (A) (A) (A) (A) (A) (A) (A) (A) (A) (A) (A)
                 (A) (A) (A) (A) (A) (A) (A) (A) (A) (A) (A) (A)
                 (A) (A) (A) (A) (A) (A) (A) (A) (A) (A) (A) (A)
                 (A) (A) (A) (A) (A) (A) (A) (A) (A) (A) (A) (A)
                 (A) (A) (A) (A) (A) (A) (A) (A) (A) (A) (A) (A)
                 (A) (A) (A) (A) (A) (A) (A) (A) (A) (A) (A) (A)
                 (A) (A) (A) (A) (A) (A) (A) (A) (A) (A) (A) (A)
                 (A) (A) (A) (A) (A) (A) (A) (A) (A) (A) (A) (A)
                 (A) (A) (A) (A) (A) (A) (A) (A) (A) (A) (A) (A)
                 (A) (A) (A) (A) (A) (A) (A) (A) (A) (A) (A) (A)
                 (A) (A) (A) (A) (A) (A) (A) (A) (A) (A) (A) (A)
                 (A) (A) (A) (A) (A) (A) (A) (A) (A) (A) (A) (A)
                 (A) (A) (A) (A) (A) (A) (A) (A) (A)
 The electronic state is 1-A.
 Alpha  occ. eigenvalues --  -19.75948 -10.62137  -1.10753  -0.81569  -0.55905
 Alpha  occ. eigenvalues --   -0.50645  -0.48935  -0.40083  -0.35490
 Alpha virt. eigenvalues --   -0.01349   0.07145   0.12702   0.12837   0.14570
 Alpha virt. eigenvalues --    0.17862   0.18742   0.22168   0.29275   0.32839
 Alpha virt. eigenvalues --    0.33422   0.37070   0.40432   0.41165   0.45138
 Alpha virt. eigenvalues --    0.50106   0.51527   0.54118   0.56965   0.65346
 Alpha virt. eigenvalues --    0.71871   0.74983   0.75969   0.76979   0.79623
 Alpha virt. eigenvalues --    0.81857   0.83799   0.87761   0.89742   0.92999
 Alpha virt. eigenvalues --    0.94750   0.99062   1.01327   1.05713   1.14306
 Alpha virt. eigenvalues --    1.15328   1.16310   1.23292   1.35214   1.37145
 Alpha virt. eigenvalues --    1.41653   1.47347   1.50110   1.55196   1.65440
 Alpha virt. eigenvalues --    1.71715   1.72599   1.77373   1.80778   1.83122
 Alpha virt. eigenvalues --    1.86063   1.93129   1.94232   1.95371   2.02363
 Alpha virt. eigenvalues --    2.05217   2.11103   2.14335   2.15225   2.21628
 Alpha virt. eigenvalues --    2.22317   2.27853   2.28603   2.29867   2.31094
 Alpha virt. eigenvalues --    2.39646   2.44998   2.49589   2.50807   2.55407
 Alpha virt. eigenvalues --    2.58123   2.64290   2.65324   2.69292   2.70440
 Alpha virt. eigenvalues --    2.77559   2.87064   2.90516   2.92778   3.00234
 Alpha virt. eigenvalues --    3.11453   3.13119   3.15768   3.20419   3.29101
 Alpha virt. eigenvalues --    3.29593   3.35344   3.44192   3.48783   3.54749
 Alpha virt. eigenvalues --    3.65283   3.72474   3.76778   3.81609   3.87639
 Alpha virt. eigenvalues --    3.92641   4.00083   4.06872   4.11301   4.16625
 Alpha virt. eigenvalues --    4.21174   4.27501   4.28166   4.33197   4.33949
 Alpha virt. eigenvalues --    4.41880   4.50040   4.63527   4.74036   5.04427
 Alpha virt. eigenvalues --    5.20290   5.25670   5.45362   5.46132   5.59885
 Alpha virt. eigenvalues --    5.65692   5.69131   5.71154   5.73295   5.78683
 Alpha virt. eigenvalues --    5.82525   5.91436   5.94925   6.01967   6.05873
 Alpha virt. eigenvalues --    6.09774   6.12576   6.18610   6.24554   6.27574
 Alpha virt. eigenvalues --    6.30961   6.38838   6.43835   6.44578   6.49263
 Alpha virt. eigenvalues --    6.50580   6.55619   6.56398   6.61368   6.64156
 Alpha virt. eigenvalues --    6.72967   6.75454   6.86036   6.92526   7.01306
 Alpha virt. eigenvalues --    7.05274   7.15672   7.24634   7.31701   7.55266
 Alpha virt. eigenvalues --    7.55885   7.60460   7.64305   7.65839   7.70385
 Alpha virt. eigenvalues --    7.72606   7.80205   7.83736   7.85535   7.95188
 Alpha virt. eigenvalues --    8.02752   8.05702   8.10100   8.12142   8.15736
 Alpha virt. eigenvalues --    8.25194   8.29598   8.29999   8.36668   8.40856
 Alpha virt. eigenvalues --    8.42331   8.48166   8.49874   8.57048   8.61204
 Alpha virt. eigenvalues --    8.63098   8.67263   8.76409   8.90122   8.95559
 Alpha virt. eigenvalues --    9.06359   9.08590   9.14379   9.21845   9.27979
 Alpha virt. eigenvalues --    9.33716   9.43406   9.47544   9.62247   9.71088
 Alpha virt. eigenvalues --    9.78530   9.80399   9.96929  10.06673  10.21875
 Alpha virt. eigenvalues --   10.34524  10.39208  10.48328  10.51661  10.61558
 Alpha virt. eigenvalues --   10.85689  11.01478  11.10707  11.42531  11.54747
 Alpha virt. eigenvalues --   11.56530  11.64745  11.70294  11.78604  11.87219
 Alpha virt. eigenvalues --   12.04999  12.16992  12.18568  12.38361  12.56650
 Alpha virt. eigenvalues --   12.65840  12.75820  12.83591  13.03487  13.53303
 Alpha virt. eigenvalues --   14.36420  29.55247  48.36590 149.28992 254.06970
          Condensed to atoms (all electrons):
               1          2          3          4          5          6
     1  C    4.392332   0.264244   0.453926   0.432252   0.413377  -0.039347
     2  O    0.264244   8.055848  -0.024229  -0.039657  -0.028991   0.258033
     3  H    0.453926  -0.024229   0.640461  -0.067482  -0.058439  -0.008374
     4  H    0.432252  -0.039657  -0.067482   0.696375  -0.040493  -0.011940
     5  H    0.413377  -0.028991  -0.058439  -0.040493   0.638938   0.012339
     6  H   -0.039347   0.258033  -0.008374  -0.011940   0.012339   0.545609
 Mulliken charges:
               1
     1  C    0.083215
     2  O   -0.485246
     3  H    0.064136
     4  H    0.030946
     5  H    0.063269
     6  H    0.243680
 Sum of Mulliken charges =   0.00000
 Mulliken charges with hydrogens summed into heavy atoms:
               1
     1  C    0.241567
     2  O   -0.241567
 Electronic spatial extent (au):  <R**2>=             87.5265
 Charge=              0.0000 electrons
 Dipole moment (field-independent basis, Debye):
    X=             -1.1839    Y=              1.6827    Z=             -0.2423  Tot=              2.0717
 Quadrupole moment (field-independent basis, Debye-Ang):
   XX=            -12.9807   YY=            -11.4550   ZZ=            -14.0707
   XY=              2.5197   XZ=             -0.0503   YZ=             -0.2605
 Traceless Quadrupole moment (field-independent basis, Debye-Ang):
   XX=             -0.1452   YY=              1.3805   ZZ=             -1.2353
   XY=              2.5197   XZ=             -0.0503   YZ=             -0.2605
 Octapole moment (field-independent basis, Debye-Ang**2):
  XXX=              1.0855  YYY=              1.5389  ZZZ=             -0.6166  XYY=              2.6949
  XXY=              2.4466  XXZ=             -0.2655  XZZ=             -0.3826  YZZ=              0.0416
  YYZ=             -0.1960  XYZ=              0.0006
 Hexadecapole moment (field-independent basis, Debye-Ang**3):
 XXXX=            -66.5225 YYYY=            -20.9041 ZZZZ=            -18.9330 XXXY=              3.6509
 XXXZ=              0.4597 YYYX=              4.1263 YYYZ=             -0.7017 ZZZX=              0.6315
 ZZZY=             -0.4245 XXYY=            -12.5012 XXZZ=            -15.0930 YYZZ=             -7.2383
 XXYZ=             -0.3699 YYXZ=             -0.0551 ZZXY=             -0.1973
 N-N= 3.937096952389D+01 E-N=-3.502805984964D+02  KE= 1.152821440333D+02
 Leave Link  601 at Wed Aug 26 20:12:00 2020, MaxMem=  2097152000 cpu:         0.3
 (Enter /opt/cluster/programs/g09/g09_d.01/g09/l9999.exe)
 1\1\GINC-NODE13\SP\RB2PLYPD3-FC\def2QZVP\C1H4O1\BOITTIER\26-Aug-2020\0
 \\#p B2PLYPD3/Def2QZVP\\methanol\\0,1\C,0,-5.191642,-1.277715,0.909356
 \O,0,-3.742759,-1.118817,0.896272\H,0,-5.522452,-2.049848,0.586839\H,0
 ,-5.817164,-0.491003,0.395933\H,0,-5.518436,-1.16183,1.783601\H,0,-3.5
 17812,-1.172097,-0.481593\\Version=ES64L-G09RevD.01\State=1-A\HF=-115.
 4100365\MP2=-115.5666717\RMSD=5.478e-09\PG=C01 [X(C1H4O1)]\\@


 10 WHATSOEVER THY HAND FINDETH TO DO, DO IT WITH THY  
 MIGHT. FOR THERE IS NO WORK, NOR DEVICE, NOR KNOWLEDGE, NOR  
 WISDOM, IN THE GRAVE, WHITHER THOU GOEST.                    
 11 I RETURNED AND SAW UNDER THE SUN, THAT THE RACE IS NOT TO 
 THE SWIFT, NOR THE BATTLE TO THE STRONG, NEITHER YET BREAD TO
 THE WISE, NOR YET RICHES TO MEN OF UNDERSTANDING, NOR YET    
 FAVOR TO MEN OF SKILL. BUT TIME AND CHANCE HAPPEN TO THEM ALL.
 12 FOR MAN ALSO KNOWETH NOT HIS TIME. AS THE FISHES   
 THAT ARE TAKEN IN AN EVIL NET, AND AS THE BIRDS THAT ARE     
 CAUGHT IN THE SNARE. SO ARE THE SONS OF MEN SNARED IN AN EVIL
 TIME, WHEN IT FALLETH SUDDENLY UPON THEM.
                                         ECCLESIASTES 9
 Job cpu time:       0 days  0 hours  3 minutes 48.4 seconds.
 File lengths (MBytes):  RWF=     23 Int=      0 D2E=      0 Chk=      4 Scr=      1
 Normal termination of Gaussian 09 at Wed Aug 26 20:12:04 2020.
