 Entering Gaussian System, Link 0=/opt/cluster/programs/g09/g09_d.01/g09//g09
 Input=/home/boittier/MDCM/nms_sampling/methanol_geom.xyz.dir/energies/methanol_2269_energy.com
 Output=/scratch/boittier/methanol_2269_energy/methanol_2269_energy.out
 Initial command:
 /opt/cluster/programs/g09/g09_d.01/g09/l1.exe "/scratch/boittier/methanol_2269_energy/Gau-142759.inp" -scrdir="/scratch/boittier/methanol_2269_energy/"
 Entering Link 1 = /opt/cluster/programs/g09/g09_d.01/g09/l1.exe PID=    142760.
  
 Copyright (c) 1988,1990,1992,1993,1995,1998,2003,2009,2013,
            Gaussian, Inc.  All Rights Reserved.
  
 This is part of the Gaussian(R) 09 program.  It is based on
 the Gaussian(R) 03 system (copyright 2003, Gaussian, Inc.),
 the Gaussian(R) 98 system (copyright 1998, Gaussian, Inc.),
 the Gaussian(R) 94 system (copyright 1995, Gaussian, Inc.),
 the Gaussian 92(TM) system (copyright 1992, Gaussian, Inc.),
 the Gaussian 90(TM) system (copyright 1990, Gaussian, Inc.),
 the Gaussian 88(TM) system (copyright 1988, Gaussian, Inc.),
 the Gaussian 86(TM) system (copyright 1986, Carnegie Mellon
 University), and the Gaussian 82(TM) system (copyright 1983,
 Carnegie Mellon University). Gaussian is a federally registered
 trademark of Gaussian, Inc.
  
 This software contains proprietary and confidential information,
 including trade secrets, belonging to Gaussian, Inc.
  
 This software is provided under written license and may be
 used, copied, transmitted, or stored only in accord with that
 written license.
  
 The following legend is applicable only to US Government
 contracts under FAR:
  
                    RESTRICTED RIGHTS LEGEND
  
 Use, reproduction and disclosure by the US Government is
 subject to restrictions as set forth in subparagraphs (a)
 and (c) of the Commercial Computer Software - Restricted
 Rights clause in FAR 52.227-19.
  
 Gaussian, Inc.
 340 Quinnipiac St., Bldg. 40, Wallingford CT 06492
  
  
 ---------------------------------------------------------------
 Warning -- This program may not be used in any manner that
 competes with the business of Gaussian, Inc. or will provide
 assistance to any competitor of Gaussian, Inc.  The licensee
 of this program is prohibited from giving any competitor of
 Gaussian, Inc. access to this program.  By using this program,
 the user acknowledges that Gaussian, Inc. is engaged in the
 business of creating and licensing software in the field of
 computational chemistry and represents and warrants to the
 licensee that it is not a competitor of Gaussian, Inc. and that
 it will not use this program in any manner prohibited above.
 ---------------------------------------------------------------
  

 Cite this work as:
 Gaussian 09, Revision D.01,
 M. J. Frisch, G. W. Trucks, H. B. Schlegel, G. E. Scuseria, 
 M. A. Robb, J. R. Cheeseman, G. Scalmani, V. Barone, B. Mennucci, 
 G. A. Petersson, H. Nakatsuji, M. Caricato, X. Li, H. P. Hratchian, 
 A. F. Izmaylov, J. Bloino, G. Zheng, J. L. Sonnenberg, M. Hada, 
 M. Ehara, K. Toyota, R. Fukuda, J. Hasegawa, M. Ishida, T. Nakajima, 
 Y. Honda, O. Kitao, H. Nakai, T. Vreven, J. A. Montgomery, Jr., 
 J. E. Peralta, F. Ogliaro, M. Bearpark, J. J. Heyd, E. Brothers, 
 K. N. Kudin, V. N. Staroverov, T. Keith, R. Kobayashi, J. Normand, 
 K. Raghavachari, A. Rendell, J. C. Burant, S. S. Iyengar, J. Tomasi, 
 M. Cossi, N. Rega, J. M. Millam, M. Klene, J. E. Knox, J. B. Cross, 
 V. Bakken, C. Adamo, J. Jaramillo, R. Gomperts, R. E. Stratmann, 
 O. Yazyev, A. J. Austin, R. Cammi, C. Pomelli, J. W. Ochterski, 
 R. L. Martin, K. Morokuma, V. G. Zakrzewski, G. A. Voth, 
 P. Salvador, J. J. Dannenberg, S. Dapprich, A. D. Daniels, 
 O. Farkas, J. B. Foresman, J. V. Ortiz, J. Cioslowski, 
 and D. J. Fox, Gaussian, Inc., Wallingford CT, 2013.
 
 ******************************************
 Gaussian 09:  ES64L-G09RevD.01 24-Apr-2013
                26-Aug-2020 
 ******************************************
 %chk=/home/boittier/MDCM/nms_sampling/methanol_geom.xyz.dir/methanol_2269.chk
 %nproc=8
 Will use up to    8 processors via shared memory.
 %mem=16000MB
 --------------------
 #p B2PLYPD3/Def2QZVP
 --------------------
 1/38=1/1;
 2/12=2,17=6,18=5,40=1/2;
 3/5=45,7=101,11=9,16=1,25=1,30=1,74=-60/1,2,3;
 4//1;
 5/5=2,38=5/2;
 8/10=1/1;
 9/16=-3/6;
 6/7=2,8=2,9=2,10=2/1;
 99/5=1,9=1/99;
 Leave Link    1 at Wed Aug 26 16:04:24 2020, MaxMem=  2097152000 cpu:         0.2
 (Enter /opt/cluster/programs/g09/g09_d.01/g09/l101.exe)
 --------
 methanol
 --------
 Symbolic Z-matrix:
 Charge =  0 Multiplicity = 1
 C                    -5.19131  -1.2551    0.90196 
 O                    -3.75556  -1.12726   0.87926 
 H                    -5.54375  -2.12639   0.6117 
 H                    -5.71213  -0.51209   0.39362 
 H                    -5.50208  -1.20391   1.92825 
 H                    -3.42425  -1.15636  -0.28428 
 
 NAtoms=      6 NQM=        6 NQMF=       0 NMMI=      0 NMMIF=      0
                NMic=       0 NMicF=      0.
                    Isotopes and Nuclear Properties:
 (Nuclear quadrupole moments (NQMom) in fm**2, nuclear magnetic moments (NMagM)
  in nuclear magnetons)

  Atom         1           2           3           4           5           6
 IAtWgt=          12          16           1           1           1           1
 AtmWgt=  12.0000000  15.9949146   1.0078250   1.0078250   1.0078250   1.0078250
 NucSpn=           0           0           1           1           1           1
 AtZEff=   0.0000000   0.0000000   0.0000000   0.0000000   0.0000000   0.0000000
 NQMom=    0.0000000   0.0000000   0.0000000   0.0000000   0.0000000   0.0000000
 NMagM=    0.0000000   0.0000000   2.7928460   2.7928460   2.7928460   2.7928460
 AtZNuc=   6.0000000   8.0000000   1.0000000   1.0000000   1.0000000   1.0000000
 Leave Link  101 at Wed Aug 26 16:04:25 2020, MaxMem=  2097152000 cpu:         0.5
 (Enter /opt/cluster/programs/g09/g09_d.01/g09/l202.exe)
                          Input orientation:                          
 ---------------------------------------------------------------------
 Center     Atomic      Atomic             Coordinates (Angstroms)
 Number     Number       Type             X           Y           Z
 ---------------------------------------------------------------------
      1          6           0       -5.191306   -1.255104    0.901960
      2          8           0       -3.755562   -1.127255    0.879258
      3          1           0       -5.543753   -2.126390    0.611697
      4          1           0       -5.712125   -0.512091    0.393616
      5          1           0       -5.502082   -1.203909    1.928246
      6          1           0       -3.424246   -1.156355   -0.284280
 ---------------------------------------------------------------------
                    Distance matrix (angstroms):
                    1          2          3          4          5
     1  C    0.000000
     2  O    1.441604   0.000000
     3  H    0.983672   2.065790   0.000000
     4  H    1.040065   2.107703   1.637642   0.000000
     5  H    1.073530   2.038770   1.608107   1.696414   0.000000
     6  H    2.130591   1.210140   2.497209   2.471641   3.035611
                    6
     6  H    0.000000
 Stoichiometry    CH4O
 Framework group  C1[X(CH4O)]
 Deg. of freedom    12
 Full point group                 C1      NOp   1
 Largest Abelian subgroup         C1      NOp   1
 Largest concise Abelian subgroup C1      NOp   1
                         Standard orientation:                         
 ---------------------------------------------------------------------
 Center     Atomic      Atomic             Coordinates (Angstroms)
 Number     Number       Type             X           Y           Z
 ---------------------------------------------------------------------
      1          6           0        0.674473    0.044749    0.005559
      2          8           0       -0.752043   -0.162509   -0.012219
      3          1           0        1.043241    0.381064    0.853211
      4          1           0        1.047683    0.635939   -0.764469
      5          1           0        1.140049   -0.917847   -0.089904
      6          1           0       -1.261464    0.932424    0.065560
 ---------------------------------------------------------------------
 Rotational constants (GHZ):    127.6116605     24.1682934     22.7682472
 Leave Link  202 at Wed Aug 26 16:04:25 2020, MaxMem=  2097152000 cpu:         0.0
 (Enter /opt/cluster/programs/g09/g09_d.01/g09/l301.exe)
 Standard basis: def2QZVP (5D, 7F)
 Ernie: Thresh=  0.10000D-02 Tol=  0.10000D-05 Strict=F.
 There are   284 symmetry adapted cartesian basis functions of A   symmetry.
 There are   234 symmetry adapted basis functions of A   symmetry.
   234 basis functions,   336 primitive gaussians,   284 cartesian basis functions
     9 alpha electrons        9 beta electrons
       nuclear repulsion energy        39.5450165113 Hartrees.
 IExCor=  419 DFT=T Ex+Corr=B2PLYPD3 ExCW=0 ScaHFX=  0.530000
 ScaDFX=  0.470000  0.470000  0.730000  0.730000 ScalE2=  0.270000  0.270000
 IRadAn=      0 IRanWt=     -1 IRanGd=            0 ICorTp=0 IEmpDi=141
 NAtoms=    6 NActive=    6 NUniq=    6 SFac= 1.00D+00 NAtFMM=   60 NAOKFM=F Big=F
 Integral buffers will be    131072 words long.
 Regular integral format.
 Two-electron integral symmetry is turned on.
 R6Disp:  Grimme-D3(BJ) Dispersion energy=       -0.0013320315 Hartrees.
 Nuclear repulsion after empirical dispersion term =       39.5436844798 Hartrees.
 Leave Link  301 at Wed Aug 26 16:04:25 2020, MaxMem=  2097152000 cpu:         0.4
 (Enter /opt/cluster/programs/g09/g09_d.01/g09/l302.exe)
 NPDir=0 NMtPBC=     1 NCelOv=     1 NCel=       1 NClECP=     1 NCelD=      1
         NCelK=      1 NCelE2=     1 NClLst=     1 CellRange=     0.0.
 One-electron integrals computed using PRISM.
   1 Symmetry operations used in ECPInt.
 ECPInt:  NShTT=    2775 NPrTT=    6207 LenC2=    2773 LenP2D=    5730.
 LDataN:  DoStor=T MaxTD1= 8 Len=  415
 NBasis=   234 RedAO= T EigKep=  9.01D-05  NBF=   234
 NBsUse=   234 1.00D-06 EigRej= -1.00D+00 NBFU=   234
 Precomputing XC quadrature grid using
 IXCGrd= 4 IRadAn=           0 IRanWt=          -1 IRanGd=           0 AccXCQ= 0.00D+00.
 Generated NRdTot=       0 NPtTot=           0 NUsed=           0 NTot=          32
 NSgBfM=   284   284   284   284   284 MxSgAt=     6 MxSgA2=     6.
 Leave Link  302 at Wed Aug 26 16:04:25 2020, MaxMem=  2097152000 cpu:         1.8
 (Enter /opt/cluster/programs/g09/g09_d.01/g09/l303.exe)
 DipDrv:  MaxL=1.
 Leave Link  303 at Wed Aug 26 16:04:25 2020, MaxMem=  2097152000 cpu:         0.2
 (Enter /opt/cluster/programs/g09/g09_d.01/g09/l401.exe)
 ExpMin= 7.60D-02 ExpMax= 1.17D+05 ExpMxC= 1.13D+03 IAcc=2 IRadAn=         4 AccDes= 0.00D+00
 Harris functional with IExCor=  419 and IRadAn=       4 diagonalized for initial guess.
 HarFok:  IExCor=  419 AccDes= 0.00D+00 IRadAn=         4 IDoV= 1 UseB2=F ITyADJ=14
 ICtDFT=  3500011 ScaDFX=  1.000000  1.000000  1.000000  1.000000
 FoFCou: FMM=F IPFlag=           0 FMFlag=      100000 FMFlg1=           0
         NFxFlg=           0 DoJE=T BraDBF=F KetDBF=T FulRan=T
         wScrn=  0.000000 ICntrl=     500 IOpCl=  0 I1Cent=   200000004 NGrid=           0
         NMat0=    1 NMatS0=      1 NMatT0=    0 NMatD0=    1 NMtDS0=    0 NMtDT0=    0
 Petite list used in FoFCou.
 Harris En= -115.792150029101    
 JPrj=0 DoOrth=F DoCkMO=F.
 Leave Link  401 at Wed Aug 26 16:04:25 2020, MaxMem=  2097152000 cpu:         3.3
 (Enter /opt/cluster/programs/g09/g09_d.01/g09/l502.exe)
 Closed shell SCF:
 Using DIIS extrapolation, IDIIS=  1040.
 Integral symmetry usage will be decided dynamically.
 Keep R1 ints in memory in canonical form, NReq=389840494.
 IVT=      264814 IEndB=      264814 NGot=  2097152000 MDV=  1718885927
 LenX=  1718885927 LenY=  1718804830
 Requested convergence on RMS density matrix=1.00D-08 within 128 cycles.
 Requested convergence on MAX density matrix=1.00D-06.
 Requested convergence on             energy=1.00D-06.
 No special actions if energy rises.
 FoFCou: FMM=F IPFlag=           0 FMFlag=           0 FMFlg1=           0
         NFxFlg=           0 DoJE=F BraDBF=F KetDBF=F FulRan=T
         wScrn=  0.000000 ICntrl=     600 IOpCl=  0 I1Cent=           0 NGrid=           0
         NMat0=    1 NMatS0=  27495 NMatT0=    0 NMatD0=    1 NMtDS0=    0 NMtDT0=    0
 Symmetry not used in FoFCou.
 Integral accuracy reduced to 1.0D-05 until final iterations.

 Cycle   1  Pass 0  IDiag  1:
 E= -115.387679718353    
 DIIS: error= 3.39D-02 at cycle   1 NSaved=   1.
 NSaved= 1 IEnMin= 1 EnMin= -115.387679718353     IErMin= 1 ErrMin= 3.39D-02
 ErrMax= 3.39D-02  0.00D+00 EMaxC= 1.00D-01 BMatC= 1.80D-01 BMatP= 1.80D-01
 IDIUse=3 WtCom= 6.61D-01 WtEn= 3.39D-01
 Coeff-Com:  0.100D+01
 Coeff-En:   0.100D+01
 Coeff:      0.100D+01
 Gap=     0.283 Goal=   None    Shift=    0.000
 GapD=    0.283 DampG=1.000 DampE=0.500 DampFc=0.5000 IDamp=-1.
 Damping current iteration by 5.00D-01
 RMSDP=1.43D-03 MaxDP=4.62D-02              OVMax= 1.64D-01

 Cycle   2  Pass 0  IDiag  1:
 E= -115.441986872121     Delta-E=       -0.054307153769 Rises=F Damp=T
 DIIS: error= 9.46D-03 at cycle   2 NSaved=   2.
 NSaved= 2 IEnMin= 2 EnMin= -115.441986872121     IErMin= 2 ErrMin= 9.46D-03
 ErrMax= 9.46D-03  0.00D+00 EMaxC= 1.00D-01 BMatC= 2.08D-02 BMatP= 1.80D-01
 IDIUse=3 WtCom= 9.05D-01 WtEn= 9.46D-02
 Coeff-Com: -0.110D+00 0.111D+01
 Coeff-En:   0.000D+00 0.100D+01
 Coeff:     -0.993D-01 0.110D+01
 Gap=     0.396 Goal=   None    Shift=    0.000
 RMSDP=4.04D-04 MaxDP=1.16D-02 DE=-5.43D-02 OVMax= 9.68D-02

 Cycle   3  Pass 0  IDiag  1:
 E= -115.494776226270     Delta-E=       -0.052789354148 Rises=F Damp=F
 DIIS: error= 5.24D-03 at cycle   3 NSaved=   3.
 NSaved= 3 IEnMin= 3 EnMin= -115.494776226270     IErMin= 3 ErrMin= 5.24D-03
 ErrMax= 5.24D-03  0.00D+00 EMaxC= 1.00D-01 BMatC= 8.37D-03 BMatP= 2.08D-02
 IDIUse=3 WtCom= 9.48D-01 WtEn= 5.24D-02
 Coeff-Com: -0.148D+00 0.444D+00 0.704D+00
 Coeff-En:   0.000D+00 0.000D+00 0.100D+01
 Coeff:     -0.140D+00 0.421D+00 0.719D+00
 Gap=     0.379 Goal=   None    Shift=    0.000
 RMSDP=1.78D-04 MaxDP=7.42D-03 DE=-5.28D-02 OVMax= 2.53D-02

 Cycle   4  Pass 0  IDiag  1:
 E= -115.499766870882     Delta-E=       -0.004990644612 Rises=F Damp=F
 DIIS: error= 2.22D-03 at cycle   4 NSaved=   4.
 NSaved= 4 IEnMin= 4 EnMin= -115.499766870882     IErMin= 4 ErrMin= 2.22D-03
 ErrMax= 2.22D-03  0.00D+00 EMaxC= 1.00D-01 BMatC= 1.08D-03 BMatP= 8.37D-03
 IDIUse=3 WtCom= 9.78D-01 WtEn= 2.22D-02
 Coeff-Com: -0.518D-01 0.940D-01 0.329D+00 0.628D+00
 Coeff-En:   0.000D+00 0.000D+00 0.350D-01 0.965D+00
 Coeff:     -0.507D-01 0.920D-01 0.323D+00 0.636D+00
 Gap=     0.378 Goal=   None    Shift=    0.000
 RMSDP=5.37D-05 MaxDP=2.07D-03 DE=-4.99D-03 OVMax= 8.36D-03

 Cycle   5  Pass 0  IDiag  1:
 E= -115.500566755921     Delta-E=       -0.000799885039 Rises=F Damp=F
 DIIS: error= 2.14D-04 at cycle   5 NSaved=   5.
 NSaved= 5 IEnMin= 5 EnMin= -115.500566755921     IErMin= 5 ErrMin= 2.14D-04
 ErrMax= 2.14D-04  0.00D+00 EMaxC= 1.00D-01 BMatC= 8.70D-06 BMatP= 1.08D-03
 IDIUse=3 WtCom= 9.98D-01 WtEn= 2.14D-03
 Coeff-Com: -0.620D-02 0.576D-02 0.478D-01 0.143D+00 0.810D+00
 Coeff-En:   0.000D+00 0.000D+00 0.000D+00 0.000D+00 0.100D+01
 Coeff:     -0.619D-02 0.575D-02 0.477D-01 0.142D+00 0.810D+00
 Gap=     0.378 Goal=   None    Shift=    0.000
 RMSDP=8.31D-06 MaxDP=2.38D-04 DE=-8.00D-04 OVMax= 7.32D-04

 Initial convergence to 1.0D-05 achieved.  Increase integral accuracy.
 Cycle   6  Pass 1  IDiag  1:
 E= -115.500570911437     Delta-E=       -0.000004155517 Rises=F Damp=F
 DIIS: error= 2.08D-05 at cycle   1 NSaved=   1.
 NSaved= 1 IEnMin= 1 EnMin= -115.500570911437     IErMin= 1 ErrMin= 2.08D-05
 ErrMax= 2.08D-05  0.00D+00 EMaxC= 1.00D-01 BMatC= 1.81D-07 BMatP= 1.81D-07
 IDIUse=1 WtCom= 1.00D+00 WtEn= 0.00D+00
 Coeff-Com:  0.100D+01
 Coeff:      0.100D+01
 Gap=     0.378 Goal=   None    Shift=    0.000
 RMSDP=8.31D-06 MaxDP=2.38D-04 DE=-4.16D-06 OVMax= 2.28D-04

 Cycle   7  Pass 1  IDiag  1:
 E= -115.500571246898     Delta-E=       -0.000000335461 Rises=F Damp=F
 DIIS: error= 1.17D-05 at cycle   2 NSaved=   2.
 NSaved= 2 IEnMin= 2 EnMin= -115.500571246898     IErMin= 2 ErrMin= 1.17D-05
 ErrMax= 1.17D-05  0.00D+00 EMaxC= 1.00D-01 BMatC= 3.14D-08 BMatP= 1.81D-07
 IDIUse=1 WtCom= 1.00D+00 WtEn= 0.00D+00
 Coeff-Com:  0.889D-01 0.911D+00
 Coeff:      0.889D-01 0.911D+00
 Gap=     0.378 Goal=   None    Shift=    0.000
 RMSDP=7.20D-07 MaxDP=3.53D-05 DE=-3.35D-07 OVMax= 1.35D-04

 Cycle   8  Pass 1  IDiag  1:
 E= -115.500571274245     Delta-E=       -0.000000027347 Rises=F Damp=F
 DIIS: error= 1.13D-05 at cycle   3 NSaved=   3.
 NSaved= 3 IEnMin= 3 EnMin= -115.500571274245     IErMin= 3 ErrMin= 1.13D-05
 ErrMax= 1.13D-05  0.00D+00 EMaxC= 1.00D-01 BMatC= 2.79D-08 BMatP= 3.14D-08
 IDIUse=1 WtCom= 1.00D+00 WtEn= 0.00D+00
 Coeff-Com: -0.149D+00 0.524D+00 0.626D+00
 Coeff:     -0.149D+00 0.524D+00 0.626D+00
 Gap=     0.378 Goal=   None    Shift=    0.000
 RMSDP=4.18D-07 MaxDP=1.93D-05 DE=-2.73D-08 OVMax= 5.49D-05

 Cycle   9  Pass 1  IDiag  1:
 E= -115.500571295935     Delta-E=       -0.000000021690 Rises=F Damp=F
 DIIS: error= 1.42D-06 at cycle   4 NSaved=   4.
 NSaved= 4 IEnMin= 4 EnMin= -115.500571295935     IErMin= 4 ErrMin= 1.42D-06
 ErrMax= 1.42D-06  0.00D+00 EMaxC= 1.00D-01 BMatC= 4.04D-10 BMatP= 2.79D-08
 IDIUse=1 WtCom= 1.00D+00 WtEn= 0.00D+00
 Coeff-Com: -0.423D-01 0.455D-01 0.130D+00 0.867D+00
 Coeff:     -0.423D-01 0.455D-01 0.130D+00 0.867D+00
 Gap=     0.378 Goal=   None    Shift=    0.000
 RMSDP=8.03D-08 MaxDP=2.86D-06 DE=-2.17D-08 OVMax= 1.38D-05

 Cycle  10  Pass 1  IDiag  1:
 E= -115.500571296463     Delta-E=       -0.000000000528 Rises=F Damp=F
 DIIS: error= 5.27D-07 at cycle   5 NSaved=   5.
 NSaved= 5 IEnMin= 5 EnMin= -115.500571296463     IErMin= 5 ErrMin= 5.27D-07
 ErrMax= 5.27D-07  0.00D+00 EMaxC= 1.00D-01 BMatC= 3.23D-11 BMatP= 4.04D-10
 IDIUse=1 WtCom= 1.00D+00 WtEn= 0.00D+00
 Coeff-Com: -0.233D-02-0.131D-01-0.430D-02 0.216D+00 0.804D+00
 Coeff:     -0.233D-02-0.131D-01-0.430D-02 0.216D+00 0.804D+00
 Gap=     0.378 Goal=   None    Shift=    0.000
 RMSDP=1.94D-08 MaxDP=5.97D-07 DE=-5.28D-10 OVMax= 2.86D-06

 Cycle  11  Pass 1  IDiag  1:
 E= -115.500571296495     Delta-E=       -0.000000000033 Rises=F Damp=F
 DIIS: error= 1.40D-07 at cycle   6 NSaved=   6.
 NSaved= 6 IEnMin= 6 EnMin= -115.500571296495     IErMin= 6 ErrMin= 1.40D-07
 ErrMax= 1.40D-07  0.00D+00 EMaxC= 1.00D-01 BMatC= 3.58D-12 BMatP= 3.23D-11
 IDIUse=1 WtCom= 1.00D+00 WtEn= 0.00D+00
 Coeff-Com:  0.369D-02-0.996D-02-0.174D-01-0.117D-01 0.241D+00 0.795D+00
 Coeff:      0.369D-02-0.996D-02-0.174D-01-0.117D-01 0.241D+00 0.795D+00
 Gap=     0.378 Goal=   None    Shift=    0.000
 RMSDP=6.47D-09 MaxDP=1.99D-07 DE=-3.26D-11 OVMax= 8.34D-07

 SCF Done:  E(RB2PLYPD3) =  -115.500571296     A.U. after   11 cycles
            NFock= 11  Conv=0.65D-08     -V/T= 2.0033
 KE= 1.151177402369D+02 PE=-3.506437472616D+02 EE= 8.048175124846D+01
 Leave Link  502 at Wed Aug 26 16:04:38 2020, MaxMem=  2097152000 cpu:        60.2
 (Enter /opt/cluster/programs/g09/g09_d.01/g09/l801.exe)
 DoSCS=T DFT=T ScalE2(SS,OS)=  0.270000  0.270000
 ExpMin= 7.60D-02 ExpMax= 1.17D+05 ExpMxC= 1.13D+03 IAcc=3 IRadAn=         5 AccDes= 0.00D+00
 HarFok:  IExCor=  205 AccDes= 0.00D+00 IRadAn=         5 IDoV=-2 UseB2=F ITyADJ=14
 ICtDFT= 12500011 ScaDFX=  1.000000  1.000000  1.000000  1.000000
 Largest valence mixing into a core orbital is  1.08D-04
 Largest core mixing into a valence orbital is  1.42D-05
 Range of M.O.s used for correlation:     3   234
 NBasis=   234 NAE=     9 NBE=     9 NFC=     2 NFV=     0
 NROrb=    232 NOA=     7 NOB=     7 NVA=   225 NVB=   225

 **** Warning!!: The largest alpha MO coefficient is  0.33316226D+02

 Leave Link  801 at Wed Aug 26 16:04:39 2020, MaxMem=  2097152000 cpu:         0.6
 (Enter /opt/cluster/programs/g09/g09_d.01/g09/l906.exe)
 DoSCS=T DFT=T ScalE2(SS,OS)=  0.270000  0.270000
 FulOut=F Deriv=F AODrv=F NAtomX=     6
   MMem=        3646  MDisk=           7 MDiskD=           7
  W3Min=      447300 MinDsk=     1090093 NBas6D=         284
 NBas2D=       41310    NTT=       40470    LW2=     4508827
    MDV=  2096872788 MDiskM=       16391 NBas2p=       41295
 Fully in-core method, ICMem=  1722292712.
 IMap=   1   2   3   4   5   6   7
 JobTyp=1 Pass  1 fully in-core, NPsUse=  8.
 Compute canonical integrals.
 FoFCou: FMM=F IPFlag=           0 FMFlag=           0 FMFlg1=           0
         NFxFlg=           0 DoJE=F BraDBF=F KetDBF=F FulRan=T
         wScrn=  0.000000 ICntrl=     600 IOpCl=  1 I1Cent=           0 NGrid=           0
         NMat0=    1 NMatS0=  41310 NMatT0=    0 NMatD0=    1 NMtDS0=    0 NMtDT0=    0
 Symmetry not used in FoFCou.
 Spin components of T(2) and E(2):
     alpha-alpha T2 =       0.2292605124D-01 E2=     -0.1727229369D-01
     alpha-beta  T2 =       0.1457043551D+00 E2=     -0.1174030604D+00
     beta-beta   T2 =       0.2292605124D-01 E2=     -0.1727229369D-01
 The integrals were generated   1 times.
 E2(B2PLYPD3) =    -0.1519476478D+00 E(B2PLYPD3) =    -0.11565251894430D+03
 Leave Link  906 at Wed Aug 26 16:04:53 2020, MaxMem=  2097152000 cpu:       113.0
 (Enter /opt/cluster/programs/g09/g09_d.01/g09/l601.exe)
 Copying SCF densities to generalized density rwf, IOpCl= 0 IROHF=0.

 **********************************************************************

            Population analysis using the SCF density.

 **********************************************************************

 Orbital symmetries:
       Occupied  (A) (A) (A) (A) (A) (A) (A) (A) (A)
       Virtual   (A) (A) (A) (A) (A) (A) (A) (A) (A) (A) (A) (A)
                 (A) (A) (A) (A) (A) (A) (A) (A) (A) (A) (A) (A)
                 (A) (A) (A) (A) (A) (A) (A) (A) (A) (A) (A) (A)
                 (A) (A) (A) (A) (A) (A) (A) (A) (A) (A) (A) (A)
                 (A) (A) (A) (A) (A) (A) (A) (A) (A) (A) (A) (A)
                 (A) (A) (A) (A) (A) (A) (A) (A) (A) (A) (A) (A)
                 (A) (A) (A) (A) (A) (A) (A) (A) (A) (A) (A) (A)
                 (A) (A) (A) (A) (A) (A) (A) (A) (A) (A) (A) (A)
                 (A) (A) (A) (A) (A) (A) (A) (A) (A) (A) (A) (A)
                 (A) (A) (A) (A) (A) (A) (A) (A) (A) (A) (A) (A)
                 (A) (A) (A) (A) (A) (A) (A) (A) (A) (A) (A) (A)
                 (A) (A) (A) (A) (A) (A) (A) (A) (A) (A) (A) (A)
                 (A) (A) (A) (A) (A) (A) (A) (A) (A) (A) (A) (A)
                 (A) (A) (A) (A) (A) (A) (A) (A) (A) (A) (A) (A)
                 (A) (A) (A) (A) (A) (A) (A) (A) (A) (A) (A) (A)
                 (A) (A) (A) (A) (A) (A) (A) (A) (A) (A) (A) (A)
                 (A) (A) (A) (A) (A) (A) (A) (A) (A) (A) (A) (A)
                 (A) (A) (A) (A) (A) (A) (A) (A) (A) (A) (A) (A)
                 (A) (A) (A) (A) (A) (A) (A) (A) (A)
 The electronic state is 1-A.
 Alpha  occ. eigenvalues --  -19.74444 -10.63503  -1.11928  -0.79415  -0.55231
 Alpha  occ. eigenvalues --   -0.52644  -0.48716  -0.40152  -0.35515
 Alpha virt. eigenvalues --    0.02320   0.07420   0.12529   0.12910   0.14867
 Alpha virt. eigenvalues --    0.17404   0.18613   0.26100   0.29348   0.33372
 Alpha virt. eigenvalues --    0.33968   0.38541   0.39668   0.42703   0.43884
 Alpha virt. eigenvalues --    0.46974   0.52401   0.55163   0.57048   0.66175
 Alpha virt. eigenvalues --    0.71636   0.74749   0.76054   0.78433   0.80902
 Alpha virt. eigenvalues --    0.81678   0.84377   0.88404   0.91136   0.92867
 Alpha virt. eigenvalues --    0.96731   0.99036   1.01550   1.06955   1.11071
 Alpha virt. eigenvalues --    1.13729   1.15243   1.20810   1.32646   1.40573
 Alpha virt. eigenvalues --    1.42493   1.46970   1.49727   1.52381   1.56885
 Alpha virt. eigenvalues --    1.73772   1.80676   1.82252   1.83840   1.87312
 Alpha virt. eigenvalues --    1.88126   1.95016   1.96038   1.98158   2.03077
 Alpha virt. eigenvalues --    2.06737   2.14047   2.17117   2.17869   2.23021
 Alpha virt. eigenvalues --    2.24338   2.25633   2.30927   2.33433   2.34326
 Alpha virt. eigenvalues --    2.41355   2.47761   2.50371   2.55309   2.56844
 Alpha virt. eigenvalues --    2.60212   2.61300   2.66252   2.70031   2.76045
 Alpha virt. eigenvalues --    2.79738   2.88997   2.90088   2.91601   3.03160
 Alpha virt. eigenvalues --    3.08943   3.09457   3.14705   3.18496   3.23361
 Alpha virt. eigenvalues --    3.32348   3.33688   3.41656   3.45675   3.46014
 Alpha virt. eigenvalues --    3.61196   3.69851   3.79177   3.81333   3.84877
 Alpha virt. eigenvalues --    3.98092   4.07617   4.08969   4.12489   4.15993
 Alpha virt. eigenvalues --    4.18051   4.26549   4.29342   4.30666   4.39110
 Alpha virt. eigenvalues --    4.39286   4.50028   4.64930   4.72408   5.13741
 Alpha virt. eigenvalues --    5.17452   5.33905   5.44368   5.50202   5.59423
 Alpha virt. eigenvalues --    5.62039   5.69335   5.72825   5.78222   5.83570
 Alpha virt. eigenvalues --    5.90977   5.91852   6.00681   6.08023   6.09759
 Alpha virt. eigenvalues --    6.17777   6.21916   6.31796   6.34894   6.35734
 Alpha virt. eigenvalues --    6.39060   6.42238   6.47433   6.48565   6.49975
 Alpha virt. eigenvalues --    6.55468   6.65581   6.69423   6.75897   6.77383
 Alpha virt. eigenvalues --    6.82941   6.87437   6.91175   6.92828   6.96371
 Alpha virt. eigenvalues --    7.09111   7.18357   7.30910   7.33328   7.52107
 Alpha virt. eigenvalues --    7.60515   7.64417   7.66559   7.68818   7.72896
 Alpha virt. eigenvalues --    7.76775   7.78671   7.79715   7.82874   7.87903
 Alpha virt. eigenvalues --    7.93009   7.98064   8.06720   8.07975   8.10194
 Alpha virt. eigenvalues --    8.16115   8.27898   8.35395   8.38099   8.40676
 Alpha virt. eigenvalues --    8.48326   8.49293   8.51894   8.52896   8.56715
 Alpha virt. eigenvalues --    8.59612   8.68465   8.70553   8.74241   8.80941
 Alpha virt. eigenvalues --    8.87227   8.99011   9.12633   9.13406   9.24678
 Alpha virt. eigenvalues --    9.37874   9.42360   9.46435   9.70051   9.77073
 Alpha virt. eigenvalues --    9.89444   9.98444  10.08061  10.13385  10.27284
 Alpha virt. eigenvalues --   10.28076  10.42834  10.47785  10.57277  10.70781
 Alpha virt. eigenvalues --   10.76949  10.79225  10.95315  11.00890  11.11396
 Alpha virt. eigenvalues --   11.25840  11.59564  11.61106  11.81890  11.87066
 Alpha virt. eigenvalues --   11.98833  12.19317  12.24278  12.62234  12.64384
 Alpha virt. eigenvalues --   12.74747  12.81081  13.22533  13.60116  14.16880
 Alpha virt. eigenvalues --   14.59237  29.43417  48.45885 149.10404 254.17583
          Condensed to atoms (all electrons):
               1          2          3          4          5          6
     1  C    4.399876   0.273194   0.437514   0.447305   0.396678  -0.042895
     2  O    0.273194   8.052671  -0.036418  -0.042353  -0.036206   0.289143
     3  H    0.437514  -0.036418   0.662760  -0.066081  -0.043930  -0.007106
     4  H    0.447305  -0.042353  -0.066081   0.661870  -0.040032  -0.008571
     5  H    0.396678  -0.036206  -0.043930  -0.040032   0.655378   0.011134
     6  H   -0.042895   0.289143  -0.007106  -0.008571   0.011134   0.504692
 Mulliken charges:
               1
     1  C    0.088328
     2  O   -0.500031
     3  H    0.053261
     4  H    0.047861
     5  H    0.056978
     6  H    0.253603
 Sum of Mulliken charges =   0.00000
 Mulliken charges with hydrogens summed into heavy atoms:
               1
     1  C    0.246428
     2  O   -0.246428
 Electronic spatial extent (au):  <R**2>=             86.2566
 Charge=              0.0000 electrons
 Dipole moment (field-independent basis, Debye):
    X=              0.9299    Y=              1.7062    Z=              0.1691  Tot=              1.9505
 Quadrupole moment (field-independent basis, Debye-Ang):
   XX=            -12.5333   YY=            -12.0080   ZZ=            -13.9437
   XY=             -2.4984   XZ=             -0.1083   YZ=              0.0660
 Traceless Quadrupole moment (field-independent basis, Debye-Ang):
   XX=              0.2950   YY=              0.8203   ZZ=             -1.1153
   XY=             -2.4984   XZ=             -0.1083   YZ=              0.0660
 Octapole moment (field-independent basis, Debye-Ang**2):
  XXX=             -3.2723  YYY=              1.1265  ZZZ=              0.2883  XYY=             -2.1401
  XXY=              2.9744  XXZ=              0.3356  XZZ=              0.1396  YZZ=              0.4273
  YYZ=             -0.0086  XYZ=             -0.2362
 Hexadecapole moment (field-independent basis, Debye-Ang**3):
 XXXX=            -63.9501 YYYY=            -21.1589 ZZZZ=            -18.7680 XXXY=             -4.2671
 XXXZ=              0.0091 YYYX=             -3.1744 YYYZ=              0.1475 ZZZX=              0.2900
 ZZZY=             -0.0165 XXYY=            -12.4653 XXZZ=            -14.8577 YYZZ=             -6.9922
 XXYZ=              0.1514 YYXZ=             -0.2811 ZZXY=              0.2145
 N-N= 3.954368447981D+01 E-N=-3.506437583868D+02  KE= 1.151177402369D+02
 Leave Link  601 at Wed Aug 26 16:04:53 2020, MaxMem=  2097152000 cpu:         0.3
 (Enter /opt/cluster/programs/g09/g09_d.01/g09/l9999.exe)
 1\1\GINC-NODE31\SP\RB2PLYPD3-FC\def2QZVP\C1H4O1\BOITTIER\26-Aug-2020\0
 \\#p B2PLYPD3/Def2QZVP\\methanol\\0,1\C,0,-5.191306,-1.255104,0.90196\
 O,0,-3.755562,-1.127255,0.879258\H,0,-5.543753,-2.12639,0.611697\H,0,-
 5.712125,-0.512091,0.393616\H,0,-5.502082,-1.203909,1.928246\H,0,-3.42
 4246,-1.156355,-0.28428\\Version=ES64L-G09RevD.01\State=1-A\HF=-115.50
 05713\MP2=-115.6525189\RMSD=6.472e-09\PG=C01 [X(C1H4O1)]\\@


 Ideas are like rabbits. You get a couple and learn
 how to handle them, and pretty soon you have a dozen.
                                    -- John Steinbeck
 Job cpu time:       0 days  0 hours  3 minutes  1.1 seconds.
 File lengths (MBytes):  RWF=     23 Int=      0 D2E=      0 Chk=      4 Scr=      1
 Normal termination of Gaussian 09 at Wed Aug 26 16:04:53 2020.
