 Entering Gaussian System, Link 0=/opt/cluster/programs/g09/g09_d.01/g09//g09
 Input=/home/boittier/MDCM/nms_sampling/methanol_geom.xyz.dir/energies/methanol_1085_energy.com
 Output=/scratch/boittier/methanol_1085_energy/methanol_1085_energy.out
 Initial command:
 /opt/cluster/programs/g09/g09_d.01/g09/l1.exe "/scratch/boittier/methanol_1085_energy/Gau-38754.inp" -scrdir="/scratch/boittier/methanol_1085_energy/"
 Entering Link 1 = /opt/cluster/programs/g09/g09_d.01/g09/l1.exe PID=     38755.
  
 Copyright (c) 1988,1990,1992,1993,1995,1998,2003,2009,2013,
            Gaussian, Inc.  All Rights Reserved.
  
 This is part of the Gaussian(R) 09 program.  It is based on
 the Gaussian(R) 03 system (copyright 2003, Gaussian, Inc.),
 the Gaussian(R) 98 system (copyright 1998, Gaussian, Inc.),
 the Gaussian(R) 94 system (copyright 1995, Gaussian, Inc.),
 the Gaussian 92(TM) system (copyright 1992, Gaussian, Inc.),
 the Gaussian 90(TM) system (copyright 1990, Gaussian, Inc.),
 the Gaussian 88(TM) system (copyright 1988, Gaussian, Inc.),
 the Gaussian 86(TM) system (copyright 1986, Carnegie Mellon
 University), and the Gaussian 82(TM) system (copyright 1983,
 Carnegie Mellon University). Gaussian is a federally registered
 trademark of Gaussian, Inc.
  
 This software contains proprietary and confidential information,
 including trade secrets, belonging to Gaussian, Inc.
  
 This software is provided under written license and may be
 used, copied, transmitted, or stored only in accord with that
 written license.
  
 The following legend is applicable only to US Government
 contracts under FAR:
  
                    RESTRICTED RIGHTS LEGEND
  
 Use, reproduction and disclosure by the US Government is
 subject to restrictions as set forth in subparagraphs (a)
 and (c) of the Commercial Computer Software - Restricted
 Rights clause in FAR 52.227-19.
  
 Gaussian, Inc.
 340 Quinnipiac St., Bldg. 40, Wallingford CT 06492
  
  
 ---------------------------------------------------------------
 Warning -- This program may not be used in any manner that
 competes with the business of Gaussian, Inc. or will provide
 assistance to any competitor of Gaussian, Inc.  The licensee
 of this program is prohibited from giving any competitor of
 Gaussian, Inc. access to this program.  By using this program,
 the user acknowledges that Gaussian, Inc. is engaged in the
 business of creating and licensing software in the field of
 computational chemistry and represents and warrants to the
 licensee that it is not a competitor of Gaussian, Inc. and that
 it will not use this program in any manner prohibited above.
 ---------------------------------------------------------------
  

 Cite this work as:
 Gaussian 09, Revision D.01,
 M. J. Frisch, G. W. Trucks, H. B. Schlegel, G. E. Scuseria, 
 M. A. Robb, J. R. Cheeseman, G. Scalmani, V. Barone, B. Mennucci, 
 G. A. Petersson, H. Nakatsuji, M. Caricato, X. Li, H. P. Hratchian, 
 A. F. Izmaylov, J. Bloino, G. Zheng, J. L. Sonnenberg, M. Hada, 
 M. Ehara, K. Toyota, R. Fukuda, J. Hasegawa, M. Ishida, T. Nakajima, 
 Y. Honda, O. Kitao, H. Nakai, T. Vreven, J. A. Montgomery, Jr., 
 J. E. Peralta, F. Ogliaro, M. Bearpark, J. J. Heyd, E. Brothers, 
 K. N. Kudin, V. N. Staroverov, T. Keith, R. Kobayashi, J. Normand, 
 K. Raghavachari, A. Rendell, J. C. Burant, S. S. Iyengar, J. Tomasi, 
 M. Cossi, N. Rega, J. M. Millam, M. Klene, J. E. Knox, J. B. Cross, 
 V. Bakken, C. Adamo, J. Jaramillo, R. Gomperts, R. E. Stratmann, 
 O. Yazyev, A. J. Austin, R. Cammi, C. Pomelli, J. W. Ochterski, 
 R. L. Martin, K. Morokuma, V. G. Zakrzewski, G. A. Voth, 
 P. Salvador, J. J. Dannenberg, S. Dapprich, A. D. Daniels, 
 O. Farkas, J. B. Foresman, J. V. Ortiz, J. Cioslowski, 
 and D. J. Fox, Gaussian, Inc., Wallingford CT, 2013.
 
 ******************************************
 Gaussian 09:  ES64L-G09RevD.01 24-Apr-2013
                26-Aug-2020 
 ******************************************
 %chk=/home/boittier/MDCM/nms_sampling/methanol_geom.xyz.dir/methanol_1085.chk
 %nproc=8
 Will use up to    8 processors via shared memory.
 %mem=16000MB
 --------------------
 #p B2PLYPD3/Def2QZVP
 --------------------
 1/38=1/1;
 2/12=2,17=6,18=5,40=1/2;
 3/5=45,7=101,11=9,16=1,25=1,30=1,74=-60/1,2,3;
 4//1;
 5/5=2,38=5/2;
 8/10=1/1;
 9/16=-3/6;
 6/7=2,8=2,9=2,10=2/1;
 99/5=1,9=1/99;
 Leave Link    1 at Wed Aug 26 10:11:30 2020, MaxMem=  2097152000 cpu:         0.2
 (Enter /opt/cluster/programs/g09/g09_d.01/g09/l101.exe)
 --------
 methanol
 --------
 Symbolic Z-matrix:
 Charge =  0 Multiplicity = 1
 C                    -5.18245  -1.25395   0.90995 
 O                    -3.76155  -1.12381   0.85275 
 H                    -5.52412  -2.26028   0.51966 
 H                    -5.73467  -0.47021   0.34808 
 H                    -5.47942  -1.14984   2.03199 
 H                    -3.45969  -1.18119   0.08729 
 
 NAtoms=      6 NQM=        6 NQMF=       0 NMMI=      0 NMMIF=      0
                NMic=       0 NMicF=      0.
                    Isotopes and Nuclear Properties:
 (Nuclear quadrupole moments (NQMom) in fm**2, nuclear magnetic moments (NMagM)
  in nuclear magnetons)

  Atom         1           2           3           4           5           6
 IAtWgt=          12          16           1           1           1           1
 AtmWgt=  12.0000000  15.9949146   1.0078250   1.0078250   1.0078250   1.0078250
 NucSpn=           0           0           1           1           1           1
 AtZEff=   0.0000000   0.0000000   0.0000000   0.0000000   0.0000000   0.0000000
 NQMom=    0.0000000   0.0000000   0.0000000   0.0000000   0.0000000   0.0000000
 NMagM=    0.0000000   0.0000000   2.7928460   2.7928460   2.7928460   2.7928460
 AtZNuc=   6.0000000   8.0000000   1.0000000   1.0000000   1.0000000   1.0000000
 Leave Link  101 at Wed Aug 26 10:11:30 2020, MaxMem=  2097152000 cpu:         0.5
 (Enter /opt/cluster/programs/g09/g09_d.01/g09/l202.exe)
                          Input orientation:                          
 ---------------------------------------------------------------------
 Center     Atomic      Atomic             Coordinates (Angstroms)
 Number     Number       Type             X           Y           Z
 ---------------------------------------------------------------------
      1          6           0       -5.182446   -1.253945    0.909948
      2          8           0       -3.761550   -1.123811    0.852749
      3          1           0       -5.524115   -2.260277    0.519662
      4          1           0       -5.734672   -0.470213    0.348076
      5          1           0       -5.479422   -1.149839    2.031994
      6          1           0       -3.459694   -1.181193    0.087294
 ---------------------------------------------------------------------
                    Distance matrix (angstroms):
                    1          2          3          4          5
     1  C    0.000000
     2  O    1.427989   0.000000
     3  H    1.132151   2.123473   0.000000
     4  H    1.111256   2.138947   1.810554   0.000000
     5  H    1.165341   2.083838   1.876757   1.833746   0.000000
     6  H    1.910478   0.824822   2.369219   2.397712   2.803951
                    6
     6  H    0.000000
 Stoichiometry    CH4O
 Framework group  C1[X(CH4O)]
 Deg. of freedom    12
 Full point group                 C1      NOp   1
 Largest Abelian subgroup         C1      NOp   1
 Largest concise Abelian subgroup C1      NOp   1
                         Standard orientation:                         
 ---------------------------------------------------------------------
 Center     Atomic      Atomic             Coordinates (Angstroms)
 Number     Number       Type             X           Y           Z
 ---------------------------------------------------------------------
      1          6           0        0.665859   -0.022108    0.002090
      2          8           0       -0.756785    0.101096   -0.005507
      3          1           0        1.034758   -0.638534   -0.872951
      4          1           0        1.079058   -0.473754    0.929544
      5          1           0        1.092159    1.059644   -0.076011
      6          1           0       -1.146848   -0.623470    0.050937
 ---------------------------------------------------------------------
 Rotational constants (GHZ):    128.3254233     24.2918078     23.5636147
 Leave Link  202 at Wed Aug 26 10:11:30 2020, MaxMem=  2097152000 cpu:         0.0
 (Enter /opt/cluster/programs/g09/g09_d.01/g09/l301.exe)
 Standard basis: def2QZVP (5D, 7F)
 Ernie: Thresh=  0.10000D-02 Tol=  0.10000D-05 Strict=F.
 There are   284 symmetry adapted cartesian basis functions of A   symmetry.
 There are   234 symmetry adapted basis functions of A   symmetry.
   234 basis functions,   336 primitive gaussians,   284 cartesian basis functions
     9 alpha electrons        9 beta electrons
       nuclear repulsion energy        40.4682489163 Hartrees.
 IExCor=  419 DFT=T Ex+Corr=B2PLYPD3 ExCW=0 ScaHFX=  0.530000
 ScaDFX=  0.470000  0.470000  0.730000  0.730000 ScalE2=  0.270000  0.270000
 IRadAn=      0 IRanWt=     -1 IRanGd=            0 ICorTp=0 IEmpDi=141
 NAtoms=    6 NActive=    6 NUniq=    6 SFac= 1.00D+00 NAtFMM=   60 NAOKFM=F Big=F
 Integral buffers will be    131072 words long.
 Regular integral format.
 Two-electron integral symmetry is turned on.
 R6Disp:  Grimme-D3(BJ) Dispersion energy=       -0.0013056450 Hartrees.
 Nuclear repulsion after empirical dispersion term =       40.4669432713 Hartrees.
 Leave Link  301 at Wed Aug 26 10:11:30 2020, MaxMem=  2097152000 cpu:         0.5
 (Enter /opt/cluster/programs/g09/g09_d.01/g09/l302.exe)
 NPDir=0 NMtPBC=     1 NCelOv=     1 NCel=       1 NClECP=     1 NCelD=      1
         NCelK=      1 NCelE2=     1 NClLst=     1 CellRange=     0.0.
 One-electron integrals computed using PRISM.
   1 Symmetry operations used in ECPInt.
 ECPInt:  NShTT=    2775 NPrTT=    6207 LenC2=    2774 LenP2D=    5727.
 LDataN:  DoStor=T MaxTD1= 8 Len=  415
 NBasis=   234 RedAO= T EigKep=  1.20D-04  NBF=   234
 NBsUse=   234 1.00D-06 EigRej= -1.00D+00 NBFU=   234
 Precomputing XC quadrature grid using
 IXCGrd= 4 IRadAn=           0 IRanWt=          -1 IRanGd=           0 AccXCQ= 0.00D+00.
 Generated NRdTot=       0 NPtTot=           0 NUsed=           0 NTot=          32
 NSgBfM=   284   284   284   284   284 MxSgAt=     6 MxSgA2=     6.
 Leave Link  302 at Wed Aug 26 10:11:30 2020, MaxMem=  2097152000 cpu:         1.8
 (Enter /opt/cluster/programs/g09/g09_d.01/g09/l303.exe)
 DipDrv:  MaxL=1.
 Leave Link  303 at Wed Aug 26 10:11:30 2020, MaxMem=  2097152000 cpu:         0.2
 (Enter /opt/cluster/programs/g09/g09_d.01/g09/l401.exe)
 ExpMin= 7.60D-02 ExpMax= 1.17D+05 ExpMxC= 1.13D+03 IAcc=2 IRadAn=         4 AccDes= 0.00D+00
 Harris functional with IExCor=  419 and IRadAn=       4 diagonalized for initial guess.
 HarFok:  IExCor=  419 AccDes= 0.00D+00 IRadAn=         4 IDoV= 1 UseB2=F ITyADJ=14
 ICtDFT=  3500011 ScaDFX=  1.000000  1.000000  1.000000  1.000000
 FoFCou: FMM=F IPFlag=           0 FMFlag=      100000 FMFlg1=           0
         NFxFlg=           0 DoJE=T BraDBF=F KetDBF=T FulRan=T
         wScrn=  0.000000 ICntrl=     500 IOpCl=  0 I1Cent=   200000004 NGrid=           0
         NMat0=    1 NMatS0=      1 NMatT0=    0 NMatD0=    1 NMtDS0=    0 NMtDT0=    0
 Petite list used in FoFCou.
 Harris En= -115.793880411283    
 JPrj=0 DoOrth=F DoCkMO=F.
 Leave Link  401 at Wed Aug 26 10:11:31 2020, MaxMem=  2097152000 cpu:         3.2
 (Enter /opt/cluster/programs/g09/g09_d.01/g09/l502.exe)
 Closed shell SCF:
 Using DIIS extrapolation, IDIIS=  1040.
 Integral symmetry usage will be decided dynamically.
 Keep R1 ints in memory in canonical form, NReq=389840494.
 IVT=      264814 IEndB=      264814 NGot=  2097152000 MDV=  1718885927
 LenX=  1718885927 LenY=  1718804830
 Requested convergence on RMS density matrix=1.00D-08 within 128 cycles.
 Requested convergence on MAX density matrix=1.00D-06.
 Requested convergence on             energy=1.00D-06.
 No special actions if energy rises.
 FoFCou: FMM=F IPFlag=           0 FMFlag=           0 FMFlg1=           0
         NFxFlg=           0 DoJE=F BraDBF=F KetDBF=F FulRan=T
         wScrn=  0.000000 ICntrl=     600 IOpCl=  0 I1Cent=           0 NGrid=           0
         NMat0=    1 NMatS0=  27495 NMatT0=    0 NMatD0=    1 NMtDS0=    0 NMtDT0=    0
 Symmetry not used in FoFCou.
 Integral accuracy reduced to 1.0D-05 until final iterations.

 Cycle   1  Pass 0  IDiag  1:
 E= -115.422647568998    
 DIIS: error= 2.67D-02 at cycle   1 NSaved=   1.
 NSaved= 1 IEnMin= 1 EnMin= -115.422647568998     IErMin= 1 ErrMin= 2.67D-02
 ErrMax= 2.67D-02  0.00D+00 EMaxC= 1.00D-01 BMatC= 1.95D-01 BMatP= 1.95D-01
 IDIUse=3 WtCom= 7.33D-01 WtEn= 2.67D-01
 Coeff-Com:  0.100D+01
 Coeff-En:   0.100D+01
 Coeff:      0.100D+01
 Gap=     0.343 Goal=   None    Shift=    0.000
 GapD=    0.343 DampG=1.000 DampE=0.500 DampFc=0.5000 IDamp=-1.
 Damping current iteration by 5.00D-01
 RMSDP=1.35D-03 MaxDP=5.23D-02              OVMax= 1.57D-01

 Cycle   2  Pass 0  IDiag  1:
 E= -115.472860306637     Delta-E=       -0.050212737639 Rises=F Damp=T
 DIIS: error= 1.26D-02 at cycle   2 NSaved=   2.
 NSaved= 2 IEnMin= 2 EnMin= -115.472860306637     IErMin= 2 ErrMin= 1.26D-02
 ErrMax= 1.26D-02  0.00D+00 EMaxC= 1.00D-01 BMatC= 1.83D-02 BMatP= 1.95D-01
 IDIUse=3 WtCom= 8.74D-01 WtEn= 1.26D-01
 Coeff-Com: -0.110D+00 0.111D+01
 Coeff-En:   0.000D+00 0.100D+01
 Coeff:     -0.960D-01 0.110D+01
 Gap=     0.434 Goal=   None    Shift=    0.000
 RMSDP=3.35D-04 MaxDP=9.22D-03 DE=-5.02D-02 OVMax= 8.88D-02

 Cycle   3  Pass 0  IDiag  1:
 E= -115.523518734071     Delta-E=       -0.050658427434 Rises=F Damp=F
 DIIS: error= 4.53D-03 at cycle   3 NSaved=   3.
 NSaved= 3 IEnMin= 3 EnMin= -115.523518734071     IErMin= 3 ErrMin= 4.53D-03
 ErrMax= 4.53D-03  0.00D+00 EMaxC= 1.00D-01 BMatC= 3.36D-03 BMatP= 1.83D-02
 IDIUse=3 WtCom= 9.55D-01 WtEn= 4.53D-02
 Coeff-Com: -0.119D+00 0.280D+00 0.839D+00
 Coeff-En:   0.000D+00 0.000D+00 0.100D+01
 Coeff:     -0.113D+00 0.268D+00 0.846D+00
 Gap=     0.413 Goal=   None    Shift=    0.000
 RMSDP=1.07D-04 MaxDP=4.15D-03 DE=-5.07D-02 OVMax= 1.29D-02

 Cycle   4  Pass 0  IDiag  1:
 E= -115.525412716385     Delta-E=       -0.001893982314 Rises=F Damp=F
 DIIS: error= 1.68D-03 at cycle   4 NSaved=   4.
 NSaved= 4 IEnMin= 4 EnMin= -115.525412716385     IErMin= 4 ErrMin= 1.68D-03
 ErrMax= 1.68D-03  0.00D+00 EMaxC= 1.00D-01 BMatC= 3.45D-04 BMatP= 3.36D-03
 IDIUse=3 WtCom= 9.83D-01 WtEn= 1.68D-02
 Coeff-Com: -0.416D-01 0.726D-01 0.354D+00 0.615D+00
 Coeff-En:   0.000D+00 0.000D+00 0.000D+00 0.100D+01
 Coeff:     -0.409D-01 0.714D-01 0.348D+00 0.622D+00
 Gap=     0.411 Goal=   None    Shift=    0.000
 RMSDP=3.37D-05 MaxDP=1.72D-03 DE=-1.89D-03 OVMax= 4.87D-03

 Cycle   5  Pass 0  IDiag  1:
 E= -115.525697568419     Delta-E=       -0.000284852034 Rises=F Damp=F
 DIIS: error= 1.89D-04 at cycle   5 NSaved=   5.
 NSaved= 5 IEnMin= 5 EnMin= -115.525697568419     IErMin= 5 ErrMin= 1.89D-04
 ErrMax= 1.89D-04  0.00D+00 EMaxC= 1.00D-01 BMatC= 6.58D-06 BMatP= 3.45D-04
 IDIUse=3 WtCom= 9.98D-01 WtEn= 1.89D-03
 Coeff-Com: -0.647D-02 0.786D-02 0.620D-01 0.180D+00 0.757D+00
 Coeff-En:   0.000D+00 0.000D+00 0.000D+00 0.000D+00 0.100D+01
 Coeff:     -0.646D-02 0.785D-02 0.619D-01 0.180D+00 0.757D+00
 Gap=     0.412 Goal=   None    Shift=    0.000
 RMSDP=6.67D-06 MaxDP=1.97D-04 DE=-2.85D-04 OVMax= 6.01D-04

 Initial convergence to 1.0D-05 achieved.  Increase integral accuracy.
 Cycle   6  Pass 1  IDiag  1:
 E= -115.525702883527     Delta-E=       -0.000005315108 Rises=F Damp=F
 DIIS: error= 2.58D-05 at cycle   1 NSaved=   1.
 NSaved= 1 IEnMin= 1 EnMin= -115.525702883527     IErMin= 1 ErrMin= 2.58D-05
 ErrMax= 2.58D-05  0.00D+00 EMaxC= 1.00D-01 BMatC= 8.08D-08 BMatP= 8.08D-08
 IDIUse=1 WtCom= 1.00D+00 WtEn= 0.00D+00
 Coeff-Com:  0.100D+01
 Coeff:      0.100D+01
 Gap=     0.412 Goal=   None    Shift=    0.000
 RMSDP=6.67D-06 MaxDP=1.97D-04 DE=-5.32D-06 OVMax= 1.11D-04

 Cycle   7  Pass 1  IDiag  1:
 E= -115.525703003711     Delta-E=       -0.000000120184 Rises=F Damp=F
 DIIS: error= 4.63D-06 at cycle   2 NSaved=   2.
 NSaved= 2 IEnMin= 2 EnMin= -115.525703003711     IErMin= 2 ErrMin= 4.63D-06
 ErrMax= 4.63D-06  0.00D+00 EMaxC= 1.00D-01 BMatC= 4.81D-09 BMatP= 8.08D-08
 IDIUse=1 WtCom= 1.00D+00 WtEn= 0.00D+00
 Coeff-Com: -0.897D-01 0.109D+01
 Coeff:     -0.897D-01 0.109D+01
 Gap=     0.412 Goal=   None    Shift=    0.000
 RMSDP=5.11D-07 MaxDP=1.37D-05 DE=-1.20D-07 OVMax= 4.00D-05

 Cycle   8  Pass 1  IDiag  1:
 E= -115.525703013812     Delta-E=       -0.000000010102 Rises=F Damp=F
 DIIS: error= 2.65D-06 at cycle   3 NSaved=   3.
 NSaved= 3 IEnMin= 3 EnMin= -115.525703013812     IErMin= 3 ErrMin= 2.65D-06
 ErrMax= 2.65D-06  0.00D+00 EMaxC= 1.00D-01 BMatC= 7.94D-10 BMatP= 4.81D-09
 IDIUse=1 WtCom= 1.00D+00 WtEn= 0.00D+00
 Coeff-Com: -0.736D-01 0.193D+00 0.881D+00
 Coeff:     -0.736D-01 0.193D+00 0.881D+00
 Gap=     0.412 Goal=   None    Shift=    0.000
 RMSDP=1.34D-07 MaxDP=4.31D-06 DE=-1.01D-08 OVMax= 1.38D-05

 Cycle   9  Pass 1  IDiag  1:
 E= -115.525703014705     Delta-E=       -0.000000000892 Rises=F Damp=F
 DIIS: error= 9.51D-07 at cycle   4 NSaved=   4.
 NSaved= 4 IEnMin= 4 EnMin= -115.525703014705     IErMin= 4 ErrMin= 9.51D-07
 ErrMax= 9.51D-07  0.00D+00 EMaxC= 1.00D-01 BMatC= 2.01D-10 BMatP= 7.94D-10
 IDIUse=1 WtCom= 1.00D+00 WtEn= 0.00D+00
 Coeff-Com: -0.221D-01-0.100D-01 0.375D+00 0.657D+00
 Coeff:     -0.221D-01-0.100D-01 0.375D+00 0.657D+00
 Gap=     0.412 Goal=   None    Shift=    0.000
 RMSDP=3.21D-08 MaxDP=1.26D-06 DE=-8.92D-10 OVMax= 4.26D-06

 Cycle  10  Pass 1  IDiag  1:
 E= -115.525703014866     Delta-E=       -0.000000000162 Rises=F Damp=F
 DIIS: error= 2.47D-07 at cycle   5 NSaved=   5.
 NSaved= 5 IEnMin= 5 EnMin= -115.525703014866     IErMin= 5 ErrMin= 2.47D-07
 ErrMax= 2.47D-07  0.00D+00 EMaxC= 1.00D-01 BMatC= 7.25D-12 BMatP= 2.01D-10
 IDIUse=1 WtCom= 1.00D+00 WtEn= 0.00D+00
 Coeff-Com:  0.156D-02-0.248D-01 0.157D-01 0.152D+00 0.856D+00
 Coeff:      0.156D-02-0.248D-01 0.157D-01 0.152D+00 0.856D+00
 Gap=     0.412 Goal=   None    Shift=    0.000
 RMSDP=9.03D-09 MaxDP=3.41D-07 DE=-1.62D-10 OVMax= 1.23D-06

 SCF Done:  E(RB2PLYPD3) =  -115.525703015     A.U. after   10 cycles
            NFock= 10  Conv=0.90D-08     -V/T= 2.0019
 KE= 1.153020315307D+02 PE=-3.524272460715D+02 EE= 8.113256825468D+01
 Leave Link  502 at Wed Aug 26 10:11:45 2020, MaxMem=  2097152000 cpu:        70.2
 (Enter /opt/cluster/programs/g09/g09_d.01/g09/l801.exe)
 DoSCS=T DFT=T ScalE2(SS,OS)=  0.270000  0.270000
 ExpMin= 7.60D-02 ExpMax= 1.17D+05 ExpMxC= 1.13D+03 IAcc=3 IRadAn=         5 AccDes= 0.00D+00
 HarFok:  IExCor=  205 AccDes= 0.00D+00 IRadAn=         5 IDoV=-2 UseB2=F ITyADJ=14
 ICtDFT= 12500011 ScaDFX=  1.000000  1.000000  1.000000  1.000000
 Largest valence mixing into a core orbital is  1.21D-04
 Largest core mixing into a valence orbital is  1.55D-05
 Range of M.O.s used for correlation:     3   234
 NBasis=   234 NAE=     9 NBE=     9 NFC=     2 NFV=     0
 NROrb=    232 NOA=     7 NOB=     7 NVA=   225 NVB=   225

 **** Warning!!: The largest alpha MO coefficient is  0.27250228D+02

 Leave Link  801 at Wed Aug 26 10:11:45 2020, MaxMem=  2097152000 cpu:         0.6
 (Enter /opt/cluster/programs/g09/g09_d.01/g09/l906.exe)
 DoSCS=T DFT=T ScalE2(SS,OS)=  0.270000  0.270000
 FulOut=F Deriv=F AODrv=F NAtomX=     6
   MMem=        3646  MDisk=           7 MDiskD=           7
  W3Min=      447300 MinDsk=     1090093 NBas6D=         284
 NBas2D=       41310    NTT=       40470    LW2=     4508827
    MDV=  2096872660 MDiskM=       16391 NBas2p=       41304
 Fully in-core method, ICMem=  1722292712.
 IMap=   1   2   3   4   5   6   7
 JobTyp=1 Pass  1 fully in-core, NPsUse=  8.
 Compute canonical integrals.
 FoFCou: FMM=F IPFlag=           0 FMFlag=           0 FMFlg1=           0
         NFxFlg=           0 DoJE=F BraDBF=F KetDBF=F FulRan=T
         wScrn=  0.000000 ICntrl=     600 IOpCl=  1 I1Cent=           0 NGrid=           0
         NMat0=    1 NMatS0=  41310 NMatT0=    0 NMatD0=    1 NMtDS0=    0 NMtDT0=    0
 Symmetry not used in FoFCou.
 Spin components of T(2) and E(2):
     alpha-alpha T2 =       0.2013760797D-01 E2=     -0.1643370138D-01
     alpha-beta  T2 =       0.1292524983D+00 E2=     -0.1127353732D+00
     beta-beta   T2 =       0.2013760797D-01 E2=     -0.1643370138D-01
 The integrals were generated   1 times.
 E2(B2PLYPD3) =    -0.1456027760D+00 E(B2PLYPD3) =    -0.11567130579083D+03
 Leave Link  906 at Wed Aug 26 10:12:03 2020, MaxMem=  2097152000 cpu:       138.5
 (Enter /opt/cluster/programs/g09/g09_d.01/g09/l601.exe)
 Copying SCF densities to generalized density rwf, IOpCl= 0 IROHF=0.

 **********************************************************************

            Population analysis using the SCF density.

 **********************************************************************

 Orbital symmetries:
       Occupied  (A) (A) (A) (A) (A) (A) (A) (A) (A)
       Virtual   (A) (A) (A) (A) (A) (A) (A) (A) (A) (A) (A) (A)
                 (A) (A) (A) (A) (A) (A) (A) (A) (A) (A) (A) (A)
                 (A) (A) (A) (A) (A) (A) (A) (A) (A) (A) (A) (A)
                 (A) (A) (A) (A) (A) (A) (A) (A) (A) (A) (A) (A)
                 (A) (A) (A) (A) (A) (A) (A) (A) (A) (A) (A) (A)
                 (A) (A) (A) (A) (A) (A) (A) (A) (A) (A) (A) (A)
                 (A) (A) (A) (A) (A) (A) (A) (A) (A) (A) (A) (A)
                 (A) (A) (A) (A) (A) (A) (A) (A) (A) (A) (A) (A)
                 (A) (A) (A) (A) (A) (A) (A) (A) (A) (A) (A) (A)
                 (A) (A) (A) (A) (A) (A) (A) (A) (A) (A) (A) (A)
                 (A) (A) (A) (A) (A) (A) (A) (A) (A) (A) (A) (A)
                 (A) (A) (A) (A) (A) (A) (A) (A) (A) (A) (A) (A)
                 (A) (A) (A) (A) (A) (A) (A) (A) (A) (A) (A) (A)
                 (A) (A) (A) (A) (A) (A) (A) (A) (A) (A) (A) (A)
                 (A) (A) (A) (A) (A) (A) (A) (A) (A) (A) (A) (A)
                 (A) (A) (A) (A) (A) (A) (A) (A) (A) (A) (A) (A)
                 (A) (A) (A) (A) (A) (A) (A) (A) (A) (A) (A) (A)
                 (A) (A) (A) (A) (A) (A) (A) (A) (A) (A) (A) (A)
                 (A) (A) (A) (A) (A) (A) (A) (A) (A)
 The electronic state is 1-A.
 Alpha  occ. eigenvalues --  -19.71363 -10.67486  -1.19306  -0.79449  -0.60588
 Alpha  occ. eigenvalues --   -0.51260  -0.49406  -0.40825  -0.35827
 Alpha virt. eigenvalues --    0.05344   0.08574   0.11949   0.12235   0.14827
 Alpha virt. eigenvalues --    0.17072   0.18003   0.28993   0.32753   0.33407
 Alpha virt. eigenvalues --    0.36688   0.38578   0.39517   0.39961   0.42203
 Alpha virt. eigenvalues --    0.47618   0.52757   0.56755   0.59651   0.67025
 Alpha virt. eigenvalues --    0.70711   0.72472   0.74356   0.78344   0.79308
 Alpha virt. eigenvalues --    0.82250   0.86155   0.87995   0.93223   0.96064
 Alpha virt. eigenvalues --    1.01021   1.02626   1.03995   1.10059   1.11159
 Alpha virt. eigenvalues --    1.11350   1.19937   1.24393   1.29761   1.39360
 Alpha virt. eigenvalues --    1.39740   1.40430   1.42483   1.47248   1.49930
 Alpha virt. eigenvalues --    1.78466   1.79685   1.83665   1.88815   1.89823
 Alpha virt. eigenvalues --    1.93241   1.94517   1.96857   1.99271   2.03728
 Alpha virt. eigenvalues --    2.04609   2.14059   2.18722   2.20127   2.21071
 Alpha virt. eigenvalues --    2.24839   2.29432   2.31023   2.36567   2.40039
 Alpha virt. eigenvalues --    2.43725   2.46753   2.57173   2.60733   2.62329
 Alpha virt. eigenvalues --    2.65038   2.69215   2.70537   2.79233   2.84222
 Alpha virt. eigenvalues --    2.86124   2.90016   2.91762   2.92666   2.94899
 Alpha virt. eigenvalues --    2.96280   3.06365   3.07544   3.11382   3.19241
 Alpha virt. eigenvalues --    3.21004   3.29647   3.31734   3.33206   3.39351
 Alpha virt. eigenvalues --    3.44703   3.62358   3.68168   3.78664   3.85193
 Alpha virt. eigenvalues --    3.86847   3.96597   4.02620   4.04163   4.14662
 Alpha virt. eigenvalues --    4.18805   4.20804   4.28601   4.34766   4.54008
 Alpha virt. eigenvalues --    4.55343   4.73432   4.76947   4.95534   5.23766
 Alpha virt. eigenvalues --    5.39078   5.40875   5.49390   5.64344   5.70621
 Alpha virt. eigenvalues --    5.71715   5.76157   5.84621   5.86801   5.87719
 Alpha virt. eigenvalues --    5.90598   5.98480   6.01481   6.04498   6.10447
 Alpha virt. eigenvalues --    6.14803   6.18496   6.26376   6.27734   6.29596
 Alpha virt. eigenvalues --    6.31834   6.34588   6.38898   6.46472   6.47272
 Alpha virt. eigenvalues --    6.54044   6.60710   6.64279   6.74873   6.88308
 Alpha virt. eigenvalues --    6.91735   7.00087   7.00564   7.14626   7.22883
 Alpha virt. eigenvalues --    7.27521   7.28542   7.29260   7.31358   7.37362
 Alpha virt. eigenvalues --    7.44581   7.49614   7.53578   7.62273   7.66671
 Alpha virt. eigenvalues --    7.71584   7.73405   7.76469   7.78093   7.79066
 Alpha virt. eigenvalues --    7.87132   7.88243   7.95001   7.99110   8.11193
 Alpha virt. eigenvalues --    8.14495   8.22503   8.31194   8.34041   8.37730
 Alpha virt. eigenvalues --    8.41834   8.43511   8.46292   8.49735   8.52352
 Alpha virt. eigenvalues --    8.57431   8.73790   8.78893   8.85000   8.86819
 Alpha virt. eigenvalues --    8.91153   8.96460   9.03475   9.39528   9.44616
 Alpha virt. eigenvalues --    9.51729   9.58963   9.62920   9.66076   9.69336
 Alpha virt. eigenvalues --    9.71773   9.76478   9.91377   9.97116   9.99893
 Alpha virt. eigenvalues --   10.12914  10.20679  10.30448  10.32583  10.69674
 Alpha virt. eigenvalues --   11.02713  11.15541  11.34569  11.48407  11.63811
 Alpha virt. eigenvalues --   11.75322  11.88863  11.99577  12.11357  12.13710
 Alpha virt. eigenvalues --   12.60719  12.64392  12.80502  12.85404  12.91056
 Alpha virt. eigenvalues --   13.02645  13.50763  14.90813  15.26044  15.34914
 Alpha virt. eigenvalues --   16.64464  29.04967  49.03400 148.61664 254.87261
          Condensed to atoms (all electrons):
               1          2          3          4          5          6
     1  C    4.459407   0.277082   0.426722   0.420762   0.397729  -0.042208
     2  O    0.277082   7.887729  -0.050719  -0.045743  -0.036767   0.348646
     3  H    0.426722  -0.050719   0.660623  -0.050311  -0.033055  -0.003585
     4  H    0.420762  -0.045743  -0.050311   0.661863  -0.036470  -0.004214
     5  H    0.397729  -0.036767  -0.033055  -0.036470   0.630081   0.007904
     6  H   -0.042208   0.348646  -0.003585  -0.004214   0.007904   0.548751
 Mulliken charges:
               1
     1  C    0.060506
     2  O   -0.380228
     3  H    0.050325
     4  H    0.054114
     5  H    0.070578
     6  H    0.144706
 Sum of Mulliken charges =   0.00000
 Mulliken charges with hydrogens summed into heavy atoms:
               1
     1  C    0.235522
     2  O   -0.235522
 Electronic spatial extent (au):  <R**2>=             85.6968
 Charge=              0.0000 electrons
 Dipole moment (field-independent basis, Debye):
    X=              0.8592    Y=             -1.3865    Z=              0.1285  Tot=              1.6362
 Quadrupole moment (field-independent basis, Debye-Ang):
   XX=            -12.8883   YY=            -12.4713   ZZ=            -13.7828
   XY=              2.0566   XZ=             -0.0881   YZ=             -0.0708
 Traceless Quadrupole moment (field-independent basis, Debye-Ang):
   XX=              0.1592   YY=              0.5762   ZZ=             -0.7354
   XY=              2.0566   XZ=             -0.0881   YZ=             -0.0708
 Octapole moment (field-independent basis, Debye-Ang**2):
  XXX=             -5.2127  YYY=             -0.3249  ZZZ=              0.2268  XYY=             -1.5429
  XXY=             -2.3356  XXZ=              0.3065  XZZ=             -0.5210  YZZ=             -0.7951
  YYZ=             -0.0813  XYZ=              0.1019
 Hexadecapole moment (field-independent basis, Debye-Ang**3):
 XXXX=            -63.4340 YYYY=            -21.1257 ZZZZ=            -20.7723 XXXY=              3.7421
 XXXZ=             -0.0283 YYYX=              2.8526 YYYZ=             -0.1122 ZZZX=              0.1620
 ZZZY=             -0.0232 XXYY=            -13.3048 XXZZ=            -14.7514 YYZZ=             -7.1049
 XXYZ=             -0.1694 YYXZ=             -0.2257 ZZXY=             -0.2339
 N-N= 4.046694327126D+01 E-N=-3.524272219736D+02  KE= 1.153020315307D+02
 Leave Link  601 at Wed Aug 26 10:12:03 2020, MaxMem=  2097152000 cpu:         0.3
 (Enter /opt/cluster/programs/g09/g09_d.01/g09/l9999.exe)
 1\1\GINC-NODE29\SP\RB2PLYPD3-FC\def2QZVP\C1H4O1\BOITTIER\26-Aug-2020\0
 \\#p B2PLYPD3/Def2QZVP\\methanol\\0,1\C,0,-5.182446,-1.253945,0.909948
 \O,0,-3.76155,-1.123811,0.852749\H,0,-5.524115,-2.260277,0.519662\H,0,
 -5.734672,-0.470213,0.348076\H,0,-5.479422,-1.149839,2.031994\H,0,-3.4
 59694,-1.181193,0.087294\\Version=ES64L-G09RevD.01\State=1-A\HF=-115.5
 25703\MP2=-115.6713058\RMSD=9.029e-09\PG=C01 [X(C1H4O1)]\\@


 OUR LITTLE SYSTEMS HAVE THEIR DAY,    
   THEY HAVE THEIR DAY AND CEASE TO BE.
   THEY ARE BUT BROKEN LIGHTS OF THEE, 
 AND THOU, OH LORD, ART MORE THAN THEY.
          -------------------          
 LET KNOWLEDGE GROW FROM MORE TO MORE, 
   BUT MORE OF REVERENCE IN US DWELL.  
   THAT MIND AND SOUL, ACCORDING WELL, 
 MAY MAKE ONE MUSIC AS BEFORE.....     
          -------------------          
                    LORD TENNYSON      
 Job cpu time:       0 days  0 hours  3 minutes 36.5 seconds.
 File lengths (MBytes):  RWF=     23 Int=      0 D2E=      0 Chk=      4 Scr=      1
 Normal termination of Gaussian 09 at Wed Aug 26 10:12:03 2020.
