 Entering Gaussian System, Link 0=/opt/cluster/programs/g09/g09_d.01/g09//g09
 Input=/home/boittier/MDCM/nms_sampling/methanol_geom.xyz.dir/energies/methanol_2299_energy.com
 Output=/scratch/boittier/methanol_2299_energy/methanol_2299_energy.out
 Initial command:
 /opt/cluster/programs/g09/g09_d.01/g09/l1.exe "/scratch/boittier/methanol_2299_energy/Gau-154367.inp" -scrdir="/scratch/boittier/methanol_2299_energy/"
 Entering Link 1 = /opt/cluster/programs/g09/g09_d.01/g09/l1.exe PID=    154368.
  
 Copyright (c) 1988,1990,1992,1993,1995,1998,2003,2009,2013,
            Gaussian, Inc.  All Rights Reserved.
  
 This is part of the Gaussian(R) 09 program.  It is based on
 the Gaussian(R) 03 system (copyright 2003, Gaussian, Inc.),
 the Gaussian(R) 98 system (copyright 1998, Gaussian, Inc.),
 the Gaussian(R) 94 system (copyright 1995, Gaussian, Inc.),
 the Gaussian 92(TM) system (copyright 1992, Gaussian, Inc.),
 the Gaussian 90(TM) system (copyright 1990, Gaussian, Inc.),
 the Gaussian 88(TM) system (copyright 1988, Gaussian, Inc.),
 the Gaussian 86(TM) system (copyright 1986, Carnegie Mellon
 University), and the Gaussian 82(TM) system (copyright 1983,
 Carnegie Mellon University). Gaussian is a federally registered
 trademark of Gaussian, Inc.
  
 This software contains proprietary and confidential information,
 including trade secrets, belonging to Gaussian, Inc.
  
 This software is provided under written license and may be
 used, copied, transmitted, or stored only in accord with that
 written license.
  
 The following legend is applicable only to US Government
 contracts under FAR:
  
                    RESTRICTED RIGHTS LEGEND
  
 Use, reproduction and disclosure by the US Government is
 subject to restrictions as set forth in subparagraphs (a)
 and (c) of the Commercial Computer Software - Restricted
 Rights clause in FAR 52.227-19.
  
 Gaussian, Inc.
 340 Quinnipiac St., Bldg. 40, Wallingford CT 06492
  
  
 ---------------------------------------------------------------
 Warning -- This program may not be used in any manner that
 competes with the business of Gaussian, Inc. or will provide
 assistance to any competitor of Gaussian, Inc.  The licensee
 of this program is prohibited from giving any competitor of
 Gaussian, Inc. access to this program.  By using this program,
 the user acknowledges that Gaussian, Inc. is engaged in the
 business of creating and licensing software in the field of
 computational chemistry and represents and warrants to the
 licensee that it is not a competitor of Gaussian, Inc. and that
 it will not use this program in any manner prohibited above.
 ---------------------------------------------------------------
  

 Cite this work as:
 Gaussian 09, Revision D.01,
 M. J. Frisch, G. W. Trucks, H. B. Schlegel, G. E. Scuseria, 
 M. A. Robb, J. R. Cheeseman, G. Scalmani, V. Barone, B. Mennucci, 
 G. A. Petersson, H. Nakatsuji, M. Caricato, X. Li, H. P. Hratchian, 
 A. F. Izmaylov, J. Bloino, G. Zheng, J. L. Sonnenberg, M. Hada, 
 M. Ehara, K. Toyota, R. Fukuda, J. Hasegawa, M. Ishida, T. Nakajima, 
 Y. Honda, O. Kitao, H. Nakai, T. Vreven, J. A. Montgomery, Jr., 
 J. E. Peralta, F. Ogliaro, M. Bearpark, J. J. Heyd, E. Brothers, 
 K. N. Kudin, V. N. Staroverov, T. Keith, R. Kobayashi, J. Normand, 
 K. Raghavachari, A. Rendell, J. C. Burant, S. S. Iyengar, J. Tomasi, 
 M. Cossi, N. Rega, J. M. Millam, M. Klene, J. E. Knox, J. B. Cross, 
 V. Bakken, C. Adamo, J. Jaramillo, R. Gomperts, R. E. Stratmann, 
 O. Yazyev, A. J. Austin, R. Cammi, C. Pomelli, J. W. Ochterski, 
 R. L. Martin, K. Morokuma, V. G. Zakrzewski, G. A. Voth, 
 P. Salvador, J. J. Dannenberg, S. Dapprich, A. D. Daniels, 
 O. Farkas, J. B. Foresman, J. V. Ortiz, J. Cioslowski, 
 and D. J. Fox, Gaussian, Inc., Wallingford CT, 2013.
 
 ******************************************
 Gaussian 09:  ES64L-G09RevD.01 24-Apr-2013
                26-Aug-2020 
 ******************************************
 %chk=/home/boittier/MDCM/nms_sampling/methanol_geom.xyz.dir/methanol_2299.chk
 %nproc=8
 Will use up to    8 processors via shared memory.
 %mem=16000MB
 --------------------
 #p B2PLYPD3/Def2QZVP
 --------------------
 1/38=1/1;
 2/12=2,17=6,18=5,40=1/2;
 3/5=45,7=101,11=9,16=1,25=1,30=1,74=-60/1,2,3;
 4//1;
 5/5=2,38=5/2;
 8/10=1/1;
 9/16=-3/6;
 6/7=2,8=2,9=2,10=2/1;
 99/5=1,9=1/99;
 Leave Link    1 at Wed Aug 26 16:13:19 2020, MaxMem=  2097152000 cpu:         0.2
 (Enter /opt/cluster/programs/g09/g09_d.01/g09/l101.exe)
 --------
 methanol
 --------
 Symbolic Z-matrix:
 Charge =  0 Multiplicity = 1
 C                    -5.18631  -1.25075   0.91736 
 O                    -3.76137  -1.12485   0.8427 
 H                    -5.52867  -2.28652   0.50542 
 H                    -5.63489  -0.41332   0.3577 
 H                    -5.53038  -1.16467   2.03699 
 H                    -3.46108  -1.21837   0.16627 
 
 NAtoms=      6 NQM=        6 NQMF=       0 NMMI=      0 NMMIF=      0
                NMic=       0 NMicF=      0.
                    Isotopes and Nuclear Properties:
 (Nuclear quadrupole moments (NQMom) in fm**2, nuclear magnetic moments (NMagM)
  in nuclear magnetons)

  Atom         1           2           3           4           5           6
 IAtWgt=          12          16           1           1           1           1
 AtmWgt=  12.0000000  15.9949146   1.0078250   1.0078250   1.0078250   1.0078250
 NucSpn=           0           0           1           1           1           1
 AtZEff=   0.0000000   0.0000000   0.0000000   0.0000000   0.0000000   0.0000000
 NQMom=    0.0000000   0.0000000   0.0000000   0.0000000   0.0000000   0.0000000
 NMagM=    0.0000000   0.0000000   2.7928460   2.7928460   2.7928460   2.7928460
 AtZNuc=   6.0000000   8.0000000   1.0000000   1.0000000   1.0000000   1.0000000
 Leave Link  101 at Wed Aug 26 16:13:19 2020, MaxMem=  2097152000 cpu:         0.6
 (Enter /opt/cluster/programs/g09/g09_d.01/g09/l202.exe)
                          Input orientation:                          
 ---------------------------------------------------------------------
 Center     Atomic      Atomic             Coordinates (Angstroms)
 Number     Number       Type             X           Y           Z
 ---------------------------------------------------------------------
      1          6           0       -5.186306   -1.250754    0.917357
      2          8           0       -3.761367   -1.124845    0.842703
      3          1           0       -5.528675   -2.286523    0.505419
      4          1           0       -5.634893   -0.413324    0.357704
      5          1           0       -5.530385   -1.164665    2.036985
      6          1           0       -3.461078   -1.218367    0.166267
 ---------------------------------------------------------------------
                    Distance matrix (angstroms):
                    1          2          3          4          5
     1  C    0.000000
     2  O    1.432438   0.000000
     3  H    1.166073   2.141643   0.000000
     4  H    1.102602   2.061937   1.882014   0.000000
     5  H    1.174465   2.134788   1.898490   1.842667   0.000000
     6  H    1.881913   0.745980   2.351795   2.325987   2.790072
                    6
     6  H    0.000000
 Stoichiometry    CH4O
 Framework group  C1[X(CH4O)]
 Deg. of freedom    12
 Full point group                 C1      NOp   1
 Largest Abelian subgroup         C1      NOp   1
 Largest concise Abelian subgroup C1      NOp   1
                         Standard orientation:                         
 ---------------------------------------------------------------------
 Center     Atomic      Atomic             Coordinates (Angstroms)
 Number     Number       Type             X           Y           Z
 ---------------------------------------------------------------------
      1          6           0        0.670918   -0.022774    0.011580
      2          8           0       -0.756294    0.094644   -0.022435
      3          1           0        1.035938   -0.814047   -0.763258
      4          1           0        0.969785   -0.281977    1.040765
      5          1           0        1.156963    1.011909   -0.257789
      6          1           0       -1.137839   -0.536389    0.090286
 ---------------------------------------------------------------------
 Rotational constants (GHZ):    128.0609133     24.1879566     23.7070623
 Leave Link  202 at Wed Aug 26 16:13:20 2020, MaxMem=  2097152000 cpu:         0.0
 (Enter /opt/cluster/programs/g09/g09_d.01/g09/l301.exe)
 Standard basis: def2QZVP (5D, 7F)
 Ernie: Thresh=  0.10000D-02 Tol=  0.10000D-05 Strict=F.
 There are   284 symmetry adapted cartesian basis functions of A   symmetry.
 There are   234 symmetry adapted basis functions of A   symmetry.
   234 basis functions,   336 primitive gaussians,   284 cartesian basis functions
     9 alpha electrons        9 beta electrons
       nuclear repulsion energy        40.9025557577 Hartrees.
 IExCor=  419 DFT=T Ex+Corr=B2PLYPD3 ExCW=0 ScaHFX=  0.530000
 ScaDFX=  0.470000  0.470000  0.730000  0.730000 ScalE2=  0.270000  0.270000
 IRadAn=      0 IRanWt=     -1 IRanGd=            0 ICorTp=0 IEmpDi=141
 NAtoms=    6 NActive=    6 NUniq=    6 SFac= 1.00D+00 NAtFMM=   60 NAOKFM=F Big=F
 Integral buffers will be    131072 words long.
 Regular integral format.
 Two-electron integral symmetry is turned on.
 R6Disp:  Grimme-D3(BJ) Dispersion energy=       -0.0013077757 Hartrees.
 Nuclear repulsion after empirical dispersion term =       40.9012479820 Hartrees.
 Leave Link  301 at Wed Aug 26 16:13:20 2020, MaxMem=  2097152000 cpu:         0.5
 (Enter /opt/cluster/programs/g09/g09_d.01/g09/l302.exe)
 NPDir=0 NMtPBC=     1 NCelOv=     1 NCel=       1 NClECP=     1 NCelD=      1
         NCelK=      1 NCelE2=     1 NClLst=     1 CellRange=     0.0.
 One-electron integrals computed using PRISM.
   1 Symmetry operations used in ECPInt.
 ECPInt:  NShTT=    2775 NPrTT=    6207 LenC2=    2773 LenP2D=    5732.
 LDataN:  DoStor=T MaxTD1= 8 Len=  415
 NBasis=   234 RedAO= T EigKep=  7.71D-05  NBF=   234
 NBsUse=   234 1.00D-06 EigRej= -1.00D+00 NBFU=   234
 Precomputing XC quadrature grid using
 IXCGrd= 4 IRadAn=           0 IRanWt=          -1 IRanGd=           0 AccXCQ= 0.00D+00.
 Generated NRdTot=       0 NPtTot=           0 NUsed=           0 NTot=          32
 NSgBfM=   284   284   284   284   284 MxSgAt=     6 MxSgA2=     6.
 Leave Link  302 at Wed Aug 26 16:13:20 2020, MaxMem=  2097152000 cpu:         2.0
 (Enter /opt/cluster/programs/g09/g09_d.01/g09/l303.exe)
 DipDrv:  MaxL=1.
 Leave Link  303 at Wed Aug 26 16:13:20 2020, MaxMem=  2097152000 cpu:         0.2
 (Enter /opt/cluster/programs/g09/g09_d.01/g09/l401.exe)
 ExpMin= 7.60D-02 ExpMax= 1.17D+05 ExpMxC= 1.13D+03 IAcc=2 IRadAn=         4 AccDes= 0.00D+00
 Harris functional with IExCor=  419 and IRadAn=       4 diagonalized for initial guess.
 HarFok:  IExCor=  419 AccDes= 0.00D+00 IRadAn=         4 IDoV= 1 UseB2=F ITyADJ=14
 ICtDFT=  3500011 ScaDFX=  1.000000  1.000000  1.000000  1.000000
 FoFCou: FMM=F IPFlag=           0 FMFlag=      100000 FMFlg1=           0
         NFxFlg=           0 DoJE=T BraDBF=F KetDBF=T FulRan=T
         wScrn=  0.000000 ICntrl=     500 IOpCl=  0 I1Cent=   200000004 NGrid=           0
         NMat0=    1 NMatS0=      1 NMatT0=    0 NMatD0=    1 NMtDS0=    0 NMtDT0=    0
 Petite list used in FoFCou.
 Harris En= -115.751163270284    
 JPrj=0 DoOrth=F DoCkMO=F.
 Leave Link  401 at Wed Aug 26 16:13:21 2020, MaxMem=  2097152000 cpu:         3.5
 (Enter /opt/cluster/programs/g09/g09_d.01/g09/l502.exe)
 Closed shell SCF:
 Using DIIS extrapolation, IDIIS=  1040.
 Integral symmetry usage will be decided dynamically.
 Keep R1 ints in memory in canonical form, NReq=389840494.
 IVT=      264814 IEndB=      264814 NGot=  2097152000 MDV=  1718885927
 LenX=  1718885927 LenY=  1718804830
 Requested convergence on RMS density matrix=1.00D-08 within 128 cycles.
 Requested convergence on MAX density matrix=1.00D-06.
 Requested convergence on             energy=1.00D-06.
 No special actions if energy rises.
 FoFCou: FMM=F IPFlag=           0 FMFlag=           0 FMFlg1=           0
         NFxFlg=           0 DoJE=F BraDBF=F KetDBF=F FulRan=T
         wScrn=  0.000000 ICntrl=     600 IOpCl=  0 I1Cent=           0 NGrid=           0
         NMat0=    1 NMatS0=  27495 NMatT0=    0 NMatD0=    1 NMtDS0=    0 NMtDT0=    0
 Symmetry not used in FoFCou.
 Integral accuracy reduced to 1.0D-05 until final iterations.

 Cycle   1  Pass 0  IDiag  1:
 E= -115.353606138021    
 DIIS: error= 2.59D-02 at cycle   1 NSaved=   1.
 NSaved= 1 IEnMin= 1 EnMin= -115.353606138021     IErMin= 1 ErrMin= 2.59D-02
 ErrMax= 2.59D-02  0.00D+00 EMaxC= 1.00D-01 BMatC= 2.26D-01 BMatP= 2.26D-01
 IDIUse=3 WtCom= 7.41D-01 WtEn= 2.59D-01
 Coeff-Com:  0.100D+01
 Coeff-En:   0.100D+01
 Coeff:      0.100D+01
 Gap=     0.344 Goal=   None    Shift=    0.000
 GapD=    0.344 DampG=1.000 DampE=0.500 DampFc=0.5000 IDamp=-1.
 Damping current iteration by 5.00D-01
 RMSDP=1.48D-03 MaxDP=5.90D-02              OVMax= 1.77D-01

 Cycle   2  Pass 0  IDiag  1:
 E= -115.411083806917     Delta-E=       -0.057477668896 Rises=F Damp=T
 DIIS: error= 1.29D-02 at cycle   2 NSaved=   2.
 NSaved= 2 IEnMin= 2 EnMin= -115.411083806917     IErMin= 2 ErrMin= 1.29D-02
 ErrMax= 1.29D-02  0.00D+00 EMaxC= 1.00D-01 BMatC= 1.87D-02 BMatP= 2.26D-01
 IDIUse=3 WtCom= 8.71D-01 WtEn= 1.29D-01
 Coeff-Com: -0.937D-01 0.109D+01
 Coeff-En:   0.000D+00 0.100D+01
 Coeff:     -0.816D-01 0.108D+01
 Gap=     0.437 Goal=   None    Shift=    0.000
 RMSDP=3.64D-04 MaxDP=1.11D-02 DE=-5.75D-02 OVMax= 9.69D-02

 Cycle   3  Pass 0  IDiag  1:
 E= -115.470295378862     Delta-E=       -0.059211571945 Rises=F Damp=F
 DIIS: error= 4.44D-03 at cycle   3 NSaved=   3.
 NSaved= 3 IEnMin= 3 EnMin= -115.470295378862     IErMin= 3 ErrMin= 4.44D-03
 ErrMax= 4.44D-03  0.00D+00 EMaxC= 1.00D-01 BMatC= 3.20D-03 BMatP= 1.87D-02
 IDIUse=3 WtCom= 9.56D-01 WtEn= 4.44D-02
 Coeff-Com: -0.107D+00 0.253D+00 0.853D+00
 Coeff-En:   0.000D+00 0.000D+00 0.100D+01
 Coeff:     -0.102D+00 0.242D+00 0.860D+00
 Gap=     0.416 Goal=   None    Shift=    0.000
 RMSDP=1.05D-04 MaxDP=4.06D-03 DE=-5.92D-02 OVMax= 1.27D-02

 Cycle   4  Pass 0  IDiag  1:
 E= -115.472122236361     Delta-E=       -0.001826857499 Rises=F Damp=F
 DIIS: error= 1.56D-03 at cycle   4 NSaved=   4.
 NSaved= 4 IEnMin= 4 EnMin= -115.472122236361     IErMin= 4 ErrMin= 1.56D-03
 ErrMax= 1.56D-03  0.00D+00 EMaxC= 1.00D-01 BMatC= 2.97D-04 BMatP= 3.20D-03
 IDIUse=3 WtCom= 9.84D-01 WtEn= 1.56D-02
 Coeff-Com: -0.361D-01 0.621D-01 0.345D+00 0.629D+00
 Coeff-En:   0.000D+00 0.000D+00 0.000D+00 0.100D+01
 Coeff:     -0.355D-01 0.611D-01 0.340D+00 0.635D+00
 Gap=     0.414 Goal=   None    Shift=    0.000
 RMSDP=3.32D-05 MaxDP=1.72D-03 DE=-1.83D-03 OVMax= 4.68D-03

 Cycle   5  Pass 0  IDiag  1:
 E= -115.472374919978     Delta-E=       -0.000252683617 Rises=F Damp=F
 DIIS: error= 2.17D-04 at cycle   5 NSaved=   5.
 NSaved= 5 IEnMin= 5 EnMin= -115.472374919978     IErMin= 5 ErrMin= 2.17D-04
 ErrMax= 2.17D-04  0.00D+00 EMaxC= 1.00D-01 BMatC= 7.34D-06 BMatP= 2.97D-04
 IDIUse=3 WtCom= 9.98D-01 WtEn= 2.17D-03
 Coeff-Com: -0.531D-02 0.550D-02 0.583D-01 0.188D+00 0.753D+00
 Coeff-En:   0.000D+00 0.000D+00 0.000D+00 0.000D+00 0.100D+01
 Coeff:     -0.530D-02 0.549D-02 0.582D-01 0.188D+00 0.754D+00
 Gap=     0.414 Goal=   None    Shift=    0.000
 RMSDP=7.75D-06 MaxDP=2.08D-04 DE=-2.53D-04 OVMax= 6.38D-04

 Initial convergence to 1.0D-05 achieved.  Increase integral accuracy.
 Cycle   6  Pass 1  IDiag  1:
 E= -115.472381915126     Delta-E=       -0.000006995148 Rises=F Damp=F
 DIIS: error= 3.14D-05 at cycle   1 NSaved=   1.
 NSaved= 1 IEnMin= 1 EnMin= -115.472381915126     IErMin= 1 ErrMin= 3.14D-05
 ErrMax= 3.14D-05  0.00D+00 EMaxC= 1.00D-01 BMatC= 1.08D-07 BMatP= 1.08D-07
 IDIUse=1 WtCom= 1.00D+00 WtEn= 0.00D+00
 Coeff-Com:  0.100D+01
 Coeff:      0.100D+01
 Gap=     0.414 Goal=   None    Shift=    0.000
 RMSDP=7.75D-06 MaxDP=2.08D-04 DE=-7.00D-06 OVMax= 1.48D-04

 Cycle   7  Pass 1  IDiag  1:
 E= -115.472382089079     Delta-E=       -0.000000173953 Rises=F Damp=F
 DIIS: error= 9.16D-06 at cycle   2 NSaved=   2.
 NSaved= 2 IEnMin= 2 EnMin= -115.472382089079     IErMin= 2 ErrMin= 9.16D-06
 ErrMax= 9.16D-06  0.00D+00 EMaxC= 1.00D-01 BMatC= 7.20D-09 BMatP= 1.08D-07
 IDIUse=1 WtCom= 1.00D+00 WtEn= 0.00D+00
 Coeff-Com: -0.106D+00 0.111D+01
 Coeff:     -0.106D+00 0.111D+01
 Gap=     0.414 Goal=   None    Shift=    0.000
 RMSDP=6.64D-07 MaxDP=1.92D-05 DE=-1.74D-07 OVMax= 5.88D-05

 Cycle   8  Pass 1  IDiag  1:
 E= -115.472382104789     Delta-E=       -0.000000015710 Rises=F Damp=F
 DIIS: error= 2.21D-06 at cycle   3 NSaved=   3.
 NSaved= 3 IEnMin= 3 EnMin= -115.472382104789     IErMin= 3 ErrMin= 2.21D-06
 ErrMax= 2.21D-06  0.00D+00 EMaxC= 1.00D-01 BMatC= 8.82D-10 BMatP= 7.20D-09
 IDIUse=1 WtCom= 1.00D+00 WtEn= 0.00D+00
 Coeff-Com: -0.750D-01 0.151D+00 0.925D+00
 Coeff:     -0.750D-01 0.151D+00 0.925D+00
 Gap=     0.414 Goal=   None    Shift=    0.000
 RMSDP=1.80D-07 MaxDP=5.83D-06 DE=-1.57D-08 OVMax= 1.66D-05

 Cycle   9  Pass 1  IDiag  1:
 E= -115.472382105894     Delta-E=       -0.000000001105 Rises=F Damp=F
 DIIS: error= 1.02D-06 at cycle   4 NSaved=   4.
 NSaved= 4 IEnMin= 4 EnMin= -115.472382105894     IErMin= 4 ErrMin= 1.02D-06
 ErrMax= 1.02D-06  0.00D+00 EMaxC= 1.00D-01 BMatC= 1.66D-10 BMatP= 8.82D-10
 IDIUse=1 WtCom= 1.00D+00 WtEn= 0.00D+00
 Coeff-Com: -0.227D-01-0.779D-02 0.346D+00 0.685D+00
 Coeff:     -0.227D-01-0.779D-02 0.346D+00 0.685D+00
 Gap=     0.414 Goal=   None    Shift=    0.000
 RMSDP=3.33D-08 MaxDP=1.39D-06 DE=-1.11D-09 OVMax= 4.25D-06

 Cycle  10  Pass 1  IDiag  1:
 E= -115.472382106014     Delta-E=       -0.000000000119 Rises=F Damp=F
 DIIS: error= 2.69D-07 at cycle   5 NSaved=   5.
 NSaved= 5 IEnMin= 5 EnMin= -115.472382106014     IErMin= 5 ErrMin= 2.69D-07
 ErrMax= 2.69D-07  0.00D+00 EMaxC= 1.00D-01 BMatC= 1.40D-11 BMatP= 1.66D-10
 IDIUse=1 WtCom= 1.00D+00 WtEn= 0.00D+00
 Coeff-Com:  0.352D-02-0.208D-01-0.237D-01 0.217D+00 0.824D+00
 Coeff:      0.352D-02-0.208D-01-0.237D-01 0.217D+00 0.824D+00
 Gap=     0.414 Goal=   None    Shift=    0.000
 RMSDP=1.14D-08 MaxDP=3.63D-07 DE=-1.19D-10 OVMax= 1.27D-06

 Cycle  11  Pass 1  IDiag  1:
 E= -115.472382106022     Delta-E=       -0.000000000009 Rises=F Damp=F
 DIIS: error= 4.63D-08 at cycle   6 NSaved=   6.
 NSaved= 6 IEnMin= 6 EnMin= -115.472382106022     IErMin= 6 ErrMin= 4.63D-08
 ErrMax= 4.63D-08  0.00D+00 EMaxC= 1.00D-01 BMatC= 2.92D-13 BMatP= 1.40D-11
 IDIUse=1 WtCom= 1.00D+00 WtEn= 0.00D+00
 Coeff-Com:  0.122D-02-0.563D-02-0.118D-01 0.461D-01 0.213D+00 0.757D+00
 Coeff:      0.122D-02-0.563D-02-0.118D-01 0.461D-01 0.213D+00 0.757D+00
 Gap=     0.414 Goal=   None    Shift=    0.000
 RMSDP=1.71D-09 MaxDP=6.61D-08 DE=-8.81D-12 OVMax= 2.38D-07

 SCF Done:  E(RB2PLYPD3) =  -115.472382106     A.U. after   11 cycles
            NFock= 11  Conv=0.17D-08     -V/T= 1.9995
 KE= 1.155321526210D+02 PE=-3.533280319378D+02 EE= 8.142224922885D+01
 Leave Link  502 at Wed Aug 26 16:13:39 2020, MaxMem=  2097152000 cpu:        90.2
 (Enter /opt/cluster/programs/g09/g09_d.01/g09/l801.exe)
 DoSCS=T DFT=T ScalE2(SS,OS)=  0.270000  0.270000
 ExpMin= 7.60D-02 ExpMax= 1.17D+05 ExpMxC= 1.13D+03 IAcc=3 IRadAn=         5 AccDes= 0.00D+00
 HarFok:  IExCor=  205 AccDes= 0.00D+00 IRadAn=         5 IDoV=-2 UseB2=F ITyADJ=14
 ICtDFT= 12500011 ScaDFX=  1.000000  1.000000  1.000000  1.000000
 Largest valence mixing into a core orbital is  1.22D-04
 Largest core mixing into a valence orbital is  1.52D-05
 Range of M.O.s used for correlation:     3   234
 NBasis=   234 NAE=     9 NBE=     9 NFC=     2 NFV=     0
 NROrb=    232 NOA=     7 NOB=     7 NVA=   225 NVB=   225

 **** Warning!!: The largest alpha MO coefficient is  0.24746502D+02

 Leave Link  801 at Wed Aug 26 16:13:39 2020, MaxMem=  2097152000 cpu:         0.6
 (Enter /opt/cluster/programs/g09/g09_d.01/g09/l906.exe)
 DoSCS=T DFT=T ScalE2(SS,OS)=  0.270000  0.270000
 FulOut=F Deriv=F AODrv=F NAtomX=     6
   MMem=        3646  MDisk=           7 MDiskD=           7
  W3Min=      447300 MinDsk=     1090093 NBas6D=         284
 NBas2D=       41310    NTT=       40470    LW2=     4508827
    MDV=  2096872590 MDiskM=       16391 NBas2p=       41304
 Fully in-core method, ICMem=  1722292712.
 IMap=   1   2   3   4   5   6   7
 JobTyp=1 Pass  1 fully in-core, NPsUse=  8.
 Compute canonical integrals.
 FoFCou: FMM=F IPFlag=           0 FMFlag=           0 FMFlg1=           0
         NFxFlg=           0 DoJE=F BraDBF=F KetDBF=F FulRan=T
         wScrn=  0.000000 ICntrl=     600 IOpCl=  1 I1Cent=           0 NGrid=           0
         NMat0=    1 NMatS0=  41310 NMatT0=    0 NMatD0=    1 NMtDS0=    0 NMtDT0=    0
 Symmetry not used in FoFCou.
 Spin components of T(2) and E(2):
     alpha-alpha T2 =       0.1961483409D-01 E2=     -0.1625820287D-01
     alpha-beta  T2 =       0.1272664364D+00 E2=     -0.1120127698D+00
     beta-beta   T2 =       0.1961483409D-01 E2=     -0.1625820287D-01
 The integrals were generated   1 times.
 E2(B2PLYPD3) =    -0.1445291756D+00 E(B2PLYPD3) =    -0.11561691128161D+03
 Leave Link  906 at Wed Aug 26 16:13:59 2020, MaxMem=  2097152000 cpu:       158.4
 (Enter /opt/cluster/programs/g09/g09_d.01/g09/l601.exe)
 Copying SCF densities to generalized density rwf, IOpCl= 0 IROHF=0.

 **********************************************************************

            Population analysis using the SCF density.

 **********************************************************************

 Orbital symmetries:
       Occupied  (A) (A) (A) (A) (A) (A) (A) (A) (A)
       Virtual   (A) (A) (A) (A) (A) (A) (A) (A) (A) (A) (A) (A)
                 (A) (A) (A) (A) (A) (A) (A) (A) (A) (A) (A) (A)
                 (A) (A) (A) (A) (A) (A) (A) (A) (A) (A) (A) (A)
                 (A) (A) (A) (A) (A) (A) (A) (A) (A) (A) (A) (A)
                 (A) (A) (A) (A) (A) (A) (A) (A) (A) (A) (A) (A)
                 (A) (A) (A) (A) (A) (A) (A) (A) (A) (A) (A) (A)
                 (A) (A) (A) (A) (A) (A) (A) (A) (A) (A) (A) (A)
                 (A) (A) (A) (A) (A) (A) (A) (A) (A) (A) (A) (A)
                 (A) (A) (A) (A) (A) (A) (A) (A) (A) (A) (A) (A)
                 (A) (A) (A) (A) (A) (A) (A) (A) (A) (A) (A) (A)
                 (A) (A) (A) (A) (A) (A) (A) (A) (A) (A) (A) (A)
                 (A) (A) (A) (A) (A) (A) (A) (A) (A) (A) (A) (A)
                 (A) (A) (A) (A) (A) (A) (A) (A) (A) (A) (A) (A)
                 (A) (A) (A) (A) (A) (A) (A) (A) (A) (A) (A) (A)
                 (A) (A) (A) (A) (A) (A) (A) (A) (A) (A) (A) (A)
                 (A) (A) (A) (A) (A) (A) (A) (A) (A) (A) (A) (A)
                 (A) (A) (A) (A) (A) (A) (A) (A) (A) (A) (A) (A)
                 (A) (A) (A) (A) (A) (A) (A) (A) (A) (A) (A) (A)
                 (A) (A) (A) (A) (A) (A) (A) (A) (A)
 The electronic state is 1-A.
 Alpha  occ. eigenvalues --  -19.70123 -10.68133  -1.21713  -0.80534  -0.60940
 Alpha  occ. eigenvalues --   -0.51783  -0.49806  -0.40325  -0.36027
 Alpha virt. eigenvalues --    0.05383   0.08945   0.11811   0.12154   0.14304
 Alpha virt. eigenvalues --    0.17175   0.17801   0.28866   0.32186   0.32984
 Alpha virt. eigenvalues --    0.36084   0.37967   0.39784   0.40491   0.43026
 Alpha virt. eigenvalues --    0.49226   0.53281   0.56989   0.59800   0.67153
 Alpha virt. eigenvalues --    0.70306   0.71273   0.73132   0.77328   0.79954
 Alpha virt. eigenvalues --    0.82146   0.86457   0.87631   0.93227   0.95662
 Alpha virt. eigenvalues --    1.03240   1.04384   1.05427   1.08692   1.10281
 Alpha virt. eigenvalues --    1.10616   1.20719   1.23368   1.34229   1.36180
 Alpha virt. eigenvalues --    1.38733   1.40372   1.42982   1.46746   1.49744
 Alpha virt. eigenvalues --    1.77916   1.80285   1.84217   1.89231   1.90531
 Alpha virt. eigenvalues --    1.93445   1.94987   1.96941   2.00592   2.02425
 Alpha virt. eigenvalues --    2.03976   2.14778   2.17335   2.18282   2.20500
 Alpha virt. eigenvalues --    2.25329   2.30865   2.32175   2.37340   2.42513
 Alpha virt. eigenvalues --    2.44458   2.45895   2.57698   2.61768   2.63452
 Alpha virt. eigenvalues --    2.64615   2.70295   2.70900   2.77219   2.83168
 Alpha virt. eigenvalues --    2.84693   2.85643   2.88339   2.91631   2.96895
 Alpha virt. eigenvalues --    3.00988   3.02669   3.07620   3.11647   3.17195
 Alpha virt. eigenvalues --    3.22206   3.28521   3.33119   3.38028   3.42166
 Alpha virt. eigenvalues --    3.43092   3.60538   3.74671   3.78609   3.80253
 Alpha virt. eigenvalues --    3.88897   3.96348   4.02769   4.04175   4.14345
 Alpha virt. eigenvalues --    4.16950   4.19576   4.31137   4.38240   4.49000
 Alpha virt. eigenvalues --    4.53851   4.79587   4.81712   5.04033   5.25192
 Alpha virt. eigenvalues --    5.38049   5.39146   5.48644   5.66276   5.68479
 Alpha virt. eigenvalues --    5.75339   5.83416   5.86554   5.88808   5.91473
 Alpha virt. eigenvalues --    5.93880   5.97307   6.00215   6.06970   6.08380
 Alpha virt. eigenvalues --    6.12370   6.15969   6.21962   6.26201   6.26968
 Alpha virt. eigenvalues --    6.32301   6.38394   6.41517   6.43405   6.50916
 Alpha virt. eigenvalues --    6.53531   6.57272   6.67273   6.73360   6.91925
 Alpha virt. eigenvalues --    6.92331   6.92502   7.02233   7.12374   7.19989
 Alpha virt. eigenvalues --    7.21780   7.25433   7.27036   7.35358   7.41899
 Alpha virt. eigenvalues --    7.45560   7.45631   7.53737   7.64303   7.65950
 Alpha virt. eigenvalues --    7.67479   7.69674   7.75923   7.78324   7.80061
 Alpha virt. eigenvalues --    7.85191   7.86214   7.96583   8.10410   8.13222
 Alpha virt. eigenvalues --    8.16400   8.17984   8.26110   8.33571   8.38882
 Alpha virt. eigenvalues --    8.40974   8.45479   8.47127   8.48254   8.54715
 Alpha virt. eigenvalues --    8.61927   8.77466   8.81197   8.82726   8.85954
 Alpha virt. eigenvalues --    8.88958   8.94958   9.10181   9.41722   9.44373
 Alpha virt. eigenvalues --    9.51699   9.55455   9.59183   9.60432   9.74491
 Alpha virt. eigenvalues --    9.83180   9.93651   9.97873  10.07021  10.08901
 Alpha virt. eigenvalues --   10.27927  10.30658  10.36744  10.39202  11.02335
 Alpha virt. eigenvalues --   11.08514  11.23714  11.37400  11.51497  11.80662
 Alpha virt. eigenvalues --   11.87684  11.88195  11.99783  12.17390  12.17931
 Alpha virt. eigenvalues --   12.39801  12.86606  12.94643  13.00483  13.11383
 Alpha virt. eigenvalues --   13.29352  13.73270  15.46885  15.92000  16.01683
 Alpha virt. eigenvalues --   16.21726  28.98578  49.04416 148.54786 254.93320
          Condensed to atoms (all electrons):
               1          2          3          4          5          6
     1  C    4.468778   0.266774   0.421678   0.425522   0.396456  -0.040709
     2  O    0.266774   7.772218  -0.050176  -0.051810  -0.031403   0.401082
     3  H    0.421678  -0.050176   0.659402  -0.040958  -0.034074  -0.003471
     4  H    0.425522  -0.051810  -0.040958   0.645282  -0.036578  -0.001999
     5  H    0.396456  -0.031403  -0.034074  -0.036578   0.624700   0.006113
     6  H   -0.040709   0.401082  -0.003471  -0.001999   0.006113   0.576723
 Mulliken charges:
               1
     1  C    0.061500
     2  O   -0.306686
     3  H    0.047599
     4  H    0.060541
     5  H    0.074786
     6  H    0.062260
 Sum of Mulliken charges =   0.00000
 Mulliken charges with hydrogens summed into heavy atoms:
               1
     1  C    0.244426
     2  O   -0.244426
 Electronic spatial extent (au):  <R**2>=             85.4820
 Charge=              0.0000 electrons
 Dipole moment (field-independent basis, Debye):
    X=              0.9236    Y=             -1.2552    Z=              0.2808  Tot=              1.5835
 Quadrupole moment (field-independent basis, Debye-Ang):
   XX=            -12.8941   YY=            -12.6581   ZZ=            -13.5461
   XY=              2.0598   XZ=             -0.3817   YZ=             -0.1358
 Traceless Quadrupole moment (field-independent basis, Debye-Ang):
   XX=              0.1387   YY=              0.3747   ZZ=             -0.5133
   XY=              2.0598   XZ=             -0.3817   YZ=             -0.1358
 Octapole moment (field-independent basis, Debye-Ang**2):
  XXX=             -5.4774  YYY=             -0.3071  ZZZ=              0.7787  XYY=             -1.3472
  XXY=             -1.8933  XXZ=              0.3423  XZZ=             -0.5724  YZZ=             -0.6790
  YYZ=             -0.3756  XYZ=              0.1752
 Hexadecapole moment (field-independent basis, Debye-Ang**3):
 XXXX=            -63.0384 YYYY=            -21.2738 ZZZZ=            -20.7391 XXXY=              4.0962
 XXXZ=             -0.6149 YYYX=              2.6381 YYYZ=             -0.2077 ZZZX=              0.3663
 ZZZY=             -0.1352 XXYY=            -13.3779 XXZZ=            -14.7411 YYZZ=             -7.0453
 XXYZ=             -0.2620 YYXZ=             -0.7169 ZZXY=              0.0052
 N-N= 4.090124798196D+01 E-N=-3.533280354076D+02  KE= 1.155321526210D+02
 Leave Link  601 at Wed Aug 26 16:13:59 2020, MaxMem=  2097152000 cpu:         0.3
 (Enter /opt/cluster/programs/g09/g09_d.01/g09/l9999.exe)
 1\1\GINC-NODE30\SP\RB2PLYPD3-FC\def2QZVP\C1H4O1\BOITTIER\26-Aug-2020\0
 \\#p B2PLYPD3/Def2QZVP\\methanol\\0,1\C,0,-5.186306,-1.250754,0.917357
 \O,0,-3.761367,-1.124845,0.842703\H,0,-5.528675,-2.286523,0.505419\H,0
 ,-5.634893,-0.413324,0.357704\H,0,-5.530385,-1.164665,2.036985\H,0,-3.
 461078,-1.218367,0.166267\\Version=ES64L-G09RevD.01\State=1-A\HF=-115.
 4723821\MP2=-115.6169113\RMSD=1.711e-09\PG=C01 [X(C1H4O1)]\\@


 NOTHING RESEMBLES A NEW PHENOMENON AS MUCH AS A MISTAKE.

                               -- ENRICO FERMI (?)
 Job cpu time:       0 days  0 hours  4 minutes 17.4 seconds.
 File lengths (MBytes):  RWF=     23 Int=      0 D2E=      0 Chk=      4 Scr=      1
 Normal termination of Gaussian 09 at Wed Aug 26 16:13:59 2020.
