 Entering Gaussian System, Link 0=/opt/cluster/programs/g09/g09_d.01/g09//g09
 Input=/home/boittier/MDCM/nms_sampling/methanol_geom.xyz.dir/energies/methanol_1205_energy.com
 Output=/scratch/boittier/methanol_1205_energy/methanol_1205_energy.out
 Initial command:
 /opt/cluster/programs/g09/g09_d.01/g09/l1.exe "/scratch/boittier/methanol_1205_energy/Gau-43088.inp" -scrdir="/scratch/boittier/methanol_1205_energy/"
 Entering Link 1 = /opt/cluster/programs/g09/g09_d.01/g09/l1.exe PID=     43089.
  
 Copyright (c) 1988,1990,1992,1993,1995,1998,2003,2009,2013,
            Gaussian, Inc.  All Rights Reserved.
  
 This is part of the Gaussian(R) 09 program.  It is based on
 the Gaussian(R) 03 system (copyright 2003, Gaussian, Inc.),
 the Gaussian(R) 98 system (copyright 1998, Gaussian, Inc.),
 the Gaussian(R) 94 system (copyright 1995, Gaussian, Inc.),
 the Gaussian 92(TM) system (copyright 1992, Gaussian, Inc.),
 the Gaussian 90(TM) system (copyright 1990, Gaussian, Inc.),
 the Gaussian 88(TM) system (copyright 1988, Gaussian, Inc.),
 the Gaussian 86(TM) system (copyright 1986, Carnegie Mellon
 University), and the Gaussian 82(TM) system (copyright 1983,
 Carnegie Mellon University). Gaussian is a federally registered
 trademark of Gaussian, Inc.
  
 This software contains proprietary and confidential information,
 including trade secrets, belonging to Gaussian, Inc.
  
 This software is provided under written license and may be
 used, copied, transmitted, or stored only in accord with that
 written license.
  
 The following legend is applicable only to US Government
 contracts under FAR:
  
                    RESTRICTED RIGHTS LEGEND
  
 Use, reproduction and disclosure by the US Government is
 subject to restrictions as set forth in subparagraphs (a)
 and (c) of the Commercial Computer Software - Restricted
 Rights clause in FAR 52.227-19.
  
 Gaussian, Inc.
 340 Quinnipiac St., Bldg. 40, Wallingford CT 06492
  
  
 ---------------------------------------------------------------
 Warning -- This program may not be used in any manner that
 competes with the business of Gaussian, Inc. or will provide
 assistance to any competitor of Gaussian, Inc.  The licensee
 of this program is prohibited from giving any competitor of
 Gaussian, Inc. access to this program.  By using this program,
 the user acknowledges that Gaussian, Inc. is engaged in the
 business of creating and licensing software in the field of
 computational chemistry and represents and warrants to the
 licensee that it is not a competitor of Gaussian, Inc. and that
 it will not use this program in any manner prohibited above.
 ---------------------------------------------------------------
  

 Cite this work as:
 Gaussian 09, Revision D.01,
 M. J. Frisch, G. W. Trucks, H. B. Schlegel, G. E. Scuseria, 
 M. A. Robb, J. R. Cheeseman, G. Scalmani, V. Barone, B. Mennucci, 
 G. A. Petersson, H. Nakatsuji, M. Caricato, X. Li, H. P. Hratchian, 
 A. F. Izmaylov, J. Bloino, G. Zheng, J. L. Sonnenberg, M. Hada, 
 M. Ehara, K. Toyota, R. Fukuda, J. Hasegawa, M. Ishida, T. Nakajima, 
 Y. Honda, O. Kitao, H. Nakai, T. Vreven, J. A. Montgomery, Jr., 
 J. E. Peralta, F. Ogliaro, M. Bearpark, J. J. Heyd, E. Brothers, 
 K. N. Kudin, V. N. Staroverov, T. Keith, R. Kobayashi, J. Normand, 
 K. Raghavachari, A. Rendell, J. C. Burant, S. S. Iyengar, J. Tomasi, 
 M. Cossi, N. Rega, J. M. Millam, M. Klene, J. E. Knox, J. B. Cross, 
 V. Bakken, C. Adamo, J. Jaramillo, R. Gomperts, R. E. Stratmann, 
 O. Yazyev, A. J. Austin, R. Cammi, C. Pomelli, J. W. Ochterski, 
 R. L. Martin, K. Morokuma, V. G. Zakrzewski, G. A. Voth, 
 P. Salvador, J. J. Dannenberg, S. Dapprich, A. D. Daniels, 
 O. Farkas, J. B. Foresman, J. V. Ortiz, J. Cioslowski, 
 and D. J. Fox, Gaussian, Inc., Wallingford CT, 2013.
 
 ******************************************
 Gaussian 09:  ES64L-G09RevD.01 24-Apr-2013
                26-Aug-2020 
 ******************************************
 %chk=/home/boittier/MDCM/nms_sampling/methanol_geom.xyz.dir/methanol_1205.chk
 %nproc=8
 Will use up to    8 processors via shared memory.
 %mem=16000MB
 --------------------
 #p B2PLYPD3/Def2QZVP
 --------------------
 1/38=1/1;
 2/12=2,17=6,18=5,40=1/2;
 3/5=45,7=101,11=9,16=1,25=1,30=1,74=-60/1,2,3;
 4//1;
 5/5=2,38=5/2;
 8/10=1/1;
 9/16=-3/6;
 6/7=2,8=2,9=2,10=2/1;
 99/5=1,9=1/99;
 Leave Link    1 at Wed Aug 26 10:46:36 2020, MaxMem=  2097152000 cpu:         0.4
 (Enter /opt/cluster/programs/g09/g09_d.01/g09/l101.exe)
 --------
 methanol
 --------
 Symbolic Z-matrix:
 Charge =  0 Multiplicity = 1
 C                    -5.17601  -1.24339   0.92164 
 O                    -3.77984  -1.12666   0.83893 
 H                    -5.47036  -2.34407   0.48894 
 H                    -5.63826  -0.40877   0.33193 
 H                    -5.43174  -1.18237   2.02028 
 H                    -3.44518  -1.19738   0.23711 
 
 NAtoms=      6 NQM=        6 NQMF=       0 NMMI=      0 NMMIF=      0
                NMic=       0 NMicF=      0.
                    Isotopes and Nuclear Properties:
 (Nuclear quadrupole moments (NQMom) in fm**2, nuclear magnetic moments (NMagM)
  in nuclear magnetons)

  Atom         1           2           3           4           5           6
 IAtWgt=          12          16           1           1           1           1
 AtmWgt=  12.0000000  15.9949146   1.0078250   1.0078250   1.0078250   1.0078250
 NucSpn=           0           0           1           1           1           1
 AtZEff=   0.0000000   0.0000000   0.0000000   0.0000000   0.0000000   0.0000000
 NQMom=    0.0000000   0.0000000   0.0000000   0.0000000   0.0000000   0.0000000
 NMagM=    0.0000000   0.0000000   2.7928460   2.7928460   2.7928460   2.7928460
 AtZNuc=   6.0000000   8.0000000   1.0000000   1.0000000   1.0000000   1.0000000
 Leave Link  101 at Wed Aug 26 10:46:36 2020, MaxMem=  2097152000 cpu:         0.5
 (Enter /opt/cluster/programs/g09/g09_d.01/g09/l202.exe)
                          Input orientation:                          
 ---------------------------------------------------------------------
 Center     Atomic      Atomic             Coordinates (Angstroms)
 Number     Number       Type             X           Y           Z
 ---------------------------------------------------------------------
      1          6           0       -5.176007   -1.243385    0.921637
      2          8           0       -3.779840   -1.126656    0.838931
      3          1           0       -5.470356   -2.344069    0.488944
      4          1           0       -5.638256   -0.408774    0.331928
      5          1           0       -5.431741   -1.182372    2.020285
      6          1           0       -3.445178   -1.197384    0.237107
 ---------------------------------------------------------------------
                    Distance matrix (angstroms):
                    1          2          3          4          5
     1  C    0.000000
     2  O    1.403477   0.000000
     3  H    1.218757   2.112446   0.000000
     4  H    1.121609   2.055752   1.948900   0.000000
     5  H    1.129668   2.031620   1.922508   1.868596   0.000000
     6  H    1.861845   0.692238   2.340866   2.332485   2.669528
                    6
     6  H    0.000000
 Stoichiometry    CH4O
 Framework group  C1[X(CH4O)]
 Deg. of freedom    12
 Full point group                 C1      NOp   1
 Largest Abelian subgroup         C1      NOp   1
 Largest concise Abelian subgroup C1      NOp   1
                         Standard orientation:                         
 ---------------------------------------------------------------------
 Center     Atomic      Atomic             Coordinates (Angstroms)
 Number     Number       Type             X           Y           Z
 ---------------------------------------------------------------------
      1          6           0       -0.665341    0.004151    0.017592
      2          8           0        0.735093   -0.074787   -0.030401
      3          1           0       -0.995187    0.952651   -0.673001
      4          1           0       -0.978626    0.118822    1.088438
      5          1           0       -1.049804   -0.954814   -0.439270
      6          1           0        1.134918    0.456731    0.161488
 ---------------------------------------------------------------------
 Rotational constants (GHZ):    125.9616473     25.1210162     24.8227187
 Leave Link  202 at Wed Aug 26 10:46:36 2020, MaxMem=  2097152000 cpu:         0.0
 (Enter /opt/cluster/programs/g09/g09_d.01/g09/l301.exe)
 Standard basis: def2QZVP (5D, 7F)
 Ernie: Thresh=  0.10000D-02 Tol=  0.10000D-05 Strict=F.
 There are   284 symmetry adapted cartesian basis functions of A   symmetry.
 There are   234 symmetry adapted basis functions of A   symmetry.
   234 basis functions,   336 primitive gaussians,   284 cartesian basis functions
     9 alpha electrons        9 beta electrons
       nuclear repulsion energy        41.7939855920 Hartrees.
 IExCor=  419 DFT=T Ex+Corr=B2PLYPD3 ExCW=0 ScaHFX=  0.530000
 ScaDFX=  0.470000  0.470000  0.730000  0.730000 ScalE2=  0.270000  0.270000
 IRadAn=      0 IRanWt=     -1 IRanGd=            0 ICorTp=0 IEmpDi=141
 NAtoms=    6 NActive=    6 NUniq=    6 SFac= 1.00D+00 NAtFMM=   60 NAOKFM=F Big=F
 Integral buffers will be    131072 words long.
 Regular integral format.
 Two-electron integral symmetry is turned on.
 R6Disp:  Grimme-D3(BJ) Dispersion energy=       -0.0013130876 Hartrees.
 Nuclear repulsion after empirical dispersion term =       41.7926725043 Hartrees.
 Leave Link  301 at Wed Aug 26 10:46:36 2020, MaxMem=  2097152000 cpu:         0.5
 (Enter /opt/cluster/programs/g09/g09_d.01/g09/l302.exe)
 NPDir=0 NMtPBC=     1 NCelOv=     1 NCel=       1 NClECP=     1 NCelD=      1
         NCelK=      1 NCelE2=     1 NClLst=     1 CellRange=     0.0.
 One-electron integrals computed using PRISM.
   1 Symmetry operations used in ECPInt.
 ECPInt:  NShTT=    2775 NPrTT=    6207 LenC2=    2774 LenP2D=    5747.
 LDataN:  DoStor=T MaxTD1= 8 Len=  415
 NBasis=   234 RedAO= T EigKep=  5.79D-05  NBF=   234
 NBsUse=   234 1.00D-06 EigRej= -1.00D+00 NBFU=   234
 Precomputing XC quadrature grid using
 IXCGrd= 4 IRadAn=           0 IRanWt=          -1 IRanGd=           0 AccXCQ= 0.00D+00.
 Generated NRdTot=       0 NPtTot=           0 NUsed=           0 NTot=          32
 NSgBfM=   284   284   284   284   284 MxSgAt=     6 MxSgA2=     6.
 Leave Link  302 at Wed Aug 26 10:46:36 2020, MaxMem=  2097152000 cpu:         1.8
 (Enter /opt/cluster/programs/g09/g09_d.01/g09/l303.exe)
 DipDrv:  MaxL=1.
 Leave Link  303 at Wed Aug 26 10:46:36 2020, MaxMem=  2097152000 cpu:         0.2
 (Enter /opt/cluster/programs/g09/g09_d.01/g09/l401.exe)
 ExpMin= 7.60D-02 ExpMax= 1.17D+05 ExpMxC= 1.13D+03 IAcc=2 IRadAn=         4 AccDes= 0.00D+00
 Harris functional with IExCor=  419 and IRadAn=       4 diagonalized for initial guess.
 HarFok:  IExCor=  419 AccDes= 0.00D+00 IRadAn=         4 IDoV= 1 UseB2=F ITyADJ=14
 ICtDFT=  3500011 ScaDFX=  1.000000  1.000000  1.000000  1.000000
 FoFCou: FMM=F IPFlag=           0 FMFlag=      100000 FMFlg1=           0
         NFxFlg=           0 DoJE=T BraDBF=F KetDBF=T FulRan=T
         wScrn=  0.000000 ICntrl=     500 IOpCl=  0 I1Cent=   200000004 NGrid=           0
         NMat0=    1 NMatS0=      1 NMatT0=    0 NMatD0=    1 NMtDS0=    0 NMtDT0=    0
 Petite list used in FoFCou.
 Harris En= -115.698745728823    
 JPrj=0 DoOrth=F DoCkMO=F.
 Leave Link  401 at Wed Aug 26 10:46:37 2020, MaxMem=  2097152000 cpu:         3.3
 (Enter /opt/cluster/programs/g09/g09_d.01/g09/l502.exe)
 Closed shell SCF:
 Using DIIS extrapolation, IDIIS=  1040.
 Integral symmetry usage will be decided dynamically.
 Keep R1 ints in memory in canonical form, NReq=389840494.
 IVT=      264814 IEndB=      264814 NGot=  2097152000 MDV=  1718885927
 LenX=  1718885927 LenY=  1718804830
 Requested convergence on RMS density matrix=1.00D-08 within 128 cycles.
 Requested convergence on MAX density matrix=1.00D-06.
 Requested convergence on             energy=1.00D-06.
 No special actions if energy rises.
 FoFCou: FMM=F IPFlag=           0 FMFlag=           0 FMFlg1=           0
         NFxFlg=           0 DoJE=F BraDBF=F KetDBF=F FulRan=T
         wScrn=  0.000000 ICntrl=     600 IOpCl=  0 I1Cent=           0 NGrid=           0
         NMat0=    1 NMatS0=  27495 NMatT0=    0 NMatD0=    1 NMtDS0=    0 NMtDT0=    0
 Symmetry not used in FoFCou.
 Integral accuracy reduced to 1.0D-05 until final iterations.

 Cycle   1  Pass 0  IDiag  1:
 E= -115.269500359115    
 DIIS: error= 2.79D-02 at cycle   1 NSaved=   1.
 NSaved= 1 IEnMin= 1 EnMin= -115.269500359115     IErMin= 1 ErrMin= 2.79D-02
 ErrMax= 2.79D-02  0.00D+00 EMaxC= 1.00D-01 BMatC= 2.62D-01 BMatP= 2.62D-01
 IDIUse=3 WtCom= 7.21D-01 WtEn= 2.79D-01
 Coeff-Com:  0.100D+01
 Coeff-En:   0.100D+01
 Coeff:      0.100D+01
 Gap=     0.339 Goal=   None    Shift=    0.000
 GapD=    0.339 DampG=1.000 DampE=0.500 DampFc=0.5000 IDamp=-1.
 Damping current iteration by 5.00D-01
 RMSDP=1.63D-03 MaxDP=6.47D-02              OVMax= 1.99D-01

 Cycle   2  Pass 0  IDiag  1:
 E= -115.335820380944     Delta-E=       -0.066320021829 Rises=F Damp=T
 DIIS: error= 1.23D-02 at cycle   2 NSaved=   2.
 NSaved= 2 IEnMin= 2 EnMin= -115.335820380944     IErMin= 2 ErrMin= 1.23D-02
 ErrMax= 1.23D-02  0.00D+00 EMaxC= 1.00D-01 BMatC= 1.92D-02 BMatP= 2.62D-01
 IDIUse=3 WtCom= 8.77D-01 WtEn= 1.23D-01
 Coeff-Com: -0.836D-01 0.108D+01
 Coeff-En:   0.000D+00 0.100D+01
 Coeff:     -0.734D-01 0.107D+01
 Gap=     0.435 Goal=   None    Shift=    0.000
 RMSDP=4.13D-04 MaxDP=1.25D-02 DE=-6.63D-02 OVMax= 1.05D-01

 Cycle   3  Pass 0  IDiag  1:
 E= -115.405248647314     Delta-E=       -0.069428266370 Rises=F Damp=F
 DIIS: error= 4.45D-03 at cycle   3 NSaved=   3.
 NSaved= 3 IEnMin= 3 EnMin= -115.405248647314     IErMin= 3 ErrMin= 4.45D-03
 ErrMax= 4.45D-03  0.00D+00 EMaxC= 1.00D-01 BMatC= 3.13D-03 BMatP= 1.92D-02
 IDIUse=3 WtCom= 9.55D-01 WtEn= 4.45D-02
 Coeff-Com: -0.983D-01 0.233D+00 0.865D+00
 Coeff-En:   0.000D+00 0.000D+00 0.100D+01
 Coeff:     -0.939D-01 0.223D+00 0.871D+00
 Gap=     0.411 Goal=   None    Shift=    0.000
 RMSDP=1.01D-04 MaxDP=3.87D-03 DE=-6.94D-02 OVMax= 1.22D-02

 Cycle   4  Pass 0  IDiag  1:
 E= -115.407059375557     Delta-E=       -0.001810728243 Rises=F Damp=F
 DIIS: error= 1.69D-03 at cycle   4 NSaved=   4.
 NSaved= 4 IEnMin= 4 EnMin= -115.407059375557     IErMin= 4 ErrMin= 1.69D-03
 ErrMax= 1.69D-03  0.00D+00 EMaxC= 1.00D-01 BMatC= 2.40D-04 BMatP= 3.13D-03
 IDIUse=3 WtCom= 9.83D-01 WtEn= 1.69D-02
 Coeff-Com: -0.320D-01 0.545D-01 0.330D+00 0.647D+00
 Coeff-En:   0.000D+00 0.000D+00 0.000D+00 0.100D+01
 Coeff:     -0.314D-01 0.536D-01 0.324D+00 0.653D+00
 Gap=     0.409 Goal=   None    Shift=    0.000
 RMSDP=3.24D-05 MaxDP=1.63D-03 DE=-1.81D-03 OVMax= 4.40D-03

 Cycle   5  Pass 0  IDiag  1:
 E= -115.407266559161     Delta-E=       -0.000207183604 Rises=F Damp=F
 DIIS: error= 2.56D-04 at cycle   5 NSaved=   5.
 NSaved= 5 IEnMin= 5 EnMin= -115.407266559161     IErMin= 5 ErrMin= 2.56D-04
 ErrMax= 2.56D-04  0.00D+00 EMaxC= 1.00D-01 BMatC= 8.44D-06 BMatP= 2.40D-04
 IDIUse=3 WtCom= 9.97D-01 WtEn= 2.56D-03
 Coeff-Com: -0.443D-02 0.378D-02 0.528D-01 0.203D+00 0.745D+00
 Coeff-En:   0.000D+00 0.000D+00 0.000D+00 0.000D+00 0.100D+01
 Coeff:     -0.442D-02 0.377D-02 0.527D-01 0.202D+00 0.746D+00
 Gap=     0.409 Goal=   None    Shift=    0.000
 RMSDP=8.75D-06 MaxDP=2.35D-04 DE=-2.07D-04 OVMax= 6.70D-04

 Initial convergence to 1.0D-05 achieved.  Increase integral accuracy.
 Cycle   6  Pass 1  IDiag  1:
 E= -115.407273596317     Delta-E=       -0.000007037156 Rises=F Damp=F
 DIIS: error= 3.56D-05 at cycle   1 NSaved=   1.
 NSaved= 1 IEnMin= 1 EnMin= -115.407273596317     IErMin= 1 ErrMin= 3.56D-05
 ErrMax= 3.56D-05  0.00D+00 EMaxC= 1.00D-01 BMatC= 1.23D-07 BMatP= 1.23D-07
 IDIUse=1 WtCom= 1.00D+00 WtEn= 0.00D+00
 Coeff-Com:  0.100D+01
 Coeff:      0.100D+01
 Gap=     0.410 Goal=   None    Shift=    0.000
 RMSDP=8.75D-06 MaxDP=2.35D-04 DE=-7.04D-06 OVMax= 1.56D-04

 Cycle   7  Pass 1  IDiag  1:
 E= -115.407273789292     Delta-E=       -0.000000192975 Rises=F Damp=F
 DIIS: error= 1.16D-05 at cycle   2 NSaved=   2.
 NSaved= 2 IEnMin= 2 EnMin= -115.407273789292     IErMin= 2 ErrMin= 1.16D-05
 ErrMax= 1.16D-05  0.00D+00 EMaxC= 1.00D-01 BMatC= 8.84D-09 BMatP= 1.23D-07
 IDIUse=1 WtCom= 1.00D+00 WtEn= 0.00D+00
 Coeff-Com: -0.749D-01 0.107D+01
 Coeff:     -0.749D-01 0.107D+01
 Gap=     0.410 Goal=   None    Shift=    0.000
 RMSDP=6.69D-07 MaxDP=1.89D-05 DE=-1.93D-07 OVMax= 6.03D-05

 Cycle   8  Pass 1  IDiag  1:
 E= -115.407273806137     Delta-E=       -0.000000016845 Rises=F Damp=F
 DIIS: error= 2.88D-06 at cycle   3 NSaved=   3.
 NSaved= 3 IEnMin= 3 EnMin= -115.407273806137     IErMin= 3 ErrMin= 2.88D-06
 ErrMax= 2.88D-06  0.00D+00 EMaxC= 1.00D-01 BMatC= 1.53D-09 BMatP= 8.84D-09
 IDIUse=1 WtCom= 1.00D+00 WtEn= 0.00D+00
 Coeff-Com: -0.799D-01 0.211D+00 0.868D+00
 Coeff:     -0.799D-01 0.211D+00 0.868D+00
 Gap=     0.410 Goal=   None    Shift=    0.000
 RMSDP=2.11D-07 MaxDP=7.10D-06 DE=-1.68D-08 OVMax= 1.96D-05

 Cycle   9  Pass 1  IDiag  1:
 E= -115.407273807654     Delta-E=       -0.000000001517 Rises=F Damp=F
 DIIS: error= 1.52D-06 at cycle   4 NSaved=   4.
 NSaved= 4 IEnMin= 4 EnMin= -115.407273807654     IErMin= 4 ErrMin= 1.52D-06
 ErrMax= 1.52D-06  0.00D+00 EMaxC= 1.00D-01 BMatC= 3.45D-10 BMatP= 1.53D-09
 IDIUse=1 WtCom= 1.00D+00 WtEn= 0.00D+00
 Coeff-Com: -0.290D-01-0.780D-03 0.363D+00 0.666D+00
 Coeff:     -0.290D-01-0.780D-03 0.363D+00 0.666D+00
 Gap=     0.410 Goal=   None    Shift=    0.000
 RMSDP=4.55D-08 MaxDP=1.92D-06 DE=-1.52D-09 OVMax= 5.54D-06

 Cycle  10  Pass 1  IDiag  1:
 E= -115.407273807898     Delta-E=       -0.000000000244 Rises=F Damp=F
 DIIS: error= 1.99D-07 at cycle   5 NSaved=   5.
 NSaved= 5 IEnMin= 5 EnMin= -115.407273807898     IErMin= 5 ErrMin= 1.99D-07
 ErrMax= 1.99D-07  0.00D+00 EMaxC= 1.00D-01 BMatC= 9.81D-12 BMatP= 3.45D-10
 IDIUse=1 WtCom= 1.00D+00 WtEn= 0.00D+00
 Coeff-Com:  0.323D-02-0.175D-01-0.287D-01 0.118D+00 0.925D+00
 Coeff:      0.323D-02-0.175D-01-0.287D-01 0.118D+00 0.925D+00
 Gap=     0.410 Goal=   None    Shift=    0.000
 RMSDP=1.28D-08 MaxDP=4.78D-07 DE=-2.44D-10 OVMax= 1.16D-06

 Cycle  11  Pass 1  IDiag  1:
 E= -115.407273807906     Delta-E=       -0.000000000008 Rises=F Damp=F
 DIIS: error= 6.02D-08 at cycle   6 NSaved=   6.
 NSaved= 6 IEnMin= 6 EnMin= -115.407273807906     IErMin= 6 ErrMin= 6.02D-08
 ErrMax= 6.02D-08  0.00D+00 EMaxC= 1.00D-01 BMatC= 2.78D-13 BMatP= 9.81D-12
 IDIUse=1 WtCom= 1.00D+00 WtEn= 0.00D+00
 Coeff-Com:  0.118D-02-0.483D-02-0.126D-01 0.218D-01 0.233D+00 0.761D+00
 Coeff:      0.118D-02-0.483D-02-0.126D-01 0.218D-01 0.233D+00 0.761D+00
 Gap=     0.410 Goal=   None    Shift=    0.000
 RMSDP=1.75D-09 MaxDP=6.75D-08 DE=-7.96D-12 OVMax= 2.22D-07

 SCF Done:  E(RB2PLYPD3) =  -115.407273808     A.U. after   11 cycles
            NFock= 11  Conv=0.18D-08     -V/T= 1.9966
 KE= 1.158047857195D+02 PE=-3.551496954439D+02 EE= 8.214496341222D+01
 Leave Link  502 at Wed Aug 26 10:46:49 2020, MaxMem=  2097152000 cpu:        60.3
 (Enter /opt/cluster/programs/g09/g09_d.01/g09/l801.exe)
 DoSCS=T DFT=T ScalE2(SS,OS)=  0.270000  0.270000
 ExpMin= 7.60D-02 ExpMax= 1.17D+05 ExpMxC= 1.13D+03 IAcc=3 IRadAn=         5 AccDes= 0.00D+00
 HarFok:  IExCor=  205 AccDes= 0.00D+00 IRadAn=         5 IDoV=-2 UseB2=F ITyADJ=14
 ICtDFT= 12500011 ScaDFX=  1.000000  1.000000  1.000000  1.000000
 Largest valence mixing into a core orbital is  1.22D-04
 Largest core mixing into a valence orbital is  1.39D-05
 Range of M.O.s used for correlation:     3   234
 NBasis=   234 NAE=     9 NBE=     9 NFC=     2 NFV=     0
 NROrb=    232 NOA=     7 NOB=     7 NVA=   225 NVB=   225

 **** Warning!!: The largest alpha MO coefficient is  0.25534839D+02

 Leave Link  801 at Wed Aug 26 10:46:49 2020, MaxMem=  2097152000 cpu:         0.5
 (Enter /opt/cluster/programs/g09/g09_d.01/g09/l906.exe)
 DoSCS=T DFT=T ScalE2(SS,OS)=  0.270000  0.270000
 FulOut=F Deriv=F AODrv=F NAtomX=     6
   MMem=        3646  MDisk=           7 MDiskD=           7
  W3Min=      447300 MinDsk=     1090093 NBas6D=         284
 NBas2D=       41310    NTT=       40470    LW2=     4508827
    MDV=  2096872394 MDiskM=       16391 NBas2p=       41304
 Fully in-core method, ICMem=  1722292712.
 IMap=   1   2   3   4   5   6   7
 JobTyp=1 Pass  1 fully in-core, NPsUse=  8.
 Compute canonical integrals.
 FoFCou: FMM=F IPFlag=           0 FMFlag=           0 FMFlg1=           0
         NFxFlg=           0 DoJE=F BraDBF=F KetDBF=F FulRan=T
         wScrn=  0.000000 ICntrl=     600 IOpCl=  1 I1Cent=           0 NGrid=           0
         NMat0=    1 NMatS0=  41310 NMatT0=    0 NMatD0=    1 NMtDS0=    0 NMtDT0=    0
 Symmetry not used in FoFCou.
 Spin components of T(2) and E(2):
     alpha-alpha T2 =       0.1906590129D-01 E2=     -0.1613207728D-01
     alpha-beta  T2 =       0.1247932282D+00 E2=     -0.1113175652D+00
     beta-beta   T2 =       0.1906590129D-01 E2=     -0.1613207728D-01
 The integrals were generated   1 times.
 E2(B2PLYPD3) =    -0.1435817198D+00 E(B2PLYPD3) =    -0.11555085552768D+03
 Leave Link  906 at Wed Aug 26 10:47:03 2020, MaxMem=  2097152000 cpu:       111.7
 (Enter /opt/cluster/programs/g09/g09_d.01/g09/l601.exe)
 Copying SCF densities to generalized density rwf, IOpCl= 0 IROHF=0.

 **********************************************************************

            Population analysis using the SCF density.

 **********************************************************************

 Orbital symmetries:
       Occupied  (A) (A) (A) (A) (A) (A) (A) (A) (A)
       Virtual   (A) (A) (A) (A) (A) (A) (A) (A) (A) (A) (A) (A)
                 (A) (A) (A) (A) (A) (A) (A) (A) (A) (A) (A) (A)
                 (A) (A) (A) (A) (A) (A) (A) (A) (A) (A) (A) (A)
                 (A) (A) (A) (A) (A) (A) (A) (A) (A) (A) (A) (A)
                 (A) (A) (A) (A) (A) (A) (A) (A) (A) (A) (A) (A)
                 (A) (A) (A) (A) (A) (A) (A) (A) (A) (A) (A) (A)
                 (A) (A) (A) (A) (A) (A) (A) (A) (A) (A) (A) (A)
                 (A) (A) (A) (A) (A) (A) (A) (A) (A) (A) (A) (A)
                 (A) (A) (A) (A) (A) (A) (A) (A) (A) (A) (A) (A)
                 (A) (A) (A) (A) (A) (A) (A) (A) (A) (A) (A) (A)
                 (A) (A) (A) (A) (A) (A) (A) (A) (A) (A) (A) (A)
                 (A) (A) (A) (A) (A) (A) (A) (A) (A) (A) (A) (A)
                 (A) (A) (A) (A) (A) (A) (A) (A) (A) (A) (A) (A)
                 (A) (A) (A) (A) (A) (A) (A) (A) (A) (A) (A) (A)
                 (A) (A) (A) (A) (A) (A) (A) (A) (A) (A) (A) (A)
                 (A) (A) (A) (A) (A) (A) (A) (A) (A) (A) (A) (A)
                 (A) (A) (A) (A) (A) (A) (A) (A) (A) (A) (A) (A)
                 (A) (A) (A) (A) (A) (A) (A) (A) (A) (A) (A) (A)
                 (A) (A) (A) (A) (A) (A) (A) (A) (A)
 The electronic state is 1-A.
 Alpha  occ. eigenvalues --  -19.69173 -10.68374  -1.24196  -0.82300  -0.61291
 Alpha  occ. eigenvalues --   -0.51906  -0.50951  -0.39966  -0.35598
 Alpha virt. eigenvalues --    0.05356   0.09379   0.11636   0.12167   0.14268
 Alpha virt. eigenvalues --    0.16753   0.17593   0.28762   0.32304   0.33046
 Alpha virt. eigenvalues --    0.36513   0.38564   0.39851   0.40737   0.42752
 Alpha virt. eigenvalues --    0.49824   0.53960   0.58729   0.59977   0.66725
 Alpha virt. eigenvalues --    0.69899   0.70593   0.72318   0.78395   0.80206
 Alpha virt. eigenvalues --    0.82405   0.87269   0.87789   0.94191   0.96097
 Alpha virt. eigenvalues --    1.03305   1.04395   1.06547   1.07810   1.08890
 Alpha virt. eigenvalues --    1.11165   1.21708   1.23363   1.33481   1.35961
 Alpha virt. eigenvalues --    1.39189   1.39752   1.44069   1.47232   1.51514
 Alpha virt. eigenvalues --    1.80165   1.81260   1.85937   1.90057   1.92420
 Alpha virt. eigenvalues --    1.94831   1.95493   1.96197   2.02247   2.02824
 Alpha virt. eigenvalues --    2.03654   2.14283   2.15982   2.18483   2.20328
 Alpha virt. eigenvalues --    2.25186   2.30665   2.32319   2.38958   2.43640
 Alpha virt. eigenvalues --    2.44807   2.49901   2.58779   2.60897   2.65757
 Alpha virt. eigenvalues --    2.67730   2.72625   2.73605   2.74288   2.79362
 Alpha virt. eigenvalues --    2.81264   2.84804   2.86561   2.93247   2.95192
 Alpha virt. eigenvalues --    2.99263   3.05595   3.07078   3.13052   3.17201
 Alpha virt. eigenvalues --    3.21853   3.29468   3.34402   3.37526   3.43890
 Alpha virt. eigenvalues --    3.48042   3.60717   3.71872   3.79014   3.86368
 Alpha virt. eigenvalues --    3.91261   3.98783   4.06685   4.10106   4.14201
 Alpha virt. eigenvalues --    4.17157   4.24044   4.29584   4.42518   4.49011
 Alpha virt. eigenvalues --    4.53443   4.75034   4.83043   5.08332   5.29795
 Alpha virt. eigenvalues --    5.38098   5.41666   5.48344   5.60867   5.68295
 Alpha virt. eigenvalues --    5.76133   5.82325   5.85959   5.87903   5.91515
 Alpha virt. eigenvalues --    5.94875   5.96991   6.01723   6.05950   6.07980
 Alpha virt. eigenvalues --    6.12836   6.17143   6.22273   6.26045   6.28400
 Alpha virt. eigenvalues --    6.32743   6.38301   6.43972   6.48552   6.52067
 Alpha virt. eigenvalues --    6.55090   6.60430   6.68789   6.71676   6.94232
 Alpha virt. eigenvalues --    6.96240   7.04098   7.09245   7.11738   7.17223
 Alpha virt. eigenvalues --    7.22474   7.27727   7.33615   7.36878   7.40917
 Alpha virt. eigenvalues --    7.42991   7.45520   7.58119   7.62787   7.67634
 Alpha virt. eigenvalues --    7.68765   7.70381   7.74676   7.79071   7.84014
 Alpha virt. eigenvalues --    7.87052   7.94039   8.05314   8.08016   8.18461
 Alpha virt. eigenvalues --    8.23084   8.24161   8.26554   8.30558   8.38556
 Alpha virt. eigenvalues --    8.40982   8.46259   8.50707   8.55714   8.61419
 Alpha virt. eigenvalues --    8.70986   8.79952   8.82833   8.85229   8.90219
 Alpha virt. eigenvalues --    8.94258   8.98864   9.16454   9.26345   9.42802
 Alpha virt. eigenvalues --    9.48747   9.51172   9.58822   9.65994   9.71650
 Alpha virt. eigenvalues --    9.84808   9.93226   9.97932  10.03304  10.22400
 Alpha virt. eigenvalues --   10.34164  10.39589  10.53488  10.57380  11.06295
 Alpha virt. eigenvalues --   11.15571  11.28212  11.50908  11.68962  11.81112
 Alpha virt. eigenvalues --   11.86161  11.89973  12.02871  12.10942  12.33780
 Alpha virt. eigenvalues --   12.52943  12.87170  13.22682  13.26555  13.42455
 Alpha virt. eigenvalues --   13.84730  14.01153  15.32950  16.24328  16.40807
 Alpha virt. eigenvalues --   17.38413  28.97165  49.20087 148.52937 255.10547
          Condensed to atoms (all electrons):
               1          2          3          4          5          6
     1  C    4.477607   0.252886   0.423011   0.424949   0.401336  -0.035567
     2  O    0.252886   7.659246  -0.058920  -0.053402  -0.039977   0.480059
     3  H    0.423011  -0.058920   0.674794  -0.038141  -0.032733  -0.003092
     4  H    0.424949  -0.053402  -0.038141   0.649136  -0.037493  -0.002544
     5  H    0.401336  -0.039977  -0.032733  -0.037493   0.616226   0.005755
     6  H   -0.035567   0.480059  -0.003092  -0.002544   0.005755   0.550741
 Mulliken charges:
               1
     1  C    0.055778
     2  O   -0.239892
     3  H    0.035082
     4  H    0.057496
     5  H    0.086886
     6  H    0.004649
 Sum of Mulliken charges =   0.00000
 Mulliken charges with hydrogens summed into heavy atoms:
               1
     1  C    0.235243
     2  O   -0.235243
 Electronic spatial extent (au):  <R**2>=             83.6098
 Charge=              0.0000 electrons
 Dipole moment (field-independent basis, Debye):
    X=             -0.7680    Y=              1.0172    Z=              0.4635  Tot=              1.3563
 Quadrupole moment (field-independent basis, Debye-Ang):
   XX=            -13.0167   YY=            -12.7602   ZZ=            -13.3367
   XY=              1.9349   XZ=              0.6103   YZ=              0.3189
 Traceless Quadrupole moment (field-independent basis, Debye-Ang):
   XX=              0.0212   YY=              0.2776   ZZ=             -0.2988
   XY=              1.9349   XZ=              0.6103   YZ=              0.3189
 Octapole moment (field-independent basis, Debye-Ang**2):
  XXX=              6.2709  YYY=              0.1287  ZZZ=              1.0864  XYY=              1.3584
  XXY=              1.5718  XXZ=              0.7391  XZZ=              0.7228  YZZ=              0.3128
  YYZ=             -0.5519  XYZ=              0.1603
 Hexadecapole moment (field-independent basis, Debye-Ang**3):
 XXXX=            -60.6414 YYYY=            -21.4068 ZZZZ=            -21.1854 XXXY=              4.1323
 XXXZ=              0.9873 YYYX=              2.4401 YYYZ=              0.4934 ZZZX=             -0.3405
 ZZZY=              0.4641 XXYY=            -13.5084 XXZZ=            -14.2558 YYZZ=             -7.0223
 XXYZ=              0.5863 YYXZ=              0.9850 ZZXY=              0.4487
 N-N= 4.179267250432D+01 E-N=-3.551496994856D+02  KE= 1.158047857195D+02
 Leave Link  601 at Wed Aug 26 10:47:03 2020, MaxMem=  2097152000 cpu:         0.3
 (Enter /opt/cluster/programs/g09/g09_d.01/g09/l9999.exe)
 1\1\GINC-NODE28\SP\RB2PLYPD3-FC\def2QZVP\C1H4O1\BOITTIER\26-Aug-2020\0
 \\#p B2PLYPD3/Def2QZVP\\methanol\\0,1\C,0,-5.176007,-1.243385,0.921637
 \O,0,-3.77984,-1.126656,0.838931\H,0,-5.470356,-2.344069,0.488944\H,0,
 -5.638256,-0.408774,0.331928\H,0,-5.431741,-1.182372,2.020285\H,0,-3.4
 45178,-1.197384,0.237107\\Version=ES64L-G09RevD.01\State=1-A\HF=-115.4
 072738\MP2=-115.5508555\RMSD=1.754e-09\PG=C01 [X(C1H4O1)]\\@


 THE 2ND LAW OF THERMODYNAMICS HAS THE SAME
 DEGREE OF TRUTH AS THE STATEMENT THAT IF YOU THROW
 A TUMBLERFULL OF WATER INTO THE SEA, YOU CANNOT GET
 THE SAME TUMBLERFULL OF WATER OUT AGAIN.
          - J.C. MAXWELL, LETTER TO LORD RAYLEIGH, DECEMBER 6,1870
 Job cpu time:       0 days  0 hours  3 minutes  0.1 seconds.
 File lengths (MBytes):  RWF=     23 Int=      0 D2E=      0 Chk=      4 Scr=      1
 Normal termination of Gaussian 09 at Wed Aug 26 10:47:04 2020.
