 Entering Gaussian System, Link 0=/opt/cluster/programs/g09/g09_d.01/g09//g09
 Input=/home/boittier/MDCM/nms_sampling/methanol_geom.xyz.dir/energies/methanol_379_energy.com
 Output=/scratch/boittier/methanol_379_energy/methanol_379_energy.out
 Initial command:
 /opt/cluster/programs/g09/g09_d.01/g09/l1.exe "/scratch/boittier/methanol_379_energy/Gau-116747.inp" -scrdir="/scratch/boittier/methanol_379_energy/"
 Entering Link 1 = /opt/cluster/programs/g09/g09_d.01/g09/l1.exe PID=    116748.
  
 Copyright (c) 1988,1990,1992,1993,1995,1998,2003,2009,2013,
            Gaussian, Inc.  All Rights Reserved.
  
 This is part of the Gaussian(R) 09 program.  It is based on
 the Gaussian(R) 03 system (copyright 2003, Gaussian, Inc.),
 the Gaussian(R) 98 system (copyright 1998, Gaussian, Inc.),
 the Gaussian(R) 94 system (copyright 1995, Gaussian, Inc.),
 the Gaussian 92(TM) system (copyright 1992, Gaussian, Inc.),
 the Gaussian 90(TM) system (copyright 1990, Gaussian, Inc.),
 the Gaussian 88(TM) system (copyright 1988, Gaussian, Inc.),
 the Gaussian 86(TM) system (copyright 1986, Carnegie Mellon
 University), and the Gaussian 82(TM) system (copyright 1983,
 Carnegie Mellon University). Gaussian is a federally registered
 trademark of Gaussian, Inc.
  
 This software contains proprietary and confidential information,
 including trade secrets, belonging to Gaussian, Inc.
  
 This software is provided under written license and may be
 used, copied, transmitted, or stored only in accord with that
 written license.
  
 The following legend is applicable only to US Government
 contracts under FAR:
  
                    RESTRICTED RIGHTS LEGEND
  
 Use, reproduction and disclosure by the US Government is
 subject to restrictions as set forth in subparagraphs (a)
 and (c) of the Commercial Computer Software - Restricted
 Rights clause in FAR 52.227-19.
  
 Gaussian, Inc.
 340 Quinnipiac St., Bldg. 40, Wallingford CT 06492
  
  
 ---------------------------------------------------------------
 Warning -- This program may not be used in any manner that
 competes with the business of Gaussian, Inc. or will provide
 assistance to any competitor of Gaussian, Inc.  The licensee
 of this program is prohibited from giving any competitor of
 Gaussian, Inc. access to this program.  By using this program,
 the user acknowledges that Gaussian, Inc. is engaged in the
 business of creating and licensing software in the field of
 computational chemistry and represents and warrants to the
 licensee that it is not a competitor of Gaussian, Inc. and that
 it will not use this program in any manner prohibited above.
 ---------------------------------------------------------------
  

 Cite this work as:
 Gaussian 09, Revision D.01,
 M. J. Frisch, G. W. Trucks, H. B. Schlegel, G. E. Scuseria, 
 M. A. Robb, J. R. Cheeseman, G. Scalmani, V. Barone, B. Mennucci, 
 G. A. Petersson, H. Nakatsuji, M. Caricato, X. Li, H. P. Hratchian, 
 A. F. Izmaylov, J. Bloino, G. Zheng, J. L. Sonnenberg, M. Hada, 
 M. Ehara, K. Toyota, R. Fukuda, J. Hasegawa, M. Ishida, T. Nakajima, 
 Y. Honda, O. Kitao, H. Nakai, T. Vreven, J. A. Montgomery, Jr., 
 J. E. Peralta, F. Ogliaro, M. Bearpark, J. J. Heyd, E. Brothers, 
 K. N. Kudin, V. N. Staroverov, T. Keith, R. Kobayashi, J. Normand, 
 K. Raghavachari, A. Rendell, J. C. Burant, S. S. Iyengar, J. Tomasi, 
 M. Cossi, N. Rega, J. M. Millam, M. Klene, J. E. Knox, J. B. Cross, 
 V. Bakken, C. Adamo, J. Jaramillo, R. Gomperts, R. E. Stratmann, 
 O. Yazyev, A. J. Austin, R. Cammi, C. Pomelli, J. W. Ochterski, 
 R. L. Martin, K. Morokuma, V. G. Zakrzewski, G. A. Voth, 
 P. Salvador, J. J. Dannenberg, S. Dapprich, A. D. Daniels, 
 O. Farkas, J. B. Foresman, J. V. Ortiz, J. Cioslowski, 
 and D. J. Fox, Gaussian, Inc., Wallingford CT, 2013.
 
 ******************************************
 Gaussian 09:  ES64L-G09RevD.01 24-Apr-2013
                26-Aug-2020 
 ******************************************
 %chk=/home/boittier/MDCM/nms_sampling/methanol_geom.xyz.dir/methanol_379.chk
 %nproc=8
 Will use up to    8 processors via shared memory.
 %mem=16000MB
 --------------------
 #p B2PLYPD3/Def2QZVP
 --------------------
 1/38=1/1;
 2/12=2,17=6,18=5,40=1/2;
 3/5=45,7=101,11=9,16=1,25=1,30=1,74=-60/1,2,3;
 4//1;
 5/5=2,38=5/2;
 8/10=1/1;
 9/16=-3/6;
 6/7=2,8=2,9=2,10=2/1;
 99/5=1,9=1/99;
 Leave Link    1 at Wed Aug 26 23:57:26 2020, MaxMem=  2097152000 cpu:         0.3
 (Enter /opt/cluster/programs/g09/g09_d.01/g09/l101.exe)
 --------
 methanol
 --------
 Symbolic Z-matrix:
 Charge =  0 Multiplicity = 1
 C                    -5.17525  -1.25027   0.90973 
 O                    -3.76759  -1.12429   0.85842 
 H                    -5.50262  -2.22193   0.55335 
 H                    -5.70371  -0.48189   0.32831 
 H                    -5.5059   -1.18517   2.0104 
 H                    -3.472    -1.20815   0.00448 
 
 NAtoms=      6 NQM=        6 NQMF=       0 NMMI=      0 NMMIF=      0
                NMic=       0 NMicF=      0.
                    Isotopes and Nuclear Properties:
 (Nuclear quadrupole moments (NQMom) in fm**2, nuclear magnetic moments (NMagM)
  in nuclear magnetons)

  Atom         1           2           3           4           5           6
 IAtWgt=          12          16           1           1           1           1
 AtmWgt=  12.0000000  15.9949146   1.0078250   1.0078250   1.0078250   1.0078250
 NucSpn=           0           0           1           1           1           1
 AtZEff=   0.0000000   0.0000000   0.0000000   0.0000000   0.0000000   0.0000000
 NQMom=    0.0000000   0.0000000   0.0000000   0.0000000   0.0000000   0.0000000
 NMagM=    0.0000000   0.0000000   2.7928460   2.7928460   2.7928460   2.7928460
 AtZNuc=   6.0000000   8.0000000   1.0000000   1.0000000   1.0000000   1.0000000
 Leave Link  101 at Wed Aug 26 23:57:31 2020, MaxMem=  2097152000 cpu:         0.5
 (Enter /opt/cluster/programs/g09/g09_d.01/g09/l202.exe)
                          Input orientation:                          
 ---------------------------------------------------------------------
 Center     Atomic      Atomic             Coordinates (Angstroms)
 Number     Number       Type             X           Y           Z
 ---------------------------------------------------------------------
      1          6           0       -5.175249   -1.250266    0.909733
      2          8           0       -3.767591   -1.124290    0.858415
      3          1           0       -5.502618   -2.221929    0.553348
      4          1           0       -5.703708   -0.481888    0.328310
      5          1           0       -5.505898   -1.185169    2.010399
      6          1           0       -3.471996   -1.208150    0.004484
 ---------------------------------------------------------------------
                    Distance matrix (angstroms):
                    1          2          3          4          5
     1  C    0.000000
     2  O    1.414215   0.000000
     3  H    1.085500   2.075619   0.000000
     4  H    1.098966   2.107662   1.766019   0.000000
     5  H    1.151100   2.086261   1.788262   1.833891   0.000000
     6  H    1.929332   0.907528   2.335043   2.369147   2.856743
                    6
     6  H    0.000000
 Stoichiometry    CH4O
 Framework group  C1[X(CH4O)]
 Deg. of freedom    12
 Full point group                 C1      NOp   1
 Largest Abelian subgroup         C1      NOp   1
 Largest concise Abelian subgroup C1      NOp   1
                         Standard orientation:                         
 ---------------------------------------------------------------------
 Center     Atomic      Atomic             Coordinates (Angstroms)
 Number     Number       Type             X           Y           Z
 ---------------------------------------------------------------------
      1          6           0       -0.658841   -0.027357   -0.002006
      2          8           0        0.747846    0.118176   -0.009525
      3          1           0       -1.007557   -0.491218    0.915349
      4          1           0       -1.040960   -0.618820   -0.845737
      5          1           0       -1.132687    1.021306   -0.030428
      6          1           0        1.151476   -0.692539    0.049053
 ---------------------------------------------------------------------
 Rotational constants (GHZ):    129.1866990     24.8005541     23.8947710
 Leave Link  202 at Wed Aug 26 23:57:32 2020, MaxMem=  2097152000 cpu:         0.0
 (Enter /opt/cluster/programs/g09/g09_d.01/g09/l301.exe)
 Standard basis: def2QZVP (5D, 7F)
 Ernie: Thresh=  0.10000D-02 Tol=  0.10000D-05 Strict=F.
 There are   284 symmetry adapted cartesian basis functions of A   symmetry.
 There are   234 symmetry adapted basis functions of A   symmetry.
   234 basis functions,   336 primitive gaussians,   284 cartesian basis functions
     9 alpha electrons        9 beta electrons
       nuclear repulsion energy        40.4404152326 Hartrees.
 IExCor=  419 DFT=T Ex+Corr=B2PLYPD3 ExCW=0 ScaHFX=  0.530000
 ScaDFX=  0.470000  0.470000  0.730000  0.730000 ScalE2=  0.270000  0.270000
 IRadAn=      0 IRanWt=     -1 IRanGd=            0 ICorTp=0 IEmpDi=141
 NAtoms=    6 NActive=    6 NUniq=    6 SFac= 1.00D+00 NAtFMM=   60 NAOKFM=F Big=F
 Integral buffers will be    131072 words long.
 Regular integral format.
 Two-electron integral symmetry is turned on.
 R6Disp:  Grimme-D3(BJ) Dispersion energy=       -0.0013058518 Hartrees.
 Nuclear repulsion after empirical dispersion term =       40.4391093808 Hartrees.
 Leave Link  301 at Wed Aug 26 23:57:33 2020, MaxMem=  2097152000 cpu:         0.4
 (Enter /opt/cluster/programs/g09/g09_d.01/g09/l302.exe)
 NPDir=0 NMtPBC=     1 NCelOv=     1 NCel=       1 NClECP=     1 NCelD=      1
         NCelK=      1 NCelE2=     1 NClLst=     1 CellRange=     0.0.
 One-electron integrals computed using PRISM.
   1 Symmetry operations used in ECPInt.
 ECPInt:  NShTT=    2775 NPrTT=    6207 LenC2=    2774 LenP2D=    5731.
 LDataN:  DoStor=T MaxTD1= 8 Len=  415
 NBasis=   234 RedAO= T EigKep=  1.40D-04  NBF=   234
 NBsUse=   234 1.00D-06 EigRej= -1.00D+00 NBFU=   234
 Precomputing XC quadrature grid using
 IXCGrd= 4 IRadAn=           0 IRanWt=          -1 IRanGd=           0 AccXCQ= 0.00D+00.
 Generated NRdTot=       0 NPtTot=           0 NUsed=           0 NTot=          32
 NSgBfM=   284   284   284   284   284 MxSgAt=     6 MxSgA2=     6.
 Leave Link  302 at Wed Aug 26 23:57:34 2020, MaxMem=  2097152000 cpu:         2.1
 (Enter /opt/cluster/programs/g09/g09_d.01/g09/l303.exe)
 DipDrv:  MaxL=1.
 Leave Link  303 at Wed Aug 26 23:57:34 2020, MaxMem=  2097152000 cpu:         0.2
 (Enter /opt/cluster/programs/g09/g09_d.01/g09/l401.exe)
 ExpMin= 7.60D-02 ExpMax= 1.17D+05 ExpMxC= 1.13D+03 IAcc=2 IRadAn=         4 AccDes= 0.00D+00
 Harris functional with IExCor=  419 and IRadAn=       4 diagonalized for initial guess.
 HarFok:  IExCor=  419 AccDes= 0.00D+00 IRadAn=         4 IDoV= 1 UseB2=F ITyADJ=14
 ICtDFT=  3500011 ScaDFX=  1.000000  1.000000  1.000000  1.000000
 FoFCou: FMM=F IPFlag=           0 FMFlag=      100000 FMFlg1=           0
         NFxFlg=           0 DoJE=T BraDBF=F KetDBF=T FulRan=T
         wScrn=  0.000000 ICntrl=     500 IOpCl=  0 I1Cent=   200000004 NGrid=           0
         NMat0=    1 NMatS0=      1 NMatT0=    0 NMatD0=    1 NMtDS0=    0 NMtDT0=    0
 Petite list used in FoFCou.
 Harris En= -115.815342079330    
 JPrj=0 DoOrth=F DoCkMO=F.
 Leave Link  401 at Wed Aug 26 23:57:36 2020, MaxMem=  2097152000 cpu:         3.8
 (Enter /opt/cluster/programs/g09/g09_d.01/g09/l502.exe)
 Closed shell SCF:
 Using DIIS extrapolation, IDIIS=  1040.
 Integral symmetry usage will be decided dynamically.
 Keep R1 ints in memory in canonical form, NReq=389840494.
 IVT=      264814 IEndB=      264814 NGot=  2097152000 MDV=  1718885927
 LenX=  1718885927 LenY=  1718804830
 Requested convergence on RMS density matrix=1.00D-08 within 128 cycles.
 Requested convergence on MAX density matrix=1.00D-06.
 Requested convergence on             energy=1.00D-06.
 No special actions if energy rises.
 FoFCou: FMM=F IPFlag=           0 FMFlag=           0 FMFlg1=           0
         NFxFlg=           0 DoJE=F BraDBF=F KetDBF=F FulRan=T
         wScrn=  0.000000 ICntrl=     600 IOpCl=  0 I1Cent=           0 NGrid=           0
         NMat0=    1 NMatS0=  27495 NMatT0=    0 NMatD0=    1 NMtDS0=    0 NMtDT0=    0
 Symmetry not used in FoFCou.
 Integral accuracy reduced to 1.0D-05 until final iterations.

 Cycle   1  Pass 0  IDiag  1:
 E= -115.449728589057    
 DIIS: error= 2.41D-02 at cycle   1 NSaved=   1.
 NSaved= 1 IEnMin= 1 EnMin= -115.449728589057     IErMin= 1 ErrMin= 2.41D-02
 ErrMax= 2.41D-02  0.00D+00 EMaxC= 1.00D-01 BMatC= 1.81D-01 BMatP= 1.81D-01
 IDIUse=3 WtCom= 7.59D-01 WtEn= 2.41D-01
 Coeff-Com:  0.100D+01
 Coeff-En:   0.100D+01
 Coeff:      0.100D+01
 Gap=     0.331 Goal=   None    Shift=    0.000
 GapD=    0.331 DampG=1.000 DampE=0.500 DampFc=0.5000 IDamp=-1.
 Damping current iteration by 5.00D-01
 RMSDP=1.32D-03 MaxDP=4.82D-02              OVMax= 1.43D-01

 Cycle   2  Pass 0  IDiag  1:
 E= -115.498087309997     Delta-E=       -0.048358720939 Rises=F Damp=T
 DIIS: error= 1.10D-02 at cycle   2 NSaved=   2.
 NSaved= 2 IEnMin= 2 EnMin= -115.498087309997     IErMin= 2 ErrMin= 1.10D-02
 ErrMax= 1.10D-02  0.00D+00 EMaxC= 1.00D-01 BMatC= 1.84D-02 BMatP= 1.81D-01
 IDIUse=3 WtCom= 8.90D-01 WtEn= 1.10D-01
 Coeff-Com: -0.123D+00 0.112D+01
 Coeff-En:   0.000D+00 0.100D+01
 Coeff:     -0.110D+00 0.111D+01
 Gap=     0.428 Goal=   None    Shift=    0.000
 RMSDP=3.38D-04 MaxDP=9.14D-03 DE=-4.84D-02 OVMax= 8.44D-02

 Cycle   3  Pass 0  IDiag  1:
 E= -115.545846953660     Delta-E=       -0.047759643663 Rises=F Damp=F
 DIIS: error= 4.52D-03 at cycle   3 NSaved=   3.
 NSaved= 3 IEnMin= 3 EnMin= -115.545846953660     IErMin= 3 ErrMin= 4.52D-03
 ErrMax= 4.52D-03  0.00D+00 EMaxC= 1.00D-01 BMatC= 3.79D-03 BMatP= 1.84D-02
 IDIUse=3 WtCom= 9.55D-01 WtEn= 4.52D-02
 Coeff-Com: -0.129D+00 0.312D+00 0.817D+00
 Coeff-En:   0.000D+00 0.000D+00 0.100D+01
 Coeff:     -0.123D+00 0.298D+00 0.825D+00
 Gap=     0.409 Goal=   None    Shift=    0.000
 RMSDP=1.13D-04 MaxDP=4.45D-03 DE=-4.78D-02 OVMax= 1.37D-02

 Cycle   4  Pass 0  IDiag  1:
 E= -115.547964200933     Delta-E=       -0.002117247273 Rises=F Damp=F
 DIIS: error= 1.53D-03 at cycle   4 NSaved=   4.
 NSaved= 4 IEnMin= 4 EnMin= -115.547964200933     IErMin= 4 ErrMin= 1.53D-03
 ErrMax= 1.53D-03  0.00D+00 EMaxC= 1.00D-01 BMatC= 4.23D-04 BMatP= 3.79D-03
 IDIUse=3 WtCom= 9.85D-01 WtEn= 1.53D-02
 Coeff-Com: -0.459D-01 0.814D-01 0.354D+00 0.610D+00
 Coeff-En:   0.000D+00 0.000D+00 0.000D+00 0.100D+01
 Coeff:     -0.452D-01 0.802D-01 0.349D+00 0.616D+00
 Gap=     0.407 Goal=   None    Shift=    0.000
 RMSDP=3.55D-05 MaxDP=1.73D-03 DE=-2.12D-03 OVMax= 5.19D-03

 Cycle   5  Pass 0  IDiag  1:
 E= -115.548299713098     Delta-E=       -0.000335512165 Rises=F Damp=F
 DIIS: error= 1.67D-04 at cycle   5 NSaved=   5.
 NSaved= 5 IEnMin= 5 EnMin= -115.548299713098     IErMin= 5 ErrMin= 1.67D-04
 ErrMax= 1.67D-04  0.00D+00 EMaxC= 1.00D-01 BMatC= 6.09D-06 BMatP= 4.23D-04
 IDIUse=3 WtCom= 9.98D-01 WtEn= 1.67D-03
 Coeff-Com: -0.718D-02 0.926D-02 0.616D-01 0.169D+00 0.767D+00
 Coeff-En:   0.000D+00 0.000D+00 0.000D+00 0.000D+00 0.100D+01
 Coeff:     -0.717D-02 0.924D-02 0.615D-01 0.169D+00 0.767D+00
 Gap=     0.407 Goal=   None    Shift=    0.000
 RMSDP=6.36D-06 MaxDP=1.88D-04 DE=-3.36D-04 OVMax= 5.39D-04

 Initial convergence to 1.0D-05 achieved.  Increase integral accuracy.
 Cycle   6  Pass 1  IDiag  1:
 E= -115.548315125504     Delta-E=       -0.000015412406 Rises=F Damp=F
 DIIS: error= 1.53D-05 at cycle   1 NSaved=   1.
 NSaved= 1 IEnMin= 1 EnMin= -115.548315125504     IErMin= 1 ErrMin= 1.53D-05
 ErrMax= 1.53D-05  0.00D+00 EMaxC= 1.00D-01 BMatC= 6.81D-08 BMatP= 6.81D-08
 IDIUse=1 WtCom= 1.00D+00 WtEn= 0.00D+00
 Coeff-Com:  0.100D+01
 Coeff:      0.100D+01
 Gap=     0.407 Goal=   None    Shift=    0.000
 RMSDP=6.36D-06 MaxDP=1.88D-04 DE=-1.54D-05 OVMax= 9.59D-05

 Cycle   7  Pass 1  IDiag  1:
 E= -115.548315214496     Delta-E=       -0.000000088993 Rises=F Damp=F
 DIIS: error= 4.43D-06 at cycle   2 NSaved=   2.
 NSaved= 2 IEnMin= 2 EnMin= -115.548315214496     IErMin= 2 ErrMin= 4.43D-06
 ErrMax= 4.43D-06  0.00D+00 EMaxC= 1.00D-01 BMatC= 3.87D-09 BMatP= 6.81D-08
 IDIUse=1 WtCom= 1.00D+00 WtEn= 0.00D+00
 Coeff-Com: -0.457D-01 0.105D+01
 Coeff:     -0.457D-01 0.105D+01
 Gap=     0.407 Goal=   None    Shift=    0.000
 RMSDP=4.09D-07 MaxDP=1.22D-05 DE=-8.90D-08 OVMax= 3.87D-05

 Cycle   8  Pass 1  IDiag  1:
 E= -115.548315221067     Delta-E=       -0.000000006571 Rises=F Damp=F
 DIIS: error= 3.39D-06 at cycle   3 NSaved=   3.
 NSaved= 3 IEnMin= 3 EnMin= -115.548315221067     IErMin= 3 ErrMin= 3.39D-06
 ErrMax= 3.39D-06  0.00D+00 EMaxC= 1.00D-01 BMatC= 1.35D-09 BMatP= 3.87D-09
 IDIUse=1 WtCom= 1.00D+00 WtEn= 0.00D+00
 Coeff-Com: -0.742D-01 0.338D+00 0.736D+00
 Coeff:     -0.742D-01 0.338D+00 0.736D+00
 Gap=     0.407 Goal=   None    Shift=    0.000
 RMSDP=1.10D-07 MaxDP=3.63D-06 DE=-6.57D-09 OVMax= 1.27D-05

 Cycle   9  Pass 1  IDiag  1:
 E= -115.548315222233     Delta-E=       -0.000000001166 Rises=F Damp=F
 DIIS: error= 1.15D-06 at cycle   4 NSaved=   4.
 NSaved= 4 IEnMin= 4 EnMin= -115.548315222233     IErMin= 4 ErrMin= 1.15D-06
 ErrMax= 1.15D-06  0.00D+00 EMaxC= 1.00D-01 BMatC= 1.97D-10 BMatP= 1.35D-09
 IDIUse=1 WtCom= 1.00D+00 WtEn= 0.00D+00
 Coeff-Com: -0.216D-01-0.487D-02 0.287D+00 0.739D+00
 Coeff:     -0.216D-01-0.487D-02 0.287D+00 0.739D+00
 Gap=     0.407 Goal=   None    Shift=    0.000
 RMSDP=4.05D-08 MaxDP=1.69D-06 DE=-1.17D-09 OVMax= 5.59D-06

 Cycle  10  Pass 1  IDiag  1:
 E= -115.548315222388     Delta-E=       -0.000000000154 Rises=F Damp=F
 DIIS: error= 2.22D-07 at cycle   5 NSaved=   5.
 NSaved= 5 IEnMin= 5 EnMin= -115.548315222388     IErMin= 5 ErrMin= 2.22D-07
 ErrMax= 2.22D-07  0.00D+00 EMaxC= 1.00D-01 BMatC= 9.08D-12 BMatP= 1.97D-10
 IDIUse=1 WtCom= 1.00D+00 WtEn= 0.00D+00
 Coeff-Com: -0.547D-03-0.282D-01 0.329D-01 0.200D+00 0.796D+00
 Coeff:     -0.547D-03-0.282D-01 0.329D-01 0.200D+00 0.796D+00
 Gap=     0.407 Goal=   None    Shift=    0.000
 RMSDP=9.76D-09 MaxDP=3.19D-07 DE=-1.54D-10 OVMax= 1.19D-06

 SCF Done:  E(RB2PLYPD3) =  -115.548315222     A.U. after   10 cycles
            NFock= 10  Conv=0.98D-08     -V/T= 2.0029
 KE= 1.152135373814D+02 PE=-3.523984899998D+02 EE= 8.119752801525D+01
 Leave Link  502 at Wed Aug 26 23:57:55 2020, MaxMem=  2097152000 cpu:        98.2
 (Enter /opt/cluster/programs/g09/g09_d.01/g09/l801.exe)
 DoSCS=T DFT=T ScalE2(SS,OS)=  0.270000  0.270000
 ExpMin= 7.60D-02 ExpMax= 1.17D+05 ExpMxC= 1.13D+03 IAcc=3 IRadAn=         5 AccDes= 0.00D+00
 HarFok:  IExCor=  205 AccDes= 0.00D+00 IRadAn=         5 IDoV=-2 UseB2=F ITyADJ=14
 ICtDFT= 12500011 ScaDFX=  1.000000  1.000000  1.000000  1.000000
 DSYEVD-2 returned Info=         115 IAlg= 4 N=    57 NDim=    57 NE2=    36788970 trying  DSYEV.
 Largest valence mixing into a core orbital is  1.17D-04
 Largest core mixing into a valence orbital is  1.53D-05
 Range of M.O.s used for correlation:     3   234
 NBasis=   234 NAE=     9 NBE=     9 NFC=     2 NFV=     0
 NROrb=    232 NOA=     7 NOB=     7 NVA=   225 NVB=   225

 **** Warning!!: The largest alpha MO coefficient is  0.25764778D+02

 Leave Link  801 at Wed Aug 26 23:57:55 2020, MaxMem=  2097152000 cpu:         0.6
 (Enter /opt/cluster/programs/g09/g09_d.01/g09/l906.exe)
 DoSCS=T DFT=T ScalE2(SS,OS)=  0.270000  0.270000
 FulOut=F Deriv=F AODrv=F NAtomX=     6
   MMem=        3646  MDisk=           7 MDiskD=           7
  W3Min=      447300 MinDsk=     1090093 NBas6D=         284
 NBas2D=       41310    NTT=       40470    LW2=     4508827
    MDV=  2096872492 MDiskM=       16391 NBas2p=       41304
 Fully in-core method, ICMem=  1722292712.
 IMap=   1   2   3   4   5   6   7
 JobTyp=1 Pass  1 fully in-core, NPsUse=  8.
 Compute canonical integrals.
 FoFCou: FMM=F IPFlag=           0 FMFlag=           0 FMFlg1=           0
         NFxFlg=           0 DoJE=F BraDBF=F KetDBF=F FulRan=T
         wScrn=  0.000000 ICntrl=     600 IOpCl=  1 I1Cent=           0 NGrid=           0
         NMat0=    1 NMatS0=  41310 NMatT0=    0 NMatD0=    1 NMtDS0=    0 NMtDT0=    0
 Symmetry not used in FoFCou.
 Spin components of T(2) and E(2):
     alpha-alpha T2 =       0.2049390263D-01 E2=     -0.1659165461D-01
     alpha-beta  T2 =       0.1300689852D+00 E2=     -0.1132904771D+00
     beta-beta   T2 =       0.2049390263D-01 E2=     -0.1659165461D-01
 The integrals were generated   1 times.
 E2(B2PLYPD3) =    -0.1464737863D+00 E(B2PLYPD3) =    -0.11569478900870D+03
 Leave Link  906 at Wed Aug 26 23:58:11 2020, MaxMem=  2097152000 cpu:       122.0
 (Enter /opt/cluster/programs/g09/g09_d.01/g09/l601.exe)
 Copying SCF densities to generalized density rwf, IOpCl= 0 IROHF=0.

 **********************************************************************

            Population analysis using the SCF density.

 **********************************************************************

 Orbital symmetries:
       Occupied  (A) (A) (A) (A) (A) (A) (A) (A) (A)
       Virtual   (A) (A) (A) (A) (A) (A) (A) (A) (A) (A) (A) (A)
                 (A) (A) (A) (A) (A) (A) (A) (A) (A) (A) (A) (A)
                 (A) (A) (A) (A) (A) (A) (A) (A) (A) (A) (A) (A)
                 (A) (A) (A) (A) (A) (A) (A) (A) (A) (A) (A) (A)
                 (A) (A) (A) (A) (A) (A) (A) (A) (A) (A) (A) (A)
                 (A) (A) (A) (A) (A) (A) (A) (A) (A) (A) (A) (A)
                 (A) (A) (A) (A) (A) (A) (A) (A) (A) (A) (A) (A)
                 (A) (A) (A) (A) (A) (A) (A) (A) (A) (A) (A) (A)
                 (A) (A) (A) (A) (A) (A) (A) (A) (A) (A) (A) (A)
                 (A) (A) (A) (A) (A) (A) (A) (A) (A) (A) (A) (A)
                 (A) (A) (A) (A) (A) (A) (A) (A) (A) (A) (A) (A)
                 (A) (A) (A) (A) (A) (A) (A) (A) (A) (A) (A) (A)
                 (A) (A) (A) (A) (A) (A) (A) (A) (A) (A) (A) (A)
                 (A) (A) (A) (A) (A) (A) (A) (A) (A) (A) (A) (A)
                 (A) (A) (A) (A) (A) (A) (A) (A) (A) (A) (A) (A)
                 (A) (A) (A) (A) (A) (A) (A) (A) (A) (A) (A) (A)
                 (A) (A) (A) (A) (A) (A) (A) (A) (A) (A) (A) (A)
                 (A) (A) (A) (A) (A) (A) (A) (A) (A) (A) (A) (A)
                 (A) (A) (A) (A) (A) (A) (A) (A) (A)
 The electronic state is 1-A.
 Alpha  occ. eigenvalues --  -19.72172 -10.66363  -1.17484  -0.78807  -0.59760
 Alpha  occ. eigenvalues --   -0.51839  -0.49574  -0.40670  -0.35563
 Alpha virt. eigenvalues --    0.05169   0.08324   0.12185   0.12426   0.14858
 Alpha virt. eigenvalues --    0.17353   0.18047   0.29120   0.33309   0.33642
 Alpha virt. eigenvalues --    0.36116   0.37902   0.39924   0.40770   0.43434
 Alpha virt. eigenvalues --    0.45949   0.53114   0.56108   0.59235   0.66777
 Alpha virt. eigenvalues --    0.70863   0.73004   0.75701   0.78981   0.80297
 Alpha virt. eigenvalues --    0.82387   0.85875   0.87880   0.93245   0.97067
 Alpha virt. eigenvalues --    1.00652   1.01798   1.02638   1.10394   1.11114
 Alpha virt. eigenvalues --    1.12128   1.17600   1.21562   1.28424   1.40365
 Alpha virt. eigenvalues --    1.40926   1.43941   1.44070   1.47760   1.50924
 Alpha virt. eigenvalues --    1.77813   1.81066   1.85249   1.87501   1.88804
 Alpha virt. eigenvalues --    1.92318   1.95140   1.96713   1.98696   2.04028
 Alpha virt. eigenvalues --    2.05824   2.15053   2.18711   2.20679   2.22386
 Alpha virt. eigenvalues --    2.25597   2.28780   2.31473   2.37265   2.39443
 Alpha virt. eigenvalues --    2.43265   2.48710   2.55707   2.61479   2.62321
 Alpha virt. eigenvalues --    2.64466   2.66152   2.69406   2.79683   2.81548
 Alpha virt. eigenvalues --    2.85230   2.90191   2.92857   2.95175   2.95549
 Alpha virt. eigenvalues --    2.97171   3.07900   3.08526   3.12282   3.22118
 Alpha virt. eigenvalues --    3.24562   3.25559   3.33776   3.36772   3.44893
 Alpha virt. eigenvalues --    3.46198   3.62661   3.68776   3.84717   3.90111
 Alpha virt. eigenvalues --    3.90673   3.98719   4.01271   4.03732   4.15174
 Alpha virt. eigenvalues --    4.22240   4.24240   4.27223   4.37228   4.57017
 Alpha virt. eigenvalues --    4.58223   4.64245   4.68061   4.87360   5.23899
 Alpha virt. eigenvalues --    5.36476   5.45238   5.49569   5.56634   5.57585
 Alpha virt. eigenvalues --    5.66889   5.69992   5.80857   5.84190   5.87868
 Alpha virt. eigenvalues --    5.92591   5.93768   6.02408   6.04253   6.14253
 Alpha virt. eigenvalues --    6.16748   6.21597   6.25818   6.29626   6.30311
 Alpha virt. eigenvalues --    6.32438   6.35718   6.38071   6.46946   6.51609
 Alpha virt. eigenvalues --    6.58250   6.62233   6.71152   6.77626   6.90641
 Alpha virt. eigenvalues --    6.93956   7.00897   7.06934   7.09822   7.13599
 Alpha virt. eigenvalues --    7.31984   7.34349   7.38016   7.41073   7.43449
 Alpha virt. eigenvalues --    7.52392   7.55175   7.56322   7.63756   7.70647
 Alpha virt. eigenvalues --    7.74267   7.74904   7.77337   7.78542   7.84223
 Alpha virt. eigenvalues --    7.88264   7.94121   7.95922   7.96438   8.13786
 Alpha virt. eigenvalues --    8.15816   8.27415   8.38902   8.41068   8.44000
 Alpha virt. eigenvalues --    8.45094   8.47686   8.47759   8.50032   8.56314
 Alpha virt. eigenvalues --    8.57094   8.70623   8.80699   8.88139   8.90340
 Alpha virt. eigenvalues --    8.94317   8.95934   9.00731   9.07298   9.20343
 Alpha virt. eigenvalues --    9.39194   9.51707   9.58791   9.65065   9.70519
 Alpha virt. eigenvalues --    9.75801   9.82972   9.87835  10.04101  10.12423
 Alpha virt. eigenvalues --   10.21382  10.29401  10.35475  10.48541  10.67983
 Alpha virt. eigenvalues --   10.88413  11.08383  11.11174  11.57906  11.62199
 Alpha virt. eigenvalues --   11.71517  11.75616  11.98922  12.02287  12.10407
 Alpha virt. eigenvalues --   12.14380  12.34330  12.61890  12.79472  12.96234
 Alpha virt. eigenvalues --   13.20824  13.38672  14.52703  14.54705  14.72074
 Alpha virt. eigenvalues --   17.20064  29.16724  48.91552 148.75169 254.68515
          Condensed to atoms (all electrons):
               1          2          3          4          5          6
     1  C    4.442700   0.274324   0.431211   0.431129   0.397107  -0.044316
     2  O    0.274324   7.956707  -0.051152  -0.048646  -0.034706   0.338670
     3  H    0.431211  -0.051152   0.666626  -0.053652  -0.036659  -0.005694
     4  H    0.431129  -0.048646  -0.053652   0.663066  -0.036434  -0.005090
     5  H    0.397107  -0.034706  -0.036659  -0.036434   0.636319   0.008999
     6  H   -0.044316   0.338670  -0.005694  -0.005090   0.008999   0.504400
 Mulliken charges:
               1
     1  C    0.067845
     2  O   -0.435197
     3  H    0.049320
     4  H    0.049627
     5  H    0.065374
     6  H    0.203031
 Sum of Mulliken charges =   0.00000
 Mulliken charges with hydrogens summed into heavy atoms:
               1
     1  C    0.232166
     2  O   -0.232166
 Electronic spatial extent (au):  <R**2>=             84.8004
 Charge=              0.0000 electrons
 Dipole moment (field-independent basis, Debye):
    X=             -0.8162    Y=             -1.4948    Z=              0.1277  Tot=              1.7079
 Quadrupole moment (field-independent basis, Debye-Ang):
   XX=            -12.8972   YY=            -12.3830   ZZ=            -13.8175
   XY=             -2.1900   XZ=              0.1492   YZ=             -0.0407
 Traceless Quadrupole moment (field-independent basis, Debye-Ang):
   XX=              0.1354   YY=              0.6496   ZZ=             -0.7850
   XY=             -2.1900   XZ=              0.1492   YZ=             -0.0407
 Octapole moment (field-independent basis, Debye-Ang**2):
  XXX=              4.7780  YYY=             -0.5698  ZZZ=              0.1886  XYY=              1.6512
  XXY=             -2.3816  XXZ=              0.2027  XZZ=              0.4570  YZZ=             -0.7319
  YYZ=             -0.0215  XYZ=             -0.1701
 Hexadecapole moment (field-independent basis, Debye-Ang**3):
 XXXX=            -62.6032 YYYY=            -21.0980 ZZZZ=            -20.2308 XXXY=             -3.8834
 XXXZ=              0.2479 YYYX=             -2.8553 YYYZ=             -0.0314 ZZZX=             -0.0459
 ZZZY=             -0.0305 XXYY=            -12.9394 XXZZ=            -14.6731 YYZZ=             -7.0343
 XXYZ=             -0.0429 YYXZ=              0.1881 ZZXY=              0.1915
 N-N= 4.043910938079D+01 E-N=-3.523984575026D+02  KE= 1.152135373814D+02
 Leave Link  601 at Wed Aug 26 23:58:11 2020, MaxMem=  2097152000 cpu:         0.3
 (Enter /opt/cluster/programs/g09/g09_d.01/g09/l9999.exe)
 1\1\GINC-NODE16\SP\RB2PLYPD3-FC\def2QZVP\C1H4O1\BOITTIER\26-Aug-2020\0
 \\#p B2PLYPD3/Def2QZVP\\methanol\\0,1\C,0,-5.175249,-1.250266,0.909733
 \O,0,-3.767591,-1.12429,0.858415\H,0,-5.502618,-2.221929,0.553348\H,0,
 -5.703708,-0.481888,0.32831\H,0,-5.505898,-1.185169,2.010399\H,0,-3.47
 1996,-1.20815,0.004484\\Version=ES64L-G09RevD.01\State=1-A\HF=-115.548
 3152\MP2=-115.694789\RMSD=9.756e-09\PG=C01 [X(C1H4O1)]\\@


 A great many people think they are thinking when they
 are merely rearranging their prejudices.
                               -- William James
 Job cpu time:       0 days  0 hours  3 minutes 49.2 seconds.
 File lengths (MBytes):  RWF=     23 Int=      0 D2E=      0 Chk=      4 Scr=      1
 Normal termination of Gaussian 09 at Wed Aug 26 23:58:12 2020.
