 Entering Gaussian System, Link 0=/opt/cluster/programs/g09/g09_d.01/g09//g09
 Input=/home/boittier/MDCM/nms_sampling/methanol_geom.xyz.dir/energies/methanol_237_energy.com
 Output=/scratch/boittier/methanol_237_energy/methanol_237_energy.out
 Initial command:
 /opt/cluster/programs/g09/g09_d.01/g09/l1.exe "/scratch/boittier/methanol_237_energy/Gau-42507.inp" -scrdir="/scratch/boittier/methanol_237_energy/"
 Entering Link 1 = /opt/cluster/programs/g09/g09_d.01/g09/l1.exe PID=     42508.
  
 Copyright (c) 1988,1990,1992,1993,1995,1998,2003,2009,2013,
            Gaussian, Inc.  All Rights Reserved.
  
 This is part of the Gaussian(R) 09 program.  It is based on
 the Gaussian(R) 03 system (copyright 2003, Gaussian, Inc.),
 the Gaussian(R) 98 system (copyright 1998, Gaussian, Inc.),
 the Gaussian(R) 94 system (copyright 1995, Gaussian, Inc.),
 the Gaussian 92(TM) system (copyright 1992, Gaussian, Inc.),
 the Gaussian 90(TM) system (copyright 1990, Gaussian, Inc.),
 the Gaussian 88(TM) system (copyright 1988, Gaussian, Inc.),
 the Gaussian 86(TM) system (copyright 1986, Carnegie Mellon
 University), and the Gaussian 82(TM) system (copyright 1983,
 Carnegie Mellon University). Gaussian is a federally registered
 trademark of Gaussian, Inc.
  
 This software contains proprietary and confidential information,
 including trade secrets, belonging to Gaussian, Inc.
  
 This software is provided under written license and may be
 used, copied, transmitted, or stored only in accord with that
 written license.
  
 The following legend is applicable only to US Government
 contracts under FAR:
  
                    RESTRICTED RIGHTS LEGEND
  
 Use, reproduction and disclosure by the US Government is
 subject to restrictions as set forth in subparagraphs (a)
 and (c) of the Commercial Computer Software - Restricted
 Rights clause in FAR 52.227-19.
  
 Gaussian, Inc.
 340 Quinnipiac St., Bldg. 40, Wallingford CT 06492
  
  
 ---------------------------------------------------------------
 Warning -- This program may not be used in any manner that
 competes with the business of Gaussian, Inc. or will provide
 assistance to any competitor of Gaussian, Inc.  The licensee
 of this program is prohibited from giving any competitor of
 Gaussian, Inc. access to this program.  By using this program,
 the user acknowledges that Gaussian, Inc. is engaged in the
 business of creating and licensing software in the field of
 computational chemistry and represents and warrants to the
 licensee that it is not a competitor of Gaussian, Inc. and that
 it will not use this program in any manner prohibited above.
 ---------------------------------------------------------------
  

 Cite this work as:
 Gaussian 09, Revision D.01,
 M. J. Frisch, G. W. Trucks, H. B. Schlegel, G. E. Scuseria, 
 M. A. Robb, J. R. Cheeseman, G. Scalmani, V. Barone, B. Mennucci, 
 G. A. Petersson, H. Nakatsuji, M. Caricato, X. Li, H. P. Hratchian, 
 A. F. Izmaylov, J. Bloino, G. Zheng, J. L. Sonnenberg, M. Hada, 
 M. Ehara, K. Toyota, R. Fukuda, J. Hasegawa, M. Ishida, T. Nakajima, 
 Y. Honda, O. Kitao, H. Nakai, T. Vreven, J. A. Montgomery, Jr., 
 J. E. Peralta, F. Ogliaro, M. Bearpark, J. J. Heyd, E. Brothers, 
 K. N. Kudin, V. N. Staroverov, T. Keith, R. Kobayashi, J. Normand, 
 K. Raghavachari, A. Rendell, J. C. Burant, S. S. Iyengar, J. Tomasi, 
 M. Cossi, N. Rega, J. M. Millam, M. Klene, J. E. Knox, J. B. Cross, 
 V. Bakken, C. Adamo, J. Jaramillo, R. Gomperts, R. E. Stratmann, 
 O. Yazyev, A. J. Austin, R. Cammi, C. Pomelli, J. W. Ochterski, 
 R. L. Martin, K. Morokuma, V. G. Zakrzewski, G. A. Voth, 
 P. Salvador, J. J. Dannenberg, S. Dapprich, A. D. Daniels, 
 O. Farkas, J. B. Foresman, J. V. Ortiz, J. Cioslowski, 
 and D. J. Fox, Gaussian, Inc., Wallingford CT, 2013.
 
 ******************************************
 Gaussian 09:  ES64L-G09RevD.01 24-Apr-2013
                26-Aug-2020 
 ******************************************
 %chk=/home/boittier/MDCM/nms_sampling/methanol_geom.xyz.dir/methanol_237.chk
 %nproc=8
 Will use up to    8 processors via shared memory.
 %mem=16000MB
 --------------------
 #p B2PLYPD3/Def2QZVP
 --------------------
 1/38=1/1;
 2/12=2,17=6,18=5,40=1/2;
 3/5=45,7=101,11=9,16=1,25=1,30=1,74=-60/1,2,3;
 4//1;
 5/5=2,38=5/2;
 8/10=1/1;
 9/16=-3/6;
 6/7=2,8=2,9=2,10=2/1;
 99/5=1,9=1/99;
 Leave Link    1 at Wed Aug 26 16:37:59 2020, MaxMem=  2097152000 cpu:         0.2
 (Enter /opt/cluster/programs/g09/g09_d.01/g09/l101.exe)
 --------
 methanol
 --------
 Symbolic Z-matrix:
 Charge =  0 Multiplicity = 1
 C                    -5.1804   -1.2614    0.91536 
 O                    -3.76803  -1.12066   0.85257 
 H                    -5.51023  -2.22083   0.54172 
 H                    -5.6833   -0.42331   0.31908 
 H                    -5.43202  -1.1787    2.00418 
 H                    -3.48943  -1.20097   0.06197 
 
 NAtoms=      6 NQM=        6 NQMF=       0 NMMI=      0 NMMIF=      0
                NMic=       0 NMicF=      0.
                    Isotopes and Nuclear Properties:
 (Nuclear quadrupole moments (NQMom) in fm**2, nuclear magnetic moments (NMagM)
  in nuclear magnetons)

  Atom         1           2           3           4           5           6
 IAtWgt=          12          16           1           1           1           1
 AtmWgt=  12.0000000  15.9949146   1.0078250   1.0078250   1.0078250   1.0078250
 NucSpn=           0           0           1           1           1           1
 AtZEff=   0.0000000   0.0000000   0.0000000   0.0000000   0.0000000   0.0000000
 NQMom=    0.0000000   0.0000000   0.0000000   0.0000000   0.0000000   0.0000000
 NMagM=    0.0000000   0.0000000   2.7928460   2.7928460   2.7928460   2.7928460
 AtZNuc=   6.0000000   8.0000000   1.0000000   1.0000000   1.0000000   1.0000000
 Leave Link  101 at Wed Aug 26 16:37:59 2020, MaxMem=  2097152000 cpu:         0.6
 (Enter /opt/cluster/programs/g09/g09_d.01/g09/l202.exe)
                          Input orientation:                          
 ---------------------------------------------------------------------
 Center     Atomic      Atomic             Coordinates (Angstroms)
 Number     Number       Type             X           Y           Z
 ---------------------------------------------------------------------
      1          6           0       -5.180403   -1.261400    0.915362
      2          8           0       -3.768032   -1.120657    0.852573
      3          1           0       -5.510229   -2.220827    0.541724
      4          1           0       -5.683296   -0.423307    0.319078
      5          1           0       -5.432021   -1.178696    2.004177
      6          1           0       -3.489426   -1.200967    0.061968
 ---------------------------------------------------------------------
                    Distance matrix (angstroms):
                    1          2          3          4          5
     1  C    0.000000
     2  O    1.420754   0.000000
     3  H    1.081152   2.083807   0.000000
     4  H    1.144926   2.106929   1.819506   0.000000
     5  H    1.120567   2.024455   1.797477   1.863682   0.000000
     6  H    1.895082   0.842097   2.313855   2.341778   2.747062
                    6
     6  H    0.000000
 Stoichiometry    CH4O
 Framework group  C1[X(CH4O)]
 Deg. of freedom    12
 Full point group                 C1      NOp   1
 Largest Abelian subgroup         C1      NOp   1
 Largest concise Abelian subgroup C1      NOp   1
                         Standard orientation:                         
 ---------------------------------------------------------------------
 Center     Atomic      Atomic             Coordinates (Angstroms)
 Number     Number       Type             X           Y           Z
 ---------------------------------------------------------------------
      1          6           0       -0.667765   -0.016783    0.008685
      2          8           0        0.747804    0.102380   -0.013848
      3          1           0       -1.024798   -0.445956    0.934551
      4          1           0       -1.019864   -0.657208   -0.872643
      5          1           0       -1.048756    1.032652   -0.087245
      6          1           0        1.117575   -0.647833    0.084016
 ---------------------------------------------------------------------
 Rotational constants (GHZ):    128.5973116     24.8461004     24.1354417
 Leave Link  202 at Wed Aug 26 16:37:59 2020, MaxMem=  2097152000 cpu:         0.0
 (Enter /opt/cluster/programs/g09/g09_d.01/g09/l301.exe)
 Standard basis: def2QZVP (5D, 7F)
 Ernie: Thresh=  0.10000D-02 Tol=  0.10000D-05 Strict=F.
 There are   284 symmetry adapted cartesian basis functions of A   symmetry.
 There are   234 symmetry adapted basis functions of A   symmetry.
   234 basis functions,   336 primitive gaussians,   284 cartesian basis functions
     9 alpha electrons        9 beta electrons
       nuclear repulsion energy        40.7726664393 Hartrees.
 IExCor=  419 DFT=T Ex+Corr=B2PLYPD3 ExCW=0 ScaHFX=  0.530000
 ScaDFX=  0.470000  0.470000  0.730000  0.730000 ScalE2=  0.270000  0.270000
 IRadAn=      0 IRanWt=     -1 IRanGd=            0 ICorTp=0 IEmpDi=141
 NAtoms=    6 NActive=    6 NUniq=    6 SFac= 1.00D+00 NAtFMM=   60 NAOKFM=F Big=F
 Integral buffers will be    131072 words long.
 Regular integral format.
 Two-electron integral symmetry is turned on.
 R6Disp:  Grimme-D3(BJ) Dispersion energy=       -0.0013097382 Hartrees.
 Nuclear repulsion after empirical dispersion term =       40.7713567011 Hartrees.
 Leave Link  301 at Wed Aug 26 16:37:59 2020, MaxMem=  2097152000 cpu:         0.6
 (Enter /opt/cluster/programs/g09/g09_d.01/g09/l302.exe)
 NPDir=0 NMtPBC=     1 NCelOv=     1 NCel=       1 NClECP=     1 NCelD=      1
         NCelK=      1 NCelE2=     1 NClLst=     1 CellRange=     0.0.
 One-electron integrals computed using PRISM.
   1 Symmetry operations used in ECPInt.
 ECPInt:  NShTT=    2775 NPrTT=    6207 LenC2=    2774 LenP2D=    5739.
 LDataN:  DoStor=T MaxTD1= 8 Len=  415
 NBasis=   234 RedAO= T EigKep=  1.29D-04  NBF=   234
 NBsUse=   234 1.00D-06 EigRej= -1.00D+00 NBFU=   234
 Precomputing XC quadrature grid using
 IXCGrd= 4 IRadAn=           0 IRanWt=          -1 IRanGd=           0 AccXCQ= 0.00D+00.
 Generated NRdTot=       0 NPtTot=           0 NUsed=           0 NTot=          32
 NSgBfM=   284   284   284   284   284 MxSgAt=     6 MxSgA2=     6.
 Leave Link  302 at Wed Aug 26 16:37:59 2020, MaxMem=  2097152000 cpu:         2.4
 (Enter /opt/cluster/programs/g09/g09_d.01/g09/l303.exe)
 DipDrv:  MaxL=1.
 Leave Link  303 at Wed Aug 26 16:38:00 2020, MaxMem=  2097152000 cpu:         0.3
 (Enter /opt/cluster/programs/g09/g09_d.01/g09/l401.exe)
 ExpMin= 7.60D-02 ExpMax= 1.17D+05 ExpMxC= 1.13D+03 IAcc=2 IRadAn=         4 AccDes= 0.00D+00
 Harris functional with IExCor=  419 and IRadAn=       4 diagonalized for initial guess.
 HarFok:  IExCor=  419 AccDes= 0.00D+00 IRadAn=         4 IDoV= 1 UseB2=F ITyADJ=14
 ICtDFT=  3500011 ScaDFX=  1.000000  1.000000  1.000000  1.000000
 FoFCou: FMM=F IPFlag=           0 FMFlag=      100000 FMFlg1=           0
         NFxFlg=           0 DoJE=T BraDBF=F KetDBF=T FulRan=T
         wScrn=  0.000000 ICntrl=     500 IOpCl=  0 I1Cent=   200000004 NGrid=           0
         NMat0=    1 NMatS0=      1 NMatT0=    0 NMatD0=    1 NMtDS0=    0 NMtDT0=    0
 Petite list used in FoFCou.
 Harris En= -115.804566291991    
 JPrj=0 DoOrth=F DoCkMO=F.
 Leave Link  401 at Wed Aug 26 16:38:00 2020, MaxMem=  2097152000 cpu:         4.5
 (Enter /opt/cluster/programs/g09/g09_d.01/g09/l502.exe)
 Closed shell SCF:
 Using DIIS extrapolation, IDIIS=  1040.
 Integral symmetry usage will be decided dynamically.
 Keep R1 ints in memory in canonical form, NReq=389840494.
 IVT=      264814 IEndB=      264814 NGot=  2097152000 MDV=  1718885927
 LenX=  1718885927 LenY=  1718804830
 Requested convergence on RMS density matrix=1.00D-08 within 128 cycles.
 Requested convergence on MAX density matrix=1.00D-06.
 Requested convergence on             energy=1.00D-06.
 No special actions if energy rises.
 FoFCou: FMM=F IPFlag=           0 FMFlag=           0 FMFlg1=           0
         NFxFlg=           0 DoJE=F BraDBF=F KetDBF=F FulRan=T
         wScrn=  0.000000 ICntrl=     600 IOpCl=  0 I1Cent=           0 NGrid=           0
         NMat0=    1 NMatS0=  27495 NMatT0=    0 NMatD0=    1 NMtDS0=    0 NMtDT0=    0
 Symmetry not used in FoFCou.
 Integral accuracy reduced to 1.0D-05 until final iterations.

 Cycle   1  Pass 0  IDiag  1:
 E= -115.430536385358    
 DIIS: error= 2.45D-02 at cycle   1 NSaved=   1.
 NSaved= 1 IEnMin= 1 EnMin= -115.430536385358     IErMin= 1 ErrMin= 2.45D-02
 ErrMax= 2.45D-02  0.00D+00 EMaxC= 1.00D-01 BMatC= 1.94D-01 BMatP= 1.94D-01
 IDIUse=3 WtCom= 7.55D-01 WtEn= 2.45D-01
 Coeff-Com:  0.100D+01
 Coeff-En:   0.100D+01
 Coeff:      0.100D+01
 Gap=     0.339 Goal=   None    Shift=    0.000
 GapD=    0.339 DampG=1.000 DampE=0.500 DampFc=0.5000 IDamp=-1.
 Damping current iteration by 5.00D-01
 RMSDP=1.36D-03 MaxDP=5.14D-02              OVMax= 1.55D-01

 Cycle   2  Pass 0  IDiag  1:
 E= -115.481727048663     Delta-E=       -0.051190663305 Rises=F Damp=T
 DIIS: error= 1.15D-02 at cycle   2 NSaved=   2.
 NSaved= 2 IEnMin= 2 EnMin= -115.481727048663     IErMin= 2 ErrMin= 1.15D-02
 ErrMax= 1.15D-02  0.00D+00 EMaxC= 1.00D-01 BMatC= 1.84D-02 BMatP= 1.94D-01
 IDIUse=3 WtCom= 8.85D-01 WtEn= 1.15D-01
 Coeff-Com: -0.115D+00 0.112D+01
 Coeff-En:   0.000D+00 0.100D+01
 Coeff:     -0.102D+00 0.110D+01
 Gap=     0.431 Goal=   None    Shift=    0.000
 RMSDP=3.45D-04 MaxDP=9.40D-03 DE=-5.12D-02 OVMax= 8.84D-02

 Cycle   3  Pass 0  IDiag  1:
 E= -115.532703597056     Delta-E=       -0.050976548392 Rises=F Damp=F
 DIIS: error= 4.68D-03 at cycle   3 NSaved=   3.
 NSaved= 3 IEnMin= 3 EnMin= -115.532703597056     IErMin= 3 ErrMin= 4.68D-03
 ErrMax= 4.68D-03  0.00D+00 EMaxC= 1.00D-01 BMatC= 3.52D-03 BMatP= 1.84D-02
 IDIUse=3 WtCom= 9.53D-01 WtEn= 4.68D-02
 Coeff-Com: -0.120D+00 0.291D+00 0.830D+00
 Coeff-En:   0.000D+00 0.000D+00 0.100D+01
 Coeff:     -0.115D+00 0.277D+00 0.838D+00
 Gap=     0.411 Goal=   None    Shift=    0.000
 RMSDP=1.10D-04 MaxDP=4.26D-03 DE=-5.10D-02 OVMax= 1.33D-02

 Cycle   4  Pass 0  IDiag  1:
 E= -115.534656458181     Delta-E=       -0.001952861126 Rises=F Damp=F
 DIIS: error= 1.57D-03 at cycle   4 NSaved=   4.
 NSaved= 4 IEnMin= 4 EnMin= -115.534656458181     IErMin= 4 ErrMin= 1.57D-03
 ErrMax= 1.57D-03  0.00D+00 EMaxC= 1.00D-01 BMatC= 3.86D-04 BMatP= 3.52D-03
 IDIUse=3 WtCom= 9.84D-01 WtEn= 1.57D-02
 Coeff-Com: -0.421D-01 0.735D-01 0.354D+00 0.615D+00
 Coeff-En:   0.000D+00 0.000D+00 0.000D+00 0.100D+01
 Coeff:     -0.415D-01 0.724D-01 0.348D+00 0.621D+00
 Gap=     0.409 Goal=   None    Shift=    0.000
 RMSDP=3.48D-05 MaxDP=1.75D-03 DE=-1.95D-03 OVMax= 5.00D-03

 Cycle   5  Pass 0  IDiag  1:
 E= -115.534969658748     Delta-E=       -0.000313200567 Rises=F Damp=F
 DIIS: error= 1.60D-04 at cycle   5 NSaved=   5.
 NSaved= 5 IEnMin= 5 EnMin= -115.534969658748     IErMin= 5 ErrMin= 1.60D-04
 ErrMax= 1.60D-04  0.00D+00 EMaxC= 1.00D-01 BMatC= 5.86D-06 BMatP= 3.86D-04
 IDIUse=3 WtCom= 9.98D-01 WtEn= 1.60D-03
 Coeff-Com: -0.659D-02 0.820D-02 0.614D-01 0.171D+00 0.766D+00
 Coeff-En:   0.000D+00 0.000D+00 0.000D+00 0.000D+00 0.100D+01
 Coeff:     -0.658D-02 0.819D-02 0.613D-01 0.171D+00 0.766D+00
 Gap=     0.409 Goal=   None    Shift=    0.000
 RMSDP=6.40D-06 MaxDP=1.88D-04 DE=-3.13D-04 OVMax= 5.61D-04

 Initial convergence to 1.0D-05 achieved.  Increase integral accuracy.
 Cycle   6  Pass 1  IDiag  1:
 E= -115.534972856498     Delta-E=       -0.000003197750 Rises=F Damp=F
 DIIS: error= 1.90D-05 at cycle   1 NSaved=   1.
 NSaved= 1 IEnMin= 1 EnMin= -115.534972856498     IErMin= 1 ErrMin= 1.90D-05
 ErrMax= 1.90D-05  0.00D+00 EMaxC= 1.00D-01 BMatC= 7.28D-08 BMatP= 7.28D-08
 IDIUse=1 WtCom= 1.00D+00 WtEn= 0.00D+00
 Coeff-Com:  0.100D+01
 Coeff:      0.100D+01
 Gap=     0.409 Goal=   None    Shift=    0.000
 RMSDP=6.40D-06 MaxDP=1.88D-04 DE=-3.20D-06 OVMax= 9.94D-05

 Cycle   7  Pass 1  IDiag  1:
 E= -115.534972956384     Delta-E=       -0.000000099886 Rises=F Damp=F
 DIIS: error= 4.51D-06 at cycle   2 NSaved=   2.
 NSaved= 2 IEnMin= 2 EnMin= -115.534972956384     IErMin= 2 ErrMin= 4.51D-06
 ErrMax= 4.51D-06  0.00D+00 EMaxC= 1.00D-01 BMatC= 4.15D-09 BMatP= 7.28D-08
 IDIUse=1 WtCom= 1.00D+00 WtEn= 0.00D+00
 Coeff-Com: -0.623D-01 0.106D+01
 Coeff:     -0.623D-01 0.106D+01
 Gap=     0.409 Goal=   None    Shift=    0.000
 RMSDP=4.67D-07 MaxDP=1.20D-05 DE=-9.99D-08 OVMax= 3.89D-05

 Cycle   8  Pass 1  IDiag  1:
 E= -115.534972964211     Delta-E=       -0.000000007826 Rises=F Damp=F
 DIIS: error= 2.99D-06 at cycle   3 NSaved=   3.
 NSaved= 3 IEnMin= 3 EnMin= -115.534972964211     IErMin= 3 ErrMin= 2.99D-06
 ErrMax= 2.99D-06  0.00D+00 EMaxC= 1.00D-01 BMatC= 1.02D-09 BMatP= 4.15D-09
 IDIUse=1 WtCom= 1.00D+00 WtEn= 0.00D+00
 Coeff-Com: -0.735D-01 0.267D+00 0.806D+00
 Coeff:     -0.735D-01 0.267D+00 0.806D+00
 Gap=     0.409 Goal=   None    Shift=    0.000
 RMSDP=1.19D-07 MaxDP=3.91D-06 DE=-7.83D-09 OVMax= 1.37D-05

 Cycle   9  Pass 1  IDiag  1:
 E= -115.534972965177     Delta-E=       -0.000000000966 Rises=F Damp=F
 DIIS: error= 1.09D-06 at cycle   4 NSaved=   4.
 NSaved= 4 IEnMin= 4 EnMin= -115.534972965177     IErMin= 4 ErrMin= 1.09D-06
 ErrMax= 1.09D-06  0.00D+00 EMaxC= 1.00D-01 BMatC= 2.25D-10 BMatP= 1.02D-09
 IDIUse=1 WtCom= 1.00D+00 WtEn= 0.00D+00
 Coeff-Com: -0.225D-01-0.865D-02 0.344D+00 0.688D+00
 Coeff:     -0.225D-01-0.865D-02 0.344D+00 0.688D+00
 Gap=     0.409 Goal=   None    Shift=    0.000
 RMSDP=3.74D-08 MaxDP=1.53D-06 DE=-9.66D-10 OVMax= 5.15D-06

 Cycle  10  Pass 1  IDiag  1:
 E= -115.534972965353     Delta-E=       -0.000000000176 Rises=F Damp=F
 DIIS: error= 2.01D-07 at cycle   5 NSaved=   5.
 NSaved= 5 IEnMin= 5 EnMin= -115.534972965353     IErMin= 5 ErrMin= 2.01D-07
 ErrMax= 2.01D-07  0.00D+00 EMaxC= 1.00D-01 BMatC= 7.33D-12 BMatP= 2.25D-10
 IDIUse=1 WtCom= 1.00D+00 WtEn= 0.00D+00
 Coeff-Com:  0.673D-03-0.269D-01 0.232D-01 0.153D+00 0.850D+00
 Coeff:      0.673D-03-0.269D-01 0.232D-01 0.153D+00 0.850D+00
 Gap=     0.409 Goal=   None    Shift=    0.000
 RMSDP=9.09D-09 MaxDP=3.12D-07 DE=-1.76D-10 OVMax= 1.17D-06

 SCF Done:  E(RB2PLYPD3) =  -115.534972965     A.U. after   10 cycles
            NFock= 10  Conv=0.91D-08     -V/T= 2.0015
 KE= 1.153629556921D+02 PE=-3.531199853614D+02 EE= 8.145070000283D+01
 Leave Link  502 at Wed Aug 26 16:38:22 2020, MaxMem=  2097152000 cpu:       112.4
 (Enter /opt/cluster/programs/g09/g09_d.01/g09/l801.exe)
 DoSCS=T DFT=T ScalE2(SS,OS)=  0.270000  0.270000
 ExpMin= 7.60D-02 ExpMax= 1.17D+05 ExpMxC= 1.13D+03 IAcc=3 IRadAn=         5 AccDes= 0.00D+00
 HarFok:  IExCor=  205 AccDes= 0.00D+00 IRadAn=         5 IDoV=-2 UseB2=F ITyADJ=14
 ICtDFT= 12500011 ScaDFX=  1.000000  1.000000  1.000000  1.000000
 Largest valence mixing into a core orbital is  1.18D-04
 Largest core mixing into a valence orbital is  1.51D-05
 Range of M.O.s used for correlation:     3   234
 NBasis=   234 NAE=     9 NBE=     9 NFC=     2 NFV=     0
 NROrb=    232 NOA=     7 NOB=     7 NVA=   225 NVB=   225

 **** Warning!!: The largest alpha MO coefficient is  0.26145674D+02

 Leave Link  801 at Wed Aug 26 16:38:22 2020, MaxMem=  2097152000 cpu:         0.8
 (Enter /opt/cluster/programs/g09/g09_d.01/g09/l906.exe)
 DoSCS=T DFT=T ScalE2(SS,OS)=  0.270000  0.270000
 FulOut=F Deriv=F AODrv=F NAtomX=     6
   MMem=        3646  MDisk=           7 MDiskD=           7
  W3Min=      447300 MinDsk=     1090093 NBas6D=         284
 NBas2D=       41310    NTT=       40470    LW2=     4508827
    MDV=  2096872394 MDiskM=       16391 NBas2p=       41304
 Fully in-core method, ICMem=  1722292712.
 IMap=   1   2   3   4   5   6   7
 JobTyp=1 Pass  1 fully in-core, NPsUse=  8.
 Compute canonical integrals.
 FoFCou: FMM=F IPFlag=           0 FMFlag=           0 FMFlg1=           0
         NFxFlg=           0 DoJE=F BraDBF=F KetDBF=F FulRan=T
         wScrn=  0.000000 ICntrl=     600 IOpCl=  1 I1Cent=           0 NGrid=           0
         NMat0=    1 NMatS0=  41310 NMatT0=    0 NMatD0=    1 NMtDS0=    0 NMtDT0=    0
 Symmetry not used in FoFCou.
 Spin components of T(2) and E(2):
     alpha-alpha T2 =       0.2002742449D-01 E2=     -0.1644558378D-01
     alpha-beta  T2 =       0.1277183355D+00 E2=     -0.1125873678D+00
     beta-beta   T2 =       0.2002742449D-01 E2=     -0.1644558378D-01
 The integrals were generated   1 times.
 E2(B2PLYPD3) =    -0.1454785354D+00 E(B2PLYPD3) =    -0.11568045150070D+03
 Leave Link  906 at Wed Aug 26 16:38:46 2020, MaxMem=  2097152000 cpu:       184.0
 (Enter /opt/cluster/programs/g09/g09_d.01/g09/l601.exe)
 Copying SCF densities to generalized density rwf, IOpCl= 0 IROHF=0.

 **********************************************************************

            Population analysis using the SCF density.

 **********************************************************************

 Orbital symmetries:
       Occupied  (A) (A) (A) (A) (A) (A) (A) (A) (A)
       Virtual   (A) (A) (A) (A) (A) (A) (A) (A) (A) (A) (A) (A)
                 (A) (A) (A) (A) (A) (A) (A) (A) (A) (A) (A) (A)
                 (A) (A) (A) (A) (A) (A) (A) (A) (A) (A) (A) (A)
                 (A) (A) (A) (A) (A) (A) (A) (A) (A) (A) (A) (A)
                 (A) (A) (A) (A) (A) (A) (A) (A) (A) (A) (A) (A)
                 (A) (A) (A) (A) (A) (A) (A) (A) (A) (A) (A) (A)
                 (A) (A) (A) (A) (A) (A) (A) (A) (A) (A) (A) (A)
                 (A) (A) (A) (A) (A) (A) (A) (A) (A) (A) (A) (A)
                 (A) (A) (A) (A) (A) (A) (A) (A) (A) (A) (A) (A)
                 (A) (A) (A) (A) (A) (A) (A) (A) (A) (A) (A) (A)
                 (A) (A) (A) (A) (A) (A) (A) (A) (A) (A) (A) (A)
                 (A) (A) (A) (A) (A) (A) (A) (A) (A) (A) (A) (A)
                 (A) (A) (A) (A) (A) (A) (A) (A) (A) (A) (A) (A)
                 (A) (A) (A) (A) (A) (A) (A) (A) (A) (A) (A) (A)
                 (A) (A) (A) (A) (A) (A) (A) (A) (A) (A) (A) (A)
                 (A) (A) (A) (A) (A) (A) (A) (A) (A) (A) (A) (A)
                 (A) (A) (A) (A) (A) (A) (A) (A) (A) (A) (A) (A)
                 (A) (A) (A) (A) (A) (A) (A) (A) (A) (A) (A) (A)
                 (A) (A) (A) (A) (A) (A) (A) (A) (A)
 The electronic state is 1-A.
 Alpha  occ. eigenvalues --  -19.71272 -10.66646  -1.18958  -0.79522  -0.60267
 Alpha  occ. eigenvalues --   -0.51665  -0.49867  -0.41200  -0.35592
 Alpha virt. eigenvalues --    0.05341   0.08741   0.12139   0.12204   0.14819
 Alpha virt. eigenvalues --    0.17004   0.17890   0.29058   0.32918   0.33434
 Alpha virt. eigenvalues --    0.37606   0.38547   0.39734   0.40660   0.43036
 Alpha virt. eigenvalues --    0.47371   0.53371   0.56543   0.59857   0.66964
 Alpha virt. eigenvalues --    0.70528   0.72037   0.74677   0.78626   0.80042
 Alpha virt. eigenvalues --    0.82435   0.86424   0.87809   0.93512   0.96425
 Alpha virt. eigenvalues --    1.01897   1.02988   1.05910   1.08836   1.10080
 Alpha virt. eigenvalues --    1.12540   1.19874   1.23747   1.29778   1.39521
 Alpha virt. eigenvalues --    1.39901   1.42276   1.42551   1.47430   1.50410
 Alpha virt. eigenvalues --    1.78645   1.81437   1.85059   1.87784   1.89827
 Alpha virt. eigenvalues --    1.92803   1.95552   1.96568   1.99474   2.03230
 Alpha virt. eigenvalues --    2.05339   2.13876   2.18224   2.20682   2.21778
 Alpha virt. eigenvalues --    2.24623   2.30231   2.31229   2.37235   2.42003
 Alpha virt. eigenvalues --    2.45133   2.48256   2.59225   2.62066   2.63965
 Alpha virt. eigenvalues --    2.64919   2.69894   2.72211   2.77651   2.84083
 Alpha virt. eigenvalues --    2.85712   2.89570   2.91154   2.92832   2.96718
 Alpha virt. eigenvalues --    2.97442   3.05479   3.07696   3.10333   3.21002
 Alpha virt. eigenvalues --    3.22249   3.31097   3.33314   3.38650   3.44013
 Alpha virt. eigenvalues --    3.50384   3.64360   3.68253   3.83469   3.87878
 Alpha virt. eigenvalues --    3.90649   4.00938   4.04537   4.08312   4.15017
 Alpha virt. eigenvalues --    4.20590   4.23536   4.28186   4.36054   4.56018
 Alpha virt. eigenvalues --    4.58042   4.71136   4.74436   4.92820   5.24600
 Alpha virt. eigenvalues --    5.42124   5.44419   5.50448   5.63873   5.68046
 Alpha virt. eigenvalues --    5.74137   5.75317   5.83724   5.84711   5.89847
 Alpha virt. eigenvalues --    5.91676   5.98591   6.01022   6.02883   6.12679
 Alpha virt. eigenvalues --    6.17854   6.22476   6.27821   6.28352   6.31299
 Alpha virt. eigenvalues --    6.36920   6.38524   6.39176   6.49412   6.51779
 Alpha virt. eigenvalues --    6.56849   6.64796   6.72547   6.76483   6.91953
 Alpha virt. eigenvalues --    6.93694   7.06984   7.10432   7.12613   7.25141
 Alpha virt. eigenvalues --    7.28290   7.30374   7.32406   7.33696   7.39749
 Alpha virt. eigenvalues --    7.46822   7.50943   7.53830   7.62467   7.67820
 Alpha virt. eigenvalues --    7.70778   7.77172   7.79176   7.81184   7.85062
 Alpha virt. eigenvalues --    7.85455   7.92890   7.96225   7.99543   8.12680
 Alpha virt. eigenvalues --    8.15536   8.27531   8.32418   8.40507   8.44778
 Alpha virt. eigenvalues --    8.46281   8.48860   8.50150   8.50715   8.51926
 Alpha virt. eigenvalues --    8.57526   8.78484   8.84963   8.88630   8.91813
 Alpha virt. eigenvalues --    8.95254   9.01890   9.10844   9.38477   9.46166
 Alpha virt. eigenvalues --    9.57079   9.61133   9.62869   9.64249   9.74700
 Alpha virt. eigenvalues --    9.80616   9.90365   9.94587   9.99762  10.12036
 Alpha virt. eigenvalues --   10.19394  10.23473  10.33138  10.51429  10.68523
 Alpha virt. eigenvalues --   11.04785  11.11916  11.31725  11.52933  11.64494
 Alpha virt. eigenvalues --   11.75278  11.81887  12.01953  12.09895  12.12819
 Alpha virt. eigenvalues --   12.50653  12.57829  12.76363  12.83855  13.00820
 Alpha virt. eigenvalues --   13.21026  13.51276  14.78209  15.10904  15.20734
 Alpha virt. eigenvalues --   16.85333  29.14249  49.03911 148.72182 254.86342
          Condensed to atoms (all electrons):
               1          2          3          4          5          6
     1  C    4.450938   0.269231   0.427411   0.431814   0.400043  -0.044611
     2  O    0.269231   7.919365  -0.047099  -0.052952  -0.039509   0.347048
     3  H    0.427411  -0.047099   0.656989  -0.048860  -0.036734  -0.005368
     4  H    0.431814  -0.052952  -0.048860   0.661709  -0.033260  -0.003728
     5  H    0.400043  -0.039509  -0.036734  -0.033260   0.626320   0.009022
     6  H   -0.044611   0.347048  -0.005368  -0.003728   0.009022   0.539783
 Mulliken charges:
               1
     1  C    0.065174
     2  O   -0.396084
     3  H    0.053661
     4  H    0.045277
     5  H    0.074118
     6  H    0.157854
 Sum of Mulliken charges =   0.00000
 Mulliken charges with hydrogens summed into heavy atoms:
               1
     1  C    0.238230
     2  O   -0.238230
 Electronic spatial extent (au):  <R**2>=             84.2298
 Charge=              0.0000 electrons
 Dipole moment (field-independent basis, Debye):
    X=             -0.8805    Y=             -1.3746    Z=              0.2428  Tot=              1.6503
 Quadrupole moment (field-independent basis, Debye-Ang):
   XX=            -13.1129   YY=            -12.3392   ZZ=            -13.6673
   XY=             -2.0766   XZ=              0.1697   YZ=             -0.1571
 Traceless Quadrupole moment (field-independent basis, Debye-Ang):
   XX=             -0.0731   YY=              0.7006   ZZ=             -0.6275
   XY=             -2.0766   XZ=              0.1697   YZ=             -0.1571
 Octapole moment (field-independent basis, Debye-Ang**2):
  XXX=              4.9010  YYY=             -0.2876  ZZZ=              0.4037  XYY=              1.5597
  XXY=             -2.2080  XXZ=              0.4610  XZZ=              0.4486  YZZ=             -0.7560
  YYZ=             -0.0335  XYZ=             -0.1558
 Hexadecapole moment (field-independent basis, Debye-Ang**3):
 XXXX=            -62.3595 YYYY=            -20.5399 ZZZZ=            -20.5202 XXXY=             -3.7547
 XXXZ=              0.0639 YYYX=             -2.9087 YYYZ=             -0.2909 ZZZX=             -0.2291
 ZZZY=             -0.1558 XXYY=            -13.0539 XXZZ=            -14.4929 YYZZ=             -6.9435
 XXYZ=             -0.2787 YYXZ=              0.2648 ZZXY=              0.1391
 N-N= 4.077135670113D+01 E-N=-3.531199571988D+02  KE= 1.153629556921D+02
 Leave Link  601 at Wed Aug 26 16:38:47 2020, MaxMem=  2097152000 cpu:         0.4
 (Enter /opt/cluster/programs/g09/g09_d.01/g09/l9999.exe)
 1\1\GINC-NODE20\SP\RB2PLYPD3-FC\def2QZVP\C1H4O1\BOITTIER\26-Aug-2020\0
 \\#p B2PLYPD3/Def2QZVP\\methanol\\0,1\C,0,-5.180403,-1.2614,0.915362\O
 ,0,-3.768032,-1.120657,0.852573\H,0,-5.510229,-2.220827,0.541724\H,0,-
 5.683296,-0.423307,0.319078\H,0,-5.432021,-1.178696,2.004177\H,0,-3.48
 9426,-1.200967,0.061968\\Version=ES64L-G09RevD.01\State=1-A\HF=-115.53
 4973\MP2=-115.6804515\RMSD=9.089e-09\PG=C01 [X(C1H4O1)]\\@


 "I COULD HAVE DONE IT IN A MUCH MORE COMPLICATED WAY"
 SAID THE RED QUEEN, IMMENSELY PROUD.

                                      -- LEWIS CARROLL
 Job cpu time:       0 days  0 hours  5 minutes  6.9 seconds.
 File lengths (MBytes):  RWF=     23 Int=      0 D2E=      0 Chk=      4 Scr=      1
 Normal termination of Gaussian 09 at Wed Aug 26 16:38:47 2020.
