 Entering Gaussian System, Link 0=/opt/cluster/programs/g09/g09_d.01/g09//g09
 Input=/home/boittier/MDCM/nms_sampling/methanol_geom.xyz.dir/energies/methanol_871_energy.com
 Output=/scratch/boittier/methanol_871_energy/methanol_871_energy.out
 Initial command:
 /opt/cluster/programs/g09/g09_d.01/g09/l1.exe "/scratch/boittier/methanol_871_energy/Gau-159867.inp" -scrdir="/scratch/boittier/methanol_871_energy/"
 Entering Link 1 = /opt/cluster/programs/g09/g09_d.01/g09/l1.exe PID=    159868.
  
 Copyright (c) 1988,1990,1992,1993,1995,1998,2003,2009,2013,
            Gaussian, Inc.  All Rights Reserved.
  
 This is part of the Gaussian(R) 09 program.  It is based on
 the Gaussian(R) 03 system (copyright 2003, Gaussian, Inc.),
 the Gaussian(R) 98 system (copyright 1998, Gaussian, Inc.),
 the Gaussian(R) 94 system (copyright 1995, Gaussian, Inc.),
 the Gaussian 92(TM) system (copyright 1992, Gaussian, Inc.),
 the Gaussian 90(TM) system (copyright 1990, Gaussian, Inc.),
 the Gaussian 88(TM) system (copyright 1988, Gaussian, Inc.),
 the Gaussian 86(TM) system (copyright 1986, Carnegie Mellon
 University), and the Gaussian 82(TM) system (copyright 1983,
 Carnegie Mellon University). Gaussian is a federally registered
 trademark of Gaussian, Inc.
  
 This software contains proprietary and confidential information,
 including trade secrets, belonging to Gaussian, Inc.
  
 This software is provided under written license and may be
 used, copied, transmitted, or stored only in accord with that
 written license.
  
 The following legend is applicable only to US Government
 contracts under FAR:
  
                    RESTRICTED RIGHTS LEGEND
  
 Use, reproduction and disclosure by the US Government is
 subject to restrictions as set forth in subparagraphs (a)
 and (c) of the Commercial Computer Software - Restricted
 Rights clause in FAR 52.227-19.
  
 Gaussian, Inc.
 340 Quinnipiac St., Bldg. 40, Wallingford CT 06492
  
  
 ---------------------------------------------------------------
 Warning -- This program may not be used in any manner that
 competes with the business of Gaussian, Inc. or will provide
 assistance to any competitor of Gaussian, Inc.  The licensee
 of this program is prohibited from giving any competitor of
 Gaussian, Inc. access to this program.  By using this program,
 the user acknowledges that Gaussian, Inc. is engaged in the
 business of creating and licensing software in the field of
 computational chemistry and represents and warrants to the
 licensee that it is not a competitor of Gaussian, Inc. and that
 it will not use this program in any manner prohibited above.
 ---------------------------------------------------------------
  

 Cite this work as:
 Gaussian 09, Revision D.01,
 M. J. Frisch, G. W. Trucks, H. B. Schlegel, G. E. Scuseria, 
 M. A. Robb, J. R. Cheeseman, G. Scalmani, V. Barone, B. Mennucci, 
 G. A. Petersson, H. Nakatsuji, M. Caricato, X. Li, H. P. Hratchian, 
 A. F. Izmaylov, J. Bloino, G. Zheng, J. L. Sonnenberg, M. Hada, 
 M. Ehara, K. Toyota, R. Fukuda, J. Hasegawa, M. Ishida, T. Nakajima, 
 Y. Honda, O. Kitao, H. Nakai, T. Vreven, J. A. Montgomery, Jr., 
 J. E. Peralta, F. Ogliaro, M. Bearpark, J. J. Heyd, E. Brothers, 
 K. N. Kudin, V. N. Staroverov, T. Keith, R. Kobayashi, J. Normand, 
 K. Raghavachari, A. Rendell, J. C. Burant, S. S. Iyengar, J. Tomasi, 
 M. Cossi, N. Rega, J. M. Millam, M. Klene, J. E. Knox, J. B. Cross, 
 V. Bakken, C. Adamo, J. Jaramillo, R. Gomperts, R. E. Stratmann, 
 O. Yazyev, A. J. Austin, R. Cammi, C. Pomelli, J. W. Ochterski, 
 R. L. Martin, K. Morokuma, V. G. Zakrzewski, G. A. Voth, 
 P. Salvador, J. J. Dannenberg, S. Dapprich, A. D. Daniels, 
 O. Farkas, J. B. Foresman, J. V. Ortiz, J. Cioslowski, 
 and D. J. Fox, Gaussian, Inc., Wallingford CT, 2013.
 
 ******************************************
 Gaussian 09:  ES64L-G09RevD.01 24-Apr-2013
                27-Aug-2020 
 ******************************************
 %chk=/home/boittier/MDCM/nms_sampling/methanol_geom.xyz.dir/methanol_871.chk
 %nproc=8
 Will use up to    8 processors via shared memory.
 %mem=16000MB
 --------------------
 #p B2PLYPD3/Def2QZVP
 --------------------
 1/38=1/1;
 2/12=2,17=6,18=5,40=1/2;
 3/5=45,7=101,11=9,16=1,25=1,30=1,74=-60/1,2,3;
 4//1;
 5/5=2,38=5/2;
 8/10=1/1;
 9/16=-3/6;
 6/7=2,8=2,9=2,10=2/1;
 99/5=1,9=1/99;
 Leave Link    1 at Thu Aug 27 00:12:31 2020, MaxMem=  2097152000 cpu:         0.3
 (Enter /opt/cluster/programs/g09/g09_d.01/g09/l101.exe)
 --------
 methanol
 --------
 Symbolic Z-matrix:
 Charge =  0 Multiplicity = 1
 C                    -5.17663  -1.26137   0.91314 
 O                    -3.76507  -1.1195    0.8521 
 H                    -5.55077  -2.24147   0.53423 
 H                    -5.69978  -0.4333    0.35415 
 H                    -5.45974  -1.1602    2.01071 
 H                    -3.49744  -1.20806   0.06279 
 
 NAtoms=      6 NQM=        6 NQMF=       0 NMMI=      0 NMMIF=      0
                NMic=       0 NMicF=      0.
                    Isotopes and Nuclear Properties:
 (Nuclear quadrupole moments (NQMom) in fm**2, nuclear magnetic moments (NMagM)
  in nuclear magnetons)

  Atom         1           2           3           4           5           6
 IAtWgt=          12          16           1           1           1           1
 AtmWgt=  12.0000000  15.9949146   1.0078250   1.0078250   1.0078250   1.0078250
 NucSpn=           0           0           1           1           1           1
 AtZEff=   0.0000000   0.0000000   0.0000000   0.0000000   0.0000000   0.0000000
 NQMom=    0.0000000   0.0000000   0.0000000   0.0000000   0.0000000   0.0000000
 NMagM=    0.0000000   0.0000000   2.7928460   2.7928460   2.7928460   2.7928460
 AtZNuc=   6.0000000   8.0000000   1.0000000   1.0000000   1.0000000   1.0000000
 Leave Link  101 at Thu Aug 27 00:12:32 2020, MaxMem=  2097152000 cpu:         0.4
 (Enter /opt/cluster/programs/g09/g09_d.01/g09/l202.exe)
                          Input orientation:                          
 ---------------------------------------------------------------------
 Center     Atomic      Atomic             Coordinates (Angstroms)
 Number     Number       Type             X           Y           Z
 ---------------------------------------------------------------------
      1          6           0       -5.176626   -1.261368    0.913137
      2          8           0       -3.765070   -1.119504    0.852098
      3          1           0       -5.550769   -2.241468    0.534229
      4          1           0       -5.699781   -0.433299    0.354150
      5          1           0       -5.459743   -1.160196    2.010710
      6          1           0       -3.497439   -1.208061    0.062786
 ---------------------------------------------------------------------
                    Distance matrix (angstroms):
                    1          2          3          4          5
     1  C    0.000000
     2  O    1.419979   0.000000
     3  H    1.115415   2.132736   0.000000
     4  H    1.127766   2.112330   1.823214   0.000000
     5  H    1.138006   2.053279   1.832329   1.824880   0.000000
     6  H    1.882978   0.838142   2.346562   2.352756   2.765382
                    6
     6  H    0.000000
 Stoichiometry    CH4O
 Framework group  C1[X(CH4O)]
 Deg. of freedom    12
 Full point group                 C1      NOp   1
 Largest Abelian subgroup         C1      NOp   1
 Largest concise Abelian subgroup C1      NOp   1
                         Standard orientation:                         
 ---------------------------------------------------------------------
 Center     Atomic      Atomic             Coordinates (Angstroms)
 Number     Number       Type             X           Y           Z
 ---------------------------------------------------------------------
      1          6           0        0.661034   -0.020357   -0.004077
      2          8           0       -0.753586    0.102894   -0.002416
      3          1           0        1.064756   -0.600399   -0.867043
      4          1           0        1.036506   -0.485318    0.952316
      5          1           0        1.073036    1.039472   -0.049617
      6          1           0       -1.111813   -0.654763    0.008139
 ---------------------------------------------------------------------
 Rotational constants (GHZ):    128.6016468     24.6187289     23.9411965
 Leave Link  202 at Thu Aug 27 00:12:32 2020, MaxMem=  2097152000 cpu:         0.1
 (Enter /opt/cluster/programs/g09/g09_d.01/g09/l301.exe)
 Standard basis: def2QZVP (5D, 7F)
 Ernie: Thresh=  0.10000D-02 Tol=  0.10000D-05 Strict=F.
 There are   284 symmetry adapted cartesian basis functions of A   symmetry.
 There are   234 symmetry adapted basis functions of A   symmetry.
   234 basis functions,   336 primitive gaussians,   284 cartesian basis functions
     9 alpha electrons        9 beta electrons
       nuclear repulsion energy        40.6387095815 Hartrees.
 IExCor=  419 DFT=T Ex+Corr=B2PLYPD3 ExCW=0 ScaHFX=  0.530000
 ScaDFX=  0.470000  0.470000  0.730000  0.730000 ScalE2=  0.270000  0.270000
 IRadAn=      0 IRanWt=     -1 IRanGd=            0 ICorTp=0 IEmpDi=141
 NAtoms=    6 NActive=    6 NUniq=    6 SFac= 1.00D+00 NAtFMM=   60 NAOKFM=F Big=F
 Integral buffers will be    131072 words long.
 Regular integral format.
 Two-electron integral symmetry is turned on.
 R6Disp:  Grimme-D3(BJ) Dispersion energy=       -0.0013079687 Hartrees.
 Nuclear repulsion after empirical dispersion term =       40.6374016129 Hartrees.
 Leave Link  301 at Thu Aug 27 00:12:32 2020, MaxMem=  2097152000 cpu:         0.5
 (Enter /opt/cluster/programs/g09/g09_d.01/g09/l302.exe)
 NPDir=0 NMtPBC=     1 NCelOv=     1 NCel=       1 NClECP=     1 NCelD=      1
         NCelK=      1 NCelE2=     1 NClLst=     1 CellRange=     0.0.
 One-electron integrals computed using PRISM.
   1 Symmetry operations used in ECPInt.
 ECPInt:  NShTT=    2775 NPrTT=    6207 LenC2=    2774 LenP2D=    5736.
 LDataN:  DoStor=T MaxTD1= 8 Len=  415
 NBasis=   234 RedAO= T EigKep=  1.29D-04  NBF=   234
 NBsUse=   234 1.00D-06 EigRej= -1.00D+00 NBFU=   234
 Precomputing XC quadrature grid using
 IXCGrd= 4 IRadAn=           0 IRanWt=          -1 IRanGd=           0 AccXCQ= 0.00D+00.
 Generated NRdTot=       0 NPtTot=           0 NUsed=           0 NTot=          32
 NSgBfM=   284   284   284   284   284 MxSgAt=     6 MxSgA2=     6.
 Leave Link  302 at Thu Aug 27 00:12:32 2020, MaxMem=  2097152000 cpu:         1.8
 (Enter /opt/cluster/programs/g09/g09_d.01/g09/l303.exe)
 DipDrv:  MaxL=1.
 Leave Link  303 at Thu Aug 27 00:12:32 2020, MaxMem=  2097152000 cpu:         0.2
 (Enter /opt/cluster/programs/g09/g09_d.01/g09/l401.exe)
 ExpMin= 7.60D-02 ExpMax= 1.17D+05 ExpMxC= 1.13D+03 IAcc=2 IRadAn=         4 AccDes= 0.00D+00
 Harris functional with IExCor=  419 and IRadAn=       4 diagonalized for initial guess.
 HarFok:  IExCor=  419 AccDes= 0.00D+00 IRadAn=         4 IDoV= 1 UseB2=F ITyADJ=14
 ICtDFT=  3500011 ScaDFX=  1.000000  1.000000  1.000000  1.000000
 FoFCou: FMM=F IPFlag=           0 FMFlag=      100000 FMFlg1=           0
         NFxFlg=           0 DoJE=T BraDBF=F KetDBF=T FulRan=T
         wScrn=  0.000000 ICntrl=     500 IOpCl=  0 I1Cent=   200000004 NGrid=           0
         NMat0=    1 NMatS0=      1 NMatT0=    0 NMatD0=    1 NMtDS0=    0 NMtDT0=    0
 Petite list used in FoFCou.
 Harris En= -115.801135644820    
 JPrj=0 DoOrth=F DoCkMO=F.
 Leave Link  401 at Thu Aug 27 00:12:33 2020, MaxMem=  2097152000 cpu:         3.3
 (Enter /opt/cluster/programs/g09/g09_d.01/g09/l502.exe)
 Closed shell SCF:
 Using DIIS extrapolation, IDIIS=  1040.
 Integral symmetry usage will be decided dynamically.
 Keep R1 ints in memory in canonical form, NReq=389840494.
 IVT=      264814 IEndB=      264814 NGot=  2097152000 MDV=  1718885927
 LenX=  1718885927 LenY=  1718804830
 Requested convergence on RMS density matrix=1.00D-08 within 128 cycles.
 Requested convergence on MAX density matrix=1.00D-06.
 Requested convergence on             energy=1.00D-06.
 No special actions if energy rises.
 FoFCou: FMM=F IPFlag=           0 FMFlag=           0 FMFlg1=           0
         NFxFlg=           0 DoJE=F BraDBF=F KetDBF=F FulRan=T
         wScrn=  0.000000 ICntrl=     600 IOpCl=  0 I1Cent=           0 NGrid=           0
         NMat0=    1 NMatS0=  27495 NMatT0=    0 NMatD0=    1 NMtDS0=    0 NMtDT0=    0
 Symmetry not used in FoFCou.
 Integral accuracy reduced to 1.0D-05 until final iterations.

 Cycle   1  Pass 0  IDiag  1:
 E= -115.430969099996    
 DIIS: error= 2.69D-02 at cycle   1 NSaved=   1.
 NSaved= 1 IEnMin= 1 EnMin= -115.430969099996     IErMin= 1 ErrMin= 2.69D-02
 ErrMax= 2.69D-02  0.00D+00 EMaxC= 1.00D-01 BMatC= 1.92D-01 BMatP= 1.92D-01
 IDIUse=3 WtCom= 7.31D-01 WtEn= 2.69D-01
 Coeff-Com:  0.100D+01
 Coeff-En:   0.100D+01
 Coeff:      0.100D+01
 Gap=     0.339 Goal=   None    Shift=    0.000
 GapD=    0.339 DampG=1.000 DampE=0.500 DampFc=0.5000 IDamp=-1.
 Damping current iteration by 5.00D-01
 RMSDP=1.34D-03 MaxDP=5.13D-02              OVMax= 1.54D-01

 Cycle   2  Pass 0  IDiag  1:
 E= -115.481078368309     Delta-E=       -0.050109268313 Rises=F Damp=T
 DIIS: error= 1.28D-02 at cycle   2 NSaved=   2.
 NSaved= 2 IEnMin= 2 EnMin= -115.481078368309     IErMin= 2 ErrMin= 1.28D-02
 ErrMax= 1.28D-02  0.00D+00 EMaxC= 1.00D-01 BMatC= 1.83D-02 BMatP= 1.92D-01
 IDIUse=3 WtCom= 8.72D-01 WtEn= 1.28D-01
 Coeff-Com: -0.115D+00 0.112D+01
 Coeff-En:   0.000D+00 0.100D+01
 Coeff:     -0.101D+00 0.110D+01
 Gap=     0.433 Goal=   None    Shift=    0.000
 RMSDP=3.35D-04 MaxDP=9.01D-03 DE=-5.01D-02 OVMax= 8.76D-02

 Cycle   3  Pass 0  IDiag  1:
 E= -115.531164860821     Delta-E=       -0.050086492512 Rises=F Damp=F
 DIIS: error= 4.55D-03 at cycle   3 NSaved=   3.
 NSaved= 3 IEnMin= 3 EnMin= -115.531164860821     IErMin= 3 ErrMin= 4.55D-03
 ErrMax= 4.55D-03  0.00D+00 EMaxC= 1.00D-01 BMatC= 3.38D-03 BMatP= 1.83D-02
 IDIUse=3 WtCom= 9.54D-01 WtEn= 4.55D-02
 Coeff-Com: -0.120D+00 0.285D+00 0.835D+00
 Coeff-En:   0.000D+00 0.000D+00 0.100D+01
 Coeff:     -0.115D+00 0.272D+00 0.842D+00
 Gap=     0.413 Goal=   None    Shift=    0.000
 RMSDP=1.07D-04 MaxDP=4.18D-03 DE=-5.01D-02 OVMax= 1.32D-02

 Cycle   4  Pass 0  IDiag  1:
 E= -115.533051248732     Delta-E=       -0.001886387911 Rises=F Damp=F
 DIIS: error= 1.87D-03 at cycle   4 NSaved=   4.
 NSaved= 4 IEnMin= 4 EnMin= -115.533051248732     IErMin= 4 ErrMin= 1.87D-03
 ErrMax= 1.87D-03  0.00D+00 EMaxC= 1.00D-01 BMatC= 3.64D-04 BMatP= 3.38D-03
 IDIUse=3 WtCom= 9.81D-01 WtEn= 1.87D-02
 Coeff-Com: -0.421D-01 0.735D-01 0.355D+00 0.614D+00
 Coeff-En:   0.000D+00 0.000D+00 0.000D+00 0.100D+01
 Coeff:     -0.413D-01 0.721D-01 0.348D+00 0.621D+00
 Gap=     0.411 Goal=   None    Shift=    0.000
 RMSDP=3.41D-05 MaxDP=1.73D-03 DE=-1.89D-03 OVMax= 4.88D-03

 Cycle   5  Pass 0  IDiag  1:
 E= -115.533347563187     Delta-E=       -0.000296314455 Rises=F Damp=F
 DIIS: error= 1.92D-04 at cycle   5 NSaved=   5.
 NSaved= 5 IEnMin= 5 EnMin= -115.533347563187     IErMin= 5 ErrMin= 1.92D-04
 ErrMax= 1.92D-04  0.00D+00 EMaxC= 1.00D-01 BMatC= 6.38D-06 BMatP= 3.64D-04
 IDIUse=3 WtCom= 9.98D-01 WtEn= 1.92D-03
 Coeff-Com: -0.652D-02 0.801D-02 0.615D-01 0.177D+00 0.760D+00
 Coeff-En:   0.000D+00 0.000D+00 0.000D+00 0.000D+00 0.100D+01
 Coeff:     -0.651D-02 0.800D-02 0.614D-01 0.176D+00 0.761D+00
 Gap=     0.411 Goal=   None    Shift=    0.000
 RMSDP=6.49D-06 MaxDP=1.97D-04 DE=-2.96D-04 OVMax= 6.03D-04

 Initial convergence to 1.0D-05 achieved.  Increase integral accuracy.
 Cycle   6  Pass 1  IDiag  1:
 E= -115.533350851901     Delta-E=       -0.000003288713 Rises=F Damp=F
 DIIS: error= 2.57D-05 at cycle   1 NSaved=   1.
 NSaved= 1 IEnMin= 1 EnMin= -115.533350851901     IErMin= 1 ErrMin= 2.57D-05
 ErrMax= 2.57D-05  0.00D+00 EMaxC= 1.00D-01 BMatC= 7.54D-08 BMatP= 7.54D-08
 IDIUse=1 WtCom= 1.00D+00 WtEn= 0.00D+00
 Coeff-Com:  0.100D+01
 Coeff:      0.100D+01
 Gap=     0.411 Goal=   None    Shift=    0.000
 RMSDP=6.49D-06 MaxDP=1.97D-04 DE=-3.29D-06 OVMax= 1.06D-04

 Cycle   7  Pass 1  IDiag  1:
 E= -115.533350958159     Delta-E=       -0.000000106258 Rises=F Damp=F
 DIIS: error= 5.35D-06 at cycle   2 NSaved=   2.
 NSaved= 2 IEnMin= 2 EnMin= -115.533350958159     IErMin= 2 ErrMin= 5.35D-06
 ErrMax= 5.35D-06  0.00D+00 EMaxC= 1.00D-01 BMatC= 4.41D-09 BMatP= 7.54D-08
 IDIUse=1 WtCom= 1.00D+00 WtEn= 0.00D+00
 Coeff-Com: -0.717D-01 0.107D+01
 Coeff:     -0.717D-01 0.107D+01
 Gap=     0.411 Goal=   None    Shift=    0.000
 RMSDP=4.65D-07 MaxDP=1.29D-05 DE=-1.06D-07 OVMax= 3.99D-05

 Cycle   8  Pass 1  IDiag  1:
 E= -115.533350966654     Delta-E=       -0.000000008495 Rises=F Damp=F
 DIIS: error= 3.15D-06 at cycle   3 NSaved=   3.
 NSaved= 3 IEnMin= 3 EnMin= -115.533350966654     IErMin= 3 ErrMin= 3.15D-06
 ErrMax= 3.15D-06  0.00D+00 EMaxC= 1.00D-01 BMatC= 1.05D-09 BMatP= 4.41D-09
 IDIUse=1 WtCom= 1.00D+00 WtEn= 0.00D+00
 Coeff-Com: -0.754D-01 0.265D+00 0.810D+00
 Coeff:     -0.754D-01 0.265D+00 0.810D+00
 Gap=     0.411 Goal=   None    Shift=    0.000
 RMSDP=1.20D-07 MaxDP=4.02D-06 DE=-8.50D-09 OVMax= 1.45D-05

 Cycle   9  Pass 1  IDiag  1:
 E= -115.533350967655     Delta-E=       -0.000000001000 Rises=F Damp=F
 DIIS: error= 1.18D-06 at cycle   4 NSaved=   4.
 NSaved= 4 IEnMin= 4 EnMin= -115.533350967655     IErMin= 4 ErrMin= 1.18D-06
 ErrMax= 1.18D-06  0.00D+00 EMaxC= 1.00D-01 BMatC= 2.39D-10 BMatP= 1.05D-09
 IDIUse=1 WtCom= 1.00D+00 WtEn= 0.00D+00
 Coeff-Com: -0.225D-01-0.920D-02 0.348D+00 0.683D+00
 Coeff:     -0.225D-01-0.920D-02 0.348D+00 0.683D+00
 Gap=     0.411 Goal=   None    Shift=    0.000
 RMSDP=3.79D-08 MaxDP=1.57D-06 DE=-1.00D-09 OVMax= 5.16D-06

 Cycle  10  Pass 1  IDiag  1:
 E= -115.533350967840     Delta-E=       -0.000000000185 Rises=F Damp=F
 DIIS: error= 2.08D-07 at cycle   5 NSaved=   5.
 NSaved= 5 IEnMin= 5 EnMin= -115.533350967840     IErMin= 5 ErrMin= 2.08D-07
 ErrMax= 2.08D-07  0.00D+00 EMaxC= 1.00D-01 BMatC= 7.12D-12 BMatP= 2.39D-10
 IDIUse=1 WtCom= 1.00D+00 WtEn= 0.00D+00
 Coeff-Com:  0.893D-03-0.265D-01 0.221D-01 0.146D+00 0.858D+00
 Coeff:      0.893D-03-0.265D-01 0.221D-01 0.146D+00 0.858D+00
 Gap=     0.411 Goal=   None    Shift=    0.000
 RMSDP=9.33D-09 MaxDP=3.38D-07 DE=-1.85D-10 OVMax= 1.16D-06

 SCF Done:  E(RB2PLYPD3) =  -115.533350968     A.U. after   10 cycles
            NFock= 10  Conv=0.93D-08     -V/T= 2.0018
 KE= 1.153201786719D+02 PE=-3.527950667236D+02 EE= 8.130413547094D+01
 Leave Link  502 at Thu Aug 27 00:12:45 2020, MaxMem=  2097152000 cpu:        58.5
 (Enter /opt/cluster/programs/g09/g09_d.01/g09/l801.exe)
 DoSCS=T DFT=T ScalE2(SS,OS)=  0.270000  0.270000
 ExpMin= 7.60D-02 ExpMax= 1.17D+05 ExpMxC= 1.13D+03 IAcc=3 IRadAn=         5 AccDes= 0.00D+00
 HarFok:  IExCor=  205 AccDes= 0.00D+00 IRadAn=         5 IDoV=-2 UseB2=F ITyADJ=14
 ICtDFT= 12500011 ScaDFX=  1.000000  1.000000  1.000000  1.000000
 DSYEVD-2 returned Info=        1739 IAlg= 4 N=    57 NDim=    57 NE2=    36788970 trying  DSYEV.
 Largest valence mixing into a core orbital is  1.19D-04
 Largest core mixing into a valence orbital is  1.53D-05
 Range of M.O.s used for correlation:     3   234
 NBasis=   234 NAE=     9 NBE=     9 NFC=     2 NFV=     0
 NROrb=    232 NOA=     7 NOB=     7 NVA=   225 NVB=   225

 **** Warning!!: The largest alpha MO coefficient is  0.26358045D+02

 Leave Link  801 at Thu Aug 27 00:12:45 2020, MaxMem=  2097152000 cpu:         0.5
 (Enter /opt/cluster/programs/g09/g09_d.01/g09/l906.exe)
 DoSCS=T DFT=T ScalE2(SS,OS)=  0.270000  0.270000
 FulOut=F Deriv=F AODrv=F NAtomX=     6
   MMem=        3646  MDisk=           7 MDiskD=           7
  W3Min=      447300 MinDsk=     1090093 NBas6D=         284
 NBas2D=       41310    NTT=       40470    LW2=     4508827
    MDV=  2096872520 MDiskM=       16391 NBas2p=       41304
 Fully in-core method, ICMem=  1722292712.
 IMap=   1   2   3   4   5   6   7
 JobTyp=1 Pass  1 fully in-core, NPsUse=  8.
 Compute canonical integrals.
 FoFCou: FMM=F IPFlag=           0 FMFlag=           0 FMFlg1=           0
         NFxFlg=           0 DoJE=F BraDBF=F KetDBF=F FulRan=T
         wScrn=  0.000000 ICntrl=     600 IOpCl=  1 I1Cent=           0 NGrid=           0
         NMat0=    1 NMatS0=  41310 NMatT0=    0 NMatD0=    1 NMtDS0=    0 NMtDT0=    0
 Symmetry not used in FoFCou.
 Spin components of T(2) and E(2):
     alpha-alpha T2 =       0.2012344857D-01 E2=     -0.1645919153D-01
     alpha-beta  T2 =       0.1286210798D+00 E2=     -0.1127173887D+00
     beta-beta   T2 =       0.2012344857D-01 E2=     -0.1645919153D-01
 The integrals were generated   1 times.
 E2(B2PLYPD3) =    -0.1456357718D+00 E(B2PLYPD3) =    -0.11567898673961D+03
 Leave Link  906 at Thu Aug 27 00:13:00 2020, MaxMem=  2097152000 cpu:       118.3
 (Enter /opt/cluster/programs/g09/g09_d.01/g09/l601.exe)
 Copying SCF densities to generalized density rwf, IOpCl= 0 IROHF=0.

 **********************************************************************

            Population analysis using the SCF density.

 **********************************************************************

 Orbital symmetries:
       Occupied  (A) (A) (A) (A) (A) (A) (A) (A) (A)
       Virtual   (A) (A) (A) (A) (A) (A) (A) (A) (A) (A) (A) (A)
                 (A) (A) (A) (A) (A) (A) (A) (A) (A) (A) (A) (A)
                 (A) (A) (A) (A) (A) (A) (A) (A) (A) (A) (A) (A)
                 (A) (A) (A) (A) (A) (A) (A) (A) (A) (A) (A) (A)
                 (A) (A) (A) (A) (A) (A) (A) (A) (A) (A) (A) (A)
                 (A) (A) (A) (A) (A) (A) (A) (A) (A) (A) (A) (A)
                 (A) (A) (A) (A) (A) (A) (A) (A) (A) (A) (A) (A)
                 (A) (A) (A) (A) (A) (A) (A) (A) (A) (A) (A) (A)
                 (A) (A) (A) (A) (A) (A) (A) (A) (A) (A) (A) (A)
                 (A) (A) (A) (A) (A) (A) (A) (A) (A) (A) (A) (A)
                 (A) (A) (A) (A) (A) (A) (A) (A) (A) (A) (A) (A)
                 (A) (A) (A) (A) (A) (A) (A) (A) (A) (A) (A) (A)
                 (A) (A) (A) (A) (A) (A) (A) (A) (A) (A) (A) (A)
                 (A) (A) (A) (A) (A) (A) (A) (A) (A) (A) (A) (A)
                 (A) (A) (A) (A) (A) (A) (A) (A) (A) (A) (A) (A)
                 (A) (A) (A) (A) (A) (A) (A) (A) (A) (A) (A) (A)
                 (A) (A) (A) (A) (A) (A) (A) (A) (A) (A) (A) (A)
                 (A) (A) (A) (A) (A) (A) (A) (A) (A) (A) (A) (A)
                 (A) (A) (A) (A) (A) (A) (A) (A) (A)
 The electronic state is 1-A.
 Alpha  occ. eigenvalues --  -19.71570 -10.67030  -1.19317  -0.79292  -0.60413
 Alpha  occ. eigenvalues --   -0.51461  -0.49753  -0.41131  -0.35767
 Alpha virt. eigenvalues --    0.05338   0.08623   0.12092   0.12225   0.14822
 Alpha virt. eigenvalues --    0.17121   0.18075   0.28964   0.33026   0.33482
 Alpha virt. eigenvalues --    0.37210   0.38560   0.39741   0.39997   0.42727
 Alpha virt. eigenvalues --    0.47407   0.52546   0.56366   0.59788   0.67237
 Alpha virt. eigenvalues --    0.71002   0.72191   0.74652   0.78692   0.79801
 Alpha virt. eigenvalues --    0.82397   0.86255   0.87741   0.93423   0.96144
 Alpha virt. eigenvalues --    1.01461   1.02927   1.03588   1.10201   1.11183
 Alpha virt. eigenvalues --    1.11810   1.20086   1.23915   1.29590   1.39731
 Alpha virt. eigenvalues --    1.40226   1.40843   1.42945   1.47202   1.50176
 Alpha virt. eigenvalues --    1.78266   1.80118   1.83727   1.87843   1.89787
 Alpha virt. eigenvalues --    1.92431   1.94855   1.96837   1.98667   2.03820
 Alpha virt. eigenvalues --    2.05586   2.13575   2.18899   2.20555   2.21876
 Alpha virt. eigenvalues --    2.24840   2.29636   2.31417   2.36521   2.39228
 Alpha virt. eigenvalues --    2.45146   2.47895   2.57264   2.61692   2.63120
 Alpha virt. eigenvalues --    2.65080   2.70100   2.70760   2.79612   2.84345
 Alpha virt. eigenvalues --    2.85620   2.89576   2.93115   2.93558   2.95634
 Alpha virt. eigenvalues --    2.96826   3.07036   3.08273   3.09911   3.20256
 Alpha virt. eigenvalues --    3.21710   3.30485   3.34107   3.34653   3.40596
 Alpha virt. eigenvalues --    3.47794   3.62079   3.68300   3.81381   3.85277
 Alpha virt. eigenvalues --    3.88114   3.98825   4.03249   4.05729   4.15145
 Alpha virt. eigenvalues --    4.21136   4.22290   4.27949   4.35780   4.56379
 Alpha virt. eigenvalues --    4.56744   4.71061   4.75003   4.93151   5.24746
 Alpha virt. eigenvalues --    5.40525   5.43433   5.50221   5.64290   5.66963
 Alpha virt. eigenvalues --    5.73457   5.73905   5.84426   5.86455   5.88566
 Alpha virt. eigenvalues --    5.90433   5.98527   6.02039   6.02800   6.14514
 Alpha virt. eigenvalues --    6.15365   6.22409   6.27713   6.28820   6.29978
 Alpha virt. eigenvalues --    6.32011   6.34766   6.38527   6.46142   6.48719
 Alpha virt. eigenvalues --    6.54718   6.62365   6.65146   6.75992   6.90573
 Alpha virt. eigenvalues --    6.92515   7.01518   7.06867   7.14579   7.23784
 Alpha virt. eigenvalues --    7.27741   7.29788   7.31114   7.36128   7.36897
 Alpha virt. eigenvalues --    7.47924   7.51052   7.52147   7.62144   7.67357
 Alpha virt. eigenvalues --    7.73122   7.76308   7.76797   7.78865   7.85061
 Alpha virt. eigenvalues --    7.87947   7.88626   7.95798   7.98318   8.13644
 Alpha virt. eigenvalues --    8.14095   8.27350   8.33014   8.34540   8.42608
 Alpha virt. eigenvalues --    8.44032   8.45037   8.47878   8.49444   8.52209
 Alpha virt. eigenvalues --    8.57649   8.75753   8.82814   8.86917   8.89955
 Alpha virt. eigenvalues --    8.92917   8.94843   9.06351   9.39626   9.44321
 Alpha virt. eigenvalues --    9.55597   9.58380   9.63893   9.65603   9.74554
 Alpha virt. eigenvalues --    9.76187   9.77564   9.91022   9.94625  10.06802
 Alpha virt. eigenvalues --   10.16073  10.20775  10.30612  10.37450  10.68268
 Alpha virt. eigenvalues --   11.03991  11.12462  11.32375  11.51439  11.64390
 Alpha virt. eigenvalues --   11.79398  11.89041  12.02831  12.09895  12.13124
 Alpha virt. eigenvalues --   12.52553  12.58728  12.76886  12.84872  12.98827
 Alpha virt. eigenvalues --   13.12301  13.52229  14.80170  15.14159  15.23610
 Alpha virt. eigenvalues --   16.78920  29.10026  49.02349 148.67056 254.85018
          Condensed to atoms (all electrons):
               1          2          3          4          5          6
     1  C    4.457248   0.275312   0.425844   0.428346   0.397029  -0.043954
     2  O    0.275312   7.900542  -0.046815  -0.050872  -0.037842   0.346402
     3  H    0.425844  -0.046815   0.661062  -0.049887  -0.035954  -0.005231
     4  H    0.428346  -0.050872  -0.049887   0.662143  -0.035334  -0.003725
     5  H    0.397029  -0.037842  -0.035954  -0.035334   0.633043   0.008783
     6  H   -0.043954   0.346402  -0.005231  -0.003725   0.008783   0.541756
 Mulliken charges:
               1
     1  C    0.060173
     2  O   -0.386727
     3  H    0.050982
     4  H    0.049329
     5  H    0.070274
     6  H    0.155970
 Sum of Mulliken charges =   0.00000
 Mulliken charges with hydrogens summed into heavy atoms:
               1
     1  C    0.230758
     2  O   -0.230758
 Electronic spatial extent (au):  <R**2>=             84.9106
 Charge=              0.0000 electrons
 Dipole moment (field-independent basis, Debye):
    X=              0.8783    Y=             -1.3963    Z=              0.0064  Tot=              1.6496
 Quadrupole moment (field-independent basis, Debye-Ang):
   XX=            -13.0653   YY=            -12.4021   ZZ=            -13.7417
   XY=              2.0611   XZ=             -0.0763   YZ=              0.0163
 Traceless Quadrupole moment (field-independent basis, Debye-Ang):
   XX=              0.0044   YY=              0.6676   ZZ=             -0.6720
   XY=              2.0611   XZ=             -0.0763   YZ=              0.0163
 Octapole moment (field-independent basis, Debye-Ang**2):
  XXX=             -4.8371  YYY=             -0.3503  ZZZ=              0.0908  XYY=             -1.6610
  XXY=             -2.2561  XXZ=             -0.0369  XZZ=             -0.4595  YZZ=             -0.7505
  YYZ=             -0.1160  XYZ=              0.0684
 Hexadecapole moment (field-independent basis, Debye-Ang**3):
 XXXX=            -63.0527 YYYY=            -20.6998 ZZZZ=            -20.7996 XXXY=              3.6399
 XXXZ=             -0.2267 YYYX=              2.9112 YYYZ=              0.0525 ZZZX=              0.0252
 ZZZY=              0.0237 XXYY=            -13.1377 XXZZ=            -14.6178 YYZZ=             -7.0751
 XXYZ=              0.0685 YYXZ=             -0.1768 ZZXY=             -0.1994
 N-N= 4.063740161288D+01 E-N=-3.527950388925D+02  KE= 1.153201786719D+02
 Leave Link  601 at Thu Aug 27 00:13:00 2020, MaxMem=  2097152000 cpu:         0.3
 (Enter /opt/cluster/programs/g09/g09_d.01/g09/l9999.exe)
 1\1\GINC-NODE24\SP\RB2PLYPD3-FC\def2QZVP\C1H4O1\BOITTIER\27-Aug-2020\0
 \\#p B2PLYPD3/Def2QZVP\\methanol\\0,1\C,0,-5.176626,-1.261368,0.913137
 \O,0,-3.76507,-1.119504,0.852098\H,0,-5.550769,-2.241468,0.534229\H,0,
 -5.699781,-0.433299,0.35415\H,0,-5.459743,-1.160196,2.01071\H,0,-3.497
 439,-1.208061,0.062786\\Version=ES64L-G09RevD.01\State=1-A\HF=-115.533
 351\MP2=-115.6789867\RMSD=9.333e-09\PG=C01 [X(C1H4O1)]\\@


 The mind is not a vessel to be filled but a fire to be kindled.
                                  -- Plutarch
 Job cpu time:       0 days  0 hours  3 minutes  5.1 seconds.
 File lengths (MBytes):  RWF=     23 Int=      0 D2E=      0 Chk=      4 Scr=      1
 Normal termination of Gaussian 09 at Thu Aug 27 00:13:03 2020.
