 Entering Gaussian System, Link 0=/opt/cluster/programs/g09/g09_d.01/g09//g09
 Input=/home/boittier/MDCM/nms_sampling/methanol_geom.xyz.dir/energies/methanol_2362_energy.com
 Output=/scratch/boittier/methanol_2362_energy/methanol_2362_energy.out
 Initial command:
 /opt/cluster/programs/g09/g09_d.01/g09/l1.exe "/scratch/boittier/methanol_2362_energy/Gau-41564.inp" -scrdir="/scratch/boittier/methanol_2362_energy/"
 Entering Link 1 = /opt/cluster/programs/g09/g09_d.01/g09/l1.exe PID=     41565.
  
 Copyright (c) 1988,1990,1992,1993,1995,1998,2003,2009,2013,
            Gaussian, Inc.  All Rights Reserved.
  
 This is part of the Gaussian(R) 09 program.  It is based on
 the Gaussian(R) 03 system (copyright 2003, Gaussian, Inc.),
 the Gaussian(R) 98 system (copyright 1998, Gaussian, Inc.),
 the Gaussian(R) 94 system (copyright 1995, Gaussian, Inc.),
 the Gaussian 92(TM) system (copyright 1992, Gaussian, Inc.),
 the Gaussian 90(TM) system (copyright 1990, Gaussian, Inc.),
 the Gaussian 88(TM) system (copyright 1988, Gaussian, Inc.),
 the Gaussian 86(TM) system (copyright 1986, Carnegie Mellon
 University), and the Gaussian 82(TM) system (copyright 1983,
 Carnegie Mellon University). Gaussian is a federally registered
 trademark of Gaussian, Inc.
  
 This software contains proprietary and confidential information,
 including trade secrets, belonging to Gaussian, Inc.
  
 This software is provided under written license and may be
 used, copied, transmitted, or stored only in accord with that
 written license.
  
 The following legend is applicable only to US Government
 contracts under FAR:
  
                    RESTRICTED RIGHTS LEGEND
  
 Use, reproduction and disclosure by the US Government is
 subject to restrictions as set forth in subparagraphs (a)
 and (c) of the Commercial Computer Software - Restricted
 Rights clause in FAR 52.227-19.
  
 Gaussian, Inc.
 340 Quinnipiac St., Bldg. 40, Wallingford CT 06492
  
  
 ---------------------------------------------------------------
 Warning -- This program may not be used in any manner that
 competes with the business of Gaussian, Inc. or will provide
 assistance to any competitor of Gaussian, Inc.  The licensee
 of this program is prohibited from giving any competitor of
 Gaussian, Inc. access to this program.  By using this program,
 the user acknowledges that Gaussian, Inc. is engaged in the
 business of creating and licensing software in the field of
 computational chemistry and represents and warrants to the
 licensee that it is not a competitor of Gaussian, Inc. and that
 it will not use this program in any manner prohibited above.
 ---------------------------------------------------------------
  

 Cite this work as:
 Gaussian 09, Revision D.01,
 M. J. Frisch, G. W. Trucks, H. B. Schlegel, G. E. Scuseria, 
 M. A. Robb, J. R. Cheeseman, G. Scalmani, V. Barone, B. Mennucci, 
 G. A. Petersson, H. Nakatsuji, M. Caricato, X. Li, H. P. Hratchian, 
 A. F. Izmaylov, J. Bloino, G. Zheng, J. L. Sonnenberg, M. Hada, 
 M. Ehara, K. Toyota, R. Fukuda, J. Hasegawa, M. Ishida, T. Nakajima, 
 Y. Honda, O. Kitao, H. Nakai, T. Vreven, J. A. Montgomery, Jr., 
 J. E. Peralta, F. Ogliaro, M. Bearpark, J. J. Heyd, E. Brothers, 
 K. N. Kudin, V. N. Staroverov, T. Keith, R. Kobayashi, J. Normand, 
 K. Raghavachari, A. Rendell, J. C. Burant, S. S. Iyengar, J. Tomasi, 
 M. Cossi, N. Rega, J. M. Millam, M. Klene, J. E. Knox, J. B. Cross, 
 V. Bakken, C. Adamo, J. Jaramillo, R. Gomperts, R. E. Stratmann, 
 O. Yazyev, A. J. Austin, R. Cammi, C. Pomelli, J. W. Ochterski, 
 R. L. Martin, K. Morokuma, V. G. Zakrzewski, G. A. Voth, 
 P. Salvador, J. J. Dannenberg, S. Dapprich, A. D. Daniels, 
 O. Farkas, J. B. Foresman, J. V. Ortiz, J. Cioslowski, 
 and D. J. Fox, Gaussian, Inc., Wallingford CT, 2013.
 
 ******************************************
 Gaussian 09:  ES64L-G09RevD.01 24-Apr-2013
                26-Aug-2020 
 ******************************************
 %chk=/home/boittier/MDCM/nms_sampling/methanol_geom.xyz.dir/methanol_2362.chk
 %nproc=8
 Will use up to    8 processors via shared memory.
 %mem=16000MB
 --------------------
 #p B2PLYPD3/Def2QZVP
 --------------------
 1/38=1/1;
 2/12=2,17=6,18=5,40=1/2;
 3/5=45,7=101,11=9,16=1,25=1,30=1,74=-60/1,2,3;
 4//1;
 5/5=2,38=5/2;
 8/10=1/1;
 9/16=-3/6;
 6/7=2,8=2,9=2,10=2/1;
 99/5=1,9=1/99;
 Leave Link    1 at Wed Aug 26 16:32:42 2020, MaxMem=  2097152000 cpu:         0.2
 (Enter /opt/cluster/programs/g09/g09_d.01/g09/l101.exe)
 --------
 methanol
 --------
 Symbolic Z-matrix:
 Charge =  0 Multiplicity = 1
 C                    -5.17192  -1.24468   0.90335 
 O                    -3.76949  -1.12586   0.84949 
 H                    -5.4595   -2.25022   0.51772 
 H                    -5.7162   -0.45406   0.34392 
 H                    -5.52957  -1.22001   2.08815 
 H                    -3.48677  -1.2127    0.16679 
 
 NAtoms=      6 NQM=        6 NQMF=       0 NMMI=      0 NMMIF=      0
                NMic=       0 NMicF=      0.
                    Isotopes and Nuclear Properties:
 (Nuclear quadrupole moments (NQMom) in fm**2, nuclear magnetic moments (NMagM)
  in nuclear magnetons)

  Atom         1           2           3           4           5           6
 IAtWgt=          12          16           1           1           1           1
 AtmWgt=  12.0000000  15.9949146   1.0078250   1.0078250   1.0078250   1.0078250
 NucSpn=           0           0           1           1           1           1
 AtZEff=   0.0000000   0.0000000   0.0000000   0.0000000   0.0000000   0.0000000
 NQMom=    0.0000000   0.0000000   0.0000000   0.0000000   0.0000000   0.0000000
 NMagM=    0.0000000   0.0000000   2.7928460   2.7928460   2.7928460   2.7928460
 AtZNuc=   6.0000000   8.0000000   1.0000000   1.0000000   1.0000000   1.0000000
 Leave Link  101 at Wed Aug 26 16:32:43 2020, MaxMem=  2097152000 cpu:         0.5
 (Enter /opt/cluster/programs/g09/g09_d.01/g09/l202.exe)
                          Input orientation:                          
 ---------------------------------------------------------------------
 Center     Atomic      Atomic             Coordinates (Angstroms)
 Number     Number       Type             X           Y           Z
 ---------------------------------------------------------------------
      1          6           0       -5.171916   -1.244678    0.903347
      2          8           0       -3.769493   -1.125862    0.849490
      3          1           0       -5.459503   -2.250220    0.517720
      4          1           0       -5.716196   -0.454063    0.343923
      5          1           0       -5.529574   -1.220013    2.088150
      6          1           0       -3.486769   -1.212701    0.166789
 ---------------------------------------------------------------------
                    Distance matrix (angstroms):
                    1          2          3          4          5
     1  C    0.000000
     2  O    1.408477   0.000000
     3  H    1.114688   2.056790   0.000000
     4  H    1.110976   2.120510   1.822711   0.000000
     5  H    1.237855   2.154305   1.879491   1.914115   0.000000
     6  H    1.839364   0.744012   2.256386   2.361621   2.804413
                    6
     6  H    0.000000
 Stoichiometry    CH4O
 Framework group  C1[X(CH4O)]
 Deg. of freedom    12
 Full point group                 C1      NOp   1
 Largest Abelian subgroup         C1      NOp   1
 Largest concise Abelian subgroup C1      NOp   1
                         Standard orientation:                         
 ---------------------------------------------------------------------
 Center     Atomic      Atomic             Coordinates (Angstroms)
 Number     Number       Type             X           Y           Z
 ---------------------------------------------------------------------
      1          6           0       -0.653355   -0.035666   -0.005725
      2          8           0        0.748606    0.099408   -0.013926
      3          1           0       -0.958935   -0.522668    0.949251
      4          1           0       -1.059493   -0.605231   -0.868810
      5          1           0       -1.163135    1.092240    0.009645
      6          1           0        1.112842   -0.545607    0.055668
 ---------------------------------------------------------------------
 Rotational constants (GHZ):    127.7743068     24.8600200     24.1406475
 Leave Link  202 at Wed Aug 26 16:32:43 2020, MaxMem=  2097152000 cpu:         0.0
 (Enter /opt/cluster/programs/g09/g09_d.01/g09/l301.exe)
 Standard basis: def2QZVP (5D, 7F)
 Ernie: Thresh=  0.10000D-02 Tol=  0.10000D-05 Strict=F.
 There are   284 symmetry adapted cartesian basis functions of A   symmetry.
 There are   234 symmetry adapted basis functions of A   symmetry.
   234 basis functions,   336 primitive gaussians,   284 cartesian basis functions
     9 alpha electrons        9 beta electrons
       nuclear repulsion energy        41.2368455946 Hartrees.
 IExCor=  419 DFT=T Ex+Corr=B2PLYPD3 ExCW=0 ScaHFX=  0.530000
 ScaDFX=  0.470000  0.470000  0.730000  0.730000 ScalE2=  0.270000  0.270000
 IRadAn=      0 IRanWt=     -1 IRanGd=            0 ICorTp=0 IEmpDi=141
 NAtoms=    6 NActive=    6 NUniq=    6 SFac= 1.00D+00 NAtFMM=   60 NAOKFM=F Big=F
 Integral buffers will be    131072 words long.
 Regular integral format.
 Two-electron integral symmetry is turned on.
 R6Disp:  Grimme-D3(BJ) Dispersion energy=       -0.0013105401 Hartrees.
 Nuclear repulsion after empirical dispersion term =       41.2355350545 Hartrees.
 Leave Link  301 at Wed Aug 26 16:32:43 2020, MaxMem=  2097152000 cpu:         0.6
 (Enter /opt/cluster/programs/g09/g09_d.01/g09/l302.exe)
 NPDir=0 NMtPBC=     1 NCelOv=     1 NCel=       1 NClECP=     1 NCelD=      1
         NCelK=      1 NCelE2=     1 NClLst=     1 CellRange=     0.0.
 One-electron integrals computed using PRISM.
   1 Symmetry operations used in ECPInt.
 ECPInt:  NShTT=    2775 NPrTT=    6207 LenC2=    2774 LenP2D=    5737.
 LDataN:  DoStor=T MaxTD1= 8 Len=  415
 NBasis=   234 RedAO= T EigKep=  7.63D-05  NBF=   234
 NBsUse=   234 1.00D-06 EigRej= -1.00D+00 NBFU=   234
 Precomputing XC quadrature grid using
 IXCGrd= 4 IRadAn=           0 IRanWt=          -1 IRanGd=           0 AccXCQ= 0.00D+00.
 Generated NRdTot=       0 NPtTot=           0 NUsed=           0 NTot=          32
 NSgBfM=   284   284   284   284   284 MxSgAt=     6 MxSgA2=     6.
 Leave Link  302 at Wed Aug 26 16:32:43 2020, MaxMem=  2097152000 cpu:         2.2
 (Enter /opt/cluster/programs/g09/g09_d.01/g09/l303.exe)
 DipDrv:  MaxL=1.
 Leave Link  303 at Wed Aug 26 16:32:43 2020, MaxMem=  2097152000 cpu:         0.2
 (Enter /opt/cluster/programs/g09/g09_d.01/g09/l401.exe)
 ExpMin= 7.60D-02 ExpMax= 1.17D+05 ExpMxC= 1.13D+03 IAcc=2 IRadAn=         4 AccDes= 0.00D+00
 Harris functional with IExCor=  419 and IRadAn=       4 diagonalized for initial guess.
 HarFok:  IExCor=  419 AccDes= 0.00D+00 IRadAn=         4 IDoV= 1 UseB2=F ITyADJ=14
 ICtDFT=  3500011 ScaDFX=  1.000000  1.000000  1.000000  1.000000
 FoFCou: FMM=F IPFlag=           0 FMFlag=      100000 FMFlg1=           0
         NFxFlg=           0 DoJE=T BraDBF=F KetDBF=T FulRan=T
         wScrn=  0.000000 ICntrl=     500 IOpCl=  0 I1Cent=   200000004 NGrid=           0
         NMat0=    1 NMatS0=      1 NMatT0=    0 NMatD0=    1 NMtDS0=    0 NMtDT0=    0
 Petite list used in FoFCou.
 Harris En= -115.746207056965    
 JPrj=0 DoOrth=F DoCkMO=F.
 Leave Link  401 at Wed Aug 26 16:32:44 2020, MaxMem=  2097152000 cpu:         4.3
 (Enter /opt/cluster/programs/g09/g09_d.01/g09/l502.exe)
 Closed shell SCF:
 Using DIIS extrapolation, IDIIS=  1040.
 Integral symmetry usage will be decided dynamically.
 Keep R1 ints in memory in canonical form, NReq=389840494.
 IVT=      264814 IEndB=      264814 NGot=  2097152000 MDV=  1718885927
 LenX=  1718885927 LenY=  1718804830
 Requested convergence on RMS density matrix=1.00D-08 within 128 cycles.
 Requested convergence on MAX density matrix=1.00D-06.
 Requested convergence on             energy=1.00D-06.
 No special actions if energy rises.
 FoFCou: FMM=F IPFlag=           0 FMFlag=           0 FMFlg1=           0
         NFxFlg=           0 DoJE=F BraDBF=F KetDBF=F FulRan=T
         wScrn=  0.000000 ICntrl=     600 IOpCl=  0 I1Cent=           0 NGrid=           0
         NMat0=    1 NMatS0=  27495 NMatT0=    0 NMatD0=    1 NMtDS0=    0 NMtDT0=    0
 Symmetry not used in FoFCou.
 Integral accuracy reduced to 1.0D-05 until final iterations.

 Cycle   1  Pass 0  IDiag  1:
 E= -115.348645672626    
 DIIS: error= 2.62D-02 at cycle   1 NSaved=   1.
 NSaved= 1 IEnMin= 1 EnMin= -115.348645672626     IErMin= 1 ErrMin= 2.62D-02
 ErrMax= 2.62D-02  0.00D+00 EMaxC= 1.00D-01 BMatC= 2.26D-01 BMatP= 2.26D-01
 IDIUse=3 WtCom= 7.38D-01 WtEn= 2.62D-01
 Coeff-Com:  0.100D+01
 Coeff-En:   0.100D+01
 Coeff:      0.100D+01
 Gap=     0.322 Goal=   None    Shift=    0.000
 GapD=    0.322 DampG=1.000 DampE=0.500 DampFc=0.5000 IDamp=-1.
 Damping current iteration by 5.00D-01
 RMSDP=1.48D-03 MaxDP=5.88D-02              OVMax= 1.75D-01

 Cycle   2  Pass 0  IDiag  1:
 E= -115.406538537973     Delta-E=       -0.057892865347 Rises=F Damp=T
 DIIS: error= 1.30D-02 at cycle   2 NSaved=   2.
 NSaved= 2 IEnMin= 2 EnMin= -115.406538537973     IErMin= 2 ErrMin= 1.30D-02
 ErrMax= 1.30D-02  0.00D+00 EMaxC= 1.00D-01 BMatC= 1.86D-02 BMatP= 2.26D-01
 IDIUse=3 WtCom= 8.70D-01 WtEn= 1.30D-01
 Coeff-Com: -0.100D+00 0.110D+01
 Coeff-En:   0.000D+00 0.100D+01
 Coeff:     -0.870D-01 0.109D+01
 Gap=     0.438 Goal=   None    Shift=    0.000
 RMSDP=3.52D-04 MaxDP=1.03D-02 DE=-5.79D-02 OVMax= 9.52D-02

 Cycle   3  Pass 0  IDiag  1:
 E= -115.465620211709     Delta-E=       -0.059081673735 Rises=F Damp=F
 DIIS: error= 4.26D-03 at cycle   3 NSaved=   3.
 NSaved= 3 IEnMin= 3 EnMin= -115.465620211709     IErMin= 3 ErrMin= 4.26D-03
 ErrMax= 4.26D-03  0.00D+00 EMaxC= 1.00D-01 BMatC= 2.98D-03 BMatP= 1.86D-02
 IDIUse=3 WtCom= 9.57D-01 WtEn= 4.26D-02
 Coeff-Com: -0.105D+00 0.246D+00 0.860D+00
 Coeff-En:   0.000D+00 0.000D+00 0.100D+01
 Coeff:     -0.101D+00 0.235D+00 0.866D+00
 Gap=     0.416 Goal=   None    Shift=    0.000
 RMSDP=1.02D-04 MaxDP=3.87D-03 DE=-5.91D-02 OVMax= 1.23D-02

 Cycle   4  Pass 0  IDiag  1:
 E= -115.467314289469     Delta-E=       -0.001694077761 Rises=F Damp=F
 DIIS: error= 1.29D-03 at cycle   4 NSaved=   4.
 NSaved= 4 IEnMin= 4 EnMin= -115.467314289469     IErMin= 4 ErrMin= 1.29D-03
 ErrMax= 1.29D-03  0.00D+00 EMaxC= 1.00D-01 BMatC= 2.67D-04 BMatP= 2.98D-03
 IDIUse=3 WtCom= 9.87D-01 WtEn= 1.29D-02
 Coeff-Com: -0.354D-01 0.609D-01 0.343D+00 0.631D+00
 Coeff-En:   0.000D+00 0.000D+00 0.000D+00 0.100D+01
 Coeff:     -0.349D-01 0.601D-01 0.339D+00 0.636D+00
 Gap=     0.414 Goal=   None    Shift=    0.000
 RMSDP=3.16D-05 MaxDP=1.61D-03 DE=-1.69D-03 OVMax= 4.50D-03

 Cycle   5  Pass 0  IDiag  1:
 E= -115.467540029817     Delta-E=       -0.000225740347 Rises=F Damp=F
 DIIS: error= 2.12D-04 at cycle   5 NSaved=   5.
 NSaved= 5 IEnMin= 5 EnMin= -115.467540029817     IErMin= 5 ErrMin= 2.12D-04
 ErrMax= 2.12D-04  0.00D+00 EMaxC= 1.00D-01 BMatC= 7.66D-06 BMatP= 2.67D-04
 IDIUse=3 WtCom= 9.98D-01 WtEn= 2.12D-03
 Coeff-Com: -0.511D-02 0.512D-02 0.579D-01 0.195D+00 0.747D+00
 Coeff-En:   0.000D+00 0.000D+00 0.000D+00 0.000D+00 0.100D+01
 Coeff:     -0.510D-02 0.511D-02 0.578D-01 0.194D+00 0.748D+00
 Gap=     0.415 Goal=   None    Shift=    0.000
 RMSDP=7.85D-06 MaxDP=2.44D-04 DE=-2.26D-04 OVMax= 6.57D-04

 Initial convergence to 1.0D-05 achieved.  Increase integral accuracy.
 Cycle   6  Pass 1  IDiag  1:
 E= -115.467556236440     Delta-E=       -0.000016206623 Rises=F Damp=F
 DIIS: error= 2.47D-05 at cycle   1 NSaved=   1.
 NSaved= 1 IEnMin= 1 EnMin= -115.467556236440     IErMin= 1 ErrMin= 2.47D-05
 ErrMax= 2.47D-05  0.00D+00 EMaxC= 1.00D-01 BMatC= 1.06D-07 BMatP= 1.06D-07
 IDIUse=1 WtCom= 1.00D+00 WtEn= 0.00D+00
 Coeff-Com:  0.100D+01
 Coeff:      0.100D+01
 Gap=     0.415 Goal=   None    Shift=    0.000
 RMSDP=7.85D-06 MaxDP=2.44D-04 DE=-1.62D-05 OVMax= 1.41D-04

 Cycle   7  Pass 1  IDiag  1:
 E= -115.467556399427     Delta-E=       -0.000000162987 Rises=F Damp=F
 DIIS: error= 7.82D-06 at cycle   2 NSaved=   2.
 NSaved= 2 IEnMin= 2 EnMin= -115.467556399427     IErMin= 2 ErrMin= 7.82D-06
 ErrMax= 7.82D-06  0.00D+00 EMaxC= 1.00D-01 BMatC= 6.61D-09 BMatP= 1.06D-07
 IDIUse=1 WtCom= 1.00D+00 WtEn= 0.00D+00
 Coeff-Com: -0.925D-01 0.109D+01
 Coeff:     -0.925D-01 0.109D+01
 Gap=     0.415 Goal=   None    Shift=    0.000
 RMSDP=6.13D-07 MaxDP=1.66D-05 DE=-1.63D-07 OVMax= 5.29D-05

 Cycle   8  Pass 1  IDiag  1:
 E= -115.467556413638     Delta-E=       -0.000000014211 Rises=F Damp=F
 DIIS: error= 2.25D-06 at cycle   3 NSaved=   3.
 NSaved= 3 IEnMin= 3 EnMin= -115.467556413638     IErMin= 3 ErrMin= 2.25D-06
 ErrMax= 2.25D-06  0.00D+00 EMaxC= 1.00D-01 BMatC= 8.68D-10 BMatP= 6.61D-09
 IDIUse=1 WtCom= 1.00D+00 WtEn= 0.00D+00
 Coeff-Com: -0.762D-01 0.147D+00 0.929D+00
 Coeff:     -0.762D-01 0.147D+00 0.929D+00
 Gap=     0.415 Goal=   None    Shift=    0.000
 RMSDP=1.82D-07 MaxDP=5.97D-06 DE=-1.42D-08 OVMax= 1.40D-05

 Cycle   9  Pass 1  IDiag  1:
 E= -115.467556414792     Delta-E=       -0.000000001155 Rises=F Damp=F
 DIIS: error= 9.61D-07 at cycle   4 NSaved=   4.
 NSaved= 4 IEnMin= 4 EnMin= -115.467556414792     IErMin= 4 ErrMin= 9.61D-07
 ErrMax= 9.61D-07  0.00D+00 EMaxC= 1.00D-01 BMatC= 1.11D-10 BMatP= 8.68D-10
 IDIUse=1 WtCom= 1.00D+00 WtEn= 0.00D+00
 Coeff-Com: -0.192D-01-0.805D-02 0.299D+00 0.728D+00
 Coeff:     -0.192D-01-0.805D-02 0.299D+00 0.728D+00
 Gap=     0.415 Goal=   None    Shift=    0.000
 RMSDP=2.99D-08 MaxDP=1.09D-06 DE=-1.15D-09 OVMax= 3.68D-06

 Cycle  10  Pass 1  IDiag  1:
 E= -115.467556414902     Delta-E=       -0.000000000110 Rises=F Damp=F
 DIIS: error= 2.35D-07 at cycle   5 NSaved=   5.
 NSaved= 5 IEnMin= 5 EnMin= -115.467556414902     IErMin= 5 ErrMin= 2.35D-07
 ErrMax= 2.35D-07  0.00D+00 EMaxC= 1.00D-01 BMatC= 5.49D-12 BMatP= 1.11D-10
 IDIUse=1 WtCom= 1.00D+00 WtEn= 0.00D+00
 Coeff-Com:  0.289D-02-0.186D-01-0.170D-01 0.164D+00 0.868D+00
 Coeff:      0.289D-02-0.186D-01-0.170D-01 0.164D+00 0.868D+00
 Gap=     0.415 Goal=   None    Shift=    0.000
 RMSDP=8.71D-09 MaxDP=3.11D-07 DE=-1.10D-10 OVMax= 1.04D-06

 SCF Done:  E(RB2PLYPD3) =  -115.467556415     A.U. after   10 cycles
            NFock= 10  Conv=0.87D-08     -V/T= 1.9991
 KE= 1.155731388032D+02 PE=-3.539790630782D+02 EE= 8.170283280560D+01
 Leave Link  502 at Wed Aug 26 16:33:05 2020, MaxMem=  2097152000 cpu:       109.2
 (Enter /opt/cluster/programs/g09/g09_d.01/g09/l801.exe)
 DoSCS=T DFT=T ScalE2(SS,OS)=  0.270000  0.270000
 ExpMin= 7.60D-02 ExpMax= 1.17D+05 ExpMxC= 1.13D+03 IAcc=3 IRadAn=         5 AccDes= 0.00D+00
 HarFok:  IExCor=  205 AccDes= 0.00D+00 IRadAn=         5 IDoV=-2 UseB2=F ITyADJ=14
 ICtDFT= 12500011 ScaDFX=  1.000000  1.000000  1.000000  1.000000
 Largest valence mixing into a core orbital is  1.21D-04
 Largest core mixing into a valence orbital is  1.49D-05
 Range of M.O.s used for correlation:     3   234
 NBasis=   234 NAE=     9 NBE=     9 NFC=     2 NFV=     0
 NROrb=    232 NOA=     7 NOB=     7 NVA=   225 NVB=   225

 **** Warning!!: The largest alpha MO coefficient is  0.20564572D+02

 Leave Link  801 at Wed Aug 26 16:33:05 2020, MaxMem=  2097152000 cpu:         0.7
 (Enter /opt/cluster/programs/g09/g09_d.01/g09/l906.exe)
 DoSCS=T DFT=T ScalE2(SS,OS)=  0.270000  0.270000
 FulOut=F Deriv=F AODrv=F NAtomX=     6
   MMem=        3646  MDisk=           7 MDiskD=           7
  W3Min=      447300 MinDsk=     1090093 NBas6D=         284
 NBas2D=       41310    NTT=       40470    LW2=     4508827
    MDV=  2096872548 MDiskM=       16391 NBas2p=       41304
 Fully in-core method, ICMem=  1722292712.
 IMap=   1   2   3   4   5   6   7
 JobTyp=1 Pass  1 fully in-core, NPsUse=  8.
 Compute canonical integrals.
 FoFCou: FMM=F IPFlag=           0 FMFlag=           0 FMFlg1=           0
         NFxFlg=           0 DoJE=F BraDBF=F KetDBF=F FulRan=T
         wScrn=  0.000000 ICntrl=     600 IOpCl=  1 I1Cent=           0 NGrid=           0
         NMat0=    1 NMatS0=  41310 NMatT0=    0 NMatD0=    1 NMtDS0=    0 NMtDT0=    0
 Symmetry not used in FoFCou.
 Spin components of T(2) and E(2):
     alpha-alpha T2 =       0.1950075378D-01 E2=     -0.1625282145D-01
     alpha-beta  T2 =       0.1269020741D+00 E2=     -0.1119043598D+00
     beta-beta   T2 =       0.1950075378D-01 E2=     -0.1625282145D-01
 The integrals were generated   1 times.
 E2(B2PLYPD3) =    -0.1444100027D+00 E(B2PLYPD3) =    -0.11561196641761D+03
 Leave Link  906 at Wed Aug 26 16:33:29 2020, MaxMem=  2097152000 cpu:       187.2
 (Enter /opt/cluster/programs/g09/g09_d.01/g09/l601.exe)
 Copying SCF densities to generalized density rwf, IOpCl= 0 IROHF=0.

 **********************************************************************

            Population analysis using the SCF density.

 **********************************************************************

 Orbital symmetries:
       Occupied  (A) (A) (A) (A) (A) (A) (A) (A) (A)
       Virtual   (A) (A) (A) (A) (A) (A) (A) (A) (A) (A) (A) (A)
                 (A) (A) (A) (A) (A) (A) (A) (A) (A) (A) (A) (A)
                 (A) (A) (A) (A) (A) (A) (A) (A) (A) (A) (A) (A)
                 (A) (A) (A) (A) (A) (A) (A) (A) (A) (A) (A) (A)
                 (A) (A) (A) (A) (A) (A) (A) (A) (A) (A) (A) (A)
                 (A) (A) (A) (A) (A) (A) (A) (A) (A) (A) (A) (A)
                 (A) (A) (A) (A) (A) (A) (A) (A) (A) (A) (A) (A)
                 (A) (A) (A) (A) (A) (A) (A) (A) (A) (A) (A) (A)
                 (A) (A) (A) (A) (A) (A) (A) (A) (A) (A) (A) (A)
                 (A) (A) (A) (A) (A) (A) (A) (A) (A) (A) (A) (A)
                 (A) (A) (A) (A) (A) (A) (A) (A) (A) (A) (A) (A)
                 (A) (A) (A) (A) (A) (A) (A) (A) (A) (A) (A) (A)
                 (A) (A) (A) (A) (A) (A) (A) (A) (A) (A) (A) (A)
                 (A) (A) (A) (A) (A) (A) (A) (A) (A) (A) (A) (A)
                 (A) (A) (A) (A) (A) (A) (A) (A) (A) (A) (A) (A)
                 (A) (A) (A) (A) (A) (A) (A) (A) (A) (A) (A) (A)
                 (A) (A) (A) (A) (A) (A) (A) (A) (A) (A) (A) (A)
                 (A) (A) (A) (A) (A) (A) (A) (A) (A) (A) (A) (A)
                 (A) (A) (A) (A) (A) (A) (A) (A) (A)
 The electronic state is 1-A.
 Alpha  occ. eigenvalues --  -19.70461 -10.68027  -1.22783  -0.80491  -0.61895
 Alpha  occ. eigenvalues --   -0.52312  -0.49424  -0.40120  -0.36193
 Alpha virt. eigenvalues --    0.05296   0.08970   0.11669   0.12166   0.14609
 Alpha virt. eigenvalues --    0.17212   0.17885   0.28798   0.32973   0.33406
 Alpha virt. eigenvalues --    0.34586   0.39157   0.40059   0.40213   0.42905
 Alpha virt. eigenvalues --    0.49296   0.52888   0.56956   0.59795   0.67610
 Alpha virt. eigenvalues --    0.69903   0.71914   0.73442   0.77847   0.80323
 Alpha virt. eigenvalues --    0.82315   0.86523   0.87974   0.92993   0.95545
 Alpha virt. eigenvalues --    1.02802   1.03249   1.04821   1.09051   1.10002
 Alpha virt. eigenvalues --    1.11194   1.19872   1.25086   1.33813   1.37063
 Alpha virt. eigenvalues --    1.38941   1.41596   1.42701   1.46791   1.49578
 Alpha virt. eigenvalues --    1.76750   1.79188   1.84941   1.88918   1.90495
 Alpha virt. eigenvalues --    1.93960   1.94560   1.97937   1.99645   2.03163
 Alpha virt. eigenvalues --    2.04156   2.14640   2.17946   2.18740   2.21038
 Alpha virt. eigenvalues --    2.24730   2.31069   2.31719   2.36173   2.40951
 Alpha virt. eigenvalues --    2.43539   2.47282   2.57349   2.60978   2.63214
 Alpha virt. eigenvalues --    2.64936   2.68960   2.70592   2.78424   2.82692
 Alpha virt. eigenvalues --    2.85168   2.87461   2.90387   2.90997   2.98745
 Alpha virt. eigenvalues --    2.99911   3.04265   3.08865   3.11079   3.18835
 Alpha virt. eigenvalues --    3.22187   3.26392   3.31774   3.39000   3.41448
 Alpha virt. eigenvalues --    3.46252   3.61473   3.73779   3.76329   3.84340
 Alpha virt. eigenvalues --    3.90434   3.98433   3.99939   4.05644   4.15068
 Alpha virt. eigenvalues --    4.20334   4.22566   4.30973   4.38664   4.50291
 Alpha virt. eigenvalues --    4.56370   4.77509   4.79000   5.04090   5.28082
 Alpha virt. eigenvalues --    5.38143   5.40806   5.47884   5.65526   5.66420
 Alpha virt. eigenvalues --    5.73386   5.78678   5.86835   5.89387   5.91646
 Alpha virt. eigenvalues --    5.94018   5.97089   5.99746   6.02438   6.06822
 Alpha virt. eigenvalues --    6.12770   6.15281   6.23875   6.25930   6.28863
 Alpha virt. eigenvalues --    6.37003   6.37661   6.41233   6.43447   6.50884
 Alpha virt. eigenvalues --    6.54856   6.56459   6.68217   6.76309   6.90267
 Alpha virt. eigenvalues --    6.91929   6.95085   6.97038   7.10059   7.18393
 Alpha virt. eigenvalues --    7.23015   7.25581   7.25629   7.37935   7.42345
 Alpha virt. eigenvalues --    7.42730   7.47448   7.53982   7.60170   7.65842
 Alpha virt. eigenvalues --    7.67240   7.70796   7.75273   7.78342   7.79255
 Alpha virt. eigenvalues --    7.85581   7.90418   7.97727   8.08538   8.15214
 Alpha virt. eigenvalues --    8.18756   8.21302   8.30984   8.32407   8.37205
 Alpha virt. eigenvalues --    8.42624   8.44968   8.48007   8.52550   8.55337
 Alpha virt. eigenvalues --    8.63000   8.77700   8.81596   8.82245   8.83721
 Alpha virt. eigenvalues --    8.89093   8.95541   9.09167   9.26453   9.41284
 Alpha virt. eigenvalues --    9.45648   9.51125   9.60828   9.69940   9.77118
 Alpha virt. eigenvalues --    9.86046   9.97544   9.98596  10.10626  10.15137
 Alpha virt. eigenvalues --   10.30687  10.35614  10.39370  10.43810  11.03827
 Alpha virt. eigenvalues --   11.10489  11.28016  11.39680  11.52750  11.62412
 Alpha virt. eigenvalues --   11.84962  11.93300  12.00051  12.16586  12.18917
 Alpha virt. eigenvalues --   12.41872  12.92900  12.96245  13.02595  13.14448
 Alpha virt. eigenvalues --   13.32350  13.80533  15.45270  15.93085  16.03505
 Alpha virt. eigenvalues --   16.24820  28.99219  49.05074 148.55567 254.94241
          Condensed to atoms (all electrons):
               1          2          3          4          5          6
     1  C    4.470250   0.274551   0.427655   0.421721   0.393518  -0.042782
     2  O    0.274551   7.747723  -0.056940  -0.046626  -0.033404   0.402419
     3  H    0.427655  -0.056940   0.662675  -0.048670  -0.032317  -0.003721
     4  H    0.421721  -0.046626  -0.048670   0.654095  -0.036100  -0.002740
     5  H    0.393518  -0.033404  -0.032317  -0.036100   0.640697   0.006492
     6  H   -0.042782   0.402419  -0.003721  -0.002740   0.006492   0.578447
 Mulliken charges:
               1
     1  C    0.055086
     2  O   -0.287723
     3  H    0.051318
     4  H    0.058320
     5  H    0.061114
     6  H    0.061884
 Sum of Mulliken charges =   0.00000
 Mulliken charges with hydrogens summed into heavy atoms:
               1
     1  C    0.225838
     2  O   -0.225838
 Electronic spatial extent (au):  <R**2>=             84.7245
 Charge=              0.0000 electrons
 Dipole moment (field-independent basis, Debye):
    X=             -0.8277    Y=             -1.3719    Z=              0.1501  Tot=              1.6093
 Quadrupole moment (field-independent basis, Debye-Ang):
   XX=            -12.9767   YY=            -12.6291   ZZ=            -13.6347
   XY=             -1.9284   XZ=              0.2667   YZ=             -0.0187
 Traceless Quadrupole moment (field-independent basis, Debye-Ang):
   XX=              0.1035   YY=              0.4511   ZZ=             -0.5545
   XY=             -1.9284   XZ=              0.2667   YZ=             -0.0187
 Octapole moment (field-independent basis, Debye-Ang**2):
  XXX=              5.4999  YYY=             -0.4124  ZZZ=              0.1649  XYY=              1.4355
  XXY=             -2.1073  XXZ=              0.1479  XZZ=              0.6882  YZZ=             -0.9346
  YYZ=             -0.0026  XYZ=             -0.2342
 Hexadecapole moment (field-independent basis, Debye-Ang**3):
 XXXX=            -62.4334 YYYY=            -21.8014 ZZZZ=            -20.4912 XXXY=             -3.3057
 XXXZ=              0.5964 YYYX=             -2.5295 YYYZ=              0.0605 ZZZX=              0.1533
 ZZZY=             -0.0459 XXYY=            -13.3021 XXZZ=            -14.5623 YYZZ=             -7.1864
 XXYZ=              0.0827 YYXZ=              0.1760 ZZXY=              0.3363
 N-N= 4.123553505450D+01 E-N=-3.539790712655D+02  KE= 1.155731388032D+02
 Leave Link  601 at Wed Aug 26 16:33:29 2020, MaxMem=  2097152000 cpu:         0.4
 (Enter /opt/cluster/programs/g09/g09_d.01/g09/l9999.exe)
 1\1\GINC-NODE20\SP\RB2PLYPD3-FC\def2QZVP\C1H4O1\BOITTIER\26-Aug-2020\0
 \\#p B2PLYPD3/Def2QZVP\\methanol\\0,1\C,0,-5.171916,-1.244678,0.903347
 \O,0,-3.769493,-1.125862,0.84949\H,0,-5.459503,-2.25022,0.51772\H,0,-5
 .716196,-0.454063,0.343923\H,0,-5.529574,-1.220013,2.08815\H,0,-3.4867
 69,-1.212701,0.166789\\Version=ES64L-G09RevD.01\State=1-A\HF=-115.4675
 564\MP2=-115.6119664\RMSD=8.711e-09\PG=C01 [X(C1H4O1)]\\@


 SCIENCE AT ITS BEST PROVIDES US WITH BETTER QUESTIONS, 
 NOT ABSOLUTE ANSWERS

                                    -- NORMAN COUSINS, 1976
 Job cpu time:       0 days  0 hours  5 minutes  6.1 seconds.
 File lengths (MBytes):  RWF=     23 Int=      0 D2E=      0 Chk=      4 Scr=      1
 Normal termination of Gaussian 09 at Wed Aug 26 16:33:29 2020.
