 Entering Gaussian System, Link 0=/opt/cluster/programs/g09/g09_d.01/g09//g09
 Input=/home/boittier/MDCM/nms_sampling/methanol_geom.xyz.dir/energies/methanol_1355_energy.com
 Output=/scratch/boittier/methanol_1355_energy/methanol_1355_energy.out
 Initial command:
 /opt/cluster/programs/g09/g09_d.01/g09/l1.exe "/scratch/boittier/methanol_1355_energy/Gau-48761.inp" -scrdir="/scratch/boittier/methanol_1355_energy/"
 Entering Link 1 = /opt/cluster/programs/g09/g09_d.01/g09/l1.exe PID=     48762.
  
 Copyright (c) 1988,1990,1992,1993,1995,1998,2003,2009,2013,
            Gaussian, Inc.  All Rights Reserved.
  
 This is part of the Gaussian(R) 09 program.  It is based on
 the Gaussian(R) 03 system (copyright 2003, Gaussian, Inc.),
 the Gaussian(R) 98 system (copyright 1998, Gaussian, Inc.),
 the Gaussian(R) 94 system (copyright 1995, Gaussian, Inc.),
 the Gaussian 92(TM) system (copyright 1992, Gaussian, Inc.),
 the Gaussian 90(TM) system (copyright 1990, Gaussian, Inc.),
 the Gaussian 88(TM) system (copyright 1988, Gaussian, Inc.),
 the Gaussian 86(TM) system (copyright 1986, Carnegie Mellon
 University), and the Gaussian 82(TM) system (copyright 1983,
 Carnegie Mellon University). Gaussian is a federally registered
 trademark of Gaussian, Inc.
  
 This software contains proprietary and confidential information,
 including trade secrets, belonging to Gaussian, Inc.
  
 This software is provided under written license and may be
 used, copied, transmitted, or stored only in accord with that
 written license.
  
 The following legend is applicable only to US Government
 contracts under FAR:
  
                    RESTRICTED RIGHTS LEGEND
  
 Use, reproduction and disclosure by the US Government is
 subject to restrictions as set forth in subparagraphs (a)
 and (c) of the Commercial Computer Software - Restricted
 Rights clause in FAR 52.227-19.
  
 Gaussian, Inc.
 340 Quinnipiac St., Bldg. 40, Wallingford CT 06492
  
  
 ---------------------------------------------------------------
 Warning -- This program may not be used in any manner that
 competes with the business of Gaussian, Inc. or will provide
 assistance to any competitor of Gaussian, Inc.  The licensee
 of this program is prohibited from giving any competitor of
 Gaussian, Inc. access to this program.  By using this program,
 the user acknowledges that Gaussian, Inc. is engaged in the
 business of creating and licensing software in the field of
 computational chemistry and represents and warrants to the
 licensee that it is not a competitor of Gaussian, Inc. and that
 it will not use this program in any manner prohibited above.
 ---------------------------------------------------------------
  

 Cite this work as:
 Gaussian 09, Revision D.01,
 M. J. Frisch, G. W. Trucks, H. B. Schlegel, G. E. Scuseria, 
 M. A. Robb, J. R. Cheeseman, G. Scalmani, V. Barone, B. Mennucci, 
 G. A. Petersson, H. Nakatsuji, M. Caricato, X. Li, H. P. Hratchian, 
 A. F. Izmaylov, J. Bloino, G. Zheng, J. L. Sonnenberg, M. Hada, 
 M. Ehara, K. Toyota, R. Fukuda, J. Hasegawa, M. Ishida, T. Nakajima, 
 Y. Honda, O. Kitao, H. Nakai, T. Vreven, J. A. Montgomery, Jr., 
 J. E. Peralta, F. Ogliaro, M. Bearpark, J. J. Heyd, E. Brothers, 
 K. N. Kudin, V. N. Staroverov, T. Keith, R. Kobayashi, J. Normand, 
 K. Raghavachari, A. Rendell, J. C. Burant, S. S. Iyengar, J. Tomasi, 
 M. Cossi, N. Rega, J. M. Millam, M. Klene, J. E. Knox, J. B. Cross, 
 V. Bakken, C. Adamo, J. Jaramillo, R. Gomperts, R. E. Stratmann, 
 O. Yazyev, A. J. Austin, R. Cammi, C. Pomelli, J. W. Ochterski, 
 R. L. Martin, K. Morokuma, V. G. Zakrzewski, G. A. Voth, 
 P. Salvador, J. J. Dannenberg, S. Dapprich, A. D. Daniels, 
 O. Farkas, J. B. Foresman, J. V. Ortiz, J. Cioslowski, 
 and D. J. Fox, Gaussian, Inc., Wallingford CT, 2013.
 
 ******************************************
 Gaussian 09:  ES64L-G09RevD.01 24-Apr-2013
                26-Aug-2020 
 ******************************************
 %chk=/home/boittier/MDCM/nms_sampling/methanol_geom.xyz.dir/methanol_1355.chk
 %nproc=8
 Will use up to    8 processors via shared memory.
 %mem=16000MB
 --------------------
 #p B2PLYPD3/Def2QZVP
 --------------------
 1/38=1/1;
 2/12=2,17=6,18=5,40=1/2;
 3/5=45,7=101,11=9,16=1,25=1,30=1,74=-60/1,2,3;
 4//1;
 5/5=2,38=5/2;
 8/10=1/1;
 9/16=-3/6;
 6/7=2,8=2,9=2,10=2/1;
 99/5=1,9=1/99;
 Leave Link    1 at Wed Aug 26 12:28:45 2020, MaxMem=  2097152000 cpu:         0.2
 (Enter /opt/cluster/programs/g09/g09_d.01/g09/l101.exe)
 --------
 methanol
 --------
 Symbolic Z-matrix:
 Charge =  0 Multiplicity = 1
 C                    -5.19906  -1.26633   0.90511 
 O                    -3.75304  -1.11926   0.84536 
 H                    -5.46342  -2.23562   0.537 
 H                    -5.7421   -0.40447   0.29718 
 H                    -5.42193  -1.1657    2.09863 
 H                    -3.50759  -1.18418   0.23043 
 
 NAtoms=      6 NQM=        6 NQMF=       0 NMMI=      0 NMMIF=      0
                NMic=       0 NMicF=      0.
                    Isotopes and Nuclear Properties:
 (Nuclear quadrupole moments (NQMom) in fm**2, nuclear magnetic moments (NMagM)
  in nuclear magnetons)

  Atom         1           2           3           4           5           6
 IAtWgt=          12          16           1           1           1           1
 AtmWgt=  12.0000000  15.9949146   1.0078250   1.0078250   1.0078250   1.0078250
 NucSpn=           0           0           1           1           1           1
 AtZEff=   0.0000000   0.0000000   0.0000000   0.0000000   0.0000000   0.0000000
 NQMom=    0.0000000   0.0000000   0.0000000   0.0000000   0.0000000   0.0000000
 NMagM=    0.0000000   0.0000000   2.7928460   2.7928460   2.7928460   2.7928460
 AtZNuc=   6.0000000   8.0000000   1.0000000   1.0000000   1.0000000   1.0000000
 Leave Link  101 at Wed Aug 26 12:28:45 2020, MaxMem=  2097152000 cpu:         0.5
 (Enter /opt/cluster/programs/g09/g09_d.01/g09/l202.exe)
                          Input orientation:                          
 ---------------------------------------------------------------------
 Center     Atomic      Atomic             Coordinates (Angstroms)
 Number     Number       Type             X           Y           Z
 ---------------------------------------------------------------------
      1          6           0       -5.199057   -1.266328    0.905112
      2          8           0       -3.753043   -1.119263    0.845356
      3          1           0       -5.463424   -2.235622    0.536995
      4          1           0       -5.742098   -0.404471    0.297180
      5          1           0       -5.421934   -1.165704    2.098634
      6          1           0       -3.507589   -1.184177    0.230432
 ---------------------------------------------------------------------
                    Distance matrix (angstroms):
                    1          2          3          4          5
     1  C    0.000000
     2  O    1.454701   0.000000
     3  H    1.070014   2.065611   0.000000
     4  H    1.186285   2.183521   1.867695   0.000000
     5  H    1.218316   2.087597   1.893452   1.981721   0.000000
     6  H    1.822911   0.665277   2.241608   2.367578   2.674927
                    6
     6  H    0.000000
 Stoichiometry    CH4O
 Framework group  C1[X(CH4O)]
 Deg. of freedom    12
 Full point group                 C1      NOp   1
 Largest Abelian subgroup         C1      NOp   1
 Largest concise Abelian subgroup C1      NOp   1
                         Standard orientation:                         
 ---------------------------------------------------------------------
 Center     Atomic      Atomic             Coordinates (Angstroms)
 Number     Number       Type             X           Y           Z
 ---------------------------------------------------------------------
      1          6           0       -0.684322   -0.021679    0.019005
      2          8           0        0.766549    0.074957   -0.023280
      3          1           0       -0.979405   -0.371484    0.986215
      4          1           0       -1.091351   -0.726532   -0.844002
      5          1           0       -1.027610    1.133135   -0.162246
      6          1           0        1.071904   -0.504704    0.092240
 ---------------------------------------------------------------------
 Rotational constants (GHZ):    125.1429034     24.0161581     23.4025272
 Leave Link  202 at Wed Aug 26 12:28:45 2020, MaxMem=  2097152000 cpu:         0.0
 (Enter /opt/cluster/programs/g09/g09_d.01/g09/l301.exe)
 Standard basis: def2QZVP (5D, 7F)
 Ernie: Thresh=  0.10000D-02 Tol=  0.10000D-05 Strict=F.
 There are   284 symmetry adapted cartesian basis functions of A   symmetry.
 There are   234 symmetry adapted basis functions of A   symmetry.
   234 basis functions,   336 primitive gaussians,   284 cartesian basis functions
     9 alpha electrons        9 beta electrons
       nuclear repulsion energy        41.3194360857 Hartrees.
 IExCor=  419 DFT=T Ex+Corr=B2PLYPD3 ExCW=0 ScaHFX=  0.530000
 ScaDFX=  0.470000  0.470000  0.730000  0.730000 ScalE2=  0.270000  0.270000
 IRadAn=      0 IRanWt=     -1 IRanGd=            0 ICorTp=0 IEmpDi=141
 NAtoms=    6 NActive=    6 NUniq=    6 SFac= 1.00D+00 NAtFMM=   60 NAOKFM=F Big=F
 Integral buffers will be    131072 words long.
 Regular integral format.
 Two-electron integral symmetry is turned on.
 R6Disp:  Grimme-D3(BJ) Dispersion energy=       -0.0013130128 Hartrees.
 Nuclear repulsion after empirical dispersion term =       41.3181230729 Hartrees.
 Leave Link  301 at Wed Aug 26 12:28:45 2020, MaxMem=  2097152000 cpu:         0.4
 (Enter /opt/cluster/programs/g09/g09_d.01/g09/l302.exe)
 NPDir=0 NMtPBC=     1 NCelOv=     1 NCel=       1 NClECP=     1 NCelD=      1
         NCelK=      1 NCelE2=     1 NClLst=     1 CellRange=     0.0.
 One-electron integrals computed using PRISM.
   1 Symmetry operations used in ECPInt.
 ECPInt:  NShTT=    2775 NPrTT=    6207 LenC2=    2773 LenP2D=    5740.
 LDataN:  DoStor=T MaxTD1= 8 Len=  415
 NBasis=   234 RedAO= T EigKep=  5.43D-05  NBF=   234
 NBsUse=   234 1.00D-06 EigRej= -1.00D+00 NBFU=   234
 Precomputing XC quadrature grid using
 IXCGrd= 4 IRadAn=           0 IRanWt=          -1 IRanGd=           0 AccXCQ= 0.00D+00.
 Generated NRdTot=       0 NPtTot=           0 NUsed=           0 NTot=          32
 NSgBfM=   284   284   284   284   284 MxSgAt=     6 MxSgA2=     6.
 Leave Link  302 at Wed Aug 26 12:28:45 2020, MaxMem=  2097152000 cpu:         2.2
 (Enter /opt/cluster/programs/g09/g09_d.01/g09/l303.exe)
 DipDrv:  MaxL=1.
 Leave Link  303 at Wed Aug 26 12:28:45 2020, MaxMem=  2097152000 cpu:         0.2
 (Enter /opt/cluster/programs/g09/g09_d.01/g09/l401.exe)
 ExpMin= 7.60D-02 ExpMax= 1.17D+05 ExpMxC= 1.13D+03 IAcc=2 IRadAn=         4 AccDes= 0.00D+00
 Harris functional with IExCor=  419 and IRadAn=       4 diagonalized for initial guess.
 HarFok:  IExCor=  419 AccDes= 0.00D+00 IRadAn=         4 IDoV= 1 UseB2=F ITyADJ=14
 ICtDFT=  3500011 ScaDFX=  1.000000  1.000000  1.000000  1.000000
 FoFCou: FMM=F IPFlag=           0 FMFlag=      100000 FMFlg1=           0
         NFxFlg=           0 DoJE=T BraDBF=F KetDBF=T FulRan=T
         wScrn=  0.000000 ICntrl=     500 IOpCl=  0 I1Cent=   200000004 NGrid=           0
         NMat0=    1 NMatS0=      1 NMatT0=    0 NMatD0=    1 NMtDS0=    0 NMtDT0=    0
 Petite list used in FoFCou.
 Harris En= -115.661439296982    
 JPrj=0 DoOrth=F DoCkMO=F.
 Leave Link  401 at Wed Aug 26 12:28:46 2020, MaxMem=  2097152000 cpu:         3.8
 (Enter /opt/cluster/programs/g09/g09_d.01/g09/l502.exe)
 Closed shell SCF:
 Using DIIS extrapolation, IDIIS=  1040.
 Integral symmetry usage will be decided dynamically.
 Keep R1 ints in memory in canonical form, NReq=389840494.
 IVT=      264814 IEndB=      264814 NGot=  2097152000 MDV=  1718885927
 LenX=  1718885927 LenY=  1718804830
 Requested convergence on RMS density matrix=1.00D-08 within 128 cycles.
 Requested convergence on MAX density matrix=1.00D-06.
 Requested convergence on             energy=1.00D-06.
 No special actions if energy rises.
 FoFCou: FMM=F IPFlag=           0 FMFlag=           0 FMFlg1=           0
         NFxFlg=           0 DoJE=F BraDBF=F KetDBF=F FulRan=T
         wScrn=  0.000000 ICntrl=     600 IOpCl=  0 I1Cent=           0 NGrid=           0
         NMat0=    1 NMatS0=  27495 NMatT0=    0 NMatD0=    1 NMtDS0=    0 NMtDT0=    0
 Symmetry not used in FoFCou.
 Integral accuracy reduced to 1.0D-05 until final iterations.

 Cycle   1  Pass 0  IDiag  1:
 E= -115.215693671362    
 DIIS: error= 3.22D-02 at cycle   1 NSaved=   1.
 NSaved= 1 IEnMin= 1 EnMin= -115.215693671362     IErMin= 1 ErrMin= 3.22D-02
 ErrMax= 3.22D-02  0.00D+00 EMaxC= 1.00D-01 BMatC= 2.77D-01 BMatP= 2.77D-01
 IDIUse=3 WtCom= 6.78D-01 WtEn= 3.22D-01
 Coeff-Com:  0.100D+01
 Coeff-En:   0.100D+01
 Coeff:      0.100D+01
 Gap=     0.406 Goal=   None    Shift=    0.000
 GapD=    0.406 DampG=2.000 DampE=0.500 DampFc=1.0000 IDamp=-1.
 RMSDP=1.62D-03 MaxDP=6.79D-02              OVMax= 2.05D-01

 Cycle   2  Pass 0  IDiag  1:
 E= -115.223307301000     Delta-E=       -0.007613629638 Rises=F Damp=F
 DIIS: error= 3.10D-02 at cycle   2 NSaved=   2.
 NSaved= 2 IEnMin= 2 EnMin= -115.223307301000     IErMin= 2 ErrMin= 3.10D-02
 ErrMax= 3.10D-02  0.00D+00 EMaxC= 1.00D-01 BMatC= 2.06D-01 BMatP= 2.77D-01
 IDIUse=3 WtCom= 6.90D-01 WtEn= 3.10D-01
 Coeff-Com:  0.460D+00 0.540D+00
 Coeff-En:   0.486D+00 0.514D+00
 Coeff:      0.468D+00 0.532D+00
 Gap=     0.441 Goal=   None    Shift=    0.000
 RMSDP=1.02D-03 MaxDP=4.53D-02 DE=-7.61D-03 OVMax= 1.10D-01

 Cycle   3  Pass 0  IDiag  1:
 E= -115.359127079526     Delta-E=       -0.135819778525 Rises=F Damp=F
 DIIS: error= 4.36D-03 at cycle   3 NSaved=   3.
 NSaved= 3 IEnMin= 3 EnMin= -115.359127079526     IErMin= 3 ErrMin= 4.36D-03
 ErrMax= 4.36D-03  0.00D+00 EMaxC= 1.00D-01 BMatC= 3.34D-03 BMatP= 2.06D-01
 IDIUse=3 WtCom= 9.56D-01 WtEn= 4.36D-02
 Coeff-Com:  0.155D-01 0.111D+00 0.873D+00
 Coeff-En:   0.000D+00 0.000D+00 0.100D+01
 Coeff:      0.149D-01 0.106D+00 0.879D+00
 Gap=     0.420 Goal=   None    Shift=    0.000
 RMSDP=1.11D-04 MaxDP=4.42D-03 DE=-1.36D-01 OVMax= 1.56D-02

 Cycle   4  Pass 0  IDiag  1:
 E= -115.361065274372     Delta-E=       -0.001938194847 Rises=F Damp=F
 DIIS: error= 1.60D-03 at cycle   4 NSaved=   4.
 NSaved= 4 IEnMin= 4 EnMin= -115.361065274372     IErMin= 4 ErrMin= 1.60D-03
 ErrMax= 1.60D-03  0.00D+00 EMaxC= 1.00D-01 BMatC= 3.60D-04 BMatP= 3.34D-03
 IDIUse=3 WtCom= 9.84D-01 WtEn= 1.60D-02
 Coeff-Com: -0.676D-02 0.241D-01 0.347D+00 0.635D+00
 Coeff-En:   0.000D+00 0.000D+00 0.000D+00 0.100D+01
 Coeff:     -0.665D-02 0.237D-01 0.342D+00 0.641D+00
 Gap=     0.417 Goal=   None    Shift=    0.000
 RMSDP=3.77D-05 MaxDP=1.99D-03 DE=-1.94D-03 OVMax= 5.45D-03

 Cycle   5  Pass 0  IDiag  1:
 E= -115.361380501196     Delta-E=       -0.000315226823 Rises=F Damp=F
 DIIS: error= 2.76D-04 at cycle   5 NSaved=   5.
 NSaved= 5 IEnMin= 5 EnMin= -115.361380501196     IErMin= 5 ErrMin= 2.76D-04
 ErrMax= 2.76D-04  0.00D+00 EMaxC= 1.00D-01 BMatC= 9.89D-06 BMatP= 3.60D-04
 IDIUse=3 WtCom= 9.97D-01 WtEn= 2.76D-03
 Coeff-Com: -0.282D-02 0.696D-03 0.530D-01 0.187D+00 0.762D+00
 Coeff-En:   0.000D+00 0.000D+00 0.000D+00 0.000D+00 0.100D+01
 Coeff:     -0.281D-02 0.694D-03 0.529D-01 0.187D+00 0.763D+00
 Gap=     0.418 Goal=   None    Shift=    0.000
 RMSDP=9.19D-06 MaxDP=2.59D-04 DE=-3.15D-04 OVMax= 8.41D-04

 Initial convergence to 1.0D-05 achieved.  Increase integral accuracy.
 Cycle   6  Pass 1  IDiag  1:
 E= -115.361391817289     Delta-E=       -0.000011316094 Rises=F Damp=F
 DIIS: error= 4.35D-05 at cycle   1 NSaved=   1.
 NSaved= 1 IEnMin= 1 EnMin= -115.361391817289     IErMin= 1 ErrMin= 4.35D-05
 ErrMax= 4.35D-05  0.00D+00 EMaxC= 1.00D-01 BMatC= 1.93D-07 BMatP= 1.93D-07
 IDIUse=1 WtCom= 1.00D+00 WtEn= 0.00D+00
 Coeff-Com:  0.100D+01
 Coeff:      0.100D+01
 Gap=     0.418 Goal=   None    Shift=    0.000
 RMSDP=9.19D-06 MaxDP=2.59D-04 DE=-1.13D-05 OVMax= 1.88D-04

 Cycle   7  Pass 1  IDiag  1:
 E= -115.361392110778     Delta-E=       -0.000000293488 Rises=F Damp=F
 DIIS: error= 1.80D-05 at cycle   2 NSaved=   2.
 NSaved= 2 IEnMin= 2 EnMin= -115.361392110778     IErMin= 2 ErrMin= 1.80D-05
 ErrMax= 1.80D-05  0.00D+00 EMaxC= 1.00D-01 BMatC= 2.00D-08 BMatP= 1.93D-07
 IDIUse=1 WtCom= 1.00D+00 WtEn= 0.00D+00
 Coeff-Com:  0.111D-01 0.989D+00
 Coeff:      0.111D-01 0.989D+00
 Gap=     0.418 Goal=   None    Shift=    0.000
 RMSDP=8.20D-07 MaxDP=3.51D-05 DE=-2.93D-07 OVMax= 8.11D-05

 Cycle   8  Pass 1  IDiag  1:
 E= -115.361392137987     Delta-E=       -0.000000027209 Rises=F Damp=F
 DIIS: error= 6.79D-06 at cycle   3 NSaved=   3.
 NSaved= 3 IEnMin= 3 EnMin= -115.361392137987     IErMin= 3 ErrMin= 6.79D-06
 ErrMax= 6.79D-06  0.00D+00 EMaxC= 1.00D-01 BMatC= 9.10D-09 BMatP= 2.00D-08
 IDIUse=1 WtCom= 1.00D+00 WtEn= 0.00D+00
 Coeff-Com: -0.100D+00 0.391D+00 0.709D+00
 Coeff:     -0.100D+00 0.391D+00 0.709D+00
 Gap=     0.418 Goal=   None    Shift=    0.000
 RMSDP=3.31D-07 MaxDP=1.19D-05 DE=-2.72D-08 OVMax= 3.65D-05

 Cycle   9  Pass 1  IDiag  1:
 E= -115.361392145135     Delta-E=       -0.000000007148 Rises=F Damp=F
 DIIS: error= 2.32D-06 at cycle   4 NSaved=   4.
 NSaved= 4 IEnMin= 4 EnMin= -115.361392145135     IErMin= 4 ErrMin= 2.32D-06
 ErrMax= 2.32D-06  0.00D+00 EMaxC= 1.00D-01 BMatC= 6.82D-10 BMatP= 9.10D-09
 IDIUse=1 WtCom= 1.00D+00 WtEn= 0.00D+00
 Coeff-Com: -0.364D-01 0.110D-02 0.225D+00 0.810D+00
 Coeff:     -0.364D-01 0.110D-02 0.225D+00 0.810D+00
 Gap=     0.418 Goal=   None    Shift=    0.000
 RMSDP=9.33D-08 MaxDP=4.08D-06 DE=-7.15D-09 OVMax= 1.09D-05

 Cycle  10  Pass 1  IDiag  1:
 E= -115.361392145781     Delta-E=       -0.000000000646 Rises=F Damp=F
 DIIS: error= 2.16D-07 at cycle   5 NSaved=   5.
 NSaved= 5 IEnMin= 5 EnMin= -115.361392145781     IErMin= 5 ErrMin= 2.16D-07
 ErrMax= 2.16D-07  0.00D+00 EMaxC= 1.00D-01 BMatC= 1.11D-11 BMatP= 6.82D-10
 IDIUse=1 WtCom= 1.00D+00 WtEn= 0.00D+00
 Coeff-Com:  0.218D-02-0.155D-01-0.252D-01 0.674D-01 0.971D+00
 Coeff:      0.218D-02-0.155D-01-0.252D-01 0.674D-01 0.971D+00
 Gap=     0.418 Goal=   None    Shift=    0.000
 RMSDP=1.53D-08 MaxDP=4.22D-07 DE=-6.46D-10 OVMax= 1.81D-06

 Cycle  11  Pass 1  IDiag  1:
 E= -115.361392145794     Delta-E=       -0.000000000013 Rises=F Damp=F
 DIIS: error= 6.23D-08 at cycle   6 NSaved=   6.
 NSaved= 6 IEnMin= 6 EnMin= -115.361392145794     IErMin= 6 ErrMin= 6.23D-08
 ErrMax= 6.23D-08  0.00D+00 EMaxC= 1.00D-01 BMatC= 6.47D-13 BMatP= 1.11D-11
 IDIUse=1 WtCom= 1.00D+00 WtEn= 0.00D+00
 Coeff-Com:  0.115D-02-0.465D-02-0.112D-01 0.733D-02 0.276D+00 0.731D+00
 Coeff:      0.115D-02-0.465D-02-0.112D-01 0.733D-02 0.276D+00 0.731D+00
 Gap=     0.418 Goal=   None    Shift=    0.000
 RMSDP=2.54D-09 MaxDP=1.10D-07 DE=-1.32D-11 OVMax= 3.09D-07

 SCF Done:  E(RB2PLYPD3) =  -115.361392146     A.U. after   11 cycles
            NFock= 11  Conv=0.25D-08     -V/T= 1.9955
 KE= 1.158802581499D+02 PE=-3.541803920247D+02 EE= 8.162061865608D+01
 Leave Link  502 at Wed Aug 26 12:28:59 2020, MaxMem=  2097152000 cpu:        66.4
 (Enter /opt/cluster/programs/g09/g09_d.01/g09/l801.exe)
 DoSCS=T DFT=T ScalE2(SS,OS)=  0.270000  0.270000
 ExpMin= 7.60D-02 ExpMax= 1.17D+05 ExpMxC= 1.13D+03 IAcc=3 IRadAn=         5 AccDes= 0.00D+00
 HarFok:  IExCor=  205 AccDes= 0.00D+00 IRadAn=         5 IDoV=-2 UseB2=F ITyADJ=14
 ICtDFT= 12500011 ScaDFX=  1.000000  1.000000  1.000000  1.000000
 Largest valence mixing into a core orbital is  1.23D-04
 Largest core mixing into a valence orbital is  1.55D-05
 Range of M.O.s used for correlation:     3   234
 NBasis=   234 NAE=     9 NBE=     9 NFC=     2 NFV=     0
 NROrb=    232 NOA=     7 NOB=     7 NVA=   225 NVB=   225

 **** Warning!!: The largest alpha MO coefficient is  0.24392701D+02

 Leave Link  801 at Wed Aug 26 12:28:59 2020, MaxMem=  2097152000 cpu:         0.6
 (Enter /opt/cluster/programs/g09/g09_d.01/g09/l906.exe)
 DoSCS=T DFT=T ScalE2(SS,OS)=  0.270000  0.270000
 FulOut=F Deriv=F AODrv=F NAtomX=     6
   MMem=        3646  MDisk=           7 MDiskD=           7
  W3Min=      447300 MinDsk=     1090093 NBas6D=         284
 NBas2D=       41310    NTT=       40470    LW2=     4508827
    MDV=  2096872590 MDiskM=       16391 NBas2p=       41304
 Fully in-core method, ICMem=  1722292712.
 IMap=   1   2   3   4   5   6   7
 JobTyp=1 Pass  1 fully in-core, NPsUse=  8.
 Compute canonical integrals.
 FoFCou: FMM=F IPFlag=           0 FMFlag=           0 FMFlg1=           0
         NFxFlg=           0 DoJE=F BraDBF=F KetDBF=F FulRan=T
         wScrn=  0.000000 ICntrl=     600 IOpCl=  1 I1Cent=           0 NGrid=           0
         NMat0=    1 NMatS0=  41310 NMatT0=    0 NMatD0=    1 NMtDS0=    0 NMtDT0=    0
 Symmetry not used in FoFCou.
 Spin components of T(2) and E(2):
     alpha-alpha T2 =       0.1934352404D-01 E2=     -0.1614167801D-01
     alpha-beta  T2 =       0.1271354401D+00 E2=     -0.1117655388D+00
     beta-beta   T2 =       0.1934352404D-01 E2=     -0.1614167801D-01
 The integrals were generated   1 times.
 E2(B2PLYPD3) =    -0.1440488948D+00 E(B2PLYPD3) =    -0.11550544104057D+03
 Leave Link  906 at Wed Aug 26 12:29:14 2020, MaxMem=  2097152000 cpu:       120.6
 (Enter /opt/cluster/programs/g09/g09_d.01/g09/l601.exe)
 Copying SCF densities to generalized density rwf, IOpCl= 0 IROHF=0.

 **********************************************************************

            Population analysis using the SCF density.

 **********************************************************************

 Orbital symmetries:
       Occupied  (A) (A) (A) (A) (A) (A) (A) (A) (A)
       Virtual   (A) (A) (A) (A) (A) (A) (A) (A) (A) (A) (A) (A)
                 (A) (A) (A) (A) (A) (A) (A) (A) (A) (A) (A) (A)
                 (A) (A) (A) (A) (A) (A) (A) (A) (A) (A) (A) (A)
                 (A) (A) (A) (A) (A) (A) (A) (A) (A) (A) (A) (A)
                 (A) (A) (A) (A) (A) (A) (A) (A) (A) (A) (A) (A)
                 (A) (A) (A) (A) (A) (A) (A) (A) (A) (A) (A) (A)
                 (A) (A) (A) (A) (A) (A) (A) (A) (A) (A) (A) (A)
                 (A) (A) (A) (A) (A) (A) (A) (A) (A) (A) (A) (A)
                 (A) (A) (A) (A) (A) (A) (A) (A) (A) (A) (A) (A)
                 (A) (A) (A) (A) (A) (A) (A) (A) (A) (A) (A) (A)
                 (A) (A) (A) (A) (A) (A) (A) (A) (A) (A) (A) (A)
                 (A) (A) (A) (A) (A) (A) (A) (A) (A) (A) (A) (A)
                 (A) (A) (A) (A) (A) (A) (A) (A) (A) (A) (A) (A)
                 (A) (A) (A) (A) (A) (A) (A) (A) (A) (A) (A) (A)
                 (A) (A) (A) (A) (A) (A) (A) (A) (A) (A) (A) (A)
                 (A) (A) (A) (A) (A) (A) (A) (A) (A) (A) (A) (A)
                 (A) (A) (A) (A) (A) (A) (A) (A) (A) (A) (A) (A)
                 (A) (A) (A) (A) (A) (A) (A) (A) (A) (A) (A) (A)
                 (A) (A) (A) (A) (A) (A) (A) (A) (A)
 The electronic state is 1-A.
 Alpha  occ. eigenvalues --  -19.69124 -10.68657  -1.24936  -0.81224  -0.61705
 Alpha  occ. eigenvalues --   -0.51725  -0.48694  -0.41297  -0.36545
 Alpha virt. eigenvalues --    0.05232   0.09201   0.11348   0.11869   0.14580
 Alpha virt. eigenvalues --    0.16662   0.17677   0.28677   0.30976   0.33063
 Alpha virt. eigenvalues --    0.35281   0.37066   0.40745   0.41040   0.42171
 Alpha virt. eigenvalues --    0.50952   0.53055   0.57209   0.60554   0.67630
 Alpha virt. eigenvalues --    0.68938   0.71084   0.72184   0.77574   0.79177
 Alpha virt. eigenvalues --    0.82082   0.86914   0.88169   0.92841   0.95725
 Alpha virt. eigenvalues --    1.02291   1.05596   1.06290   1.07634   1.09024
 Alpha virt. eigenvalues --    1.10710   1.21035   1.24347   1.33945   1.37319
 Alpha virt. eigenvalues --    1.39765   1.41679   1.44130   1.46359   1.49266
 Alpha virt. eigenvalues --    1.78279   1.80091   1.83490   1.89212   1.91581
 Alpha virt. eigenvalues --    1.92266   1.95497   1.97357   2.00921   2.01935
 Alpha virt. eigenvalues --    2.02771   2.12977   2.15617   2.19013   2.19787
 Alpha virt. eigenvalues --    2.23985   2.31041   2.32108   2.35476   2.42969
 Alpha virt. eigenvalues --    2.43991   2.46938   2.59221   2.61264   2.62534
 Alpha virt. eigenvalues --    2.64261   2.71131   2.72075   2.75004   2.80906
 Alpha virt. eigenvalues --    2.83451   2.84149   2.88871   2.93267   2.97307
 Alpha virt. eigenvalues --    3.02042   3.03742   3.08729   3.11942   3.17384
 Alpha virt. eigenvalues --    3.20512   3.26639   3.32884   3.36551   3.46504
 Alpha virt. eigenvalues --    3.47921   3.57223   3.72448   3.81359   3.85477
 Alpha virt. eigenvalues --    3.89843   3.97503   4.05917   4.09107   4.13992
 Alpha virt. eigenvalues --    4.15413   4.17696   4.29498   4.43406   4.45032
 Alpha virt. eigenvalues --    4.53204   4.70312   4.84934   5.08115   5.29465
 Alpha virt. eigenvalues --    5.37119   5.39999   5.46822   5.59796   5.66647
 Alpha virt. eigenvalues --    5.72213   5.79119   5.85807   5.88368   5.89593
 Alpha virt. eigenvalues --    5.93002   5.94636   5.97160   6.00009   6.03884
 Alpha virt. eigenvalues --    6.08844   6.14945   6.18907   6.23140   6.26483
 Alpha virt. eigenvalues --    6.28190   6.34140   6.43626   6.44777   6.52534
 Alpha virt. eigenvalues --    6.54830   6.58344   6.72729   6.73145   6.89696
 Alpha virt. eigenvalues --    6.91205   7.02509   7.06937   7.12136   7.15441
 Alpha virt. eigenvalues --    7.17987   7.30084   7.34054   7.36880   7.39737
 Alpha virt. eigenvalues --    7.43615   7.49745   7.56266   7.60176   7.66770
 Alpha virt. eigenvalues --    7.68394   7.72703   7.73920   7.76114   7.84166
 Alpha virt. eigenvalues --    7.86392   7.91149   8.04163   8.08478   8.11052
 Alpha virt. eigenvalues --    8.22619   8.26114   8.27505   8.35507   8.38150
 Alpha virt. eigenvalues --    8.43178   8.47143   8.48540   8.53112   8.54553
 Alpha virt. eigenvalues --    8.71910   8.78138   8.79386   8.83751   8.88945
 Alpha virt. eigenvalues --    8.91917   9.01928   9.15657   9.28941   9.34542
 Alpha virt. eigenvalues --    9.44824   9.49134   9.57854   9.66487   9.74844
 Alpha virt. eigenvalues --    9.77432   9.94613  10.00223  10.12325  10.30012
 Alpha virt. eigenvalues --   10.38803  10.41678  10.43576  10.65727  11.06321
 Alpha virt. eigenvalues --   11.08738  11.35178  11.46961  11.63970  11.75638
 Alpha virt. eigenvalues --   11.83925  11.96155  12.04628  12.26988  12.38247
 Alpha virt. eigenvalues --   12.58925  12.74559  13.37138  13.42780  13.52524
 Alpha virt. eigenvalues --   13.96263  14.14252  14.94585  16.33158  16.56632
 Alpha virt. eigenvalues --   18.10307  28.92510  49.16477 148.49311 255.04427
          Condensed to atoms (all electrons):
               1          2          3          4          5          6
     1  C    4.486518   0.256923   0.418737   0.416234   0.397386  -0.028731
     2  O    0.256923   7.611799  -0.046653  -0.045692  -0.040986   0.501027
     3  H    0.418737  -0.046653   0.634783  -0.043537  -0.030667  -0.001623
     4  H    0.416234  -0.045692  -0.043537   0.650000  -0.029902  -0.000400
     5  H    0.397386  -0.040986  -0.030667  -0.029902   0.624960   0.003868
     6  H   -0.028731   0.501027  -0.001623  -0.000400   0.003868   0.539970
 Mulliken charges:
               1
     1  C    0.052933
     2  O   -0.236420
     3  H    0.068959
     4  H    0.053297
     5  H    0.075341
     6  H   -0.014111
 Sum of Mulliken charges =   0.00000
 Mulliken charges with hydrogens summed into heavy atoms:
               1
     1  C    0.250530
     2  O   -0.250530
 Electronic spatial extent (au):  <R**2>=             85.6632
 Charge=              0.0000 electrons
 Dipole moment (field-independent basis, Debye):
    X=             -1.0833    Y=             -1.2359    Z=              0.3492  Tot=              1.6802
 Quadrupole moment (field-independent basis, Debye-Ang):
   XX=            -13.2713   YY=            -12.4124   ZZ=            -13.4322
   XY=             -1.7122   XZ=              0.3121   YZ=             -0.1998
 Traceless Quadrupole moment (field-independent basis, Debye-Ang):
   XX=             -0.2326   YY=              0.6262   ZZ=             -0.3935
   XY=             -1.7122   XZ=              0.3121   YZ=             -0.1998
 Octapole moment (field-independent basis, Debye-Ang**2):
  XXX=              5.4028  YYY=             -0.1352  ZZZ=              0.8082  XYY=              1.3101
  XXY=             -2.1356  XXZ=              0.4939  XZZ=              0.5439  YZZ=             -0.9553
  YYZ=             -0.2044  XYZ=             -0.1939
 Hexadecapole moment (field-independent basis, Debye-Ang**3):
 XXXX=            -64.2110 YYYY=            -21.2104 ZZZZ=            -20.3472 XXXY=             -2.8958
 XXXZ=              0.2548 YYYX=             -2.5812 YYYZ=             -0.4333 ZZZX=             -0.3663
 ZZZY=             -0.2256 XXYY=            -13.7140 XXZZ=            -14.4923 YYZZ=             -7.0609
 XXYZ=             -0.1871 YYXZ=              0.4925 ZZXY=              0.3066
 N-N= 4.131812307287D+01 E-N=-3.541803990963D+02  KE= 1.158802581499D+02
 Leave Link  601 at Wed Aug 26 12:29:15 2020, MaxMem=  2097152000 cpu:         0.3
 (Enter /opt/cluster/programs/g09/g09_d.01/g09/l9999.exe)
 1\1\GINC-NODE05\SP\RB2PLYPD3-FC\def2QZVP\C1H4O1\BOITTIER\26-Aug-2020\0
 \\#p B2PLYPD3/Def2QZVP\\methanol\\0,1\C,0,-5.199057,-1.266328,0.905112
 \O,0,-3.753043,-1.119263,0.845356\H,0,-5.463424,-2.235622,0.536995\H,0
 ,-5.742098,-0.404471,0.29718\H,0,-5.421934,-1.165704,2.098634\H,0,-3.5
 07589,-1.184177,0.230432\\Version=ES64L-G09RevD.01\State=1-A\HF=-115.3
 613921\MP2=-115.505441\RMSD=2.536e-09\PG=C01 [X(C1H4O1)]\\@


 THE 2ND LAW OF THERMODYNAMICS HAS THE SAME
 DEGREE OF TRUTH AS THE STATEMENT THAT IF YOU THROW
 A TUMBLERFULL OF WATER INTO THE SEA, YOU CANNOT GET
 THE SAME TUMBLERFULL OF WATER OUT AGAIN.
          - J.C. MAXWELL, LETTER TO LORD RAYLEIGH, DECEMBER 6,1870
 Job cpu time:       0 days  0 hours  3 minutes 15.9 seconds.
 File lengths (MBytes):  RWF=     23 Int=      0 D2E=      0 Chk=      4 Scr=      1
 Normal termination of Gaussian 09 at Wed Aug 26 12:29:15 2020.
