 Entering Gaussian System, Link 0=/opt/cluster/programs/g09/g09_d.01/g09//g09
 Input=/home/boittier/MDCM/nms_sampling/methanol_geom.xyz.dir/energies/methanol_3048_energy.com
 Output=/scratch/boittier/methanol_3048_energy/methanol_3048_energy.out
 Initial command:
 /opt/cluster/programs/g09/g09_d.01/g09/l1.exe "/scratch/boittier/methanol_3048_energy/Gau-233505.inp" -scrdir="/scratch/boittier/methanol_3048_energy/"
 Entering Link 1 = /opt/cluster/programs/g09/g09_d.01/g09/l1.exe PID=    233506.
  
 Copyright (c) 1988,1990,1992,1993,1995,1998,2003,2009,2013,
            Gaussian, Inc.  All Rights Reserved.
  
 This is part of the Gaussian(R) 09 program.  It is based on
 the Gaussian(R) 03 system (copyright 2003, Gaussian, Inc.),
 the Gaussian(R) 98 system (copyright 1998, Gaussian, Inc.),
 the Gaussian(R) 94 system (copyright 1995, Gaussian, Inc.),
 the Gaussian 92(TM) system (copyright 1992, Gaussian, Inc.),
 the Gaussian 90(TM) system (copyright 1990, Gaussian, Inc.),
 the Gaussian 88(TM) system (copyright 1988, Gaussian, Inc.),
 the Gaussian 86(TM) system (copyright 1986, Carnegie Mellon
 University), and the Gaussian 82(TM) system (copyright 1983,
 Carnegie Mellon University). Gaussian is a federally registered
 trademark of Gaussian, Inc.
  
 This software contains proprietary and confidential information,
 including trade secrets, belonging to Gaussian, Inc.
  
 This software is provided under written license and may be
 used, copied, transmitted, or stored only in accord with that
 written license.
  
 The following legend is applicable only to US Government
 contracts under FAR:
  
                    RESTRICTED RIGHTS LEGEND
  
 Use, reproduction and disclosure by the US Government is
 subject to restrictions as set forth in subparagraphs (a)
 and (c) of the Commercial Computer Software - Restricted
 Rights clause in FAR 52.227-19.
  
 Gaussian, Inc.
 340 Quinnipiac St., Bldg. 40, Wallingford CT 06492
  
  
 ---------------------------------------------------------------
 Warning -- This program may not be used in any manner that
 competes with the business of Gaussian, Inc. or will provide
 assistance to any competitor of Gaussian, Inc.  The licensee
 of this program is prohibited from giving any competitor of
 Gaussian, Inc. access to this program.  By using this program,
 the user acknowledges that Gaussian, Inc. is engaged in the
 business of creating and licensing software in the field of
 computational chemistry and represents and warrants to the
 licensee that it is not a competitor of Gaussian, Inc. and that
 it will not use this program in any manner prohibited above.
 ---------------------------------------------------------------
  

 Cite this work as:
 Gaussian 09, Revision D.01,
 M. J. Frisch, G. W. Trucks, H. B. Schlegel, G. E. Scuseria, 
 M. A. Robb, J. R. Cheeseman, G. Scalmani, V. Barone, B. Mennucci, 
 G. A. Petersson, H. Nakatsuji, M. Caricato, X. Li, H. P. Hratchian, 
 A. F. Izmaylov, J. Bloino, G. Zheng, J. L. Sonnenberg, M. Hada, 
 M. Ehara, K. Toyota, R. Fukuda, J. Hasegawa, M. Ishida, T. Nakajima, 
 Y. Honda, O. Kitao, H. Nakai, T. Vreven, J. A. Montgomery, Jr., 
 J. E. Peralta, F. Ogliaro, M. Bearpark, J. J. Heyd, E. Brothers, 
 K. N. Kudin, V. N. Staroverov, T. Keith, R. Kobayashi, J. Normand, 
 K. Raghavachari, A. Rendell, J. C. Burant, S. S. Iyengar, J. Tomasi, 
 M. Cossi, N. Rega, J. M. Millam, M. Klene, J. E. Knox, J. B. Cross, 
 V. Bakken, C. Adamo, J. Jaramillo, R. Gomperts, R. E. Stratmann, 
 O. Yazyev, A. J. Austin, R. Cammi, C. Pomelli, J. W. Ochterski, 
 R. L. Martin, K. Morokuma, V. G. Zakrzewski, G. A. Voth, 
 P. Salvador, J. J. Dannenberg, S. Dapprich, A. D. Daniels, 
 O. Farkas, J. B. Foresman, J. V. Ortiz, J. Cioslowski, 
 and D. J. Fox, Gaussian, Inc., Wallingford CT, 2013.
 
 ******************************************
 Gaussian 09:  ES64L-G09RevD.01 24-Apr-2013
                26-Aug-2020 
 ******************************************
 %chk=/home/boittier/MDCM/nms_sampling/methanol_geom.xyz.dir/methanol_3048.chk
 %nproc=8
 Will use up to    8 processors via shared memory.
 %mem=16000MB
 --------------------
 #p B2PLYPD3/Def2QZVP
 --------------------
 1/38=1/1;
 2/12=2,17=6,18=5,40=1/2;
 3/5=45,7=101,11=9,16=1,25=1,30=1,74=-60/1,2,3;
 4//1;
 5/5=2,38=5/2;
 8/10=1/1;
 9/16=-3/6;
 6/7=2,8=2,9=2,10=2/1;
 99/5=1,9=1/99;
 Leave Link    1 at Wed Aug 26 22:26:12 2020, MaxMem=  2097152000 cpu:         0.2
 (Enter /opt/cluster/programs/g09/g09_d.01/g09/l101.exe)
 --------
 methanol
 --------
 Symbolic Z-matrix:
 Charge =  0 Multiplicity = 1
 C                    -5.19511  -1.25124   0.93262 
 O                    -3.75725  -1.11437   0.88082 
 H                    -5.50662  -2.23226   0.50156 
 H                    -5.61145  -0.57398   0.4073 
 H                    -5.39238  -1.1826    1.75475 
 H                    -3.61628  -1.24235  -0.39815 
 
 NAtoms=      6 NQM=        6 NQMF=       0 NMMI=      0 NMMIF=      0
                NMic=       0 NMicF=      0.
                    Isotopes and Nuclear Properties:
 (Nuclear quadrupole moments (NQMom) in fm**2, nuclear magnetic moments (NMagM)
  in nuclear magnetons)

  Atom         1           2           3           4           5           6
 IAtWgt=          12          16           1           1           1           1
 AtmWgt=  12.0000000  15.9949146   1.0078250   1.0078250   1.0078250   1.0078250
 NucSpn=           0           0           1           1           1           1
 AtZEff=   0.0000000   0.0000000   0.0000000   0.0000000   0.0000000   0.0000000
 NQMom=    0.0000000   0.0000000   0.0000000   0.0000000   0.0000000   0.0000000
 NMagM=    0.0000000   0.0000000   2.7928460   2.7928460   2.7928460   2.7928460
 AtZNuc=   6.0000000   8.0000000   1.0000000   1.0000000   1.0000000   1.0000000
 Leave Link  101 at Wed Aug 26 22:26:12 2020, MaxMem=  2097152000 cpu:         0.5
 (Enter /opt/cluster/programs/g09/g09_d.01/g09/l202.exe)
                          Input orientation:                          
 ---------------------------------------------------------------------
 Center     Atomic      Atomic             Coordinates (Angstroms)
 Number     Number       Type             X           Y           Z
 ---------------------------------------------------------------------
      1          6           0       -5.195108   -1.251236    0.932624
      2          8           0       -3.757253   -1.114368    0.880822
      3          1           0       -5.506623   -2.232258    0.501557
      4          1           0       -5.611454   -0.573976    0.407295
      5          1           0       -5.392384   -1.182596    1.754753
      6          1           0       -3.616282   -1.242350   -0.398149
 ---------------------------------------------------------------------
                    Distance matrix (angstroms):
                    1          2          3          4          5
     1  C    0.000000
     2  O    1.445283   0.000000
     3  H    1.115914   2.110406   0.000000
     4  H    0.952888   1.988545   1.664264   0.000000
     5  H    0.848248   1.855280   1.638701   1.494675   0.000000
     6  H    2.064879   1.293066   2.315767   2.253037   2.791612
                    6
     6  H    0.000000
 Stoichiometry    CH4O
 Framework group  C1[X(CH4O)]
 Deg. of freedom    12
 Full point group                 C1      NOp   1
 Largest Abelian subgroup         C1      NOp   1
 Largest concise Abelian subgroup C1      NOp   1
                         Standard orientation:                         
 ---------------------------------------------------------------------
 Center     Atomic      Atomic             Coordinates (Angstroms)
 Number     Number       Type             X           Y           Z
 ---------------------------------------------------------------------
      1          6           0       -0.684748   -0.013494    0.016880
      2          8           0        0.752790   -0.157399   -0.023375
      3          1           0       -1.028899    0.666956   -0.797866
      4          1           0       -0.955057    0.382675    0.840275
      5          1           0       -0.986496   -0.801323   -0.071435
      6          1           0        1.056619    1.091853    0.114741
 ---------------------------------------------------------------------
 Rotational constants (GHZ):    122.4242738     25.1495353     23.5485442
 Leave Link  202 at Wed Aug 26 22:26:13 2020, MaxMem=  2097152000 cpu:         0.1
 (Enter /opt/cluster/programs/g09/g09_d.01/g09/l301.exe)
 Standard basis: def2QZVP (5D, 7F)
 Ernie: Thresh=  0.10000D-02 Tol=  0.10000D-05 Strict=F.
 There are   284 symmetry adapted cartesian basis functions of A   symmetry.
 There are   234 symmetry adapted basis functions of A   symmetry.
   234 basis functions,   336 primitive gaussians,   284 cartesian basis functions
     9 alpha electrons        9 beta electrons
       nuclear repulsion energy        40.3713022898 Hartrees.
 IExCor=  419 DFT=T Ex+Corr=B2PLYPD3 ExCW=0 ScaHFX=  0.530000
 ScaDFX=  0.470000  0.470000  0.730000  0.730000 ScalE2=  0.270000  0.270000
 IRadAn=      0 IRanWt=     -1 IRanGd=            0 ICorTp=0 IEmpDi=141
 NAtoms=    6 NActive=    6 NUniq=    6 SFac= 1.00D+00 NAtFMM=   60 NAOKFM=F Big=F
 Integral buffers will be    131072 words long.
 Regular integral format.
 Two-electron integral symmetry is turned on.
 R6Disp:  Grimme-D3(BJ) Dispersion energy=       -0.0014546507 Hartrees.
 Nuclear repulsion after empirical dispersion term =       40.3698476392 Hartrees.
 Leave Link  301 at Wed Aug 26 22:26:13 2020, MaxMem=  2097152000 cpu:         0.4
 (Enter /opt/cluster/programs/g09/g09_d.01/g09/l302.exe)
 NPDir=0 NMtPBC=     1 NCelOv=     1 NCel=       1 NClECP=     1 NCelD=      1
         NCelK=      1 NCelE2=     1 NClLst=     1 CellRange=     0.0.
 One-electron integrals computed using PRISM.
   1 Symmetry operations used in ECPInt.
 ECPInt:  NShTT=    2775 NPrTT=    6207 LenC2=    2773 LenP2D=    5741.
 LDataN:  DoStor=T MaxTD1= 8 Len=  415
 NBasis=   234 RedAO= T EigKep=  5.20D-05  NBF=   234
 NBsUse=   234 1.00D-06 EigRej= -1.00D+00 NBFU=   234
 Precomputing XC quadrature grid using
 IXCGrd= 4 IRadAn=           0 IRanWt=          -1 IRanGd=           0 AccXCQ= 0.00D+00.
 Generated NRdTot=       0 NPtTot=           0 NUsed=           0 NTot=          32
 NSgBfM=   284   284   284   284   284 MxSgAt=     6 MxSgA2=     6.
 Leave Link  302 at Wed Aug 26 22:26:13 2020, MaxMem=  2097152000 cpu:         2.0
 (Enter /opt/cluster/programs/g09/g09_d.01/g09/l303.exe)
 DipDrv:  MaxL=1.
 Leave Link  303 at Wed Aug 26 22:26:13 2020, MaxMem=  2097152000 cpu:         0.2
 (Enter /opt/cluster/programs/g09/g09_d.01/g09/l401.exe)
 ExpMin= 7.60D-02 ExpMax= 1.17D+05 ExpMxC= 1.13D+03 IAcc=2 IRadAn=         4 AccDes= 0.00D+00
 Harris functional with IExCor=  419 and IRadAn=       4 diagonalized for initial guess.
 HarFok:  IExCor=  419 AccDes= 0.00D+00 IRadAn=         4 IDoV= 1 UseB2=F ITyADJ=14
 ICtDFT=  3500011 ScaDFX=  1.000000  1.000000  1.000000  1.000000
 FoFCou: FMM=F IPFlag=           0 FMFlag=      100000 FMFlg1=           0
         NFxFlg=           0 DoJE=T BraDBF=F KetDBF=T FulRan=T
         wScrn=  0.000000 ICntrl=     500 IOpCl=  0 I1Cent=   200000004 NGrid=           0
         NMat0=    1 NMatS0=      1 NMatT0=    0 NMatD0=    1 NMtDS0=    0 NMtDT0=    0
 Petite list used in FoFCou.
 Harris En= -115.741398304435    
 JPrj=0 DoOrth=F DoCkMO=F.
 Leave Link  401 at Wed Aug 26 22:26:13 2020, MaxMem=  2097152000 cpu:         3.3
 (Enter /opt/cluster/programs/g09/g09_d.01/g09/l502.exe)
 Closed shell SCF:
 Using DIIS extrapolation, IDIIS=  1040.
 Integral symmetry usage will be decided dynamically.
 Keep R1 ints in memory in canonical form, NReq=389840494.
 IVT=      264814 IEndB=      264814 NGot=  2097152000 MDV=  1718885927
 LenX=  1718885927 LenY=  1718804830
 Requested convergence on RMS density matrix=1.00D-08 within 128 cycles.
 Requested convergence on MAX density matrix=1.00D-06.
 Requested convergence on             energy=1.00D-06.
 No special actions if energy rises.
 FoFCou: FMM=F IPFlag=           0 FMFlag=           0 FMFlg1=           0
         NFxFlg=           0 DoJE=F BraDBF=F KetDBF=F FulRan=T
         wScrn=  0.000000 ICntrl=     600 IOpCl=  0 I1Cent=           0 NGrid=           0
         NMat0=    1 NMatS0=  27495 NMatT0=    0 NMatD0=    1 NMtDS0=    0 NMtDT0=    0
 Symmetry not used in FoFCou.
 Integral accuracy reduced to 1.0D-05 until final iterations.

 Cycle   1  Pass 0  IDiag  1:
 E= -115.271577176154    
 DIIS: error= 3.57D-02 at cycle   1 NSaved=   1.
 NSaved= 1 IEnMin= 1 EnMin= -115.271577176154     IErMin= 1 ErrMin= 3.57D-02
 ErrMax= 3.57D-02  0.00D+00 EMaxC= 1.00D-01 BMatC= 2.15D-01 BMatP= 2.15D-01
 IDIUse=3 WtCom= 6.43D-01 WtEn= 3.57D-01
 Coeff-Com:  0.100D+01
 Coeff-En:   0.100D+01
 Coeff:      0.100D+01
 Gap=     0.246 Goal=   None    Shift=    0.000
 GapD=    0.246 DampG=1.000 DampE=0.500 DampFc=0.5000 IDamp=-1.
 Damping current iteration by 5.00D-01
 RMSDP=1.59D-03 MaxDP=5.51D-02              OVMax= 1.94D-01

 Cycle   2  Pass 0  IDiag  1:
 E= -115.342228010311     Delta-E=       -0.070650834156 Rises=F Damp=T
 DIIS: error= 1.06D-02 at cycle   2 NSaved=   2.
 NSaved= 2 IEnMin= 2 EnMin= -115.342228010311     IErMin= 2 ErrMin= 1.06D-02
 ErrMax= 1.06D-02  0.00D+00 EMaxC= 1.00D-01 BMatC= 2.33D-02 BMatP= 2.15D-01
 IDIUse=3 WtCom= 8.94D-01 WtEn= 1.06D-01
 Coeff-Com: -0.106D+00 0.111D+01
 Coeff-En:   0.000D+00 0.100D+01
 Coeff:     -0.944D-01 0.109D+01
 Gap=     0.374 Goal=   None    Shift=    0.000
 RMSDP=4.38D-04 MaxDP=1.40D-02 DE=-7.07D-02 OVMax= 1.31D-01

 Cycle   3  Pass 0  IDiag  1:
 E= -115.408878749164     Delta-E=       -0.066650738854 Rises=F Damp=F
 DIIS: error= 5.76D-03 at cycle   3 NSaved=   3.
 NSaved= 3 IEnMin= 3 EnMin= -115.408878749164     IErMin= 3 ErrMin= 5.76D-03
 ErrMax= 5.76D-03  0.00D+00 EMaxC= 1.00D-01 BMatC= 1.28D-02 BMatP= 2.33D-02
 IDIUse=3 WtCom= 9.42D-01 WtEn= 5.76D-02
 Coeff-Com: -0.140D+00 0.502D+00 0.638D+00
 Coeff-En:   0.000D+00 0.000D+00 0.100D+01
 Coeff:     -0.132D+00 0.473D+00 0.659D+00
 Gap=     0.357 Goal=   None    Shift=    0.000
 RMSDP=2.25D-04 MaxDP=9.48D-03 DE=-6.67D-02 OVMax= 3.74D-02

 Cycle   4  Pass 0  IDiag  1:
 E= -115.416806222212     Delta-E=       -0.007927473048 Rises=F Damp=F
 DIIS: error= 2.50D-03 at cycle   4 NSaved=   4.
 NSaved= 4 IEnMin= 4 EnMin= -115.416806222212     IErMin= 4 ErrMin= 2.50D-03
 ErrMax= 2.50D-03  0.00D+00 EMaxC= 1.00D-01 BMatC= 1.54D-03 BMatP= 1.28D-02
 IDIUse=3 WtCom= 9.75D-01 WtEn= 2.50D-02
 Coeff-Com: -0.449D-01 0.793D-01 0.300D+00 0.665D+00
 Coeff-En:   0.000D+00 0.000D+00 0.406D-01 0.959D+00
 Coeff:     -0.438D-01 0.773D-01 0.294D+00 0.673D+00
 Gap=     0.355 Goal=   None    Shift=    0.000
 RMSDP=6.40D-05 MaxDP=2.49D-03 DE=-7.93D-03 OVMax= 1.05D-02

 Cycle   5  Pass 0  IDiag  1:
 E= -115.417918640464     Delta-E=       -0.001112418252 Rises=F Damp=F
 DIIS: error= 2.47D-04 at cycle   5 NSaved=   5.
 NSaved= 5 IEnMin= 5 EnMin= -115.417918640464     IErMin= 5 ErrMin= 2.47D-04
 ErrMax= 2.47D-04  0.00D+00 EMaxC= 1.00D-01 BMatC= 1.07D-05 BMatP= 1.54D-03
 IDIUse=3 WtCom= 9.98D-01 WtEn= 2.47D-03
 Coeff-Com: -0.363D-02-0.365D-03 0.362D-01 0.131D+00 0.837D+00
 Coeff-En:   0.000D+00 0.000D+00 0.000D+00 0.000D+00 0.100D+01
 Coeff:     -0.362D-02-0.364D-03 0.361D-01 0.131D+00 0.837D+00
 Gap=     0.356 Goal=   None    Shift=    0.000
 RMSDP=9.73D-06 MaxDP=3.53D-04 DE=-1.11D-03 OVMax= 9.68D-04

 Initial convergence to 1.0D-05 achieved.  Increase integral accuracy.
 Cycle   6  Pass 1  IDiag  1:
 E= -115.417928514188     Delta-E=       -0.000009873723 Rises=F Damp=F
 DIIS: error= 3.58D-05 at cycle   1 NSaved=   1.
 NSaved= 1 IEnMin= 1 EnMin= -115.417928514188     IErMin= 1 ErrMin= 3.58D-05
 ErrMax= 3.58D-05  0.00D+00 EMaxC= 1.00D-01 BMatC= 3.61D-07 BMatP= 3.61D-07
 IDIUse=1 WtCom= 1.00D+00 WtEn= 0.00D+00
 Coeff-Com:  0.100D+01
 Coeff:      0.100D+01
 Gap=     0.356 Goal=   None    Shift=    0.000
 RMSDP=9.73D-06 MaxDP=3.53D-04 DE=-9.87D-06 OVMax= 3.42D-04

 Cycle   7  Pass 1  IDiag  1:
 E= -115.417929097937     Delta-E=       -0.000000583749 Rises=F Damp=F
 DIIS: error= 2.07D-05 at cycle   2 NSaved=   2.
 NSaved= 2 IEnMin= 2 EnMin= -115.417929097937     IErMin= 2 ErrMin= 2.07D-05
 ErrMax= 2.07D-05  0.00D+00 EMaxC= 1.00D-01 BMatC= 1.33D-07 BMatP= 3.61D-07
 IDIUse=1 WtCom= 1.00D+00 WtEn= 0.00D+00
 Coeff-Com:  0.295D+00 0.705D+00
 Coeff:      0.295D+00 0.705D+00
 Gap=     0.356 Goal=   None    Shift=    0.000
 RMSDP=1.11D-06 MaxDP=5.55D-05 DE=-5.84D-07 OVMax= 2.31D-04

 Cycle   8  Pass 1  IDiag  1:
 E= -115.417929191416     Delta-E=       -0.000000093479 Rises=F Damp=F
 DIIS: error= 1.49D-05 at cycle   3 NSaved=   3.
 NSaved= 3 IEnMin= 3 EnMin= -115.417929191416     IErMin= 3 ErrMin= 1.49D-05
 ErrMax= 1.49D-05  0.00D+00 EMaxC= 1.00D-01 BMatC= 6.67D-08 BMatP= 1.33D-07
 IDIUse=1 WtCom= 1.00D+00 WtEn= 0.00D+00
 Coeff-Com: -0.161D+00 0.405D+00 0.757D+00
 Coeff:     -0.161D+00 0.405D+00 0.757D+00
 Gap=     0.356 Goal=   None    Shift=    0.000
 RMSDP=7.05D-07 MaxDP=3.05D-05 DE=-9.35D-08 OVMax= 9.33D-05

 Cycle   9  Pass 1  IDiag  1:
 E= -115.417929248800     Delta-E=       -0.000000057384 Rises=F Damp=F
 DIIS: error= 2.73D-06 at cycle   4 NSaved=   4.
 NSaved= 4 IEnMin= 4 EnMin= -115.417929248800     IErMin= 4 ErrMin= 2.73D-06
 ErrMax= 2.73D-06  0.00D+00 EMaxC= 1.00D-01 BMatC= 9.24D-10 BMatP= 6.67D-08
 IDIUse=1 WtCom= 1.00D+00 WtEn= 0.00D+00
 Coeff-Com: -0.605D-01 0.582D-01 0.164D+00 0.838D+00
 Coeff:     -0.605D-01 0.582D-01 0.164D+00 0.838D+00
 Gap=     0.356 Goal=   None    Shift=    0.000
 RMSDP=1.28D-07 MaxDP=3.30D-06 DE=-5.74D-08 OVMax= 1.90D-05

 Cycle  10  Pass 1  IDiag  1:
 E= -115.417929249977     Delta-E=       -0.000000001176 Rises=F Damp=F
 DIIS: error= 7.60D-07 at cycle   5 NSaved=   5.
 NSaved= 5 IEnMin= 5 EnMin= -115.417929249977     IErMin= 5 ErrMin= 7.60D-07
 ErrMax= 7.60D-07  0.00D+00 EMaxC= 1.00D-01 BMatC= 7.79D-11 BMatP= 9.24D-10
 IDIUse=1 WtCom= 1.00D+00 WtEn= 0.00D+00
 Coeff-Com: -0.888D-02-0.173D-03 0.662D-02 0.236D+00 0.766D+00
 Coeff:     -0.888D-02-0.173D-03 0.662D-02 0.236D+00 0.766D+00
 Gap=     0.356 Goal=   None    Shift=    0.000
 RMSDP=2.75D-08 MaxDP=7.80D-07 DE=-1.18D-09 OVMax= 3.84D-06

 Cycle  11  Pass 1  IDiag  1:
 E= -115.417929250053     Delta-E=       -0.000000000077 Rises=F Damp=F
 DIIS: error= 2.45D-07 at cycle   6 NSaved=   6.
 NSaved= 6 IEnMin= 6 EnMin= -115.417929250053     IErMin= 6 ErrMin= 2.45D-07
 ErrMax= 2.45D-07  0.00D+00 EMaxC= 1.00D-01 BMatC= 5.02D-12 BMatP= 7.79D-11
 IDIUse=1 WtCom= 1.00D+00 WtEn= 0.00D+00
 Coeff-Com:  0.414D-02-0.579D-02-0.176D-01-0.287D-01 0.147D+00 0.901D+00
 Coeff:      0.414D-02-0.579D-02-0.176D-01-0.287D-01 0.147D+00 0.901D+00
 Gap=     0.356 Goal=   None    Shift=    0.000
 RMSDP=1.01D-08 MaxDP=2.38D-07 DE=-7.67D-11 OVMax= 1.16D-06

 Cycle  12  Pass 1  IDiag  1:
 E= -115.417929250060     Delta-E=       -0.000000000007 Rises=F Damp=F
 DIIS: error= 2.50D-08 at cycle   7 NSaved=   7.
 NSaved= 7 IEnMin= 7 EnMin= -115.417929250060     IErMin= 7 ErrMin= 2.50D-08
 ErrMax= 2.50D-08  0.00D+00 EMaxC= 1.00D-01 BMatC= 1.12D-13 BMatP= 5.02D-12
 IDIUse=1 WtCom= 1.00D+00 WtEn= 0.00D+00
 Coeff-Com: -0.312D-03 0.962D-03 0.258D-02-0.248D-02-0.566D-01-0.205D+00
 Coeff-Com:  0.126D+01
 Coeff:     -0.312D-03 0.962D-03 0.258D-02-0.248D-02-0.566D-01-0.205D+00
 Coeff:      0.126D+01
 Gap=     0.356 Goal=   None    Shift=    0.000
 RMSDP=3.02D-09 MaxDP=7.50D-08 DE=-6.76D-12 OVMax= 4.05D-07

 SCF Done:  E(RB2PLYPD3) =  -115.417929250     A.U. after   12 cycles
            NFock= 12  Conv=0.30D-08     -V/T= 1.9991
 KE= 1.155170747594D+02 PE=-3.524608005621D+02 EE= 8.115594891344D+01
 Leave Link  502 at Wed Aug 26 22:26:28 2020, MaxMem=  2097152000 cpu:        65.0
 (Enter /opt/cluster/programs/g09/g09_d.01/g09/l801.exe)
 DoSCS=T DFT=T ScalE2(SS,OS)=  0.270000  0.270000
 ExpMin= 7.60D-02 ExpMax= 1.17D+05 ExpMxC= 1.13D+03 IAcc=3 IRadAn=         5 AccDes= 0.00D+00
 HarFok:  IExCor=  205 AccDes= 0.00D+00 IRadAn=         5 IDoV=-2 UseB2=F ITyADJ=14
 ICtDFT= 12500011 ScaDFX=  1.000000  1.000000  1.000000  1.000000
 Largest valence mixing into a core orbital is  9.69D-05
 Largest core mixing into a valence orbital is  1.25D-05
 Range of M.O.s used for correlation:     3   234
 NBasis=   234 NAE=     9 NBE=     9 NFC=     2 NFV=     0
 NROrb=    232 NOA=     7 NOB=     7 NVA=   225 NVB=   225

 **** Warning!!: The largest alpha MO coefficient is  0.32178084D+02

 Leave Link  801 at Wed Aug 26 22:26:28 2020, MaxMem=  2097152000 cpu:         0.5
 (Enter /opt/cluster/programs/g09/g09_d.01/g09/l906.exe)
 DoSCS=T DFT=T ScalE2(SS,OS)=  0.270000  0.270000
 FulOut=F Deriv=F AODrv=F NAtomX=     6
   MMem=        3646  MDisk=           7 MDiskD=           7
  W3Min=      447300 MinDsk=     1090093 NBas6D=         284
 NBas2D=       41310    NTT=       40470    LW2=     4508827
    MDV=  2096872240 MDiskM=       16391 NBas2p=       41304
 Fully in-core method, ICMem=  1722292712.
 IMap=   1   2   3   4   5   6   7
 JobTyp=1 Pass  1 fully in-core, NPsUse=  8.
 Compute canonical integrals.
 FoFCou: FMM=F IPFlag=           0 FMFlag=           0 FMFlg1=           0
         NFxFlg=           0 DoJE=F BraDBF=F KetDBF=F FulRan=T
         wScrn=  0.000000 ICntrl=     600 IOpCl=  1 I1Cent=           0 NGrid=           0
         NMat0=    1 NMatS0=  41310 NMatT0=    0 NMatD0=    1 NMtDS0=    0 NMtDT0=    0
 Symmetry not used in FoFCou.
 Spin components of T(2) and E(2):
     alpha-alpha T2 =       0.2346810826D-01 E2=     -0.1746805187D-01
     alpha-beta  T2 =       0.1514563402D+00 E2=     -0.1188916926D+00
     beta-beta   T2 =       0.2346810826D-01 E2=     -0.1746805187D-01
 The integrals were generated   1 times.
 E2(B2PLYPD3) =    -0.1538277964D+00 E(B2PLYPD3) =    -0.11557175704643D+03
 Leave Link  906 at Wed Aug 26 22:26:42 2020, MaxMem=  2097152000 cpu:       117.0
 (Enter /opt/cluster/programs/g09/g09_d.01/g09/l601.exe)
 Copying SCF densities to generalized density rwf, IOpCl= 0 IROHF=0.

 **********************************************************************

            Population analysis using the SCF density.

 **********************************************************************

 Orbital symmetries:
       Occupied  (A) (A) (A) (A) (A) (A) (A) (A) (A)
       Virtual   (A) (A) (A) (A) (A) (A) (A) (A) (A) (A) (A) (A)
                 (A) (A) (A) (A) (A) (A) (A) (A) (A) (A) (A) (A)
                 (A) (A) (A) (A) (A) (A) (A) (A) (A) (A) (A) (A)
                 (A) (A) (A) (A) (A) (A) (A) (A) (A) (A) (A) (A)
                 (A) (A) (A) (A) (A) (A) (A) (A) (A) (A) (A) (A)
                 (A) (A) (A) (A) (A) (A) (A) (A) (A) (A) (A) (A)
                 (A) (A) (A) (A) (A) (A) (A) (A) (A) (A) (A) (A)
                 (A) (A) (A) (A) (A) (A) (A) (A) (A) (A) (A) (A)
                 (A) (A) (A) (A) (A) (A) (A) (A) (A) (A) (A) (A)
                 (A) (A) (A) (A) (A) (A) (A) (A) (A) (A) (A) (A)
                 (A) (A) (A) (A) (A) (A) (A) (A) (A) (A) (A) (A)
                 (A) (A) (A) (A) (A) (A) (A) (A) (A) (A) (A) (A)
                 (A) (A) (A) (A) (A) (A) (A) (A) (A) (A) (A) (A)
                 (A) (A) (A) (A) (A) (A) (A) (A) (A) (A) (A) (A)
                 (A) (A) (A) (A) (A) (A) (A) (A) (A) (A) (A) (A)
                 (A) (A) (A) (A) (A) (A) (A) (A) (A) (A) (A) (A)
                 (A) (A) (A) (A) (A) (A) (A) (A) (A) (A) (A) (A)
                 (A) (A) (A) (A) (A) (A) (A) (A) (A) (A) (A) (A)
                 (A) (A) (A) (A) (A) (A) (A) (A) (A)
 The electronic state is 1-A.
 Alpha  occ. eigenvalues --  -19.74586 -10.61500  -1.11671  -0.81247  -0.58038
 Alpha  occ. eigenvalues --   -0.51870  -0.48641  -0.41387  -0.34873
 Alpha virt. eigenvalues --    0.00755   0.07718   0.12458   0.12836   0.14551
 Alpha virt. eigenvalues --    0.17411   0.18087   0.24392   0.29550   0.32942
 Alpha virt. eigenvalues --    0.33223   0.37422   0.41286   0.42086   0.45317
 Alpha virt. eigenvalues --    0.51186   0.52823   0.54704   0.59075   0.65041
 Alpha virt. eigenvalues --    0.70671   0.73678   0.76212   0.77298   0.79871
 Alpha virt. eigenvalues --    0.82529   0.85333   0.89534   0.91692   0.92676
 Alpha virt. eigenvalues --    1.01556   1.02151   1.03582   1.06641   1.10253
 Alpha virt. eigenvalues --    1.11489   1.19486   1.21313   1.34386   1.38802
 Alpha virt. eigenvalues --    1.43199   1.47803   1.48188   1.54136   1.57291
 Alpha virt. eigenvalues --    1.76983   1.77293   1.81859   1.83734   1.86160
 Alpha virt. eigenvalues --    1.88122   1.92003   1.94128   1.97412   2.03340
 Alpha virt. eigenvalues --    2.07295   2.12720   2.14110   2.14916   2.20940
 Alpha virt. eigenvalues --    2.23459   2.26346   2.29848   2.31923   2.38192
 Alpha virt. eigenvalues --    2.45378   2.51011   2.53373   2.55186   2.58939
 Alpha virt. eigenvalues --    2.65299   2.67313   2.72655   2.74233   2.76947
 Alpha virt. eigenvalues --    2.81102   2.85468   2.89994   2.93041   3.01193
 Alpha virt. eigenvalues --    3.01683   3.14636   3.16542   3.21300   3.23101
 Alpha virt. eigenvalues --    3.35252   3.36338   3.41425   3.56737   3.60856
 Alpha virt. eigenvalues --    3.67285   3.77366   3.82354   3.87002   3.88736
 Alpha virt. eigenvalues --    4.01369   4.04769   4.06960   4.07825   4.15301
 Alpha virt. eigenvalues --    4.19605   4.30694   4.32334   4.38943   4.43324
 Alpha virt. eigenvalues --    4.51370   4.53718   4.61589   4.79557   5.08398
 Alpha virt. eigenvalues --    5.18825   5.29050   5.38241   5.50820   5.62061
 Alpha virt. eigenvalues --    5.67636   5.70942   5.73458   5.82069   5.86345
 Alpha virt. eigenvalues --    5.91230   5.92519   6.02027   6.03359   6.08609
 Alpha virt. eigenvalues --    6.15258   6.15677   6.20468   6.24262   6.26331
 Alpha virt. eigenvalues --    6.34301   6.39137   6.42361   6.48271   6.52585
 Alpha virt. eigenvalues --    6.53621   6.58091   6.69895   6.72656   6.77721
 Alpha virt. eigenvalues --    6.81793   6.88945   6.96480   7.04179   7.07212
 Alpha virt. eigenvalues --    7.12371   7.25614   7.33110   7.39253   7.51325
 Alpha virt. eigenvalues --    7.59865   7.61428   7.65062   7.69917   7.71757
 Alpha virt. eigenvalues --    7.73377   7.83059   7.86443   7.89477   7.99440
 Alpha virt. eigenvalues --    7.99938   8.10299   8.19292   8.21930   8.22280
 Alpha virt. eigenvalues --    8.31349   8.38702   8.40243   8.46706   8.49198
 Alpha virt. eigenvalues --    8.50453   8.55710   8.60568   8.61017   8.66014
 Alpha virt. eigenvalues --    8.72368   8.79217   8.81530   8.87798   9.00617
 Alpha virt. eigenvalues --    9.04420   9.17506   9.27229   9.36873   9.41745
 Alpha virt. eigenvalues --    9.53953   9.59847   9.71461   9.75782   9.89024
 Alpha virt. eigenvalues --    9.97468  10.04246  10.13082  10.18681  10.27294
 Alpha virt. eigenvalues --   10.29296  10.39261  10.58831  10.69950  10.71570
 Alpha virt. eigenvalues --   10.87669  10.97179  11.02012  11.46601  11.59778
 Alpha virt. eigenvalues --   11.67908  11.77236  11.82646  11.92458  12.14668
 Alpha virt. eigenvalues --   12.24107  12.30206  12.39567  12.49592  12.65654
 Alpha virt. eigenvalues --   12.71107  12.77715  13.09749  13.24554  13.79375
 Alpha virt. eigenvalues --   14.51879  29.67482  48.50817 149.41937 254.23439
          Condensed to atoms (all electrons):
               1          2          3          4          5          6
     1  C    4.459295   0.236804   0.447591   0.444711   0.422841  -0.049946
     2  O    0.236804   8.083930  -0.048622  -0.034832  -0.020992   0.281052
     3  H    0.447591  -0.048622   0.669249  -0.064203  -0.031740  -0.011195
     4  H    0.444711  -0.034832  -0.064203   0.660664  -0.043351  -0.010557
     5  H    0.422841  -0.020992  -0.031740  -0.043351   0.530068   0.014059
     6  H   -0.049946   0.281052  -0.011195  -0.010557   0.014059   0.533554
 Mulliken charges:
               1
     1  C    0.038703
     2  O   -0.497340
     3  H    0.038920
     4  H    0.047567
     5  H    0.129116
     6  H    0.243034
 Sum of Mulliken charges =   0.00000
 Mulliken charges with hydrogens summed into heavy atoms:
               1
     1  C    0.254306
     2  O   -0.254306
 Electronic spatial extent (au):  <R**2>=             83.7146
 Charge=              0.0000 electrons
 Dipole moment (field-independent basis, Debye):
    X=             -1.2855    Y=              1.6246    Z=              0.3123  Tot=              2.0951
 Quadrupole moment (field-independent basis, Debye-Ang):
   XX=            -13.6497   YY=            -11.1849   ZZ=            -13.7998
   XY=              2.2687   XZ=              0.1137   YZ=              0.2646
 Traceless Quadrupole moment (field-independent basis, Debye-Ang):
   XX=             -0.7716   YY=              1.6932   ZZ=             -0.9217
   XY=              2.2687   XZ=              0.1137   YZ=              0.2646
 Octapole moment (field-independent basis, Debye-Ang**2):
  XXX=              1.1509  YYY=              1.3092  ZZZ=              0.5042  XYY=              2.0694
  XXY=              1.8743  XXZ=              0.4690  XZZ=             -0.3038  YZZ=              0.2029
  YYZ=              0.2058  XYZ=              0.2756
 Hexadecapole moment (field-independent basis, Debye-Ang**3):
 XXXX=            -63.4107 YYYY=            -19.3201 ZZZZ=            -18.9716 XXXY=              3.2277
 XXXZ=             -0.3683 YYYX=              3.6853 YYYZ=              0.6177 ZZZX=             -0.4987
 ZZZY=              0.2860 XXYY=            -12.2357 XXZZ=            -14.4133 YYZZ=             -6.7642
 XXYZ=              0.3593 YYXZ=              0.2774 ZZXY=             -0.0533
 N-N= 4.036984763916D+01 E-N=-3.524608001977D+02  KE= 1.155170747594D+02
 Leave Link  601 at Wed Aug 26 22:26:44 2020, MaxMem=  2097152000 cpu:         0.3
 (Enter /opt/cluster/programs/g09/g09_d.01/g09/l9999.exe)
 1\1\GINC-NODE34\SP\RB2PLYPD3-FC\def2QZVP\C1H4O1\BOITTIER\26-Aug-2020\0
 \\#p B2PLYPD3/Def2QZVP\\methanol\\0,1\C,0,-5.195108,-1.251236,0.932624
 \O,0,-3.757253,-1.114368,0.880822\H,0,-5.506623,-2.232258,0.501557\H,0
 ,-5.611454,-0.573976,0.407295\H,0,-5.392384,-1.182596,1.754753\H,0,-3.
 616282,-1.24235,-0.398149\\Version=ES64L-G09RevD.01\State=1-A\HF=-115.
 4179293\MP2=-115.571757\RMSD=3.020e-09\PG=C01 [X(C1H4O1)]\\@


 REFRAIN FROM ILLUSIONS, INSIST ON WORK AND NOT WORDS,
 PATIENTLY SEEK DIVINE AND SCIENTIFIC TRUTH.
 LAST WORDS OF MARIA MENDELEEVA TO HER SON DMITRI, C. 1850
 Job cpu time:       0 days  0 hours  3 minutes 10.2 seconds.
 File lengths (MBytes):  RWF=     23 Int=      0 D2E=      0 Chk=      4 Scr=      1
 Normal termination of Gaussian 09 at Wed Aug 26 22:26:45 2020.
