 Entering Gaussian System, Link 0=/opt/cluster/programs/g09/g09_d.01/g09//g09
 Input=/home/boittier/MDCM/nms_sampling/methanol_geom.xyz.dir/energies/methanol_2907_energy.com
 Output=/scratch/boittier/methanol_2907_energy/methanol_2907_energy.out
 Initial command:
 /opt/cluster/programs/g09/g09_d.01/g09/l1.exe "/scratch/boittier/methanol_2907_energy/Gau-88045.inp" -scrdir="/scratch/boittier/methanol_2907_energy/"
 Entering Link 1 = /opt/cluster/programs/g09/g09_d.01/g09/l1.exe PID=     88046.
  
 Copyright (c) 1988,1990,1992,1993,1995,1998,2003,2009,2013,
            Gaussian, Inc.  All Rights Reserved.
  
 This is part of the Gaussian(R) 09 program.  It is based on
 the Gaussian(R) 03 system (copyright 2003, Gaussian, Inc.),
 the Gaussian(R) 98 system (copyright 1998, Gaussian, Inc.),
 the Gaussian(R) 94 system (copyright 1995, Gaussian, Inc.),
 the Gaussian 92(TM) system (copyright 1992, Gaussian, Inc.),
 the Gaussian 90(TM) system (copyright 1990, Gaussian, Inc.),
 the Gaussian 88(TM) system (copyright 1988, Gaussian, Inc.),
 the Gaussian 86(TM) system (copyright 1986, Carnegie Mellon
 University), and the Gaussian 82(TM) system (copyright 1983,
 Carnegie Mellon University). Gaussian is a federally registered
 trademark of Gaussian, Inc.
  
 This software contains proprietary and confidential information,
 including trade secrets, belonging to Gaussian, Inc.
  
 This software is provided under written license and may be
 used, copied, transmitted, or stored only in accord with that
 written license.
  
 The following legend is applicable only to US Government
 contracts under FAR:
  
                    RESTRICTED RIGHTS LEGEND
  
 Use, reproduction and disclosure by the US Government is
 subject to restrictions as set forth in subparagraphs (a)
 and (c) of the Commercial Computer Software - Restricted
 Rights clause in FAR 52.227-19.
  
 Gaussian, Inc.
 340 Quinnipiac St., Bldg. 40, Wallingford CT 06492
  
  
 ---------------------------------------------------------------
 Warning -- This program may not be used in any manner that
 competes with the business of Gaussian, Inc. or will provide
 assistance to any competitor of Gaussian, Inc.  The licensee
 of this program is prohibited from giving any competitor of
 Gaussian, Inc. access to this program.  By using this program,
 the user acknowledges that Gaussian, Inc. is engaged in the
 business of creating and licensing software in the field of
 computational chemistry and represents and warrants to the
 licensee that it is not a competitor of Gaussian, Inc. and that
 it will not use this program in any manner prohibited above.
 ---------------------------------------------------------------
  

 Cite this work as:
 Gaussian 09, Revision D.01,
 M. J. Frisch, G. W. Trucks, H. B. Schlegel, G. E. Scuseria, 
 M. A. Robb, J. R. Cheeseman, G. Scalmani, V. Barone, B. Mennucci, 
 G. A. Petersson, H. Nakatsuji, M. Caricato, X. Li, H. P. Hratchian, 
 A. F. Izmaylov, J. Bloino, G. Zheng, J. L. Sonnenberg, M. Hada, 
 M. Ehara, K. Toyota, R. Fukuda, J. Hasegawa, M. Ishida, T. Nakajima, 
 Y. Honda, O. Kitao, H. Nakai, T. Vreven, J. A. Montgomery, Jr., 
 J. E. Peralta, F. Ogliaro, M. Bearpark, J. J. Heyd, E. Brothers, 
 K. N. Kudin, V. N. Staroverov, T. Keith, R. Kobayashi, J. Normand, 
 K. Raghavachari, A. Rendell, J. C. Burant, S. S. Iyengar, J. Tomasi, 
 M. Cossi, N. Rega, J. M. Millam, M. Klene, J. E. Knox, J. B. Cross, 
 V. Bakken, C. Adamo, J. Jaramillo, R. Gomperts, R. E. Stratmann, 
 O. Yazyev, A. J. Austin, R. Cammi, C. Pomelli, J. W. Ochterski, 
 R. L. Martin, K. Morokuma, V. G. Zakrzewski, G. A. Voth, 
 P. Salvador, J. J. Dannenberg, S. Dapprich, A. D. Daniels, 
 O. Farkas, J. B. Foresman, J. V. Ortiz, J. Cioslowski, 
 and D. J. Fox, Gaussian, Inc., Wallingford CT, 2013.
 
 ******************************************
 Gaussian 09:  ES64L-G09RevD.01 24-Apr-2013
                26-Aug-2020 
 ******************************************
 %chk=/home/boittier/MDCM/nms_sampling/methanol_geom.xyz.dir/methanol_2907.chk
 %nproc=8
 Will use up to    8 processors via shared memory.
 %mem=16000MB
 --------------------
 #p B2PLYPD3/Def2QZVP
 --------------------
 1/38=1/1;
 2/12=2,17=6,18=5,40=1/2;
 3/5=45,7=101,11=9,16=1,25=1,30=1,74=-60/1,2,3;
 4//1;
 5/5=2,38=5/2;
 8/10=1/1;
 9/16=-3/6;
 6/7=2,8=2,9=2,10=2/1;
 99/5=1,9=1/99;
 Leave Link    1 at Wed Aug 26 21:55:16 2020, MaxMem=  2097152000 cpu:         0.2
 (Enter /opt/cluster/programs/g09/g09_d.01/g09/l101.exe)
 --------
 methanol
 --------
 Symbolic Z-matrix:
 Charge =  0 Multiplicity = 1
 C                    -5.18698  -1.2496    0.91391 
 O                    -3.76061  -1.11003   0.89152 
 H                    -5.52977  -2.20397   0.59681 
 H                    -5.57979  -0.67667   0.43405 
 H                    -5.42583  -1.12652   1.81119 
 H                    -3.64011  -1.3091   -0.53238 
 
 NAtoms=      6 NQM=        6 NQMF=       0 NMMI=      0 NMMIF=      0
                NMic=       0 NMicF=      0.
                    Isotopes and Nuclear Properties:
 (Nuclear quadrupole moments (NQMom) in fm**2, nuclear magnetic moments (NMagM)
  in nuclear magnetons)

  Atom         1           2           3           4           5           6
 IAtWgt=          12          16           1           1           1           1
 AtmWgt=  12.0000000  15.9949146   1.0078250   1.0078250   1.0078250   1.0078250
 NucSpn=           0           0           1           1           1           1
 AtZEff=   0.0000000   0.0000000   0.0000000   0.0000000   0.0000000   0.0000000
 NQMom=    0.0000000   0.0000000   0.0000000   0.0000000   0.0000000   0.0000000
 NMagM=    0.0000000   0.0000000   2.7928460   2.7928460   2.7928460   2.7928460
 AtZNuc=   6.0000000   8.0000000   1.0000000   1.0000000   1.0000000   1.0000000
 Leave Link  101 at Wed Aug 26 21:55:16 2020, MaxMem=  2097152000 cpu:         0.5
 (Enter /opt/cluster/programs/g09/g09_d.01/g09/l202.exe)
                          Input orientation:                          
 ---------------------------------------------------------------------
 Center     Atomic      Atomic             Coordinates (Angstroms)
 Number     Number       Type             X           Y           Z
 ---------------------------------------------------------------------
      1          6           0       -5.186984   -1.249599    0.913910
      2          8           0       -3.760612   -1.110032    0.891519
      3          1           0       -5.529770   -2.203968    0.596806
      4          1           0       -5.579793   -0.676672    0.434053
      5          1           0       -5.425831   -1.126519    1.811188
      6          1           0       -3.640112   -1.309103   -0.532379
 ---------------------------------------------------------------------
                    Distance matrix (angstroms):
                    1          2          3          4          5
     1  C    0.000000
     2  O    1.433359   0.000000
     3  H    1.062486   2.100826   0.000000
     4  H    0.844279   1.925226   1.536758   0.000000
     5  H    0.936645   1.902371   1.626783   1.456903   0.000000
     6  H    2.118515   1.442787   2.376268   2.257504   2.952022
                    6
     6  H    0.000000
 Stoichiometry    CH4O
 Framework group  C1[X(CH4O)]
 Deg. of freedom    12
 Full point group                 C1      NOp   1
 Largest Abelian subgroup         C1      NOp   1
 Largest concise Abelian subgroup C1      NOp   1
                         Standard orientation:                         
 ---------------------------------------------------------------------
 Center     Atomic      Atomic             Coordinates (Angstroms)
 Number     Number       Type             X           Y           Z
 ---------------------------------------------------------------------
      1          6           0        0.671756    0.019082   -0.027267
      2          8           0       -0.745967   -0.185518    0.024869
      3          1           0        1.050355    0.605792    0.773553
      4          1           0        0.923099    0.390301   -0.742691
      5          1           0        1.040179   -0.840260    0.028399
      6          1           0       -1.076435    1.213821   -0.094614
 ---------------------------------------------------------------------
 Rotational constants (GHZ):    116.9094939     25.6600669     23.3422799
 Leave Link  202 at Wed Aug 26 21:55:16 2020, MaxMem=  2097152000 cpu:         0.0
 (Enter /opt/cluster/programs/g09/g09_d.01/g09/l301.exe)
 Standard basis: def2QZVP (5D, 7F)
 Ernie: Thresh=  0.10000D-02 Tol=  0.10000D-05 Strict=F.
 There are   284 symmetry adapted cartesian basis functions of A   symmetry.
 There are   234 symmetry adapted basis functions of A   symmetry.
   234 basis functions,   336 primitive gaussians,   284 cartesian basis functions
     9 alpha electrons        9 beta electrons
       nuclear repulsion energy        40.4013162393 Hartrees.
 IExCor=  419 DFT=T Ex+Corr=B2PLYPD3 ExCW=0 ScaHFX=  0.530000
 ScaDFX=  0.470000  0.470000  0.730000  0.730000 ScalE2=  0.270000  0.270000
 IRadAn=      0 IRanWt=     -1 IRanGd=            0 ICorTp=0 IEmpDi=141
 NAtoms=    6 NActive=    6 NUniq=    6 SFac= 1.00D+00 NAtFMM=   60 NAOKFM=F Big=F
 Integral buffers will be    131072 words long.
 Regular integral format.
 Two-electron integral symmetry is turned on.
 R6Disp:  Grimme-D3(BJ) Dispersion energy=       -0.0015366721 Hartrees.
 Nuclear repulsion after empirical dispersion term =       40.3997795673 Hartrees.
 Leave Link  301 at Wed Aug 26 21:55:17 2020, MaxMem=  2097152000 cpu:         0.4
 (Enter /opt/cluster/programs/g09/g09_d.01/g09/l302.exe)
 NPDir=0 NMtPBC=     1 NCelOv=     1 NCel=       1 NClECP=     1 NCelD=      1
         NCelK=      1 NCelE2=     1 NClLst=     1 CellRange=     0.0.
 One-electron integrals computed using PRISM.
   1 Symmetry operations used in ECPInt.
 ECPInt:  NShTT=    2775 NPrTT=    6207 LenC2=    2773 LenP2D=    5740.
 LDataN:  DoStor=T MaxTD1= 8 Len=  415
 NBasis=   234 RedAO= T EigKep=  5.04D-05  NBF=   234
 NBsUse=   234 1.00D-06 EigRej= -1.00D+00 NBFU=   234
 Precomputing XC quadrature grid using
 IXCGrd= 4 IRadAn=           0 IRanWt=          -1 IRanGd=           0 AccXCQ= 0.00D+00.
 Generated NRdTot=       0 NPtTot=           0 NUsed=           0 NTot=          32
 NSgBfM=   284   284   284   284   284 MxSgAt=     6 MxSgA2=     6.
 Leave Link  302 at Wed Aug 26 21:55:17 2020, MaxMem=  2097152000 cpu:         1.9
 (Enter /opt/cluster/programs/g09/g09_d.01/g09/l303.exe)
 DipDrv:  MaxL=1.
 Leave Link  303 at Wed Aug 26 21:55:17 2020, MaxMem=  2097152000 cpu:         0.2
 (Enter /opt/cluster/programs/g09/g09_d.01/g09/l401.exe)
 ExpMin= 7.60D-02 ExpMax= 1.17D+05 ExpMxC= 1.13D+03 IAcc=2 IRadAn=         4 AccDes= 0.00D+00
 Harris functional with IExCor=  419 and IRadAn=       4 diagonalized for initial guess.
 HarFok:  IExCor=  419 AccDes= 0.00D+00 IRadAn=         4 IDoV= 1 UseB2=F ITyADJ=14
 ICtDFT=  3500011 ScaDFX=  1.000000  1.000000  1.000000  1.000000
 FoFCou: FMM=F IPFlag=           0 FMFlag=      100000 FMFlg1=           0
         NFxFlg=           0 DoJE=T BraDBF=F KetDBF=T FulRan=T
         wScrn=  0.000000 ICntrl=     500 IOpCl=  0 I1Cent=   200000004 NGrid=           0
         NMat0=    1 NMatS0=      1 NMatT0=    0 NMatD0=    1 NMtDS0=    0 NMtDT0=    0
 Petite list used in FoFCou.
 Harris En= -115.716183548883    
 JPrj=0 DoOrth=F DoCkMO=F.
 Leave Link  401 at Wed Aug 26 21:55:18 2020, MaxMem=  2097152000 cpu:         3.2
 (Enter /opt/cluster/programs/g09/g09_d.01/g09/l502.exe)
 Closed shell SCF:
 Using DIIS extrapolation, IDIIS=  1040.
 Integral symmetry usage will be decided dynamically.
 Keep R1 ints in memory in canonical form, NReq=389840494.
 IVT=      264814 IEndB=      264814 NGot=  2097152000 MDV=  1718885927
 LenX=  1718885927 LenY=  1718804830
 Requested convergence on RMS density matrix=1.00D-08 within 128 cycles.
 Requested convergence on MAX density matrix=1.00D-06.
 Requested convergence on             energy=1.00D-06.
 No special actions if energy rises.
 FoFCou: FMM=F IPFlag=           0 FMFlag=           0 FMFlg1=           0
         NFxFlg=           0 DoJE=F BraDBF=F KetDBF=F FulRan=T
         wScrn=  0.000000 ICntrl=     600 IOpCl=  0 I1Cent=           0 NGrid=           0
         NMat0=    1 NMatS0=  27495 NMatT0=    0 NMatD0=    1 NMtDS0=    0 NMtDT0=    0
 Symmetry not used in FoFCou.
 Integral accuracy reduced to 1.0D-05 until final iterations.

 Cycle   1  Pass 0  IDiag  1:
 E= -115.206289327538    
 DIIS: error= 4.11D-02 at cycle   1 NSaved=   1.
 NSaved= 1 IEnMin= 1 EnMin= -115.206289327538     IErMin= 1 ErrMin= 4.11D-02
 ErrMax= 4.11D-02  0.00D+00 EMaxC= 1.00D-01 BMatC= 2.31D-01 BMatP= 2.31D-01
 IDIUse=3 WtCom= 5.89D-01 WtEn= 4.11D-01
 Coeff-Com:  0.100D+01
 Coeff-En:   0.100D+01
 Coeff:      0.100D+01
 Gap=     0.182 Goal=   None    Shift=    0.000
 GapD=    0.182 DampG=1.000 DampE=0.500 DampFc=0.5000 IDamp=-1.
 Damping current iteration by 5.00D-01
 RMSDP=1.82D-03 MaxDP=7.11D-02              OVMax= 2.35D-01

 Cycle   2  Pass 0  IDiag  1:
 E= -115.282136447525     Delta-E=       -0.075847119987 Rises=F Damp=T
 DIIS: error= 9.32D-03 at cycle   2 NSaved=   2.
 NSaved= 2 IEnMin= 2 EnMin= -115.282136447525     IErMin= 2 ErrMin= 9.32D-03
 ErrMax= 9.32D-03  0.00D+00 EMaxC= 1.00D-01 BMatC= 2.77D-02 BMatP= 2.31D-01
 IDIUse=3 WtCom= 9.07D-01 WtEn= 9.32D-02
 Coeff-Com: -0.490D-01 0.105D+01
 Coeff-En:   0.390D-02 0.996D+00
 Coeff:     -0.441D-01 0.104D+01
 Gap=     0.341 Goal=   None    Shift=    0.000
 RMSDP=5.76D-04 MaxDP=1.80D-02 DE=-7.58D-02 OVMax= 1.90D-01

 Cycle   3  Pass 0  IDiag  1:
 E= -115.357644738039     Delta-E=       -0.075508290514 Rises=F Damp=F
 DIIS: error= 6.97D-03 at cycle   3 NSaved=   3.
 NSaved= 3 IEnMin= 3 EnMin= -115.357644738039     IErMin= 3 ErrMin= 6.97D-03
 ErrMax= 6.97D-03  0.00D+00 EMaxC= 1.00D-01 BMatC= 2.20D-02 BMatP= 2.77D-02
 IDIUse=3 WtCom= 9.30D-01 WtEn= 6.97D-02
 Coeff-Com: -0.133D+00 0.544D+00 0.589D+00
 Coeff-En:   0.000D+00 0.000D+00 0.100D+01
 Coeff:     -0.124D+00 0.506D+00 0.618D+00
 Gap=     0.332 Goal=   None    Shift=    0.000
 RMSDP=2.93D-04 MaxDP=1.30D-02 DE=-7.55D-02 OVMax= 5.83D-02

 Cycle   4  Pass 0  IDiag  1:
 E= -115.372403209252     Delta-E=       -0.014758471213 Rises=F Damp=F
 DIIS: error= 2.79D-03 at cycle   4 NSaved=   4.
 NSaved= 4 IEnMin= 4 EnMin= -115.372403209252     IErMin= 4 ErrMin= 2.79D-03
 ErrMax= 2.79D-03  0.00D+00 EMaxC= 1.00D-01 BMatC= 2.02D-03 BMatP= 2.20D-02
 IDIUse=3 WtCom= 9.72D-01 WtEn= 2.79D-02
 Coeff-Com: -0.412D-01 0.701D-01 0.269D+00 0.702D+00
 Coeff-En:   0.000D+00 0.000D+00 0.864D-02 0.991D+00
 Coeff:     -0.400D-01 0.681D-01 0.262D+00 0.710D+00
 Gap=     0.330 Goal=   None    Shift=    0.000
 RMSDP=7.62D-05 MaxDP=2.87D-03 DE=-1.48D-02 OVMax= 1.26D-02

 Cycle   5  Pass 0  IDiag  1:
 E= -115.373851291304     Delta-E=       -0.001448082053 Rises=F Damp=F
 DIIS: error= 3.07D-04 at cycle   5 NSaved=   5.
 NSaved= 5 IEnMin= 5 EnMin= -115.373851291304     IErMin= 5 ErrMin= 3.07D-04
 ErrMax= 3.07D-04  0.00D+00 EMaxC= 1.00D-01 BMatC= 1.52D-05 BMatP= 2.02D-03
 IDIUse=3 WtCom= 9.97D-01 WtEn= 3.07D-03
 Coeff-Com: -0.604D-03-0.843D-02 0.217D-01 0.114D+00 0.874D+00
 Coeff-En:   0.000D+00 0.000D+00 0.000D+00 0.000D+00 0.100D+01
 Coeff:     -0.602D-03-0.840D-02 0.217D-01 0.113D+00 0.874D+00
 Gap=     0.332 Goal=   None    Shift=    0.000
 RMSDP=1.37D-05 MaxDP=4.39D-04 DE=-1.45D-03 OVMax= 1.58D-03

 Cycle   6  Pass 0  IDiag  1:
 E= -115.373867638354     Delta-E=       -0.000016347050 Rises=F Damp=F
 DIIS: error= 4.53D-05 at cycle   6 NSaved=   6.
 NSaved= 6 IEnMin= 6 EnMin= -115.373867638354     IErMin= 6 ErrMin= 4.53D-05
 ErrMax= 4.53D-05  0.00D+00 EMaxC= 1.00D-01 BMatC= 9.20D-07 BMatP= 1.52D-05
 IDIUse=1 WtCom= 1.00D+00 WtEn= 0.00D+00
 Coeff-Com:  0.350D-02-0.512D-02-0.157D-01-0.537D-01-0.127D+00 0.120D+01
 Coeff:      0.350D-02-0.512D-02-0.157D-01-0.537D-01-0.127D+00 0.120D+01
 Gap=     0.332 Goal=   None    Shift=    0.000
 RMSDP=5.88D-06 MaxDP=1.90D-04 DE=-1.63D-05 OVMax= 6.12D-04

 Initial convergence to 1.0D-05 achieved.  Increase integral accuracy.
 Cycle   7  Pass 1  IDiag  1:
 E= -115.373862006085     Delta-E=        0.000005632269 Rises=F Damp=F
 DIIS: error= 8.55D-06 at cycle   1 NSaved=   1.
 NSaved= 1 IEnMin= 1 EnMin= -115.373862006085     IErMin= 1 ErrMin= 8.55D-06
 ErrMax= 8.55D-06  0.00D+00 EMaxC= 1.00D-01 BMatC= 3.29D-08 BMatP= 3.29D-08
 IDIUse=1 WtCom= 1.00D+00 WtEn= 0.00D+00
 Coeff-Com:  0.100D+01
 Coeff:      0.100D+01
 Gap=     0.332 Goal=   None    Shift=    0.000
 RMSDP=5.88D-06 MaxDP=1.90D-04 DE= 5.63D-06 OVMax= 6.87D-05

 Cycle   8  Pass 1  IDiag  1:
 E= -115.373862028021     Delta-E=       -0.000000021936 Rises=F Damp=F
 DIIS: error= 1.44D-06 at cycle   2 NSaved=   2.
 NSaved= 2 IEnMin= 2 EnMin= -115.373862028021     IErMin= 2 ErrMin= 1.44D-06
 ErrMax= 1.44D-06  0.00D+00 EMaxC= 1.00D-01 BMatC= 6.51D-10 BMatP= 3.29D-08
 IDIUse=1 WtCom= 1.00D+00 WtEn= 0.00D+00
 Coeff-Com: -0.516D-01 0.105D+01
 Coeff:     -0.516D-01 0.105D+01
 Gap=     0.332 Goal=   None    Shift=    0.000
 RMSDP=3.28D-07 MaxDP=1.32D-05 DE=-2.19D-08 OVMax= 3.48D-05

 Cycle   9  Pass 1  IDiag  1:
 E= -115.373862029511     Delta-E=       -0.000000001490 Rises=F Damp=F
 DIIS: error= 1.21D-06 at cycle   3 NSaved=   3.
 NSaved= 3 IEnMin= 3 EnMin= -115.373862029511     IErMin= 3 ErrMin= 1.21D-06
 ErrMax= 1.21D-06  0.00D+00 EMaxC= 1.00D-01 BMatC= 5.21D-10 BMatP= 6.51D-10
 IDIUse=1 WtCom= 1.00D+00 WtEn= 0.00D+00
 Coeff-Com: -0.433D-01 0.509D+00 0.535D+00
 Coeff:     -0.433D-01 0.509D+00 0.535D+00
 Gap=     0.332 Goal=   None    Shift=    0.000
 RMSDP=5.89D-08 MaxDP=2.30D-06 DE=-1.49D-09 OVMax= 6.71D-06

 Cycle  10  Pass 1  IDiag  1:
 E= -115.373862029913     Delta-E=       -0.000000000402 Rises=F Damp=F
 DIIS: error= 4.65D-07 at cycle   4 NSaved=   4.
 NSaved= 4 IEnMin= 4 EnMin= -115.373862029913     IErMin= 4 ErrMin= 4.65D-07
 ErrMax= 4.65D-07  0.00D+00 EMaxC= 1.00D-01 BMatC= 6.08D-11 BMatP= 5.21D-10
 IDIUse=1 WtCom= 1.00D+00 WtEn= 0.00D+00
 Coeff-Com: -0.417D-02-0.102D+00 0.201D+00 0.905D+00
 Coeff:     -0.417D-02-0.102D+00 0.201D+00 0.905D+00
 Gap=     0.332 Goal=   None    Shift=    0.000
 RMSDP=3.96D-08 MaxDP=1.35D-06 DE=-4.02D-10 OVMax= 6.76D-06

 Cycle  11  Pass 1  IDiag  1:
 E= -115.373862030009     Delta-E=       -0.000000000096 Rises=F Damp=F
 DIIS: error= 1.44D-07 at cycle   5 NSaved=   5.
 NSaved= 5 IEnMin= 5 EnMin= -115.373862030009     IErMin= 5 ErrMin= 1.44D-07
 ErrMax= 1.44D-07  0.00D+00 EMaxC= 1.00D-01 BMatC= 7.34D-12 BMatP= 6.08D-11
 IDIUse=1 WtCom= 1.00D+00 WtEn= 0.00D+00
 Coeff-Com:  0.338D-02-0.849D-01-0.738D-02 0.300D+00 0.789D+00
 Coeff:      0.338D-02-0.849D-01-0.738D-02 0.300D+00 0.789D+00
 Gap=     0.332 Goal=   None    Shift=    0.000
 RMSDP=1.17D-08 MaxDP=2.92D-07 DE=-9.57D-11 OVMax= 2.16D-06

 Cycle  12  Pass 1  IDiag  1:
 E= -115.373862030022     Delta-E=       -0.000000000013 Rises=F Damp=F
 DIIS: error= 5.64D-08 at cycle   6 NSaved=   6.
 NSaved= 6 IEnMin= 6 EnMin= -115.373862030022     IErMin= 6 ErrMin= 5.64D-08
 ErrMax= 5.64D-08  0.00D+00 EMaxC= 1.00D-01 BMatC= 4.39D-13 BMatP= 7.34D-12
 IDIUse=1 WtCom= 1.00D+00 WtEn= 0.00D+00
 Coeff-Com:  0.552D-03-0.137D-02-0.170D-01-0.234D-01 0.114D+00 0.927D+00
 Coeff:      0.552D-03-0.137D-02-0.170D-01-0.234D-01 0.114D+00 0.927D+00
 Gap=     0.332 Goal=   None    Shift=    0.000
 RMSDP=5.24D-09 MaxDP=1.74D-07 DE=-1.27D-11 OVMax= 1.13D-06

 SCF Done:  E(RB2PLYPD3) =  -115.373862030     A.U. after   12 cycles
            NFock= 12  Conv=0.52D-08     -V/T= 1.9981
 KE= 1.155892450631D+02 PE=-3.525127815537D+02 EE= 8.114989489329D+01
 Leave Link  502 at Wed Aug 26 21:55:33 2020, MaxMem=  2097152000 cpu:        69.6
 (Enter /opt/cluster/programs/g09/g09_d.01/g09/l801.exe)
 DoSCS=T DFT=T ScalE2(SS,OS)=  0.270000  0.270000
 ExpMin= 7.60D-02 ExpMax= 1.17D+05 ExpMxC= 1.13D+03 IAcc=3 IRadAn=         5 AccDes= 0.00D+00
 HarFok:  IExCor=  205 AccDes= 0.00D+00 IRadAn=         5 IDoV=-2 UseB2=F ITyADJ=14
 ICtDFT= 12500011 ScaDFX=  1.000000  1.000000  1.000000  1.000000
 DSYEVD-2 returned Info=        1739 IAlg= 4 N=    57 NDim=    57 NE2=    36788970 trying  DSYEV.
 Largest valence mixing into a core orbital is  9.35D-05
 Largest core mixing into a valence orbital is  1.28D-05
 Range of M.O.s used for correlation:     3   234
 NBasis=   234 NAE=     9 NBE=     9 NFC=     2 NFV=     0
 NROrb=    232 NOA=     7 NOB=     7 NVA=   225 NVB=   225

 **** Warning!!: The largest alpha MO coefficient is  0.34779337D+02

 Leave Link  801 at Wed Aug 26 21:55:33 2020, MaxMem=  2097152000 cpu:         0.5
 (Enter /opt/cluster/programs/g09/g09_d.01/g09/l906.exe)
 DoSCS=T DFT=T ScalE2(SS,OS)=  0.270000  0.270000
 FulOut=F Deriv=F AODrv=F NAtomX=     6
   MMem=        3646  MDisk=           7 MDiskD=           7
  W3Min=      447300 MinDsk=     1090093 NBas6D=         284
 NBas2D=       41310    NTT=       40470    LW2=     4508827
    MDV=  2096872282 MDiskM=       16391 NBas2p=       41304
 Fully in-core method, ICMem=  1722292712.
 IMap=   1   2   3   4   5   6   7
 JobTyp=1 Pass  1 fully in-core, NPsUse=  8.
 Compute canonical integrals.
 FoFCou: FMM=F IPFlag=           0 FMFlag=           0 FMFlg1=           0
         NFxFlg=           0 DoJE=F BraDBF=F KetDBF=F FulRan=T
         wScrn=  0.000000 ICntrl=     600 IOpCl=  1 I1Cent=           0 NGrid=           0
         NMat0=    1 NMatS0=  41310 NMatT0=    0 NMatD0=    1 NMtDS0=    0 NMtDT0=    0
 Symmetry not used in FoFCou.
 Spin components of T(2) and E(2):
     alpha-alpha T2 =       0.2450116396D-01 E2=     -0.1771037896D-01
     alpha-beta  T2 =       0.1672295692D+00 E2=     -0.1215131235D+00
     beta-beta   T2 =       0.2450116396D-01 E2=     -0.1771037896D-01
 The integrals were generated   1 times.
 E2(B2PLYPD3) =    -0.1569338814D+00 E(B2PLYPD3) =    -0.11553079591145D+03
 Leave Link  906 at Wed Aug 26 21:55:48 2020, MaxMem=  2097152000 cpu:       112.4
 (Enter /opt/cluster/programs/g09/g09_d.01/g09/l601.exe)
 Copying SCF densities to generalized density rwf, IOpCl= 0 IROHF=0.

 **********************************************************************

            Population analysis using the SCF density.

 **********************************************************************

 Orbital symmetries:
       Occupied  (A) (A) (A) (A) (A) (A) (A) (A) (A)
       Virtual   (A) (A) (A) (A) (A) (A) (A) (A) (A) (A) (A) (A)
                 (A) (A) (A) (A) (A) (A) (A) (A) (A) (A) (A) (A)
                 (A) (A) (A) (A) (A) (A) (A) (A) (A) (A) (A) (A)
                 (A) (A) (A) (A) (A) (A) (A) (A) (A) (A) (A) (A)
                 (A) (A) (A) (A) (A) (A) (A) (A) (A) (A) (A) (A)
                 (A) (A) (A) (A) (A) (A) (A) (A) (A) (A) (A) (A)
                 (A) (A) (A) (A) (A) (A) (A) (A) (A) (A) (A) (A)
                 (A) (A) (A) (A) (A) (A) (A) (A) (A) (A) (A) (A)
                 (A) (A) (A) (A) (A) (A) (A) (A) (A) (A) (A) (A)
                 (A) (A) (A) (A) (A) (A) (A) (A) (A) (A) (A) (A)
                 (A) (A) (A) (A) (A) (A) (A) (A) (A) (A) (A) (A)
                 (A) (A) (A) (A) (A) (A) (A) (A) (A) (A) (A) (A)
                 (A) (A) (A) (A) (A) (A) (A) (A) (A) (A) (A) (A)
                 (A) (A) (A) (A) (A) (A) (A) (A) (A) (A) (A) (A)
                 (A) (A) (A) (A) (A) (A) (A) (A) (A) (A) (A) (A)
                 (A) (A) (A) (A) (A) (A) (A) (A) (A) (A) (A) (A)
                 (A) (A) (A) (A) (A) (A) (A) (A) (A) (A) (A) (A)
                 (A) (A) (A) (A) (A) (A) (A) (A) (A) (A) (A) (A)
                 (A) (A) (A) (A) (A) (A) (A) (A) (A)
 The electronic state is 1-A.
 Alpha  occ. eigenvalues --  -19.75569 -10.60526  -1.11538  -0.81923  -0.57285
 Alpha  occ. eigenvalues --   -0.53070  -0.48256  -0.39784  -0.35449
 Alpha virt. eigenvalues --   -0.02203   0.07542   0.12544   0.12823   0.14656
 Alpha virt. eigenvalues --    0.17561   0.18279   0.21900   0.29510   0.33202
 Alpha virt. eigenvalues --    0.33806   0.38412   0.40135   0.42392   0.46383
 Alpha virt. eigenvalues --    0.51075   0.51966   0.55219   0.58822   0.65244
 Alpha virt. eigenvalues --    0.70004   0.74720   0.74947   0.76741   0.79277
 Alpha virt. eigenvalues --    0.82691   0.84660   0.89019   0.90377   0.93483
 Alpha virt. eigenvalues --    0.99670   1.00778   1.02831   1.06457   1.12238
 Alpha virt. eigenvalues --    1.13430   1.19556   1.22875   1.35750   1.38187
 Alpha virt. eigenvalues --    1.42650   1.48312   1.52659   1.56866   1.59631
 Alpha virt. eigenvalues --    1.70771   1.74242   1.80544   1.82964   1.83330
 Alpha virt. eigenvalues --    1.87134   1.91533   1.95979   1.97260   2.02101
 Alpha virt. eigenvalues --    2.05075   2.11489   2.12378   2.17102   2.21643
 Alpha virt. eigenvalues --    2.23048   2.26557   2.28498   2.29526   2.34664
 Alpha virt. eigenvalues --    2.41988   2.47760   2.53147   2.56550   2.58640
 Alpha virt. eigenvalues --    2.61863   2.65407   2.68775   2.70473   2.73167
 Alpha virt. eigenvalues --    2.74791   2.87724   2.92479   2.95256   3.00809
 Alpha virt. eigenvalues --    3.09007   3.13766   3.19342   3.25269   3.28210
 Alpha virt. eigenvalues --    3.40273   3.40829   3.49261   3.54427   3.60269
 Alpha virt. eigenvalues --    3.63918   3.72804   3.76301   3.83137   3.94389
 Alpha virt. eigenvalues --    3.98015   4.00611   4.06684   4.12371   4.17449
 Alpha virt. eigenvalues --    4.22758   4.28413   4.30801   4.35304   4.38887
 Alpha virt. eigenvalues --    4.49626   4.54440   4.67192   4.81083   5.01902
 Alpha virt. eigenvalues --    5.20655   5.27692   5.44606   5.51674   5.63398
 Alpha virt. eigenvalues --    5.67734   5.70586   5.73716   5.74763   5.81163
 Alpha virt. eigenvalues --    5.89702   5.92559   5.97097   6.01464   6.04484
 Alpha virt. eigenvalues --    6.10521   6.11774   6.18756   6.24783   6.25527
 Alpha virt. eigenvalues --    6.34873   6.40315   6.42997   6.44568   6.50892
 Alpha virt. eigenvalues --    6.52812   6.58952   6.61961   6.69933   6.72014
 Alpha virt. eigenvalues --    6.82554   6.91917   6.93738   6.99136   7.05435
 Alpha virt. eigenvalues --    7.14585   7.15283   7.38941   7.46433   7.53237
 Alpha virt. eigenvalues --    7.58494   7.62680   7.65122   7.70074   7.72891
 Alpha virt. eigenvalues --    7.77497   7.81191   7.83927   7.93058   8.01981
 Alpha virt. eigenvalues --    8.08134   8.10642   8.13623   8.17932   8.25034
 Alpha virt. eigenvalues --    8.26808   8.36020   8.41414   8.46108   8.51021
 Alpha virt. eigenvalues --    8.53843   8.56489   8.61076   8.65539   8.67836
 Alpha virt. eigenvalues --    8.70865   8.77300   8.91041   8.98046   9.00658
 Alpha virt. eigenvalues --    9.02894   9.11066   9.18775   9.22650   9.42020
 Alpha virt. eigenvalues --    9.48835   9.58433   9.67176   9.74443   9.80099
 Alpha virt. eigenvalues --    9.83420   9.94755  10.15453  10.28137  10.37151
 Alpha virt. eigenvalues --   10.42057  10.51424  10.56226  10.65360  10.76759
 Alpha virt. eigenvalues --   10.86365  11.08880  11.16176  11.59580  11.62343
 Alpha virt. eigenvalues --   11.65948  11.66477  11.75996  11.86267  12.16963
 Alpha virt. eigenvalues --   12.22754  12.36052  12.38346  12.42009  12.58118
 Alpha virt. eigenvalues --   12.68872  12.79662  12.94022  13.32818  13.57805
 Alpha virt. eigenvalues --   14.41917  29.76079  48.49447 149.51640 254.21589
          Condensed to atoms (all electrons):
               1          2          3          4          5          6
     1  C    4.436520   0.241122   0.456556   0.454029   0.411938  -0.048250
     2  O    0.241122   8.077697  -0.043080  -0.012817  -0.038827   0.253627
     3  H    0.456556  -0.043080   0.665312  -0.067796  -0.041119  -0.011952
     4  H    0.454029  -0.012817  -0.067796   0.580958  -0.044614  -0.011415
     5  H    0.411938  -0.038827  -0.041119  -0.044614   0.633998   0.014806
     6  H   -0.048250   0.253627  -0.011952  -0.011415   0.014806   0.581102
 Mulliken charges:
               1
     1  C    0.048085
     2  O   -0.477721
     3  H    0.042079
     4  H    0.101656
     5  H    0.063818
     6  H    0.222082
 Sum of Mulliken charges =   0.00000
 Mulliken charges with hydrogens summed into heavy atoms:
               1
     1  C    0.255639
     2  O   -0.255639
 Electronic spatial extent (au):  <R**2>=             83.9779
 Charge=              0.0000 electrons
 Dipole moment (field-independent basis, Debye):
    X=              1.3561    Y=              1.7080    Z=             -0.2888  Tot=              2.1999
 Quadrupole moment (field-independent basis, Debye-Ang):
   XX=            -13.6281   YY=            -11.0045   ZZ=            -13.8676
   XY=             -2.1573   XZ=              0.0661   YZ=             -0.2238
 Traceless Quadrupole moment (field-independent basis, Debye-Ang):
   XX=             -0.7947   YY=              1.8289   ZZ=             -1.0342
   XY=             -2.1573   XZ=              0.0661   YZ=             -0.2238
 Octapole moment (field-independent basis, Debye-Ang**2):
  XXX=             -0.2284  YYY=              1.8032  ZZZ=             -0.4998  XYY=             -2.1859
  XXY=              1.9329  XXZ=             -0.4066  XZZ=              0.5133  YZZ=              0.1077
  YYZ=             -0.2826  XYZ=              0.2374
 Hexadecapole moment (field-independent basis, Debye-Ang**3):
 XXXX=            -63.4824 YYYY=            -20.7389 ZZZZ=            -17.7070 XXXY=             -2.0355
 XXXZ=             -0.5471 YYYX=             -3.4693 YYYZ=             -0.6354 ZZZX=             -0.5439
 ZZZY=             -0.2001 XXYY=            -12.3187 XXZZ=            -14.2071 YYZZ=             -7.1086
 XXYZ=             -0.2780 YYXZ=              0.1542 ZZXY=              0.3241
 N-N= 4.039977956726D+01 E-N=-3.525127848747D+02  KE= 1.155892450631D+02
 Leave Link  601 at Wed Aug 26 21:55:48 2020, MaxMem=  2097152000 cpu:         0.7
 (Enter /opt/cluster/programs/g09/g09_d.01/g09/l9999.exe)
 1\1\GINC-NODE29\SP\RB2PLYPD3-FC\def2QZVP\C1H4O1\BOITTIER\26-Aug-2020\0
 \\#p B2PLYPD3/Def2QZVP\\methanol\\0,1\C,0,-5.186984,-1.249599,0.91391\
 O,0,-3.760612,-1.110032,0.891519\H,0,-5.52977,-2.203968,0.596806\H,0,-
 5.579793,-0.676672,0.434053\H,0,-5.425831,-1.126519,1.811188\H,0,-3.64
 0112,-1.309103,-0.532379\\Version=ES64L-G09RevD.01\State=1-A\HF=-115.3
 73862\MP2=-115.5307959\RMSD=5.238e-09\PG=C01 [X(C1H4O1)]\\@


 GOORD'S AXIOM:  A MEETING IS AN EVENT AT WHICH
 THE MINUTES ARE KEPT AND THE HOURS ARE LOST.
 Job cpu time:       0 days  0 hours  3 minutes 10.5 seconds.
 File lengths (MBytes):  RWF=     23 Int=      0 D2E=      0 Chk=      4 Scr=      1
 Normal termination of Gaussian 09 at Wed Aug 26 21:55:48 2020.
