 Entering Gaussian System, Link 0=/opt/cluster/programs/g09/g09_d.01/g09//g09
 Input=/home/boittier/MDCM/nms_sampling/methanol_geom.xyz.dir/energies/methanol_1657_energy.com
 Output=/scratch/boittier/methanol_1657_energy/methanol_1657_energy.out
 Initial command:
 /opt/cluster/programs/g09/g09_d.01/g09/l1.exe "/scratch/boittier/methanol_1657_energy/Gau-79646.inp" -scrdir="/scratch/boittier/methanol_1657_energy/"
 Entering Link 1 = /opt/cluster/programs/g09/g09_d.01/g09/l1.exe PID=     79647.
  
 Copyright (c) 1988,1990,1992,1993,1995,1998,2003,2009,2013,
            Gaussian, Inc.  All Rights Reserved.
  
 This is part of the Gaussian(R) 09 program.  It is based on
 the Gaussian(R) 03 system (copyright 2003, Gaussian, Inc.),
 the Gaussian(R) 98 system (copyright 1998, Gaussian, Inc.),
 the Gaussian(R) 94 system (copyright 1995, Gaussian, Inc.),
 the Gaussian 92(TM) system (copyright 1992, Gaussian, Inc.),
 the Gaussian 90(TM) system (copyright 1990, Gaussian, Inc.),
 the Gaussian 88(TM) system (copyright 1988, Gaussian, Inc.),
 the Gaussian 86(TM) system (copyright 1986, Carnegie Mellon
 University), and the Gaussian 82(TM) system (copyright 1983,
 Carnegie Mellon University). Gaussian is a federally registered
 trademark of Gaussian, Inc.
  
 This software contains proprietary and confidential information,
 including trade secrets, belonging to Gaussian, Inc.
  
 This software is provided under written license and may be
 used, copied, transmitted, or stored only in accord with that
 written license.
  
 The following legend is applicable only to US Government
 contracts under FAR:
  
                    RESTRICTED RIGHTS LEGEND
  
 Use, reproduction and disclosure by the US Government is
 subject to restrictions as set forth in subparagraphs (a)
 and (c) of the Commercial Computer Software - Restricted
 Rights clause in FAR 52.227-19.
  
 Gaussian, Inc.
 340 Quinnipiac St., Bldg. 40, Wallingford CT 06492
  
  
 ---------------------------------------------------------------
 Warning -- This program may not be used in any manner that
 competes with the business of Gaussian, Inc. or will provide
 assistance to any competitor of Gaussian, Inc.  The licensee
 of this program is prohibited from giving any competitor of
 Gaussian, Inc. access to this program.  By using this program,
 the user acknowledges that Gaussian, Inc. is engaged in the
 business of creating and licensing software in the field of
 computational chemistry and represents and warrants to the
 licensee that it is not a competitor of Gaussian, Inc. and that
 it will not use this program in any manner prohibited above.
 ---------------------------------------------------------------
  

 Cite this work as:
 Gaussian 09, Revision D.01,
 M. J. Frisch, G. W. Trucks, H. B. Schlegel, G. E. Scuseria, 
 M. A. Robb, J. R. Cheeseman, G. Scalmani, V. Barone, B. Mennucci, 
 G. A. Petersson, H. Nakatsuji, M. Caricato, X. Li, H. P. Hratchian, 
 A. F. Izmaylov, J. Bloino, G. Zheng, J. L. Sonnenberg, M. Hada, 
 M. Ehara, K. Toyota, R. Fukuda, J. Hasegawa, M. Ishida, T. Nakajima, 
 Y. Honda, O. Kitao, H. Nakai, T. Vreven, J. A. Montgomery, Jr., 
 J. E. Peralta, F. Ogliaro, M. Bearpark, J. J. Heyd, E. Brothers, 
 K. N. Kudin, V. N. Staroverov, T. Keith, R. Kobayashi, J. Normand, 
 K. Raghavachari, A. Rendell, J. C. Burant, S. S. Iyengar, J. Tomasi, 
 M. Cossi, N. Rega, J. M. Millam, M. Klene, J. E. Knox, J. B. Cross, 
 V. Bakken, C. Adamo, J. Jaramillo, R. Gomperts, R. E. Stratmann, 
 O. Yazyev, A. J. Austin, R. Cammi, C. Pomelli, J. W. Ochterski, 
 R. L. Martin, K. Morokuma, V. G. Zakrzewski, G. A. Voth, 
 P. Salvador, J. J. Dannenberg, S. Dapprich, A. D. Daniels, 
 O. Farkas, J. B. Foresman, J. V. Ortiz, J. Cioslowski, 
 and D. J. Fox, Gaussian, Inc., Wallingford CT, 2013.
 
 ******************************************
 Gaussian 09:  ES64L-G09RevD.01 24-Apr-2013
                26-Aug-2020 
 ******************************************
 %chk=/home/boittier/MDCM/nms_sampling/methanol_geom.xyz.dir/methanol_1657.chk
 %nproc=8
 Will use up to    8 processors via shared memory.
 %mem=16000MB
 --------------------
 #p B2PLYPD3/Def2QZVP
 --------------------
 1/38=1/1;
 2/12=2,17=6,18=5,40=1/2;
 3/5=45,7=101,11=9,16=1,25=1,30=1,74=-60/1,2,3;
 4//1;
 5/5=2,38=5/2;
 8/10=1/1;
 9/16=-3/6;
 6/7=2,8=2,9=2,10=2/1;
 99/5=1,9=1/99;
 Leave Link    1 at Wed Aug 26 14:02:57 2020, MaxMem=  2097152000 cpu:         0.2
 (Enter /opt/cluster/programs/g09/g09_d.01/g09/l101.exe)
 --------
 methanol
 --------
 Symbolic Z-matrix:
 Charge =  0 Multiplicity = 1
 C                    -5.16255  -1.24929   0.90813 
 O                    -3.77525  -1.12672   0.86916 
 H                    -5.48279  -2.2197    0.52011 
 H                    -5.74164  -0.51095   0.39482 
 H                    -5.50655  -1.16077   1.94279 
 H                    -3.47975  -1.17825  -0.11651 
 
 NAtoms=      6 NQM=        6 NQMF=       0 NMMI=      0 NMMIF=      0
                NMic=       0 NMicF=      0.
                    Isotopes and Nuclear Properties:
 (Nuclear quadrupole moments (NQMom) in fm**2, nuclear magnetic moments (NMagM)
  in nuclear magnetons)

  Atom         1           2           3           4           5           6
 IAtWgt=          12          16           1           1           1           1
 AtmWgt=  12.0000000  15.9949146   1.0078250   1.0078250   1.0078250   1.0078250
 NucSpn=           0           0           1           1           1           1
 AtZEff=   0.0000000   0.0000000   0.0000000   0.0000000   0.0000000   0.0000000
 NQMom=    0.0000000   0.0000000   0.0000000   0.0000000   0.0000000   0.0000000
 NMagM=    0.0000000   0.0000000   2.7928460   2.7928460   2.7928460   2.7928460
 AtZNuc=   6.0000000   8.0000000   1.0000000   1.0000000   1.0000000   1.0000000
 Leave Link  101 at Wed Aug 26 14:02:57 2020, MaxMem=  2097152000 cpu:         0.5
 (Enter /opt/cluster/programs/g09/g09_d.01/g09/l202.exe)
                          Input orientation:                          
 ---------------------------------------------------------------------
 Center     Atomic      Atomic             Coordinates (Angstroms)
 Number     Number       Type             X           Y           Z
 ---------------------------------------------------------------------
      1          6           0       -5.162549   -1.249286    0.908126
      2          8           0       -3.775247   -1.126721    0.869156
      3          1           0       -5.482786   -2.219699    0.520108
      4          1           0       -5.741642   -0.510945    0.394822
      5          1           0       -5.506552   -1.160766    1.942786
      6          1           0       -3.479752   -1.178252   -0.116512
 ---------------------------------------------------------------------
                    Distance matrix (angstroms):
                    1          2          3          4          5
     1  C    0.000000
     2  O    1.393251   0.000000
     3  H    1.093074   2.057213   0.000000
     4  H    1.069569   2.114446   1.732785   0.000000
     5  H    1.093936   2.037463   1.773673   1.695207   0.000000
     6  H    1.971480   1.030298   2.345643   2.413070   2.889452
                    6
     6  H    0.000000
 Stoichiometry    CH4O
 Framework group  C1[X(CH4O)]
 Deg. of freedom    12
 Full point group                 C1      NOp   1
 Largest Abelian subgroup         C1      NOp   1
 Largest concise Abelian subgroup C1      NOp   1
                         Standard orientation:                         
 ---------------------------------------------------------------------
 Center     Atomic      Atomic             Coordinates (Angstroms)
 Number     Number       Type             X           Y           Z
 ---------------------------------------------------------------------
      1          6           0        0.645948   -0.025165    0.001394
      2          8           0       -0.738068    0.134788   -0.006557
      3          1           0        0.977990   -0.621107   -0.852662
      4          1           0        1.090850   -0.464210    0.869310
      5          1           0        1.125813    0.956273   -0.055207
      6          1           0       -1.165802   -0.798271    0.082652
 ---------------------------------------------------------------------
 Rotational constants (GHZ):    129.4650763     25.3295308     24.2433280
 Leave Link  202 at Wed Aug 26 14:02:57 2020, MaxMem=  2097152000 cpu:         0.0
 (Enter /opt/cluster/programs/g09/g09_d.01/g09/l301.exe)
 Standard basis: def2QZVP (5D, 7F)
 Ernie: Thresh=  0.10000D-02 Tol=  0.10000D-05 Strict=F.
 There are   284 symmetry adapted cartesian basis functions of A   symmetry.
 There are   234 symmetry adapted basis functions of A   symmetry.
   234 basis functions,   336 primitive gaussians,   284 cartesian basis functions
     9 alpha electrons        9 beta electrons
       nuclear repulsion energy        40.4079187523 Hartrees.
 IExCor=  419 DFT=T Ex+Corr=B2PLYPD3 ExCW=0 ScaHFX=  0.530000
 ScaDFX=  0.470000  0.470000  0.730000  0.730000 ScalE2=  0.270000  0.270000
 IRadAn=      0 IRanWt=     -1 IRanGd=            0 ICorTp=0 IEmpDi=141
 NAtoms=    6 NActive=    6 NUniq=    6 SFac= 1.00D+00 NAtFMM=   60 NAOKFM=F Big=F
 Integral buffers will be    131072 words long.
 Regular integral format.
 Two-electron integral symmetry is turned on.
 R6Disp:  Grimme-D3(BJ) Dispersion energy=       -0.0013052368 Hartrees.
 Nuclear repulsion after empirical dispersion term =       40.4066135154 Hartrees.
 Leave Link  301 at Wed Aug 26 14:02:57 2020, MaxMem=  2097152000 cpu:         0.4
 (Enter /opt/cluster/programs/g09/g09_d.01/g09/l302.exe)
 NPDir=0 NMtPBC=     1 NCelOv=     1 NCel=       1 NClECP=     1 NCelD=      1
         NCelK=      1 NCelE2=     1 NClLst=     1 CellRange=     0.0.
 One-electron integrals computed using PRISM.
   1 Symmetry operations used in ECPInt.
 ECPInt:  NShTT=    2775 NPrTT=    6207 LenC2=    2774 LenP2D=    5735.
 LDataN:  DoStor=T MaxTD1= 8 Len=  415
 NBasis=   234 RedAO= T EigKep=  1.29D-04  NBF=   234
 NBsUse=   234 1.00D-06 EigRej= -1.00D+00 NBFU=   234
 Precomputing XC quadrature grid using
 IXCGrd= 4 IRadAn=           0 IRanWt=          -1 IRanGd=           0 AccXCQ= 0.00D+00.
 Generated NRdTot=       0 NPtTot=           0 NUsed=           0 NTot=          32
 NSgBfM=   284   284   284   284   284 MxSgAt=     6 MxSgA2=     6.
 Leave Link  302 at Wed Aug 26 14:02:57 2020, MaxMem=  2097152000 cpu:         2.1
 (Enter /opt/cluster/programs/g09/g09_d.01/g09/l303.exe)
 DipDrv:  MaxL=1.
 Leave Link  303 at Wed Aug 26 14:02:58 2020, MaxMem=  2097152000 cpu:         0.2
 (Enter /opt/cluster/programs/g09/g09_d.01/g09/l401.exe)
 ExpMin= 7.60D-02 ExpMax= 1.17D+05 ExpMxC= 1.13D+03 IAcc=2 IRadAn=         4 AccDes= 0.00D+00
 Harris functional with IExCor=  419 and IRadAn=       4 diagonalized for initial guess.
 HarFok:  IExCor=  419 AccDes= 0.00D+00 IRadAn=         4 IDoV= 1 UseB2=F ITyADJ=14
 ICtDFT=  3500011 ScaDFX=  1.000000  1.000000  1.000000  1.000000
 FoFCou: FMM=F IPFlag=           0 FMFlag=      100000 FMFlg1=           0
         NFxFlg=           0 DoJE=T BraDBF=F KetDBF=T FulRan=T
         wScrn=  0.000000 ICntrl=     500 IOpCl=  0 I1Cent=   200000004 NGrid=           0
         NMat0=    1 NMatS0=      1 NMatT0=    0 NMatD0=    1 NMtDS0=    0 NMtDT0=    0
 Petite list used in FoFCou.
 Harris En= -115.817297844009    
 JPrj=0 DoOrth=F DoCkMO=F.
 Leave Link  401 at Wed Aug 26 14:02:58 2020, MaxMem=  2097152000 cpu:         3.7
 (Enter /opt/cluster/programs/g09/g09_d.01/g09/l502.exe)
 Closed shell SCF:
 Using DIIS extrapolation, IDIIS=  1040.
 Integral symmetry usage will be decided dynamically.
 Keep R1 ints in memory in canonical form, NReq=389840494.
 IVT=      264814 IEndB=      264814 NGot=  2097152000 MDV=  1718885927
 LenX=  1718885927 LenY=  1718804830
 Requested convergence on RMS density matrix=1.00D-08 within 128 cycles.
 Requested convergence on MAX density matrix=1.00D-06.
 Requested convergence on             energy=1.00D-06.
 No special actions if energy rises.
 FoFCou: FMM=F IPFlag=           0 FMFlag=           0 FMFlg1=           0
         NFxFlg=           0 DoJE=F BraDBF=F KetDBF=F FulRan=T
         wScrn=  0.000000 ICntrl=     600 IOpCl=  0 I1Cent=           0 NGrid=           0
         NMat0=    1 NMatS0=  27495 NMatT0=    0 NMatD0=    1 NMtDS0=    0 NMtDT0=    0
 Symmetry not used in FoFCou.
 Integral accuracy reduced to 1.0D-05 until final iterations.

 Cycle   1  Pass 0  IDiag  1:
 E= -115.444975392737    
 DIIS: error= 2.80D-02 at cycle   1 NSaved=   1.
 NSaved= 1 IEnMin= 1 EnMin= -115.444975392737     IErMin= 1 ErrMin= 2.80D-02
 ErrMax= 2.80D-02  0.00D+00 EMaxC= 1.00D-01 BMatC= 1.75D-01 BMatP= 1.75D-01
 IDIUse=3 WtCom= 7.20D-01 WtEn= 2.80D-01
 Coeff-Com:  0.100D+01
 Coeff-En:   0.100D+01
 Coeff:      0.100D+01
 Gap=     0.312 Goal=   None    Shift=    0.000
 GapD=    0.312 DampG=1.000 DampE=0.500 DampFc=0.5000 IDamp=-1.
 Damping current iteration by 5.00D-01
 RMSDP=1.34D-03 MaxDP=4.46D-02              OVMax= 1.38D-01

 Cycle   2  Pass 0  IDiag  1:
 E= -115.494079089292     Delta-E=       -0.049103696555 Rises=F Damp=T
 DIIS: error= 1.13D-02 at cycle   2 NSaved=   2.
 NSaved= 2 IEnMin= 2 EnMin= -115.494079089292     IErMin= 2 ErrMin= 1.13D-02
 ErrMax= 1.13D-02  0.00D+00 EMaxC= 1.00D-01 BMatC= 1.89D-02 BMatP= 1.75D-01
 IDIUse=3 WtCom= 8.87D-01 WtEn= 1.13D-01
 Coeff-Com: -0.123D+00 0.112D+01
 Coeff-En:   0.000D+00 0.100D+01
 Coeff:     -0.109D+00 0.111D+01
 Gap=     0.415 Goal=   None    Shift=    0.000
 RMSDP=3.50D-04 MaxDP=9.33D-03 DE=-4.91D-02 OVMax= 8.38D-02

 Cycle   3  Pass 0  IDiag  1:
 E= -115.542378702695     Delta-E=       -0.048299613402 Rises=F Damp=F
 DIIS: error= 4.70D-03 at cycle   3 NSaved=   3.
 NSaved= 3 IEnMin= 3 EnMin= -115.542378702695     IErMin= 3 ErrMin= 4.70D-03
 ErrMax= 4.70D-03  0.00D+00 EMaxC= 1.00D-01 BMatC= 4.75D-03 BMatP= 1.89D-02
 IDIUse=3 WtCom= 9.53D-01 WtEn= 4.70D-02
 Coeff-Com: -0.137D+00 0.353D+00 0.784D+00
 Coeff-En:   0.000D+00 0.000D+00 0.100D+01
 Coeff:     -0.131D+00 0.337D+00 0.794D+00
 Gap=     0.397 Goal=   None    Shift=    0.000
 RMSDP=1.29D-04 MaxDP=5.09D-03 DE=-4.83D-02 OVMax= 1.62D-02

 Cycle   4  Pass 0  IDiag  1:
 E= -115.545066136666     Delta-E=       -0.002687433971 Rises=F Damp=F
 DIIS: error= 1.71D-03 at cycle   4 NSaved=   4.
 NSaved= 4 IEnMin= 4 EnMin= -115.545066136666     IErMin= 4 ErrMin= 1.71D-03
 ErrMax= 1.71D-03  0.00D+00 EMaxC= 1.00D-01 BMatC= 5.82D-04 BMatP= 4.75D-03
 IDIUse=3 WtCom= 9.83D-01 WtEn= 1.71D-02
 Coeff-Com: -0.494D-01 0.884D-01 0.350D+00 0.611D+00
 Coeff-En:   0.000D+00 0.000D+00 0.000D+00 0.100D+01
 Coeff:     -0.485D-01 0.869D-01 0.344D+00 0.618D+00
 Gap=     0.395 Goal=   None    Shift=    0.000
 RMSDP=4.01D-05 MaxDP=1.82D-03 DE=-2.69D-03 OVMax= 5.74D-03

 Cycle   5  Pass 0  IDiag  1:
 E= -115.545507325151     Delta-E=       -0.000441188485 Rises=F Damp=F
 DIIS: error= 1.80D-04 at cycle   5 NSaved=   5.
 NSaved= 5 IEnMin= 5 EnMin= -115.545507325151     IErMin= 5 ErrMin= 1.80D-04
 ErrMax= 1.80D-04  0.00D+00 EMaxC= 1.00D-01 BMatC= 6.43D-06 BMatP= 5.82D-04
 IDIUse=3 WtCom= 9.98D-01 WtEn= 1.80D-03
 Coeff-Com: -0.718D-02 0.892D-02 0.571D-01 0.157D+00 0.784D+00
 Coeff-En:   0.000D+00 0.000D+00 0.000D+00 0.000D+00 0.100D+01
 Coeff:     -0.716D-02 0.891D-02 0.570D-01 0.157D+00 0.784D+00
 Gap=     0.395 Goal=   None    Shift=    0.000
 RMSDP=6.61D-06 MaxDP=1.87D-04 DE=-4.41D-04 OVMax= 5.19D-04

 Initial convergence to 1.0D-05 achieved.  Increase integral accuracy.
 Cycle   6  Pass 1  IDiag  1:
 E= -115.545517154124     Delta-E=       -0.000009828973 Rises=F Damp=F
 DIIS: error= 1.42D-05 at cycle   1 NSaved=   1.
 NSaved= 1 IEnMin= 1 EnMin= -115.545517154124     IErMin= 1 ErrMin= 1.42D-05
 ErrMax= 1.42D-05  0.00D+00 EMaxC= 1.00D-01 BMatC= 7.77D-08 BMatP= 7.77D-08
 IDIUse=1 WtCom= 1.00D+00 WtEn= 0.00D+00
 Coeff-Com:  0.100D+01
 Coeff:      0.100D+01
 Gap=     0.396 Goal=   None    Shift=    0.000
 RMSDP=6.61D-06 MaxDP=1.87D-04 DE=-9.83D-06 OVMax= 1.19D-04

 Cycle   7  Pass 1  IDiag  1:
 E= -115.545517269271     Delta-E=       -0.000000115148 Rises=F Damp=F
 DIIS: error= 4.11D-06 at cycle   2 NSaved=   2.
 NSaved= 2 IEnMin= 2 EnMin= -115.545517269271     IErMin= 2 ErrMin= 4.11D-06
 ErrMax= 4.11D-06  0.00D+00 EMaxC= 1.00D-01 BMatC= 4.65D-09 BMatP= 7.77D-08
 IDIUse=1 WtCom= 1.00D+00 WtEn= 0.00D+00
 Coeff-Com: -0.718D-01 0.107D+01
 Coeff:     -0.718D-01 0.107D+01
 Gap=     0.396 Goal=   None    Shift=    0.000
 RMSDP=4.27D-07 MaxDP=1.39D-05 DE=-1.15D-07 OVMax= 4.26D-05

 Cycle   8  Pass 1  IDiag  1:
 E= -115.545517278324     Delta-E=       -0.000000009053 Rises=F Damp=F
 DIIS: error= 2.90D-06 at cycle   3 NSaved=   3.
 NSaved= 3 IEnMin= 3 EnMin= -115.545517278324     IErMin= 3 ErrMin= 2.90D-06
 ErrMax= 2.90D-06  0.00D+00 EMaxC= 1.00D-01 BMatC= 9.68D-10 BMatP= 4.65D-09
 IDIUse=1 WtCom= 1.00D+00 WtEn= 0.00D+00
 Coeff-Com: -0.747D-01 0.258D+00 0.817D+00
 Coeff:     -0.747D-01 0.258D+00 0.817D+00
 Gap=     0.396 Goal=   None    Shift=    0.000
 RMSDP=1.31D-07 MaxDP=4.83D-06 DE=-9.05D-09 OVMax= 1.35D-05

 Cycle   9  Pass 1  IDiag  1:
 E= -115.545517279417     Delta-E=       -0.000000001093 Rises=F Damp=F
 DIIS: error= 7.18D-07 at cycle   4 NSaved=   4.
 NSaved= 4 IEnMin= 4 EnMin= -115.545517279417     IErMin= 4 ErrMin= 7.18D-07
 ErrMax= 7.18D-07  0.00D+00 EMaxC= 1.00D-01 BMatC= 1.09D-10 BMatP= 9.68D-10
 IDIUse=1 WtCom= 1.00D+00 WtEn= 0.00D+00
 Coeff-Com: -0.163D-01-0.129D-01 0.256D+00 0.773D+00
 Coeff:     -0.163D-01-0.129D-01 0.256D+00 0.773D+00
 Gap=     0.396 Goal=   None    Shift=    0.000
 RMSDP=3.15D-08 MaxDP=1.08D-06 DE=-1.09D-09 OVMax= 4.69D-06

 Cycle  10  Pass 1  IDiag  1:
 E= -115.545517279536     Delta-E=       -0.000000000119 Rises=F Damp=F
 DIIS: error= 1.95D-07 at cycle   5 NSaved=   5.
 NSaved= 5 IEnMin= 5 EnMin= -115.545517279536     IErMin= 5 ErrMin= 1.95D-07
 ErrMax= 1.95D-07  0.00D+00 EMaxC= 1.00D-01 BMatC= 6.54D-12 BMatP= 1.09D-10
 IDIUse=1 WtCom= 1.00D+00 WtEn= 0.00D+00
 Coeff-Com:  0.123D-02-0.232D-01 0.103D-01 0.199D+00 0.813D+00
 Coeff:      0.123D-02-0.232D-01 0.103D-01 0.199D+00 0.813D+00
 Gap=     0.396 Goal=   None    Shift=    0.000
 RMSDP=9.25D-09 MaxDP=4.38D-07 DE=-1.19D-10 OVMax= 1.28D-06

 SCF Done:  E(RB2PLYPD3) =  -115.545517280     A.U. after   10 cycles
            NFock= 10  Conv=0.93D-08     -V/T= 2.0035
 KE= 1.151417695241D+02 PE=-3.523323465675D+02 EE= 8.123844624841D+01
 Leave Link  502 at Wed Aug 26 14:03:13 2020, MaxMem=  2097152000 cpu:        78.6
 (Enter /opt/cluster/programs/g09/g09_d.01/g09/l801.exe)
 DoSCS=T DFT=T ScalE2(SS,OS)=  0.270000  0.270000
 ExpMin= 7.60D-02 ExpMax= 1.17D+05 ExpMxC= 1.13D+03 IAcc=3 IRadAn=         5 AccDes= 0.00D+00
 HarFok:  IExCor=  205 AccDes= 0.00D+00 IRadAn=         5 IDoV=-2 UseB2=F ITyADJ=14
 ICtDFT= 12500011 ScaDFX=  1.000000  1.000000  1.000000  1.000000
 Largest valence mixing into a core orbital is  1.14D-04
 Largest core mixing into a valence orbital is  1.49D-05
 Range of M.O.s used for correlation:     3   234
 NBasis=   234 NAE=     9 NBE=     9 NFC=     2 NFV=     0
 NROrb=    232 NOA=     7 NOB=     7 NVA=   225 NVB=   225

 **** Warning!!: The largest alpha MO coefficient is  0.26109393D+02

 Leave Link  801 at Wed Aug 26 14:03:13 2020, MaxMem=  2097152000 cpu:         0.6
 (Enter /opt/cluster/programs/g09/g09_d.01/g09/l906.exe)
 DoSCS=T DFT=T ScalE2(SS,OS)=  0.270000  0.270000
 FulOut=F Deriv=F AODrv=F NAtomX=     6
   MMem=        3646  MDisk=           7 MDiskD=           7
  W3Min=      447300 MinDsk=     1090093 NBas6D=         284
 NBas2D=       41310    NTT=       40470    LW2=     4508827
    MDV=  2096872478 MDiskM=       16391 NBas2p=       41304
 Fully in-core method, ICMem=  1722292712.
 IMap=   1   2   3   4   5   6   7
 JobTyp=1 Pass  1 fully in-core, NPsUse=  8.
 Compute canonical integrals.
 FoFCou: FMM=F IPFlag=           0 FMFlag=           0 FMFlg1=           0
         NFxFlg=           0 DoJE=F BraDBF=F KetDBF=F FulRan=T
         wScrn=  0.000000 ICntrl=     600 IOpCl=  1 I1Cent=           0 NGrid=           0
         NMat0=    1 NMatS0=  41310 NMatT0=    0 NMatD0=    1 NMtDS0=    0 NMtDT0=    0
 Symmetry not used in FoFCou.
 Spin components of T(2) and E(2):
     alpha-alpha T2 =       0.2122735233D-01 E2=     -0.1685768324D-01
     alpha-beta  T2 =       0.1335855416D+00 E2=     -0.1144930625D+00
     beta-beta   T2 =       0.2122735233D-01 E2=     -0.1685768324D-01
 The integrals were generated   1 times.
 E2(B2PLYPD3) =    -0.1482084290D+00 E(B2PLYPD3) =    -0.11569372570854D+03
 Leave Link  906 at Wed Aug 26 14:03:27 2020, MaxMem=  2097152000 cpu:       116.6
 (Enter /opt/cluster/programs/g09/g09_d.01/g09/l601.exe)
 Copying SCF densities to generalized density rwf, IOpCl= 0 IROHF=0.

 **********************************************************************

            Population analysis using the SCF density.

 **********************************************************************

 Orbital symmetries:
       Occupied  (A) (A) (A) (A) (A) (A) (A) (A) (A)
       Virtual   (A) (A) (A) (A) (A) (A) (A) (A) (A) (A) (A) (A)
                 (A) (A) (A) (A) (A) (A) (A) (A) (A) (A) (A) (A)
                 (A) (A) (A) (A) (A) (A) (A) (A) (A) (A) (A) (A)
                 (A) (A) (A) (A) (A) (A) (A) (A) (A) (A) (A) (A)
                 (A) (A) (A) (A) (A) (A) (A) (A) (A) (A) (A) (A)
                 (A) (A) (A) (A) (A) (A) (A) (A) (A) (A) (A) (A)
                 (A) (A) (A) (A) (A) (A) (A) (A) (A) (A) (A) (A)
                 (A) (A) (A) (A) (A) (A) (A) (A) (A) (A) (A) (A)
                 (A) (A) (A) (A) (A) (A) (A) (A) (A) (A) (A) (A)
                 (A) (A) (A) (A) (A) (A) (A) (A) (A) (A) (A) (A)
                 (A) (A) (A) (A) (A) (A) (A) (A) (A) (A) (A) (A)
                 (A) (A) (A) (A) (A) (A) (A) (A) (A) (A) (A) (A)
                 (A) (A) (A) (A) (A) (A) (A) (A) (A) (A) (A) (A)
                 (A) (A) (A) (A) (A) (A) (A) (A) (A) (A) (A) (A)
                 (A) (A) (A) (A) (A) (A) (A) (A) (A) (A) (A) (A)
                 (A) (A) (A) (A) (A) (A) (A) (A) (A) (A) (A) (A)
                 (A) (A) (A) (A) (A) (A) (A) (A) (A) (A) (A) (A)
                 (A) (A) (A) (A) (A) (A) (A) (A) (A) (A) (A) (A)
                 (A) (A) (A) (A) (A) (A) (A) (A) (A)
 The electronic state is 1-A.
 Alpha  occ. eigenvalues --  -19.73392 -10.65096  -1.15874  -0.78263  -0.58470
 Alpha  occ. eigenvalues --   -0.52032  -0.49971  -0.40495  -0.35143
 Alpha virt. eigenvalues --    0.04410   0.07912   0.12553   0.12596   0.15007
 Alpha virt. eigenvalues --    0.17533   0.18328   0.29089   0.32106   0.33217
 Alpha virt. eigenvalues --    0.35074   0.38758   0.39712   0.41371   0.44013
 Alpha virt. eigenvalues --    0.45309   0.52715   0.55621   0.58637   0.66504
 Alpha virt. eigenvalues --    0.71747   0.73827   0.76812   0.79823   0.80698
 Alpha virt. eigenvalues --    0.82609   0.85452   0.87611   0.93732   0.96195
 Alpha virt. eigenvalues --    0.97989   0.98960   1.02708   1.09277   1.11528
 Alpha virt. eigenvalues --    1.12894   1.14089   1.21200   1.29110   1.41543
 Alpha virt. eigenvalues --    1.41890   1.45560   1.48544   1.50011   1.52205
 Alpha virt. eigenvalues --    1.75895   1.81308   1.84585   1.85887   1.88092
 Alpha virt. eigenvalues --    1.91396   1.95449   1.96432   1.98779   2.04141
 Alpha virt. eigenvalues --    2.07942   2.14424   2.19012   2.22308   2.23138
 Alpha virt. eigenvalues --    2.26491   2.27432   2.30960   2.35213   2.36393
 Alpha virt. eigenvalues --    2.42005   2.49985   2.53414   2.57768   2.62148
 Alpha virt. eigenvalues --    2.63378   2.66333   2.68056   2.74560   2.78049
 Alpha virt. eigenvalues --    2.86330   2.88455   2.89117   2.94656   3.01757
 Alpha virt. eigenvalues --    3.03457   3.07747   3.13591   3.17145   3.20799
 Alpha virt. eigenvalues --    3.26926   3.30705   3.35392   3.40058   3.48832
 Alpha virt. eigenvalues --    3.51064   3.64682   3.71192   3.88767   3.91673
 Alpha virt. eigenvalues --    3.95577   3.99431   4.01025   4.05685   4.17347
 Alpha virt. eigenvalues --    4.22037   4.26718   4.34989   4.38884   4.47455
 Alpha virt. eigenvalues --    4.54180   4.56765   4.62605   4.82204   5.14159
 Alpha virt. eigenvalues --    5.21491   5.43061   5.50533   5.51981   5.54141
 Alpha virt. eigenvalues --    5.58193   5.70039   5.79818   5.81587   5.84704
 Alpha virt. eigenvalues --    5.92534   5.97126   6.00601   6.09805   6.10301
 Alpha virt. eigenvalues --    6.17146   6.25539   6.29012   6.31381   6.33687
 Alpha virt. eigenvalues --    6.36218   6.42972   6.48233   6.48967   6.55095
 Alpha virt. eigenvalues --    6.59728   6.63658   6.71941   6.74262   6.80964
 Alpha virt. eigenvalues --    6.86040   6.92511   6.96316   7.06460   7.10924
 Alpha virt. eigenvalues --    7.29781   7.30562   7.37475   7.45605   7.55212
 Alpha virt. eigenvalues --    7.55741   7.61517   7.63518   7.64956   7.65818
 Alpha virt. eigenvalues --    7.75108   7.77553   7.79341   7.84088   7.88727
 Alpha virt. eigenvalues --    7.94142   7.96482   8.03275   8.11333   8.14559
 Alpha virt. eigenvalues --    8.18875   8.21329   8.40484   8.42083   8.43399
 Alpha virt. eigenvalues --    8.48373   8.50970   8.51418   8.54295   8.55421
 Alpha virt. eigenvalues --    8.58587   8.60250   8.64826   8.69854   8.79733
 Alpha virt. eigenvalues --    8.86498   8.88131   8.99725   9.05654   9.09512
 Alpha virt. eigenvalues --    9.18573   9.50137   9.59379   9.73252   9.77801
 Alpha virt. eigenvalues --    9.89572   9.96438  10.09792  10.13497  10.19793
 Alpha virt. eigenvalues --   10.22816  10.30383  10.45245  10.52710  10.61108
 Alpha virt. eigenvalues --   10.74042  10.79496  11.13651  11.29525  11.62538
 Alpha virt. eigenvalues --   11.65079  11.69271  11.74430  11.87560  11.98831
 Alpha virt. eigenvalues --   12.06751  12.22310  12.39357  12.77659  12.81326
 Alpha virt. eigenvalues --   13.16118  13.41633  13.59079  13.97107  14.63477
 Alpha virt. eigenvalues --   16.07226  29.30523  48.68549 148.91003 254.42959
          Condensed to atoms (all electrons):
               1          2          3          4          5          6
     1  C    4.432411   0.277433   0.445703   0.427433   0.397102  -0.048304
     2  O    0.277433   7.996851  -0.056830  -0.044492  -0.035181   0.324741
     3  H    0.445703  -0.056830   0.672992  -0.059600  -0.037377  -0.006766
     4  H    0.427433  -0.044492  -0.059600   0.685998  -0.044382  -0.008849
     5  H    0.397102  -0.035181  -0.037377  -0.044382   0.645247   0.011047
     6  H   -0.048304   0.324741  -0.006766  -0.008849   0.011047   0.483145
 Mulliken charges:
               1
     1  C    0.068222
     2  O   -0.462521
     3  H    0.041878
     4  H    0.043892
     5  H    0.063544
     6  H    0.244985
 Sum of Mulliken charges =   0.00000
 Mulliken charges with hydrogens summed into heavy atoms:
               1
     1  C    0.217536
     2  O   -0.217536
 Electronic spatial extent (au):  <R**2>=             84.1169
 Charge=              0.0000 electrons
 Dipole moment (field-independent basis, Debye):
    X=              0.7437    Y=             -1.5644    Z=              0.1770  Tot=              1.7412
 Quadrupole moment (field-independent basis, Debye-Ang):
   XX=            -12.8516   YY=            -12.2488   ZZ=            -13.9288
   XY=              2.3634   XZ=             -0.0779   YZ=             -0.0993
 Traceless Quadrupole moment (field-independent basis, Debye-Ang):
   XX=              0.1581   YY=              0.7609   ZZ=             -0.9190
   XY=              2.3634   XZ=             -0.0779   YZ=             -0.0993
 Octapole moment (field-independent basis, Debye-Ang**2):
  XXX=             -4.1731  YYY=             -0.7428  ZZZ=              0.1413  XYY=             -1.9827
  XXY=             -2.4586  XXZ=              0.4704  XZZ=             -0.3882  YZZ=             -0.5349
  YYZ=              0.0297  XYZ=              0.2056
 Hexadecapole moment (field-independent basis, Debye-Ang**3):
 XXXX=            -61.7713 YYYY=            -20.9130 ZZZZ=            -20.1915 XXXY=              4.1437
 XXXZ=              0.0837 YYYX=              3.1012 YYYZ=             -0.1524 ZZZX=              0.1600
 ZZZY=              0.0145 XXYY=            -12.6013 XXZZ=            -14.5892 YYZZ=             -7.0250
 XXYZ=             -0.2855 YYXZ=             -0.2114 ZZXY=             -0.0718
 N-N= 4.040661351543D+01 E-N=-3.523323660212D+02  KE= 1.151417695241D+02
 Leave Link  601 at Wed Aug 26 14:03:28 2020, MaxMem=  2097152000 cpu:         0.3
 (Enter /opt/cluster/programs/g09/g09_d.01/g09/l9999.exe)
 1\1\GINC-NODE05\SP\RB2PLYPD3-FC\def2QZVP\C1H4O1\BOITTIER\26-Aug-2020\0
 \\#p B2PLYPD3/Def2QZVP\\methanol\\0,1\C,0,-5.162549,-1.249286,0.908126
 \O,0,-3.775247,-1.126721,0.869156\H,0,-5.482786,-2.219699,0.520108\H,0
 ,-5.741642,-0.510945,0.394822\H,0,-5.506552,-1.160766,1.942786\H,0,-3.
 479752,-1.178252,-0.116512\\Version=ES64L-G09RevD.01\State=1-A\HF=-115
 .5455173\MP2=-115.6937257\RMSD=9.251e-09\PG=C01 [X(C1H4O1)]\\@


 THERE'S A SUCKER BORN EVERY MINUTE

              -- PHINEAS TAYLOR (P.T.) BARNUM
 Job cpu time:       0 days  0 hours  3 minutes 23.7 seconds.
 File lengths (MBytes):  RWF=     23 Int=      0 D2E=      0 Chk=      4 Scr=      1
 Normal termination of Gaussian 09 at Wed Aug 26 14:03:28 2020.
