 Entering Gaussian System, Link 0=/opt/cluster/programs/g09/g09_d.01/g09//g09
 Input=/home/boittier/MDCM/nms_sampling/methanol_geom.xyz.dir/energies/methanol_1033_energy.com
 Output=/scratch/boittier/methanol_1033_energy/methanol_1033_energy.out
 Initial command:
 /opt/cluster/programs/g09/g09_d.01/g09/l1.exe "/scratch/boittier/methanol_1033_energy/Gau-161005.inp" -scrdir="/scratch/boittier/methanol_1033_energy/"
 Entering Link 1 = /opt/cluster/programs/g09/g09_d.01/g09/l1.exe PID=    161006.
  
 Copyright (c) 1988,1990,1992,1993,1995,1998,2003,2009,2013,
            Gaussian, Inc.  All Rights Reserved.
  
 This is part of the Gaussian(R) 09 program.  It is based on
 the Gaussian(R) 03 system (copyright 2003, Gaussian, Inc.),
 the Gaussian(R) 98 system (copyright 1998, Gaussian, Inc.),
 the Gaussian(R) 94 system (copyright 1995, Gaussian, Inc.),
 the Gaussian 92(TM) system (copyright 1992, Gaussian, Inc.),
 the Gaussian 90(TM) system (copyright 1990, Gaussian, Inc.),
 the Gaussian 88(TM) system (copyright 1988, Gaussian, Inc.),
 the Gaussian 86(TM) system (copyright 1986, Carnegie Mellon
 University), and the Gaussian 82(TM) system (copyright 1983,
 Carnegie Mellon University). Gaussian is a federally registered
 trademark of Gaussian, Inc.
  
 This software contains proprietary and confidential information,
 including trade secrets, belonging to Gaussian, Inc.
  
 This software is provided under written license and may be
 used, copied, transmitted, or stored only in accord with that
 written license.
  
 The following legend is applicable only to US Government
 contracts under FAR:
  
                    RESTRICTED RIGHTS LEGEND
  
 Use, reproduction and disclosure by the US Government is
 subject to restrictions as set forth in subparagraphs (a)
 and (c) of the Commercial Computer Software - Restricted
 Rights clause in FAR 52.227-19.
  
 Gaussian, Inc.
 340 Quinnipiac St., Bldg. 40, Wallingford CT 06492
  
  
 ---------------------------------------------------------------
 Warning -- This program may not be used in any manner that
 competes with the business of Gaussian, Inc. or will provide
 assistance to any competitor of Gaussian, Inc.  The licensee
 of this program is prohibited from giving any competitor of
 Gaussian, Inc. access to this program.  By using this program,
 the user acknowledges that Gaussian, Inc. is engaged in the
 business of creating and licensing software in the field of
 computational chemistry and represents and warrants to the
 licensee that it is not a competitor of Gaussian, Inc. and that
 it will not use this program in any manner prohibited above.
 ---------------------------------------------------------------
  

 Cite this work as:
 Gaussian 09, Revision D.01,
 M. J. Frisch, G. W. Trucks, H. B. Schlegel, G. E. Scuseria, 
 M. A. Robb, J. R. Cheeseman, G. Scalmani, V. Barone, B. Mennucci, 
 G. A. Petersson, H. Nakatsuji, M. Caricato, X. Li, H. P. Hratchian, 
 A. F. Izmaylov, J. Bloino, G. Zheng, J. L. Sonnenberg, M. Hada, 
 M. Ehara, K. Toyota, R. Fukuda, J. Hasegawa, M. Ishida, T. Nakajima, 
 Y. Honda, O. Kitao, H. Nakai, T. Vreven, J. A. Montgomery, Jr., 
 J. E. Peralta, F. Ogliaro, M. Bearpark, J. J. Heyd, E. Brothers, 
 K. N. Kudin, V. N. Staroverov, T. Keith, R. Kobayashi, J. Normand, 
 K. Raghavachari, A. Rendell, J. C. Burant, S. S. Iyengar, J. Tomasi, 
 M. Cossi, N. Rega, J. M. Millam, M. Klene, J. E. Knox, J. B. Cross, 
 V. Bakken, C. Adamo, J. Jaramillo, R. Gomperts, R. E. Stratmann, 
 O. Yazyev, A. J. Austin, R. Cammi, C. Pomelli, J. W. Ochterski, 
 R. L. Martin, K. Morokuma, V. G. Zakrzewski, G. A. Voth, 
 P. Salvador, J. J. Dannenberg, S. Dapprich, A. D. Daniels, 
 O. Farkas, J. B. Foresman, J. V. Ortiz, J. Cioslowski, 
 and D. J. Fox, Gaussian, Inc., Wallingford CT, 2013.
 
 ******************************************
 Gaussian 09:  ES64L-G09RevD.01 24-Apr-2013
                26-Aug-2020 
 ******************************************
 %chk=/home/boittier/MDCM/nms_sampling/methanol_geom.xyz.dir/methanol_1033.chk
 %nproc=8
 Will use up to    8 processors via shared memory.
 %mem=16000MB
 --------------------
 #p B2PLYPD3/Def2QZVP
 --------------------
 1/38=1/1;
 2/12=2,17=6,18=5,40=1/2;
 3/5=45,7=101,11=9,16=1,25=1,30=1,74=-60/1,2,3;
 4//1;
 5/5=2,38=5/2;
 8/10=1/1;
 9/16=-3/6;
 6/7=2,8=2,9=2,10=2/1;
 99/5=1,9=1/99;
 Leave Link    1 at Wed Aug 26 09:56:56 2020, MaxMem=  2097152000 cpu:         0.3
 (Enter /opt/cluster/programs/g09/g09_d.01/g09/l101.exe)
 --------
 methanol
 --------
 Symbolic Z-matrix:
 Charge =  0 Multiplicity = 1
 C                    -5.18191  -1.25586   0.90802 
 O                    -3.76939  -1.12319   0.85122 
 H                    -5.49789  -2.26245   0.52567 
 H                    -5.69764  -0.44808   0.36247 
 H                    -5.43994  -1.14127   2.03964 
 H                    -3.44499  -1.19446   0.1081 
 
 NAtoms=      6 NQM=        6 NQMF=       0 NMMI=      0 NMMIF=      0
                NMic=       0 NMicF=      0.
                    Isotopes and Nuclear Properties:
 (Nuclear quadrupole moments (NQMom) in fm**2, nuclear magnetic moments (NMagM)
  in nuclear magnetons)

  Atom         1           2           3           4           5           6
 IAtWgt=          12          16           1           1           1           1
 AtmWgt=  12.0000000  15.9949146   1.0078250   1.0078250   1.0078250   1.0078250
 NucSpn=           0           0           1           1           1           1
 AtZEff=   0.0000000   0.0000000   0.0000000   0.0000000   0.0000000   0.0000000
 NQMom=    0.0000000   0.0000000   0.0000000   0.0000000   0.0000000   0.0000000
 NMagM=    0.0000000   0.0000000   2.7928460   2.7928460   2.7928460   2.7928460
 AtZNuc=   6.0000000   8.0000000   1.0000000   1.0000000   1.0000000   1.0000000
 Leave Link  101 at Wed Aug 26 09:56:56 2020, MaxMem=  2097152000 cpu:         0.5
 (Enter /opt/cluster/programs/g09/g09_d.01/g09/l202.exe)
                          Input orientation:                          
 ---------------------------------------------------------------------
 Center     Atomic      Atomic             Coordinates (Angstroms)
 Number     Number       Type             X           Y           Z
 ---------------------------------------------------------------------
      1          6           0       -5.181908   -1.255859    0.908017
      2          8           0       -3.769394   -1.123188    0.851215
      3          1           0       -5.497890   -2.262450    0.525672
      4          1           0       -5.697639   -0.448080    0.362472
      5          1           0       -5.439944   -1.141271    2.039640
      6          1           0       -3.444989   -1.194459    0.108095
 ---------------------------------------------------------------------
                    Distance matrix (angstroms):
                    1          2          3          4          5
     1  C    0.000000
     2  O    1.419868   0.000000
     3  H    1.122167   2.095613   0.000000
     4  H    1.102771   2.100659   1.832614   0.000000
     5  H    1.166312   2.050224   1.884807   1.832979   0.000000
     6  H    1.913252   0.813969   2.351463   2.386676   2.777326
                    6
     6  H    0.000000
 Stoichiometry    CH4O
 Framework group  C1[X(CH4O)]
 Deg. of freedom    12
 Full point group                 C1      NOp   1
 Largest Abelian subgroup         C1      NOp   1
 Largest concise Abelian subgroup C1      NOp   1
                         Standard orientation:                         
 ---------------------------------------------------------------------
 Center     Atomic      Atomic             Coordinates (Angstroms)
 Number     Number       Type             X           Y           Z
 ---------------------------------------------------------------------
      1          6           0        0.668187   -0.028408    0.001545
      2          8           0       -0.745882    0.099421   -0.008075
      3          1           0        1.009905   -0.678533   -0.846880
      4          1           0        1.044655   -0.409356    0.965524
      5          1           0        1.060139    1.062554   -0.126746
      6          1           0       -1.156769   -0.599581    0.063432
 ---------------------------------------------------------------------
 Rotational constants (GHZ):    128.0879893     24.7030047     24.0233848
 Leave Link  202 at Wed Aug 26 09:56:56 2020, MaxMem=  2097152000 cpu:         0.1
 (Enter /opt/cluster/programs/g09/g09_d.01/g09/l301.exe)
 Standard basis: def2QZVP (5D, 7F)
 Ernie: Thresh=  0.10000D-02 Tol=  0.10000D-05 Strict=F.
 There are   284 symmetry adapted cartesian basis functions of A   symmetry.
 There are   234 symmetry adapted basis functions of A   symmetry.
   234 basis functions,   336 primitive gaussians,   284 cartesian basis functions
     9 alpha electrons        9 beta electrons
       nuclear repulsion energy        40.7764801003 Hartrees.
 IExCor=  419 DFT=T Ex+Corr=B2PLYPD3 ExCW=0 ScaHFX=  0.530000
 ScaDFX=  0.470000  0.470000  0.730000  0.730000 ScalE2=  0.270000  0.270000
 IRadAn=      0 IRanWt=     -1 IRanGd=            0 ICorTp=0 IEmpDi=141
 NAtoms=    6 NActive=    6 NUniq=    6 SFac= 1.00D+00 NAtFMM=   60 NAOKFM=F Big=F
 Integral buffers will be    131072 words long.
 Regular integral format.
 Two-electron integral symmetry is turned on.
 R6Disp:  Grimme-D3(BJ) Dispersion energy=       -0.0013076256 Hartrees.
 Nuclear repulsion after empirical dispersion term =       40.7751724747 Hartrees.
 Leave Link  301 at Wed Aug 26 09:56:56 2020, MaxMem=  2097152000 cpu:         0.4
 (Enter /opt/cluster/programs/g09/g09_d.01/g09/l302.exe)
 NPDir=0 NMtPBC=     1 NCelOv=     1 NCel=       1 NClECP=     1 NCelD=      1
         NCelK=      1 NCelE2=     1 NClLst=     1 CellRange=     0.0.
 One-electron integrals computed using PRISM.
   1 Symmetry operations used in ECPInt.
 ECPInt:  NShTT=    2775 NPrTT=    6207 LenC2=    2774 LenP2D=    5734.
 LDataN:  DoStor=T MaxTD1= 8 Len=  415
 NBasis=   234 RedAO= T EigKep=  1.10D-04  NBF=   234
 NBsUse=   234 1.00D-06 EigRej= -1.00D+00 NBFU=   234
 Precomputing XC quadrature grid using
 IXCGrd= 4 IRadAn=           0 IRanWt=          -1 IRanGd=           0 AccXCQ= 0.00D+00.
 Generated NRdTot=       0 NPtTot=           0 NUsed=           0 NTot=          32
 NSgBfM=   284   284   284   284   284 MxSgAt=     6 MxSgA2=     6.
 Leave Link  302 at Wed Aug 26 09:56:56 2020, MaxMem=  2097152000 cpu:         1.8
 (Enter /opt/cluster/programs/g09/g09_d.01/g09/l303.exe)
 DipDrv:  MaxL=1.
 Leave Link  303 at Wed Aug 26 09:56:56 2020, MaxMem=  2097152000 cpu:         0.3
 (Enter /opt/cluster/programs/g09/g09_d.01/g09/l401.exe)
 ExpMin= 7.60D-02 ExpMax= 1.17D+05 ExpMxC= 1.13D+03 IAcc=2 IRadAn=         4 AccDes= 0.00D+00
 Harris functional with IExCor=  419 and IRadAn=       4 diagonalized for initial guess.
 HarFok:  IExCor=  419 AccDes= 0.00D+00 IRadAn=         4 IDoV= 1 UseB2=F ITyADJ=14
 ICtDFT=  3500011 ScaDFX=  1.000000  1.000000  1.000000  1.000000
 FoFCou: FMM=F IPFlag=           0 FMFlag=      100000 FMFlg1=           0
         NFxFlg=           0 DoJE=T BraDBF=F KetDBF=T FulRan=T
         wScrn=  0.000000 ICntrl=     500 IOpCl=  0 I1Cent=   200000004 NGrid=           0
         NMat0=    1 NMatS0=      1 NMatT0=    0 NMatD0=    1 NMtDS0=    0 NMtDT0=    0
 Petite list used in FoFCou.
 Harris En= -115.791938621083    
 JPrj=0 DoOrth=F DoCkMO=F.
 Leave Link  401 at Wed Aug 26 09:56:57 2020, MaxMem=  2097152000 cpu:         3.3
 (Enter /opt/cluster/programs/g09/g09_d.01/g09/l502.exe)
 Closed shell SCF:
 Using DIIS extrapolation, IDIIS=  1040.
 Integral symmetry usage will be decided dynamically.
 Keep R1 ints in memory in canonical form, NReq=389840494.
 IVT=      264814 IEndB=      264814 NGot=  2097152000 MDV=  1718885927
 LenX=  1718885927 LenY=  1718804830
 Requested convergence on RMS density matrix=1.00D-08 within 128 cycles.
 Requested convergence on MAX density matrix=1.00D-06.
 Requested convergence on             energy=1.00D-06.
 No special actions if energy rises.
 FoFCou: FMM=F IPFlag=           0 FMFlag=           0 FMFlg1=           0
         NFxFlg=           0 DoJE=F BraDBF=F KetDBF=F FulRan=T
         wScrn=  0.000000 ICntrl=     600 IOpCl=  0 I1Cent=           0 NGrid=           0
         NMat0=    1 NMatS0=  27495 NMatT0=    0 NMatD0=    1 NMtDS0=    0 NMtDT0=    0
 Symmetry not used in FoFCou.
 Integral accuracy reduced to 1.0D-05 until final iterations.

 Cycle   1  Pass 0  IDiag  1:
 E= -115.414346183374    
 DIIS: error= 2.71D-02 at cycle   1 NSaved=   1.
 NSaved= 1 IEnMin= 1 EnMin= -115.414346183374     IErMin= 1 ErrMin= 2.71D-02
 ErrMax= 2.71D-02  0.00D+00 EMaxC= 1.00D-01 BMatC= 2.02D-01 BMatP= 2.02D-01
 IDIUse=3 WtCom= 7.29D-01 WtEn= 2.71D-01
 Coeff-Com:  0.100D+01
 Coeff-En:   0.100D+01
 Coeff:      0.100D+01
 Gap=     0.337 Goal=   None    Shift=    0.000
 GapD=    0.337 DampG=1.000 DampE=0.500 DampFc=0.5000 IDamp=-1.
 Damping current iteration by 5.00D-01
 RMSDP=1.40D-03 MaxDP=5.36D-02              OVMax= 1.61D-01

 Cycle   2  Pass 0  IDiag  1:
 E= -115.466541936891     Delta-E=       -0.052195753517 Rises=F Damp=T
 DIIS: error= 1.28D-02 at cycle   2 NSaved=   2.
 NSaved= 2 IEnMin= 2 EnMin= -115.466541936891     IErMin= 2 ErrMin= 1.28D-02
 ErrMax= 1.28D-02  0.00D+00 EMaxC= 1.00D-01 BMatC= 1.84D-02 BMatP= 2.02D-01
 IDIUse=3 WtCom= 8.72D-01 WtEn= 1.28D-01
 Coeff-Com: -0.107D+00 0.111D+01
 Coeff-En:   0.000D+00 0.100D+01
 Coeff:     -0.933D-01 0.109D+01
 Gap=     0.434 Goal=   None    Shift=    0.000
 RMSDP=3.49D-04 MaxDP=9.77D-03 DE=-5.22D-02 OVMax= 9.05D-02

 Cycle   3  Pass 0  IDiag  1:
 E= -115.519288125416     Delta-E=       -0.052746188525 Rises=F Damp=F
 DIIS: error= 4.56D-03 at cycle   3 NSaved=   3.
 NSaved= 3 IEnMin= 3 EnMin= -115.519288125416     IErMin= 3 ErrMin= 4.56D-03
 ErrMax= 4.56D-03  0.00D+00 EMaxC= 1.00D-01 BMatC= 3.30D-03 BMatP= 1.84D-02
 IDIUse=3 WtCom= 9.54D-01 WtEn= 4.56D-02
 Coeff-Com: -0.115D+00 0.274D+00 0.842D+00
 Coeff-En:   0.000D+00 0.000D+00 0.100D+01
 Coeff:     -0.110D+00 0.261D+00 0.849D+00
 Gap=     0.413 Goal=   None    Shift=    0.000
 RMSDP=1.06D-04 MaxDP=4.07D-03 DE=-5.27D-02 OVMax= 1.27D-02

 Cycle   4  Pass 0  IDiag  1:
 E= -115.521137951395     Delta-E=       -0.001849825979 Rises=F Damp=F
 DIIS: error= 1.41D-03 at cycle   4 NSaved=   4.
 NSaved= 4 IEnMin= 4 EnMin= -115.521137951395     IErMin= 4 ErrMin= 1.41D-03
 ErrMax= 1.41D-03  0.00D+00 EMaxC= 1.00D-01 BMatC= 3.38D-04 BMatP= 3.30D-03
 IDIUse=3 WtCom= 9.86D-01 WtEn= 1.41D-02
 Coeff-Com: -0.401D-01 0.696D-01 0.352D+00 0.618D+00
 Coeff-En:   0.000D+00 0.000D+00 0.000D+00 0.100D+01
 Coeff:     -0.395D-01 0.686D-01 0.347D+00 0.624D+00
 Gap=     0.412 Goal=   None    Shift=    0.000
 RMSDP=3.35D-05 MaxDP=1.71D-03 DE=-1.85D-03 OVMax= 4.85D-03

 Cycle   5  Pass 0  IDiag  1:
 E= -115.521417496722     Delta-E=       -0.000279545326 Rises=F Damp=F
 DIIS: error= 1.80D-04 at cycle   5 NSaved=   5.
 NSaved= 5 IEnMin= 5 EnMin= -115.521417496722     IErMin= 5 ErrMin= 1.80D-04
 ErrMax= 1.80D-04  0.00D+00 EMaxC= 1.00D-01 BMatC= 6.13D-06 BMatP= 3.38D-04
 IDIUse=3 WtCom= 9.98D-01 WtEn= 1.80D-03
 Coeff-Com: -0.624D-02 0.749D-02 0.612D-01 0.177D+00 0.760D+00
 Coeff-En:   0.000D+00 0.000D+00 0.000D+00 0.000D+00 0.100D+01
 Coeff:     -0.623D-02 0.747D-02 0.611D-01 0.177D+00 0.761D+00
 Gap=     0.412 Goal=   None    Shift=    0.000
 RMSDP=6.81D-06 MaxDP=2.05D-04 DE=-2.80D-04 OVMax= 5.69D-04

 Initial convergence to 1.0D-05 achieved.  Increase integral accuracy.
 Cycle   6  Pass 1  IDiag  1:
 E= -115.521425138478     Delta-E=       -0.000007641757 Rises=F Damp=F
 DIIS: error= 2.12D-05 at cycle   1 NSaved=   1.
 NSaved= 1 IEnMin= 1 EnMin= -115.521425138478     IErMin= 1 ErrMin= 2.12D-05
 ErrMax= 2.12D-05  0.00D+00 EMaxC= 1.00D-01 BMatC= 7.98D-08 BMatP= 7.98D-08
 IDIUse=1 WtCom= 1.00D+00 WtEn= 0.00D+00
 Coeff-Com:  0.100D+01
 Coeff:      0.100D+01
 Gap=     0.412 Goal=   None    Shift=    0.000
 RMSDP=6.81D-06 MaxDP=2.05D-04 DE=-7.64D-06 OVMax= 1.10D-04

 Cycle   7  Pass 1  IDiag  1:
 E= -115.521425252856     Delta-E=       -0.000000114378 Rises=F Damp=F
 DIIS: error= 4.54D-06 at cycle   2 NSaved=   2.
 NSaved= 2 IEnMin= 2 EnMin= -115.521425252856     IErMin= 2 ErrMin= 4.54D-06
 ErrMax= 4.54D-06  0.00D+00 EMaxC= 1.00D-01 BMatC= 4.60D-09 BMatP= 7.98D-08
 IDIUse=1 WtCom= 1.00D+00 WtEn= 0.00D+00
 Coeff-Com: -0.782D-01 0.108D+01
 Coeff:     -0.782D-01 0.108D+01
 Gap=     0.412 Goal=   None    Shift=    0.000
 RMSDP=5.26D-07 MaxDP=1.46D-05 DE=-1.14D-07 OVMax= 4.00D-05

 Cycle   8  Pass 1  IDiag  1:
 E= -115.521425262271     Delta-E=       -0.000000009415 Rises=F Damp=F
 DIIS: error= 2.58D-06 at cycle   3 NSaved=   3.
 NSaved= 3 IEnMin= 3 EnMin= -115.521425262271     IErMin= 3 ErrMin= 2.58D-06
 ErrMax= 2.58D-06  0.00D+00 EMaxC= 1.00D-01 BMatC= 7.95D-10 BMatP= 4.60D-09
 IDIUse=1 WtCom= 1.00D+00 WtEn= 0.00D+00
 Coeff-Com: -0.719D-01 0.193D+00 0.879D+00
 Coeff:     -0.719D-01 0.193D+00 0.879D+00
 Gap=     0.412 Goal=   None    Shift=    0.000
 RMSDP=1.39D-07 MaxDP=4.81D-06 DE=-9.41D-09 OVMax= 1.32D-05

 Cycle   9  Pass 1  IDiag  1:
 E= -115.521425263158     Delta-E=       -0.000000000887 Rises=F Damp=F
 DIIS: error= 9.05D-07 at cycle   4 NSaved=   4.
 NSaved= 4 IEnMin= 4 EnMin= -115.521425263158     IErMin= 4 ErrMin= 9.05D-07
 ErrMax= 9.05D-07  0.00D+00 EMaxC= 1.00D-01 BMatC= 1.91D-10 BMatP= 7.95D-10
 IDIUse=1 WtCom= 1.00D+00 WtEn= 0.00D+00
 Coeff-Com: -0.216D-01-0.117D-01 0.368D+00 0.666D+00
 Coeff:     -0.216D-01-0.117D-01 0.368D+00 0.666D+00
 Gap=     0.412 Goal=   None    Shift=    0.000
 RMSDP=3.28D-08 MaxDP=1.23D-06 DE=-8.87D-10 OVMax= 4.21D-06

 Cycle  10  Pass 1  IDiag  1:
 E= -115.521425263309     Delta-E=       -0.000000000151 Rises=F Damp=F
 DIIS: error= 2.44D-07 at cycle   5 NSaved=   5.
 NSaved= 5 IEnMin= 5 EnMin= -115.521425263309     IErMin= 5 ErrMin= 2.44D-07
 ErrMax= 2.44D-07  0.00D+00 EMaxC= 1.00D-01 BMatC= 7.18D-12 BMatP= 1.91D-10
 IDIUse=1 WtCom= 1.00D+00 WtEn= 0.00D+00
 Coeff-Com:  0.135D-02-0.249D-01 0.159D-01 0.155D+00 0.853D+00
 Coeff:      0.135D-02-0.249D-01 0.159D-01 0.155D+00 0.853D+00
 Gap=     0.412 Goal=   None    Shift=    0.000
 RMSDP=9.23D-09 MaxDP=3.33D-07 DE=-1.51D-10 OVMax= 1.25D-06

 SCF Done:  E(RB2PLYPD3) =  -115.521425263     A.U. after   10 cycles
            NFock= 10  Conv=0.92D-08     -V/T= 2.0012
 KE= 1.153801422335D+02 PE=-3.531027476544D+02 EE= 8.142600768296D+01
 Leave Link  502 at Wed Aug 26 09:57:09 2020, MaxMem=  2097152000 cpu:        62.6
 (Enter /opt/cluster/programs/g09/g09_d.01/g09/l801.exe)
 DoSCS=T DFT=T ScalE2(SS,OS)=  0.270000  0.270000
 ExpMin= 7.60D-02 ExpMax= 1.17D+05 ExpMxC= 1.13D+03 IAcc=3 IRadAn=         5 AccDes= 0.00D+00
 HarFok:  IExCor=  205 AccDes= 0.00D+00 IRadAn=         5 IDoV=-2 UseB2=F ITyADJ=14
 ICtDFT= 12500011 ScaDFX=  1.000000  1.000000  1.000000  1.000000
 Largest valence mixing into a core orbital is  1.20D-04
 Largest core mixing into a valence orbital is  1.50D-05
 Range of M.O.s used for correlation:     3   234
 NBasis=   234 NAE=     9 NBE=     9 NFC=     2 NFV=     0
 NROrb=    232 NOA=     7 NOB=     7 NVA=   225 NVB=   225

 **** Warning!!: The largest alpha MO coefficient is  0.27004386D+02

 Leave Link  801 at Wed Aug 26 09:57:10 2020, MaxMem=  2097152000 cpu:         0.6
 (Enter /opt/cluster/programs/g09/g09_d.01/g09/l906.exe)
 DoSCS=T DFT=T ScalE2(SS,OS)=  0.270000  0.270000
 FulOut=F Deriv=F AODrv=F NAtomX=     6
   MMem=        3646  MDisk=           7 MDiskD=           7
  W3Min=      447300 MinDsk=     1090093 NBas6D=         284
 NBas2D=       41310    NTT=       40470    LW2=     4508827
    MDV=  2096872422 MDiskM=       16391 NBas2p=       41304
 Fully in-core method, ICMem=  1722292712.
 IMap=   1   2   3   4   5   6   7
 JobTyp=1 Pass  1 fully in-core, NPsUse=  8.
 Compute canonical integrals.
 FoFCou: FMM=F IPFlag=           0 FMFlag=           0 FMFlg1=           0
         NFxFlg=           0 DoJE=F BraDBF=F KetDBF=F FulRan=T
         wScrn=  0.000000 ICntrl=     600 IOpCl=  1 I1Cent=           0 NGrid=           0
         NMat0=    1 NMatS0=  41310 NMatT0=    0 NMatD0=    1 NMtDS0=    0 NMtDT0=    0
 Symmetry not used in FoFCou.
 Spin components of T(2) and E(2):
     alpha-alpha T2 =       0.1989577740D-01 E2=     -0.1638463750D-01
     alpha-beta  T2 =       0.1276960038D+00 E2=     -0.1123982401D+00
     beta-beta   T2 =       0.1989577740D-01 E2=     -0.1638463750D-01
 The integrals were generated   1 times.
 E2(B2PLYPD3) =    -0.1451675151D+00 E(B2PLYPD3) =    -0.11566659277840D+03
 Leave Link  906 at Wed Aug 26 09:57:25 2020, MaxMem=  2097152000 cpu:       118.9
 (Enter /opt/cluster/programs/g09/g09_d.01/g09/l601.exe)
 Copying SCF densities to generalized density rwf, IOpCl= 0 IROHF=0.

 **********************************************************************

            Population analysis using the SCF density.

 **********************************************************************

 Orbital symmetries:
       Occupied  (A) (A) (A) (A) (A) (A) (A) (A) (A)
       Virtual   (A) (A) (A) (A) (A) (A) (A) (A) (A) (A) (A) (A)
                 (A) (A) (A) (A) (A) (A) (A) (A) (A) (A) (A) (A)
                 (A) (A) (A) (A) (A) (A) (A) (A) (A) (A) (A) (A)
                 (A) (A) (A) (A) (A) (A) (A) (A) (A) (A) (A) (A)
                 (A) (A) (A) (A) (A) (A) (A) (A) (A) (A) (A) (A)
                 (A) (A) (A) (A) (A) (A) (A) (A) (A) (A) (A) (A)
                 (A) (A) (A) (A) (A) (A) (A) (A) (A) (A) (A) (A)
                 (A) (A) (A) (A) (A) (A) (A) (A) (A) (A) (A) (A)
                 (A) (A) (A) (A) (A) (A) (A) (A) (A) (A) (A) (A)
                 (A) (A) (A) (A) (A) (A) (A) (A) (A) (A) (A) (A)
                 (A) (A) (A) (A) (A) (A) (A) (A) (A) (A) (A) (A)
                 (A) (A) (A) (A) (A) (A) (A) (A) (A) (A) (A) (A)
                 (A) (A) (A) (A) (A) (A) (A) (A) (A) (A) (A) (A)
                 (A) (A) (A) (A) (A) (A) (A) (A) (A) (A) (A) (A)
                 (A) (A) (A) (A) (A) (A) (A) (A) (A) (A) (A) (A)
                 (A) (A) (A) (A) (A) (A) (A) (A) (A) (A) (A) (A)
                 (A) (A) (A) (A) (A) (A) (A) (A) (A) (A) (A) (A)
                 (A) (A) (A) (A) (A) (A) (A) (A) (A) (A) (A) (A)
                 (A) (A) (A) (A) (A) (A) (A) (A) (A)
 The electronic state is 1-A.
 Alpha  occ. eigenvalues --  -19.70883 -10.67231  -1.19601  -0.79837  -0.60602
 Alpha  occ. eigenvalues --   -0.51939  -0.49417  -0.40407  -0.35808
 Alpha virt. eigenvalues --    0.05389   0.08774   0.11945   0.12226   0.14746
 Alpha virt. eigenvalues --    0.16875   0.17990   0.29007   0.33031   0.33368
 Alpha virt. eigenvalues --    0.36879   0.38819   0.39820   0.40529   0.42424
 Alpha virt. eigenvalues --    0.47807   0.53260   0.57342   0.59733   0.67076
 Alpha virt. eigenvalues --    0.70501   0.71760   0.73995   0.78418   0.79764
 Alpha virt. eigenvalues --    0.82238   0.86547   0.88055   0.93298   0.96259
 Alpha virt. eigenvalues --    1.02062   1.03661   1.05420   1.08844   1.10105
 Alpha virt. eigenvalues --    1.11340   1.20439   1.24049   1.30987   1.39465
 Alpha virt. eigenvalues --    1.39549   1.40901   1.41952   1.47336   1.49959
 Alpha virt. eigenvalues --    1.78463   1.80099   1.85008   1.89485   1.89696
 Alpha virt. eigenvalues --    1.94575   1.95528   1.97463   2.00302   2.02895
 Alpha virt. eigenvalues --    2.04245   2.13766   2.18549   2.19017   2.21094
 Alpha virt. eigenvalues --    2.26085   2.30528   2.30911   2.36976   2.43506
 Alpha virt. eigenvalues --    2.44500   2.46536   2.58792   2.62017   2.63631
 Alpha virt. eigenvalues --    2.64612   2.70641   2.72152   2.77707   2.83808
 Alpha virt. eigenvalues --    2.85670   2.89372   2.90283   2.91290   2.95063
 Alpha virt. eigenvalues --    2.98251   3.04427   3.06466   3.12473   3.17541
 Alpha virt. eigenvalues --    3.23227   3.29688   3.33698   3.36119   3.42046
 Alpha virt. eigenvalues --    3.45814   3.63386   3.70591   3.78993   3.85293
 Alpha virt. eigenvalues --    3.88736   3.98896   4.05538   4.06751   4.15762
 Alpha virt. eigenvalues --    4.20630   4.21229   4.30435   4.34621   4.54610
 Alpha virt. eigenvalues --    4.55581   4.74631   4.76793   4.95956   5.23995
 Alpha virt. eigenvalues --    5.40605   5.42443   5.48806   5.66047   5.71847
 Alpha virt. eigenvalues --    5.73931   5.80480   5.83526   5.88186   5.89080
 Alpha virt. eigenvalues --    5.91113   5.98503   6.00436   6.06305   6.09371
 Alpha virt. eigenvalues --    6.15059   6.18345   6.26649   6.28812   6.32348
 Alpha virt. eigenvalues --    6.35370   6.38551   6.42074   6.48126   6.50029
 Alpha virt. eigenvalues --    6.55567   6.63459   6.70645   6.74837   6.87034
 Alpha virt. eigenvalues --    6.94097   6.97183   7.08897   7.13541   7.23618
 Alpha virt. eigenvalues --    7.27691   7.27898   7.29330   7.32992   7.39547
 Alpha virt. eigenvalues --    7.44485   7.48113   7.52577   7.62747   7.66330
 Alpha virt. eigenvalues --    7.70460   7.76441   7.78155   7.80115   7.82011
 Alpha virt. eigenvalues --    7.84606   7.86059   7.98162   8.00310   8.10869
 Alpha virt. eigenvalues --    8.12131   8.25021   8.31666   8.35147   8.41726
 Alpha virt. eigenvalues --    8.43367   8.46104   8.47242   8.51997   8.53629
 Alpha virt. eigenvalues --    8.59441   8.76338   8.81966   8.85556   8.89145
 Alpha virt. eigenvalues --    8.91231   8.99227   9.09850   9.42078   9.46745
 Alpha virt. eigenvalues --    9.54473   9.59078   9.66777   9.68576   9.70706
 Alpha virt. eigenvalues --    9.77074   9.84919   9.92531  10.03417  10.08205
 Alpha virt. eigenvalues --   10.14298  10.27250  10.32904  10.39020  10.72778
 Alpha virt. eigenvalues --   11.02674  11.19317  11.37416  11.49269  11.66095
 Alpha virt. eigenvalues --   11.74737  11.84615  12.00093  12.14062  12.15316
 Alpha virt. eigenvalues --   12.67374  12.70024  12.83114  12.88962  12.90704
 Alpha virt. eigenvalues --   13.10040  13.55650  15.02210  15.35892  15.44540
 Alpha virt. eigenvalues --   16.54282  29.07773  49.07897 148.64721 254.93282
          Condensed to atoms (all electrons):
               1          2          3          4          5          6
     1  C    4.459711   0.270378   0.430038   0.425102   0.398295  -0.043820
     2  O    0.270378   7.886058  -0.051947  -0.048087  -0.040000   0.355552
     3  H    0.430038  -0.051947   0.653087  -0.047222  -0.032677  -0.003844
     4  H    0.425102  -0.048087  -0.047222   0.653885  -0.036232  -0.003652
     5  H    0.398295  -0.040000  -0.032677  -0.036232   0.632151   0.008200
     6  H   -0.043820   0.355552  -0.003844  -0.003652   0.008200   0.554938
 Mulliken charges:
               1
     1  C    0.060297
     2  O   -0.371955
     3  H    0.052565
     4  H    0.056206
     5  H    0.070262
     6  H    0.132625
 Sum of Mulliken charges =   0.00000
 Mulliken charges with hydrogens summed into heavy atoms:
               1
     1  C    0.239330
     2  O   -0.239330
 Electronic spatial extent (au):  <R**2>=             84.6508
 Charge=              0.0000 electrons
 Dipole moment (field-independent basis, Debye):
    X=              0.8097    Y=             -1.3666    Z=              0.1576  Tot=              1.5962
 Quadrupole moment (field-independent basis, Debye-Ang):
   XX=            -12.9116   YY=            -12.4994   ZZ=            -13.6456
   XY=              2.0293   XZ=             -0.1482   YZ=             -0.0669
 Traceless Quadrupole moment (field-independent basis, Debye-Ang):
   XX=              0.1073   YY=              0.5194   ZZ=             -0.6267
   XY=              2.0293   XZ=             -0.1482   YZ=             -0.0669
 Octapole moment (field-independent basis, Debye-Ang**2):
  XXX=             -5.5286  YYY=             -0.2923  ZZZ=              0.3498  XYY=             -1.5101
  XXY=             -2.3239  XXZ=              0.3465  XZZ=             -0.4692  YZZ=             -0.8051
  YYZ=             -0.1832  XYZ=              0.1534
 Hexadecapole moment (field-independent basis, Debye-Ang**3):
 XXXX=            -62.1528 YYYY=            -21.0016 ZZZZ=            -20.5120 XXXY=              3.6866
 XXXZ=             -0.1634 YYYX=              2.7312 YYYZ=             -0.1023 ZZZX=              0.2211
 ZZZY=              0.0095 XXYY=            -13.2690 XXZZ=            -14.5055 YYZZ=             -7.0551
 XXYZ=             -0.1505 YYXZ=             -0.3643 ZZXY=             -0.1905
 N-N= 4.077517247467D+01 E-N=-3.531027236479D+02  KE= 1.153801422335D+02
 Leave Link  601 at Wed Aug 26 09:57:25 2020, MaxMem=  2097152000 cpu:         0.3
 (Enter /opt/cluster/programs/g09/g09_d.01/g09/l9999.exe)
 1\1\GINC-NODE40\SP\RB2PLYPD3-FC\def2QZVP\C1H4O1\BOITTIER\26-Aug-2020\0
 \\#p B2PLYPD3/Def2QZVP\\methanol\\0,1\C,0,-5.181908,-1.255859,0.908017
 \O,0,-3.769394,-1.123188,0.851215\H,0,-5.49789,-2.26245,0.525672\H,0,-
 5.697639,-0.44808,0.362472\H,0,-5.439944,-1.141271,2.03964\H,0,-3.4449
 89,-1.194459,0.108095\\Version=ES64L-G09RevD.01\State=1-A\HF=-115.5214
 253\MP2=-115.6665928\RMSD=9.231e-09\PG=C01 [X(C1H4O1)]\\@


 EXPERIMENTALISTS THINK SILICON IS REALLY FUN TO USE
     ITS PLACE IN NOVEL COMPOUNDS IS CERTAIN TO AMUSE
 THEY SIT ALL DAY IN LABORATORIES MAKING ALL THIS SLUDGE
     "LOADED WITH THE SILICON THEY SAY", TO ME IT LOOKS LIKE FUDGE.
 FOR HAPPY THOUGH THEY BE WITH CRUD, I'D LIKE TO KNOW A LITTLE
      ABOUT THE PI BONDS ON THE EDGE AND SIGMAS IN THE MIDDLE.

 SO LETS DERIVE A WAVEFUNCTION.....6-31G*
     USE AN OPTIMAL GEOMETRY AND SEE WHERE ELECTRONS ARE.
 BUT WHAT OF CORRELATION?  ASKS THE WIRY LITTLE SKEPTIC.
     WE'LL THROW IN PERTURBATION AS AN ELECTRON ANTISEPTIC.
 AND WHEN THE PROGRAM GIVES US ANSWERS IN THEM WE CAN TRUST
     SINCE NOBODY CAN MAKE THE STUFF, WE HAVE NO CHOICE, WE MUST.

 SO THEORY GUYS HAVE GOT IT MADE, IN ROOMS FREE OF POLLUTION.
     INSTEAD OF PROBLEMS WITH THE REFLUX, THEY HAVE ONLY SOLUTIONS.
 AND WHEN THE FEDS ANNOUNCE THE LIST OF CARCINOGENIC TERRORS,
     THE THEORISTS SIT SAFELY AT THEIR TERMINALS FIXING ERRORS.
 IN OTHER WORDS, EXPERIMENTALISTS WILL LIKELY DIE OF CANCER
     FROM WORKING HARD YET FRUITLESSLY...TILL THEORY GIVES THE ANSWER.
          -- THOMAS A. HOLME, 1983
 Job cpu time:       0 days  0 hours  3 minutes  9.4 seconds.
 File lengths (MBytes):  RWF=     23 Int=      0 D2E=      0 Chk=      4 Scr=      1
 Normal termination of Gaussian 09 at Wed Aug 26 09:57:25 2020.
