 Entering Gaussian System, Link 0=/opt/cluster/programs/g09/g09_d.01/g09//g09
 Input=/home/boittier/MDCM/nms_sampling/methanol_geom.xyz.dir/energies/methanol_316_energy.com
 Output=/scratch/boittier/methanol_316_energy/methanol_316_energy.out
 Initial command:
 /opt/cluster/programs/g09/g09_d.01/g09/l1.exe "/scratch/boittier/methanol_316_energy/Gau-88389.inp" -scrdir="/scratch/boittier/methanol_316_energy/"
 Entering Link 1 = /opt/cluster/programs/g09/g09_d.01/g09/l1.exe PID=     88390.
  
 Copyright (c) 1988,1990,1992,1993,1995,1998,2003,2009,2013,
            Gaussian, Inc.  All Rights Reserved.
  
 This is part of the Gaussian(R) 09 program.  It is based on
 the Gaussian(R) 03 system (copyright 2003, Gaussian, Inc.),
 the Gaussian(R) 98 system (copyright 1998, Gaussian, Inc.),
 the Gaussian(R) 94 system (copyright 1995, Gaussian, Inc.),
 the Gaussian 92(TM) system (copyright 1992, Gaussian, Inc.),
 the Gaussian 90(TM) system (copyright 1990, Gaussian, Inc.),
 the Gaussian 88(TM) system (copyright 1988, Gaussian, Inc.),
 the Gaussian 86(TM) system (copyright 1986, Carnegie Mellon
 University), and the Gaussian 82(TM) system (copyright 1983,
 Carnegie Mellon University). Gaussian is a federally registered
 trademark of Gaussian, Inc.
  
 This software contains proprietary and confidential information,
 including trade secrets, belonging to Gaussian, Inc.
  
 This software is provided under written license and may be
 used, copied, transmitted, or stored only in accord with that
 written license.
  
 The following legend is applicable only to US Government
 contracts under FAR:
  
                    RESTRICTED RIGHTS LEGEND
  
 Use, reproduction and disclosure by the US Government is
 subject to restrictions as set forth in subparagraphs (a)
 and (c) of the Commercial Computer Software - Restricted
 Rights clause in FAR 52.227-19.
  
 Gaussian, Inc.
 340 Quinnipiac St., Bldg. 40, Wallingford CT 06492
  
  
 ---------------------------------------------------------------
 Warning -- This program may not be used in any manner that
 competes with the business of Gaussian, Inc. or will provide
 assistance to any competitor of Gaussian, Inc.  The licensee
 of this program is prohibited from giving any competitor of
 Gaussian, Inc. access to this program.  By using this program,
 the user acknowledges that Gaussian, Inc. is engaged in the
 business of creating and licensing software in the field of
 computational chemistry and represents and warrants to the
 licensee that it is not a competitor of Gaussian, Inc. and that
 it will not use this program in any manner prohibited above.
 ---------------------------------------------------------------
  

 Cite this work as:
 Gaussian 09, Revision D.01,
 M. J. Frisch, G. W. Trucks, H. B. Schlegel, G. E. Scuseria, 
 M. A. Robb, J. R. Cheeseman, G. Scalmani, V. Barone, B. Mennucci, 
 G. A. Petersson, H. Nakatsuji, M. Caricato, X. Li, H. P. Hratchian, 
 A. F. Izmaylov, J. Bloino, G. Zheng, J. L. Sonnenberg, M. Hada, 
 M. Ehara, K. Toyota, R. Fukuda, J. Hasegawa, M. Ishida, T. Nakajima, 
 Y. Honda, O. Kitao, H. Nakai, T. Vreven, J. A. Montgomery, Jr., 
 J. E. Peralta, F. Ogliaro, M. Bearpark, J. J. Heyd, E. Brothers, 
 K. N. Kudin, V. N. Staroverov, T. Keith, R. Kobayashi, J. Normand, 
 K. Raghavachari, A. Rendell, J. C. Burant, S. S. Iyengar, J. Tomasi, 
 M. Cossi, N. Rega, J. M. Millam, M. Klene, J. E. Knox, J. B. Cross, 
 V. Bakken, C. Adamo, J. Jaramillo, R. Gomperts, R. E. Stratmann, 
 O. Yazyev, A. J. Austin, R. Cammi, C. Pomelli, J. W. Ochterski, 
 R. L. Martin, K. Morokuma, V. G. Zakrzewski, G. A. Voth, 
 P. Salvador, J. J. Dannenberg, S. Dapprich, A. D. Daniels, 
 O. Farkas, J. B. Foresman, J. V. Ortiz, J. Cioslowski, 
 and D. J. Fox, Gaussian, Inc., Wallingford CT, 2013.
 
 ******************************************
 Gaussian 09:  ES64L-G09RevD.01 24-Apr-2013
                26-Aug-2020 
 ******************************************
 %chk=/home/boittier/MDCM/nms_sampling/methanol_geom.xyz.dir/methanol_316.chk
 %nproc=8
 Will use up to    8 processors via shared memory.
 %mem=16000MB
 --------------------
 #p B2PLYPD3/Def2QZVP
 --------------------
 1/38=1/1;
 2/12=2,17=6,18=5,40=1/2;
 3/5=45,7=101,11=9,16=1,25=1,30=1,74=-60/1,2,3;
 4//1;
 5/5=2,38=5/2;
 8/10=1/1;
 9/16=-3/6;
 6/7=2,8=2,9=2,10=2/1;
 99/5=1,9=1/99;
 Leave Link    1 at Wed Aug 26 22:50:59 2020, MaxMem=  2097152000 cpu:         0.2
 (Enter /opt/cluster/programs/g09/g09_d.01/g09/l101.exe)
 --------
 methanol
 --------
 Symbolic Z-matrix:
 Charge =  0 Multiplicity = 1
 C                    -5.18359  -1.25704   0.91648 
 O                    -3.7684   -1.12399   0.84721 
 H                    -5.5269   -2.25684   0.55851 
 H                    -5.65761  -0.42595   0.30173 
 H                    -5.42809  -1.163     2.02589 
 H                    -3.46083  -1.17569   0.11585 
 
 NAtoms=      6 NQM=        6 NQMF=       0 NMMI=      0 NMMIF=      0
                NMic=       0 NMicF=      0.
                    Isotopes and Nuclear Properties:
 (Nuclear quadrupole moments (NQMom) in fm**2, nuclear magnetic moments (NMagM)
  in nuclear magnetons)

  Atom         1           2           3           4           5           6
 IAtWgt=          12          16           1           1           1           1
 AtmWgt=  12.0000000  15.9949146   1.0078250   1.0078250   1.0078250   1.0078250
 NucSpn=           0           0           1           1           1           1
 AtZEff=   0.0000000   0.0000000   0.0000000   0.0000000   0.0000000   0.0000000
 NQMom=    0.0000000   0.0000000   0.0000000   0.0000000   0.0000000   0.0000000
 NMagM=    0.0000000   0.0000000   2.7928460   2.7928460   2.7928460   2.7928460
 AtZNuc=   6.0000000   8.0000000   1.0000000   1.0000000   1.0000000   1.0000000
 Leave Link  101 at Wed Aug 26 22:50:59 2020, MaxMem=  2097152000 cpu:         0.5
 (Enter /opt/cluster/programs/g09/g09_d.01/g09/l202.exe)
                          Input orientation:                          
 ---------------------------------------------------------------------
 Center     Atomic      Atomic             Coordinates (Angstroms)
 Number     Number       Type             X           Y           Z
 ---------------------------------------------------------------------
      1          6           0       -5.183592   -1.257042    0.916478
      2          8           0       -3.768400   -1.123993    0.847213
      3          1           0       -5.526904   -2.256838    0.558507
      4          1           0       -5.657610   -0.425951    0.301729
      5          1           0       -5.428090   -1.162999    2.025893
      6          1           0       -3.460829   -1.175689    0.115854
 ---------------------------------------------------------------------
                    Distance matrix (angstroms):
                    1          2          3          4          5
     1  C    0.000000
     2  O    1.423119   0.000000
     3  H    1.116064   2.111640   0.000000
     4  H    1.137243   2.086607   1.853420   0.000000
     5  H    1.139923   2.036020   1.832886   1.889090   0.000000
     6  H    1.901455   0.795084   2.373498   2.328627   2.741993
                    6
     6  H    0.000000
 Stoichiometry    CH4O
 Framework group  C1[X(CH4O)]
 Deg. of freedom    12
 Full point group                 C1      NOp   1
 Largest Abelian subgroup         C1      NOp   1
 Largest concise Abelian subgroup C1      NOp   1
                         Standard orientation:                         
 ---------------------------------------------------------------------
 Center     Atomic      Atomic             Coordinates (Angstroms)
 Number     Number       Type             X           Y           Z
 ---------------------------------------------------------------------
      1          6           0       -0.671486   -0.019318    0.000804
      2          8           0        0.746948    0.095672   -0.008669
      3          1           0       -1.051850   -0.413674    0.973123
      4          1           0       -0.987404   -0.694967   -0.857693
      5          1           0       -1.048216    1.048276   -0.132389
      6          1           0        1.140797   -0.589101    0.081486
 ---------------------------------------------------------------------
 Rotational constants (GHZ):    127.8387855     24.6782093     24.0772011
 Leave Link  202 at Wed Aug 26 22:50:59 2020, MaxMem=  2097152000 cpu:         0.0
 (Enter /opt/cluster/programs/g09/g09_d.01/g09/l301.exe)
 Standard basis: def2QZVP (5D, 7F)
 Ernie: Thresh=  0.10000D-02 Tol=  0.10000D-05 Strict=F.
 There are   284 symmetry adapted cartesian basis functions of A   symmetry.
 There are   234 symmetry adapted basis functions of A   symmetry.
   234 basis functions,   336 primitive gaussians,   284 cartesian basis functions
     9 alpha electrons        9 beta electrons
       nuclear repulsion energy        40.8753302924 Hartrees.
 IExCor=  419 DFT=T Ex+Corr=B2PLYPD3 ExCW=0 ScaHFX=  0.530000
 ScaDFX=  0.470000  0.470000  0.730000  0.730000 ScalE2=  0.270000  0.270000
 IRadAn=      0 IRanWt=     -1 IRanGd=            0 ICorTp=0 IEmpDi=141
 NAtoms=    6 NActive=    6 NUniq=    6 SFac= 1.00D+00 NAtFMM=   60 NAOKFM=F Big=F
 Integral buffers will be    131072 words long.
 Regular integral format.
 Two-electron integral symmetry is turned on.
 R6Disp:  Grimme-D3(BJ) Dispersion energy=       -0.0013089023 Hartrees.
 Nuclear repulsion after empirical dispersion term =       40.8740213901 Hartrees.
 Leave Link  301 at Wed Aug 26 22:51:00 2020, MaxMem=  2097152000 cpu:         0.5
 (Enter /opt/cluster/programs/g09/g09_d.01/g09/l302.exe)
 NPDir=0 NMtPBC=     1 NCelOv=     1 NCel=       1 NClECP=     1 NCelD=      1
         NCelK=      1 NCelE2=     1 NClLst=     1 CellRange=     0.0.
 One-electron integrals computed using PRISM.
   1 Symmetry operations used in ECPInt.
 ECPInt:  NShTT=    2775 NPrTT=    6207 LenC2=    2774 LenP2D=    5739.
 LDataN:  DoStor=T MaxTD1= 8 Len=  415
 NBasis=   234 RedAO= T EigKep=  9.86D-05  NBF=   234
 NBsUse=   234 1.00D-06 EigRej= -1.00D+00 NBFU=   234
 Precomputing XC quadrature grid using
 IXCGrd= 4 IRadAn=           0 IRanWt=          -1 IRanGd=           0 AccXCQ= 0.00D+00.
 Generated NRdTot=       0 NPtTot=           0 NUsed=           0 NTot=          32
 NSgBfM=   284   284   284   284   284 MxSgAt=     6 MxSgA2=     6.
 Leave Link  302 at Wed Aug 26 22:51:00 2020, MaxMem=  2097152000 cpu:         2.1
 (Enter /opt/cluster/programs/g09/g09_d.01/g09/l303.exe)
 DipDrv:  MaxL=1.
 Leave Link  303 at Wed Aug 26 22:51:00 2020, MaxMem=  2097152000 cpu:         0.2
 (Enter /opt/cluster/programs/g09/g09_d.01/g09/l401.exe)
 ExpMin= 7.60D-02 ExpMax= 1.17D+05 ExpMxC= 1.13D+03 IAcc=2 IRadAn=         4 AccDes= 0.00D+00
 Harris functional with IExCor=  419 and IRadAn=       4 diagonalized for initial guess.
 HarFok:  IExCor=  419 AccDes= 0.00D+00 IRadAn=         4 IDoV= 1 UseB2=F ITyADJ=14
 ICtDFT=  3500011 ScaDFX=  1.000000  1.000000  1.000000  1.000000
 FoFCou: FMM=F IPFlag=           0 FMFlag=      100000 FMFlg1=           0
         NFxFlg=           0 DoJE=T BraDBF=F KetDBF=T FulRan=T
         wScrn=  0.000000 ICntrl=     500 IOpCl=  0 I1Cent=   200000004 NGrid=           0
         NMat0=    1 NMatS0=      1 NMatT0=    0 NMatD0=    1 NMtDS0=    0 NMtDT0=    0
 Petite list used in FoFCou.
 Harris En= -115.784875643020    
 JPrj=0 DoOrth=F DoCkMO=F.
 Leave Link  401 at Wed Aug 26 22:51:01 2020, MaxMem=  2097152000 cpu:         3.7
 (Enter /opt/cluster/programs/g09/g09_d.01/g09/l502.exe)
 Closed shell SCF:
 Using DIIS extrapolation, IDIIS=  1040.
 Integral symmetry usage will be decided dynamically.
 Keep R1 ints in memory in canonical form, NReq=389840494.
 IVT=      264814 IEndB=      264814 NGot=  2097152000 MDV=  1718885927
 LenX=  1718885927 LenY=  1718804830
 Requested convergence on RMS density matrix=1.00D-08 within 128 cycles.
 Requested convergence on MAX density matrix=1.00D-06.
 Requested convergence on             energy=1.00D-06.
 No special actions if energy rises.
 FoFCou: FMM=F IPFlag=           0 FMFlag=           0 FMFlg1=           0
         NFxFlg=           0 DoJE=F BraDBF=F KetDBF=F FulRan=T
         wScrn=  0.000000 ICntrl=     600 IOpCl=  0 I1Cent=           0 NGrid=           0
         NMat0=    1 NMatS0=  27495 NMatT0=    0 NMatD0=    1 NMtDS0=    0 NMtDT0=    0
 Symmetry not used in FoFCou.
 Integral accuracy reduced to 1.0D-05 until final iterations.

 Cycle   1  Pass 0  IDiag  1:
 E= -115.402283666426    
 DIIS: error= 2.62D-02 at cycle   1 NSaved=   1.
 NSaved= 1 IEnMin= 1 EnMin= -115.402283666426     IErMin= 1 ErrMin= 2.62D-02
 ErrMax= 2.62D-02  0.00D+00 EMaxC= 1.00D-01 BMatC= 2.08D-01 BMatP= 2.08D-01
 IDIUse=3 WtCom= 7.38D-01 WtEn= 2.62D-01
 Coeff-Com:  0.100D+01
 Coeff-En:   0.100D+01
 Coeff:      0.100D+01
 Gap=     0.340 Goal=   None    Shift=    0.000
 GapD=    0.340 DampG=1.000 DampE=0.500 DampFc=0.5000 IDamp=-1.
 Damping current iteration by 5.00D-01
 RMSDP=1.42D-03 MaxDP=5.51D-02              OVMax= 1.66D-01

 Cycle   2  Pass 0  IDiag  1:
 E= -115.455908137307     Delta-E=       -0.053624470881 Rises=F Damp=T
 DIIS: error= 1.23D-02 at cycle   2 NSaved=   2.
 NSaved= 2 IEnMin= 2 EnMin= -115.455908137307     IErMin= 2 ErrMin= 1.23D-02
 ErrMax= 1.23D-02  0.00D+00 EMaxC= 1.00D-01 BMatC= 1.84D-02 BMatP= 2.08D-01
 IDIUse=3 WtCom= 8.77D-01 WtEn= 1.23D-01
 Coeff-Com: -0.103D+00 0.110D+01
 Coeff-En:   0.000D+00 0.100D+01
 Coeff:     -0.905D-01 0.109D+01
 Gap=     0.434 Goal=   None    Shift=    0.000
 RMSDP=3.52D-04 MaxDP=1.01D-02 DE=-5.36D-02 OVMax= 9.23D-02

 Cycle   3  Pass 0  IDiag  1:
 E= -115.510329960618     Delta-E=       -0.054421823311 Rises=F Damp=F
 DIIS: error= 4.59D-03 at cycle   3 NSaved=   3.
 NSaved= 3 IEnMin= 3 EnMin= -115.510329960618     IErMin= 3 ErrMin= 4.59D-03
 ErrMax= 4.59D-03  0.00D+00 EMaxC= 1.00D-01 BMatC= 3.30D-03 BMatP= 1.84D-02
 IDIUse=3 WtCom= 9.54D-01 WtEn= 4.59D-02
 Coeff-Com: -0.113D+00 0.269D+00 0.844D+00
 Coeff-En:   0.000D+00 0.000D+00 0.100D+01
 Coeff:     -0.108D+00 0.257D+00 0.851D+00
 Gap=     0.412 Goal=   None    Shift=    0.000
 RMSDP=1.06D-04 MaxDP=4.10D-03 DE=-5.44D-02 OVMax= 1.25D-02

 Cycle   4  Pass 0  IDiag  1:
 E= -115.512182247543     Delta-E=       -0.001852286925 Rises=F Damp=F
 DIIS: error= 1.68D-03 at cycle   4 NSaved=   4.
 NSaved= 4 IEnMin= 4 EnMin= -115.512182247543     IErMin= 4 ErrMin= 1.68D-03
 ErrMax= 1.68D-03  0.00D+00 EMaxC= 1.00D-01 BMatC= 3.33D-04 BMatP= 3.30D-03
 IDIUse=3 WtCom= 9.83D-01 WtEn= 1.68D-02
 Coeff-Com: -0.391D-01 0.676D-01 0.351D+00 0.621D+00
 Coeff-En:   0.000D+00 0.000D+00 0.000D+00 0.100D+01
 Coeff:     -0.385D-01 0.664D-01 0.345D+00 0.627D+00
 Gap=     0.411 Goal=   None    Shift=    0.000
 RMSDP=3.36D-05 MaxDP=1.73D-03 DE=-1.85D-03 OVMax= 4.78D-03

 Cycle   5  Pass 0  IDiag  1:
 E= -115.512458901911     Delta-E=       -0.000276654368 Rises=F Damp=F
 DIIS: error= 1.86D-04 at cycle   5 NSaved=   5.
 NSaved= 5 IEnMin= 5 EnMin= -115.512458901911     IErMin= 5 ErrMin= 1.86D-04
 ErrMax= 1.86D-04  0.00D+00 EMaxC= 1.00D-01 BMatC= 6.27D-06 BMatP= 3.33D-04
 IDIUse=3 WtCom= 9.98D-01 WtEn= 1.86D-03
 Coeff-Com: -0.604D-02 0.709D-02 0.603D-01 0.178D+00 0.760D+00
 Coeff-En:   0.000D+00 0.000D+00 0.000D+00 0.000D+00 0.100D+01
 Coeff:     -0.602D-02 0.708D-02 0.602D-01 0.178D+00 0.761D+00
 Gap=     0.411 Goal=   None    Shift=    0.000
 RMSDP=6.87D-06 MaxDP=1.97D-04 DE=-2.77D-04 OVMax= 5.79D-04

 Initial convergence to 1.0D-05 achieved.  Increase integral accuracy.
 Cycle   6  Pass 1  IDiag  1:
 E= -115.512468912491     Delta-E=       -0.000010010580 Rises=F Damp=F
 DIIS: error= 2.27D-05 at cycle   1 NSaved=   1.
 NSaved= 1 IEnMin= 1 EnMin= -115.512468912491     IErMin= 1 ErrMin= 2.27D-05
 ErrMax= 2.27D-05  0.00D+00 EMaxC= 1.00D-01 BMatC= 8.41D-08 BMatP= 8.41D-08
 IDIUse=1 WtCom= 1.00D+00 WtEn= 0.00D+00
 Coeff-Com:  0.100D+01
 Coeff:      0.100D+01
 Gap=     0.411 Goal=   None    Shift=    0.000
 RMSDP=6.87D-06 MaxDP=1.97D-04 DE=-1.00D-05 OVMax= 1.16D-04

 Cycle   7  Pass 1  IDiag  1:
 E= -115.512469036317     Delta-E=       -0.000000123826 Rises=F Damp=F
 DIIS: error= 5.30D-06 at cycle   2 NSaved=   2.
 NSaved= 2 IEnMin= 2 EnMin= -115.512469036317     IErMin= 2 ErrMin= 5.30D-06
 ErrMax= 5.30D-06  0.00D+00 EMaxC= 1.00D-01 BMatC= 4.93D-09 BMatP= 8.41D-08
 IDIUse=1 WtCom= 1.00D+00 WtEn= 0.00D+00
 Coeff-Com: -0.870D-01 0.109D+01
 Coeff:     -0.870D-01 0.109D+01
 Gap=     0.411 Goal=   None    Shift=    0.000
 RMSDP=5.36D-07 MaxDP=1.48D-05 DE=-1.24D-07 OVMax= 4.20D-05

 Cycle   8  Pass 1  IDiag  1:
 E= -115.512469046752     Delta-E=       -0.000000010435 Rises=F Damp=F
 DIIS: error= 2.29D-06 at cycle   3 NSaved=   3.
 NSaved= 3 IEnMin= 3 EnMin= -115.512469046752     IErMin= 3 ErrMin= 2.29D-06
 ErrMax= 2.29D-06  0.00D+00 EMaxC= 1.00D-01 BMatC= 6.31D-10 BMatP= 4.93D-09
 IDIUse=1 WtCom= 1.00D+00 WtEn= 0.00D+00
 Coeff-Com: -0.686D-01 0.136D+00 0.933D+00
 Coeff:     -0.686D-01 0.136D+00 0.933D+00
 Gap=     0.411 Goal=   None    Shift=    0.000
 RMSDP=1.44D-07 MaxDP=4.76D-06 DE=-1.04D-08 OVMax= 1.28D-05

 Cycle   9  Pass 1  IDiag  1:
 E= -115.512469047581     Delta-E=       -0.000000000830 Rises=F Damp=F
 DIIS: error= 9.17D-07 at cycle   4 NSaved=   4.
 NSaved= 4 IEnMin= 4 EnMin= -115.512469047581     IErMin= 4 ErrMin= 9.17D-07
 ErrMax= 9.17D-07  0.00D+00 EMaxC= 1.00D-01 BMatC= 1.28D-10 BMatP= 6.31D-10
 IDIUse=1 WtCom= 1.00D+00 WtEn= 0.00D+00
 Coeff-Com: -0.194D-01-0.134D-01 0.353D+00 0.679D+00
 Coeff:     -0.194D-01-0.134D-01 0.353D+00 0.679D+00
 Gap=     0.411 Goal=   None    Shift=    0.000
 RMSDP=2.74D-08 MaxDP=9.77D-07 DE=-8.30D-10 OVMax= 3.37D-06

 Cycle  10  Pass 1  IDiag  1:
 E= -115.512469047689     Delta-E=       -0.000000000108 Rises=F Damp=F
 DIIS: error= 2.68D-07 at cycle   5 NSaved=   5.
 NSaved= 5 IEnMin= 5 EnMin= -115.512469047689     IErMin= 5 ErrMin= 2.68D-07
 ErrMax= 2.68D-07  0.00D+00 EMaxC= 1.00D-01 BMatC= 7.81D-12 BMatP= 1.28D-10
 IDIUse=1 WtCom= 1.00D+00 WtEn= 0.00D+00
 Coeff-Com:  0.212D-02-0.234D-01 0.188D-02 0.188D+00 0.831D+00
 Coeff:      0.212D-02-0.234D-01 0.188D-02 0.188D+00 0.831D+00
 Gap=     0.411 Goal=   None    Shift=    0.000
 RMSDP=8.85D-09 MaxDP=3.48D-07 DE=-1.08D-10 OVMax= 1.24D-06

 SCF Done:  E(RB2PLYPD3) =  -115.512469048     A.U. after   10 cycles
            NFock= 10  Conv=0.89D-08     -V/T= 2.0007
 KE= 1.154342662085D+02 PE=-3.533153914893D+02 EE= 8.149463484298D+01
 Leave Link  502 at Wed Aug 26 22:51:17 2020, MaxMem=  2097152000 cpu:        81.4
 (Enter /opt/cluster/programs/g09/g09_d.01/g09/l801.exe)
 DoSCS=T DFT=T ScalE2(SS,OS)=  0.270000  0.270000
 ExpMin= 7.60D-02 ExpMax= 1.17D+05 ExpMxC= 1.13D+03 IAcc=3 IRadAn=         5 AccDes= 0.00D+00
 HarFok:  IExCor=  205 AccDes= 0.00D+00 IRadAn=         5 IDoV=-2 UseB2=F ITyADJ=14
 ICtDFT= 12500011 ScaDFX=  1.000000  1.000000  1.000000  1.000000
 Largest valence mixing into a core orbital is  1.20D-04
 Largest core mixing into a valence orbital is  1.50D-05
 Range of M.O.s used for correlation:     3   234
 NBasis=   234 NAE=     9 NBE=     9 NFC=     2 NFV=     0
 NROrb=    232 NOA=     7 NOB=     7 NVA=   225 NVB=   225

 **** Warning!!: The largest alpha MO coefficient is  0.26514476D+02

 Leave Link  801 at Wed Aug 26 22:51:17 2020, MaxMem=  2097152000 cpu:         0.6
 (Enter /opt/cluster/programs/g09/g09_d.01/g09/l906.exe)
 DoSCS=T DFT=T ScalE2(SS,OS)=  0.270000  0.270000
 FulOut=F Deriv=F AODrv=F NAtomX=     6
   MMem=        3646  MDisk=           7 MDiskD=           7
  W3Min=      447300 MinDsk=     1090093 NBas6D=         284
 NBas2D=       41310    NTT=       40470    LW2=     4508827
    MDV=  2096872422 MDiskM=       16391 NBas2p=       41304
 Fully in-core method, ICMem=  1722292712.
 IMap=   1   2   3   4   5   6   7
 JobTyp=1 Pass  1 fully in-core, NPsUse=  8.
 Compute canonical integrals.
 FoFCou: FMM=F IPFlag=           0 FMFlag=           0 FMFlg1=           0
         NFxFlg=           0 DoJE=F BraDBF=F KetDBF=F FulRan=T
         wScrn=  0.000000 ICntrl=     600 IOpCl=  1 I1Cent=           0 NGrid=           0
         NMat0=    1 NMatS0=  41310 NMatT0=    0 NMatD0=    1 NMtDS0=    0 NMtDT0=    0
 Symmetry not used in FoFCou.
 Spin components of T(2) and E(2):
     alpha-alpha T2 =       0.1977480764D-01 E2=     -0.1634390679D-01
     alpha-beta  T2 =       0.1271008864D+00 E2=     -0.1122164420D+00
     beta-beta   T2 =       0.1977480764D-01 E2=     -0.1634390679D-01
 The integrals were generated   1 times.
 E2(B2PLYPD3) =    -0.1449042556D+00 E(B2PLYPD3) =    -0.11565737330328D+03
 Leave Link  906 at Wed Aug 26 22:51:37 2020, MaxMem=  2097152000 cpu:       158.1
 (Enter /opt/cluster/programs/g09/g09_d.01/g09/l601.exe)
 Copying SCF densities to generalized density rwf, IOpCl= 0 IROHF=0.

 **********************************************************************

            Population analysis using the SCF density.

 **********************************************************************

 Orbital symmetries:
       Occupied  (A) (A) (A) (A) (A) (A) (A) (A) (A)
       Virtual   (A) (A) (A) (A) (A) (A) (A) (A) (A) (A) (A) (A)
                 (A) (A) (A) (A) (A) (A) (A) (A) (A) (A) (A) (A)
                 (A) (A) (A) (A) (A) (A) (A) (A) (A) (A) (A) (A)
                 (A) (A) (A) (A) (A) (A) (A) (A) (A) (A) (A) (A)
                 (A) (A) (A) (A) (A) (A) (A) (A) (A) (A) (A) (A)
                 (A) (A) (A) (A) (A) (A) (A) (A) (A) (A) (A) (A)
                 (A) (A) (A) (A) (A) (A) (A) (A) (A) (A) (A) (A)
                 (A) (A) (A) (A) (A) (A) (A) (A) (A) (A) (A) (A)
                 (A) (A) (A) (A) (A) (A) (A) (A) (A) (A) (A) (A)
                 (A) (A) (A) (A) (A) (A) (A) (A) (A) (A) (A) (A)
                 (A) (A) (A) (A) (A) (A) (A) (A) (A) (A) (A) (A)
                 (A) (A) (A) (A) (A) (A) (A) (A) (A) (A) (A) (A)
                 (A) (A) (A) (A) (A) (A) (A) (A) (A) (A) (A) (A)
                 (A) (A) (A) (A) (A) (A) (A) (A) (A) (A) (A) (A)
                 (A) (A) (A) (A) (A) (A) (A) (A) (A) (A) (A) (A)
                 (A) (A) (A) (A) (A) (A) (A) (A) (A) (A) (A) (A)
                 (A) (A) (A) (A) (A) (A) (A) (A) (A) (A) (A) (A)
                 (A) (A) (A) (A) (A) (A) (A) (A) (A) (A) (A) (A)
                 (A) (A) (A) (A) (A) (A) (A) (A) (A)
 The electronic state is 1-A.
 Alpha  occ. eigenvalues --  -19.70588 -10.67340  -1.20117  -0.80079  -0.60563
 Alpha  occ. eigenvalues --   -0.51698  -0.49821  -0.40715  -0.35695
 Alpha virt. eigenvalues --    0.05404   0.08883   0.12024   0.12124   0.14665
 Alpha virt. eigenvalues --    0.16855   0.17843   0.29007   0.32677   0.33322
 Alpha virt. eigenvalues --    0.37478   0.38716   0.39951   0.40053   0.42522
 Alpha virt. eigenvalues --    0.48242   0.53521   0.57308   0.59845   0.66934
 Alpha virt. eigenvalues --    0.70362   0.71532   0.73703   0.78382   0.79803
 Alpha virt. eigenvalues --    0.82211   0.86601   0.87846   0.93503   0.96218
 Alpha virt. eigenvalues --    1.02300   1.03752   1.06421   1.08353   1.09557
 Alpha virt. eigenvalues --    1.11789   1.20883   1.23925   1.32002   1.38560
 Alpha virt. eigenvalues --    1.39407   1.40313   1.42055   1.47342   1.50044
 Alpha virt. eigenvalues --    1.79013   1.80538   1.85179   1.88839   1.90535
 Alpha virt. eigenvalues --    1.94193   1.95235   1.96975   2.00469   2.02795
 Alpha virt. eigenvalues --    2.04128   2.13734   2.17932   2.19256   2.21253
 Alpha virt. eigenvalues --    2.25236   2.30905   2.31212   2.37187   2.43947
 Alpha virt. eigenvalues --    2.44403   2.47010   2.59582   2.61681   2.64106
 Alpha virt. eigenvalues --    2.65457   2.70809   2.73122   2.76600   2.83987
 Alpha virt. eigenvalues --    2.85533   2.88143   2.89426   2.91680   2.95220
 Alpha virt. eigenvalues --    2.98530   3.03383   3.06812   3.12878   3.18311
 Alpha virt. eigenvalues --    3.21174   3.29913   3.35623   3.37851   3.40573
 Alpha virt. eigenvalues --    3.47897   3.62831   3.71624   3.79238   3.84000
 Alpha virt. eigenvalues --    3.89552   3.98819   4.06076   4.08005   4.15369
 Alpha virt. eigenvalues --    4.19497   4.20709   4.30925   4.35094   4.54579
 Alpha virt. eigenvalues --    4.54886   4.76123   4.77838   4.98551   5.23808
 Alpha virt. eigenvalues --    5.40415   5.42481   5.49143   5.67733   5.74120
 Alpha virt. eigenvalues --    5.76320   5.82980   5.85556   5.87620   5.89267
 Alpha virt. eigenvalues --    5.90952   5.96863   5.99979   6.06588   6.09359
 Alpha virt. eigenvalues --    6.15870   6.21160   6.26622   6.28551   6.31141
 Alpha virt. eigenvalues --    6.35521   6.37692   6.43523   6.49272   6.54354
 Alpha virt. eigenvalues --    6.56129   6.59971   6.68588   6.74464   6.80759
 Alpha virt. eigenvalues --    6.93363   6.95876   7.11919   7.13722   7.21896
 Alpha virt. eigenvalues --    7.26072   7.27283   7.31171   7.34247   7.40706
 Alpha virt. eigenvalues --    7.42930   7.48279   7.51876   7.62601   7.67015
 Alpha virt. eigenvalues --    7.69251   7.76424   7.79457   7.80739   7.82839
 Alpha virt. eigenvalues --    7.84508   7.86810   7.99492   8.03057   8.11275
 Alpha virt. eigenvalues --    8.13571   8.24507   8.29524   8.31878   8.41588
 Alpha virt. eigenvalues --    8.43546   8.45424   8.47650   8.49227   8.53854
 Alpha virt. eigenvalues --    8.60317   8.77026   8.83632   8.86739   8.88809
 Alpha virt. eigenvalues --    8.92222   8.99553   9.11871   9.45873   9.48929
 Alpha virt. eigenvalues --    9.56942   9.57459   9.64855   9.73589   9.75683
 Alpha virt. eigenvalues --    9.84545   9.87740   9.92848  10.06350  10.10037
 Alpha virt. eigenvalues --   10.18594  10.26804  10.29850  10.35815  10.77759
 Alpha virt. eigenvalues --   11.01591  11.22352  11.38800  11.50201  11.71035
 Alpha virt. eigenvalues --   11.79432  11.88697  12.03489  12.14658  12.16799
 Alpha virt. eigenvalues --   12.67732  12.77395  12.87425  12.92878  12.94081
 Alpha virt. eigenvalues --   13.08576  13.60393  15.21830  15.52533  15.60217
 Alpha virt. eigenvalues --   16.28861  29.06838  49.07584 148.63441 254.94603
          Condensed to atoms (all electrons):
               1          2          3          4          5          6
     1  C    4.460969   0.267804   0.423037   0.430425   0.400130  -0.043876
     2  O    0.267804   7.864034  -0.047382  -0.054107  -0.039766   0.364364
     3  H    0.423037  -0.047382   0.656775  -0.045364  -0.036442  -0.003952
     4  H    0.430425  -0.054107  -0.045364   0.654648  -0.032354  -0.003370
     5  H    0.400130  -0.039766  -0.036442  -0.032354   0.623749   0.008076
     6  H   -0.043876   0.364364  -0.003952  -0.003370   0.008076   0.565383
 Mulliken charges:
               1
     1  C    0.061513
     2  O   -0.354947
     3  H    0.053328
     4  H    0.050122
     5  H    0.076608
     6  H    0.113376
 Sum of Mulliken charges =   0.00000
 Mulliken charges with hydrogens summed into heavy atoms:
               1
     1  C    0.241570
     2  O   -0.241570
 Electronic spatial extent (au):  <R**2>=             84.5233
 Charge=              0.0000 electrons
 Dipole moment (field-independent basis, Debye):
    X=             -0.8512    Y=             -1.3139    Z=              0.1924  Tot=              1.5773
 Quadrupole moment (field-independent basis, Debye-Ang):
   XX=            -13.0025   YY=            -12.4515   ZZ=            -13.6234
   XY=             -2.0445   XZ=              0.1733   YZ=             -0.1056
 Traceless Quadrupole moment (field-independent basis, Debye-Ang):
   XX=              0.0233   YY=              0.5743   ZZ=             -0.5976
   XY=             -2.0445   XZ=              0.1733   YZ=             -0.1056
 Octapole moment (field-independent basis, Debye-Ang**2):
  XXX=              5.4537  YYY=             -0.1785  ZZZ=              0.3707  XYY=              1.4571
  XXY=             -2.1707  XXZ=              0.4501  XZZ=              0.5063  YZZ=             -0.7935
  YYZ=             -0.1844  XYZ=             -0.1604
 Hexadecapole moment (field-independent basis, Debye-Ang**3):
 XXXX=            -62.1980 YYYY=            -20.6852 ZZZZ=            -20.7918 XXXY=             -3.8503
 XXXZ=              0.1941 YYYX=             -2.8415 YYYZ=             -0.1501 ZZZX=             -0.2152
 ZZZY=             -0.0414 XXYY=            -13.2281 XXZZ=            -14.5401 YYZZ=             -6.9973
 XXYZ=             -0.2494 YYXZ=              0.3918 ZZXY=              0.1387
 N-N= 4.087402139009D+01 E-N=-3.533153747197D+02  KE= 1.154342662085D+02
 Leave Link  601 at Wed Aug 26 22:51:38 2020, MaxMem=  2097152000 cpu:         0.3
 (Enter /opt/cluster/programs/g09/g09_d.01/g09/l9999.exe)
 1\1\GINC-NODE25\SP\RB2PLYPD3-FC\def2QZVP\C1H4O1\BOITTIER\26-Aug-2020\0
 \\#p B2PLYPD3/Def2QZVP\\methanol\\0,1\C,0,-5.183592,-1.257042,0.916478
 \O,0,-3.7684,-1.123993,0.847213\H,0,-5.526904,-2.256838,0.558507\H,0,-
 5.65761,-0.425951,0.301729\H,0,-5.42809,-1.162999,2.025893\H,0,-3.4608
 29,-1.175689,0.115854\\Version=ES64L-G09RevD.01\State=1-A\HF=-115.5124
 69\MP2=-115.6573733\RMSD=8.852e-09\PG=C01 [X(C1H4O1)]\\@


 I WISH TO HAVE NO CONNECTION WITH ANY SHIP THAT DOES NOT SAIL FAST,
 FOR I INTEND TO GO IN HARM'S WAY.
     -- JOHN PAUL JONES, USN 1747-1792
 Job cpu time:       0 days  0 hours  4 minutes  8.5 seconds.
 File lengths (MBytes):  RWF=     23 Int=      0 D2E=      0 Chk=      4 Scr=      1
 Normal termination of Gaussian 09 at Wed Aug 26 22:51:38 2020.
