 Entering Gaussian System, Link 0=/opt/cluster/programs/g09/g09_d.01/g09//g09
 Input=/home/boittier/MDCM/nms_sampling/methanol_geom.xyz.dir/energies/methanol_1110_energy.com
 Output=/scratch/boittier/methanol_1110_energy/methanol_1110_energy.out
 Initial command:
 /opt/cluster/programs/g09/g09_d.01/g09/l1.exe "/scratch/boittier/methanol_1110_energy/Gau-160092.inp" -scrdir="/scratch/boittier/methanol_1110_energy/"
 Entering Link 1 = /opt/cluster/programs/g09/g09_d.01/g09/l1.exe PID=    160093.
  
 Copyright (c) 1988,1990,1992,1993,1995,1998,2003,2009,2013,
            Gaussian, Inc.  All Rights Reserved.
  
 This is part of the Gaussian(R) 09 program.  It is based on
 the Gaussian(R) 03 system (copyright 2003, Gaussian, Inc.),
 the Gaussian(R) 98 system (copyright 1998, Gaussian, Inc.),
 the Gaussian(R) 94 system (copyright 1995, Gaussian, Inc.),
 the Gaussian 92(TM) system (copyright 1992, Gaussian, Inc.),
 the Gaussian 90(TM) system (copyright 1990, Gaussian, Inc.),
 the Gaussian 88(TM) system (copyright 1988, Gaussian, Inc.),
 the Gaussian 86(TM) system (copyright 1986, Carnegie Mellon
 University), and the Gaussian 82(TM) system (copyright 1983,
 Carnegie Mellon University). Gaussian is a federally registered
 trademark of Gaussian, Inc.
  
 This software contains proprietary and confidential information,
 including trade secrets, belonging to Gaussian, Inc.
  
 This software is provided under written license and may be
 used, copied, transmitted, or stored only in accord with that
 written license.
  
 The following legend is applicable only to US Government
 contracts under FAR:
  
                    RESTRICTED RIGHTS LEGEND
  
 Use, reproduction and disclosure by the US Government is
 subject to restrictions as set forth in subparagraphs (a)
 and (c) of the Commercial Computer Software - Restricted
 Rights clause in FAR 52.227-19.
  
 Gaussian, Inc.
 340 Quinnipiac St., Bldg. 40, Wallingford CT 06492
  
  
 ---------------------------------------------------------------
 Warning -- This program may not be used in any manner that
 competes with the business of Gaussian, Inc. or will provide
 assistance to any competitor of Gaussian, Inc.  The licensee
 of this program is prohibited from giving any competitor of
 Gaussian, Inc. access to this program.  By using this program,
 the user acknowledges that Gaussian, Inc. is engaged in the
 business of creating and licensing software in the field of
 computational chemistry and represents and warrants to the
 licensee that it is not a competitor of Gaussian, Inc. and that
 it will not use this program in any manner prohibited above.
 ---------------------------------------------------------------
  

 Cite this work as:
 Gaussian 09, Revision D.01,
 M. J. Frisch, G. W. Trucks, H. B. Schlegel, G. E. Scuseria, 
 M. A. Robb, J. R. Cheeseman, G. Scalmani, V. Barone, B. Mennucci, 
 G. A. Petersson, H. Nakatsuji, M. Caricato, X. Li, H. P. Hratchian, 
 A. F. Izmaylov, J. Bloino, G. Zheng, J. L. Sonnenberg, M. Hada, 
 M. Ehara, K. Toyota, R. Fukuda, J. Hasegawa, M. Ishida, T. Nakajima, 
 Y. Honda, O. Kitao, H. Nakai, T. Vreven, J. A. Montgomery, Jr., 
 J. E. Peralta, F. Ogliaro, M. Bearpark, J. J. Heyd, E. Brothers, 
 K. N. Kudin, V. N. Staroverov, T. Keith, R. Kobayashi, J. Normand, 
 K. Raghavachari, A. Rendell, J. C. Burant, S. S. Iyengar, J. Tomasi, 
 M. Cossi, N. Rega, J. M. Millam, M. Klene, J. E. Knox, J. B. Cross, 
 V. Bakken, C. Adamo, J. Jaramillo, R. Gomperts, R. E. Stratmann, 
 O. Yazyev, A. J. Austin, R. Cammi, C. Pomelli, J. W. Ochterski, 
 R. L. Martin, K. Morokuma, V. G. Zakrzewski, G. A. Voth, 
 P. Salvador, J. J. Dannenberg, S. Dapprich, A. D. Daniels, 
 O. Farkas, J. B. Foresman, J. V. Ortiz, J. Cioslowski, 
 and D. J. Fox, Gaussian, Inc., Wallingford CT, 2013.
 
 ******************************************
 Gaussian 09:  ES64L-G09RevD.01 24-Apr-2013
                26-Aug-2020 
 ******************************************
 %chk=/home/boittier/MDCM/nms_sampling/methanol_geom.xyz.dir/methanol_1110.chk
 %nproc=8
 Will use up to    8 processors via shared memory.
 %mem=16000MB
 --------------------
 #p B2PLYPD3/Def2QZVP
 --------------------
 1/38=1/1;
 2/12=2,17=6,18=5,40=1/2;
 3/5=45,7=101,11=9,16=1,25=1,30=1,74=-60/1,2,3;
 4//1;
 5/5=2,38=5/2;
 8/10=1/1;
 9/16=-3/6;
 6/7=2,8=2,9=2,10=2/1;
 99/5=1,9=1/99;
 Leave Link    1 at Wed Aug 26 10:19:24 2020, MaxMem=  2097152000 cpu:         0.2
 (Enter /opt/cluster/programs/g09/g09_d.01/g09/l101.exe)
 --------
 methanol
 --------
 Symbolic Z-matrix:
 Charge =  0 Multiplicity = 1
 C                    -5.1742   -1.25222   0.91721 
 O                    -3.76602  -1.11885   0.85481 
 H                    -5.55627  -2.26407   0.54009 
 H                    -5.66829  -0.48604   0.34502 
 H                    -5.47156  -1.17427   1.98421 
 H                    -3.52956  -1.23214   0.00007 
 
 NAtoms=      6 NQM=        6 NQMF=       0 NMMI=      0 NMMIF=      0
                NMic=       0 NMicF=      0.
                    Isotopes and Nuclear Properties:
 (Nuclear quadrupole moments (NQMom) in fm**2, nuclear magnetic moments (NMagM)
  in nuclear magnetons)

  Atom         1           2           3           4           5           6
 IAtWgt=          12          16           1           1           1           1
 AtmWgt=  12.0000000  15.9949146   1.0078250   1.0078250   1.0078250   1.0078250
 NucSpn=           0           0           1           1           1           1
 AtZEff=   0.0000000   0.0000000   0.0000000   0.0000000   0.0000000   0.0000000
 NQMom=    0.0000000   0.0000000   0.0000000   0.0000000   0.0000000   0.0000000
 NMagM=    0.0000000   0.0000000   2.7928460   2.7928460   2.7928460   2.7928460
 AtZNuc=   6.0000000   8.0000000   1.0000000   1.0000000   1.0000000   1.0000000
 Leave Link  101 at Wed Aug 26 10:19:27 2020, MaxMem=  2097152000 cpu:         0.5
 (Enter /opt/cluster/programs/g09/g09_d.01/g09/l202.exe)
                          Input orientation:                          
 ---------------------------------------------------------------------
 Center     Atomic      Atomic             Coordinates (Angstroms)
 Number     Number       Type             X           Y           Z
 ---------------------------------------------------------------------
      1          6           0       -5.174199   -1.252222    0.917213
      2          8           0       -3.766024   -1.118851    0.854812
      3          1           0       -5.556272   -2.264072    0.540092
      4          1           0       -5.668293   -0.486036    0.345015
      5          1           0       -5.471558   -1.174266    1.984206
      6          1           0       -3.529561   -1.232138    0.000071
 ---------------------------------------------------------------------
                    Distance matrix (angstroms):
                    1          2          3          4          5
     1  C    0.000000
     2  O    1.415853   0.000000
     3  H    1.145443   2.148387   0.000000
     4  H    1.076374   2.068568   1.792210   0.000000
     5  H    1.110393   2.046325   1.811165   1.788662   0.000000
     6  H    1.883185   0.894053   2.337535   2.291251   2.776958
                    6
     6  H    0.000000
 Stoichiometry    CH4O
 Framework group  C1[X(CH4O)]
 Deg. of freedom    12
 Full point group                 C1      NOp   1
 Largest Abelian subgroup         C1      NOp   1
 Largest concise Abelian subgroup C1      NOp   1
                         Standard orientation:                         
 ---------------------------------------------------------------------
 Center     Atomic      Atomic             Coordinates (Angstroms)
 Number     Number       Type             X           Y           Z
 ---------------------------------------------------------------------
      1          6           0        0.657737   -0.013745    0.012202
      2          8           0       -0.752390    0.111511   -0.009984
      3          1           0        1.076811   -0.634289   -0.854599
      4          1           0        0.998862   -0.465084    0.927902
      5          1           0        1.086632    1.005740   -0.086142
      6          1           0       -1.089603   -0.715985    0.019500
 ---------------------------------------------------------------------
 Rotational constants (GHZ):    128.6711547     24.8742707     24.0469156
 Leave Link  202 at Wed Aug 26 10:19:28 2020, MaxMem=  2097152000 cpu:         0.0
 (Enter /opt/cluster/programs/g09/g09_d.01/g09/l301.exe)
 Standard basis: def2QZVP (5D, 7F)
 Ernie: Thresh=  0.10000D-02 Tol=  0.10000D-05 Strict=F.
 There are   284 symmetry adapted cartesian basis functions of A   symmetry.
 There are   234 symmetry adapted basis functions of A   symmetry.
   234 basis functions,   336 primitive gaussians,   284 cartesian basis functions
     9 alpha electrons        9 beta electrons
       nuclear repulsion energy        40.5592934611 Hartrees.
 IExCor=  419 DFT=T Ex+Corr=B2PLYPD3 ExCW=0 ScaHFX=  0.530000
 ScaDFX=  0.470000  0.470000  0.730000  0.730000 ScalE2=  0.270000  0.270000
 IRadAn=      0 IRanWt=     -1 IRanGd=            0 ICorTp=0 IEmpDi=141
 NAtoms=    6 NActive=    6 NUniq=    6 SFac= 1.00D+00 NAtFMM=   60 NAOKFM=F Big=F
 Integral buffers will be    131072 words long.
 Regular integral format.
 Two-electron integral symmetry is turned on.
 R6Disp:  Grimme-D3(BJ) Dispersion energy=       -0.0013091060 Hartrees.
 Nuclear repulsion after empirical dispersion term =       40.5579843551 Hartrees.
 Leave Link  301 at Wed Aug 26 10:19:28 2020, MaxMem=  2097152000 cpu:         0.5
 (Enter /opt/cluster/programs/g09/g09_d.01/g09/l302.exe)
 NPDir=0 NMtPBC=     1 NCelOv=     1 NCel=       1 NClECP=     1 NCelD=      1
         NCelK=      1 NCelE2=     1 NClLst=     1 CellRange=     0.0.
 One-electron integrals computed using PRISM.
   1 Symmetry operations used in ECPInt.
 ECPInt:  NShTT=    2775 NPrTT=    6207 LenC2=    2774 LenP2D=    5736.
 LDataN:  DoStor=T MaxTD1= 8 Len=  415
 NBasis=   234 RedAO= T EigKep=  1.35D-04  NBF=   234
 NBsUse=   234 1.00D-06 EigRej= -1.00D+00 NBFU=   234
 Precomputing XC quadrature grid using
 IXCGrd= 4 IRadAn=           0 IRanWt=          -1 IRanGd=           0 AccXCQ= 0.00D+00.
 Generated NRdTot=       0 NPtTot=           0 NUsed=           0 NTot=          32
 NSgBfM=   284   284   284   284   284 MxSgAt=     6 MxSgA2=     6.
 Leave Link  302 at Wed Aug 26 10:19:28 2020, MaxMem=  2097152000 cpu:         2.3
 (Enter /opt/cluster/programs/g09/g09_d.01/g09/l303.exe)
 DipDrv:  MaxL=1.
 Leave Link  303 at Wed Aug 26 10:19:29 2020, MaxMem=  2097152000 cpu:         0.2
 (Enter /opt/cluster/programs/g09/g09_d.01/g09/l401.exe)
 ExpMin= 7.60D-02 ExpMax= 1.17D+05 ExpMxC= 1.13D+03 IAcc=2 IRadAn=         4 AccDes= 0.00D+00
 Harris functional with IExCor=  419 and IRadAn=       4 diagonalized for initial guess.
 HarFok:  IExCor=  419 AccDes= 0.00D+00 IRadAn=         4 IDoV= 1 UseB2=F ITyADJ=14
 ICtDFT=  3500011 ScaDFX=  1.000000  1.000000  1.000000  1.000000
 FoFCou: FMM=F IPFlag=           0 FMFlag=      100000 FMFlg1=           0
         NFxFlg=           0 DoJE=T BraDBF=F KetDBF=T FulRan=T
         wScrn=  0.000000 ICntrl=     500 IOpCl=  0 I1Cent=   200000004 NGrid=           0
         NMat0=    1 NMatS0=      1 NMatT0=    0 NMatD0=    1 NMtDS0=    0 NMtDT0=    0
 Petite list used in FoFCou.
 Harris En= -115.814127470390    
 JPrj=0 DoOrth=F DoCkMO=F.
 Leave Link  401 at Wed Aug 26 10:19:29 2020, MaxMem=  2097152000 cpu:         4.1
 (Enter /opt/cluster/programs/g09/g09_d.01/g09/l502.exe)
 Closed shell SCF:
 Using DIIS extrapolation, IDIIS=  1040.
 Integral symmetry usage will be decided dynamically.
 Keep R1 ints in memory in canonical form, NReq=389840494.
 IVT=      264814 IEndB=      264814 NGot=  2097152000 MDV=  1718885927
 LenX=  1718885927 LenY=  1718804830
 Requested convergence on RMS density matrix=1.00D-08 within 128 cycles.
 Requested convergence on MAX density matrix=1.00D-06.
 Requested convergence on             energy=1.00D-06.
 No special actions if energy rises.
 FoFCou: FMM=F IPFlag=           0 FMFlag=           0 FMFlg1=           0
         NFxFlg=           0 DoJE=F BraDBF=F KetDBF=F FulRan=T
         wScrn=  0.000000 ICntrl=     600 IOpCl=  0 I1Cent=           0 NGrid=           0
         NMat0=    1 NMatS0=  27495 NMatT0=    0 NMatD0=    1 NMtDS0=    0 NMtDT0=    0
 Symmetry not used in FoFCou.
 Integral accuracy reduced to 1.0D-05 until final iterations.

 Cycle   1  Pass 0  IDiag  1:
 E= -115.447840909845    
 DIIS: error= 2.16D-02 at cycle   1 NSaved=   1.
 NSaved= 1 IEnMin= 1 EnMin= -115.447840909845     IErMin= 1 ErrMin= 2.16D-02
 ErrMax= 2.16D-02  0.00D+00 EMaxC= 1.00D-01 BMatC= 1.82D-01 BMatP= 1.82D-01
 IDIUse=3 WtCom= 7.84D-01 WtEn= 2.16D-01
 Coeff-Com:  0.100D+01
 Coeff-En:   0.100D+01
 Coeff:      0.100D+01
 Gap=     0.333 Goal=   None    Shift=    0.000
 GapD=    0.333 DampG=1.000 DampE=0.500 DampFc=0.5000 IDamp=-1.
 Damping current iteration by 5.00D-01
 RMSDP=1.31D-03 MaxDP=4.78D-02              OVMax= 1.45D-01

 Cycle   2  Pass 0  IDiag  1:
 E= -115.496603511277     Delta-E=       -0.048762601432 Rises=F Damp=T
 DIIS: error= 9.79D-03 at cycle   2 NSaved=   2.
 NSaved= 2 IEnMin= 2 EnMin= -115.496603511277     IErMin= 2 ErrMin= 9.79D-03
 ErrMax= 9.79D-03  0.00D+00 EMaxC= 1.00D-01 BMatC= 1.84D-02 BMatP= 1.82D-01
 IDIUse=3 WtCom= 9.02D-01 WtEn= 9.79D-02
 Coeff-Com: -0.125D+00 0.112D+01
 Coeff-En:   0.000D+00 0.100D+01
 Coeff:     -0.113D+00 0.111D+01
 Gap=     0.429 Goal=   None    Shift=    0.000
 RMSDP=3.35D-04 MaxDP=8.93D-03 DE=-4.88D-02 OVMax= 8.51D-02

 Cycle   3  Pass 0  IDiag  1:
 E= -115.544551929028     Delta-E=       -0.047948417751 Rises=F Damp=F
 DIIS: error= 4.77D-03 at cycle   3 NSaved=   3.
 NSaved= 3 IEnMin= 3 EnMin= -115.544551929028     IErMin= 3 ErrMin= 4.77D-03
 ErrMax= 4.77D-03  0.00D+00 EMaxC= 1.00D-01 BMatC= 3.81D-03 BMatP= 1.84D-02
 IDIUse=3 WtCom= 9.52D-01 WtEn= 4.77D-02
 Coeff-Com: -0.129D+00 0.313D+00 0.816D+00
 Coeff-En:   0.000D+00 0.000D+00 0.100D+01
 Coeff:     -0.123D+00 0.298D+00 0.825D+00
 Gap=     0.409 Goal=   None    Shift=    0.000
 RMSDP=1.14D-04 MaxDP=4.48D-03 DE=-4.79D-02 OVMax= 1.36D-02

 Cycle   4  Pass 0  IDiag  1:
 E= -115.546673263495     Delta-E=       -0.002121334466 Rises=F Damp=F
 DIIS: error= 1.59D-03 at cycle   4 NSaved=   4.
 NSaved= 4 IEnMin= 4 EnMin= -115.546673263495     IErMin= 4 ErrMin= 1.59D-03
 ErrMax= 1.59D-03  0.00D+00 EMaxC= 1.00D-01 BMatC= 4.33D-04 BMatP= 3.81D-03
 IDIUse=3 WtCom= 9.84D-01 WtEn= 1.59D-02
 Coeff-Com: -0.459D-01 0.811D-01 0.355D+00 0.609D+00
 Coeff-En:   0.000D+00 0.000D+00 0.000D+00 0.100D+01
 Coeff:     -0.452D-01 0.798D-01 0.350D+00 0.616D+00
 Gap=     0.407 Goal=   None    Shift=    0.000
 RMSDP=3.59D-05 MaxDP=1.76D-03 DE=-2.12D-03 OVMax= 5.17D-03

 Cycle   5  Pass 0  IDiag  1:
 E= -115.547016265693     Delta-E=       -0.000343002198 Rises=F Damp=F
 DIIS: error= 1.72D-04 at cycle   5 NSaved=   5.
 NSaved= 5 IEnMin= 5 EnMin= -115.547016265693     IErMin= 5 ErrMin= 1.72D-04
 ErrMax= 1.72D-04  0.00D+00 EMaxC= 1.00D-01 BMatC= 6.03D-06 BMatP= 4.33D-04
 IDIUse=3 WtCom= 9.98D-01 WtEn= 1.72D-03
 Coeff-Com: -0.713D-02 0.917D-02 0.615D-01 0.168D+00 0.768D+00
 Coeff-En:   0.000D+00 0.000D+00 0.000D+00 0.000D+00 0.100D+01
 Coeff:     -0.711D-02 0.915D-02 0.614D-01 0.168D+00 0.769D+00
 Gap=     0.407 Goal=   None    Shift=    0.000
 RMSDP=6.22D-06 MaxDP=1.84D-04 DE=-3.43D-04 OVMax= 5.65D-04

 Initial convergence to 1.0D-05 achieved.  Increase integral accuracy.
 Cycle   6  Pass 1  IDiag  1:
 E= -115.547027909178     Delta-E=       -0.000011643485 Rises=F Damp=F
 DIIS: error= 1.75D-05 at cycle   1 NSaved=   1.
 NSaved= 1 IEnMin= 1 EnMin= -115.547027909178     IErMin= 1 ErrMin= 1.75D-05
 ErrMax= 1.75D-05  0.00D+00 EMaxC= 1.00D-01 BMatC= 7.02D-08 BMatP= 7.02D-08
 IDIUse=1 WtCom= 1.00D+00 WtEn= 0.00D+00
 Coeff-Com:  0.100D+01
 Coeff:      0.100D+01
 Gap=     0.407 Goal=   None    Shift=    0.000
 RMSDP=6.22D-06 MaxDP=1.84D-04 DE=-1.16D-05 OVMax= 9.65D-05

 Cycle   7  Pass 1  IDiag  1:
 E= -115.547027999835     Delta-E=       -0.000000090657 Rises=F Damp=F
 DIIS: error= 4.32D-06 at cycle   2 NSaved=   2.
 NSaved= 2 IEnMin= 2 EnMin= -115.547027999835     IErMin= 2 ErrMin= 4.32D-06
 ErrMax= 4.32D-06  0.00D+00 EMaxC= 1.00D-01 BMatC= 4.02D-09 BMatP= 7.02D-08
 IDIUse=1 WtCom= 1.00D+00 WtEn= 0.00D+00
 Coeff-Com: -0.422D-01 0.104D+01
 Coeff:     -0.422D-01 0.104D+01
 Gap=     0.407 Goal=   None    Shift=    0.000
 RMSDP=4.26D-07 MaxDP=1.16D-05 DE=-9.07D-08 OVMax= 3.99D-05

 Cycle   8  Pass 1  IDiag  1:
 E= -115.547028006491     Delta-E=       -0.000000006656 Rises=F Damp=F
 DIIS: error= 3.45D-06 at cycle   3 NSaved=   3.
 NSaved= 3 IEnMin= 3 EnMin= -115.547028006491     IErMin= 3 ErrMin= 3.45D-06
 ErrMax= 3.45D-06  0.00D+00 EMaxC= 1.00D-01 BMatC= 1.45D-09 BMatP= 4.02D-09
 IDIUse=1 WtCom= 1.00D+00 WtEn= 0.00D+00
 Coeff-Com: -0.730D-01 0.344D+00 0.729D+00
 Coeff:     -0.730D-01 0.344D+00 0.729D+00
 Gap=     0.407 Goal=   None    Shift=    0.000
 RMSDP=1.09D-07 MaxDP=3.92D-06 DE=-6.66D-09 OVMax= 1.37D-05

 Cycle   9  Pass 1  IDiag  1:
 E= -115.547028007717     Delta-E=       -0.000000001226 Rises=F Damp=F
 DIIS: error= 9.51D-07 at cycle   4 NSaved=   4.
 NSaved= 4 IEnMin= 4 EnMin= -115.547028007717     IErMin= 4 ErrMin= 9.51D-07
 ErrMax= 9.51D-07  0.00D+00 EMaxC= 1.00D-01 BMatC= 2.10D-10 BMatP= 1.45D-09
 IDIUse=1 WtCom= 1.00D+00 WtEn= 0.00D+00
 Coeff-Com: -0.218D-01-0.487D-02 0.285D+00 0.742D+00
 Coeff:     -0.218D-01-0.487D-02 0.285D+00 0.742D+00
 Gap=     0.407 Goal=   None    Shift=    0.000
 RMSDP=4.14D-08 MaxDP=1.74D-06 DE=-1.23D-09 OVMax= 5.80D-06

 Cycle  10  Pass 1  IDiag  1:
 E= -115.547028007885     Delta-E=       -0.000000000169 Rises=F Damp=F
 DIIS: error= 1.92D-07 at cycle   5 NSaved=   5.
 NSaved= 5 IEnMin= 5 EnMin= -115.547028007885     IErMin= 5 ErrMin= 1.92D-07
 ErrMax= 1.92D-07  0.00D+00 EMaxC= 1.00D-01 BMatC= 9.11D-12 BMatP= 2.10D-10
 IDIUse=1 WtCom= 1.00D+00 WtEn= 0.00D+00
 Coeff-Com: -0.323D-03-0.286D-01 0.279D-01 0.190D+00 0.811D+00
 Coeff:     -0.323D-03-0.286D-01 0.279D-01 0.190D+00 0.811D+00
 Gap=     0.407 Goal=   None    Shift=    0.000
 RMSDP=9.67D-09 MaxDP=3.06D-07 DE=-1.69D-10 OVMax= 1.13D-06

 SCF Done:  E(RB2PLYPD3) =  -115.547028008     A.U. after   10 cycles
            NFock= 10  Conv=0.97D-08     -V/T= 2.0025
 KE= 1.152577776497D+02 PE=-3.526452302136D+02 EE= 8.128244020090D+01
 Leave Link  502 at Wed Aug 26 10:19:43 2020, MaxMem=  2097152000 cpu:        72.2
 (Enter /opt/cluster/programs/g09/g09_d.01/g09/l801.exe)
 DoSCS=T DFT=T ScalE2(SS,OS)=  0.270000  0.270000
 ExpMin= 7.60D-02 ExpMax= 1.17D+05 ExpMxC= 1.13D+03 IAcc=3 IRadAn=         5 AccDes= 0.00D+00
 HarFok:  IExCor=  205 AccDes= 0.00D+00 IRadAn=         5 IDoV=-2 UseB2=F ITyADJ=14
 ICtDFT= 12500011 ScaDFX=  1.000000  1.000000  1.000000  1.000000
 DSYEVD-2 returned Info=        1739 IAlg= 4 N=    57 NDim=    57 NE2=    36788970 trying  DSYEV.
 Largest valence mixing into a core orbital is  1.17D-04
 Largest core mixing into a valence orbital is  1.53D-05
 Range of M.O.s used for correlation:     3   234
 NBasis=   234 NAE=     9 NBE=     9 NFC=     2 NFV=     0
 NROrb=    232 NOA=     7 NOB=     7 NVA=   225 NVB=   225

 **** Warning!!: The largest alpha MO coefficient is  0.24832942D+02

 Leave Link  801 at Wed Aug 26 10:19:44 2020, MaxMem=  2097152000 cpu:         0.6
 (Enter /opt/cluster/programs/g09/g09_d.01/g09/l906.exe)
 DoSCS=T DFT=T ScalE2(SS,OS)=  0.270000  0.270000
 FulOut=F Deriv=F AODrv=F NAtomX=     6
   MMem=        3646  MDisk=           7 MDiskD=           7
  W3Min=      447300 MinDsk=     1090093 NBas6D=         284
 NBas2D=       41310    NTT=       40470    LW2=     4508827
    MDV=  2096872464 MDiskM=       16391 NBas2p=       41304
 Fully in-core method, ICMem=  1722292712.
 IMap=   1   2   3   4   5   6   7
 JobTyp=1 Pass  1 fully in-core, NPsUse=  8.
 Compute canonical integrals.
 FoFCou: FMM=F IPFlag=           0 FMFlag=           0 FMFlg1=           0
         NFxFlg=           0 DoJE=F BraDBF=F KetDBF=F FulRan=T
         wScrn=  0.000000 ICntrl=     600 IOpCl=  1 I1Cent=           0 NGrid=           0
         NMat0=    1 NMatS0=  41310 NMatT0=    0 NMatD0=    1 NMtDS0=    0 NMtDT0=    0
 Symmetry not used in FoFCou.
 Spin components of T(2) and E(2):
     alpha-alpha T2 =       0.2043393310D-01 E2=     -0.1658115276D-01
     alpha-beta  T2 =       0.1296408248D+00 E2=     -0.1132091882D+00
     beta-beta   T2 =       0.2043393310D-01 E2=     -0.1658115276D-01
 The integrals were generated   1 times.
 E2(B2PLYPD3) =    -0.1463714937D+00 E(B2PLYPD3) =    -0.11569339950156D+03
 Leave Link  906 at Wed Aug 26 10:19:59 2020, MaxMem=  2097152000 cpu:       124.3
 (Enter /opt/cluster/programs/g09/g09_d.01/g09/l601.exe)
 Copying SCF densities to generalized density rwf, IOpCl= 0 IROHF=0.

 **********************************************************************

            Population analysis using the SCF density.

 **********************************************************************

 Orbital symmetries:
       Occupied  (A) (A) (A) (A) (A) (A) (A) (A) (A)
       Virtual   (A) (A) (A) (A) (A) (A) (A) (A) (A) (A) (A) (A)
                 (A) (A) (A) (A) (A) (A) (A) (A) (A) (A) (A) (A)
                 (A) (A) (A) (A) (A) (A) (A) (A) (A) (A) (A) (A)
                 (A) (A) (A) (A) (A) (A) (A) (A) (A) (A) (A) (A)
                 (A) (A) (A) (A) (A) (A) (A) (A) (A) (A) (A) (A)
                 (A) (A) (A) (A) (A) (A) (A) (A) (A) (A) (A) (A)
                 (A) (A) (A) (A) (A) (A) (A) (A) (A) (A) (A) (A)
                 (A) (A) (A) (A) (A) (A) (A) (A) (A) (A) (A) (A)
                 (A) (A) (A) (A) (A) (A) (A) (A) (A) (A) (A) (A)
                 (A) (A) (A) (A) (A) (A) (A) (A) (A) (A) (A) (A)
                 (A) (A) (A) (A) (A) (A) (A) (A) (A) (A) (A) (A)
                 (A) (A) (A) (A) (A) (A) (A) (A) (A) (A) (A) (A)
                 (A) (A) (A) (A) (A) (A) (A) (A) (A) (A) (A) (A)
                 (A) (A) (A) (A) (A) (A) (A) (A) (A) (A) (A) (A)
                 (A) (A) (A) (A) (A) (A) (A) (A) (A) (A) (A) (A)
                 (A) (A) (A) (A) (A) (A) (A) (A) (A) (A) (A) (A)
                 (A) (A) (A) (A) (A) (A) (A) (A) (A) (A) (A) (A)
                 (A) (A) (A) (A) (A) (A) (A) (A) (A) (A) (A) (A)
                 (A) (A) (A) (A) (A) (A) (A) (A) (A)
 The electronic state is 1-A.
 Alpha  occ. eigenvalues --  -19.72197 -10.66341  -1.18062  -0.78844  -0.59793
 Alpha  occ. eigenvalues --   -0.51626  -0.49899  -0.41416  -0.35541
 Alpha virt. eigenvalues --    0.05176   0.08468   0.12190   0.12339   0.14887
 Alpha virt. eigenvalues --    0.17360   0.17992   0.29052   0.32948   0.33605
 Alpha virt. eigenvalues --    0.36757   0.38267   0.39502   0.40787   0.43549
 Alpha virt. eigenvalues --    0.46308   0.52725   0.55735   0.59685   0.67045
 Alpha virt. eigenvalues --    0.70951   0.72728   0.75676   0.79074   0.80188
 Alpha virt. eigenvalues --    0.82486   0.86132   0.87649   0.93441   0.96795
 Alpha virt. eigenvalues --    1.00644   1.02134   1.03358   1.10344   1.11219
 Alpha virt. eigenvalues --    1.12789   1.17921   1.22193   1.28642   1.40096
 Alpha virt. eigenvalues --    1.40492   1.42642   1.45101   1.47590   1.50999
 Alpha virt. eigenvalues --    1.78215   1.81181   1.84762   1.87383   1.88440
 Alpha virt. eigenvalues --    1.91112   1.94478   1.95953   1.98394   2.04245
 Alpha virt. eigenvalues --    2.06457   2.14301   2.18658   2.21884   2.22285
 Alpha virt. eigenvalues --    2.24240   2.29171   2.31415   2.36528   2.38576
 Alpha virt. eigenvalues --    2.44883   2.49757   2.56547   2.61841   2.62482
 Alpha virt. eigenvalues --    2.65402   2.68448   2.69842   2.79774   2.80996
 Alpha virt. eigenvalues --    2.86350   2.89114   2.94624   2.94917   2.95600
 Alpha virt. eigenvalues --    2.97334   3.07433   3.08684   3.11333   3.22219
 Alpha virt. eigenvalues --    3.23126   3.27671   3.34096   3.39571   3.44998
 Alpha virt. eigenvalues --    3.50036   3.61641   3.68567   3.85787   3.88761
 Alpha virt. eigenvalues --    3.89975   4.00099   4.03002   4.05184   4.14760
 Alpha virt. eigenvalues --    4.21468   4.25609   4.27052   4.37671   4.57465
 Alpha virt. eigenvalues --    4.58355   4.64733   4.69607   4.87111   5.24212
 Alpha virt. eigenvalues --    5.38288   5.46264   5.51240   5.55248   5.57218
 Alpha virt. eigenvalues --    5.70016   5.71716   5.82423   5.83187   5.88532
 Alpha virt. eigenvalues --    5.92394   5.93095   6.01744   6.04125   6.17749
 Alpha virt. eigenvalues --    6.18799   6.22219   6.25545   6.26527   6.29858
 Alpha virt. eigenvalues --    6.32234   6.33918   6.41350   6.48113   6.52547
 Alpha virt. eigenvalues --    6.57704   6.62468   6.72311   6.77467   6.91272
 Alpha virt. eigenvalues --    6.94189   6.97528   7.06149   7.15589   7.15939
 Alpha virt. eigenvalues --    7.29857   7.34088   7.38782   7.42089   7.44439
 Alpha virt. eigenvalues --    7.49265   7.54378   7.57447   7.63090   7.68284
 Alpha virt. eigenvalues --    7.73214   7.74971   7.77212   7.79652   7.88390
 Alpha virt. eigenvalues --    7.90339   7.91218   7.95443   7.97868   8.14931
 Alpha virt. eigenvalues --    8.19181   8.28484   8.35633   8.39905   8.42954
 Alpha virt. eigenvalues --    8.45958   8.47314   8.50929   8.52771   8.54947
 Alpha virt. eigenvalues --    8.57953   8.73632   8.84860   8.91267   8.92990
 Alpha virt. eigenvalues --    8.94735   8.97832   9.02713   9.14722   9.23928
 Alpha virt. eigenvalues --    9.42634   9.47118   9.63393   9.69215   9.76610
 Alpha virt. eigenvalues --    9.81402   9.83325   9.92333  10.02947  10.09420
 Alpha virt. eigenvalues --   10.20016  10.26075  10.36057  10.54873  10.67791
 Alpha virt. eigenvalues --   10.90987  11.08880  11.10496  11.58561  11.64186
 Alpha virt. eigenvalues --   11.74385  11.81225  12.00937  12.03844  12.09163
 Alpha virt. eigenvalues --   12.19211  12.37309  12.61726  12.80284  13.00991
 Alpha virt. eigenvalues --   13.22395  13.46058  14.56591  14.64385  14.78935
 Alpha virt. eigenvalues --   17.18216  29.17708  48.93790 148.76211 254.71734
          Condensed to atoms (all electrons):
               1          2          3          4          5          6
     1  C    4.447144   0.273438   0.427563   0.432960   0.398129  -0.045400
     2  O    0.273438   7.943765  -0.048974  -0.049686  -0.036469   0.340539
     3  H    0.427563  -0.048974   0.678106  -0.053024  -0.035905  -0.006376
     4  H    0.432960  -0.049686  -0.053024   0.659521  -0.037299  -0.004970
     5  H    0.398129  -0.036469  -0.035905  -0.037299   0.631414   0.009629
     6  H   -0.045400   0.340539  -0.006376  -0.004970   0.009629   0.511740
 Mulliken charges:
               1
     1  C    0.066166
     2  O   -0.422613
     3  H    0.038610
     4  H    0.052498
     5  H    0.070500
     6  H    0.194838
 Sum of Mulliken charges =   0.00000
 Mulliken charges with hydrogens summed into heavy atoms:
               1
     1  C    0.227774
     2  O   -0.227774
 Electronic spatial extent (au):  <R**2>=             84.5125
 Charge=              0.0000 electrons
 Dipole moment (field-independent basis, Debye):
    X=              0.9065    Y=             -1.4444    Z=              0.1132  Tot=              1.7091
 Quadrupole moment (field-independent basis, Debye-Ang):
   XX=            -13.1944   YY=            -12.2591   ZZ=            -13.7984
   XY=              2.1362   XZ=             -0.0749   YZ=             -0.1066
 Traceless Quadrupole moment (field-independent basis, Debye-Ang):
   XX=             -0.1104   YY=              0.8249   ZZ=             -0.7144
   XY=              2.1362   XZ=             -0.0749   YZ=             -0.1066
 Octapole moment (field-independent basis, Debye-Ang**2):
  XXX=             -4.2935  YYY=             -0.4855  ZZZ=              0.3576  XYY=             -1.7391
  XXY=             -2.1851  XXZ=              0.0916  XZZ=             -0.4305  YZZ=             -0.6630
  YYZ=             -0.0541  XYZ=             -0.0030
 Hexadecapole moment (field-independent basis, Debye-Ang**3):
 XXXX=            -63.0359 YYYY=            -20.6143 ZZZZ=            -20.5606 XXXY=              3.7028
 XXXZ=              0.0209 YYYX=              3.0167 YYYZ=             -0.2644 ZZZX=              0.2614
 ZZZY=             -0.1989 XXYY=            -12.9317 XXZZ=            -14.6110 YYZZ=             -6.9978
 XXYZ=             -0.1146 YYXZ=             -0.1590 ZZXY=             -0.1289
 N-N= 4.055798435510D+01 E-N=-3.526451977651D+02  KE= 1.152577776497D+02
 Leave Link  601 at Wed Aug 26 10:19:59 2020, MaxMem=  2097152000 cpu:         0.3
 (Enter /opt/cluster/programs/g09/g09_d.01/g09/l9999.exe)
 1\1\GINC-NODE13\SP\RB2PLYPD3-FC\def2QZVP\C1H4O1\BOITTIER\26-Aug-2020\0
 \\#p B2PLYPD3/Def2QZVP\\methanol\\0,1\C,0,-5.174199,-1.252222,0.917213
 \O,0,-3.766024,-1.118851,0.854812\H,0,-5.556272,-2.264072,0.540092\H,0
 ,-5.668293,-0.486036,0.345015\H,0,-5.471558,-1.174266,1.984206\H,0,-3.
 529561,-1.232138,0.000071\\Version=ES64L-G09RevD.01\State=1-A\HF=-115.
 547028\MP2=-115.6933995\RMSD=9.672e-09\PG=C01 [X(C1H4O1)]\\@


 WHEN IT COMES TO CASH FLOW, IT SEEMS LIKE THE TIDE IS ALWAYS GOING OUT.
 Job cpu time:       0 days  0 hours  3 minutes 26.6 seconds.
 File lengths (MBytes):  RWF=     23 Int=      0 D2E=      0 Chk=      4 Scr=      1
 Normal termination of Gaussian 09 at Wed Aug 26 10:19:59 2020.
