 Entering Gaussian System, Link 0=/opt/cluster/programs/g09/g09_d.01/g09//g09
 Input=/home/boittier/MDCM/nms_sampling/methanol_geom.xyz.dir/energies/methanol_2916_energy.com
 Output=/scratch/boittier/methanol_2916_energy/methanol_2916_energy.out
 Initial command:
 /opt/cluster/programs/g09/g09_d.01/g09/l1.exe "/scratch/boittier/methanol_2916_energy/Gau-138217.inp" -scrdir="/scratch/boittier/methanol_2916_energy/"
 Entering Link 1 = /opt/cluster/programs/g09/g09_d.01/g09/l1.exe PID=    138218.
  
 Copyright (c) 1988,1990,1992,1993,1995,1998,2003,2009,2013,
            Gaussian, Inc.  All Rights Reserved.
  
 This is part of the Gaussian(R) 09 program.  It is based on
 the Gaussian(R) 03 system (copyright 2003, Gaussian, Inc.),
 the Gaussian(R) 98 system (copyright 1998, Gaussian, Inc.),
 the Gaussian(R) 94 system (copyright 1995, Gaussian, Inc.),
 the Gaussian 92(TM) system (copyright 1992, Gaussian, Inc.),
 the Gaussian 90(TM) system (copyright 1990, Gaussian, Inc.),
 the Gaussian 88(TM) system (copyright 1988, Gaussian, Inc.),
 the Gaussian 86(TM) system (copyright 1986, Carnegie Mellon
 University), and the Gaussian 82(TM) system (copyright 1983,
 Carnegie Mellon University). Gaussian is a federally registered
 trademark of Gaussian, Inc.
  
 This software contains proprietary and confidential information,
 including trade secrets, belonging to Gaussian, Inc.
  
 This software is provided under written license and may be
 used, copied, transmitted, or stored only in accord with that
 written license.
  
 The following legend is applicable only to US Government
 contracts under FAR:
  
                    RESTRICTED RIGHTS LEGEND
  
 Use, reproduction and disclosure by the US Government is
 subject to restrictions as set forth in subparagraphs (a)
 and (c) of the Commercial Computer Software - Restricted
 Rights clause in FAR 52.227-19.
  
 Gaussian, Inc.
 340 Quinnipiac St., Bldg. 40, Wallingford CT 06492
  
  
 ---------------------------------------------------------------
 Warning -- This program may not be used in any manner that
 competes with the business of Gaussian, Inc. or will provide
 assistance to any competitor of Gaussian, Inc.  The licensee
 of this program is prohibited from giving any competitor of
 Gaussian, Inc. access to this program.  By using this program,
 the user acknowledges that Gaussian, Inc. is engaged in the
 business of creating and licensing software in the field of
 computational chemistry and represents and warrants to the
 licensee that it is not a competitor of Gaussian, Inc. and that
 it will not use this program in any manner prohibited above.
 ---------------------------------------------------------------
  

 Cite this work as:
 Gaussian 09, Revision D.01,
 M. J. Frisch, G. W. Trucks, H. B. Schlegel, G. E. Scuseria, 
 M. A. Robb, J. R. Cheeseman, G. Scalmani, V. Barone, B. Mennucci, 
 G. A. Petersson, H. Nakatsuji, M. Caricato, X. Li, H. P. Hratchian, 
 A. F. Izmaylov, J. Bloino, G. Zheng, J. L. Sonnenberg, M. Hada, 
 M. Ehara, K. Toyota, R. Fukuda, J. Hasegawa, M. Ishida, T. Nakajima, 
 Y. Honda, O. Kitao, H. Nakai, T. Vreven, J. A. Montgomery, Jr., 
 J. E. Peralta, F. Ogliaro, M. Bearpark, J. J. Heyd, E. Brothers, 
 K. N. Kudin, V. N. Staroverov, T. Keith, R. Kobayashi, J. Normand, 
 K. Raghavachari, A. Rendell, J. C. Burant, S. S. Iyengar, J. Tomasi, 
 M. Cossi, N. Rega, J. M. Millam, M. Klene, J. E. Knox, J. B. Cross, 
 V. Bakken, C. Adamo, J. Jaramillo, R. Gomperts, R. E. Stratmann, 
 O. Yazyev, A. J. Austin, R. Cammi, C. Pomelli, J. W. Ochterski, 
 R. L. Martin, K. Morokuma, V. G. Zakrzewski, G. A. Voth, 
 P. Salvador, J. J. Dannenberg, S. Dapprich, A. D. Daniels, 
 O. Farkas, J. B. Foresman, J. V. Ortiz, J. Cioslowski, 
 and D. J. Fox, Gaussian, Inc., Wallingford CT, 2013.
 
 ******************************************
 Gaussian 09:  ES64L-G09RevD.01 24-Apr-2013
                26-Aug-2020 
 ******************************************
 %chk=/home/boittier/MDCM/nms_sampling/methanol_geom.xyz.dir/methanol_2916.chk
 %nproc=8
 Will use up to    8 processors via shared memory.
 %mem=16000MB
 --------------------
 #p B2PLYPD3/Def2QZVP
 --------------------
 1/38=1/1;
 2/12=2,17=6,18=5,40=1/2;
 3/5=45,7=101,11=9,16=1,25=1,30=1,74=-60/1,2,3;
 4//1;
 5/5=2,38=5/2;
 8/10=1/1;
 9/16=-3/6;
 6/7=2,8=2,9=2,10=2/1;
 99/5=1,9=1/99;
 Leave Link    1 at Wed Aug 26 21:57:24 2020, MaxMem=  2097152000 cpu:         0.2
 (Enter /opt/cluster/programs/g09/g09_d.01/g09/l101.exe)
 --------
 methanol
 --------
 Symbolic Z-matrix:
 Charge =  0 Multiplicity = 1
 C                    -5.15979  -1.25836   0.91191 
 O                    -3.77492  -1.11673   0.89206 
 H                    -5.55331  -2.1699    0.57836 
 H                    -5.84235  -0.59868   0.37241 
 H                    -5.36668  -1.16638   1.80267 
 H                    -3.49061  -1.18167  -0.43079 
 
 NAtoms=      6 NQM=        6 NQMF=       0 NMMI=      0 NMMIF=      0
                NMic=       0 NMicF=      0.
                    Isotopes and Nuclear Properties:
 (Nuclear quadrupole moments (NQMom) in fm**2, nuclear magnetic moments (NMagM)
  in nuclear magnetons)

  Atom         1           2           3           4           5           6
 IAtWgt=          12          16           1           1           1           1
 AtmWgt=  12.0000000  15.9949146   1.0078250   1.0078250   1.0078250   1.0078250
 NucSpn=           0           0           1           1           1           1
 AtZEff=   0.0000000   0.0000000   0.0000000   0.0000000   0.0000000   0.0000000
 NQMom=    0.0000000   0.0000000   0.0000000   0.0000000   0.0000000   0.0000000
 NMagM=    0.0000000   0.0000000   2.7928460   2.7928460   2.7928460   2.7928460
 AtZNuc=   6.0000000   8.0000000   1.0000000   1.0000000   1.0000000   1.0000000
 Leave Link  101 at Wed Aug 26 21:57:24 2020, MaxMem=  2097152000 cpu:         0.5
 (Enter /opt/cluster/programs/g09/g09_d.01/g09/l202.exe)
                          Input orientation:                          
 ---------------------------------------------------------------------
 Center     Atomic      Atomic             Coordinates (Angstroms)
 Number     Number       Type             X           Y           Z
 ---------------------------------------------------------------------
      1          6           0       -5.159788   -1.258358    0.911905
      2          8           0       -3.774922   -1.116726    0.892063
      3          1           0       -5.553310   -2.169896    0.578364
      4          1           0       -5.842352   -0.598675    0.372411
      5          1           0       -5.366677   -1.166382    1.802668
      6          1           0       -3.490610   -1.181669   -0.430789
 ---------------------------------------------------------------------
                    Distance matrix (angstroms):
                    1          2          3          4          5
     1  C    0.000000
     2  O    1.392231   0.000000
     3  H    1.047383   2.090511   0.000000
     4  H    1.091847   2.193783   1.610806   0.000000
     5  H    0.919087   1.834489   1.593986   1.610650   0.000000
     6  H    2.143563   1.354617   2.499943   2.552587   2.916880
                    6
     6  H    0.000000
 Stoichiometry    CH4O
 Framework group  C1[X(CH4O)]
 Deg. of freedom    12
 Full point group                 C1      NOp   1
 Largest Abelian subgroup         C1      NOp   1
 Largest concise Abelian subgroup C1      NOp   1
                         Standard orientation:                         
 ---------------------------------------------------------------------
 Center     Atomic      Atomic             Coordinates (Angstroms)
 Number     Number       Type             X           Y           Z
 ---------------------------------------------------------------------
      1          6           0        0.644891    0.004102    0.001507
      2          8           0       -0.737188   -0.163570   -0.005641
      3          1           0        1.068525    0.456958    0.845585
      4          1           0        1.188596    0.571275   -0.756667
      5          1           0        0.960369   -0.857645   -0.049353
      6          1           0       -1.189336    1.113358   -0.003483
 ---------------------------------------------------------------------
 Rotational constants (GHZ):    121.5718386     25.4750836     23.6222549
 Leave Link  202 at Wed Aug 26 21:57:24 2020, MaxMem=  2097152000 cpu:         0.1
 (Enter /opt/cluster/programs/g09/g09_d.01/g09/l301.exe)
 Standard basis: def2QZVP (5D, 7F)
 Ernie: Thresh=  0.10000D-02 Tol=  0.10000D-05 Strict=F.
 There are   284 symmetry adapted cartesian basis functions of A   symmetry.
 There are   234 symmetry adapted basis functions of A   symmetry.
   234 basis functions,   336 primitive gaussians,   284 cartesian basis functions
     9 alpha electrons        9 beta electrons
       nuclear repulsion energy        40.0967641717 Hartrees.
 IExCor=  419 DFT=T Ex+Corr=B2PLYPD3 ExCW=0 ScaHFX=  0.530000
 ScaDFX=  0.470000  0.470000  0.730000  0.730000 ScalE2=  0.270000  0.270000
 IRadAn=      0 IRanWt=     -1 IRanGd=            0 ICorTp=0 IEmpDi=141
 NAtoms=    6 NActive=    6 NUniq=    6 SFac= 1.00D+00 NAtFMM=   60 NAOKFM=F Big=F
 Integral buffers will be    131072 words long.
 Regular integral format.
 Two-electron integral symmetry is turned on.
 R6Disp:  Grimme-D3(BJ) Dispersion energy=       -0.0014966826 Hartrees.
 Nuclear repulsion after empirical dispersion term =       40.0952674892 Hartrees.
 Leave Link  301 at Wed Aug 26 21:57:32 2020, MaxMem=  2097152000 cpu:         0.5
 (Enter /opt/cluster/programs/g09/g09_d.01/g09/l302.exe)
 NPDir=0 NMtPBC=     1 NCelOv=     1 NCel=       1 NClECP=     1 NCelD=      1
         NCelK=      1 NCelE2=     1 NClLst=     1 CellRange=     0.0.
 One-electron integrals computed using PRISM.
   1 Symmetry operations used in ECPInt.
 ECPInt:  NShTT=    2775 NPrTT=    6207 LenC2=    2774 LenP2D=    5737.
 LDataN:  DoStor=T MaxTD1= 8 Len=  415
 NBasis=   234 RedAO= T EigKep=  6.58D-05  NBF=   234
 NBsUse=   234 1.00D-06 EigRej= -1.00D+00 NBFU=   234
 Precomputing XC quadrature grid using
 IXCGrd= 4 IRadAn=           0 IRanWt=          -1 IRanGd=           0 AccXCQ= 0.00D+00.
 Generated NRdTot=       0 NPtTot=           0 NUsed=           0 NTot=          32
 NSgBfM=   284   284   284   284   284 MxSgAt=     6 MxSgA2=     6.
 Leave Link  302 at Wed Aug 26 21:57:33 2020, MaxMem=  2097152000 cpu:         1.9
 (Enter /opt/cluster/programs/g09/g09_d.01/g09/l303.exe)
 DipDrv:  MaxL=1.
 Leave Link  303 at Wed Aug 26 21:57:33 2020, MaxMem=  2097152000 cpu:         0.2
 (Enter /opt/cluster/programs/g09/g09_d.01/g09/l401.exe)
 ExpMin= 7.60D-02 ExpMax= 1.17D+05 ExpMxC= 1.13D+03 IAcc=2 IRadAn=         4 AccDes= 0.00D+00
 Harris functional with IExCor=  419 and IRadAn=       4 diagonalized for initial guess.
 HarFok:  IExCor=  419 AccDes= 0.00D+00 IRadAn=         4 IDoV= 1 UseB2=F ITyADJ=14
 ICtDFT=  3500011 ScaDFX=  1.000000  1.000000  1.000000  1.000000
 FoFCou: FMM=F IPFlag=           0 FMFlag=      100000 FMFlg1=           0
         NFxFlg=           0 DoJE=T BraDBF=F KetDBF=T FulRan=T
         wScrn=  0.000000 ICntrl=     500 IOpCl=  0 I1Cent=   200000004 NGrid=           0
         NMat0=    1 NMatS0=      1 NMatT0=    0 NMatD0=    1 NMtDS0=    0 NMtDT0=    0
 Petite list used in FoFCou.
 Harris En= -115.753034265046    
 JPrj=0 DoOrth=F DoCkMO=F.
 Leave Link  401 at Wed Aug 26 21:57:33 2020, MaxMem=  2097152000 cpu:         3.3
 (Enter /opt/cluster/programs/g09/g09_d.01/g09/l502.exe)
 Closed shell SCF:
 Using DIIS extrapolation, IDIIS=  1040.
 Integral symmetry usage will be decided dynamically.
 Keep R1 ints in memory in canonical form, NReq=389840494.
 IVT=      264814 IEndB=      264814 NGot=  2097152000 MDV=  1718885927
 LenX=  1718885927 LenY=  1718804830
 Requested convergence on RMS density matrix=1.00D-08 within 128 cycles.
 Requested convergence on MAX density matrix=1.00D-06.
 Requested convergence on             energy=1.00D-06.
 No special actions if energy rises.
 FoFCou: FMM=F IPFlag=           0 FMFlag=           0 FMFlg1=           0
         NFxFlg=           0 DoJE=F BraDBF=F KetDBF=F FulRan=T
         wScrn=  0.000000 ICntrl=     600 IOpCl=  0 I1Cent=           0 NGrid=           0
         NMat0=    1 NMatS0=  27495 NMatT0=    0 NMatD0=    1 NMtDS0=    0 NMtDT0=    0
 Symmetry not used in FoFCou.
 Integral accuracy reduced to 1.0D-05 until final iterations.

 Cycle   1  Pass 0  IDiag  1:
 E= -115.307094365915    
 DIIS: error= 3.43D-02 at cycle   1 NSaved=   1.
 NSaved= 1 IEnMin= 1 EnMin= -115.307094365915     IErMin= 1 ErrMin= 3.43D-02
 ErrMax= 3.43D-02  0.00D+00 EMaxC= 1.00D-01 BMatC= 2.02D-01 BMatP= 2.02D-01
 IDIUse=3 WtCom= 6.57D-01 WtEn= 3.43D-01
 Coeff-Com:  0.100D+01
 Coeff-En:   0.100D+01
 Coeff:      0.100D+01
 Gap=     0.208 Goal=   None    Shift=    0.000
 GapD=    0.208 DampG=1.000 DampE=0.500 DampFc=0.5000 IDamp=-1.
 Damping current iteration by 5.00D-01
 RMSDP=1.66D-03 MaxDP=6.15D-02              OVMax= 2.19D-01

 Cycle   2  Pass 0  IDiag  1:
 E= -115.368446024690     Delta-E=       -0.061351658775 Rises=F Damp=T
 DIIS: error= 8.73D-03 at cycle   2 NSaved=   2.
 NSaved= 2 IEnMin= 2 EnMin= -115.368446024690     IErMin= 2 ErrMin= 8.73D-03
 ErrMax= 8.73D-03  0.00D+00 EMaxC= 1.00D-01 BMatC= 2.41D-02 BMatP= 2.02D-01
 IDIUse=3 WtCom= 9.13D-01 WtEn= 8.73D-02
 Coeff-Com: -0.351D-01 0.104D+01
 Coeff-En:   0.461D-01 0.954D+00
 Coeff:     -0.281D-01 0.103D+01
 Gap=     0.351 Goal=   None    Shift=    0.000
 RMSDP=4.63D-04 MaxDP=1.43D-02 DE=-6.14D-02 OVMax= 1.54D-01

 Cycle   3  Pass 0  IDiag  1:
 E= -115.435315285831     Delta-E=       -0.066869261141 Rises=F Damp=F
 DIIS: error= 6.32D-03 at cycle   3 NSaved=   3.
 NSaved= 3 IEnMin= 3 EnMin= -115.435315285831     IErMin= 3 ErrMin= 6.32D-03
 ErrMax= 6.32D-03  0.00D+00 EMaxC= 1.00D-01 BMatC= 1.32D-02 BMatP= 2.41D-02
 IDIUse=3 WtCom= 9.37D-01 WtEn= 6.32D-02
 Coeff-Com: -0.130D+00 0.465D+00 0.665D+00
 Coeff-En:   0.000D+00 0.000D+00 0.100D+01
 Coeff:     -0.122D+00 0.436D+00 0.686D+00
 Gap=     0.345 Goal=   None    Shift=    0.000
 RMSDP=2.16D-04 MaxDP=9.71D-03 DE=-6.69D-02 OVMax= 3.81D-02

 Cycle   4  Pass 0  IDiag  1:
 E= -115.443747472890     Delta-E=       -0.008432187059 Rises=F Damp=F
 DIIS: error= 2.93D-03 at cycle   4 NSaved=   4.
 NSaved= 4 IEnMin= 4 EnMin= -115.443747472890     IErMin= 4 ErrMin= 2.93D-03
 ErrMax= 2.93D-03  0.00D+00 EMaxC= 1.00D-01 BMatC= 1.44D-03 BMatP= 1.32D-02
 IDIUse=3 WtCom= 9.71D-01 WtEn= 2.93D-02
 Coeff-Com: -0.477D-01 0.833D-01 0.304D+00 0.660D+00
 Coeff-En:   0.000D+00 0.000D+00 0.799D-02 0.992D+00
 Coeff:     -0.463D-01 0.809D-01 0.295D+00 0.670D+00
 Gap=     0.339 Goal=   None    Shift=    0.000
 RMSDP=6.20D-05 MaxDP=2.26D-03 DE=-8.43D-03 OVMax= 9.19D-03

 Cycle   5  Pass 0  IDiag  1:
 E= -115.444793317512     Delta-E=       -0.001045844622 Rises=F Damp=F
 DIIS: error= 2.53D-04 at cycle   5 NSaved=   5.
 NSaved= 5 IEnMin= 5 EnMin= -115.444793317512     IErMin= 5 ErrMin= 2.53D-04
 ErrMax= 2.53D-04  0.00D+00 EMaxC= 1.00D-01 BMatC= 1.15D-05 BMatP= 1.44D-03
 IDIUse=3 WtCom= 9.97D-01 WtEn= 2.53D-03
 Coeff-Com: -0.348D-02-0.107D-02 0.308D-01 0.124D+00 0.850D+00
 Coeff-En:   0.000D+00 0.000D+00 0.000D+00 0.000D+00 0.100D+01
 Coeff:     -0.347D-02-0.106D-02 0.307D-01 0.123D+00 0.851D+00
 Gap=     0.340 Goal=   None    Shift=    0.000
 RMSDP=1.05D-05 MaxDP=3.02D-04 DE=-1.05D-03 OVMax= 1.03D-03

 Cycle   6  Pass 0  IDiag  1:
 E= -115.444803905693     Delta-E=       -0.000010588181 Rises=F Damp=F
 DIIS: error= 3.40D-05 at cycle   6 NSaved=   6.
 NSaved= 6 IEnMin= 6 EnMin= -115.444803905693     IErMin= 6 ErrMin= 3.40D-05
 ErrMax= 3.40D-05  0.00D+00 EMaxC= 1.00D-01 BMatC= 4.18D-07 BMatP= 1.15D-05
 IDIUse=1 WtCom= 1.00D+00 WtEn= 0.00D+00
 Coeff-Com:  0.339D-02-0.532D-02-0.166D-01-0.454D-01-0.111D+00 0.118D+01
 Coeff:      0.339D-02-0.532D-02-0.166D-01-0.454D-01-0.111D+00 0.118D+01
 Gap=     0.340 Goal=   None    Shift=    0.000
 RMSDP=4.17D-06 MaxDP=1.31D-04 DE=-1.06D-05 OVMax= 3.94D-04

 Initial convergence to 1.0D-05 achieved.  Increase integral accuracy.
 Cycle   7  Pass 1  IDiag  1:
 E= -115.444801158177     Delta-E=        0.000002747516 Rises=F Damp=F
 DIIS: error= 6.76D-06 at cycle   1 NSaved=   1.
 NSaved= 1 IEnMin= 1 EnMin= -115.444801158177     IErMin= 1 ErrMin= 6.76D-06
 ErrMax= 6.76D-06  0.00D+00 EMaxC= 1.00D-01 BMatC= 2.69D-08 BMatP= 2.69D-08
 IDIUse=1 WtCom= 1.00D+00 WtEn= 0.00D+00
 Coeff-Com:  0.100D+01
 Coeff:      0.100D+01
 Gap=     0.340 Goal=   None    Shift=    0.000
 RMSDP=4.17D-06 MaxDP=1.31D-04 DE= 2.75D-06 OVMax= 6.30D-05

 Cycle   8  Pass 1  IDiag  1:
 E= -115.444801174507     Delta-E=       -0.000000016330 Rises=F Damp=F
 DIIS: error= 1.89D-06 at cycle   2 NSaved=   2.
 NSaved= 2 IEnMin= 2 EnMin= -115.444801174507     IErMin= 2 ErrMin= 1.89D-06
 ErrMax= 1.89D-06  0.00D+00 EMaxC= 1.00D-01 BMatC= 7.41D-10 BMatP= 2.69D-08
 IDIUse=1 WtCom= 1.00D+00 WtEn= 0.00D+00
 Coeff-Com: -0.215D-01 0.102D+01
 Coeff:     -0.215D-01 0.102D+01
 Gap=     0.340 Goal=   None    Shift=    0.000
 RMSDP=2.48D-07 MaxDP=6.63D-06 DE=-1.63D-08 OVMax= 2.18D-05

 Cycle   9  Pass 1  IDiag  1:
 E= -115.444801175690     Delta-E=       -0.000000001183 Rises=F Damp=F
 DIIS: error= 1.45D-06 at cycle   3 NSaved=   3.
 NSaved= 3 IEnMin= 3 EnMin= -115.444801175690     IErMin= 3 ErrMin= 1.45D-06
 ErrMax= 1.45D-06  0.00D+00 EMaxC= 1.00D-01 BMatC= 1.56D-10 BMatP= 7.41D-10
 IDIUse=1 WtCom= 1.00D+00 WtEn= 0.00D+00
 Coeff-Com: -0.269D-01 0.247D+00 0.780D+00
 Coeff:     -0.269D-01 0.247D+00 0.780D+00
 Gap=     0.340 Goal=   None    Shift=    0.000
 RMSDP=5.18D-08 MaxDP=1.99D-06 DE=-1.18D-09 OVMax= 4.92D-06

 Cycle  10  Pass 1  IDiag  1:
 E= -115.444801175857     Delta-E=       -0.000000000167 Rises=F Damp=F
 DIIS: error= 2.90D-07 at cycle   4 NSaved=   4.
 NSaved= 4 IEnMin= 4 EnMin= -115.444801175857     IErMin= 4 ErrMin= 2.90D-07
 ErrMax= 2.90D-07  0.00D+00 EMaxC= 1.00D-01 BMatC= 2.42D-11 BMatP= 1.56D-10
 IDIUse=1 WtCom= 1.00D+00 WtEn= 0.00D+00
 Coeff-Com: -0.356D-02-0.393D-01 0.212D+00 0.831D+00
 Coeff:     -0.356D-02-0.393D-01 0.212D+00 0.831D+00
 Gap=     0.340 Goal=   None    Shift=    0.000
 RMSDP=2.11D-08 MaxDP=1.00D-06 DE=-1.67D-10 OVMax= 4.99D-06

 Cycle  11  Pass 1  IDiag  1:
 E= -115.444801175889     Delta-E=       -0.000000000032 Rises=F Damp=F
 DIIS: error= 1.98D-07 at cycle   5 NSaved=   5.
 NSaved= 5 IEnMin= 5 EnMin= -115.444801175889     IErMin= 5 ErrMin= 1.98D-07
 ErrMax= 1.98D-07  0.00D+00 EMaxC= 1.00D-01 BMatC= 1.25D-11 BMatP= 2.42D-11
 IDIUse=1 WtCom= 1.00D+00 WtEn= 0.00D+00
 Coeff-Com:  0.243D-02-0.737D-01-0.358D-01 0.481D+00 0.626D+00
 Coeff:      0.243D-02-0.737D-01-0.358D-01 0.481D+00 0.626D+00
 Gap=     0.340 Goal=   None    Shift=    0.000
 RMSDP=8.89D-09 MaxDP=3.78D-07 DE=-3.22D-11 OVMax= 1.09D-06

 SCF Done:  E(RB2PLYPD3) =  -115.444801176     A.U. after   11 cycles
            NFock= 11  Conv=0.89D-08     -V/T= 2.0018
 KE= 1.152332673351D+02 PE=-3.517118099990D+02 EE= 8.093847399890D+01
 Leave Link  502 at Wed Aug 26 21:57:49 2020, MaxMem=  2097152000 cpu:        74.0
 (Enter /opt/cluster/programs/g09/g09_d.01/g09/l801.exe)
 DoSCS=T DFT=T ScalE2(SS,OS)=  0.270000  0.270000
 ExpMin= 7.60D-02 ExpMax= 1.17D+05 ExpMxC= 1.13D+03 IAcc=3 IRadAn=         5 AccDes= 0.00D+00
 HarFok:  IExCor=  205 AccDes= 0.00D+00 IRadAn=         5 IDoV=-2 UseB2=F ITyADJ=14
 ICtDFT= 12500011 ScaDFX=  1.000000  1.000000  1.000000  1.000000
 Largest valence mixing into a core orbital is  1.04D-04
 Largest core mixing into a valence orbital is  1.31D-05
 Range of M.O.s used for correlation:     3   234
 NBasis=   234 NAE=     9 NBE=     9 NFC=     2 NFV=     0
 NROrb=    232 NOA=     7 NOB=     7 NVA=   225 NVB=   225

 **** Warning!!: The largest alpha MO coefficient is  0.32338866D+02

 Leave Link  801 at Wed Aug 26 21:57:49 2020, MaxMem=  2097152000 cpu:         0.6
 (Enter /opt/cluster/programs/g09/g09_d.01/g09/l906.exe)
 DoSCS=T DFT=T ScalE2(SS,OS)=  0.270000  0.270000
 FulOut=F Deriv=F AODrv=F NAtomX=     6
   MMem=        3646  MDisk=           7 MDiskD=           7
  W3Min=      447300 MinDsk=     1090093 NBas6D=         284
 NBas2D=       41310    NTT=       40470    LW2=     4508827
    MDV=  2096872804 MDiskM=       16391 NBas2p=       41301
 Fully in-core method, ICMem=  1722292712.
 IMap=   1   2   3   4   5   6   7
 JobTyp=1 Pass  1 fully in-core, NPsUse=  8.
 Compute canonical integrals.
 FoFCou: FMM=F IPFlag=           0 FMFlag=           0 FMFlg1=           0
         NFxFlg=           0 DoJE=F BraDBF=F KetDBF=F FulRan=T
         wScrn=  0.000000 ICntrl=     600 IOpCl=  1 I1Cent=           0 NGrid=           0
         NMat0=    1 NMatS0=  41310 NMatT0=    0 NMatD0=    1 NMtDS0=    0 NMtDT0=    0
 Symmetry not used in FoFCou.
 Spin components of T(2) and E(2):
     alpha-alpha T2 =       0.2394763179D-01 E2=     -0.1759661406D-01
     alpha-beta  T2 =       0.1578392439D+00 E2=     -0.1197885448D+00
     beta-beta   T2 =       0.2394763179D-01 E2=     -0.1759661406D-01
 The integrals were generated   1 times.
 E2(B2PLYPD3) =    -0.1549817729D+00 E(B2PLYPD3) =    -0.11559978294881D+03
 Leave Link  906 at Wed Aug 26 21:58:03 2020, MaxMem=  2097152000 cpu:       112.8
 (Enter /opt/cluster/programs/g09/g09_d.01/g09/l601.exe)
 Copying SCF densities to generalized density rwf, IOpCl= 0 IROHF=0.

 **********************************************************************

            Population analysis using the SCF density.

 **********************************************************************

 Orbital symmetries:
       Occupied  (A) (A) (A) (A) (A) (A) (A) (A) (A)
       Virtual   (A) (A) (A) (A) (A) (A) (A) (A) (A) (A) (A) (A)
                 (A) (A) (A) (A) (A) (A) (A) (A) (A) (A) (A) (A)
                 (A) (A) (A) (A) (A) (A) (A) (A) (A) (A) (A) (A)
                 (A) (A) (A) (A) (A) (A) (A) (A) (A) (A) (A) (A)
                 (A) (A) (A) (A) (A) (A) (A) (A) (A) (A) (A) (A)
                 (A) (A) (A) (A) (A) (A) (A) (A) (A) (A) (A) (A)
                 (A) (A) (A) (A) (A) (A) (A) (A) (A) (A) (A) (A)
                 (A) (A) (A) (A) (A) (A) (A) (A) (A) (A) (A) (A)
                 (A) (A) (A) (A) (A) (A) (A) (A) (A) (A) (A) (A)
                 (A) (A) (A) (A) (A) (A) (A) (A) (A) (A) (A) (A)
                 (A) (A) (A) (A) (A) (A) (A) (A) (A) (A) (A) (A)
                 (A) (A) (A) (A) (A) (A) (A) (A) (A) (A) (A) (A)
                 (A) (A) (A) (A) (A) (A) (A) (A) (A) (A) (A) (A)
                 (A) (A) (A) (A) (A) (A) (A) (A) (A) (A) (A) (A)
                 (A) (A) (A) (A) (A) (A) (A) (A) (A) (A) (A) (A)
                 (A) (A) (A) (A) (A) (A) (A) (A) (A) (A) (A) (A)
                 (A) (A) (A) (A) (A) (A) (A) (A) (A) (A) (A) (A)
                 (A) (A) (A) (A) (A) (A) (A) (A) (A) (A) (A) (A)
                 (A) (A) (A) (A) (A) (A) (A) (A) (A)
 The electronic state is 1-A.
 Alpha  occ. eigenvalues --  -19.75716 -10.62634  -1.13358  -0.79429  -0.56648
 Alpha  occ. eigenvalues --   -0.50760  -0.49842  -0.40343  -0.34682
 Alpha virt. eigenvalues --   -0.00632   0.07359   0.12607   0.13074   0.15284
 Alpha virt. eigenvalues --    0.17130   0.18612   0.22806   0.29547   0.33514
 Alpha virt. eigenvalues --    0.35456   0.37238   0.39518   0.41444   0.44040
 Alpha virt. eigenvalues --    0.49530   0.51350   0.56028   0.57609   0.65092
 Alpha virt. eigenvalues --    0.73092   0.75380   0.76764   0.77030   0.79186
 Alpha virt. eigenvalues --    0.81646   0.84381   0.87840   0.90916   0.93007
 Alpha virt. eigenvalues --    0.95270   0.97096   0.99176   1.09816   1.14312
 Alpha virt. eigenvalues --    1.15056   1.15817   1.24990   1.33917   1.35656
 Alpha virt. eigenvalues --    1.41470   1.46741   1.52012   1.52965   1.63261
 Alpha virt. eigenvalues --    1.71030   1.73530   1.78464   1.82246   1.83254
 Alpha virt. eigenvalues --    1.86371   1.94077   1.94984   1.99763   2.05576
 Alpha virt. eigenvalues --    2.05624   2.11616   2.13657   2.15851   2.18180
 Alpha virt. eigenvalues --    2.24480   2.28411   2.29882   2.31826   2.34267
 Alpha virt. eigenvalues --    2.38864   2.41753   2.47545   2.52185   2.53425
 Alpha virt. eigenvalues --    2.60811   2.63906   2.68789   2.72892   2.75805
 Alpha virt. eigenvalues --    2.78005   2.86201   2.90834   2.91683   3.01656
 Alpha virt. eigenvalues --    3.07756   3.12787   3.16264   3.20557   3.26745
 Alpha virt. eigenvalues --    3.29426   3.34203   3.41639   3.48952   3.54251
 Alpha virt. eigenvalues --    3.55543   3.72407   3.75121   3.84744   3.88240
 Alpha virt. eigenvalues --    3.91246   4.02378   4.05088   4.12801   4.19247
 Alpha virt. eigenvalues --    4.26985   4.28985   4.30519   4.33026   4.38187
 Alpha virt. eigenvalues --    4.44787   4.54868   4.64689   4.69764   5.01025
 Alpha virt. eigenvalues --    5.15046   5.30922   5.50153   5.53498   5.57542
 Alpha virt. eigenvalues --    5.67569   5.71202   5.73993   5.77046   5.84292
 Alpha virt. eigenvalues --    5.86879   5.89922   6.00989   6.04338   6.05650
 Alpha virt. eigenvalues --    6.10465   6.17720   6.21215   6.23306   6.26846
 Alpha virt. eigenvalues --    6.35655   6.38865   6.39422   6.41657   6.55233
 Alpha virt. eigenvalues --    6.56216   6.58557   6.60179   6.61990   6.72334
 Alpha virt. eigenvalues --    6.77190   6.80760   6.84279   6.87872   6.98354
 Alpha virt. eigenvalues --    7.08932   7.17928   7.28135   7.32033   7.42097
 Alpha virt. eigenvalues --    7.60451   7.63186   7.66985   7.70809   7.72721
 Alpha virt. eigenvalues --    7.76197   7.79006   7.81462   7.87322   7.93459
 Alpha virt. eigenvalues --    7.97895   8.03268   8.06682   8.16737   8.18418
 Alpha virt. eigenvalues --    8.20892   8.32122   8.32905   8.35753   8.41207
 Alpha virt. eigenvalues --    8.43949   8.49308   8.52929   8.54567   8.57513
 Alpha virt. eigenvalues --    8.59187   8.62675   8.73724   8.73904   8.88194
 Alpha virt. eigenvalues --    9.01848   9.02817   9.15304   9.23678   9.27120
 Alpha virt. eigenvalues --    9.30840   9.42028   9.45920   9.53974   9.64173
 Alpha virt. eigenvalues --    9.76844   9.87980   9.93955  10.17896  10.21712
 Alpha virt. eigenvalues --   10.33292  10.43188  10.49111  10.62093  10.68550
 Alpha virt. eigenvalues --   10.71116  10.82602  10.92006  11.14875  11.28570
 Alpha virt. eigenvalues --   11.48894  11.60323  11.74963  11.78290  11.96057
 Alpha virt. eigenvalues --   12.02412  12.17900  12.22037  12.42667  12.58328
 Alpha virt. eigenvalues --   12.74079  12.88899  13.18514  13.36490  13.72684
 Alpha virt. eigenvalues --   14.51568  29.48811  48.47856 149.18220 254.20543
          Condensed to atoms (all electrons):
               1          2          3          4          5          6
     1  C    4.404233   0.282239   0.442139   0.429475   0.422131  -0.042522
     2  O    0.282239   8.039487  -0.045639  -0.039028  -0.040846   0.266364
     3  H    0.442139  -0.045639   0.696491  -0.077011  -0.045705  -0.009814
     4  H    0.429475  -0.039028  -0.077011   0.712985  -0.044862  -0.013612
     5  H    0.422131  -0.040846  -0.045705  -0.044862   0.611584   0.014215
     6  H   -0.042522   0.266364  -0.009814  -0.013612   0.014215   0.540172
 Mulliken charges:
               1
     1  C    0.062305
     2  O   -0.462576
     3  H    0.039538
     4  H    0.032054
     5  H    0.083483
     6  H    0.245197
 Sum of Mulliken charges =   0.00000
 Mulliken charges with hydrogens summed into heavy atoms:
               1
     1  C    0.217380
     2  O   -0.217380
 Electronic spatial extent (au):  <R**2>=             85.0386
 Charge=              0.0000 electrons
 Dipole moment (field-independent basis, Debye):
    X=              0.9120    Y=              1.6483    Z=              0.0413  Tot=              1.8842
 Quadrupole moment (field-independent basis, Debye-Ang):
   XX=            -13.0539   YY=            -11.3906   ZZ=            -14.2902
   XY=             -2.3712   XZ=             -0.0194   YZ=              0.0527
 Traceless Quadrupole moment (field-independent basis, Debye-Ang):
   XX=             -0.1423   YY=              1.5210   ZZ=             -1.3787
   XY=             -2.3712   XZ=             -0.0194   YZ=              0.0527
 Octapole moment (field-independent basis, Debye-Ang**2):
  XXX=             -2.0747  YYY=              1.2263  ZZZ=              0.2220  XYY=             -2.6154
  XXY=              2.7058  XXZ=             -0.0055  XZZ=             -0.0756  YZZ=             -0.0103
  YYZ=             -0.0165  XYZ=              0.0404
 Hexadecapole moment (field-independent basis, Debye-Ang**3):
 XXXX=            -63.6366 YYYY=            -20.4735 ZZZZ=            -20.0892 XXXY=             -3.3806
 XXXZ=             -0.0242 YYYX=             -3.9793 YYYZ=              0.1356 ZZZX=              0.1958
 ZZZY=              0.1931 XXYY=            -12.0250 XXZZ=            -14.9394 YYZZ=             -7.3194
 XXYZ=             -0.0186 YYXZ=             -0.0278 ZZXY=              0.1366
 N-N= 4.009526748916D+01 E-N=-3.517118298227D+02  KE= 1.152332673351D+02
 Leave Link  601 at Wed Aug 26 21:58:03 2020, MaxMem=  2097152000 cpu:         0.3
 (Enter /opt/cluster/programs/g09/g09_d.01/g09/l9999.exe)
 1\1\GINC-NODE36\SP\RB2PLYPD3-FC\def2QZVP\C1H4O1\BOITTIER\26-Aug-2020\0
 \\#p B2PLYPD3/Def2QZVP\\methanol\\0,1\C,0,-5.159788,-1.258358,0.911905
 \O,0,-3.774922,-1.116726,0.892063\H,0,-5.55331,-2.169896,0.578364\H,0,
 -5.842352,-0.598675,0.372411\H,0,-5.366677,-1.166382,1.802668\H,0,-3.4
 9061,-1.181669,-0.430789\\Version=ES64L-G09RevD.01\State=1-A\HF=-115.4
 448012\MP2=-115.5997829\RMSD=8.888e-09\PG=C01 [X(C1H4O1)]\\@


 WE MIGHT AS WELL ATTEMPT TO INTRODUCE A NEW PLANET 
 INTO THE SOLAR SYSTEM, OR TO ANNIHILATE ONE ALREADYIN EXISTENCE, 
 AS TO CREATE OR DESTROY A PARTICLE OF HYDROGEN.
 ALL THE CHANGES WE CAN PRODUCE CONSIST IN SEPARATING PARTICLES
 THAT ARE IN A STATE OF ... COMBINATION, AND JOINING 
 THOSE THAT WERE PREVIOUSLY AT A DISTANCE.

                                    -- JOHN DALTON, 1810
 Job cpu time:       0 days  0 hours  3 minutes 14.7 seconds.
 File lengths (MBytes):  RWF=     23 Int=      0 D2E=      0 Chk=      4 Scr=      1
 Normal termination of Gaussian 09 at Wed Aug 26 21:58:03 2020.
