 Entering Gaussian System, Link 0=/opt/cluster/programs/g09/g09_d.01/g09//g09
 Input=/home/boittier/MDCM/nms_sampling/methanol_geom.xyz.dir/energies/methanol_1562_energy.com
 Output=/scratch/boittier/methanol_1562_energy/methanol_1562_energy.out
 Initial command:
 /opt/cluster/programs/g09/g09_d.01/g09/l1.exe "/scratch/boittier/methanol_1562_energy/Gau-121507.inp" -scrdir="/scratch/boittier/methanol_1562_energy/"
 Entering Link 1 = /opt/cluster/programs/g09/g09_d.01/g09/l1.exe PID=    121508.
  
 Copyright (c) 1988,1990,1992,1993,1995,1998,2003,2009,2013,
            Gaussian, Inc.  All Rights Reserved.
  
 This is part of the Gaussian(R) 09 program.  It is based on
 the Gaussian(R) 03 system (copyright 2003, Gaussian, Inc.),
 the Gaussian(R) 98 system (copyright 1998, Gaussian, Inc.),
 the Gaussian(R) 94 system (copyright 1995, Gaussian, Inc.),
 the Gaussian 92(TM) system (copyright 1992, Gaussian, Inc.),
 the Gaussian 90(TM) system (copyright 1990, Gaussian, Inc.),
 the Gaussian 88(TM) system (copyright 1988, Gaussian, Inc.),
 the Gaussian 86(TM) system (copyright 1986, Carnegie Mellon
 University), and the Gaussian 82(TM) system (copyright 1983,
 Carnegie Mellon University). Gaussian is a federally registered
 trademark of Gaussian, Inc.
  
 This software contains proprietary and confidential information,
 including trade secrets, belonging to Gaussian, Inc.
  
 This software is provided under written license and may be
 used, copied, transmitted, or stored only in accord with that
 written license.
  
 The following legend is applicable only to US Government
 contracts under FAR:
  
                    RESTRICTED RIGHTS LEGEND
  
 Use, reproduction and disclosure by the US Government is
 subject to restrictions as set forth in subparagraphs (a)
 and (c) of the Commercial Computer Software - Restricted
 Rights clause in FAR 52.227-19.
  
 Gaussian, Inc.
 340 Quinnipiac St., Bldg. 40, Wallingford CT 06492
  
  
 ---------------------------------------------------------------
 Warning -- This program may not be used in any manner that
 competes with the business of Gaussian, Inc. or will provide
 assistance to any competitor of Gaussian, Inc.  The licensee
 of this program is prohibited from giving any competitor of
 Gaussian, Inc. access to this program.  By using this program,
 the user acknowledges that Gaussian, Inc. is engaged in the
 business of creating and licensing software in the field of
 computational chemistry and represents and warrants to the
 licensee that it is not a competitor of Gaussian, Inc. and that
 it will not use this program in any manner prohibited above.
 ---------------------------------------------------------------
  

 Cite this work as:
 Gaussian 09, Revision D.01,
 M. J. Frisch, G. W. Trucks, H. B. Schlegel, G. E. Scuseria, 
 M. A. Robb, J. R. Cheeseman, G. Scalmani, V. Barone, B. Mennucci, 
 G. A. Petersson, H. Nakatsuji, M. Caricato, X. Li, H. P. Hratchian, 
 A. F. Izmaylov, J. Bloino, G. Zheng, J. L. Sonnenberg, M. Hada, 
 M. Ehara, K. Toyota, R. Fukuda, J. Hasegawa, M. Ishida, T. Nakajima, 
 Y. Honda, O. Kitao, H. Nakai, T. Vreven, J. A. Montgomery, Jr., 
 J. E. Peralta, F. Ogliaro, M. Bearpark, J. J. Heyd, E. Brothers, 
 K. N. Kudin, V. N. Staroverov, T. Keith, R. Kobayashi, J. Normand, 
 K. Raghavachari, A. Rendell, J. C. Burant, S. S. Iyengar, J. Tomasi, 
 M. Cossi, N. Rega, J. M. Millam, M. Klene, J. E. Knox, J. B. Cross, 
 V. Bakken, C. Adamo, J. Jaramillo, R. Gomperts, R. E. Stratmann, 
 O. Yazyev, A. J. Austin, R. Cammi, C. Pomelli, J. W. Ochterski, 
 R. L. Martin, K. Morokuma, V. G. Zakrzewski, G. A. Voth, 
 P. Salvador, J. J. Dannenberg, S. Dapprich, A. D. Daniels, 
 O. Farkas, J. B. Foresman, J. V. Ortiz, J. Cioslowski, 
 and D. J. Fox, Gaussian, Inc., Wallingford CT, 2013.
 
 ******************************************
 Gaussian 09:  ES64L-G09RevD.01 24-Apr-2013
                26-Aug-2020 
 ******************************************
 %chk=/home/boittier/MDCM/nms_sampling/methanol_geom.xyz.dir/methanol_1562.chk
 %nproc=8
 Will use up to    8 processors via shared memory.
 %mem=16000MB
 --------------------
 #p B2PLYPD3/Def2QZVP
 --------------------
 1/38=1/1;
 2/12=2,17=6,18=5,40=1/2;
 3/5=45,7=101,11=9,16=1,25=1,30=1,74=-60/1,2,3;
 4//1;
 5/5=2,38=5/2;
 8/10=1/1;
 9/16=-3/6;
 6/7=2,8=2,9=2,10=2/1;
 99/5=1,9=1/99;
 Leave Link    1 at Wed Aug 26 12:31:58 2020, MaxMem=  2097152000 cpu:         0.2
 (Enter /opt/cluster/programs/g09/g09_d.01/g09/l101.exe)
 --------
 methanol
 --------
 Symbolic Z-matrix:
 Charge =  0 Multiplicity = 1
 C                    -5.1792   -1.25945   0.90448 
 O                    -3.76968  -1.12098   0.8708 
 H                    -5.51806  -2.21276   0.5948 
 H                    -5.67799  -0.5371    0.38115 
 H                    -5.40866  -1.10566   1.95737 
 H                    -3.50463  -1.18253  -0.17523 
 
 NAtoms=      6 NQM=        6 NQMF=       0 NMMI=      0 NMMIF=      0
                NMic=       0 NMicF=      0.
                    Isotopes and Nuclear Properties:
 (Nuclear quadrupole moments (NQMom) in fm**2, nuclear magnetic moments (NMagM)
  in nuclear magnetons)

  Atom         1           2           3           4           5           6
 IAtWgt=          12          16           1           1           1           1
 AtmWgt=  12.0000000  15.9949146   1.0078250   1.0078250   1.0078250   1.0078250
 NucSpn=           0           0           1           1           1           1
 AtZEff=   0.0000000   0.0000000   0.0000000   0.0000000   0.0000000   0.0000000
 NQMom=    0.0000000   0.0000000   0.0000000   0.0000000   0.0000000   0.0000000
 NMagM=    0.0000000   0.0000000   2.7928460   2.7928460   2.7928460   2.7928460
 AtZNuc=   6.0000000   8.0000000   1.0000000   1.0000000   1.0000000   1.0000000
 Leave Link  101 at Wed Aug 26 12:31:59 2020, MaxMem=  2097152000 cpu:         0.5
 (Enter /opt/cluster/programs/g09/g09_d.01/g09/l202.exe)
                          Input orientation:                          
 ---------------------------------------------------------------------
 Center     Atomic      Atomic             Coordinates (Angstroms)
 Number     Number       Type             X           Y           Z
 ---------------------------------------------------------------------
      1          6           0       -5.179202   -1.259454    0.904479
      2          8           0       -3.769676   -1.120978    0.870800
      3          1           0       -5.518062   -2.212763    0.594797
      4          1           0       -5.677994   -0.537100    0.381151
      5          1           0       -5.408663   -1.105662    1.957374
      6          1           0       -3.504634   -1.182530   -0.175228
 ---------------------------------------------------------------------
                    Distance matrix (angstroms):
                    1          2          3          4          5
     1  C    0.000000
     2  O    1.416712   0.000000
     3  H    1.058077   2.079670   0.000000
     4  H    1.021989   2.054835   1.696782   0.000000
     5  H    1.088528   1.966509   1.759050   1.697139   0.000000
     6  H    1.993956   1.080838   2.389186   2.334445   2.859935
                    6
     6  H    0.000000
 Stoichiometry    CH4O
 Framework group  C1[X(CH4O)]
 Deg. of freedom    12
 Full point group                 C1      NOp   1
 Largest Abelian subgroup         C1      NOp   1
 Largest concise Abelian subgroup C1      NOp   1
                         Standard orientation:                         
 ---------------------------------------------------------------------
 Center     Atomic      Atomic             Coordinates (Angstroms)
 Number     Number       Type             X           Y           Z
 ---------------------------------------------------------------------
      1          6           0       -0.665156   -0.033985   -0.001945
      2          8           0        0.741051    0.137794    0.010283
      3          1           0       -1.037278   -0.536763    0.851441
      4          1           0       -1.018191   -0.491905   -0.844641
      5          1           0       -1.030322    0.991306   -0.019888
      6          1           0        1.148320   -0.861078   -0.057510
 ---------------------------------------------------------------------
 Rotational constants (GHZ):    127.3095836     25.2556329     23.9846835
 Leave Link  202 at Wed Aug 26 12:31:59 2020, MaxMem=  2097152000 cpu:         0.0
 (Enter /opt/cluster/programs/g09/g09_d.01/g09/l301.exe)
 Standard basis: def2QZVP (5D, 7F)
 Ernie: Thresh=  0.10000D-02 Tol=  0.10000D-05 Strict=F.
 There are   284 symmetry adapted cartesian basis functions of A   symmetry.
 There are   234 symmetry adapted basis functions of A   symmetry.
   234 basis functions,   336 primitive gaussians,   284 cartesian basis functions
     9 alpha electrons        9 beta electrons
       nuclear repulsion energy        40.2690180797 Hartrees.
 IExCor=  419 DFT=T Ex+Corr=B2PLYPD3 ExCW=0 ScaHFX=  0.530000
 ScaDFX=  0.470000  0.470000  0.730000  0.730000 ScalE2=  0.270000  0.270000
 IRadAn=      0 IRanWt=     -1 IRanGd=            0 ICorTp=0 IEmpDi=141
 NAtoms=    6 NActive=    6 NUniq=    6 SFac= 1.00D+00 NAtFMM=   60 NAOKFM=F Big=F
 Integral buffers will be    131072 words long.
 Regular integral format.
 Two-electron integral symmetry is turned on.
 R6Disp:  Grimme-D3(BJ) Dispersion energy=       -0.0013088674 Hartrees.
 Nuclear repulsion after empirical dispersion term =       40.2677092122 Hartrees.
 Leave Link  301 at Wed Aug 26 12:31:59 2020, MaxMem=  2097152000 cpu:         0.4
 (Enter /opt/cluster/programs/g09/g09_d.01/g09/l302.exe)
 NPDir=0 NMtPBC=     1 NCelOv=     1 NCel=       1 NClECP=     1 NCelD=      1
         NCelK=      1 NCelE2=     1 NClLst=     1 CellRange=     0.0.
 One-electron integrals computed using PRISM.
   1 Symmetry operations used in ECPInt.
 ECPInt:  NShTT=    2775 NPrTT=    6207 LenC2=    2774 LenP2D=    5739.
 LDataN:  DoStor=T MaxTD1= 8 Len=  415
 NBasis=   234 RedAO= T EigKep=  1.08D-04  NBF=   234
 NBsUse=   234 1.00D-06 EigRej= -1.00D+00 NBFU=   234
 Precomputing XC quadrature grid using
 IXCGrd= 4 IRadAn=           0 IRanWt=          -1 IRanGd=           0 AccXCQ= 0.00D+00.
 Generated NRdTot=       0 NPtTot=           0 NUsed=           0 NTot=          32
 NSgBfM=   284   284   284   284   284 MxSgAt=     6 MxSgA2=     6.
 Leave Link  302 at Wed Aug 26 12:32:00 2020, MaxMem=  2097152000 cpu:         1.8
 (Enter /opt/cluster/programs/g09/g09_d.01/g09/l303.exe)
 DipDrv:  MaxL=1.
 Leave Link  303 at Wed Aug 26 12:32:00 2020, MaxMem=  2097152000 cpu:         0.2
 (Enter /opt/cluster/programs/g09/g09_d.01/g09/l401.exe)
 ExpMin= 7.60D-02 ExpMax= 1.17D+05 ExpMxC= 1.13D+03 IAcc=2 IRadAn=         4 AccDes= 0.00D+00
 Harris functional with IExCor=  419 and IRadAn=       4 diagonalized for initial guess.
 HarFok:  IExCor=  419 AccDes= 0.00D+00 IRadAn=         4 IDoV= 1 UseB2=F ITyADJ=14
 ICtDFT=  3500011 ScaDFX=  1.000000  1.000000  1.000000  1.000000
 FoFCou: FMM=F IPFlag=           0 FMFlag=      100000 FMFlg1=           0
         NFxFlg=           0 DoJE=T BraDBF=F KetDBF=T FulRan=T
         wScrn=  0.000000 ICntrl=     500 IOpCl=  0 I1Cent=   200000004 NGrid=           0
         NMat0=    1 NMatS0=      1 NMatT0=    0 NMatD0=    1 NMtDS0=    0 NMtDT0=    0
 Petite list used in FoFCou.
 Harris En= -115.813989817823    
 JPrj=0 DoOrth=F DoCkMO=F.
 Leave Link  401 at Wed Aug 26 12:32:00 2020, MaxMem=  2097152000 cpu:         3.3
 (Enter /opt/cluster/programs/g09/g09_d.01/g09/l502.exe)
 Closed shell SCF:
 Using DIIS extrapolation, IDIIS=  1040.
 Integral symmetry usage will be decided dynamically.
 Keep R1 ints in memory in canonical form, NReq=389840494.
 IVT=      264814 IEndB=      264814 NGot=  2097152000 MDV=  1718885927
 LenX=  1718885927 LenY=  1718804830
 Requested convergence on RMS density matrix=1.00D-08 within 128 cycles.
 Requested convergence on MAX density matrix=1.00D-06.
 Requested convergence on             energy=1.00D-06.
 No special actions if energy rises.
 FoFCou: FMM=F IPFlag=           0 FMFlag=           0 FMFlg1=           0
         NFxFlg=           0 DoJE=F BraDBF=F KetDBF=F FulRan=T
         wScrn=  0.000000 ICntrl=     600 IOpCl=  0 I1Cent=           0 NGrid=           0
         NMat0=    1 NMatS0=  27495 NMatT0=    0 NMatD0=    1 NMtDS0=    0 NMtDT0=    0
 Symmetry not used in FoFCou.
 Integral accuracy reduced to 1.0D-05 until final iterations.

 Cycle   1  Pass 0  IDiag  1:
 E= -115.430316955816    
 DIIS: error= 3.03D-02 at cycle   1 NSaved=   1.
 NSaved= 1 IEnMin= 1 EnMin= -115.430316955816     IErMin= 1 ErrMin= 3.03D-02
 ErrMax= 3.03D-02  0.00D+00 EMaxC= 1.00D-01 BMatC= 1.77D-01 BMatP= 1.77D-01
 IDIUse=3 WtCom= 6.97D-01 WtEn= 3.03D-01
 Coeff-Com:  0.100D+01
 Coeff-En:   0.100D+01
 Coeff:      0.100D+01
 Gap=     0.314 Goal=   None    Shift=    0.000
 GapD=    0.314 DampG=1.000 DampE=0.500 DampFc=0.5000 IDamp=-1.
 Damping current iteration by 5.00D-01
 RMSDP=1.36D-03 MaxDP=4.49D-02              OVMax= 1.41D-01

 Cycle   2  Pass 0  IDiag  1:
 E= -115.481643189843     Delta-E=       -0.051326234027 Rises=F Damp=T
 DIIS: error= 1.03D-02 at cycle   2 NSaved=   2.
 NSaved= 2 IEnMin= 2 EnMin= -115.481643189843     IErMin= 2 ErrMin= 1.03D-02
 ErrMax= 1.03D-02  0.00D+00 EMaxC= 1.00D-01 BMatC= 1.95D-02 BMatP= 1.77D-01
 IDIUse=3 WtCom= 8.97D-01 WtEn= 1.03D-01
 Coeff-Com: -0.126D+00 0.113D+01
 Coeff-En:   0.000D+00 0.100D+01
 Coeff:     -0.113D+00 0.111D+01
 Gap=     0.414 Goal=   None    Shift=    0.000
 RMSDP=3.68D-04 MaxDP=1.00D-02 DE=-5.13D-02 OVMax= 8.34D-02

 Cycle   3  Pass 0  IDiag  1:
 E= -115.531249790635     Delta-E=       -0.049606600792 Rises=F Damp=F
 DIIS: error= 4.88D-03 at cycle   3 NSaved=   3.
 NSaved= 3 IEnMin= 3 EnMin= -115.531249790635     IErMin= 3 ErrMin= 4.88D-03
 ErrMax= 4.88D-03  0.00D+00 EMaxC= 1.00D-01 BMatC= 5.82D-03 BMatP= 1.95D-02
 IDIUse=3 WtCom= 9.51D-01 WtEn= 4.88D-02
 Coeff-Com: -0.142D+00 0.391D+00 0.751D+00
 Coeff-En:   0.000D+00 0.000D+00 0.100D+01
 Coeff:     -0.135D+00 0.372D+00 0.763D+00
 Gap=     0.395 Goal=   None    Shift=    0.000
 RMSDP=1.45D-04 MaxDP=5.79D-03 DE=-4.96D-02 OVMax= 1.80D-02

 Cycle   4  Pass 0  IDiag  1:
 E= -115.534554935920     Delta-E=       -0.003305145286 Rises=F Damp=F
 DIIS: error= 1.90D-03 at cycle   4 NSaved=   4.
 NSaved= 4 IEnMin= 4 EnMin= -115.534554935920     IErMin= 4 ErrMin= 1.90D-03
 ErrMax= 1.90D-03  0.00D+00 EMaxC= 1.00D-01 BMatC= 7.66D-04 BMatP= 5.82D-03
 IDIUse=3 WtCom= 9.81D-01 WtEn= 1.90D-02
 Coeff-Com: -0.500D-01 0.894D-01 0.343D+00 0.618D+00
 Coeff-En:   0.000D+00 0.000D+00 0.249D-01 0.975D+00
 Coeff:     -0.490D-01 0.877D-01 0.337D+00 0.625D+00
 Gap=     0.394 Goal=   None    Shift=    0.000
 RMSDP=4.52D-05 MaxDP=1.95D-03 DE=-3.31D-03 OVMax= 7.02D-03

 Cycle   5  Pass 0  IDiag  1:
 E= -115.535129613318     Delta-E=       -0.000574677398 Rises=F Damp=F
 DIIS: error= 1.61D-04 at cycle   5 NSaved=   5.
 NSaved= 5 IEnMin= 5 EnMin= -115.535129613318     IErMin= 5 ErrMin= 1.61D-04
 ErrMax= 1.61D-04  0.00D+00 EMaxC= 1.00D-01 BMatC= 6.52D-06 BMatP= 7.66D-04
 IDIUse=3 WtCom= 9.98D-01 WtEn= 1.61D-03
 Coeff-Com: -0.703D-02 0.839D-02 0.544D-01 0.149D+00 0.795D+00
 Coeff-En:   0.000D+00 0.000D+00 0.000D+00 0.000D+00 0.100D+01
 Coeff:     -0.701D-02 0.838D-02 0.543D-01 0.149D+00 0.796D+00
 Gap=     0.394 Goal=   None    Shift=    0.000
 RMSDP=6.91D-06 MaxDP=1.88D-04 DE=-5.75D-04 OVMax= 5.51D-04

 Initial convergence to 1.0D-05 achieved.  Increase integral accuracy.
 Cycle   6  Pass 1  IDiag  1:
 E= -115.535140298143     Delta-E=       -0.000010684824 Rises=F Damp=F
 DIIS: error= 1.44D-05 at cycle   1 NSaved=   1.
 NSaved= 1 IEnMin= 1 EnMin= -115.535140298143     IErMin= 1 ErrMin= 1.44D-05
 ErrMax= 1.44D-05  0.00D+00 EMaxC= 1.00D-01 BMatC= 9.48D-08 BMatP= 9.48D-08
 IDIUse=1 WtCom= 1.00D+00 WtEn= 0.00D+00
 Coeff-Com:  0.100D+01
 Coeff:      0.100D+01
 Gap=     0.394 Goal=   None    Shift=    0.000
 RMSDP=6.91D-06 MaxDP=1.88D-04 DE=-1.07D-05 OVMax= 1.46D-04

 Cycle   7  Pass 1  IDiag  1:
 E= -115.535140453442     Delta-E=       -0.000000155300 Rises=F Damp=F
 DIIS: error= 5.68D-06 at cycle   2 NSaved=   2.
 NSaved= 2 IEnMin= 2 EnMin= -115.535140453442     IErMin= 2 ErrMin= 5.68D-06
 ErrMax= 5.68D-06  0.00D+00 EMaxC= 1.00D-01 BMatC= 6.64D-09 BMatP= 9.48D-08
 IDIUse=1 WtCom= 1.00D+00 WtEn= 0.00D+00
 Coeff-Com: -0.791D-01 0.108D+01
 Coeff:     -0.791D-01 0.108D+01
 Gap=     0.394 Goal=   None    Shift=    0.000
 RMSDP=4.76D-07 MaxDP=1.98D-05 DE=-1.55D-07 OVMax= 6.50D-05

 Cycle   8  Pass 1  IDiag  1:
 E= -115.535140466189     Delta-E=       -0.000000012746 Rises=F Damp=F
 DIIS: error= 2.84D-06 at cycle   3 NSaved=   3.
 NSaved= 3 IEnMin= 3 EnMin= -115.535140466189     IErMin= 3 ErrMin= 2.84D-06
 ErrMax= 2.84D-06  0.00D+00 EMaxC= 1.00D-01 BMatC= 2.46D-09 BMatP= 6.64D-09
 IDIUse=1 WtCom= 1.00D+00 WtEn= 0.00D+00
 Coeff-Com: -0.923D-01 0.383D+00 0.709D+00
 Coeff:     -0.923D-01 0.383D+00 0.709D+00
 Gap=     0.394 Goal=   None    Shift=    0.000
 RMSDP=1.65D-07 MaxDP=7.62D-06 DE=-1.27D-08 OVMax= 2.14D-05

 Cycle   9  Pass 1  IDiag  1:
 E= -115.535140468237     Delta-E=       -0.000000002049 Rises=F Damp=F
 DIIS: error= 1.21D-06 at cycle   4 NSaved=   4.
 NSaved= 4 IEnMin= 4 EnMin= -115.535140468237     IErMin= 4 ErrMin= 1.21D-06
 ErrMax= 1.21D-06  0.00D+00 EMaxC= 1.00D-01 BMatC= 3.59D-10 BMatP= 2.46D-09
 IDIUse=1 WtCom= 1.00D+00 WtEn= 0.00D+00
 Coeff-Com: -0.284D-01 0.160D-01 0.292D+00 0.720D+00
 Coeff:     -0.284D-01 0.160D-01 0.292D+00 0.720D+00
 Gap=     0.394 Goal=   None    Shift=    0.000
 RMSDP=4.76D-08 MaxDP=2.26D-06 DE=-2.05D-09 OVMax= 8.44D-06

 Cycle  10  Pass 1  IDiag  1:
 E= -115.535140468532     Delta-E=       -0.000000000295 Rises=F Damp=F
 DIIS: error= 3.10D-07 at cycle   5 NSaved=   5.
 NSaved= 5 IEnMin= 5 EnMin= -115.535140468532     IErMin= 5 ErrMin= 3.10D-07
 ErrMax= 3.10D-07  0.00D+00 EMaxC= 1.00D-01 BMatC= 2.36D-11 BMatP= 3.59D-10
 IDIUse=1 WtCom= 1.00D+00 WtEn= 0.00D+00
 Coeff-Com: -0.163D-02-0.241D-01 0.363D-01 0.250D+00 0.739D+00
 Coeff:     -0.163D-02-0.241D-01 0.363D-01 0.250D+00 0.739D+00
 Gap=     0.394 Goal=   None    Shift=    0.000
 RMSDP=1.25D-08 MaxDP=4.07D-07 DE=-2.95D-10 OVMax= 1.42D-06

 Cycle  11  Pass 1  IDiag  1:
 E= -115.535140468552     Delta-E=       -0.000000000021 Rises=F Damp=F
 DIIS: error= 9.67D-08 at cycle   6 NSaved=   6.
 NSaved= 6 IEnMin= 6 EnMin= -115.535140468552     IErMin= 6 ErrMin= 9.67D-08
 ErrMax= 9.67D-08  0.00D+00 EMaxC= 1.00D-01 BMatC= 1.48D-12 BMatP= 2.36D-11
 IDIUse=1 WtCom= 1.00D+00 WtEn= 0.00D+00
 Coeff-Com:  0.215D-02-0.114D-01-0.157D-01 0.270D-01 0.234D+00 0.764D+00
 Coeff:      0.215D-02-0.114D-01-0.157D-01 0.270D-01 0.234D+00 0.764D+00
 Gap=     0.394 Goal=   None    Shift=    0.000
 RMSDP=3.98D-09 MaxDP=1.15D-07 DE=-2.05D-11 OVMax= 5.18D-07

 SCF Done:  E(RB2PLYPD3) =  -115.535140469     A.U. after   11 cycles
            NFock= 11  Conv=0.40D-08     -V/T= 2.0030
 KE= 1.151891895779D+02 PE=-3.521343623428D+02 EE= 8.114232308403D+01
 Leave Link  502 at Wed Aug 26 12:32:13 2020, MaxMem=  2097152000 cpu:        61.7
 (Enter /opt/cluster/programs/g09/g09_d.01/g09/l801.exe)
 DoSCS=T DFT=T ScalE2(SS,OS)=  0.270000  0.270000
 ExpMin= 7.60D-02 ExpMax= 1.17D+05 ExpMxC= 1.13D+03 IAcc=3 IRadAn=         5 AccDes= 0.00D+00
 HarFok:  IExCor=  205 AccDes= 0.00D+00 IRadAn=         5 IDoV=-2 UseB2=F ITyADJ=14
 ICtDFT= 12500011 ScaDFX=  1.000000  1.000000  1.000000  1.000000
 Largest valence mixing into a core orbital is  1.11D-04
 Largest core mixing into a valence orbital is  1.47D-05
 Range of M.O.s used for correlation:     3   234
 NBasis=   234 NAE=     9 NBE=     9 NFC=     2 NFV=     0
 NROrb=    232 NOA=     7 NOB=     7 NVA=   225 NVB=   225

 **** Warning!!: The largest alpha MO coefficient is  0.23900237D+02

 Leave Link  801 at Wed Aug 26 12:32:13 2020, MaxMem=  2097152000 cpu:         0.5
 (Enter /opt/cluster/programs/g09/g09_d.01/g09/l906.exe)
 DoSCS=T DFT=T ScalE2(SS,OS)=  0.270000  0.270000
 FulOut=F Deriv=F AODrv=F NAtomX=     6
   MMem=        3646  MDisk=           7 MDiskD=           7
  W3Min=      447300 MinDsk=     1090093 NBas6D=         284
 NBas2D=       41310    NTT=       40470    LW2=     4508827
    MDV=  2096872338 MDiskM=       16391 NBas2p=       41304
 Fully in-core method, ICMem=  1722292712.
 IMap=   1   2   3   4   5   6   7
 JobTyp=1 Pass  1 fully in-core, NPsUse=  8.
 Compute canonical integrals.
 FoFCou: FMM=F IPFlag=           0 FMFlag=           0 FMFlg1=           0
         NFxFlg=           0 DoJE=F BraDBF=F KetDBF=F FulRan=T
         wScrn=  0.000000 ICntrl=     600 IOpCl=  1 I1Cent=           0 NGrid=           0
         NMat0=    1 NMatS0=  41310 NMatT0=    0 NMatD0=    1 NMtDS0=    0 NMtDT0=    0
 Symmetry not used in FoFCou.
 Spin components of T(2) and E(2):
     alpha-alpha T2 =       0.2169588578D-01 E2=     -0.1698986466D-01
     alpha-beta  T2 =       0.1361602552D+00 E2=     -0.1153076590D+00
     beta-beta   T2 =       0.2169588578D-01 E2=     -0.1698986466D-01
 The integrals were generated   1 times.
 E2(B2PLYPD3) =    -0.1492873883D+00 E(B2PLYPD3) =    -0.11568442785688D+03
 Leave Link  906 at Wed Aug 26 12:32:28 2020, MaxMem=  2097152000 cpu:       113.4
 (Enter /opt/cluster/programs/g09/g09_d.01/g09/l601.exe)
 Copying SCF densities to generalized density rwf, IOpCl= 0 IROHF=0.

 **********************************************************************

            Population analysis using the SCF density.

 **********************************************************************

 Orbital symmetries:
       Occupied  (A) (A) (A) (A) (A) (A) (A) (A) (A)
       Virtual   (A) (A) (A) (A) (A) (A) (A) (A) (A) (A) (A) (A)
                 (A) (A) (A) (A) (A) (A) (A) (A) (A) (A) (A) (A)
                 (A) (A) (A) (A) (A) (A) (A) (A) (A) (A) (A) (A)
                 (A) (A) (A) (A) (A) (A) (A) (A) (A) (A) (A) (A)
                 (A) (A) (A) (A) (A) (A) (A) (A) (A) (A) (A) (A)
                 (A) (A) (A) (A) (A) (A) (A) (A) (A) (A) (A) (A)
                 (A) (A) (A) (A) (A) (A) (A) (A) (A) (A) (A) (A)
                 (A) (A) (A) (A) (A) (A) (A) (A) (A) (A) (A) (A)
                 (A) (A) (A) (A) (A) (A) (A) (A) (A) (A) (A) (A)
                 (A) (A) (A) (A) (A) (A) (A) (A) (A) (A) (A) (A)
                 (A) (A) (A) (A) (A) (A) (A) (A) (A) (A) (A) (A)
                 (A) (A) (A) (A) (A) (A) (A) (A) (A) (A) (A) (A)
                 (A) (A) (A) (A) (A) (A) (A) (A) (A) (A) (A) (A)
                 (A) (A) (A) (A) (A) (A) (A) (A) (A) (A) (A) (A)
                 (A) (A) (A) (A) (A) (A) (A) (A) (A) (A) (A) (A)
                 (A) (A) (A) (A) (A) (A) (A) (A) (A) (A) (A) (A)
                 (A) (A) (A) (A) (A) (A) (A) (A) (A) (A) (A) (A)
                 (A) (A) (A) (A) (A) (A) (A) (A) (A) (A) (A) (A)
                 (A) (A) (A) (A) (A) (A) (A) (A) (A)
 The electronic state is 1-A.
 Alpha  occ. eigenvalues --  -19.73477 -10.64177  -1.14303  -0.78602  -0.57601
 Alpha  occ. eigenvalues --   -0.52715  -0.48820  -0.40854  -0.35419
 Alpha virt. eigenvalues --    0.04012   0.07983   0.12332   0.12645   0.15092
 Alpha virt. eigenvalues --    0.17089   0.18314   0.28919   0.30868   0.33681
 Alpha virt. eigenvalues --    0.34362   0.38256   0.39846   0.42353   0.44726
 Alpha virt. eigenvalues --    0.45725   0.52747   0.55723   0.58772   0.66910
 Alpha virt. eigenvalues --    0.70957   0.73330   0.76790   0.79094   0.79953
 Alpha virt. eigenvalues --    0.82445   0.85625   0.88586   0.93134   0.95472
 Alpha virt. eigenvalues --    0.98868   1.00693   1.02746   1.09389   1.11009
 Alpha virt. eigenvalues --    1.11782   1.15233   1.20561   1.31372   1.41798
 Alpha virt. eigenvalues --    1.43272   1.46739   1.47208   1.50262   1.51817
 Alpha virt. eigenvalues --    1.75453   1.80885   1.85572   1.86049   1.87871
 Alpha virt. eigenvalues --    1.91112   1.95444   1.97268   1.98157   2.03384
 Alpha virt. eigenvalues --    2.08076   2.13965   2.18990   2.21539   2.21809
 Alpha virt. eigenvalues --    2.23657   2.26611   2.31076   2.35745   2.38737
 Alpha virt. eigenvalues --    2.43245   2.50850   2.56994   2.57724   2.62031
 Alpha virt. eigenvalues --    2.62570   2.65542   2.68318   2.74059   2.77885
 Alpha virt. eigenvalues --    2.85421   2.88583   2.90524   2.94838   3.01708
 Alpha virt. eigenvalues --    3.04469   3.05671   3.11137   3.16202   3.22220
 Alpha virt. eigenvalues --    3.28609   3.34060   3.41993   3.43313   3.51021
 Alpha virt. eigenvalues --    3.55979   3.69931   3.72460   3.90515   3.96542
 Alpha virt. eigenvalues --    3.98557   4.01256   4.03302   4.10653   4.18771
 Alpha virt. eigenvalues --    4.21954   4.26569   4.34125   4.39151   4.40578
 Alpha virt. eigenvalues --    4.52237   4.52917   4.63373   4.75850   5.13796
 Alpha virt. eigenvalues --    5.19316   5.40647   5.47426   5.49817   5.56935
 Alpha virt. eigenvalues --    5.59367   5.70711   5.79243   5.81104   5.84411
 Alpha virt. eigenvalues --    5.91410   5.98740   5.99751   6.08936   6.10590
 Alpha virt. eigenvalues --    6.18972   6.25220   6.30276   6.35127   6.37128
 Alpha virt. eigenvalues --    6.38419   6.43326   6.45590   6.54559   6.60974
 Alpha virt. eigenvalues --    6.64046   6.68191   6.73399   6.80937   6.83909
 Alpha virt. eigenvalues --    6.84823   6.89344   6.96534   7.04023   7.14784
 Alpha virt. eigenvalues --    7.19452   7.31176   7.37292   7.39429   7.55686
 Alpha virt. eigenvalues --    7.57631   7.62218   7.65701   7.66995   7.69731
 Alpha virt. eigenvalues --    7.76727   7.79698   7.80661   7.86808   7.90471
 Alpha virt. eigenvalues --    7.91860   7.96380   8.02153   8.07745   8.16311
 Alpha virt. eigenvalues --    8.20363   8.26454   8.37230   8.38651   8.40515
 Alpha virt. eigenvalues --    8.46534   8.52552   8.54426   8.56531   8.58981
 Alpha virt. eigenvalues --    8.60082   8.66972   8.67245   8.74673   8.84685
 Alpha virt. eigenvalues --    8.92941   8.94894   9.06775   9.12373   9.17584
 Alpha virt. eigenvalues --    9.27702   9.52702   9.61974   9.83613   9.92529
 Alpha virt. eigenvalues --   10.00577  10.02634  10.08642  10.16630  10.23420
 Alpha virt. eigenvalues --   10.30671  10.33315  10.49146  10.56156  10.63843
 Alpha virt. eigenvalues --   10.73039  10.91159  11.07393  11.16486  11.28572
 Alpha virt. eigenvalues --   11.51235  11.64220  11.66479  11.81878  11.89019
 Alpha virt. eigenvalues --   12.04809  12.20616  12.32380  12.73700  12.76628
 Alpha virt. eigenvalues --   13.04362  13.27776  13.53949  13.75474  14.59907
 Alpha virt. eigenvalues --   15.46544  29.38557  48.61172 149.02102 254.34840
          Condensed to atoms (all electrons):
               1          2          3          4          5          6
     1  C    4.423870   0.269420   0.443149   0.439686   0.398203  -0.049308
     2  O    0.269420   8.028623  -0.045825  -0.043263  -0.044519   0.314979
     3  H    0.443149  -0.045825   0.657797  -0.061967  -0.036565  -0.006282
     4  H    0.439686  -0.043263  -0.061967   0.664598  -0.038437  -0.009157
     5  H    0.398203  -0.044519  -0.036565  -0.038437   0.646576   0.012427
     6  H   -0.049308   0.314979  -0.006282  -0.009157   0.012427   0.493453
 Mulliken charges:
               1
     1  C    0.074980
     2  O   -0.479415
     3  H    0.049693
     4  H    0.048539
     5  H    0.062315
     6  H    0.243888
 Sum of Mulliken charges =   0.00000
 Mulliken charges with hydrogens summed into heavy atoms:
               1
     1  C    0.235527
     2  O   -0.235527
 Electronic spatial extent (au):  <R**2>=             83.8984
 Charge=              0.0000 electrons
 Dipole moment (field-independent basis, Debye):
    X=             -0.9052    Y=             -1.6375    Z=             -0.1502  Tot=              1.8770
 Quadrupole moment (field-independent basis, Debye-Ang):
   XX=            -13.1249   YY=            -11.9653   ZZ=            -13.8025
   XY=             -2.2008   XZ=             -0.1020   YZ=              0.0729
 Traceless Quadrupole moment (field-independent basis, Debye-Ang):
   XX=             -0.1607   YY=              0.9990   ZZ=             -0.8383
   XY=             -2.2008   XZ=             -0.1020   YZ=              0.0729
 Octapole moment (field-independent basis, Debye-Ang**2):
  XXX=              3.5857  YYY=             -0.9180  ZZZ=             -0.1278  XYY=              1.9752
  XXY=             -2.6487  XXZ=             -0.2656  XZZ=              0.0536  YZZ=             -0.5890
  YYZ=             -0.1157  XYZ=              0.1851
 Hexadecapole moment (field-independent basis, Debye-Ang**3):
 XXXX=            -62.3865 YYYY=            -20.5393 ZZZZ=            -19.2224 XXXY=             -3.3054
 XXXZ=             -0.0451 YYYX=             -2.9688 YYYZ=              0.1339 ZZZX=              0.0594
 ZZZY=              0.0463 XXYY=            -12.6037 XXZZ=            -14.3365 YYZZ=             -6.9401
 XXYZ=              0.1168 YYXZ=             -0.0842 ZZXY=              0.2138
 N-N= 4.026770921224D+01 E-N=-3.521343673471D+02  KE= 1.151891895779D+02
 Leave Link  601 at Wed Aug 26 12:32:28 2020, MaxMem=  2097152000 cpu:         0.3
 (Enter /opt/cluster/programs/g09/g09_d.01/g09/l9999.exe)
 1\1\GINC-NODE22\SP\RB2PLYPD3-FC\def2QZVP\C1H4O1\BOITTIER\26-Aug-2020\0
 \\#p B2PLYPD3/Def2QZVP\\methanol\\0,1\C,0,-5.179202,-1.259454,0.904479
 \O,0,-3.769676,-1.120978,0.8708\H,0,-5.518062,-2.212763,0.594797\H,0,-
 5.677994,-0.5371,0.381151\H,0,-5.408663,-1.105662,1.957374\H,0,-3.5046
 34,-1.18253,-0.175228\\Version=ES64L-G09RevD.01\State=1-A\HF=-115.5351
 405\MP2=-115.6844279\RMSD=3.977e-09\PG=C01 [X(C1H4O1)]\\@


 MY GROUP MEETINGS AREN'T VERY STRUCTURED.
     -- PROF. M. S. GORDON, OCT. 5, 1984
 Job cpu time:       0 days  0 hours  3 minutes  3.0 seconds.
 File lengths (MBytes):  RWF=     23 Int=      0 D2E=      0 Chk=      4 Scr=      1
 Normal termination of Gaussian 09 at Wed Aug 26 12:32:28 2020.
