 Entering Gaussian System, Link 0=/opt/cluster/programs/g09/g09_d.01/g09//g09
 Input=/home/boittier/MDCM/nms_sampling/methanol_geom.xyz.dir/energies/methanol_1764_energy.com
 Output=/scratch/boittier/methanol_1764_energy/methanol_1764_energy.out
 Initial command:
 /opt/cluster/programs/g09/g09_d.01/g09/l1.exe "/scratch/boittier/methanol_1764_energy/Gau-172635.inp" -scrdir="/scratch/boittier/methanol_1764_energy/"
 Entering Link 1 = /opt/cluster/programs/g09/g09_d.01/g09/l1.exe PID=    172636.
  
 Copyright (c) 1988,1990,1992,1993,1995,1998,2003,2009,2013,
            Gaussian, Inc.  All Rights Reserved.
  
 This is part of the Gaussian(R) 09 program.  It is based on
 the Gaussian(R) 03 system (copyright 2003, Gaussian, Inc.),
 the Gaussian(R) 98 system (copyright 1998, Gaussian, Inc.),
 the Gaussian(R) 94 system (copyright 1995, Gaussian, Inc.),
 the Gaussian 92(TM) system (copyright 1992, Gaussian, Inc.),
 the Gaussian 90(TM) system (copyright 1990, Gaussian, Inc.),
 the Gaussian 88(TM) system (copyright 1988, Gaussian, Inc.),
 the Gaussian 86(TM) system (copyright 1986, Carnegie Mellon
 University), and the Gaussian 82(TM) system (copyright 1983,
 Carnegie Mellon University). Gaussian is a federally registered
 trademark of Gaussian, Inc.
  
 This software contains proprietary and confidential information,
 including trade secrets, belonging to Gaussian, Inc.
  
 This software is provided under written license and may be
 used, copied, transmitted, or stored only in accord with that
 written license.
  
 The following legend is applicable only to US Government
 contracts under FAR:
  
                    RESTRICTED RIGHTS LEGEND
  
 Use, reproduction and disclosure by the US Government is
 subject to restrictions as set forth in subparagraphs (a)
 and (c) of the Commercial Computer Software - Restricted
 Rights clause in FAR 52.227-19.
  
 Gaussian, Inc.
 340 Quinnipiac St., Bldg. 40, Wallingford CT 06492
  
  
 ---------------------------------------------------------------
 Warning -- This program may not be used in any manner that
 competes with the business of Gaussian, Inc. or will provide
 assistance to any competitor of Gaussian, Inc.  The licensee
 of this program is prohibited from giving any competitor of
 Gaussian, Inc. access to this program.  By using this program,
 the user acknowledges that Gaussian, Inc. is engaged in the
 business of creating and licensing software in the field of
 computational chemistry and represents and warrants to the
 licensee that it is not a competitor of Gaussian, Inc. and that
 it will not use this program in any manner prohibited above.
 ---------------------------------------------------------------
  

 Cite this work as:
 Gaussian 09, Revision D.01,
 M. J. Frisch, G. W. Trucks, H. B. Schlegel, G. E. Scuseria, 
 M. A. Robb, J. R. Cheeseman, G. Scalmani, V. Barone, B. Mennucci, 
 G. A. Petersson, H. Nakatsuji, M. Caricato, X. Li, H. P. Hratchian, 
 A. F. Izmaylov, J. Bloino, G. Zheng, J. L. Sonnenberg, M. Hada, 
 M. Ehara, K. Toyota, R. Fukuda, J. Hasegawa, M. Ishida, T. Nakajima, 
 Y. Honda, O. Kitao, H. Nakai, T. Vreven, J. A. Montgomery, Jr., 
 J. E. Peralta, F. Ogliaro, M. Bearpark, J. J. Heyd, E. Brothers, 
 K. N. Kudin, V. N. Staroverov, T. Keith, R. Kobayashi, J. Normand, 
 K. Raghavachari, A. Rendell, J. C. Burant, S. S. Iyengar, J. Tomasi, 
 M. Cossi, N. Rega, J. M. Millam, M. Klene, J. E. Knox, J. B. Cross, 
 V. Bakken, C. Adamo, J. Jaramillo, R. Gomperts, R. E. Stratmann, 
 O. Yazyev, A. J. Austin, R. Cammi, C. Pomelli, J. W. Ochterski, 
 R. L. Martin, K. Morokuma, V. G. Zakrzewski, G. A. Voth, 
 P. Salvador, J. J. Dannenberg, S. Dapprich, A. D. Daniels, 
 O. Farkas, J. B. Foresman, J. V. Ortiz, J. Cioslowski, 
 and D. J. Fox, Gaussian, Inc., Wallingford CT, 2013.
 
 ******************************************
 Gaussian 09:  ES64L-G09RevD.01 24-Apr-2013
                26-Aug-2020 
 ******************************************
 %chk=/home/boittier/MDCM/nms_sampling/methanol_geom.xyz.dir/methanol_1764.chk
 %nproc=8
 Will use up to    8 processors via shared memory.
 %mem=16000MB
 --------------------
 #p B2PLYPD3/Def2QZVP
 --------------------
 1/38=1/1;
 2/12=2,17=6,18=5,40=1/2;
 3/5=45,7=101,11=9,16=1,25=1,30=1,74=-60/1,2,3;
 4//1;
 5/5=2,38=5/2;
 8/10=1/1;
 9/16=-3/6;
 6/7=2,8=2,9=2,10=2/1;
 99/5=1,9=1/99;
 Leave Link    1 at Wed Aug 26 13:36:44 2020, MaxMem=  2097152000 cpu:         0.2
 (Enter /opt/cluster/programs/g09/g09_d.01/g09/l101.exe)
 --------
 methanol
 --------
 Symbolic Z-matrix:
 Charge =  0 Multiplicity = 1
 C                    -5.19349  -1.2512    0.90738 
 O                    -3.76059  -1.12612   0.84357 
 H                    -5.46524  -2.33838   0.54175 
 H                    -5.71286  -0.42085   0.33664 
 H                    -5.45795  -1.12821   2.05452 
 H                    -3.45051  -1.16765   0.23732 
 
 NAtoms=      6 NQM=        6 NQMF=       0 NMMI=      0 NMMIF=      0
                NMic=       0 NMicF=      0.
                    Isotopes and Nuclear Properties:
 (Nuclear quadrupole moments (NQMom) in fm**2, nuclear magnetic moments (NMagM)
  in nuclear magnetons)

  Atom         1           2           3           4           5           6
 IAtWgt=          12          16           1           1           1           1
 AtmWgt=  12.0000000  15.9949146   1.0078250   1.0078250   1.0078250   1.0078250
 NucSpn=           0           0           1           1           1           1
 AtZEff=   0.0000000   0.0000000   0.0000000   0.0000000   0.0000000   0.0000000
 NQMom=    0.0000000   0.0000000   0.0000000   0.0000000   0.0000000   0.0000000
 NMagM=    0.0000000   0.0000000   2.7928460   2.7928460   2.7928460   2.7928460
 AtZNuc=   6.0000000   8.0000000   1.0000000   1.0000000   1.0000000   1.0000000
 Leave Link  101 at Wed Aug 26 13:36:44 2020, MaxMem=  2097152000 cpu:         0.5
 (Enter /opt/cluster/programs/g09/g09_d.01/g09/l202.exe)
                          Input orientation:                          
 ---------------------------------------------------------------------
 Center     Atomic      Atomic             Coordinates (Angstroms)
 Number     Number       Type             X           Y           Z
 ---------------------------------------------------------------------
      1          6           0       -5.193490   -1.251200    0.907377
      2          8           0       -3.760586   -1.126120    0.843572
      3          1           0       -5.465244   -2.338382    0.541753
      4          1           0       -5.712864   -0.420848    0.336636
      5          1           0       -5.457945   -1.128205    2.054525
      6          1           0       -3.450512   -1.167647    0.237322
 ---------------------------------------------------------------------
                    Distance matrix (angstroms):
                    1          2          3          4          5
     1  C    0.000000
     2  O    1.439767   0.000000
     3  H    1.178769   2.113417   0.000000
     4  H    1.133569   2.136769   1.944306   0.000000
     5  H    1.183644   2.085051   1.937282   1.875228   0.000000
     6  H    1.869205   0.682209   2.349988   2.384493   2.708056
                    6
     6  H    0.000000
 Stoichiometry    CH4O
 Framework group  C1[X(CH4O)]
 Deg. of freedom    12
 Full point group                 C1      NOp   1
 Largest Abelian subgroup         C1      NOp   1
 Largest concise Abelian subgroup C1      NOp   1
                         Standard orientation:                         
 ---------------------------------------------------------------------
 Center     Atomic      Atomic             Coordinates (Angstroms)
 Number     Number       Type             X           Y           Z
 ---------------------------------------------------------------------
      1          6           0        0.678722   -0.024352    0.010259
      2          8           0       -0.757043    0.078653   -0.019706
      3          1           0        0.988297   -0.819806   -0.802707
      4          1           0        1.061629   -0.246711    1.053771
      5          1           0        1.066471    1.049769   -0.301071
      6          1           0       -1.132384   -0.466359    0.146098
 ---------------------------------------------------------------------
 Rotational constants (GHZ):    125.1761594     24.0212833     23.7242568
 Leave Link  202 at Wed Aug 26 13:36:44 2020, MaxMem=  2097152000 cpu:         0.0
 (Enter /opt/cluster/programs/g09/g09_d.01/g09/l301.exe)
 Standard basis: def2QZVP (5D, 7F)
 Ernie: Thresh=  0.10000D-02 Tol=  0.10000D-05 Strict=F.
 There are   284 symmetry adapted cartesian basis functions of A   symmetry.
 There are   234 symmetry adapted basis functions of A   symmetry.
   234 basis functions,   336 primitive gaussians,   284 cartesian basis functions
     9 alpha electrons        9 beta electrons
       nuclear repulsion energy        41.2078312963 Hartrees.
 IExCor=  419 DFT=T Ex+Corr=B2PLYPD3 ExCW=0 ScaHFX=  0.530000
 ScaDFX=  0.470000  0.470000  0.730000  0.730000 ScalE2=  0.270000  0.270000
 IRadAn=      0 IRanWt=     -1 IRanGd=            0 ICorTp=0 IEmpDi=141
 NAtoms=    6 NActive=    6 NUniq=    6 SFac= 1.00D+00 NAtFMM=   60 NAOKFM=F Big=F
 Integral buffers will be    131072 words long.
 Regular integral format.
 Two-electron integral symmetry is turned on.
 R6Disp:  Grimme-D3(BJ) Dispersion energy=       -0.0013093559 Hartrees.
 Nuclear repulsion after empirical dispersion term =       41.2065219404 Hartrees.
 Leave Link  301 at Wed Aug 26 13:36:44 2020, MaxMem=  2097152000 cpu:         0.5
 (Enter /opt/cluster/programs/g09/g09_d.01/g09/l302.exe)
 NPDir=0 NMtPBC=     1 NCelOv=     1 NCel=       1 NClECP=     1 NCelD=      1
         NCelK=      1 NCelE2=     1 NClLst=     1 CellRange=     0.0.
 One-electron integrals computed using PRISM.
   1 Symmetry operations used in ECPInt.
 ECPInt:  NShTT=    2775 NPrTT=    6207 LenC2=    2773 LenP2D=    5739.
 LDataN:  DoStor=T MaxTD1= 8 Len=  415
 NBasis=   234 RedAO= T EigKep=  5.66D-05  NBF=   234
 NBsUse=   234 1.00D-06 EigRej= -1.00D+00 NBFU=   234
 Precomputing XC quadrature grid using
 IXCGrd= 4 IRadAn=           0 IRanWt=          -1 IRanGd=           0 AccXCQ= 0.00D+00.
 Generated NRdTot=       0 NPtTot=           0 NUsed=           0 NTot=          32
 NSgBfM=   284   284   284   284   284 MxSgAt=     6 MxSgA2=     6.
 Leave Link  302 at Wed Aug 26 13:36:45 2020, MaxMem=  2097152000 cpu:         2.2
 (Enter /opt/cluster/programs/g09/g09_d.01/g09/l303.exe)
 DipDrv:  MaxL=1.
 Leave Link  303 at Wed Aug 26 13:36:45 2020, MaxMem=  2097152000 cpu:         0.2
 (Enter /opt/cluster/programs/g09/g09_d.01/g09/l401.exe)
 ExpMin= 7.60D-02 ExpMax= 1.17D+05 ExpMxC= 1.13D+03 IAcc=2 IRadAn=         4 AccDes= 0.00D+00
 Harris functional with IExCor=  419 and IRadAn=       4 diagonalized for initial guess.
 HarFok:  IExCor=  419 AccDes= 0.00D+00 IRadAn=         4 IDoV= 1 UseB2=F ITyADJ=14
 ICtDFT=  3500011 ScaDFX=  1.000000  1.000000  1.000000  1.000000
 FoFCou: FMM=F IPFlag=           0 FMFlag=      100000 FMFlg1=           0
         NFxFlg=           0 DoJE=T BraDBF=F KetDBF=T FulRan=T
         wScrn=  0.000000 ICntrl=     500 IOpCl=  0 I1Cent=   200000004 NGrid=           0
         NMat0=    1 NMatS0=      1 NMatT0=    0 NMatD0=    1 NMtDS0=    0 NMtDT0=    0
 Petite list used in FoFCou.
 Harris En= -115.684877902937    
 JPrj=0 DoOrth=F DoCkMO=F.
 Leave Link  401 at Wed Aug 26 13:36:46 2020, MaxMem=  2097152000 cpu:         3.9
 (Enter /opt/cluster/programs/g09/g09_d.01/g09/l502.exe)
 Closed shell SCF:
 Using DIIS extrapolation, IDIIS=  1040.
 Integral symmetry usage will be decided dynamically.
 Keep R1 ints in memory in canonical form, NReq=389840494.
 IVT=      264814 IEndB=      264814 NGot=  2097152000 MDV=  1718885927
 LenX=  1718885927 LenY=  1718804830
 Requested convergence on RMS density matrix=1.00D-08 within 128 cycles.
 Requested convergence on MAX density matrix=1.00D-06.
 Requested convergence on             energy=1.00D-06.
 No special actions if energy rises.
 FoFCou: FMM=F IPFlag=           0 FMFlag=           0 FMFlg1=           0
         NFxFlg=           0 DoJE=F BraDBF=F KetDBF=F FulRan=T
         wScrn=  0.000000 ICntrl=     600 IOpCl=  0 I1Cent=           0 NGrid=           0
         NMat0=    1 NMatS0=  27495 NMatT0=    0 NMatD0=    1 NMtDS0=    0 NMtDT0=    0
 Symmetry not used in FoFCou.
 Integral accuracy reduced to 1.0D-05 until final iterations.

 Cycle   1  Pass 0  IDiag  1:
 E= -115.252827625909    
 DIIS: error= 3.19D-02 at cycle   1 NSaved=   1.
 NSaved= 1 IEnMin= 1 EnMin= -115.252827625909     IErMin= 1 ErrMin= 3.19D-02
 ErrMax= 3.19D-02  0.00D+00 EMaxC= 1.00D-01 BMatC= 2.66D-01 BMatP= 2.66D-01
 IDIUse=3 WtCom= 6.81D-01 WtEn= 3.19D-01
 Coeff-Com:  0.100D+01
 Coeff-En:   0.100D+01
 Coeff:      0.100D+01
 Gap=     0.365 Goal=   None    Shift=    0.000
 GapD=    0.365 DampG=1.000 DampE=0.500 DampFc=0.5000 IDamp=-1.
 Damping current iteration by 5.00D-01
 RMSDP=1.60D-03 MaxDP=6.59D-02              OVMax= 2.01D-01

 Cycle   2  Pass 0  IDiag  1:
 E= -115.319109199827     Delta-E=       -0.066281573918 Rises=F Damp=T
 DIIS: error= 1.15D-02 at cycle   2 NSaved=   2.
 NSaved= 2 IEnMin= 2 EnMin= -115.319109199827     IErMin= 2 ErrMin= 1.15D-02
 ErrMax= 1.15D-02  0.00D+00 EMaxC= 1.00D-01 BMatC= 1.93D-02 BMatP= 2.66D-01
 IDIUse=3 WtCom= 8.85D-01 WtEn= 1.15D-01
 Coeff-Com: -0.761D-01 0.108D+01
 Coeff-En:   0.000D+00 0.100D+01
 Coeff:     -0.674D-01 0.107D+01
 Gap=     0.440 Goal=   None    Shift=    0.000
 RMSDP=4.00D-04 MaxDP=1.23D-02 DE=-6.63D-02 OVMax= 1.07D-01

 Cycle   3  Pass 0  IDiag  1:
 E= -115.389396430566     Delta-E=       -0.070287230738 Rises=F Damp=F
 DIIS: error= 4.55D-03 at cycle   3 NSaved=   3.
 NSaved= 3 IEnMin= 3 EnMin= -115.389396430566     IErMin= 3 ErrMin= 4.55D-03
 ErrMax= 4.55D-03  0.00D+00 EMaxC= 1.00D-01 BMatC= 3.38D-03 BMatP= 1.93D-02
 IDIUse=3 WtCom= 9.55D-01 WtEn= 4.55D-02
 Coeff-Com: -0.992D-01 0.239D+00 0.860D+00
 Coeff-En:   0.000D+00 0.000D+00 0.100D+01
 Coeff:     -0.947D-01 0.229D+00 0.866D+00
 Gap=     0.417 Goal=   None    Shift=    0.000
 RMSDP=1.07D-04 MaxDP=4.19D-03 DE=-7.03D-02 OVMax= 1.31D-02

 Cycle   4  Pass 0  IDiag  1:
 E= -115.391385525031     Delta-E=       -0.001989094466 Rises=F Damp=F
 DIIS: error= 1.92D-03 at cycle   4 NSaved=   4.
 NSaved= 4 IEnMin= 4 EnMin= -115.391385525031     IErMin= 4 ErrMin= 1.92D-03
 ErrMax= 1.92D-03  0.00D+00 EMaxC= 1.00D-01 BMatC= 2.76D-04 BMatP= 3.38D-03
 IDIUse=3 WtCom= 9.81D-01 WtEn= 1.92D-02
 Coeff-Com: -0.327D-01 0.558D-01 0.336D+00 0.641D+00
 Coeff-En:   0.000D+00 0.000D+00 0.000D+00 0.100D+01
 Coeff:     -0.321D-01 0.548D-01 0.329D+00 0.648D+00
 Gap=     0.415 Goal=   None    Shift=    0.000
 RMSDP=3.44D-05 MaxDP=1.79D-03 DE=-1.99D-03 OVMax= 4.77D-03

 Cycle   5  Pass 0  IDiag  1:
 E= -115.391628097915     Delta-E=       -0.000242572884 Rises=F Damp=F
 DIIS: error= 2.70D-04 at cycle   5 NSaved=   5.
 NSaved= 5 IEnMin= 5 EnMin= -115.391628097915     IErMin= 5 ErrMin= 2.70D-04
 ErrMax= 2.70D-04  0.00D+00 EMaxC= 1.00D-01 BMatC= 8.95D-06 BMatP= 2.76D-04
 IDIUse=3 WtCom= 9.97D-01 WtEn= 2.70D-03
 Coeff-Com: -0.433D-02 0.336D-02 0.523D-01 0.196D+00 0.752D+00
 Coeff-En:   0.000D+00 0.000D+00 0.000D+00 0.000D+00 0.100D+01
 Coeff:     -0.432D-02 0.335D-02 0.521D-01 0.196D+00 0.753D+00
 Gap=     0.415 Goal=   None    Shift=    0.000
 RMSDP=9.20D-06 MaxDP=2.67D-04 DE=-2.43D-04 OVMax= 7.52D-04

 Initial convergence to 1.0D-05 achieved.  Increase integral accuracy.
 Cycle   6  Pass 1  IDiag  1:
 E= -115.391638245187     Delta-E=       -0.000010147271 Rises=F Damp=F
 DIIS: error= 4.01D-05 at cycle   1 NSaved=   1.
 NSaved= 1 IEnMin= 1 EnMin= -115.391638245187     IErMin= 1 ErrMin= 4.01D-05
 ErrMax= 4.01D-05  0.00D+00 EMaxC= 1.00D-01 BMatC= 1.52D-07 BMatP= 1.52D-07
 IDIUse=1 WtCom= 1.00D+00 WtEn= 0.00D+00
 Coeff-Com:  0.100D+01
 Coeff:      0.100D+01
 Gap=     0.416 Goal=   None    Shift=    0.000
 RMSDP=9.20D-06 MaxDP=2.67D-04 DE=-1.01D-05 OVMax= 1.83D-04

 Cycle   7  Pass 1  IDiag  1:
 E= -115.391638502426     Delta-E=       -0.000000257239 Rises=F Damp=F
 DIIS: error= 1.54D-05 at cycle   2 NSaved=   2.
 NSaved= 2 IEnMin= 2 EnMin= -115.391638502426     IErMin= 2 ErrMin= 1.54D-05
 ErrMax= 1.54D-05  0.00D+00 EMaxC= 1.00D-01 BMatC= 1.30D-08 BMatP= 1.52D-07
 IDIUse=1 WtCom= 1.00D+00 WtEn= 0.00D+00
 Coeff-Com: -0.720D-01 0.107D+01
 Coeff:     -0.720D-01 0.107D+01
 Gap=     0.416 Goal=   None    Shift=    0.000
 RMSDP=7.94D-07 MaxDP=2.53D-05 DE=-2.57D-07 OVMax= 7.63D-05

 Cycle   8  Pass 1  IDiag  1:
 E= -115.391638526088     Delta-E=       -0.000000023662 Rises=F Damp=F
 DIIS: error= 4.63D-06 at cycle   3 NSaved=   3.
 NSaved= 3 IEnMin= 3 EnMin= -115.391638526088     IErMin= 3 ErrMin= 4.63D-06
 ErrMax= 4.63D-06  0.00D+00 EMaxC= 1.00D-01 BMatC= 3.86D-09 BMatP= 1.30D-08
 IDIUse=1 WtCom= 1.00D+00 WtEn= 0.00D+00
 Coeff-Com: -0.101D+00 0.332D+00 0.769D+00
 Coeff:     -0.101D+00 0.332D+00 0.769D+00
 Gap=     0.416 Goal=   None    Shift=    0.000
 RMSDP=2.54D-07 MaxDP=8.44D-06 DE=-2.37D-08 OVMax= 2.63D-05

 Cycle   9  Pass 1  IDiag  1:
 E= -115.391638529278     Delta-E=       -0.000000003190 Rises=F Damp=F
 DIIS: error= 1.99D-06 at cycle   4 NSaved=   4.
 NSaved= 4 IEnMin= 4 EnMin= -115.391638529278     IErMin= 4 ErrMin= 1.99D-06
 ErrMax= 1.99D-06  0.00D+00 EMaxC= 1.00D-01 BMatC= 5.94D-10 BMatP= 3.86D-09
 IDIUse=1 WtCom= 1.00D+00 WtEn= 0.00D+00
 Coeff-Com: -0.345D-01 0.104D-01 0.311D+00 0.713D+00
 Coeff:     -0.345D-01 0.104D-01 0.311D+00 0.713D+00
 Gap=     0.416 Goal=   None    Shift=    0.000
 RMSDP=6.78D-08 MaxDP=2.92D-06 DE=-3.19D-09 OVMax= 7.93D-06

 Cycle  10  Pass 1  IDiag  1:
 E= -115.391638529747     Delta-E=       -0.000000000469 Rises=F Damp=F
 DIIS: error= 2.05D-07 at cycle   5 NSaved=   5.
 NSaved= 5 IEnMin= 5 EnMin= -115.391638529747     IErMin= 5 ErrMin= 2.05D-07
 ErrMax= 2.05D-07  0.00D+00 EMaxC= 1.00D-01 BMatC= 9.36D-12 BMatP= 5.94D-10
 IDIUse=1 WtCom= 1.00D+00 WtEn= 0.00D+00
 Coeff-Com:  0.381D-02-0.172D-01-0.332D-01 0.677D-01 0.979D+00
 Coeff:      0.381D-02-0.172D-01-0.332D-01 0.677D-01 0.979D+00
 Gap=     0.416 Goal=   None    Shift=    0.000
 RMSDP=1.64D-08 MaxDP=4.98D-07 DE=-4.69D-10 OVMax= 1.50D-06

 Cycle  11  Pass 1  IDiag  1:
 E= -115.391638529758     Delta-E=       -0.000000000011 Rises=F Damp=F
 DIIS: error= 3.46D-08 at cycle   6 NSaved=   6.
 NSaved= 6 IEnMin= 6 EnMin= -115.391638529758     IErMin= 6 ErrMin= 3.46D-08
 ErrMax= 3.46D-08  0.00D+00 EMaxC= 1.00D-01 BMatC= 1.49D-13 BMatP= 9.36D-12
 IDIUse=1 WtCom= 1.00D+00 WtEn= 0.00D+00
 Coeff-Com:  0.481D-03 0.795D-04-0.616D-02-0.103D-01-0.268D-02 0.102D+01
 Coeff:      0.481D-03 0.795D-04-0.616D-02-0.103D-01-0.268D-02 0.102D+01
 Gap=     0.416 Goal=   None    Shift=    0.000
 RMSDP=1.95D-09 MaxDP=5.05D-08 DE=-1.13D-11 OVMax= 2.45D-07

 SCF Done:  E(RB2PLYPD3) =  -115.391638530     A.U. after   11 cycles
            NFock= 11  Conv=0.20D-08     -V/T= 1.9969
 KE= 1.157521012700D+02 PE=-3.539273966779D+02 EE= 8.157713493773D+01
 Leave Link  502 at Wed Aug 26 13:37:03 2020, MaxMem=  2097152000 cpu:        76.8
 (Enter /opt/cluster/programs/g09/g09_d.01/g09/l801.exe)
 DoSCS=T DFT=T ScalE2(SS,OS)=  0.270000  0.270000
 ExpMin= 7.60D-02 ExpMax= 1.17D+05 ExpMxC= 1.13D+03 IAcc=3 IRadAn=         5 AccDes= 0.00D+00
 HarFok:  IExCor=  205 AccDes= 0.00D+00 IRadAn=         5 IDoV=-2 UseB2=F ITyADJ=14
 ICtDFT= 12500011 ScaDFX=  1.000000  1.000000  1.000000  1.000000
 Largest valence mixing into a core orbital is  1.24D-04
 Largest core mixing into a valence orbital is  1.51D-05
 Range of M.O.s used for correlation:     3   234
 NBasis=   234 NAE=     9 NBE=     9 NFC=     2 NFV=     0
 NROrb=    232 NOA=     7 NOB=     7 NVA=   225 NVB=   225

 **** Warning!!: The largest alpha MO coefficient is  0.24687375D+02

 Leave Link  801 at Wed Aug 26 13:37:03 2020, MaxMem=  2097152000 cpu:         0.7
 (Enter /opt/cluster/programs/g09/g09_d.01/g09/l906.exe)
 DoSCS=T DFT=T ScalE2(SS,OS)=  0.270000  0.270000
 FulOut=F Deriv=F AODrv=F NAtomX=     6
   MMem=        3646  MDisk=           7 MDiskD=           7
  W3Min=      447300 MinDsk=     1090093 NBas6D=         284
 NBas2D=       41310    NTT=       40470    LW2=     4508827
    MDV=  2096872590 MDiskM=       16391 NBas2p=       41304
 Fully in-core method, ICMem=  1722292712.
 IMap=   1   2   3   4   5   6   7
 JobTyp=1 Pass  1 fully in-core, NPsUse=  8.
 Compute canonical integrals.
 FoFCou: FMM=F IPFlag=           0 FMFlag=           0 FMFlg1=           0
         NFxFlg=           0 DoJE=F BraDBF=F KetDBF=F FulRan=T
         wScrn=  0.000000 ICntrl=     600 IOpCl=  1 I1Cent=           0 NGrid=           0
         NMat0=    1 NMatS0=  41310 NMatT0=    0 NMatD0=    1 NMtDS0=    0 NMtDT0=    0
 Symmetry not used in FoFCou.
 Spin components of T(2) and E(2):
     alpha-alpha T2 =       0.1937402792D-01 E2=     -0.1615827845D-01
     alpha-beta  T2 =       0.1271307260D+00 E2=     -0.1117551255D+00
     beta-beta   T2 =       0.1937402792D-01 E2=     -0.1615827845D-01
 The integrals were generated   1 times.
 E2(B2PLYPD3) =    -0.1440716824D+00 E(B2PLYPD3) =    -0.11553571021219D+03
 Leave Link  906 at Wed Aug 26 13:37:29 2020, MaxMem=  2097152000 cpu:       208.5
 (Enter /opt/cluster/programs/g09/g09_d.01/g09/l601.exe)
 Copying SCF densities to generalized density rwf, IOpCl= 0 IROHF=0.

 **********************************************************************

            Population analysis using the SCF density.

 **********************************************************************

 Orbital symmetries:
       Occupied  (A) (A) (A) (A) (A) (A) (A) (A) (A)
       Virtual   (A) (A) (A) (A) (A) (A) (A) (A) (A) (A) (A) (A)
                 (A) (A) (A) (A) (A) (A) (A) (A) (A) (A) (A) (A)
                 (A) (A) (A) (A) (A) (A) (A) (A) (A) (A) (A) (A)
                 (A) (A) (A) (A) (A) (A) (A) (A) (A) (A) (A) (A)
                 (A) (A) (A) (A) (A) (A) (A) (A) (A) (A) (A) (A)
                 (A) (A) (A) (A) (A) (A) (A) (A) (A) (A) (A) (A)
                 (A) (A) (A) (A) (A) (A) (A) (A) (A) (A) (A) (A)
                 (A) (A) (A) (A) (A) (A) (A) (A) (A) (A) (A) (A)
                 (A) (A) (A) (A) (A) (A) (A) (A) (A) (A) (A) (A)
                 (A) (A) (A) (A) (A) (A) (A) (A) (A) (A) (A) (A)
                 (A) (A) (A) (A) (A) (A) (A) (A) (A) (A) (A) (A)
                 (A) (A) (A) (A) (A) (A) (A) (A) (A) (A) (A) (A)
                 (A) (A) (A) (A) (A) (A) (A) (A) (A) (A) (A) (A)
                 (A) (A) (A) (A) (A) (A) (A) (A) (A) (A) (A) (A)
                 (A) (A) (A) (A) (A) (A) (A) (A) (A) (A) (A) (A)
                 (A) (A) (A) (A) (A) (A) (A) (A) (A) (A) (A) (A)
                 (A) (A) (A) (A) (A) (A) (A) (A) (A) (A) (A) (A)
                 (A) (A) (A) (A) (A) (A) (A) (A) (A) (A) (A) (A)
                 (A) (A) (A) (A) (A) (A) (A) (A) (A)
 The electronic state is 1-A.
 Alpha  occ. eigenvalues --  -19.69189 -10.68935  -1.23990  -0.81466  -0.61177
 Alpha  occ. eigenvalues --   -0.51615  -0.49530  -0.40210  -0.36253
 Alpha virt. eigenvalues --    0.05308   0.09201   0.11671   0.11827   0.14163
 Alpha virt. eigenvalues --    0.16735   0.17898   0.28718   0.31593   0.33164
 Alpha virt. eigenvalues --    0.35979   0.37590   0.39216   0.40594   0.42359
 Alpha virt. eigenvalues --    0.50198   0.53030   0.58171   0.60108   0.67470
 Alpha virt. eigenvalues --    0.69922   0.70275   0.72050   0.77607   0.79221
 Alpha virt. eigenvalues --    0.82073   0.86913   0.88061   0.93390   0.95567
 Alpha virt. eigenvalues --    1.03152   1.05099   1.07222   1.07643   1.08974
 Alpha virt. eigenvalues --    1.09807   1.21564   1.22856   1.35053   1.36104
 Alpha virt. eigenvalues --    1.38617   1.39938   1.43514   1.46496   1.49903
 Alpha virt. eigenvalues --    1.78745   1.80615   1.83218   1.89825   1.92693
 Alpha virt. eigenvalues --    1.93342   1.95282   1.97621   2.01316   2.01881
 Alpha virt. eigenvalues --    2.03065   2.13745   2.16540   2.17563   2.19725
 Alpha virt. eigenvalues --    2.26432   2.30476   2.32286   2.36669   2.42646
 Alpha virt. eigenvalues --    2.44848   2.46628   2.58236   2.61417   2.64082
 Alpha virt. eigenvalues --    2.64882   2.72674   2.73739   2.75758   2.79724
 Alpha virt. eigenvalues --    2.82115   2.84780   2.86596   2.92447   2.95088
 Alpha virt. eigenvalues --    2.99121   3.05099   3.06619   3.12332   3.17005
 Alpha virt. eigenvalues --    3.19700   3.25956   3.32586   3.37978   3.38626
 Alpha virt. eigenvalues --    3.47034   3.56625   3.69780   3.75764   3.86978
 Alpha virt. eigenvalues --    3.87594   3.95954   4.06595   4.07610   4.14150
 Alpha virt. eigenvalues --    4.15496   4.16949   4.28157   4.42515   4.45910
 Alpha virt. eigenvalues --    4.52479   4.73045   4.85139   5.07316   5.29191
 Alpha virt. eigenvalues --    5.35587   5.39894   5.47970   5.58921   5.67376
 Alpha virt. eigenvalues --    5.75248   5.82878   5.84091   5.86118   5.90010
 Alpha virt. eigenvalues --    5.94785   5.97411   5.99098   6.03401   6.05756
 Alpha virt. eigenvalues --    6.11032   6.15692   6.18848   6.23584   6.25343
 Alpha virt. eigenvalues --    6.29908   6.36575   6.38726   6.45588   6.49504
 Alpha virt. eigenvalues --    6.51176   6.57037   6.61667   6.69059   6.90476
 Alpha virt. eigenvalues --    6.92571   7.03876   7.05786   7.11607   7.15823
 Alpha virt. eigenvalues --    7.19895   7.27548   7.33637   7.34437   7.40055
 Alpha virt. eigenvalues --    7.44488   7.46089   7.56819   7.62448   7.65470
 Alpha virt. eigenvalues --    7.68239   7.69552   7.74063   7.76981   7.82129
 Alpha virt. eigenvalues --    7.86940   7.88355   8.02375   8.10526   8.14763
 Alpha virt. eigenvalues --    8.19633   8.22656   8.25450   8.27102   8.35291
 Alpha virt. eigenvalues --    8.41927   8.42565   8.49551   8.52479   8.55684
 Alpha virt. eigenvalues --    8.66190   8.76835   8.79170   8.81689   8.85683
 Alpha virt. eigenvalues --    8.91137   8.95432   9.16254   9.35766   9.40468
 Alpha virt. eigenvalues --    9.45305   9.49526   9.52335   9.58915   9.67798
 Alpha virt. eigenvalues --    9.74375   9.83295   9.94030   9.98108  10.17213
 Alpha virt. eigenvalues --   10.26229  10.36976  10.44936  10.57357  11.05174
 Alpha virt. eigenvalues --   11.11362  11.28501  11.47804  11.72252  11.86666
 Alpha virt. eigenvalues --   11.89337  11.94604  11.96877  12.10816  12.34982
 Alpha virt. eigenvalues --   12.52819  12.73485  13.26812  13.30923  13.44486
 Alpha virt. eigenvalues --   13.92221  13.96499  15.15137  16.28512  16.46494
 Alpha virt. eigenvalues --   17.63860  28.90135  49.15956 148.45323 255.05004
          Condensed to atoms (all electrons):
               1          2          3          4          5          6
     1  C    4.487169   0.254999   0.422654   0.415455   0.396618  -0.029295
     2  O    0.254999   7.643193  -0.053730  -0.045143  -0.038801   0.484589
     3  H    0.422654  -0.053730   0.646504  -0.038152  -0.031341  -0.000916
     4  H    0.415455  -0.045143  -0.038152   0.643492  -0.035833  -0.002136
     5  H    0.396618  -0.038801  -0.031341  -0.035833   0.626081   0.004434
     6  H   -0.029295   0.484589  -0.000916  -0.002136   0.004434   0.546754
 Mulliken charges:
               1
     1  C    0.052400
     2  O   -0.245107
     3  H    0.054980
     4  H    0.062317
     5  H    0.078841
     6  H   -0.003430
 Sum of Mulliken charges =   0.00000
 Mulliken charges with hydrogens summed into heavy atoms:
               1
     1  C    0.248537
     2  O   -0.248537
 Electronic spatial extent (au):  <R**2>=             85.6387
 Charge=              0.0000 electrons
 Dipole moment (field-independent basis, Debye):
    X=              0.9444    Y=             -1.1337    Z=              0.3864  Tot=              1.5253
 Quadrupole moment (field-independent basis, Debye-Ang):
   XX=            -12.9780   YY=            -12.7218   ZZ=            -13.3643
   XY=              1.8742   XZ=             -0.4254   YZ=             -0.1883
 Traceless Quadrupole moment (field-independent basis, Debye-Ang):
   XX=              0.0433   YY=              0.2996   ZZ=             -0.3430
   XY=              1.8742   XZ=             -0.4254   YZ=             -0.1883
 Octapole moment (field-independent basis, Debye-Ang**2):
  XXX=             -5.9820  YYY=             -0.1101  ZZZ=              0.8477  XYY=             -1.3343
  XXY=             -1.8155  XXZ=              0.8071  XZZ=             -0.5562  YZZ=             -0.7210
  YYZ=             -0.4605  XYZ=              0.2510
 Hexadecapole moment (field-independent basis, Debye-Ang**3):
 XXXX=            -63.0803 YYYY=            -21.2308 ZZZZ=            -21.1850 XXXY=              3.6924
 XXXZ=             -0.5964 YYYX=              2.5507 YYYZ=             -0.3050 ZZZX=              0.3772
 ZZZY=             -0.0667 XXYY=            -13.8005 XXZZ=            -14.4815 YYZZ=             -7.0726
 XXYZ=             -0.4050 YYXZ=             -0.8359 ZZXY=             -0.0023
 N-N= 4.120652194035D+01 E-N=-3.539273938842D+02  KE= 1.157521012700D+02
 Leave Link  601 at Wed Aug 26 13:37:29 2020, MaxMem=  2097152000 cpu:         0.5
 (Enter /opt/cluster/programs/g09/g09_d.01/g09/l9999.exe)
 1\1\GINC-NODE19\SP\RB2PLYPD3-FC\def2QZVP\C1H4O1\BOITTIER\26-Aug-2020\0
 \\#p B2PLYPD3/Def2QZVP\\methanol\\0,1\C,0,-5.19349,-1.2512,0.907377\O,
 0,-3.760586,-1.12612,0.843572\H,0,-5.465244,-2.338382,0.541753\H,0,-5.
 712864,-0.420848,0.336636\H,0,-5.457945,-1.128205,2.054525\H,0,-3.4505
 12,-1.167647,0.237322\\Version=ES64L-G09RevD.01\State=1-A\HF=-115.3916
 385\MP2=-115.5357102\RMSD=1.952e-09\PG=C01 [X(C1H4O1)]\\@


 ADAM SMITH SAID, "THE REAL PRICE OF ANYTHING IS THE TOIL AND TROUBLE
 OF ACQUIRING IT."  BUT IN ALL UNDERTAKINGS WITH NATURE WE SHOULD FIRST
 READ CAREFULLY THE SMALL PRINT IN THE CONTRACT. THIS MIGHT DISCLOSE
 THAT THE REAL PRICE IS TO BE PAID BY THOSE WHO INHERIT THE DEPLETION
 AND DESPOILATION THAT FOLLOWS.
                               -- E. R. HARRISON IN "COSMOLOGY" (1980)
 Job cpu time:       0 days  0 hours  4 minutes 54.8 seconds.
 File lengths (MBytes):  RWF=     23 Int=      0 D2E=      0 Chk=      4 Scr=      1
 Normal termination of Gaussian 09 at Wed Aug 26 13:37:30 2020.
