 Entering Gaussian System, Link 0=/opt/cluster/programs/g09/g09_d.01/g09//g09
 Input=/home/boittier/MDCM/nms_sampling/methanol_geom.xyz.dir/energies/methanol_934_energy.com
 Output=/scratch/boittier/methanol_934_energy/methanol_934_energy.out
 Initial command:
 /opt/cluster/programs/g09/g09_d.01/g09/l1.exe "/scratch/boittier/methanol_934_energy/Gau-185542.inp" -scrdir="/scratch/boittier/methanol_934_energy/"
 Entering Link 1 = /opt/cluster/programs/g09/g09_d.01/g09/l1.exe PID=    185550.
  
 Copyright (c) 1988,1990,1992,1993,1995,1998,2003,2009,2013,
            Gaussian, Inc.  All Rights Reserved.
  
 This is part of the Gaussian(R) 09 program.  It is based on
 the Gaussian(R) 03 system (copyright 2003, Gaussian, Inc.),
 the Gaussian(R) 98 system (copyright 1998, Gaussian, Inc.),
 the Gaussian(R) 94 system (copyright 1995, Gaussian, Inc.),
 the Gaussian 92(TM) system (copyright 1992, Gaussian, Inc.),
 the Gaussian 90(TM) system (copyright 1990, Gaussian, Inc.),
 the Gaussian 88(TM) system (copyright 1988, Gaussian, Inc.),
 the Gaussian 86(TM) system (copyright 1986, Carnegie Mellon
 University), and the Gaussian 82(TM) system (copyright 1983,
 Carnegie Mellon University). Gaussian is a federally registered
 trademark of Gaussian, Inc.
  
 This software contains proprietary and confidential information,
 including trade secrets, belonging to Gaussian, Inc.
  
 This software is provided under written license and may be
 used, copied, transmitted, or stored only in accord with that
 written license.
  
 The following legend is applicable only to US Government
 contracts under FAR:
  
                    RESTRICTED RIGHTS LEGEND
  
 Use, reproduction and disclosure by the US Government is
 subject to restrictions as set forth in subparagraphs (a)
 and (c) of the Commercial Computer Software - Restricted
 Rights clause in FAR 52.227-19.
  
 Gaussian, Inc.
 340 Quinnipiac St., Bldg. 40, Wallingford CT 06492
  
  
 ---------------------------------------------------------------
 Warning -- This program may not be used in any manner that
 competes with the business of Gaussian, Inc. or will provide
 assistance to any competitor of Gaussian, Inc.  The licensee
 of this program is prohibited from giving any competitor of
 Gaussian, Inc. access to this program.  By using this program,
 the user acknowledges that Gaussian, Inc. is engaged in the
 business of creating and licensing software in the field of
 computational chemistry and represents and warrants to the
 licensee that it is not a competitor of Gaussian, Inc. and that
 it will not use this program in any manner prohibited above.
 ---------------------------------------------------------------
  

 Cite this work as:
 Gaussian 09, Revision D.01,
 M. J. Frisch, G. W. Trucks, H. B. Schlegel, G. E. Scuseria, 
 M. A. Robb, J. R. Cheeseman, G. Scalmani, V. Barone, B. Mennucci, 
 G. A. Petersson, H. Nakatsuji, M. Caricato, X. Li, H. P. Hratchian, 
 A. F. Izmaylov, J. Bloino, G. Zheng, J. L. Sonnenberg, M. Hada, 
 M. Ehara, K. Toyota, R. Fukuda, J. Hasegawa, M. Ishida, T. Nakajima, 
 Y. Honda, O. Kitao, H. Nakai, T. Vreven, J. A. Montgomery, Jr., 
 J. E. Peralta, F. Ogliaro, M. Bearpark, J. J. Heyd, E. Brothers, 
 K. N. Kudin, V. N. Staroverov, T. Keith, R. Kobayashi, J. Normand, 
 K. Raghavachari, A. Rendell, J. C. Burant, S. S. Iyengar, J. Tomasi, 
 M. Cossi, N. Rega, J. M. Millam, M. Klene, J. E. Knox, J. B. Cross, 
 V. Bakken, C. Adamo, J. Jaramillo, R. Gomperts, R. E. Stratmann, 
 O. Yazyev, A. J. Austin, R. Cammi, C. Pomelli, J. W. Ochterski, 
 R. L. Martin, K. Morokuma, V. G. Zakrzewski, G. A. Voth, 
 P. Salvador, J. J. Dannenberg, S. Dapprich, A. D. Daniels, 
 O. Farkas, J. B. Foresman, J. V. Ortiz, J. Cioslowski, 
 and D. J. Fox, Gaussian, Inc., Wallingford CT, 2013.
 
 ******************************************
 Gaussian 09:  ES64L-G09RevD.01 24-Apr-2013
                27-Aug-2020 
 ******************************************
 %chk=/home/boittier/MDCM/nms_sampling/methanol_geom.xyz.dir/methanol_934.chk
 %nproc=8
 Will use up to    8 processors via shared memory.
 %mem=16000MB
 --------------------
 #p B2PLYPD3/Def2QZVP
 --------------------
 1/38=1/1;
 2/12=2,17=6,18=5,40=1/2;
 3/5=45,7=101,11=9,16=1,25=1,30=1,74=-60/1,2,3;
 4//1;
 5/5=2,38=5/2;
 8/10=1/1;
 9/16=-3/6;
 6/7=2,8=2,9=2,10=2/1;
 99/5=1,9=1/99;
 Leave Link    1 at Thu Aug 27 00:14:08 2020, MaxMem=  2097152000 cpu:         3.6
 (Enter /opt/cluster/programs/g09/g09_d.01/g09/l101.exe)
 --------
 methanol
 --------
 Symbolic Z-matrix:
 Charge =  0 Multiplicity = 1
 C                    -5.17423  -1.25179   0.92034 
 O                    -3.77316  -1.12529   0.85124 
 H                    -5.47774  -2.27168   0.53551 
 H                    -5.65858  -0.43558   0.30887 
 H                    -5.47894  -1.15934   1.97334 
 H                    -3.49259  -1.19538   0.07367 
 
 NAtoms=      6 NQM=        6 NQMF=       0 NMMI=      0 NMMIF=      0
                NMic=       0 NMicF=      0.
                    Isotopes and Nuclear Properties:
 (Nuclear quadrupole moments (NQMom) in fm**2, nuclear magnetic moments (NMagM)
  in nuclear magnetons)

  Atom         1           2           3           4           5           6
 IAtWgt=          12          16           1           1           1           1
 AtmWgt=  12.0000000  15.9949146   1.0078250   1.0078250   1.0078250   1.0078250
 NucSpn=           0           0           1           1           1           1
 AtZEff=   0.0000000   0.0000000   0.0000000   0.0000000   0.0000000   0.0000000
 NQMom=    0.0000000   0.0000000   0.0000000   0.0000000   0.0000000   0.0000000
 NMagM=    0.0000000   0.0000000   2.7928460   2.7928460   2.7928460   2.7928460
 AtZNuc=   6.0000000   8.0000000   1.0000000   1.0000000   1.0000000   1.0000000
 Leave Link  101 at Thu Aug 27 00:14:10 2020, MaxMem=  2097152000 cpu:         0.5
 (Enter /opt/cluster/programs/g09/g09_d.01/g09/l202.exe)
                          Input orientation:                          
 ---------------------------------------------------------------------
 Center     Atomic      Atomic             Coordinates (Angstroms)
 Number     Number       Type             X           Y           Z
 ---------------------------------------------------------------------
      1          6           0       -5.174227   -1.251791    0.920339
      2          8           0       -3.773164   -1.125293    0.851240
      3          1           0       -5.477743   -2.271675    0.535509
      4          1           0       -5.658584   -0.435583    0.308866
      5          1           0       -5.478938   -1.159335    1.973337
      6          1           0       -3.492588   -1.195380    0.073669
 ---------------------------------------------------------------------
                    Distance matrix (angstroms):
                    1          2          3          4          5
     1  C    0.000000
     2  O    1.408458   0.000000
     3  H    1.131539   2.078333   0.000000
     4  H    1.129025   2.079586   1.858845   0.000000
     5  H    1.100092   2.042040   1.817870   1.823884   0.000000
     6  H    1.883598   0.829609   2.304896   2.307411   2.748750
                    6
     6  H    0.000000
 Stoichiometry    CH4O
 Framework group  C1[X(CH4O)]
 Deg. of freedom    12
 Full point group                 C1      NOp   1
 Largest Abelian subgroup         C1      NOp   1
 Largest concise Abelian subgroup C1      NOp   1
                         Standard orientation:                         
 ---------------------------------------------------------------------
 Center     Atomic      Atomic             Coordinates (Angstroms)
 Number     Number       Type             X           Y           Z
 ---------------------------------------------------------------------
      1          6           0       -0.661657   -0.013284   -0.001192
      2          8           0        0.741768    0.105679   -0.001464
      3          1           0       -0.991757   -0.552454    0.937269
      4          1           0       -0.993941   -0.576731   -0.921416
      5          1           0       -1.095075    0.997815   -0.006468
      6          1           0        1.116571   -0.634358    0.009480
 ---------------------------------------------------------------------
 Rotational constants (GHZ):    128.5502201     25.0763959     24.5298562
 Leave Link  202 at Thu Aug 27 00:14:11 2020, MaxMem=  2097152000 cpu:         0.0
 (Enter /opt/cluster/programs/g09/g09_d.01/g09/l301.exe)
 Standard basis: def2QZVP (5D, 7F)
 Ernie: Thresh=  0.10000D-02 Tol=  0.10000D-05 Strict=F.
 There are   284 symmetry adapted cartesian basis functions of A   symmetry.
 There are   234 symmetry adapted basis functions of A   symmetry.
   234 basis functions,   336 primitive gaussians,   284 cartesian basis functions
     9 alpha electrons        9 beta electrons
       nuclear repulsion energy        40.9902978532 Hartrees.
 IExCor=  419 DFT=T Ex+Corr=B2PLYPD3 ExCW=0 ScaHFX=  0.530000
 ScaDFX=  0.470000  0.470000  0.730000  0.730000 ScalE2=  0.270000  0.270000
 IRadAn=      0 IRanWt=     -1 IRanGd=            0 ICorTp=0 IEmpDi=141
 NAtoms=    6 NActive=    6 NUniq=    6 SFac= 1.00D+00 NAtFMM=   60 NAOKFM=F Big=F
 Integral buffers will be    131072 words long.
 Regular integral format.
 Two-electron integral symmetry is turned on.
 R6Disp:  Grimme-D3(BJ) Dispersion energy=       -0.0013104673 Hartrees.
 Nuclear repulsion after empirical dispersion term =       40.9889873859 Hartrees.
 Leave Link  301 at Thu Aug 27 00:14:11 2020, MaxMem=  2097152000 cpu:         0.4
 (Enter /opt/cluster/programs/g09/g09_d.01/g09/l302.exe)
 NPDir=0 NMtPBC=     1 NCelOv=     1 NCel=       1 NClECP=     1 NCelD=      1
         NCelK=      1 NCelE2=     1 NClLst=     1 CellRange=     0.0.
 One-electron integrals computed using PRISM.
   1 Symmetry operations used in ECPInt.
 ECPInt:  NShTT=    2775 NPrTT=    6207 LenC2=    2774 LenP2D=    5743.
 LDataN:  DoStor=T MaxTD1= 8 Len=  415
 NBasis=   234 RedAO= T EigKep=  1.23D-04  NBF=   234
 NBsUse=   234 1.00D-06 EigRej= -1.00D+00 NBFU=   234
 Precomputing XC quadrature grid using
 IXCGrd= 4 IRadAn=           0 IRanWt=          -1 IRanGd=           0 AccXCQ= 0.00D+00.
 Generated NRdTot=       0 NPtTot=           0 NUsed=           0 NTot=          32
 NSgBfM=   284   284   284   284   284 MxSgAt=     6 MxSgA2=     6.
 Leave Link  302 at Thu Aug 27 00:14:12 2020, MaxMem=  2097152000 cpu:         1.8
 (Enter /opt/cluster/programs/g09/g09_d.01/g09/l303.exe)
 DipDrv:  MaxL=1.
 Leave Link  303 at Thu Aug 27 00:14:13 2020, MaxMem=  2097152000 cpu:         0.2
 (Enter /opt/cluster/programs/g09/g09_d.01/g09/l401.exe)
 ExpMin= 7.60D-02 ExpMax= 1.17D+05 ExpMxC= 1.13D+03 IAcc=2 IRadAn=         4 AccDes= 0.00D+00
 Harris functional with IExCor=  419 and IRadAn=       4 diagonalized for initial guess.
 HarFok:  IExCor=  419 AccDes= 0.00D+00 IRadAn=         4 IDoV= 1 UseB2=F ITyADJ=14
 ICtDFT=  3500011 ScaDFX=  1.000000  1.000000  1.000000  1.000000
 FoFCou: FMM=F IPFlag=           0 FMFlag=      100000 FMFlg1=           0
         NFxFlg=           0 DoJE=T BraDBF=F KetDBF=T FulRan=T
         wScrn=  0.000000 ICntrl=     500 IOpCl=  0 I1Cent=   200000004 NGrid=           0
         NMat0=    1 NMatS0=      1 NMatT0=    0 NMatD0=    1 NMtDS0=    0 NMtDT0=    0
 Petite list used in FoFCou.
 Harris En= -115.800973842683    
 JPrj=0 DoOrth=F DoCkMO=F.
 Leave Link  401 at Thu Aug 27 00:14:22 2020, MaxMem=  2097152000 cpu:         3.3
 (Enter /opt/cluster/programs/g09/g09_d.01/g09/l502.exe)
 Closed shell SCF:
 Using DIIS extrapolation, IDIIS=  1040.
 Integral symmetry usage will be decided dynamically.
 Keep R1 ints in memory in canonical form, NReq=389840494.
 IVT=      264814 IEndB=      264814 NGot=  2097152000 MDV=  1718885927
 LenX=  1718885927 LenY=  1718804830
 Requested convergence on RMS density matrix=1.00D-08 within 128 cycles.
 Requested convergence on MAX density matrix=1.00D-06.
 Requested convergence on             energy=1.00D-06.
 No special actions if energy rises.
 FoFCou: FMM=F IPFlag=           0 FMFlag=           0 FMFlg1=           0
         NFxFlg=           0 DoJE=F BraDBF=F KetDBF=F FulRan=T
         wScrn=  0.000000 ICntrl=     600 IOpCl=  0 I1Cent=           0 NGrid=           0
         NMat0=    1 NMatS0=  27495 NMatT0=    0 NMatD0=    1 NMtDS0=    0 NMtDT0=    0
 Symmetry not used in FoFCou.
 Integral accuracy reduced to 1.0D-05 until final iterations.

 Cycle   1  Pass 0  IDiag  1:
 E= -115.424521435313    
 DIIS: error= 2.64D-02 at cycle   1 NSaved=   1.
 NSaved= 1 IEnMin= 1 EnMin= -115.424521435313     IErMin= 1 ErrMin= 2.64D-02
 ErrMax= 2.64D-02  0.00D+00 EMaxC= 1.00D-01 BMatC= 1.99D-01 BMatP= 1.99D-01
 IDIUse=3 WtCom= 7.36D-01 WtEn= 2.64D-01
 Coeff-Com:  0.100D+01
 Coeff-En:   0.100D+01
 Coeff:      0.100D+01
 Gap=     0.329 Goal=   None    Shift=    0.000
 GapD=    0.329 DampG=1.000 DampE=0.500 DampFc=0.5000 IDamp=-1.
 Damping current iteration by 5.00D-01
 RMSDP=1.39D-03 MaxDP=5.41D-02              OVMax= 1.59D-01

 Cycle   2  Pass 0  IDiag  1:
 E= -115.476683206309     Delta-E=       -0.052161770996 Rises=F Damp=T
 DIIS: error= 1.19D-02 at cycle   2 NSaved=   2.
 NSaved= 2 IEnMin= 2 EnMin= -115.476683206309     IErMin= 2 ErrMin= 1.19D-02
 ErrMax= 1.19D-02  0.00D+00 EMaxC= 1.00D-01 BMatC= 1.84D-02 BMatP= 1.99D-01
 IDIUse=3 WtCom= 8.81D-01 WtEn= 1.19D-01
 Coeff-Com: -0.112D+00 0.111D+01
 Coeff-En:   0.000D+00 0.100D+01
 Coeff:     -0.991D-01 0.110D+01
 Gap=     0.430 Goal=   None    Shift=    0.000
 RMSDP=3.54D-04 MaxDP=9.88D-03 DE=-5.22D-02 OVMax= 8.93D-02

 Cycle   3  Pass 0  IDiag  1:
 E= -115.528887594171     Delta-E=       -0.052204387862 Rises=F Damp=F
 DIIS: error= 4.55D-03 at cycle   3 NSaved=   3.
 NSaved= 3 IEnMin= 3 EnMin= -115.528887594171     IErMin= 3 ErrMin= 4.55D-03
 ErrMax= 4.55D-03  0.00D+00 EMaxC= 1.00D-01 BMatC= 3.33D-03 BMatP= 1.84D-02
 IDIUse=3 WtCom= 9.54D-01 WtEn= 4.55D-02
 Coeff-Com: -0.117D+00 0.279D+00 0.838D+00
 Coeff-En:   0.000D+00 0.000D+00 0.100D+01
 Coeff:     -0.112D+00 0.266D+00 0.845D+00
 Gap=     0.409 Goal=   None    Shift=    0.000
 RMSDP=1.06D-04 MaxDP=4.10D-03 DE=-5.22D-02 OVMax= 1.24D-02

 Cycle   4  Pass 0  IDiag  1:
 E= -115.530743131477     Delta-E=       -0.001855537306 Rises=F Damp=F
 DIIS: error= 1.98D-03 at cycle   4 NSaved=   4.
 NSaved= 4 IEnMin= 4 EnMin= -115.530743131477     IErMin= 4 ErrMin= 1.98D-03
 ErrMax= 1.98D-03  0.00D+00 EMaxC= 1.00D-01 BMatC= 3.50D-04 BMatP= 3.33D-03
 IDIUse=3 WtCom= 9.80D-01 WtEn= 1.98D-02
 Coeff-Com: -0.408D-01 0.708D-01 0.352D+00 0.618D+00
 Coeff-En:   0.000D+00 0.000D+00 0.000D+00 0.100D+01
 Coeff:     -0.400D-01 0.694D-01 0.345D+00 0.626D+00
 Gap=     0.407 Goal=   None    Shift=    0.000
 RMSDP=3.36D-05 MaxDP=1.70D-03 DE=-1.86D-03 OVMax= 4.66D-03

 Cycle   5  Pass 0  IDiag  1:
 E= -115.531027096837     Delta-E=       -0.000283965360 Rises=F Damp=F
 DIIS: error= 1.95D-04 at cycle   5 NSaved=   5.
 NSaved= 5 IEnMin= 5 EnMin= -115.531027096837     IErMin= 5 ErrMin= 1.95D-04
 ErrMax= 1.95D-04  0.00D+00 EMaxC= 1.00D-01 BMatC= 6.15D-06 BMatP= 3.50D-04
 IDIUse=3 WtCom= 9.98D-01 WtEn= 1.95D-03
 Coeff-Com: -0.633D-02 0.772D-02 0.604D-01 0.177D+00 0.762D+00
 Coeff-En:   0.000D+00 0.000D+00 0.000D+00 0.000D+00 0.100D+01
 Coeff:     -0.631D-02 0.771D-02 0.602D-01 0.176D+00 0.762D+00
 Gap=     0.408 Goal=   None    Shift=    0.000
 RMSDP=6.55D-06 MaxDP=1.86D-04 DE=-2.84D-04 OVMax= 5.62D-04

 Initial convergence to 1.0D-05 achieved.  Increase integral accuracy.
 Cycle   6  Pass 1  IDiag  1:
 E= -115.531031610379     Delta-E=       -0.000004513542 Rises=F Damp=F
 DIIS: error= 2.65D-05 at cycle   1 NSaved=   1.
 NSaved= 1 IEnMin= 1 EnMin= -115.531031610379     IErMin= 1 ErrMin= 2.65D-05
 ErrMax= 2.65D-05  0.00D+00 EMaxC= 1.00D-01 BMatC= 7.38D-08 BMatP= 7.38D-08
 IDIUse=1 WtCom= 1.00D+00 WtEn= 0.00D+00
 Coeff-Com:  0.100D+01
 Coeff:      0.100D+01
 Gap=     0.408 Goal=   None    Shift=    0.000
 RMSDP=6.55D-06 MaxDP=1.86D-04 DE=-4.51D-06 OVMax= 9.69D-05

 Cycle   7  Pass 1  IDiag  1:
 E= -115.531031709821     Delta-E=       -0.000000099441 Rises=F Damp=F
 DIIS: error= 5.88D-06 at cycle   2 NSaved=   2.
 NSaved= 2 IEnMin= 2 EnMin= -115.531031709821     IErMin= 2 ErrMin= 5.88D-06
 ErrMax= 5.88D-06  0.00D+00 EMaxC= 1.00D-01 BMatC= 4.10D-09 BMatP= 7.38D-08
 IDIUse=1 WtCom= 1.00D+00 WtEn= 0.00D+00
 Coeff-Com: -0.643D-01 0.106D+01
 Coeff:     -0.643D-01 0.106D+01
 Gap=     0.408 Goal=   None    Shift=    0.000
 RMSDP=4.26D-07 MaxDP=1.16D-05 DE=-9.94D-08 OVMax= 3.84D-05

 Cycle   8  Pass 1  IDiag  1:
 E= -115.531031717536     Delta-E=       -0.000000007716 Rises=F Damp=F
 DIIS: error= 2.60D-06 at cycle   3 NSaved=   3.
 NSaved= 3 IEnMin= 3 EnMin= -115.531031717536     IErMin= 3 ErrMin= 2.60D-06
 ErrMax= 2.60D-06  0.00D+00 EMaxC= 1.00D-01 BMatC= 9.84D-10 BMatP= 4.10D-09
 IDIUse=1 WtCom= 1.00D+00 WtEn= 0.00D+00
 Coeff-Com: -0.723D-01 0.261D+00 0.811D+00
 Coeff:     -0.723D-01 0.261D+00 0.811D+00
 Gap=     0.408 Goal=   None    Shift=    0.000
 RMSDP=1.11D-07 MaxDP=3.81D-06 DE=-7.72D-09 OVMax= 1.27D-05

 Cycle   9  Pass 1  IDiag  1:
 E= -115.531031718451     Delta-E=       -0.000000000914 Rises=F Damp=F
 DIIS: error= 1.10D-06 at cycle   4 NSaved=   4.
 NSaved= 4 IEnMin= 4 EnMin= -115.531031718451     IErMin= 4 ErrMin= 1.10D-06
 ErrMax= 1.10D-06  0.00D+00 EMaxC= 1.00D-01 BMatC= 2.16D-10 BMatP= 9.84D-10
 IDIUse=1 WtCom= 1.00D+00 WtEn= 0.00D+00
 Coeff-Com: -0.214D-01-0.106D-01 0.344D+00 0.689D+00
 Coeff:     -0.214D-01-0.106D-01 0.344D+00 0.689D+00
 Gap=     0.408 Goal=   None    Shift=    0.000
 RMSDP=3.71D-08 MaxDP=1.50D-06 DE=-9.14D-10 OVMax= 4.95D-06

 Cycle  10  Pass 1  IDiag  1:
 E= -115.531031718618     Delta-E=       -0.000000000168 Rises=F Damp=F
 DIIS: error= 1.97D-07 at cycle   5 NSaved=   5.
 NSaved= 5 IEnMin= 5 EnMin= -115.531031718618     IErMin= 5 ErrMin= 1.97D-07
 ErrMax= 1.97D-07  0.00D+00 EMaxC= 1.00D-01 BMatC= 6.55D-12 BMatP= 2.16D-10
 IDIUse=1 WtCom= 1.00D+00 WtEn= 0.00D+00
 Coeff-Com:  0.966D-03-0.264D-01 0.194D-01 0.146D+00 0.860D+00
 Coeff:      0.966D-03-0.264D-01 0.194D-01 0.146D+00 0.860D+00
 Gap=     0.408 Goal=   None    Shift=    0.000
 RMSDP=9.36D-09 MaxDP=3.90D-07 DE=-1.68D-10 OVMax= 1.12D-06

 SCF Done:  E(RB2PLYPD3) =  -115.531031719     A.U. after   10 cycles
            NFock= 10  Conv=0.94D-08     -V/T= 2.0012
 KE= 1.153978745893D+02 PE=-3.535547113014D+02 EE= 8.163681760765D+01
 Leave Link  502 at Thu Aug 27 00:14:35 2020, MaxMem=  2097152000 cpu:        63.0
 (Enter /opt/cluster/programs/g09/g09_d.01/g09/l801.exe)
 DoSCS=T DFT=T ScalE2(SS,OS)=  0.270000  0.270000
 ExpMin= 7.60D-02 ExpMax= 1.17D+05 ExpMxC= 1.13D+03 IAcc=3 IRadAn=         5 AccDes= 0.00D+00
 HarFok:  IExCor=  205 AccDes= 0.00D+00 IRadAn=         5 IDoV=-2 UseB2=F ITyADJ=14
 ICtDFT= 12500011 ScaDFX=  1.000000  1.000000  1.000000  1.000000
 Largest valence mixing into a core orbital is  1.18D-04
 Largest core mixing into a valence orbital is  1.48D-05
 Range of M.O.s used for correlation:     3   234
 NBasis=   234 NAE=     9 NBE=     9 NFC=     2 NFV=     0
 NROrb=    232 NOA=     7 NOB=     7 NVA=   225 NVB=   225

 **** Warning!!: The largest alpha MO coefficient is  0.24829184D+02

 Leave Link  801 at Thu Aug 27 00:14:35 2020, MaxMem=  2097152000 cpu:         0.6
 (Enter /opt/cluster/programs/g09/g09_d.01/g09/l906.exe)
 DoSCS=T DFT=T ScalE2(SS,OS)=  0.270000  0.270000
 FulOut=F Deriv=F AODrv=F NAtomX=     6
   MMem=        3646  MDisk=           7 MDiskD=           7
  W3Min=      447300 MinDsk=     1090093 NBas6D=         284
 NBas2D=       41310    NTT=       40470    LW2=     4508827
    MDV=  2096872408 MDiskM=       16391 NBas2p=       41304
 Fully in-core method, ICMem=  1722292712.
 IMap=   1   2   3   4   5   6   7
 JobTyp=1 Pass  1 fully in-core, NPsUse=  8.
 Compute canonical integrals.
 FoFCou: FMM=F IPFlag=           0 FMFlag=           0 FMFlg1=           0
         NFxFlg=           0 DoJE=F BraDBF=F KetDBF=F FulRan=T
         wScrn=  0.000000 ICntrl=     600 IOpCl=  1 I1Cent=           0 NGrid=           0
         NMat0=    1 NMatS0=  41310 NMatT0=    0 NMatD0=    1 NMtDS0=    0 NMtDT0=    0
 Symmetry not used in FoFCou.
 Spin components of T(2) and E(2):
     alpha-alpha T2 =       0.1983696288D-01 E2=     -0.1639860925D-01
     alpha-beta  T2 =       0.1267598736D+00 E2=     -0.1123084610D+00
     beta-beta   T2 =       0.1983696288D-01 E2=     -0.1639860925D-01
 The integrals were generated   1 times.
 E2(B2PLYPD3) =    -0.1451056795D+00 E(B2PLYPD3) =    -0.11567613739817D+03
 Leave Link  906 at Thu Aug 27 00:14:50 2020, MaxMem=  2097152000 cpu:       118.5
 (Enter /opt/cluster/programs/g09/g09_d.01/g09/l601.exe)
 Copying SCF densities to generalized density rwf, IOpCl= 0 IROHF=0.

 **********************************************************************

            Population analysis using the SCF density.

 **********************************************************************

 Orbital symmetries:
       Occupied  (A) (A) (A) (A) (A) (A) (A) (A) (A)
       Virtual   (A) (A) (A) (A) (A) (A) (A) (A) (A) (A) (A) (A)
                 (A) (A) (A) (A) (A) (A) (A) (A) (A) (A) (A) (A)
                 (A) (A) (A) (A) (A) (A) (A) (A) (A) (A) (A) (A)
                 (A) (A) (A) (A) (A) (A) (A) (A) (A) (A) (A) (A)
                 (A) (A) (A) (A) (A) (A) (A) (A) (A) (A) (A) (A)
                 (A) (A) (A) (A) (A) (A) (A) (A) (A) (A) (A) (A)
                 (A) (A) (A) (A) (A) (A) (A) (A) (A) (A) (A) (A)
                 (A) (A) (A) (A) (A) (A) (A) (A) (A) (A) (A) (A)
                 (A) (A) (A) (A) (A) (A) (A) (A) (A) (A) (A) (A)
                 (A) (A) (A) (A) (A) (A) (A) (A) (A) (A) (A) (A)
                 (A) (A) (A) (A) (A) (A) (A) (A) (A) (A) (A) (A)
                 (A) (A) (A) (A) (A) (A) (A) (A) (A) (A) (A) (A)
                 (A) (A) (A) (A) (A) (A) (A) (A) (A) (A) (A) (A)
                 (A) (A) (A) (A) (A) (A) (A) (A) (A) (A) (A) (A)
                 (A) (A) (A) (A) (A) (A) (A) (A) (A) (A) (A) (A)
                 (A) (A) (A) (A) (A) (A) (A) (A) (A) (A) (A) (A)
                 (A) (A) (A) (A) (A) (A) (A) (A) (A) (A) (A) (A)
                 (A) (A) (A) (A) (A) (A) (A) (A) (A) (A) (A) (A)
                 (A) (A) (A) (A) (A) (A) (A) (A) (A)
 The electronic state is 1-A.
 Alpha  occ. eigenvalues --  -19.71090 -10.66772  -1.19648  -0.79676  -0.60253
 Alpha  occ. eigenvalues --   -0.51754  -0.50768  -0.40872  -0.35404
 Alpha virt. eigenvalues --    0.05359   0.08825   0.12057   0.12400   0.14586
 Alpha virt. eigenvalues --    0.17241   0.17770   0.28974   0.32914   0.33520
 Alpha virt. eigenvalues --    0.37284   0.39658   0.39841   0.39903   0.43421
 Alpha virt. eigenvalues --    0.47543   0.53698   0.56480   0.59670   0.66742
 Alpha virt. eigenvalues --    0.70725   0.71684   0.74561   0.78529   0.80711
 Alpha virt. eigenvalues --    0.82511   0.86426   0.87434   0.93716   0.96468
 Alpha virt. eigenvalues --    1.02288   1.03815   1.05492   1.08728   1.09964
 Alpha virt. eigenvalues --    1.12579   1.20352   1.23365   1.29804   1.39241
 Alpha virt. eigenvalues --    1.39872   1.40337   1.43225   1.47384   1.51034
 Alpha virt. eigenvalues --    1.79248   1.81343   1.85615   1.88826   1.88969
 Alpha virt. eigenvalues --    1.92960   1.95458   1.96494   2.00047   2.02865
 Alpha virt. eigenvalues --    2.05409   2.14481   2.17661   2.20252   2.22435
 Alpha virt. eigenvalues --    2.25246   2.30784   2.31342   2.38660   2.42425
 Alpha virt. eigenvalues --    2.44565   2.48096   2.58652   2.62279   2.65553
 Alpha virt. eigenvalues --    2.66445   2.69221   2.71513   2.77631   2.84582
 Alpha virt. eigenvalues --    2.85108   2.88036   2.88368   2.92952   2.97024
 Alpha virt. eigenvalues --    2.98728   3.04693   3.08232   3.10840   3.21008
 Alpha virt. eigenvalues --    3.21927   3.32057   3.35175   3.37710   3.41377
 Alpha virt. eigenvalues --    3.52098   3.64229   3.69150   3.83686   3.84023
 Alpha virt. eigenvalues --    3.92258   4.02416   4.04121   4.06974   4.14807
 Alpha virt. eigenvalues --    4.20597   4.24230   4.29810   4.37663   4.55834
 Alpha virt. eigenvalues --    4.57451   4.72637   4.76291   4.94660   5.24507
 Alpha virt. eigenvalues --    5.40527   5.46206   5.50150   5.65666   5.70530
 Alpha virt. eigenvalues --    5.76963   5.77109   5.84526   5.86087   5.90016
 Alpha virt. eigenvalues --    5.90680   5.99844   6.00508   6.04699   6.12230
 Alpha virt. eigenvalues --    6.18604   6.21951   6.27879   6.30835   6.32373
 Alpha virt. eigenvalues --    6.34817   6.39457   6.42296   6.48370   6.49999
 Alpha virt. eigenvalues --    6.57413   6.66586   6.69509   6.76429   6.90045
 Alpha virt. eigenvalues --    6.94669   7.02617   7.10849   7.12301   7.27158
 Alpha virt. eigenvalues --    7.28577   7.28926   7.30240   7.36699   7.38723
 Alpha virt. eigenvalues --    7.47824   7.48724   7.50828   7.60879   7.70183
 Alpha virt. eigenvalues --    7.70618   7.78028   7.78578   7.79780   7.83842
 Alpha virt. eigenvalues --    7.86243   7.94830   7.99064   8.00275   8.12168
 Alpha virt. eigenvalues --    8.16613   8.30854   8.31177   8.34157   8.44312
 Alpha virt. eigenvalues --    8.48055   8.48668   8.48865   8.50009   8.54138
 Alpha virt. eigenvalues --    8.56425   8.78251   8.86117   8.89455   8.90092
 Alpha virt. eigenvalues --    8.96048   8.97633   9.12467   9.43968   9.48150
 Alpha virt. eigenvalues --    9.60703   9.62077   9.66130   9.67154   9.74802
 Alpha virt. eigenvalues --    9.83440   9.84966   9.96396  10.00879  10.11950
 Alpha virt. eigenvalues --   10.16938  10.25079  10.29008  10.45648  10.69147
 Alpha virt. eigenvalues --   11.04131  11.16104  11.38531  11.55071  11.67091
 Alpha virt. eigenvalues --   11.78167  11.89689  12.00556  12.12443  12.12986
 Alpha virt. eigenvalues --   12.60518  12.63365  12.79982  12.87901  13.00922
 Alpha virt. eigenvalues --   13.19569  13.57036  14.87360  15.22083  15.31396
 Alpha virt. eigenvalues --   16.72071  29.13499  49.06825 148.70785 254.90716
          Condensed to atoms (all electrons):
               1          2          3          4          5          6
     1  C    4.451688   0.266656   0.431537   0.431706   0.399519  -0.046785
     2  O    0.266656   7.908084  -0.054367  -0.053783  -0.034621   0.351006
     3  H    0.431537  -0.054367   0.664685  -0.044700  -0.036899  -0.004892
     4  H    0.431706  -0.053783  -0.044700   0.662837  -0.036938  -0.004769
     5  H    0.399519  -0.034621  -0.036899  -0.036938   0.622553   0.008817
     6  H   -0.046785   0.351006  -0.004892  -0.004769   0.008817   0.547178
 Mulliken charges:
               1
     1  C    0.065679
     2  O   -0.382975
     3  H    0.044636
     4  H    0.045647
     5  H    0.077569
     6  H    0.149444
 Sum of Mulliken charges =   0.00000
 Mulliken charges with hydrogens summed into heavy atoms:
               1
     1  C    0.233531
     2  O   -0.233531
 Electronic spatial extent (au):  <R**2>=             83.7537
 Charge=              0.0000 electrons
 Dipole moment (field-independent basis, Debye):
    X=             -0.8385    Y=             -1.3391    Z=              0.0183  Tot=              1.5800
 Quadrupole moment (field-independent basis, Debye-Ang):
   XX=            -13.0929   YY=            -12.4148   ZZ=            -13.6557
   XY=             -2.2034   XZ=              0.0341   YZ=             -0.0038
 Traceless Quadrupole moment (field-independent basis, Debye-Ang):
   XX=             -0.0384   YY=              0.6396   ZZ=             -0.6012
   XY=             -2.2034   XZ=              0.0341   YZ=             -0.0038
 Octapole moment (field-independent basis, Debye-Ang**2):
  XXX=              5.0079  YYY=             -0.1874  ZZZ=              0.0214  XYY=              1.5681
  XXY=             -1.9817  XXZ=              0.0292  XZZ=              0.5050  YZZ=             -0.7449
  YYZ=             -0.0152  XYZ=             -0.0335
 Hexadecapole moment (field-independent basis, Debye-Ang**3):
 XXXX=            -61.5910 YYYY=            -20.3818 ZZZZ=            -21.0213 XXXY=             -4.2454
 XXXZ=              0.0741 YYYX=             -3.0822 YYYZ=              0.0087 ZZZX=              0.0109
 ZZZY=              0.0015 XXYY=            -12.8644 XXZZ=            -14.5919 YYZZ=             -6.9606
 XXYZ=             -0.0047 YYXZ=              0.0437 ZZXY=              0.0935
 N-N= 4.098898738588D+01 E-N=-3.535546849573D+02  KE= 1.153978745893D+02
 Leave Link  601 at Thu Aug 27 00:14:51 2020, MaxMem=  2097152000 cpu:         0.3
 (Enter /opt/cluster/programs/g09/g09_d.01/g09/l9999.exe)
 1\1\GINC-NODE30\SP\RB2PLYPD3-FC\def2QZVP\C1H4O1\BOITTIER\27-Aug-2020\0
 \\#p B2PLYPD3/Def2QZVP\\methanol\\0,1\C,0,-5.174227,-1.251791,0.920339
 \O,0,-3.773164,-1.125293,0.85124\H,0,-5.477743,-2.271675,0.535509\H,0,
 -5.658584,-0.435583,0.308866\H,0,-5.478938,-1.159335,1.973337\H,0,-3.4
 92588,-1.19538,0.073669\\Version=ES64L-G09RevD.01\State=1-A\HF=-115.53
 10317\MP2=-115.6761374\RMSD=9.358e-09\PG=C01 [X(C1H4O1)]\\@


 I SUPPOSE A BABY LLAMA HAS A MMAMA AND A PPOPA.
     -- RICHARD AMOUR
 Job cpu time:       0 days  0 hours  3 minutes 15.7 seconds.
 File lengths (MBytes):  RWF=     23 Int=      0 D2E=      0 Chk=      4 Scr=      1
 Normal termination of Gaussian 09 at Thu Aug 27 00:14:51 2020.
