 Entering Gaussian System, Link 0=/opt/cluster/programs/g09/g09_d.01/g09//g09
 Input=/home/boittier/MDCM/nms_sampling/methanol_geom.xyz.dir/energies/methanol_3587_energy.com
 Output=/scratch/boittier/methanol_3587_energy/methanol_3587_energy.out
 Initial command:
 /opt/cluster/programs/g09/g09_d.01/g09/l1.exe "/scratch/boittier/methanol_3587_energy/Gau-31818.inp" -scrdir="/scratch/boittier/methanol_3587_energy/"
 Entering Link 1 = /opt/cluster/programs/g09/g09_d.01/g09/l1.exe PID=     31819.
  
 Copyright (c) 1988,1990,1992,1993,1995,1998,2003,2009,2013,
            Gaussian, Inc.  All Rights Reserved.
  
 This is part of the Gaussian(R) 09 program.  It is based on
 the Gaussian(R) 03 system (copyright 2003, Gaussian, Inc.),
 the Gaussian(R) 98 system (copyright 1998, Gaussian, Inc.),
 the Gaussian(R) 94 system (copyright 1995, Gaussian, Inc.),
 the Gaussian 92(TM) system (copyright 1992, Gaussian, Inc.),
 the Gaussian 90(TM) system (copyright 1990, Gaussian, Inc.),
 the Gaussian 88(TM) system (copyright 1988, Gaussian, Inc.),
 the Gaussian 86(TM) system (copyright 1986, Carnegie Mellon
 University), and the Gaussian 82(TM) system (copyright 1983,
 Carnegie Mellon University). Gaussian is a federally registered
 trademark of Gaussian, Inc.
  
 This software contains proprietary and confidential information,
 including trade secrets, belonging to Gaussian, Inc.
  
 This software is provided under written license and may be
 used, copied, transmitted, or stored only in accord with that
 written license.
  
 The following legend is applicable only to US Government
 contracts under FAR:
  
                    RESTRICTED RIGHTS LEGEND
  
 Use, reproduction and disclosure by the US Government is
 subject to restrictions as set forth in subparagraphs (a)
 and (c) of the Commercial Computer Software - Restricted
 Rights clause in FAR 52.227-19.
  
 Gaussian, Inc.
 340 Quinnipiac St., Bldg. 40, Wallingford CT 06492
  
  
 ---------------------------------------------------------------
 Warning -- This program may not be used in any manner that
 competes with the business of Gaussian, Inc. or will provide
 assistance to any competitor of Gaussian, Inc.  The licensee
 of this program is prohibited from giving any competitor of
 Gaussian, Inc. access to this program.  By using this program,
 the user acknowledges that Gaussian, Inc. is engaged in the
 business of creating and licensing software in the field of
 computational chemistry and represents and warrants to the
 licensee that it is not a competitor of Gaussian, Inc. and that
 it will not use this program in any manner prohibited above.
 ---------------------------------------------------------------
  

 Cite this work as:
 Gaussian 09, Revision D.01,
 M. J. Frisch, G. W. Trucks, H. B. Schlegel, G. E. Scuseria, 
 M. A. Robb, J. R. Cheeseman, G. Scalmani, V. Barone, B. Mennucci, 
 G. A. Petersson, H. Nakatsuji, M. Caricato, X. Li, H. P. Hratchian, 
 A. F. Izmaylov, J. Bloino, G. Zheng, J. L. Sonnenberg, M. Hada, 
 M. Ehara, K. Toyota, R. Fukuda, J. Hasegawa, M. Ishida, T. Nakajima, 
 Y. Honda, O. Kitao, H. Nakai, T. Vreven, J. A. Montgomery, Jr., 
 J. E. Peralta, F. Ogliaro, M. Bearpark, J. J. Heyd, E. Brothers, 
 K. N. Kudin, V. N. Staroverov, T. Keith, R. Kobayashi, J. Normand, 
 K. Raghavachari, A. Rendell, J. C. Burant, S. S. Iyengar, J. Tomasi, 
 M. Cossi, N. Rega, J. M. Millam, M. Klene, J. E. Knox, J. B. Cross, 
 V. Bakken, C. Adamo, J. Jaramillo, R. Gomperts, R. E. Stratmann, 
 O. Yazyev, A. J. Austin, R. Cammi, C. Pomelli, J. W. Ochterski, 
 R. L. Martin, K. Morokuma, V. G. Zakrzewski, G. A. Voth, 
 P. Salvador, J. J. Dannenberg, S. Dapprich, A. D. Daniels, 
 O. Farkas, J. B. Foresman, J. V. Ortiz, J. Cioslowski, 
 and D. J. Fox, Gaussian, Inc., Wallingford CT, 2013.
 
 ******************************************
 Gaussian 09:  ES64L-G09RevD.01 24-Apr-2013
                26-Aug-2020 
 ******************************************
 %chk=/home/boittier/MDCM/nms_sampling/methanol_geom.xyz.dir/methanol_3587.chk
 %nproc=8
 Will use up to    8 processors via shared memory.
 %mem=16000MB
 --------------------
 #p B2PLYPD3/Def2QZVP
 --------------------
 1/38=1/1;
 2/12=2,17=6,18=5,40=1/2;
 3/5=45,7=101,11=9,16=1,25=1,30=1,74=-60/1,2,3;
 4//1;
 5/5=2,38=5/2;
 8/10=1/1;
 9/16=-3/6;
 6/7=2,8=2,9=2,10=2/1;
 99/5=1,9=1/99;
 Leave Link    1 at Wed Aug 26 23:56:09 2020, MaxMem=  2097152000 cpu:        16.8
 (Enter /opt/cluster/programs/g09/g09_d.01/g09/l101.exe)
 --------
 methanol
 --------
 Symbolic Z-matrix:
 Charge =  0 Multiplicity = 1
 C                    -5.17004  -1.2455    0.90904 
 O                    -3.76374  -1.12143   0.88815 
 H                    -5.48843  -2.21692   0.54497 
 H                    -5.80198  -0.61168   0.40306 
 H                    -5.53516  -1.13412   1.83177 
 H                    -3.48916  -1.23223  -0.35936 
 
 NAtoms=      6 NQM=        6 NQMF=       0 NMMI=      0 NMMIF=      0
                NMic=       0 NMicF=      0.
                    Isotopes and Nuclear Properties:
 (Nuclear quadrupole moments (NQMom) in fm**2, nuclear magnetic moments (NMagM)
  in nuclear magnetons)

  Atom         1           2           3           4           5           6
 IAtWgt=          12          16           1           1           1           1
 AtmWgt=  12.0000000  15.9949146   1.0078250   1.0078250   1.0078250   1.0078250
 NucSpn=           0           0           1           1           1           1
 AtZEff=   0.0000000   0.0000000   0.0000000   0.0000000   0.0000000   0.0000000
 NQMom=    0.0000000   0.0000000   0.0000000   0.0000000   0.0000000   0.0000000
 NMagM=    0.0000000   0.0000000   2.7928460   2.7928460   2.7928460   2.7928460
 AtZNuc=   6.0000000   8.0000000   1.0000000   1.0000000   1.0000000   1.0000000
 Leave Link  101 at Wed Aug 26 23:56:10 2020, MaxMem=  2097152000 cpu:         0.5
 (Enter /opt/cluster/programs/g09/g09_d.01/g09/l202.exe)
                          Input orientation:                          
 ---------------------------------------------------------------------
 Center     Atomic      Atomic             Coordinates (Angstroms)
 Number     Number       Type             X           Y           Z
 ---------------------------------------------------------------------
      1          6           0       -5.170038   -1.245501    0.909041
      2          8           0       -3.763737   -1.121430    0.888147
      3          1           0       -5.488434   -2.216917    0.544969
      4          1           0       -5.801977   -0.611681    0.403057
      5          1           0       -5.535163   -1.134117    1.831770
      6          1           0       -3.489156   -1.232227   -0.359358
 ---------------------------------------------------------------------
                    Distance matrix (angstroms):
                    1          2          3          4          5
     1  C    0.000000
     2  O    1.411918   0.000000
     3  H    1.085161   2.071821   0.000000
     4  H    1.028151   2.156288   1.641716   0.000000
     5  H    0.998575   2.007121   1.682408   1.544458   0.000000
     6  H    2.105796   1.282162   2.405106   2.513065   2.999469
                    6
     6  H    0.000000
 Stoichiometry    CH4O
 Framework group  C1[X(CH4O)]
 Deg. of freedom    12
 Full point group                 C1      NOp   1
 Largest Abelian subgroup         C1      NOp   1
 Largest concise Abelian subgroup C1      NOp   1
                         Standard orientation:                         
 ---------------------------------------------------------------------
 Center     Atomic      Atomic             Coordinates (Angstroms)
 Number     Number       Type             X           Y           Z
 ---------------------------------------------------------------------
      1          6           0        0.651076    0.016667   -0.006585
      2          8           0       -0.748635   -0.167924    0.009114
      3          1           0        0.981327    0.621166    0.831920
      4          1           0        1.156588    0.447881   -0.791191
      5          1           0        1.137206   -0.854402    0.038889
      6          1           0       -1.192494    1.028743   -0.113023
 ---------------------------------------------------------------------
 Rotational constants (GHZ):    123.7141945     24.8006511     23.2099291
 Leave Link  202 at Wed Aug 26 23:56:10 2020, MaxMem=  2097152000 cpu:         0.0
 (Enter /opt/cluster/programs/g09/g09_d.01/g09/l301.exe)
 Standard basis: def2QZVP (5D, 7F)
 Ernie: Thresh=  0.10000D-02 Tol=  0.10000D-05 Strict=F.
 There are   284 symmetry adapted cartesian basis functions of A   symmetry.
 There are   234 symmetry adapted basis functions of A   symmetry.
   234 basis functions,   336 primitive gaussians,   284 cartesian basis functions
     9 alpha electrons        9 beta electrons
       nuclear repulsion energy        39.6955752139 Hartrees.
 IExCor=  419 DFT=T Ex+Corr=B2PLYPD3 ExCW=0 ScaHFX=  0.530000
 ScaDFX=  0.470000  0.470000  0.730000  0.730000 ScalE2=  0.270000  0.270000
 IRadAn=      0 IRanWt=     -1 IRanGd=            0 ICorTp=0 IEmpDi=141
 NAtoms=    6 NActive=    6 NUniq=    6 SFac= 1.00D+00 NAtFMM=   60 NAOKFM=F Big=F
 Integral buffers will be    131072 words long.
 Regular integral format.
 Two-electron integral symmetry is turned on.
 R6Disp:  Grimme-D3(BJ) Dispersion energy=       -0.0014218894 Hartrees.
 Nuclear repulsion after empirical dispersion term =       39.6941533245 Hartrees.
 Leave Link  301 at Wed Aug 26 23:56:19 2020, MaxMem=  2097152000 cpu:         0.4
 (Enter /opt/cluster/programs/g09/g09_d.01/g09/l302.exe)
 NPDir=0 NMtPBC=     1 NCelOv=     1 NCel=       1 NClECP=     1 NCelD=      1
         NCelK=      1 NCelE2=     1 NClLst=     1 CellRange=     0.0.
 One-electron integrals computed using PRISM.
   1 Symmetry operations used in ECPInt.
 ECPInt:  NShTT=    2775 NPrTT=    6207 LenC2=    2774 LenP2D=    5736.
 LDataN:  DoStor=T MaxTD1= 8 Len=  415
 NBasis=   234 RedAO= T EigKep=  9.18D-05  NBF=   234
 NBsUse=   234 1.00D-06 EigRej= -1.00D+00 NBFU=   234
 Precomputing XC quadrature grid using
 IXCGrd= 4 IRadAn=           0 IRanWt=          -1 IRanGd=           0 AccXCQ= 0.00D+00.
 Generated NRdTot=       0 NPtTot=           0 NUsed=           0 NTot=          32
 NSgBfM=   284   284   284   284   284 MxSgAt=     6 MxSgA2=     6.
 Leave Link  302 at Wed Aug 26 23:56:21 2020, MaxMem=  2097152000 cpu:         1.7
 (Enter /opt/cluster/programs/g09/g09_d.01/g09/l303.exe)
 DipDrv:  MaxL=1.
 Leave Link  303 at Wed Aug 26 23:56:22 2020, MaxMem=  2097152000 cpu:         0.2
 (Enter /opt/cluster/programs/g09/g09_d.01/g09/l401.exe)
 ExpMin= 7.60D-02 ExpMax= 1.17D+05 ExpMxC= 1.13D+03 IAcc=2 IRadAn=         4 AccDes= 0.00D+00
 Harris functional with IExCor=  419 and IRadAn=       4 diagonalized for initial guess.
 HarFok:  IExCor=  419 AccDes= 0.00D+00 IRadAn=         4 IDoV= 1 UseB2=F ITyADJ=14
 ICtDFT=  3500011 ScaDFX=  1.000000  1.000000  1.000000  1.000000
 FoFCou: FMM=F IPFlag=           0 FMFlag=      100000 FMFlg1=           0
         NFxFlg=           0 DoJE=T BraDBF=F KetDBF=T FulRan=T
         wScrn=  0.000000 ICntrl=     500 IOpCl=  0 I1Cent=   200000004 NGrid=           0
         NMat0=    1 NMatS0=      1 NMatT0=    0 NMatD0=    1 NMtDS0=    0 NMtDT0=    0
 Petite list used in FoFCou.
 Harris En= -115.775456686226    
 JPrj=0 DoOrth=F DoCkMO=F.
 Leave Link  401 at Wed Aug 26 23:56:22 2020, MaxMem=  2097152000 cpu:         3.1
 (Enter /opt/cluster/programs/g09/g09_d.01/g09/l502.exe)
 Closed shell SCF:
 Using DIIS extrapolation, IDIIS=  1040.
 Integral symmetry usage will be decided dynamically.
 Keep R1 ints in memory in canonical form, NReq=389840494.
 IVT=      264814 IEndB=      264814 NGot=  2097152000 MDV=  1718885927
 LenX=  1718885927 LenY=  1718804830
 Requested convergence on RMS density matrix=1.00D-08 within 128 cycles.
 Requested convergence on MAX density matrix=1.00D-06.
 Requested convergence on             energy=1.00D-06.
 No special actions if energy rises.
 FoFCou: FMM=F IPFlag=           0 FMFlag=           0 FMFlg1=           0
         NFxFlg=           0 DoJE=F BraDBF=F KetDBF=F FulRan=T
         wScrn=  0.000000 ICntrl=     600 IOpCl=  0 I1Cent=           0 NGrid=           0
         NMat0=    1 NMatS0=  27495 NMatT0=    0 NMatD0=    1 NMtDS0=    0 NMtDT0=    0
 Symmetry not used in FoFCou.
 Integral accuracy reduced to 1.0D-05 until final iterations.

 Cycle   1  Pass 0  IDiag  1:
 E= -115.360026301753    
 DIIS: error= 3.48D-02 at cycle   1 NSaved=   1.
 NSaved= 1 IEnMin= 1 EnMin= -115.360026301753     IErMin= 1 ErrMin= 3.48D-02
 ErrMax= 3.48D-02  0.00D+00 EMaxC= 1.00D-01 BMatC= 1.85D-01 BMatP= 1.85D-01
 IDIUse=3 WtCom= 6.52D-01 WtEn= 3.48D-01
 Coeff-Com:  0.100D+01
 Coeff-En:   0.100D+01
 Coeff:      0.100D+01
 Gap=     0.243 Goal=   None    Shift=    0.000
 GapD=    0.243 DampG=1.000 DampE=0.500 DampFc=0.5000 IDamp=-1.
 Damping current iteration by 5.00D-01
 RMSDP=1.51D-03 MaxDP=5.19D-02              OVMax= 1.81D-01

 Cycle   2  Pass 0  IDiag  1:
 E= -115.415619628111     Delta-E=       -0.055593326358 Rises=F Damp=T
 DIIS: error= 8.81D-03 at cycle   2 NSaved=   2.
 NSaved= 2 IEnMin= 2 EnMin= -115.415619628111     IErMin= 2 ErrMin= 8.81D-03
 ErrMax= 8.81D-03  0.00D+00 EMaxC= 1.00D-01 BMatC= 2.18D-02 BMatP= 1.85D-01
 IDIUse=3 WtCom= 9.12D-01 WtEn= 8.81D-02
 Coeff-Com: -0.739D-01 0.107D+01
 Coeff-En:   0.000D+00 0.100D+01
 Coeff:     -0.674D-01 0.107D+01
 Gap=     0.371 Goal=   None    Shift=    0.000
 RMSDP=4.25D-04 MaxDP=1.26D-02 DE=-5.56D-02 OVMax= 1.16D-01

 Cycle   3  Pass 0  IDiag  1:
 E= -115.472609277416     Delta-E=       -0.056989649305 Rises=F Damp=F
 DIIS: error= 5.21D-03 at cycle   3 NSaved=   3.
 NSaved= 3 IEnMin= 3 EnMin= -115.472609277416     IErMin= 3 ErrMin= 5.21D-03
 ErrMax= 5.21D-03  0.00D+00 EMaxC= 1.00D-01 BMatC= 1.01D-02 BMatP= 2.18D-02
 IDIUse=3 WtCom= 9.48D-01 WtEn= 5.21D-02
 Coeff-Com: -0.143D+00 0.451D+00 0.692D+00
 Coeff-En:   0.000D+00 0.000D+00 0.100D+01
 Coeff:     -0.136D+00 0.428D+00 0.708D+00
 Gap=     0.360 Goal=   None    Shift=    0.000
 RMSDP=1.93D-04 MaxDP=8.30D-03 DE=-5.70D-02 OVMax= 2.99D-02

 Cycle   4  Pass 0  IDiag  1:
 E= -115.478860540627     Delta-E=       -0.006251263211 Rises=F Damp=F
 DIIS: error= 2.38D-03 at cycle   4 NSaved=   4.
 NSaved= 4 IEnMin= 4 EnMin= -115.478860540627     IErMin= 4 ErrMin= 2.38D-03
 ErrMax= 2.38D-03  0.00D+00 EMaxC= 1.00D-01 BMatC= 1.18D-03 BMatP= 1.01D-02
 IDIUse=3 WtCom= 9.76D-01 WtEn= 2.38D-02
 Coeff-Com: -0.523D-01 0.942D-01 0.319D+00 0.639D+00
 Coeff-En:   0.000D+00 0.000D+00 0.124D-01 0.988D+00
 Coeff:     -0.510D-01 0.920D-01 0.312D+00 0.647D+00
 Gap=     0.356 Goal=   None    Shift=    0.000
 RMSDP=5.66D-05 MaxDP=2.18D-03 DE=-6.25D-03 OVMax= 8.17D-03

 Cycle   5  Pass 0  IDiag  1:
 E= -115.479727873235     Delta-E=       -0.000867332608 Rises=F Damp=F
 DIIS: error= 2.23D-04 at cycle   5 NSaved=   5.
 NSaved= 5 IEnMin= 5 EnMin= -115.479727873235     IErMin= 5 ErrMin= 2.23D-04
 ErrMax= 2.23D-04  0.00D+00 EMaxC= 1.00D-01 BMatC= 9.92D-06 BMatP= 1.18D-03
 IDIUse=3 WtCom= 9.98D-01 WtEn= 2.23D-03
 Coeff-Com: -0.531D-02 0.333D-02 0.407D-01 0.136D+00 0.826D+00
 Coeff-En:   0.000D+00 0.000D+00 0.000D+00 0.000D+00 0.100D+01
 Coeff:     -0.530D-02 0.333D-02 0.406D-01 0.135D+00 0.826D+00
 Gap=     0.356 Goal=   None    Shift=    0.000
 RMSDP=9.06D-06 MaxDP=2.54D-04 DE=-8.67D-04 OVMax= 8.23D-04

 Initial convergence to 1.0D-05 achieved.  Increase integral accuracy.
 Cycle   6  Pass 1  IDiag  1:
 E= -115.479734573609     Delta-E=       -0.000006700374 Rises=F Damp=F
 DIIS: error= 3.16D-05 at cycle   1 NSaved=   1.
 NSaved= 1 IEnMin= 1 EnMin= -115.479734573609     IErMin= 1 ErrMin= 3.16D-05
 ErrMax= 3.16D-05  0.00D+00 EMaxC= 1.00D-01 BMatC= 2.69D-07 BMatP= 2.69D-07
 IDIUse=1 WtCom= 1.00D+00 WtEn= 0.00D+00
 Coeff-Com:  0.100D+01
 Coeff:      0.100D+01
 Gap=     0.357 Goal=   None    Shift=    0.000
 RMSDP=9.06D-06 MaxDP=2.54D-04 DE=-6.70D-06 OVMax= 2.93D-04

 Cycle   7  Pass 1  IDiag  1:
 E= -115.479735015541     Delta-E=       -0.000000441932 Rises=F Damp=F
 DIIS: error= 1.66D-05 at cycle   2 NSaved=   2.
 NSaved= 2 IEnMin= 2 EnMin= -115.479735015541     IErMin= 2 ErrMin= 1.66D-05
 ErrMax= 1.66D-05  0.00D+00 EMaxC= 1.00D-01 BMatC= 8.36D-08 BMatP= 2.69D-07
 IDIUse=1 WtCom= 1.00D+00 WtEn= 0.00D+00
 Coeff-Com:  0.256D+00 0.744D+00
 Coeff:      0.256D+00 0.744D+00
 Gap=     0.357 Goal=   None    Shift=    0.000
 RMSDP=8.78D-07 MaxDP=4.64D-05 DE=-4.42D-07 OVMax= 1.81D-04

 Cycle   8  Pass 1  IDiag  1:
 E= -115.479735073858     Delta-E=       -0.000000058317 Rises=F Damp=F
 DIIS: error= 1.41D-05 at cycle   3 NSaved=   3.
 NSaved= 3 IEnMin= 3 EnMin= -115.479735073858     IErMin= 3 ErrMin= 1.41D-05
 ErrMax= 1.41D-05  0.00D+00 EMaxC= 1.00D-01 BMatC= 4.78D-08 BMatP= 8.36D-08
 IDIUse=1 WtCom= 1.00D+00 WtEn= 0.00D+00
 Coeff-Com: -0.154D+00 0.427D+00 0.727D+00
 Coeff:     -0.154D+00 0.427D+00 0.727D+00
 Gap=     0.357 Goal=   None    Shift=    0.000
 RMSDP=6.28D-07 MaxDP=2.67D-05 DE=-5.83D-08 OVMax= 7.56D-05

 Cycle   9  Pass 1  IDiag  1:
 E= -115.479735113474     Delta-E=       -0.000000039617 Rises=F Damp=F
 DIIS: error= 1.79D-06 at cycle   4 NSaved=   4.
 NSaved= 4 IEnMin= 4 EnMin= -115.479735113474     IErMin= 4 ErrMin= 1.79D-06
 ErrMax= 1.79D-06  0.00D+00 EMaxC= 1.00D-01 BMatC= 5.06D-10 BMatP= 4.78D-08
 IDIUse=1 WtCom= 1.00D+00 WtEn= 0.00D+00
 Coeff-Com: -0.494D-01 0.496D-01 0.135D+00 0.865D+00
 Coeff:     -0.494D-01 0.496D-01 0.135D+00 0.865D+00
 Gap=     0.357 Goal=   None    Shift=    0.000
 RMSDP=9.90D-08 MaxDP=2.87D-06 DE=-3.96D-08 OVMax= 1.52D-05

 Cycle  10  Pass 1  IDiag  1:
 E= -115.479735114178     Delta-E=       -0.000000000704 Rises=F Damp=F
 DIIS: error= 5.50D-07 at cycle   5 NSaved=   5.
 NSaved= 5 IEnMin= 5 EnMin= -115.479735114178     IErMin= 5 ErrMin= 5.50D-07
 ErrMax= 5.50D-07  0.00D+00 EMaxC= 1.00D-01 BMatC= 4.12D-11 BMatP= 5.06D-10
 IDIUse=1 WtCom= 1.00D+00 WtEn= 0.00D+00
 Coeff-Com: -0.501D-02-0.409D-02-0.208D-02 0.204D+00 0.807D+00
 Coeff:     -0.501D-02-0.409D-02-0.208D-02 0.204D+00 0.807D+00
 Gap=     0.357 Goal=   None    Shift=    0.000
 RMSDP=2.30D-08 MaxDP=7.19D-07 DE=-7.04D-10 OVMax= 3.48D-06

 Cycle  11  Pass 1  IDiag  1:
 E= -115.479735114224     Delta-E=       -0.000000000045 Rises=F Damp=F
 DIIS: error= 2.53D-07 at cycle   6 NSaved=   6.
 NSaved= 6 IEnMin= 6 EnMin= -115.479735114224     IErMin= 6 ErrMin= 2.53D-07
 ErrMax= 2.53D-07  0.00D+00 EMaxC= 1.00D-01 BMatC= 5.31D-12 BMatP= 4.12D-11
 IDIUse=1 WtCom= 1.00D+00 WtEn= 0.00D+00
 Coeff-Com:  0.381D-02-0.681D-02-0.180D-01-0.253D-01 0.239D+00 0.807D+00
 Coeff:      0.381D-02-0.681D-02-0.180D-01-0.253D-01 0.239D+00 0.807D+00
 Gap=     0.357 Goal=   None    Shift=    0.000
 RMSDP=7.77D-09 MaxDP=2.52D-07 DE=-4.55D-11 OVMax= 1.02D-06

 SCF Done:  E(RB2PLYPD3) =  -115.479735114     A.U. after   11 cycles
            NFock= 11  Conv=0.78D-08     -V/T= 2.0033
 KE= 1.150990669821D+02 PE=-3.508717376300D+02 EE= 8.059878220917D+01
 Leave Link  502 at Wed Aug 26 23:56:38 2020, MaxMem=  2097152000 cpu:        72.6
 (Enter /opt/cluster/programs/g09/g09_d.01/g09/l801.exe)
 DoSCS=T DFT=T ScalE2(SS,OS)=  0.270000  0.270000
 ExpMin= 7.60D-02 ExpMax= 1.17D+05 ExpMxC= 1.13D+03 IAcc=3 IRadAn=         5 AccDes= 0.00D+00
 HarFok:  IExCor=  205 AccDes= 0.00D+00 IRadAn=         5 IDoV=-2 UseB2=F ITyADJ=14
 ICtDFT= 12500011 ScaDFX=  1.000000  1.000000  1.000000  1.000000
 Largest valence mixing into a core orbital is  1.08D-04
 Largest core mixing into a valence orbital is  1.39D-05
 Range of M.O.s used for correlation:     3   234
 NBasis=   234 NAE=     9 NBE=     9 NFC=     2 NFV=     0
 NROrb=    232 NOA=     7 NOB=     7 NVA=   225 NVB=   225

 **** Warning!!: The largest alpha MO coefficient is  0.27121878D+02

 Leave Link  801 at Wed Aug 26 23:56:39 2020, MaxMem=  2097152000 cpu:         0.6
 (Enter /opt/cluster/programs/g09/g09_d.01/g09/l906.exe)
 DoSCS=T DFT=T ScalE2(SS,OS)=  0.270000  0.270000
 FulOut=F Deriv=F AODrv=F NAtomX=     6
   MMem=        3646  MDisk=           7 MDiskD=           7
  W3Min=      447300 MinDsk=     1090093 NBas6D=         284
 NBas2D=       41310    NTT=       40470    LW2=     4508827
    MDV=  2096872786 MDiskM=       16391 NBas2p=       41304
 Fully in-core method, ICMem=  1722292712.
 IMap=   1   2   3   4   5   6   7
 JobTyp=1 Pass  1 fully in-core, NPsUse=  8.
 Compute canonical integrals.
 FoFCou: FMM=F IPFlag=           0 FMFlag=           0 FMFlg1=           0
         NFxFlg=           0 DoJE=F BraDBF=F KetDBF=F FulRan=T
         wScrn=  0.000000 ICntrl=     600 IOpCl=  1 I1Cent=           0 NGrid=           0
         NMat0=    1 NMatS0=  41310 NMatT0=    0 NMatD0=    1 NMtDS0=    0 NMtDT0=    0
 Symmetry not used in FoFCou.
 Spin components of T(2) and E(2):
     alpha-alpha T2 =       0.2345799566D-01 E2=     -0.1744280533D-01
     alpha-beta  T2 =       0.1515070102D+00 E2=     -0.1185857402D+00
     beta-beta   T2 =       0.2345799566D-01 E2=     -0.1744280533D-01
 The integrals were generated   1 times.
 E2(B2PLYPD3) =    -0.1534713509D+00 E(B2PLYPD3) =    -0.11563320646509D+03
 Leave Link  906 at Wed Aug 26 23:56:54 2020, MaxMem=  2097152000 cpu:       117.5
 (Enter /opt/cluster/programs/g09/g09_d.01/g09/l601.exe)
 Copying SCF densities to generalized density rwf, IOpCl= 0 IROHF=0.

 **********************************************************************

            Population analysis using the SCF density.

 **********************************************************************

 Orbital symmetries:
       Occupied  (A) (A) (A) (A) (A) (A) (A) (A) (A)
       Virtual   (A) (A) (A) (A) (A) (A) (A) (A) (A) (A) (A) (A)
                 (A) (A) (A) (A) (A) (A) (A) (A) (A) (A) (A) (A)
                 (A) (A) (A) (A) (A) (A) (A) (A) (A) (A) (A) (A)
                 (A) (A) (A) (A) (A) (A) (A) (A) (A) (A) (A) (A)
                 (A) (A) (A) (A) (A) (A) (A) (A) (A) (A) (A) (A)
                 (A) (A) (A) (A) (A) (A) (A) (A) (A) (A) (A) (A)
                 (A) (A) (A) (A) (A) (A) (A) (A) (A) (A) (A) (A)
                 (A) (A) (A) (A) (A) (A) (A) (A) (A) (A) (A) (A)
                 (A) (A) (A) (A) (A) (A) (A) (A) (A) (A) (A) (A)
                 (A) (A) (A) (A) (A) (A) (A) (A) (A) (A) (A) (A)
                 (A) (A) (A) (A) (A) (A) (A) (A) (A) (A) (A) (A)
                 (A) (A) (A) (A) (A) (A) (A) (A) (A) (A) (A) (A)
                 (A) (A) (A) (A) (A) (A) (A) (A) (A) (A) (A) (A)
                 (A) (A) (A) (A) (A) (A) (A) (A) (A) (A) (A) (A)
                 (A) (A) (A) (A) (A) (A) (A) (A) (A) (A) (A) (A)
                 (A) (A) (A) (A) (A) (A) (A) (A) (A) (A) (A) (A)
                 (A) (A) (A) (A) (A) (A) (A) (A) (A) (A) (A) (A)
                 (A) (A) (A) (A) (A) (A) (A) (A) (A) (A) (A) (A)
                 (A) (A) (A) (A) (A) (A) (A) (A) (A)
 The electronic state is 1-A.
 Alpha  occ. eigenvalues --  -19.75301 -10.63433  -1.12768  -0.79230  -0.55216
 Alpha  occ. eigenvalues --   -0.51815  -0.49425  -0.40282  -0.34930
 Alpha virt. eigenvalues --    0.00734   0.07344   0.12761   0.12778   0.14884
 Alpha virt. eigenvalues --    0.17838   0.18651   0.24098   0.29617   0.32853
 Alpha virt. eigenvalues --    0.34976   0.38563   0.39204   0.41806   0.43833
 Alpha virt. eigenvalues --    0.47402   0.51868   0.54206   0.57838   0.65618
 Alpha virt. eigenvalues --    0.72504   0.75374   0.76646   0.78215   0.81060
 Alpha virt. eigenvalues --    0.81951   0.84042   0.87672   0.88994   0.93608
 Alpha virt. eigenvalues --    0.94949   0.99108   1.01192   1.06007   1.12071
 Alpha virt. eigenvalues --    1.13888   1.16761   1.22173   1.32274   1.37633
 Alpha virt. eigenvalues --    1.41846   1.46891   1.50356   1.55689   1.59666
 Alpha virt. eigenvalues --    1.73473   1.75434   1.80504   1.83792   1.84554
 Alpha virt. eigenvalues --    1.86245   1.93990   1.95454   1.96959   2.05218
 Alpha virt. eigenvalues --    2.07340   2.11224   2.15882   2.16467   2.22029
 Alpha virt. eigenvalues --    2.24098   2.27594   2.29076   2.31810   2.33523
 Alpha virt. eigenvalues --    2.39726   2.48126   2.49651   2.52303   2.55198
 Alpha virt. eigenvalues --    2.60782   2.64451   2.67357   2.67618   2.73757
 Alpha virt. eigenvalues --    2.75724   2.87892   2.90629   2.93714   3.00760
 Alpha virt. eigenvalues --    3.08795   3.10828   3.18366   3.19455   3.25522
 Alpha virt. eigenvalues --    3.32578   3.35890   3.38047   3.42730   3.49350
 Alpha virt. eigenvalues --    3.61848   3.74274   3.76888   3.81878   3.85529
 Alpha virt. eigenvalues --    3.91622   4.01625   4.04826   4.13454   4.15599
 Alpha virt. eigenvalues --    4.22402   4.27334   4.30173   4.31754   4.37404
 Alpha virt. eigenvalues --    4.39868   4.53089   4.64488   4.72437   5.05023
 Alpha virt. eigenvalues --    5.16671   5.29280   5.49370   5.51537   5.57325
 Alpha virt. eigenvalues --    5.59724   5.69727   5.75648   5.77723   5.82654
 Alpha virt. eigenvalues --    5.90197   5.93870   5.99572   6.09297   6.13679
 Alpha virt. eigenvalues --    6.15085   6.18188   6.24575   6.26141   6.30752
 Alpha virt. eigenvalues --    6.35847   6.39921   6.46913   6.48613   6.52604
 Alpha virt. eigenvalues --    6.58519   6.59592   6.67596   6.70452   6.71919
 Alpha virt. eigenvalues --    6.74851   6.80743   6.85943   6.90255   6.97297
 Alpha virt. eigenvalues --    6.99189   7.12907   7.27363   7.31405   7.57566
 Alpha virt. eigenvalues --    7.60419   7.64286   7.67509   7.67930   7.70169
 Alpha virt. eigenvalues --    7.71955   7.74005   7.78359   7.80878   7.89632
 Alpha virt. eigenvalues --    7.96128   7.97735   8.06330   8.09851   8.13143
 Alpha virt. eigenvalues --    8.22074   8.25886   8.35748   8.38112   8.39962
 Alpha virt. eigenvalues --    8.46786   8.48551   8.49996   8.53635   8.56845
 Alpha virt. eigenvalues --    8.57572   8.63845   8.69840   8.71941   8.84449
 Alpha virt. eigenvalues --    8.89895   9.00212   9.09099   9.17334   9.22923
 Alpha virt. eigenvalues --    9.33296   9.39377   9.47319   9.53486   9.64912
 Alpha virt. eigenvalues --    9.80052   9.91922   9.98157  10.13989  10.21539
 Alpha virt. eigenvalues --   10.33688  10.35778  10.47663  10.52293  10.69246
 Alpha virt. eigenvalues --   10.77626  10.90468  10.97468  11.01310  11.08943
 Alpha virt. eigenvalues --   11.39591  11.61024  11.65229  11.79207  11.81466
 Alpha virt. eigenvalues --   11.98819  12.18760  12.21804  12.50563  12.64150
 Alpha virt. eigenvalues --   12.75581  12.84808  13.21729  13.49161  13.86584
 Alpha virt. eigenvalues --   14.53306  29.47626  48.45505 149.13941 254.17475
          Condensed to atoms (all electrons):
               1          2          3          4          5          6
     1  C    4.404077   0.276794   0.455432   0.418271   0.404840  -0.044971
     2  O    0.276794   8.041099  -0.054885  -0.033567  -0.031953   0.279949
     3  H    0.455432  -0.054885   0.685303  -0.070746  -0.041690  -0.008763
     4  H    0.418271  -0.033567  -0.070746   0.714580  -0.054548  -0.012843
     5  H    0.404840  -0.031953  -0.041690  -0.054548   0.649463   0.012446
     6  H   -0.044971   0.279949  -0.008763  -0.012843   0.012446   0.517946
 Mulliken charges:
               1
     1  C    0.085556
     2  O   -0.477437
     3  H    0.035348
     4  H    0.038853
     5  H    0.061443
     6  H    0.256237
 Sum of Mulliken charges =   0.00000
 Mulliken charges with hydrogens summed into heavy atoms:
               1
     1  C    0.221200
     2  O   -0.221200
 Electronic spatial extent (au):  <R**2>=             85.8900
 Charge=              0.0000 electrons
 Dipole moment (field-independent basis, Debye):
    X=              0.9221    Y=              1.6854    Z=             -0.2328  Tot=              1.9352
 Quadrupole moment (field-independent basis, Debye-Ang):
   XX=            -12.8466   YY=            -11.7522   ZZ=            -14.1791
   XY=             -2.5516   XZ=              0.0270   YZ=             -0.1508
 Traceless Quadrupole moment (field-independent basis, Debye-Ang):
   XX=              0.0793   YY=              1.1738   ZZ=             -1.2531
   XY=             -2.5516   XZ=              0.0270   YZ=             -0.1508
 Octapole moment (field-independent basis, Debye-Ang**2):
  XXX=             -2.3496  YYY=              1.2691  ZZZ=             -0.1047  XYY=             -2.4830
  XXY=              2.5721  XXZ=             -0.6185  XZZ=             -0.1243  YZZ=              0.2201
  YYZ=             -0.1653  XYZ=              0.3376
 Hexadecapole moment (field-independent basis, Debye-Ang**3):
 XXXX=            -63.8042 YYYY=            -21.0059 ZZZZ=            -19.8852 XXXY=             -4.1177
 XXXZ=             -0.4231 YYYX=             -3.7286 YYYZ=             -0.3264 ZZZX=             -0.2922
 ZZZY=              0.0384 XXYY=            -12.2911 XXZZ=            -15.0100 YYZZ=             -7.1735
 XXYZ=             -0.4174 YYXZ=              0.2633 ZZXY=              0.0805
 N-N= 3.969415332453D+01 E-N=-3.508717523042D+02  KE= 1.150990669821D+02
 Leave Link  601 at Wed Aug 26 23:56:55 2020, MaxMem=  2097152000 cpu:         0.3
 (Enter /opt/cluster/programs/g09/g09_d.01/g09/l9999.exe)
 1\1\GINC-NODE39\SP\RB2PLYPD3-FC\def2QZVP\C1H4O1\BOITTIER\26-Aug-2020\0
 \\#p B2PLYPD3/Def2QZVP\\methanol\\0,1\C,0,-5.170038,-1.245501,0.909041
 \O,0,-3.763737,-1.12143,0.888147\H,0,-5.488434,-2.216917,0.544969\H,0,
 -5.801977,-0.611681,0.403057\H,0,-5.535163,-1.134117,1.83177\H,0,-3.48
 9156,-1.232227,-0.359358\\Version=ES64L-G09RevD.01\State=1-A\HF=-115.4
 797351\MP2=-115.6332065\RMSD=7.769e-09\PG=C01 [X(C1H4O1)]\\@


 IT'S WHAT YOU LEARN AFTER YOU KNOW IT ALL
 THAT COUNTS.
 Job cpu time:       0 days  0 hours  3 minutes 43.8 seconds.
 File lengths (MBytes):  RWF=     23 Int=      0 D2E=      0 Chk=      4 Scr=      1
 Normal termination of Gaussian 09 at Wed Aug 26 23:57:00 2020.
