 Entering Gaussian System, Link 0=/opt/cluster/programs/g09/g09_d.01/g09//g09
 Input=/home/boittier/MDCM/nms_sampling/cyanomethane_geom.xyz.dir/energies/cyanomethane_412_energy.com
 Output=/scratch/boittier/cyanomethane_412_energy/cyanomethane_412_energy.out
 Initial command:
 /opt/cluster/programs/g09/g09_d.01/g09/l1.exe "/scratch/boittier/cyanomethane_412_energy/Gau-136812.inp" -scrdir="/scratch/boittier/cyanomethane_412_energy/"
 Entering Link 1 = /opt/cluster/programs/g09/g09_d.01/g09/l1.exe PID=    136813.
  
 Copyright (c) 1988,1990,1992,1993,1995,1998,2003,2009,2013,
            Gaussian, Inc.  All Rights Reserved.
  
 This is part of the Gaussian(R) 09 program.  It is based on
 the Gaussian(R) 03 system (copyright 2003, Gaussian, Inc.),
 the Gaussian(R) 98 system (copyright 1998, Gaussian, Inc.),
 the Gaussian(R) 94 system (copyright 1995, Gaussian, Inc.),
 the Gaussian 92(TM) system (copyright 1992, Gaussian, Inc.),
 the Gaussian 90(TM) system (copyright 1990, Gaussian, Inc.),
 the Gaussian 88(TM) system (copyright 1988, Gaussian, Inc.),
 the Gaussian 86(TM) system (copyright 1986, Carnegie Mellon
 University), and the Gaussian 82(TM) system (copyright 1983,
 Carnegie Mellon University). Gaussian is a federally registered
 trademark of Gaussian, Inc.
  
 This software contains proprietary and confidential information,
 including trade secrets, belonging to Gaussian, Inc.
  
 This software is provided under written license and may be
 used, copied, transmitted, or stored only in accord with that
 written license.
  
 The following legend is applicable only to US Government
 contracts under FAR:
  
                    RESTRICTED RIGHTS LEGEND
  
 Use, reproduction and disclosure by the US Government is
 subject to restrictions as set forth in subparagraphs (a)
 and (c) of the Commercial Computer Software - Restricted
 Rights clause in FAR 52.227-19.
  
 Gaussian, Inc.
 340 Quinnipiac St., Bldg. 40, Wallingford CT 06492
  
  
 ---------------------------------------------------------------
 Warning -- This program may not be used in any manner that
 competes with the business of Gaussian, Inc. or will provide
 assistance to any competitor of Gaussian, Inc.  The licensee
 of this program is prohibited from giving any competitor of
 Gaussian, Inc. access to this program.  By using this program,
 the user acknowledges that Gaussian, Inc. is engaged in the
 business of creating and licensing software in the field of
 computational chemistry and represents and warrants to the
 licensee that it is not a competitor of Gaussian, Inc. and that
 it will not use this program in any manner prohibited above.
 ---------------------------------------------------------------
  

 Cite this work as:
 Gaussian 09, Revision D.01,
 M. J. Frisch, G. W. Trucks, H. B. Schlegel, G. E. Scuseria, 
 M. A. Robb, J. R. Cheeseman, G. Scalmani, V. Barone, B. Mennucci, 
 G. A. Petersson, H. Nakatsuji, M. Caricato, X. Li, H. P. Hratchian, 
 A. F. Izmaylov, J. Bloino, G. Zheng, J. L. Sonnenberg, M. Hada, 
 M. Ehara, K. Toyota, R. Fukuda, J. Hasegawa, M. Ishida, T. Nakajima, 
 Y. Honda, O. Kitao, H. Nakai, T. Vreven, J. A. Montgomery, Jr., 
 J. E. Peralta, F. Ogliaro, M. Bearpark, J. J. Heyd, E. Brothers, 
 K. N. Kudin, V. N. Staroverov, T. Keith, R. Kobayashi, J. Normand, 
 K. Raghavachari, A. Rendell, J. C. Burant, S. S. Iyengar, J. Tomasi, 
 M. Cossi, N. Rega, J. M. Millam, M. Klene, J. E. Knox, J. B. Cross, 
 V. Bakken, C. Adamo, J. Jaramillo, R. Gomperts, R. E. Stratmann, 
 O. Yazyev, A. J. Austin, R. Cammi, C. Pomelli, J. W. Ochterski, 
 R. L. Martin, K. Morokuma, V. G. Zakrzewski, G. A. Voth, 
 P. Salvador, J. J. Dannenberg, S. Dapprich, A. D. Daniels, 
 O. Farkas, J. B. Foresman, J. V. Ortiz, J. Cioslowski, 
 and D. J. Fox, Gaussian, Inc., Wallingford CT, 2013.
 
 ******************************************
 Gaussian 09:  ES64L-G09RevD.01 24-Apr-2013
                26-Aug-2020 
 ******************************************
 %chk=/home/boittier/MDCM/nms_sampling/cyanomethane_geom.xyz.dir/cyanomethane_412
 .chk
 %nproc=8
 Will use up to    8 processors via shared memory.
 %mem=16000MB
 --------------------
 #p B2PLYPD3/Def2QZVP
 --------------------
 1/38=1/1;
 2/12=2,17=6,18=5,40=1/2;
 3/5=45,7=101,11=9,16=1,25=1,30=1,74=-60/1,2,3;
 4//1;
 5/5=2,38=5/2;
 8/10=1/1;
 9/16=-3/6;
 6/7=2,8=2,9=2,10=2/1;
 99/5=1,9=1/99;
 Leave Link    1 at Wed Aug 26 23:56:02 2020, MaxMem=  2097152000 cpu:         0.3
 (Enter /opt/cluster/programs/g09/g09_d.01/g09/l101.exe)
 ------------
 cyanomethane
 ------------
 Symbolic Z-matrix:
 Charge =  0 Multiplicity = 1
 C                    -6.60064  -1.11653   1.16497 
 C                    -5.19806  -0.79057   0.92259 
 N                    -4.09105  -0.53672   0.69173 
 H                    -6.70467  -1.22186   2.22282 
 H                    -6.93188  -2.04152   0.66595 
 H                    -7.26653  -0.31443   0.78662 
 
 NAtoms=      6 NQM=        6 NQMF=       0 NMMI=      0 NMMIF=      0
                NMic=       0 NMicF=      0.
                    Isotopes and Nuclear Properties:
 (Nuclear quadrupole moments (NQMom) in fm**2, nuclear magnetic moments (NMagM)
  in nuclear magnetons)

  Atom         1           2           3           4           5           6
 IAtWgt=          12          12          14           1           1           1
 AtmWgt=  12.0000000  12.0000000  14.0030740   1.0078250   1.0078250   1.0078250
 NucSpn=           0           0           2           1           1           1
 AtZEff=   0.0000000   0.0000000   0.0000000   0.0000000   0.0000000   0.0000000
 NQMom=    0.0000000   0.0000000   2.0440000   0.0000000   0.0000000   0.0000000
 NMagM=    0.0000000   0.0000000   0.4037610   2.7928460   2.7928460   2.7928460
 AtZNuc=   6.0000000   6.0000000   7.0000000   1.0000000   1.0000000   1.0000000
 Leave Link  101 at Wed Aug 26 23:56:04 2020, MaxMem=  2097152000 cpu:         0.5
 (Enter /opt/cluster/programs/g09/g09_d.01/g09/l202.exe)
                          Input orientation:                          
 ---------------------------------------------------------------------
 Center     Atomic      Atomic             Coordinates (Angstroms)
 Number     Number       Type             X           Y           Z
 ---------------------------------------------------------------------
      1          6           0       -6.600638   -1.116532    1.164970
      2          6           0       -5.198058   -0.790569    0.922591
      3          7           0       -4.091047   -0.536717    0.691725
      4          1           0       -6.704670   -1.221856    2.222817
      5          1           0       -6.931884   -2.041522    0.665949
      6          1           0       -7.266527   -0.314428    0.786621
 ---------------------------------------------------------------------
                    Distance matrix (angstroms):
                    1          2          3          4          5
     1  C    0.000000
     2  C    1.460216   0.000000
     3  N    2.618815   1.158971   0.000000
     4  H    1.068155   2.036290   3.105589   0.000000
     5  H    1.101977   2.153346   3.214881   1.774068   0.000000
     6  H    1.109021   2.126914   3.184665   1.789348   1.763349
                    6
     6  H    0.000000
 Stoichiometry    C2H3N
 Framework group  C1[X(C2H3N)]
 Deg. of freedom    12
 Full point group                 C1      NOp   1
 Largest Abelian subgroup         C1      NOp   1
 Largest concise Abelian subgroup C1      NOp   1
                         Standard orientation:                         
 ---------------------------------------------------------------------
 Center     Atomic      Atomic             Coordinates (Angstroms)
 Number     Number       Type             X           Y           Z
 ---------------------------------------------------------------------
      1          6           0       -1.179717    0.003180    0.000780
      2          6           0        0.280441    0.013645   -0.006933
      3          7           0        1.439048   -0.011827    0.007012
      4          1           0       -1.487553    0.955586   -0.372203
      5          1           0       -1.615099   -0.162217    0.999499
      6          1           0       -1.575026   -0.811527   -0.639462
 ---------------------------------------------------------------------
 Rotational constants (GHZ):    159.2079750      9.1826658      9.1735243
 Leave Link  202 at Wed Aug 26 23:56:05 2020, MaxMem=  2097152000 cpu:         0.0
 (Enter /opt/cluster/programs/g09/g09_d.01/g09/l301.exe)
 Standard basis: def2QZVP (5D, 7F)
 Ernie: Thresh=  0.10000D-02 Tol=  0.10000D-05 Strict=F.
 There are   321 symmetry adapted cartesian basis functions of A   symmetry.
 There are   261 symmetry adapted basis functions of A   symmetry.
   261 basis functions,   390 primitive gaussians,   321 cartesian basis functions
    11 alpha electrons       11 beta electrons
       nuclear repulsion energy        58.3554201607 Hartrees.
 IExCor=  419 DFT=T Ex+Corr=B2PLYPD3 ExCW=0 ScaHFX=  0.530000
 ScaDFX=  0.470000  0.470000  0.730000  0.730000 ScalE2=  0.270000  0.270000
 IRadAn=      0 IRanWt=     -1 IRanGd=            0 ICorTp=0 IEmpDi=141
 NAtoms=    6 NActive=    6 NUniq=    6 SFac= 1.00D+00 NAtFMM=   60 NAOKFM=F Big=F
 Integral buffers will be    131072 words long.
 Regular integral format.
 Two-electron integral symmetry is turned on.
 R6Disp:  Grimme-D3(BJ) Dispersion energy=       -0.0020989257 Hartrees.
 Nuclear repulsion after empirical dispersion term =       58.3533212350 Hartrees.
 Leave Link  301 at Wed Aug 26 23:56:05 2020, MaxMem=  2097152000 cpu:         0.4
 (Enter /opt/cluster/programs/g09/g09_d.01/g09/l302.exe)
 NPDir=0 NMtPBC=     1 NCelOv=     1 NCel=       1 NClECP=     1 NCelD=      1
         NCelK=      1 NCelE2=     1 NClLst=     1 CellRange=     0.0.
 One-electron integrals computed using PRISM.
   1 Symmetry operations used in ECPInt.
 ECPInt:  NShTT=    3321 NPrTT=    8136 LenC2=    3293 LenP2D=    7124.
 LDataN:  DoStor=T MaxTD1= 8 Len=  415
 NBasis=   261 RedAO= T EigKep=  8.34D-05  NBF=   261
 NBsUse=   261 1.00D-06 EigRej= -1.00D+00 NBFU=   261
 Precomputing XC quadrature grid using
 IXCGrd= 4 IRadAn=           0 IRanWt=          -1 IRanGd=           0 AccXCQ= 0.00D+00.
 Generated NRdTot=       0 NPtTot=           0 NUsed=           0 NTot=          32
 NSgBfM=   321   321   321   321   321 MxSgAt=     6 MxSgA2=     6.
 Leave Link  302 at Wed Aug 26 23:56:07 2020, MaxMem=  2097152000 cpu:         2.2
 (Enter /opt/cluster/programs/g09/g09_d.01/g09/l303.exe)
 DipDrv:  MaxL=1.
 Leave Link  303 at Wed Aug 26 23:56:09 2020, MaxMem=  2097152000 cpu:         0.2
 (Enter /opt/cluster/programs/g09/g09_d.01/g09/l401.exe)
 ExpMin= 7.60D-02 ExpMax= 9.07D+04 ExpMxC= 8.76D+02 IAcc=2 IRadAn=         4 AccDes= 0.00D+00
 Harris functional with IExCor=  419 and IRadAn=       4 diagonalized for initial guess.
 HarFok:  IExCor=  419 AccDes= 0.00D+00 IRadAn=         4 IDoV= 1 UseB2=F ITyADJ=14
 ICtDFT=  3500011 ScaDFX=  1.000000  1.000000  1.000000  1.000000
 FoFCou: FMM=F IPFlag=           0 FMFlag=      100000 FMFlg1=           0
         NFxFlg=           0 DoJE=T BraDBF=F KetDBF=T FulRan=T
         wScrn=  0.000000 ICntrl=     500 IOpCl=  0 I1Cent=   200000004 NGrid=           0
         NMat0=    1 NMatS0=      1 NMatT0=    0 NMatD0=    1 NMtDS0=    0 NMtDT0=    0
 Petite list used in FoFCou.
 Harris En= -132.849270539916    
 JPrj=0 DoOrth=F DoCkMO=F.
 Leave Link  401 at Wed Aug 26 23:56:10 2020, MaxMem=  2097152000 cpu:         4.2
 (Enter /opt/cluster/programs/g09/g09_d.01/g09/l502.exe)
 Closed shell SCF:
 Using DIIS extrapolation, IDIIS=  1040.
 Integral symmetry usage will be decided dynamically.
 Keep R1 ints in memory in canonical form, NReq=601554820.
 IVT=      332521 IEndB=      332521 NGot=  2097152000 MDV=  1512290144
 LenX=  1512290144 LenY=  1512186662
 Requested convergence on RMS density matrix=1.00D-08 within 128 cycles.
 Requested convergence on MAX density matrix=1.00D-06.
 Requested convergence on             energy=1.00D-06.
 No special actions if energy rises.
 FoFCou: FMM=F IPFlag=           0 FMFlag=           0 FMFlg1=           0
         NFxFlg=           0 DoJE=F BraDBF=F KetDBF=F FulRan=T
         wScrn=  0.000000 ICntrl=     600 IOpCl=  0 I1Cent=           0 NGrid=           0
         NMat0=    1 NMatS0=  34191 NMatT0=    0 NMatD0=    1 NMtDS0=    0 NMtDT0=    0
 Symmetry not used in FoFCou.
 Integral accuracy reduced to 1.0D-05 until final iterations.

 Cycle   1  Pass 0  IDiag  1:
 E= -132.421888183577    
 DIIS: error= 2.75D-02 at cycle   1 NSaved=   1.
 NSaved= 1 IEnMin= 1 EnMin= -132.421888183577     IErMin= 1 ErrMin= 2.75D-02
 ErrMax= 2.75D-02  0.00D+00 EMaxC= 1.00D-01 BMatC= 1.87D-01 BMatP= 1.87D-01
 IDIUse=3 WtCom= 7.25D-01 WtEn= 2.75D-01
 Coeff-Com:  0.100D+01
 Coeff-En:   0.100D+01
 Coeff:      0.100D+01
 Gap=     0.454 Goal=   None    Shift=    0.000
 GapD=    0.454 DampG=2.000 DampE=0.500 DampFc=1.0000 IDamp=-1.
 RMSDP=1.28D-03 MaxDP=6.66D-02              OVMax= 1.66D-01

 Cycle   2  Pass 0  IDiag  1:
 E= -132.452390314784     Delta-E=       -0.030502131207 Rises=F Damp=F
 DIIS: error= 3.16D-02 at cycle   2 NSaved=   2.
 NSaved= 2 IEnMin= 2 EnMin= -132.452390314784     IErMin= 1 ErrMin= 2.75D-02
 ErrMax= 3.16D-02  0.00D+00 EMaxC= 1.00D-01 BMatC= 9.57D-02 BMatP= 1.87D-01
 IDIUse=3 WtCom= 6.84D-01 WtEn= 3.16D-01
 Coeff-Com:  0.400D+00 0.600D+00
 Coeff-En:   0.405D+00 0.595D+00
 Coeff:      0.402D+00 0.598D+00
 Gap=     0.436 Goal=   None    Shift=    0.000
 RMSDP=8.48D-04 MaxDP=3.37D-02 DE=-3.05D-02 OVMax= 1.24D-01

 Cycle   3  Pass 0  IDiag  1:
 E= -132.517099291177     Delta-E=       -0.064708976393 Rises=F Damp=F
 DIIS: error= 1.32D-02 at cycle   3 NSaved=   3.
 NSaved= 3 IEnMin= 3 EnMin= -132.517099291177     IErMin= 3 ErrMin= 1.32D-02
 ErrMax= 1.32D-02  0.00D+00 EMaxC= 1.00D-01 BMatC= 2.01D-02 BMatP= 9.57D-02
 IDIUse=3 WtCom= 8.68D-01 WtEn= 1.32D-01
 Coeff-Com:  0.957D-01 0.325D+00 0.580D+00
 Coeff-En:   0.000D+00 0.131D+00 0.869D+00
 Coeff:      0.831D-01 0.299D+00 0.618D+00
 Gap=     0.427 Goal=   None    Shift=    0.000
 RMSDP=2.67D-04 MaxDP=9.68D-03 DE=-6.47D-02 OVMax= 5.89D-02

 Cycle   4  Pass 0  IDiag  1:
 E= -132.531124854996     Delta-E=       -0.014025563819 Rises=F Damp=F
 DIIS: error= 4.60D-03 at cycle   4 NSaved=   4.
 NSaved= 4 IEnMin= 4 EnMin= -132.531124854996     IErMin= 4 ErrMin= 4.60D-03
 ErrMax= 4.60D-03  0.00D+00 EMaxC= 1.00D-01 BMatC= 2.87D-03 BMatP= 2.01D-02
 IDIUse=3 WtCom= 9.54D-01 WtEn= 4.60D-02
 Coeff-Com: -0.125D-01 0.550D-01 0.323D+00 0.634D+00
 Coeff-En:   0.000D+00 0.000D+00 0.131D+00 0.869D+00
 Coeff:     -0.119D-01 0.525D-01 0.314D+00 0.645D+00
 Gap=     0.427 Goal=   None    Shift=    0.000
 RMSDP=8.86D-05 MaxDP=2.77D-03 DE=-1.40D-02 OVMax= 1.51D-02

 Cycle   5  Pass 0  IDiag  1:
 E= -132.533623301975     Delta-E=       -0.002498446979 Rises=F Damp=F
 DIIS: error= 3.10D-04 at cycle   5 NSaved=   5.
 NSaved= 5 IEnMin= 5 EnMin= -132.533623301975     IErMin= 5 ErrMin= 3.10D-04
 ErrMax= 3.10D-04  0.00D+00 EMaxC= 1.00D-01 BMatC= 1.26D-05 BMatP= 2.87D-03
 IDIUse=3 WtCom= 9.97D-01 WtEn= 3.10D-03
 Coeff-Com: -0.353D-02 0.583D-02 0.481D-01 0.141D+00 0.809D+00
 Coeff-En:   0.000D+00 0.000D+00 0.000D+00 0.000D+00 0.100D+01
 Coeff:     -0.352D-02 0.581D-02 0.479D-01 0.141D+00 0.809D+00
 Gap=     0.426 Goal=   None    Shift=    0.000
 RMSDP=8.29D-06 MaxDP=3.11D-04 DE=-2.50D-03 OVMax= 1.19D-03

 Initial convergence to 1.0D-05 achieved.  Increase integral accuracy.
 Cycle   6  Pass 1  IDiag  1:
 E= -132.533638197387     Delta-E=       -0.000014895412 Rises=F Damp=F
 DIIS: error= 8.76D-05 at cycle   1 NSaved=   1.
 NSaved= 1 IEnMin= 1 EnMin= -132.533638197387     IErMin= 1 ErrMin= 8.76D-05
 ErrMax= 8.76D-05  0.00D+00 EMaxC= 1.00D-01 BMatC= 6.56D-07 BMatP= 6.56D-07
 IDIUse=1 WtCom= 1.00D+00 WtEn= 0.00D+00
 Coeff-Com:  0.100D+01
 Coeff:      0.100D+01
 Gap=     0.426 Goal=   None    Shift=    0.000
 RMSDP=8.29D-06 MaxDP=3.11D-04 DE=-1.49D-05 OVMax= 4.15D-04

 Cycle   7  Pass 1  IDiag  1:
 E= -132.533638592314     Delta-E=       -0.000000394927 Rises=F Damp=F
 DIIS: error= 4.17D-05 at cycle   2 NSaved=   2.
 NSaved= 2 IEnMin= 2 EnMin= -132.533638592314     IErMin= 2 ErrMin= 4.17D-05
 ErrMax= 4.17D-05  0.00D+00 EMaxC= 1.00D-01 BMatC= 2.96D-07 BMatP= 6.56D-07
 IDIUse=1 WtCom= 1.00D+00 WtEn= 0.00D+00
 Coeff-Com:  0.394D+00 0.606D+00
 Coeff:      0.394D+00 0.606D+00
 Gap=     0.426 Goal=   None    Shift=    0.000
 RMSDP=1.03D-06 MaxDP=4.08D-05 DE=-3.95D-07 OVMax= 1.79D-04

 Cycle   8  Pass 1  IDiag  1:
 E= -132.533638851272     Delta-E=       -0.000000258958 Rises=F Damp=F
 DIIS: error= 1.48D-05 at cycle   3 NSaved=   3.
 NSaved= 3 IEnMin= 3 EnMin= -132.533638851272     IErMin= 3 ErrMin= 1.48D-05
 ErrMax= 1.48D-05  0.00D+00 EMaxC= 1.00D-01 BMatC= 2.13D-08 BMatP= 2.96D-07
 IDIUse=1 WtCom= 1.00D+00 WtEn= 0.00D+00
 Coeff-Com:  0.106D+00 0.244D+00 0.649D+00
 Coeff:      0.106D+00 0.244D+00 0.649D+00
 Gap=     0.426 Goal=   None    Shift=    0.000
 RMSDP=5.76D-07 MaxDP=2.59D-05 DE=-2.59D-07 OVMax= 6.34D-05

 Cycle   9  Pass 1  IDiag  1:
 E= -132.533638863973     Delta-E=       -0.000000012701 Rises=F Damp=F
 DIIS: error= 1.01D-05 at cycle   4 NSaved=   4.
 NSaved= 4 IEnMin= 4 EnMin= -132.533638863973     IErMin= 4 ErrMin= 1.01D-05
 ErrMax= 1.01D-05  0.00D+00 EMaxC= 1.00D-01 BMatC= 7.44D-09 BMatP= 2.13D-08
 IDIUse=1 WtCom= 1.00D+00 WtEn= 0.00D+00
 Coeff-Com: -0.601D-01-0.355D-01 0.405D+00 0.690D+00
 Coeff:     -0.601D-01-0.355D-01 0.405D+00 0.690D+00
 Gap=     0.426 Goal=   None    Shift=    0.000
 RMSDP=2.88D-07 MaxDP=1.34D-05 DE=-1.27D-08 OVMax= 3.90D-05

 Cycle  10  Pass 1  IDiag  1:
 E= -132.533638871046     Delta-E=       -0.000000007074 Rises=F Damp=F
 DIIS: error= 9.94D-07 at cycle   5 NSaved=   5.
 NSaved= 5 IEnMin= 5 EnMin= -132.533638871046     IErMin= 5 ErrMin= 9.94D-07
 ErrMax= 9.94D-07  0.00D+00 EMaxC= 1.00D-01 BMatC= 1.06D-10 BMatP= 7.44D-09
 IDIUse=1 WtCom= 1.00D+00 WtEn= 0.00D+00
 Coeff-Com: -0.216D-01-0.203D-01 0.817D-01 0.201D+00 0.759D+00
 Coeff:     -0.216D-01-0.203D-01 0.817D-01 0.201D+00 0.759D+00
 Gap=     0.426 Goal=   None    Shift=    0.000
 RMSDP=4.53D-08 MaxDP=2.16D-06 DE=-7.07D-09 OVMax= 3.49D-06

 Cycle  11  Pass 1  IDiag  1:
 E= -132.533638871150     Delta-E=       -0.000000000104 Rises=F Damp=F
 DIIS: error= 2.14D-07 at cycle   6 NSaved=   6.
 NSaved= 6 IEnMin= 6 EnMin= -132.533638871150     IErMin= 6 ErrMin= 2.14D-07
 ErrMax= 2.14D-07  0.00D+00 EMaxC= 1.00D-01 BMatC= 6.78D-12 BMatP= 1.06D-10
 IDIUse=1 WtCom= 1.00D+00 WtEn= 0.00D+00
 Coeff-Com:  0.353D-02 0.109D-02-0.352D-01-0.359D-01 0.114D+00 0.953D+00
 Coeff:      0.353D-02 0.109D-02-0.352D-01-0.359D-01 0.114D+00 0.953D+00
 Gap=     0.426 Goal=   None    Shift=    0.000
 RMSDP=1.17D-08 MaxDP=4.19D-07 DE=-1.04D-10 OVMax= 1.88D-06

 Cycle  12  Pass 1  IDiag  1:
 E= -132.533638871164     Delta-E=       -0.000000000014 Rises=F Damp=F
 DIIS: error= 6.64D-08 at cycle   7 NSaved=   7.
 NSaved= 7 IEnMin= 7 EnMin= -132.533638871164     IErMin= 7 ErrMin= 6.64D-08
 ErrMax= 6.64D-08  0.00D+00 EMaxC= 1.00D-01 BMatC= 3.57D-13 BMatP= 6.78D-12
 IDIUse=1 WtCom= 1.00D+00 WtEn= 0.00D+00
 Coeff-Com:  0.271D-03 0.886D-03 0.486D-02 0.490D-03-0.711D-01-0.266D+00
 Coeff-Com:  0.133D+01
 Coeff:      0.271D-03 0.886D-03 0.486D-02 0.490D-03-0.711D-01-0.266D+00
 Coeff:      0.133D+01
 Gap=     0.426 Goal=   None    Shift=    0.000
 RMSDP=4.08D-09 MaxDP=1.38D-07 DE=-1.38D-11 OVMax= 9.92D-07

 SCF Done:  E(RB2PLYPD3) =  -132.533638871     A.U. after   12 cycles
            NFock= 12  Conv=0.41D-08     -V/T= 2.0040
 KE= 1.320072017331D+02 PE=-4.252764160887D+02 EE= 1.023822542495D+02
 Leave Link  502 at Wed Aug 26 23:56:37 2020, MaxMem=  2097152000 cpu:       133.0
 (Enter /opt/cluster/programs/g09/g09_d.01/g09/l801.exe)
 DoSCS=T DFT=T ScalE2(SS,OS)=  0.270000  0.270000
 ExpMin= 7.60D-02 ExpMax= 9.07D+04 ExpMxC= 8.76D+02 IAcc=3 IRadAn=         5 AccDes= 0.00D+00
 HarFok:  IExCor=  205 AccDes= 0.00D+00 IRadAn=         5 IDoV=-2 UseB2=F ITyADJ=14
 ICtDFT= 12500011 ScaDFX=  1.000000  1.000000  1.000000  1.000000
 Largest valence mixing into a core orbital is  1.17D-04
 Largest core mixing into a valence orbital is  1.96D-05
 Range of M.O.s used for correlation:     4   261
 NBasis=   261 NAE=    11 NBE=    11 NFC=     3 NFV=     0
 NROrb=    258 NOA=     8 NOB=     8 NVA=   250 NVB=   250

 **** Warning!!: The largest alpha MO coefficient is  0.32253491D+02

 Leave Link  801 at Wed Aug 26 23:56:37 2020, MaxMem=  2097152000 cpu:         0.6
 (Enter /opt/cluster/programs/g09/g09_d.01/g09/l906.exe)
 DoSCS=T DFT=T ScalE2(SS,OS)=  0.270000  0.270000
 FulOut=F Deriv=F AODrv=F NAtomX=     6
   MMem=        2666  MDisk=           8 MDiskD=           8
  W3Min=      642000 MinDsk=     1426009 NBas6D=         321
 NBas2D=       52689    NTT=       51681    LW2=     4508827
    MDV=  2096809647 MDiskM=       14501 NBas2p=       52085
 Fully direct method using O(OVN) memory.
 IMap=   1   2   3   4   5   6   7   8
 JobTyp=1 Pass  1:  I=   1 to   8 NPSUse=  8 ParTrn=T ParDer=T DoDerP=F.
 Spin components of T(2) and E(2):
     alpha-alpha T2 =       0.3604406224D-01 E2=     -0.2148740560D-01
     alpha-beta  T2 =       0.2105054194D+00 E2=     -0.1379766051D+00
     beta-beta   T2 =       0.3604406224D-01 E2=     -0.2148740560D-01
 The integrals were generated   1 times.
 E2(B2PLYPD3) =    -0.1809514163D+00 E(B2PLYPD3) =    -0.13271459028751D+03
 Leave Link  906 at Wed Aug 26 23:56:53 2020, MaxMem=  2097152000 cpu:       123.2
 (Enter /opt/cluster/programs/g09/g09_d.01/g09/l601.exe)
 Copying SCF densities to generalized density rwf, IOpCl= 0 IROHF=0.

 **********************************************************************

            Population analysis using the SCF density.

 **********************************************************************

 Orbital symmetries:
       Occupied  (A) (A) (A) (A) (A) (A) (A) (A) (A) (A) (A)
       Virtual   (A) (A) (A) (A) (A) (A) (A) (A) (A) (A) (A) (A)
                 (A) (A) (A) (A) (A) (A) (A) (A) (A) (A) (A) (A)
                 (A) (A) (A) (A) (A) (A) (A) (A) (A) (A) (A) (A)
                 (A) (A) (A) (A) (A) (A) (A) (A) (A) (A) (A) (A)
                 (A) (A) (A) (A) (A) (A) (A) (A) (A) (A) (A) (A)
                 (A) (A) (A) (A) (A) (A) (A) (A) (A) (A) (A) (A)
                 (A) (A) (A) (A) (A) (A) (A) (A) (A) (A) (A) (A)
                 (A) (A) (A) (A) (A) (A) (A) (A) (A) (A) (A) (A)
                 (A) (A) (A) (A) (A) (A) (A) (A) (A) (A) (A) (A)
                 (A) (A) (A) (A) (A) (A) (A) (A) (A) (A) (A) (A)
                 (A) (A) (A) (A) (A) (A) (A) (A) (A) (A) (A) (A)
                 (A) (A) (A) (A) (A) (A) (A) (A) (A) (A) (A) (A)
                 (A) (A) (A) (A) (A) (A) (A) (A) (A) (A) (A) (A)
                 (A) (A) (A) (A) (A) (A) (A) (A) (A) (A) (A) (A)
                 (A) (A) (A) (A) (A) (A) (A) (A) (A) (A) (A) (A)
                 (A) (A) (A) (A) (A) (A) (A) (A) (A) (A) (A) (A)
                 (A) (A) (A) (A) (A) (A) (A) (A) (A) (A) (A) (A)
                 (A) (A) (A) (A) (A) (A) (A) (A) (A) (A) (A) (A)
                 (A) (A) (A) (A) (A) (A) (A) (A) (A) (A) (A) (A)
                 (A) (A) (A) (A) (A) (A) (A) (A) (A) (A) (A) (A)
                 (A) (A) (A) (A) (A) (A) (A) (A) (A) (A)
 The electronic state is 1-A.
 Alpha  occ. eigenvalues --  -14.84358 -10.67275 -10.66446  -1.03956  -0.89115
 Alpha  occ. eigenvalues --   -0.59806  -0.54502  -0.52968  -0.44832  -0.39019
 Alpha  occ. eigenvalues --   -0.38918
 Alpha virt. eigenvalues --    0.03704   0.07390   0.08151   0.10162   0.11289
 Alpha virt. eigenvalues --    0.11543   0.15340   0.16021   0.16774   0.20054
 Alpha virt. eigenvalues --    0.20169   0.25307   0.32585   0.34348   0.34813
 Alpha virt. eigenvalues --    0.38737   0.39616   0.39931   0.40388   0.47191
 Alpha virt. eigenvalues --    0.50089   0.52082   0.58496   0.59716   0.61450
 Alpha virt. eigenvalues --    0.66867   0.68266   0.69238   0.70035   0.79121
 Alpha virt. eigenvalues --    0.79500   0.82094   0.82498   0.83429   0.86535
 Alpha virt. eigenvalues --    0.91300   0.93981   0.94977   0.95961   0.97679
 Alpha virt. eigenvalues --    1.05448   1.07240   1.09007   1.11875   1.13297
 Alpha virt. eigenvalues --    1.13790   1.21946   1.22579   1.23802   1.34888
 Alpha virt. eigenvalues --    1.35557   1.45045   1.46220   1.49588   1.54243
 Alpha virt. eigenvalues --    1.65429   1.66435   1.70203   1.74051   1.78007
 Alpha virt. eigenvalues --    1.78359   1.78764   1.89435   1.90638   1.92007
 Alpha virt. eigenvalues --    1.94668   1.98890   2.00005   2.01012   2.04900
 Alpha virt. eigenvalues --    2.05711   2.11742   2.14952   2.19145   2.20824
 Alpha virt. eigenvalues --    2.22556   2.24447   2.25727   2.34519   2.34841
 Alpha virt. eigenvalues --    2.42685   2.50196   2.51359   2.56475   2.58563
 Alpha virt. eigenvalues --    2.60468   2.66550   2.69657   2.71736   2.72227
 Alpha virt. eigenvalues --    2.76701   2.77359   2.85768   2.88874   2.90604
 Alpha virt. eigenvalues --    2.91966   2.93932   2.95904   2.96943   3.07547
 Alpha virt. eigenvalues --    3.08745   3.12302   3.21164   3.28012   3.32897
 Alpha virt. eigenvalues --    3.33452   3.36670   3.37597   3.39639   3.47643
 Alpha virt. eigenvalues --    3.51669   3.57589   3.71022   3.73703   3.75500
 Alpha virt. eigenvalues --    3.86754   3.90373   3.92397   3.95861   3.97938
 Alpha virt. eigenvalues --    4.00327   4.05073   4.05881   4.25220   4.25693
 Alpha virt. eigenvalues --    4.54821   4.91080   4.91120   5.06992   5.09429
 Alpha virt. eigenvalues --    5.11430   5.14716   5.18193   5.19834   5.23898
 Alpha virt. eigenvalues --    5.31355   5.43945   5.46049   5.47497   5.63898
 Alpha virt. eigenvalues --    5.66708   5.84474   5.85714   5.91131   5.92935
 Alpha virt. eigenvalues --    5.94353   5.97329   5.97791   5.99952   6.01330
 Alpha virt. eigenvalues --    6.03312   6.05392   6.05833   6.07658   6.13281
 Alpha virt. eigenvalues --    6.17566   6.19218   6.21842   6.29852   6.32425
 Alpha virt. eigenvalues --    6.38961   6.41478   6.48378   6.57576   6.58895
 Alpha virt. eigenvalues --    6.60905   6.62463   6.85635   6.89496   6.93210
 Alpha virt. eigenvalues --    6.96274   7.02553   7.02568   7.08988   7.11269
 Alpha virt. eigenvalues --    7.12644   7.16748   7.21543   7.44020   7.47921
 Alpha virt. eigenvalues --    7.49849   7.50804   7.57307   7.58899   7.59730
 Alpha virt. eigenvalues --    7.66003   7.73969   7.75715   7.80173   7.84366
 Alpha virt. eigenvalues --    7.87401   7.93705   7.96360   8.00155   8.22740
 Alpha virt. eigenvalues --    8.27445   8.37015   8.41093   8.42787   8.45226
 Alpha virt. eigenvalues --    8.46591   8.47858   8.50165   8.52945   8.58517
 Alpha virt. eigenvalues --    8.60177   8.63624   8.64831   8.66634   8.66694
 Alpha virt. eigenvalues --    8.70916   8.81610   8.83839   8.90328   9.00688
 Alpha virt. eigenvalues --    9.03027   9.04346   9.12392   9.15381   9.16227
 Alpha virt. eigenvalues --    9.24883   9.25515   9.68818   9.73380   9.79629
 Alpha virt. eigenvalues --    9.80161   9.91051   9.95595   9.98002  10.07431
 Alpha virt. eigenvalues --   10.14176  10.15629  10.15703  10.29925  10.38162
 Alpha virt. eigenvalues --   10.50516  10.62092  11.37365  11.74645  11.82692
 Alpha virt. eigenvalues --   11.97805  12.06765  13.09852  13.47693  29.17734
 Alpha virt. eigenvalues --   29.53327  38.30796 148.83113 149.16000 198.22498
          Condensed to atoms (all electrons):
               1          2          3          4          5          6
     1  C    4.607365   0.300586  -0.059006   0.411707   0.411623   0.411288
     2  C    0.300586   4.843186   0.984264  -0.048985  -0.037723  -0.041430
     3  N   -0.059006   0.984264   6.284912  -0.000300  -0.001047  -0.000977
     4  H    0.411707  -0.048985  -0.000300   0.594397  -0.029758  -0.027785
     5  H    0.411623  -0.037723  -0.001047  -0.029758   0.594161  -0.032332
     6  H    0.411288  -0.041430  -0.000977  -0.027785  -0.032332   0.595729
 Mulliken charges:
               1
     1  C   -0.083564
     2  C    0.000101
     3  N   -0.207846
     4  H    0.100724
     5  H    0.095076
     6  H    0.095508
 Sum of Mulliken charges =   0.00000
 Mulliken charges with hydrogens summed into heavy atoms:
               1
     1  C    0.207744
     2  C    0.000101
     3  N   -0.207846
 Electronic spatial extent (au):  <R**2>=            162.6275
 Charge=              0.0000 electrons
 Dipole moment (field-independent basis, Debye):
    X=             -4.1367    Y=              0.0179    Z=             -0.0092  Tot=              4.1368
 Quadrupole moment (field-independent basis, Debye-Ang):
   XX=            -20.9646   YY=            -17.7239   ZZ=            -17.8582
   XY=              0.1423   XZ=             -0.1013   YZ=             -0.0305
 Traceless Quadrupole moment (field-independent basis, Debye-Ang):
   XX=             -2.1157   YY=              1.1250   ZZ=              0.9907
   XY=              0.1423   XZ=             -0.1013   YZ=             -0.0305
 Octapole moment (field-independent basis, Debye-Ang**2):
  XXX=            -13.0251  YYY=              0.3953  ZZZ=              0.6811  XYY=             -2.2721
  XXY=             -0.3256  XXZ=              0.2772  XZZ=             -2.1982  YZZ=             -0.3371
  YYZ=             -0.7290  XYZ=              0.0133
 Hexadecapole moment (field-independent basis, Debye-Ang**3):
 XXXX=           -183.0126 YYYY=            -24.6566 ZZZZ=            -24.9395 XXXY=              0.8558
 XXXZ=             -0.7431 YYYX=             -0.5580 YYYZ=             -0.0574 ZZZX=             -1.2534
 ZZZY=             -0.0870 XXYY=            -31.3804 XXZZ=            -31.2205 YYZZ=             -8.2441
 XXYZ=              0.0203 YYXZ=              1.2074 ZZXY=              0.6120
 N-N= 5.835332123497D+01 E-N=-4.252764170872D+02  KE= 1.320072017331D+02
 Leave Link  601 at Wed Aug 26 23:56:55 2020, MaxMem=  2097152000 cpu:         0.4
 (Enter /opt/cluster/programs/g09/g09_d.01/g09/l9999.exe)
 1\1\GINC-NODE18\SP\RB2PLYPD3-FC\def2QZVP\C2H3N1\BOITTIER\26-Aug-2020\0
 \\#p B2PLYPD3/Def2QZVP\\cyanomethane\\0,1\C,0,-6.600638,-1.116532,1.16
 497\C,0,-5.198058,-0.790569,0.922591\N,0,-4.091047,-0.536717,0.691725\
 H,0,-6.70467,-1.221856,2.222817\H,0,-6.931884,-2.041522,0.665949\H,0,-
 7.266527,-0.314428,0.786621\\Version=ES64L-G09RevD.01\State=1-A\HF=-13
 2.5336389\MP2=-132.7145903\RMSD=4.077e-09\PG=C01 [X(C2H3N1)]\\@


 BRING ME INTO THE COMPANY OF THOSE WHO SEEK TRUTH,
 AND DELIVER ME FROM THOSE WHO HAVE FOUND IT.
 Job cpu time:       0 days  0 hours  4 minutes 30.6 seconds.
 File lengths (MBytes):  RWF=     28 Int=      0 D2E=      0 Chk=      5 Scr=      1
 Normal termination of Gaussian 09 at Wed Aug 26 23:57:04 2020.
