 Entering Gaussian System, Link 0=/opt/cluster/programs/g09/g09_d.01/g09//g09
 Input=/home/boittier/MDCM/nms_sampling/cyanomethane_geom.xyz.dir/energies/cyanomethane_1237_energy.com
 Output=/scratch/boittier/cyanomethane_1237_energy/cyanomethane_1237_energy.out
 Initial command:
 /opt/cluster/programs/g09/g09_d.01/g09/l1.exe "/scratch/boittier/cyanomethane_1237_energy/Gau-103532.inp" -scrdir="/scratch/boittier/cyanomethane_1237_energy/"
 Entering Link 1 = /opt/cluster/programs/g09/g09_d.01/g09/l1.exe PID=    103533.
  
 Copyright (c) 1988,1990,1992,1993,1995,1998,2003,2009,2013,
            Gaussian, Inc.  All Rights Reserved.
  
 This is part of the Gaussian(R) 09 program.  It is based on
 the Gaussian(R) 03 system (copyright 2003, Gaussian, Inc.),
 the Gaussian(R) 98 system (copyright 1998, Gaussian, Inc.),
 the Gaussian(R) 94 system (copyright 1995, Gaussian, Inc.),
 the Gaussian 92(TM) system (copyright 1992, Gaussian, Inc.),
 the Gaussian 90(TM) system (copyright 1990, Gaussian, Inc.),
 the Gaussian 88(TM) system (copyright 1988, Gaussian, Inc.),
 the Gaussian 86(TM) system (copyright 1986, Carnegie Mellon
 University), and the Gaussian 82(TM) system (copyright 1983,
 Carnegie Mellon University). Gaussian is a federally registered
 trademark of Gaussian, Inc.
  
 This software contains proprietary and confidential information,
 including trade secrets, belonging to Gaussian, Inc.
  
 This software is provided under written license and may be
 used, copied, transmitted, or stored only in accord with that
 written license.
  
 The following legend is applicable only to US Government
 contracts under FAR:
  
                    RESTRICTED RIGHTS LEGEND
  
 Use, reproduction and disclosure by the US Government is
 subject to restrictions as set forth in subparagraphs (a)
 and (c) of the Commercial Computer Software - Restricted
 Rights clause in FAR 52.227-19.
  
 Gaussian, Inc.
 340 Quinnipiac St., Bldg. 40, Wallingford CT 06492
  
  
 ---------------------------------------------------------------
 Warning -- This program may not be used in any manner that
 competes with the business of Gaussian, Inc. or will provide
 assistance to any competitor of Gaussian, Inc.  The licensee
 of this program is prohibited from giving any competitor of
 Gaussian, Inc. access to this program.  By using this program,
 the user acknowledges that Gaussian, Inc. is engaged in the
 business of creating and licensing software in the field of
 computational chemistry and represents and warrants to the
 licensee that it is not a competitor of Gaussian, Inc. and that
 it will not use this program in any manner prohibited above.
 ---------------------------------------------------------------
  

 Cite this work as:
 Gaussian 09, Revision D.01,
 M. J. Frisch, G. W. Trucks, H. B. Schlegel, G. E. Scuseria, 
 M. A. Robb, J. R. Cheeseman, G. Scalmani, V. Barone, B. Mennucci, 
 G. A. Petersson, H. Nakatsuji, M. Caricato, X. Li, H. P. Hratchian, 
 A. F. Izmaylov, J. Bloino, G. Zheng, J. L. Sonnenberg, M. Hada, 
 M. Ehara, K. Toyota, R. Fukuda, J. Hasegawa, M. Ishida, T. Nakajima, 
 Y. Honda, O. Kitao, H. Nakai, T. Vreven, J. A. Montgomery, Jr., 
 J. E. Peralta, F. Ogliaro, M. Bearpark, J. J. Heyd, E. Brothers, 
 K. N. Kudin, V. N. Staroverov, T. Keith, R. Kobayashi, J. Normand, 
 K. Raghavachari, A. Rendell, J. C. Burant, S. S. Iyengar, J. Tomasi, 
 M. Cossi, N. Rega, J. M. Millam, M. Klene, J. E. Knox, J. B. Cross, 
 V. Bakken, C. Adamo, J. Jaramillo, R. Gomperts, R. E. Stratmann, 
 O. Yazyev, A. J. Austin, R. Cammi, C. Pomelli, J. W. Ochterski, 
 R. L. Martin, K. Morokuma, V. G. Zakrzewski, G. A. Voth, 
 P. Salvador, J. J. Dannenberg, S. Dapprich, A. D. Daniels, 
 O. Farkas, J. B. Foresman, J. V. Ortiz, J. Cioslowski, 
 and D. J. Fox, Gaussian, Inc., Wallingford CT, 2013.
 
 ******************************************
 Gaussian 09:  ES64L-G09RevD.01 24-Apr-2013
                26-Aug-2020 
 ******************************************
 %chk=/home/boittier/MDCM/nms_sampling/cyanomethane_geom.xyz.dir/cyanomethane_123
 7.chk
 %nproc=8
 Will use up to    8 processors via shared memory.
 %mem=16000MB
 --------------------
 #p B2PLYPD3/Def2QZVP
 --------------------
 1/38=1/1;
 2/12=2,17=6,18=5,40=1/2;
 3/5=45,7=101,11=9,16=1,25=1,30=1,74=-60/1,2,3;
 4//1;
 5/5=2,38=5/2;
 8/10=1/1;
 9/16=-3/6;
 6/7=2,8=2,9=2,10=2/1;
 99/5=1,9=1/99;
 Leave Link    1 at Wed Aug 26 10:35:22 2020, MaxMem=  2097152000 cpu:         0.2
 (Enter /opt/cluster/programs/g09/g09_d.01/g09/l101.exe)
 ------------
 cyanomethane
 ------------
 Symbolic Z-matrix:
 Charge =  0 Multiplicity = 1
 C                    -6.60722  -1.12752   1.16716 
 C                    -5.19798  -0.77897   0.88464 
 N                    -4.09267  -0.54424   0.71667 
 H                    -6.81403  -1.1741    2.2152 
 H                    -6.78047  -2.04237   0.73308 
 H                    -7.20619  -0.28571   0.80647 
 
 NAtoms=      6 NQM=        6 NQMF=       0 NMMI=      0 NMMIF=      0
                NMic=       0 NMicF=      0.
                    Isotopes and Nuclear Properties:
 (Nuclear quadrupole moments (NQMom) in fm**2, nuclear magnetic moments (NMagM)
  in nuclear magnetons)

  Atom         1           2           3           4           5           6
 IAtWgt=          12          12          14           1           1           1
 AtmWgt=  12.0000000  12.0000000  14.0030740   1.0078250   1.0078250   1.0078250
 NucSpn=           0           0           2           1           1           1
 AtZEff=   0.0000000   0.0000000   0.0000000   0.0000000   0.0000000   0.0000000
 NQMom=    0.0000000   0.0000000   2.0440000   0.0000000   0.0000000   0.0000000
 NMagM=    0.0000000   0.0000000   0.4037610   2.7928460   2.7928460   2.7928460
 AtZNuc=   6.0000000   6.0000000   7.0000000   1.0000000   1.0000000   1.0000000
 Leave Link  101 at Wed Aug 26 10:35:22 2020, MaxMem=  2097152000 cpu:         0.5
 (Enter /opt/cluster/programs/g09/g09_d.01/g09/l202.exe)
                          Input orientation:                          
 ---------------------------------------------------------------------
 Center     Atomic      Atomic             Coordinates (Angstroms)
 Number     Number       Type             X           Y           Z
 ---------------------------------------------------------------------
      1          6           0       -6.607220   -1.127517    1.167161
      2          6           0       -5.197980   -0.778971    0.884636
      3          7           0       -4.092665   -0.544238    0.716668
      4          1           0       -6.814033   -1.174105    2.215202
      5          1           0       -6.780468   -2.042370    0.733080
      6          1           0       -7.206189   -0.285714    0.806471
 ---------------------------------------------------------------------
                    Distance matrix (angstroms):
                    1          2          3          4          5
     1  C    0.000000
     2  C    1.478940   0.000000
     3  N    2.620333   1.142381   0.000000
     4  H    1.069267   2.130297   3.169886   0.000000
     5  H    1.027325   2.030619   3.077167   1.718050   0.000000
     6  H    1.094300   2.069376   3.125529   1.711008   1.808996
                    6
     6  H    0.000000
 Stoichiometry    C2H3N
 Framework group  C1[X(C2H3N)]
 Deg. of freedom    12
 Full point group                 C1      NOp   1
 Largest Abelian subgroup         C1      NOp   1
 Largest concise Abelian subgroup C1      NOp   1
                         Standard orientation:                         
 ---------------------------------------------------------------------
 Center     Atomic      Atomic             Coordinates (Angstroms)
 Number     Number       Type             X           Y           Z
 ---------------------------------------------------------------------
      1          6           0       -1.190999   -0.016990   -0.005203
      2          6           0        0.287576    0.010800   -0.022752
      3          7           0        1.429201   -0.002181    0.016709
      4          1           0       -1.588636    0.038541    0.985822
      5          1           0       -1.477583   -0.897185   -0.450763
      6          1           0       -1.517650    0.911056   -0.484289
 ---------------------------------------------------------------------
 Rotational constants (GHZ):    163.8577496      9.2546226      9.2169131
 Leave Link  202 at Wed Aug 26 10:35:22 2020, MaxMem=  2097152000 cpu:         0.0
 (Enter /opt/cluster/programs/g09/g09_d.01/g09/l301.exe)
 Standard basis: def2QZVP (5D, 7F)
 Ernie: Thresh=  0.10000D-02 Tol=  0.10000D-05 Strict=F.
 There are   321 symmetry adapted cartesian basis functions of A   symmetry.
 There are   261 symmetry adapted basis functions of A   symmetry.
   261 basis functions,   390 primitive gaussians,   321 cartesian basis functions
    11 alpha electrons       11 beta electrons
       nuclear repulsion energy        58.8355033005 Hartrees.
 IExCor=  419 DFT=T Ex+Corr=B2PLYPD3 ExCW=0 ScaHFX=  0.530000
 ScaDFX=  0.470000  0.470000  0.730000  0.730000 ScalE2=  0.270000  0.270000
 IRadAn=      0 IRanWt=     -1 IRanGd=            0 ICorTp=0 IEmpDi=141
 NAtoms=    6 NActive=    6 NUniq=    6 SFac= 1.00D+00 NAtFMM=   60 NAOKFM=F Big=F
 Integral buffers will be    131072 words long.
 Regular integral format.
 Two-electron integral symmetry is turned on.
 R6Disp:  Grimme-D3(BJ) Dispersion energy=       -0.0021091771 Hartrees.
 Nuclear repulsion after empirical dispersion term =       58.8333941233 Hartrees.
 Leave Link  301 at Wed Aug 26 10:35:22 2020, MaxMem=  2097152000 cpu:         0.4
 (Enter /opt/cluster/programs/g09/g09_d.01/g09/l302.exe)
 NPDir=0 NMtPBC=     1 NCelOv=     1 NCel=       1 NClECP=     1 NCelD=      1
         NCelK=      1 NCelE2=     1 NClLst=     1 CellRange=     0.0.
 One-electron integrals computed using PRISM.
   1 Symmetry operations used in ECPInt.
 ECPInt:  NShTT=    3321 NPrTT=    8136 LenC2=    3296 LenP2D=    7135.
 LDataN:  DoStor=T MaxTD1= 8 Len=  415
 NBasis=   261 RedAO= T EigKep=  7.91D-05  NBF=   261
 NBsUse=   261 1.00D-06 EigRej= -1.00D+00 NBFU=   261
 Precomputing XC quadrature grid using
 IXCGrd= 4 IRadAn=           0 IRanWt=          -1 IRanGd=           0 AccXCQ= 0.00D+00.
 Generated NRdTot=       0 NPtTot=           0 NUsed=           0 NTot=          32
 NSgBfM=   321   321   321   321   321 MxSgAt=     6 MxSgA2=     6.
 Leave Link  302 at Wed Aug 26 10:35:23 2020, MaxMem=  2097152000 cpu:         2.3
 (Enter /opt/cluster/programs/g09/g09_d.01/g09/l303.exe)
 DipDrv:  MaxL=1.
 Leave Link  303 at Wed Aug 26 10:35:23 2020, MaxMem=  2097152000 cpu:         0.2
 (Enter /opt/cluster/programs/g09/g09_d.01/g09/l401.exe)
 ExpMin= 7.60D-02 ExpMax= 9.07D+04 ExpMxC= 8.76D+02 IAcc=2 IRadAn=         4 AccDes= 0.00D+00
 Harris functional with IExCor=  419 and IRadAn=       4 diagonalized for initial guess.
 HarFok:  IExCor=  419 AccDes= 0.00D+00 IRadAn=         4 IDoV= 1 UseB2=F ITyADJ=14
 ICtDFT=  3500011 ScaDFX=  1.000000  1.000000  1.000000  1.000000
 FoFCou: FMM=F IPFlag=           0 FMFlag=      100000 FMFlg1=           0
         NFxFlg=           0 DoJE=T BraDBF=F KetDBF=T FulRan=T
         wScrn=  0.000000 ICntrl=     500 IOpCl=  0 I1Cent=   200000004 NGrid=           0
         NMat0=    1 NMatS0=      1 NMatT0=    0 NMatD0=    1 NMtDS0=    0 NMtDT0=    0
 Petite list used in FoFCou.
 Harris En= -132.854919623683    
 JPrj=0 DoOrth=F DoCkMO=F.
 Leave Link  401 at Wed Aug 26 10:35:25 2020, MaxMem=  2097152000 cpu:         4.2
 (Enter /opt/cluster/programs/g09/g09_d.01/g09/l502.exe)
 Closed shell SCF:
 Using DIIS extrapolation, IDIIS=  1040.
 Integral symmetry usage will be decided dynamically.
 Keep R1 ints in memory in canonical form, NReq=601554820.
 IVT=      332521 IEndB=      332521 NGot=  2097152000 MDV=  1512290144
 LenX=  1512290144 LenY=  1512186662
 Requested convergence on RMS density matrix=1.00D-08 within 128 cycles.
 Requested convergence on MAX density matrix=1.00D-06.
 Requested convergence on             energy=1.00D-06.
 No special actions if energy rises.
 FoFCou: FMM=F IPFlag=           0 FMFlag=           0 FMFlg1=           0
         NFxFlg=           0 DoJE=F BraDBF=F KetDBF=F FulRan=T
         wScrn=  0.000000 ICntrl=     600 IOpCl=  0 I1Cent=           0 NGrid=           0
         NMat0=    1 NMatS0=  34191 NMatT0=    0 NMatD0=    1 NMtDS0=    0 NMtDT0=    0
 Symmetry not used in FoFCou.
 Integral accuracy reduced to 1.0D-05 until final iterations.

 Cycle   1  Pass 0  IDiag  1:
 E= -132.411410453597    
 DIIS: error= 2.88D-02 at cycle   1 NSaved=   1.
 NSaved= 1 IEnMin= 1 EnMin= -132.411410453597     IErMin= 1 ErrMin= 2.88D-02
 ErrMax= 2.88D-02  0.00D+00 EMaxC= 1.00D-01 BMatC= 1.99D-01 BMatP= 1.99D-01
 IDIUse=3 WtCom= 7.12D-01 WtEn= 2.88D-01
 Coeff-Com:  0.100D+01
 Coeff-En:   0.100D+01
 Coeff:      0.100D+01
 Gap=     0.465 Goal=   None    Shift=    0.000
 GapD=    0.465 DampG=2.000 DampE=0.500 DampFc=1.0000 IDamp=-1.
 RMSDP=1.32D-03 MaxDP=7.13D-02              OVMax= 1.62D-01

 Cycle   2  Pass 0  IDiag  1:
 E= -132.448143984047     Delta-E=       -0.036733530450 Rises=F Damp=F
 DIIS: error= 3.81D-02 at cycle   2 NSaved=   2.
 NSaved= 2 IEnMin= 2 EnMin= -132.448143984047     IErMin= 1 ErrMin= 2.88D-02
 ErrMax= 3.81D-02  0.00D+00 EMaxC= 1.00D-01 BMatC= 9.93D-02 BMatP= 1.99D-01
 IDIUse=3 WtCom= 6.19D-01 WtEn= 3.81D-01
 Coeff-Com:  0.398D+00 0.602D+00
 Coeff-En:   0.390D+00 0.610D+00
 Coeff:      0.395D+00 0.605D+00
 Gap=     0.445 Goal=   None    Shift=    0.000
 RMSDP=8.47D-04 MaxDP=3.45D-02 DE=-3.67D-02 OVMax= 1.23D-01

 Cycle   3  Pass 0  IDiag  1:
 E= -132.515142358745     Delta-E=       -0.066998374698 Rises=F Damp=F
 DIIS: error= 1.30D-02 at cycle   3 NSaved=   3.
 NSaved= 3 IEnMin= 3 EnMin= -132.515142358745     IErMin= 3 ErrMin= 1.30D-02
 ErrMax= 1.30D-02  0.00D+00 EMaxC= 1.00D-01 BMatC= 2.01D-02 BMatP= 9.93D-02
 IDIUse=3 WtCom= 8.70D-01 WtEn= 1.30D-01
 Coeff-Com:  0.964D-01 0.323D+00 0.580D+00
 Coeff-En:   0.000D+00 0.119D+00 0.881D+00
 Coeff:      0.839D-01 0.297D+00 0.620D+00
 Gap=     0.431 Goal=   None    Shift=    0.000
 RMSDP=2.65D-04 MaxDP=9.66D-03 DE=-6.70D-02 OVMax= 5.84D-02

 Cycle   4  Pass 0  IDiag  1:
 E= -132.529167570630     Delta-E=       -0.014025211885 Rises=F Damp=F
 DIIS: error= 4.42D-03 at cycle   4 NSaved=   4.
 NSaved= 4 IEnMin= 4 EnMin= -132.529167570630     IErMin= 4 ErrMin= 4.42D-03
 ErrMax= 4.42D-03  0.00D+00 EMaxC= 1.00D-01 BMatC= 2.72D-03 BMatP= 2.01D-02
 IDIUse=3 WtCom= 9.56D-01 WtEn= 4.42D-02
 Coeff-Com: -0.120D-01 0.510D-01 0.317D+00 0.644D+00
 Coeff-En:   0.000D+00 0.000D+00 0.119D+00 0.881D+00
 Coeff:     -0.115D-01 0.487D-01 0.308D+00 0.655D+00
 Gap=     0.432 Goal=   None    Shift=    0.000
 RMSDP=8.67D-05 MaxDP=2.56D-03 DE=-1.40D-02 OVMax= 1.49D-02

 Cycle   5  Pass 0  IDiag  1:
 E= -132.531503185432     Delta-E=       -0.002335614802 Rises=F Damp=F
 DIIS: error= 2.72D-04 at cycle   5 NSaved=   5.
 NSaved= 5 IEnMin= 5 EnMin= -132.531503185432     IErMin= 5 ErrMin= 2.72D-04
 ErrMax= 2.72D-04  0.00D+00 EMaxC= 1.00D-01 BMatC= 1.23D-05 BMatP= 2.72D-03
 IDIUse=3 WtCom= 9.97D-01 WtEn= 2.72D-03
 Coeff-Com: -0.353D-02 0.552D-02 0.492D-01 0.147D+00 0.802D+00
 Coeff-En:   0.000D+00 0.000D+00 0.000D+00 0.000D+00 0.100D+01
 Coeff:     -0.352D-02 0.551D-02 0.491D-01 0.146D+00 0.803D+00
 Gap=     0.431 Goal=   None    Shift=    0.000
 RMSDP=8.10D-06 MaxDP=3.05D-04 DE=-2.34D-03 OVMax= 1.16D-03

 Initial convergence to 1.0D-05 achieved.  Increase integral accuracy.
 Cycle   6  Pass 1  IDiag  1:
 E= -132.531515442103     Delta-E=       -0.000012256671 Rises=F Damp=F
 DIIS: error= 1.05D-04 at cycle   1 NSaved=   1.
 NSaved= 1 IEnMin= 1 EnMin= -132.531515442103     IErMin= 1 ErrMin= 1.05D-04
 ErrMax= 1.05D-04  0.00D+00 EMaxC= 1.00D-01 BMatC= 6.44D-07 BMatP= 6.44D-07
 IDIUse=3 WtCom= 9.99D-01 WtEn= 1.05D-03
 Coeff-Com:  0.100D+01
 Coeff-En:   0.100D+01
 Coeff:      0.100D+01
 Gap=     0.431 Goal=   None    Shift=    0.000
 RMSDP=8.10D-06 MaxDP=3.05D-04 DE=-1.23D-05 OVMax= 4.18D-04

 Cycle   7  Pass 1  IDiag  1:
 E= -132.531515827979     Delta-E=       -0.000000385876 Rises=F Damp=F
 DIIS: error= 4.07D-05 at cycle   2 NSaved=   2.
 NSaved= 2 IEnMin= 2 EnMin= -132.531515827979     IErMin= 2 ErrMin= 4.07D-05
 ErrMax= 4.07D-05  0.00D+00 EMaxC= 1.00D-01 BMatC= 2.91D-07 BMatP= 6.44D-07
 IDIUse=1 WtCom= 1.00D+00 WtEn= 0.00D+00
 Coeff-Com:  0.394D+00 0.606D+00
 Coeff:      0.394D+00 0.606D+00
 Gap=     0.431 Goal=   None    Shift=    0.000
 RMSDP=9.93D-07 MaxDP=4.10D-05 DE=-3.86D-07 OVMax= 1.68D-04

 Cycle   8  Pass 1  IDiag  1:
 E= -132.531516083947     Delta-E=       -0.000000255968 Rises=F Damp=F
 DIIS: error= 1.64D-05 at cycle   3 NSaved=   3.
 NSaved= 3 IEnMin= 3 EnMin= -132.531516083947     IErMin= 3 ErrMin= 1.64D-05
 ErrMax= 1.64D-05  0.00D+00 EMaxC= 1.00D-01 BMatC= 1.73D-08 BMatP= 2.91D-07
 IDIUse=1 WtCom= 1.00D+00 WtEn= 0.00D+00
 Coeff-Com:  0.890D-01 0.218D+00 0.693D+00
 Coeff:      0.890D-01 0.218D+00 0.693D+00
 Gap=     0.431 Goal=   None    Shift=    0.000
 RMSDP=5.67D-07 MaxDP=2.47D-05 DE=-2.56D-07 OVMax= 5.57D-05

 Cycle   9  Pass 1  IDiag  1:
 E= -132.531516093480     Delta-E=       -0.000000009533 Rises=F Damp=F
 DIIS: error= 8.82D-06 at cycle   4 NSaved=   4.
 NSaved= 4 IEnMin= 4 EnMin= -132.531516093480     IErMin= 4 ErrMin= 8.82D-06
 ErrMax= 8.82D-06  0.00D+00 EMaxC= 1.00D-01 BMatC= 7.30D-09 BMatP= 1.73D-08
 IDIUse=1 WtCom= 1.00D+00 WtEn= 0.00D+00
 Coeff-Com: -0.590D-01-0.349D-01 0.435D+00 0.659D+00
 Coeff:     -0.590D-01-0.349D-01 0.435D+00 0.659D+00
 Gap=     0.431 Goal=   None    Shift=    0.000
 RMSDP=2.58D-07 MaxDP=1.26D-05 DE=-9.53D-09 OVMax= 3.45D-05

 Cycle  10  Pass 1  IDiag  1:
 E= -132.531516100218     Delta-E=       -0.000000006738 Rises=F Damp=F
 DIIS: error= 1.15D-06 at cycle   5 NSaved=   5.
 NSaved= 5 IEnMin= 5 EnMin= -132.531516100218     IErMin= 5 ErrMin= 1.15D-06
 ErrMax= 1.15D-06  0.00D+00 EMaxC= 1.00D-01 BMatC= 9.50D-11 BMatP= 7.30D-09
 IDIUse=1 WtCom= 1.00D+00 WtEn= 0.00D+00
 Coeff-Com: -0.208D-01-0.194D-01 0.877D-01 0.192D+00 0.760D+00
 Coeff:     -0.208D-01-0.194D-01 0.877D-01 0.192D+00 0.760D+00
 Gap=     0.431 Goal=   None    Shift=    0.000
 RMSDP=4.40D-08 MaxDP=2.26D-06 DE=-6.74D-09 OVMax= 3.41D-06

 Cycle  11  Pass 1  IDiag  1:
 E= -132.531516100304     Delta-E=       -0.000000000086 Rises=F Damp=F
 DIIS: error= 2.04D-07 at cycle   6 NSaved=   6.
 NSaved= 6 IEnMin= 6 EnMin= -132.531516100304     IErMin= 6 ErrMin= 2.04D-07
 ErrMax= 2.04D-07  0.00D+00 EMaxC= 1.00D-01 BMatC= 4.89D-12 BMatP= 9.50D-11
 IDIUse=1 WtCom= 1.00D+00 WtEn= 0.00D+00
 Coeff-Com:  0.251D-02 0.418D-03-0.309D-01-0.235D-01 0.124D+00 0.928D+00
 Coeff:      0.251D-02 0.418D-03-0.309D-01-0.235D-01 0.124D+00 0.928D+00
 Gap=     0.431 Goal=   None    Shift=    0.000
 RMSDP=9.25D-09 MaxDP=4.48D-07 DE=-8.61D-11 OVMax= 1.07D-06

 SCF Done:  E(RB2PLYPD3) =  -132.531516100     A.U. after   11 cycles
            NFock= 11  Conv=0.93D-08     -V/T= 2.0025
 KE= 1.321994519939D+02 PE=-4.263928677900D+02 EE= 1.028285055724D+02
 Leave Link  502 at Wed Aug 26 10:35:51 2020, MaxMem=  2097152000 cpu:       108.5
 (Enter /opt/cluster/programs/g09/g09_d.01/g09/l801.exe)
 DoSCS=T DFT=T ScalE2(SS,OS)=  0.270000  0.270000
 ExpMin= 7.60D-02 ExpMax= 9.07D+04 ExpMxC= 8.76D+02 IAcc=3 IRadAn=         5 AccDes= 0.00D+00
 HarFok:  IExCor=  205 AccDes= 0.00D+00 IRadAn=         5 IDoV=-2 UseB2=F ITyADJ=14
 ICtDFT= 12500011 ScaDFX=  1.000000  1.000000  1.000000  1.000000
 Largest valence mixing into a core orbital is  1.15D-04
 Largest core mixing into a valence orbital is  1.87D-05
 Range of M.O.s used for correlation:     4   261
 NBasis=   261 NAE=    11 NBE=    11 NFC=     3 NFV=     0
 NROrb=    258 NOA=     8 NOB=     8 NVA=   250 NVB=   250

 **** Warning!!: The largest alpha MO coefficient is  0.32173273D+02

 Leave Link  801 at Wed Aug 26 10:35:51 2020, MaxMem=  2097152000 cpu:         0.8
 (Enter /opt/cluster/programs/g09/g09_d.01/g09/l906.exe)
 DoSCS=T DFT=T ScalE2(SS,OS)=  0.270000  0.270000
 FulOut=F Deriv=F AODrv=F NAtomX=     6
   MMem=        2666  MDisk=           8 MDiskD=           8
  W3Min=      642000 MinDsk=     1426009 NBas6D=         321
 NBas2D=       52689    NTT=       51681    LW2=     4508827
    MDV=  2096809287 MDiskM=       14501 NBas2p=       52155
 Fully direct method using O(OVN) memory.
 IMap=   1   2   3   4   5   6   7   8
 JobTyp=1 Pass  1:  I=   1 to   8 NPSUse=  8 ParTrn=T ParDer=T DoDerP=F.
 Spin components of T(2) and E(2):
     alpha-alpha T2 =       0.3484074794D-01 E2=     -0.2122843474D-01
     alpha-beta  T2 =       0.2038569388D+00 E2=     -0.1367322294D+00
     beta-beta   T2 =       0.3484074794D-01 E2=     -0.2122843474D-01
 The integrals were generated   1 times.
 E2(B2PLYPD3) =    -0.1791890989D+00 E(B2PLYPD3) =    -0.13271070519918D+03
 Leave Link  906 at Wed Aug 26 10:36:15 2020, MaxMem=  2097152000 cpu:       188.1
 (Enter /opt/cluster/programs/g09/g09_d.01/g09/l601.exe)
 Copying SCF densities to generalized density rwf, IOpCl= 0 IROHF=0.

 **********************************************************************

            Population analysis using the SCF density.

 **********************************************************************

 Orbital symmetries:
       Occupied  (A) (A) (A) (A) (A) (A) (A) (A) (A) (A) (A)
       Virtual   (A) (A) (A) (A) (A) (A) (A) (A) (A) (A) (A) (A)
                 (A) (A) (A) (A) (A) (A) (A) (A) (A) (A) (A) (A)
                 (A) (A) (A) (A) (A) (A) (A) (A) (A) (A) (A) (A)
                 (A) (A) (A) (A) (A) (A) (A) (A) (A) (A) (A) (A)
                 (A) (A) (A) (A) (A) (A) (A) (A) (A) (A) (A) (A)
                 (A) (A) (A) (A) (A) (A) (A) (A) (A) (A) (A) (A)
                 (A) (A) (A) (A) (A) (A) (A) (A) (A) (A) (A) (A)
                 (A) (A) (A) (A) (A) (A) (A) (A) (A) (A) (A) (A)
                 (A) (A) (A) (A) (A) (A) (A) (A) (A) (A) (A) (A)
                 (A) (A) (A) (A) (A) (A) (A) (A) (A) (A) (A) (A)
                 (A) (A) (A) (A) (A) (A) (A) (A) (A) (A) (A) (A)
                 (A) (A) (A) (A) (A) (A) (A) (A) (A) (A) (A) (A)
                 (A) (A) (A) (A) (A) (A) (A) (A) (A) (A) (A) (A)
                 (A) (A) (A) (A) (A) (A) (A) (A) (A) (A) (A) (A)
                 (A) (A) (A) (A) (A) (A) (A) (A) (A) (A) (A) (A)
                 (A) (A) (A) (A) (A) (A) (A) (A) (A) (A) (A) (A)
                 (A) (A) (A) (A) (A) (A) (A) (A) (A) (A) (A) (A)
                 (A) (A) (A) (A) (A) (A) (A) (A) (A) (A) (A) (A)
                 (A) (A) (A) (A) (A) (A) (A) (A) (A) (A) (A) (A)
                 (A) (A) (A) (A) (A) (A) (A) (A) (A) (A) (A) (A)
                 (A) (A) (A) (A) (A) (A) (A) (A) (A) (A)
 The electronic state is 1-A.
 Alpha  occ. eigenvalues --  -14.83764 -10.66532 -10.65842  -1.04504  -0.89544
 Alpha  occ. eigenvalues --   -0.59240  -0.56146  -0.52985  -0.44616  -0.39598
 Alpha  occ. eigenvalues --   -0.39255
 Alpha virt. eigenvalues --    0.03858   0.08184   0.08972   0.10235   0.11209
 Alpha virt. eigenvalues --    0.11661   0.15263   0.15991   0.16595   0.19963
 Alpha virt. eigenvalues --    0.20116   0.24972   0.32776   0.34233   0.35746
 Alpha virt. eigenvalues --    0.38790   0.39837   0.40239   0.40790   0.47048
 Alpha virt. eigenvalues --    0.50979   0.52610   0.58466   0.60377   0.61381
 Alpha virt. eigenvalues --    0.65791   0.67781   0.69612   0.70583   0.78908
 Alpha virt. eigenvalues --    0.79519   0.82215   0.82501   0.83861   0.86996
 Alpha virt. eigenvalues --    0.91355   0.93453   0.95272   0.96161   0.98208
 Alpha virt. eigenvalues --    1.05135   1.06492   1.10031   1.12589   1.13399
 Alpha virt. eigenvalues --    1.14533   1.22585   1.23250   1.25187   1.35016
 Alpha virt. eigenvalues --    1.36210   1.45753   1.48134   1.51825   1.55329
 Alpha virt. eigenvalues --    1.65065   1.66483   1.71158   1.74351   1.77943
 Alpha virt. eigenvalues --    1.79121   1.79176   1.86863   1.90606   1.93077
 Alpha virt. eigenvalues --    1.95163   1.98696   1.99739   2.00810   2.02752
 Alpha virt. eigenvalues --    2.05314   2.09407   2.14765   2.20262   2.21580
 Alpha virt. eigenvalues --    2.23192   2.24654   2.29097   2.34723   2.36998
 Alpha virt. eigenvalues --    2.42086   2.49293   2.51817   2.56653   2.59095
 Alpha virt. eigenvalues --    2.61082   2.67578   2.70517   2.71612   2.73121
 Alpha virt. eigenvalues --    2.77114   2.78573   2.86595   2.89035   2.91495
 Alpha virt. eigenvalues --    2.94252   2.95197   2.97365   3.00117   3.06762
 Alpha virt. eigenvalues --    3.11308   3.14739   3.22068   3.28422   3.37166
 Alpha virt. eigenvalues --    3.37969   3.40886   3.43767   3.44327   3.51106
 Alpha virt. eigenvalues --    3.55712   3.61275   3.72164   3.75701   3.77790
 Alpha virt. eigenvalues --    3.90207   3.94376   3.95432   3.97769   4.02863
 Alpha virt. eigenvalues --    4.03935   4.05077   4.07833   4.25595   4.27468
 Alpha virt. eigenvalues --    4.55517   4.91360   4.91540   5.08399   5.11127
 Alpha virt. eigenvalues --    5.13256   5.17061   5.21320   5.22853   5.25762
 Alpha virt. eigenvalues --    5.29527   5.44871   5.46861   5.47229   5.68204
 Alpha virt. eigenvalues --    5.68374   5.86940   5.87659   5.89341   5.92686
 Alpha virt. eigenvalues --    5.95552   5.97917   5.99914   6.01250   6.03788
 Alpha virt. eigenvalues --    6.05662   6.07201   6.09347   6.10487   6.14774
 Alpha virt. eigenvalues --    6.19416   6.22106   6.24168   6.30755   6.33659
 Alpha virt. eigenvalues --    6.40243   6.44695   6.55974   6.57378   6.64479
 Alpha virt. eigenvalues --    6.66868   6.69118   6.90741   6.93041   6.95333
 Alpha virt. eigenvalues --    6.98965   7.02975   7.03017   7.05523   7.11828
 Alpha virt. eigenvalues --    7.19038   7.25861   7.32972   7.46046   7.51733
 Alpha virt. eigenvalues --    7.53281   7.55740   7.57348   7.61919   7.67223
 Alpha virt. eigenvalues --    7.67971   7.70011   7.74485   7.83251   7.85181
 Alpha virt. eigenvalues --    7.88098   7.91392   8.00937   8.11149   8.22944
 Alpha virt. eigenvalues --    8.32641   8.36133   8.43457   8.44688   8.47110
 Alpha virt. eigenvalues --    8.50499   8.52280   8.54762   8.57244   8.61021
 Alpha virt. eigenvalues --    8.61886   8.63241   8.67156   8.67493   8.69398
 Alpha virt. eigenvalues --    8.78165   8.86198   8.88824   8.96092   9.03854
 Alpha virt. eigenvalues --    9.12029   9.15463   9.20096   9.26449   9.27311
 Alpha virt. eigenvalues --    9.29184   9.40556   9.75543   9.80904   9.82964
 Alpha virt. eigenvalues --    9.91711   9.94676  10.10467  10.17249  10.19012
 Alpha virt. eigenvalues --   10.21938  10.23573  10.30635  10.46363  10.49613
 Alpha virt. eigenvalues --   10.76371  10.89041  11.38635  11.42026  11.79895
 Alpha virt. eigenvalues --   11.99584  12.02584  13.14466  13.67484  29.27336
 Alpha virt. eigenvalues --   29.52150  38.36354 148.95472 149.16251 198.29382
          Condensed to atoms (all electrons):
               1          2          3          4          5          6
     1  C    4.589254   0.306179  -0.057634   0.413925   0.419406   0.412980
     2  C    0.306179   4.836362   0.992672  -0.036028  -0.047001  -0.045514
     3  N   -0.057634   0.992672   6.267488  -0.001369  -0.000077  -0.000209
     4  H    0.413925  -0.036028  -0.001369   0.599832  -0.033499  -0.034047
     5  H    0.419406  -0.047001  -0.000077  -0.033499   0.582113  -0.025294
     6  H    0.412980  -0.045514  -0.000209  -0.034047  -0.025294   0.595972
 Mulliken charges:
               1
     1  C   -0.084111
     2  C   -0.006669
     3  N   -0.200871
     4  H    0.091186
     5  H    0.104352
     6  H    0.096112
 Sum of Mulliken charges =   0.00000
 Mulliken charges with hydrogens summed into heavy atoms:
               1
     1  C    0.207540
     2  C   -0.006669
     3  N   -0.200871
 Electronic spatial extent (au):  <R**2>=            161.0760
 Charge=              0.0000 electrons
 Dipole moment (field-independent basis, Debye):
    X=             -4.1157    Y=              0.0138    Z=              0.0061  Tot=              4.1158
 Quadrupole moment (field-independent basis, Debye-Ang):
   XX=            -21.0504   YY=            -17.4588   ZZ=            -17.8636
   XY=             -0.0456   XZ=             -0.2470   YZ=              0.0633
 Traceless Quadrupole moment (field-independent basis, Debye-Ang):
   XX=             -2.2595   YY=              1.3322   ZZ=              0.9273
   XY=             -0.0456   XZ=             -0.2470   YZ=              0.0633
 Octapole moment (field-independent basis, Debye-Ang**2):
  XXX=            -12.8720  YYY=             -0.1229  ZZZ=              0.8009  XYY=             -2.4747
  XXY=              0.0780  XXZ=              0.5093  XZZ=             -1.9928  YZZ=              0.0125
  YYZ=             -0.7336  XYZ=             -0.0777
 Hexadecapole moment (field-independent basis, Debye-Ang**3):
 XXXX=           -181.6309 YYYY=            -24.0132 ZZZZ=            -24.1568 XXXY=             -0.0620
 XXXZ=             -1.4170 YYYX=              0.0613 YYYZ=              0.0723 ZZZX=             -1.4200
 ZZZY=              0.1900 XXYY=            -30.7725 XXZZ=            -31.1819 YYZZ=             -8.1016
 XXYZ=              0.1444 YYXZ=              1.1720 ZZXY=             -0.0687
 N-N= 5.883339412334D+01 E-N=-4.263928518357D+02  KE= 1.321994519939D+02
 Leave Link  601 at Wed Aug 26 10:36:15 2020, MaxMem=  2097152000 cpu:         0.4
 (Enter /opt/cluster/programs/g09/g09_d.01/g09/l9999.exe)
 1\1\GINC-NODE14\SP\RB2PLYPD3-FC\def2QZVP\C2H3N1\BOITTIER\26-Aug-2020\0
 \\#p B2PLYPD3/Def2QZVP\\cyanomethane\\0,1\C,0,-6.60722,-1.127517,1.167
 161\C,0,-5.19798,-0.778971,0.884636\N,0,-4.092665,-0.544238,0.716668\H
 ,0,-6.814033,-1.174105,2.215202\H,0,-6.780468,-2.04237,0.73308\H,0,-7.
 206189,-0.285714,0.806471\\Version=ES64L-G09RevD.01\State=1-A\HF=-132.
 5315161\MP2=-132.7107052\RMSD=9.252e-09\PG=C01 [X(C2H3N1)]\\@


 THE ONLY TROUBLE WITH A SURE THING IS THE UNCERTAINTY.
     -- FROM A TEABAG (BELONGING TO W.H.?)
 Job cpu time:       0 days  0 hours  5 minutes  6.1 seconds.
 File lengths (MBytes):  RWF=     28 Int=      0 D2E=      0 Chk=      5 Scr=      1
 Normal termination of Gaussian 09 at Wed Aug 26 10:36:15 2020.
