 Entering Gaussian System, Link 0=/opt/cluster/programs/g09/g09_d.01/g09//g09
 Input=/home/boittier/MDCM/nms_sampling/cyanomethane_geom.xyz.dir/energies/cyanomethane_264_energy.com
 Output=/scratch/boittier/cyanomethane_264_energy/cyanomethane_264_energy.out
 Initial command:
 /opt/cluster/programs/g09/g09_d.01/g09/l1.exe "/scratch/boittier/cyanomethane_264_energy/Gau-151693.inp" -scrdir="/scratch/boittier/cyanomethane_264_energy/"
 Entering Link 1 = /opt/cluster/programs/g09/g09_d.01/g09/l1.exe PID=    151694.
  
 Copyright (c) 1988,1990,1992,1993,1995,1998,2003,2009,2013,
            Gaussian, Inc.  All Rights Reserved.
  
 This is part of the Gaussian(R) 09 program.  It is based on
 the Gaussian(R) 03 system (copyright 2003, Gaussian, Inc.),
 the Gaussian(R) 98 system (copyright 1998, Gaussian, Inc.),
 the Gaussian(R) 94 system (copyright 1995, Gaussian, Inc.),
 the Gaussian 92(TM) system (copyright 1992, Gaussian, Inc.),
 the Gaussian 90(TM) system (copyright 1990, Gaussian, Inc.),
 the Gaussian 88(TM) system (copyright 1988, Gaussian, Inc.),
 the Gaussian 86(TM) system (copyright 1986, Carnegie Mellon
 University), and the Gaussian 82(TM) system (copyright 1983,
 Carnegie Mellon University). Gaussian is a federally registered
 trademark of Gaussian, Inc.
  
 This software contains proprietary and confidential information,
 including trade secrets, belonging to Gaussian, Inc.
  
 This software is provided under written license and may be
 used, copied, transmitted, or stored only in accord with that
 written license.
  
 The following legend is applicable only to US Government
 contracts under FAR:
  
                    RESTRICTED RIGHTS LEGEND
  
 Use, reproduction and disclosure by the US Government is
 subject to restrictions as set forth in subparagraphs (a)
 and (c) of the Commercial Computer Software - Restricted
 Rights clause in FAR 52.227-19.
  
 Gaussian, Inc.
 340 Quinnipiac St., Bldg. 40, Wallingford CT 06492
  
  
 ---------------------------------------------------------------
 Warning -- This program may not be used in any manner that
 competes with the business of Gaussian, Inc. or will provide
 assistance to any competitor of Gaussian, Inc.  The licensee
 of this program is prohibited from giving any competitor of
 Gaussian, Inc. access to this program.  By using this program,
 the user acknowledges that Gaussian, Inc. is engaged in the
 business of creating and licensing software in the field of
 computational chemistry and represents and warrants to the
 licensee that it is not a competitor of Gaussian, Inc. and that
 it will not use this program in any manner prohibited above.
 ---------------------------------------------------------------
  

 Cite this work as:
 Gaussian 09, Revision D.01,
 M. J. Frisch, G. W. Trucks, H. B. Schlegel, G. E. Scuseria, 
 M. A. Robb, J. R. Cheeseman, G. Scalmani, V. Barone, B. Mennucci, 
 G. A. Petersson, H. Nakatsuji, M. Caricato, X. Li, H. P. Hratchian, 
 A. F. Izmaylov, J. Bloino, G. Zheng, J. L. Sonnenberg, M. Hada, 
 M. Ehara, K. Toyota, R. Fukuda, J. Hasegawa, M. Ishida, T. Nakajima, 
 Y. Honda, O. Kitao, H. Nakai, T. Vreven, J. A. Montgomery, Jr., 
 J. E. Peralta, F. Ogliaro, M. Bearpark, J. J. Heyd, E. Brothers, 
 K. N. Kudin, V. N. Staroverov, T. Keith, R. Kobayashi, J. Normand, 
 K. Raghavachari, A. Rendell, J. C. Burant, S. S. Iyengar, J. Tomasi, 
 M. Cossi, N. Rega, J. M. Millam, M. Klene, J. E. Knox, J. B. Cross, 
 V. Bakken, C. Adamo, J. Jaramillo, R. Gomperts, R. E. Stratmann, 
 O. Yazyev, A. J. Austin, R. Cammi, C. Pomelli, J. W. Ochterski, 
 R. L. Martin, K. Morokuma, V. G. Zakrzewski, G. A. Voth, 
 P. Salvador, J. J. Dannenberg, S. Dapprich, A. D. Daniels, 
 O. Farkas, J. B. Foresman, J. V. Ortiz, J. Cioslowski, 
 and D. J. Fox, Gaussian, Inc., Wallingford CT, 2013.
 
 ******************************************
 Gaussian 09:  ES64L-G09RevD.01 24-Apr-2013
                26-Aug-2020 
 ******************************************
 %chk=/home/boittier/MDCM/nms_sampling/cyanomethane_geom.xyz.dir/cyanomethane_264
 .chk
 %nproc=8
 Will use up to    8 processors via shared memory.
 %mem=16000MB
 --------------------
 #p B2PLYPD3/Def2QZVP
 --------------------
 1/38=1/1;
 2/12=2,17=6,18=5,40=1/2;
 3/5=45,7=101,11=9,16=1,25=1,30=1,74=-60/1,2,3;
 4//1;
 5/5=2,38=5/2;
 8/10=1/1;
 9/16=-3/6;
 6/7=2,8=2,9=2,10=2/1;
 99/5=1,9=1/99;
 Leave Link    1 at Wed Aug 26 19:39:28 2020, MaxMem=  2097152000 cpu:         5.6
 (Enter /opt/cluster/programs/g09/g09_d.01/g09/l101.exe)
 ------------
 cyanomethane
 ------------
 Symbolic Z-matrix:
 Charge =  0 Multiplicity = 1
 C                    -6.60393  -1.1082    1.15965 
 C                    -5.20211  -0.80898   0.91497 
 N                    -4.09144  -0.52816   0.70025 
 H                    -6.77098  -1.22199   2.25054 
 H                    -6.84103  -2.0496    0.67542 
 H                    -7.19813  -0.30864   0.79632 
 
 NAtoms=      6 NQM=        6 NQMF=       0 NMMI=      0 NMMIF=      0
                NMic=       0 NMicF=      0.
                    Isotopes and Nuclear Properties:
 (Nuclear quadrupole moments (NQMom) in fm**2, nuclear magnetic moments (NMagM)
  in nuclear magnetons)

  Atom         1           2           3           4           5           6
 IAtWgt=          12          12          14           1           1           1
 AtmWgt=  12.0000000  12.0000000  14.0030740   1.0078250   1.0078250   1.0078250
 NucSpn=           0           0           2           1           1           1
 AtZEff=   0.0000000   0.0000000   0.0000000   0.0000000   0.0000000   0.0000000
 NQMom=    0.0000000   0.0000000   2.0440000   0.0000000   0.0000000   0.0000000
 NMagM=    0.0000000   0.0000000   0.4037610   2.7928460   2.7928460   2.7928460
 AtZNuc=   6.0000000   6.0000000   7.0000000   1.0000000   1.0000000   1.0000000
 Leave Link  101 at Wed Aug 26 19:39:31 2020, MaxMem=  2097152000 cpu:         0.5
 (Enter /opt/cluster/programs/g09/g09_d.01/g09/l202.exe)
                          Input orientation:                          
 ---------------------------------------------------------------------
 Center     Atomic      Atomic             Coordinates (Angstroms)
 Number     Number       Type             X           Y           Z
 ---------------------------------------------------------------------
      1          6           0       -6.603932   -1.108203    1.159651
      2          6           0       -5.202109   -0.808976    0.914968
      3          7           0       -4.091444   -0.528156    0.700249
      4          1           0       -6.770978   -1.221994    2.250543
      5          1           0       -6.841026   -2.049598    0.675420
      6          1           0       -7.198126   -0.308638    0.796316
 ---------------------------------------------------------------------
                    Distance matrix (angstroms):
                    1          2          3          4          5
     1  C    0.000000
     2  C    1.454137   0.000000
     3  N    2.619179   1.165565   0.000000
     4  H    1.109458   2.101355   3.172495   0.000000
     5  H    1.084858   2.069438   3.142547   1.780687   0.000000
     6  H    1.060369   2.061189   3.115909   1.769591   1.781314
                    6
     6  H    0.000000
 Stoichiometry    C2H3N
 Framework group  C1[X(C2H3N)]
 Deg. of freedom    12
 Full point group                 C1      NOp   1
 Largest Abelian subgroup         C1      NOp   1
 Largest concise Abelian subgroup C1      NOp   1
                         Standard orientation:                         
 ---------------------------------------------------------------------
 Center     Atomic      Atomic             Coordinates (Angstroms)
 Number     Number       Type             X           Y           Z
 ---------------------------------------------------------------------
      1          6           0        1.181816   -0.002285   -0.012903
      2          6           0       -0.272021    0.011173    0.013386
      3          7           0       -1.437344   -0.005652   -0.003363
      4          1           0        1.562601   -0.459731    0.923389
      5          1           0        1.531308    1.023596   -0.061298
      6          1           0        1.508728   -0.577634   -0.841447
 ---------------------------------------------------------------------
 Rotational constants (GHZ):    158.5221100      9.2276731      9.2232128
 Leave Link  202 at Wed Aug 26 19:39:32 2020, MaxMem=  2097152000 cpu:         0.0
 (Enter /opt/cluster/programs/g09/g09_d.01/g09/l301.exe)
 Standard basis: def2QZVP (5D, 7F)
 Ernie: Thresh=  0.10000D-02 Tol=  0.10000D-05 Strict=F.
 There are   321 symmetry adapted cartesian basis functions of A   symmetry.
 There are   261 symmetry adapted basis functions of A   symmetry.
   261 basis functions,   390 primitive gaussians,   321 cartesian basis functions
    11 alpha electrons       11 beta electrons
       nuclear repulsion energy        58.4517564965 Hartrees.
 IExCor=  419 DFT=T Ex+Corr=B2PLYPD3 ExCW=0 ScaHFX=  0.530000
 ScaDFX=  0.470000  0.470000  0.730000  0.730000 ScalE2=  0.270000  0.270000
 IRadAn=      0 IRanWt=     -1 IRanGd=            0 ICorTp=0 IEmpDi=141
 NAtoms=    6 NActive=    6 NUniq=    6 SFac= 1.00D+00 NAtFMM=   60 NAOKFM=F Big=F
 Integral buffers will be    131072 words long.
 Regular integral format.
 Two-electron integral symmetry is turned on.
 R6Disp:  Grimme-D3(BJ) Dispersion energy=       -0.0021053607 Hartrees.
 Nuclear repulsion after empirical dispersion term =       58.4496511358 Hartrees.
 Leave Link  301 at Wed Aug 26 19:39:34 2020, MaxMem=  2097152000 cpu:         0.4
 (Enter /opt/cluster/programs/g09/g09_d.01/g09/l302.exe)
 NPDir=0 NMtPBC=     1 NCelOv=     1 NCel=       1 NClECP=     1 NCelD=      1
         NCelK=      1 NCelE2=     1 NClLst=     1 CellRange=     0.0.
 One-electron integrals computed using PRISM.
   1 Symmetry operations used in ECPInt.
 ECPInt:  NShTT=    3321 NPrTT=    8136 LenC2=    3294 LenP2D=    7127.
 LDataN:  DoStor=T MaxTD1= 8 Len=  415
 NBasis=   261 RedAO= T EigKep=  8.32D-05  NBF=   261
 NBsUse=   261 1.00D-06 EigRej= -1.00D+00 NBFU=   261
 Precomputing XC quadrature grid using
 IXCGrd= 4 IRadAn=           0 IRanWt=          -1 IRanGd=           0 AccXCQ= 0.00D+00.
 Generated NRdTot=       0 NPtTot=           0 NUsed=           0 NTot=          32
 NSgBfM=   321   321   321   321   321 MxSgAt=     6 MxSgA2=     6.
 Leave Link  302 at Wed Aug 26 19:39:37 2020, MaxMem=  2097152000 cpu:         1.9
 (Enter /opt/cluster/programs/g09/g09_d.01/g09/l303.exe)
 DipDrv:  MaxL=1.
 Leave Link  303 at Wed Aug 26 19:39:39 2020, MaxMem=  2097152000 cpu:         0.2
 (Enter /opt/cluster/programs/g09/g09_d.01/g09/l401.exe)
 ExpMin= 7.60D-02 ExpMax= 9.07D+04 ExpMxC= 8.76D+02 IAcc=2 IRadAn=         4 AccDes= 0.00D+00
 Harris functional with IExCor=  419 and IRadAn=       4 diagonalized for initial guess.
 HarFok:  IExCor=  419 AccDes= 0.00D+00 IRadAn=         4 IDoV= 1 UseB2=F ITyADJ=14
 ICtDFT=  3500011 ScaDFX=  1.000000  1.000000  1.000000  1.000000
 FoFCou: FMM=F IPFlag=           0 FMFlag=      100000 FMFlg1=           0
         NFxFlg=           0 DoJE=T BraDBF=F KetDBF=T FulRan=T
         wScrn=  0.000000 ICntrl=     500 IOpCl=  0 I1Cent=   200000004 NGrid=           0
         NMat0=    1 NMatS0=      1 NMatT0=    0 NMatD0=    1 NMtDS0=    0 NMtDT0=    0
 Petite list used in FoFCou.
 Harris En= -132.850034167233    
 JPrj=0 DoOrth=F DoCkMO=F.
 Leave Link  401 at Wed Aug 26 19:39:48 2020, MaxMem=  2097152000 cpu:         3.6
 (Enter /opt/cluster/programs/g09/g09_d.01/g09/l502.exe)
 Closed shell SCF:
 Using DIIS extrapolation, IDIIS=  1040.
 Integral symmetry usage will be decided dynamically.
 Keep R1 ints in memory in canonical form, NReq=601554820.
 IVT=      332521 IEndB=      332521 NGot=  2097152000 MDV=  1512290144
 LenX=  1512290144 LenY=  1512186662
 Requested convergence on RMS density matrix=1.00D-08 within 128 cycles.
 Requested convergence on MAX density matrix=1.00D-06.
 Requested convergence on             energy=1.00D-06.
 No special actions if energy rises.
 FoFCou: FMM=F IPFlag=           0 FMFlag=           0 FMFlg1=           0
         NFxFlg=           0 DoJE=F BraDBF=F KetDBF=F FulRan=T
         wScrn=  0.000000 ICntrl=     600 IOpCl=  0 I1Cent=           0 NGrid=           0
         NMat0=    1 NMatS0=  34191 NMatT0=    0 NMatD0=    1 NMtDS0=    0 NMtDT0=    0
 Symmetry not used in FoFCou.
 Integral accuracy reduced to 1.0D-05 until final iterations.

 Cycle   1  Pass 0  IDiag  1:
 E= -132.421741465241    
 DIIS: error= 2.80D-02 at cycle   1 NSaved=   1.
 NSaved= 1 IEnMin= 1 EnMin= -132.421741465241     IErMin= 1 ErrMin= 2.80D-02
 ErrMax= 2.80D-02  0.00D+00 EMaxC= 1.00D-01 BMatC= 1.87D-01 BMatP= 1.87D-01
 IDIUse=3 WtCom= 7.20D-01 WtEn= 2.80D-01
 Coeff-Com:  0.100D+01
 Coeff-En:   0.100D+01
 Coeff:      0.100D+01
 Gap=     0.455 Goal=   None    Shift=    0.000
 GapD=    0.455 DampG=2.000 DampE=0.500 DampFc=1.0000 IDamp=-1.
 RMSDP=1.26D-03 MaxDP=6.48D-02              OVMax= 1.63D-01

 Cycle   2  Pass 0  IDiag  1:
 E= -132.453558041354     Delta-E=       -0.031816576113 Rises=F Damp=F
 DIIS: error= 3.48D-02 at cycle   2 NSaved=   2.
 NSaved= 2 IEnMin= 2 EnMin= -132.453558041354     IErMin= 1 ErrMin= 2.80D-02
 ErrMax= 3.48D-02  0.00D+00 EMaxC= 1.00D-01 BMatC= 9.44D-02 BMatP= 1.87D-01
 IDIUse=3 WtCom= 6.52D-01 WtEn= 3.48D-01
 Coeff-Com:  0.398D+00 0.602D+00
 Coeff-En:   0.400D+00 0.600D+00
 Coeff:      0.399D+00 0.601D+00
 Gap=     0.432 Goal=   None    Shift=    0.000
 RMSDP=8.39D-04 MaxDP=3.30D-02 DE=-3.18D-02 OVMax= 1.23D-01

 Cycle   3  Pass 0  IDiag  1:
 E= -132.516645254360     Delta-E=       -0.063087213006 Rises=F Damp=F
 DIIS: error= 1.63D-02 at cycle   3 NSaved=   3.
 NSaved= 3 IEnMin= 3 EnMin= -132.516645254360     IErMin= 3 ErrMin= 1.63D-02
 ErrMax= 1.63D-02  0.00D+00 EMaxC= 1.00D-01 BMatC= 2.07D-02 BMatP= 9.44D-02
 IDIUse=3 WtCom= 8.37D-01 WtEn= 1.63D-01
 Coeff-Com:  0.977D-01 0.329D+00 0.573D+00
 Coeff-En:   0.000D+00 0.140D+00 0.860D+00
 Coeff:      0.818D-01 0.298D+00 0.620D+00
 Gap=     0.424 Goal=   None    Shift=    0.000
 RMSDP=2.77D-04 MaxDP=1.00D-02 DE=-6.31D-02 OVMax= 6.13D-02

 Cycle   4  Pass 0  IDiag  1:
 E= -132.530824311272     Delta-E=       -0.014179056912 Rises=F Damp=F
 DIIS: error= 6.05D-03 at cycle   4 NSaved=   4.
 NSaved= 4 IEnMin= 4 EnMin= -132.530824311272     IErMin= 4 ErrMin= 6.05D-03
 ErrMax= 6.05D-03  0.00D+00 EMaxC= 1.00D-01 BMatC= 3.30D-03 BMatP= 2.07D-02
 IDIUse=3 WtCom= 9.40D-01 WtEn= 6.05D-02
 Coeff-Com: -0.127D-01 0.539D-01 0.332D+00 0.627D+00
 Coeff-En:   0.000D+00 0.000D+00 0.152D+00 0.848D+00
 Coeff:     -0.120D-01 0.507D-01 0.321D+00 0.640D+00
 Gap=     0.425 Goal=   None    Shift=    0.000
 RMSDP=9.51D-05 MaxDP=2.84D-03 DE=-1.42D-02 OVMax= 1.67D-02

 Cycle   5  Pass 0  IDiag  1:
 E= -132.533677473154     Delta-E=       -0.002853161882 Rises=F Damp=F
 DIIS: error= 3.82D-04 at cycle   5 NSaved=   5.
 NSaved= 5 IEnMin= 5 EnMin= -132.533677473154     IErMin= 5 ErrMin= 3.82D-04
 ErrMax= 3.82D-04  0.00D+00 EMaxC= 1.00D-01 BMatC= 1.57D-05 BMatP= 3.30D-03
 IDIUse=3 WtCom= 9.96D-01 WtEn= 3.82D-03
 Coeff-Com: -0.345D-02 0.531D-02 0.472D-01 0.140D+00 0.811D+00
 Coeff-En:   0.000D+00 0.000D+00 0.000D+00 0.000D+00 0.100D+01
 Coeff:     -0.344D-02 0.529D-02 0.470D-01 0.140D+00 0.811D+00
 Gap=     0.424 Goal=   None    Shift=    0.000
 RMSDP=8.43D-06 MaxDP=3.04D-04 DE=-2.85D-03 OVMax= 1.32D-03

 Initial convergence to 1.0D-05 achieved.  Increase integral accuracy.
 Cycle   6  Pass 1  IDiag  1:
 E= -132.533691112431     Delta-E=       -0.000013639276 Rises=F Damp=F
 DIIS: error= 1.00D-04 at cycle   1 NSaved=   1.
 NSaved= 1 IEnMin= 1 EnMin= -132.533691112431     IErMin= 1 ErrMin= 1.00D-04
 ErrMax= 1.00D-04  0.00D+00 EMaxC= 1.00D-01 BMatC= 6.76D-07 BMatP= 6.76D-07
 IDIUse=3 WtCom= 9.99D-01 WtEn= 1.00D-03
 Coeff-Com:  0.100D+01
 Coeff-En:   0.100D+01
 Coeff:      0.100D+01
 Gap=     0.425 Goal=   None    Shift=    0.000
 RMSDP=8.43D-06 MaxDP=3.04D-04 DE=-1.36D-05 OVMax= 4.21D-04

 Cycle   7  Pass 1  IDiag  1:
 E= -132.533691505788     Delta-E=       -0.000000393358 Rises=F Damp=F
 DIIS: error= 5.60D-05 at cycle   2 NSaved=   2.
 NSaved= 2 IEnMin= 2 EnMin= -132.533691505788     IErMin= 2 ErrMin= 5.60D-05
 ErrMax= 5.60D-05  0.00D+00 EMaxC= 1.00D-01 BMatC= 3.12D-07 BMatP= 6.76D-07
 IDIUse=1 WtCom= 1.00D+00 WtEn= 0.00D+00
 Coeff-Com:  0.397D+00 0.603D+00
 Coeff:      0.397D+00 0.603D+00
 Gap=     0.424 Goal=   None    Shift=    0.000
 RMSDP=1.05D-06 MaxDP=3.80D-05 DE=-3.93D-07 OVMax= 1.83D-04

 Cycle   8  Pass 1  IDiag  1:
 E= -132.533691775683     Delta-E=       -0.000000269894 Rises=F Damp=F
 DIIS: error= 1.75D-05 at cycle   3 NSaved=   3.
 NSaved= 3 IEnMin= 3 EnMin= -132.533691775683     IErMin= 3 ErrMin= 1.75D-05
 ErrMax= 1.75D-05  0.00D+00 EMaxC= 1.00D-01 BMatC= 2.52D-08 BMatP= 3.12D-07
 IDIUse=1 WtCom= 1.00D+00 WtEn= 0.00D+00
 Coeff-Com:  0.124D+00 0.266D+00 0.610D+00
 Coeff:      0.124D+00 0.266D+00 0.610D+00
 Gap=     0.424 Goal=   None    Shift=    0.000
 RMSDP=5.60D-07 MaxDP=2.50D-05 DE=-2.70D-07 OVMax= 6.17D-05

 Cycle   9  Pass 1  IDiag  1:
 E= -132.533691791820     Delta-E=       -0.000000016138 Rises=F Damp=F
 DIIS: error= 1.13D-05 at cycle   4 NSaved=   4.
 NSaved= 4 IEnMin= 4 EnMin= -132.533691791820     IErMin= 4 ErrMin= 1.13D-05
 ErrMax= 1.13D-05  0.00D+00 EMaxC= 1.00D-01 BMatC= 6.71D-09 BMatP= 2.52D-08
 IDIUse=1 WtCom= 1.00D+00 WtEn= 0.00D+00
 Coeff-Com: -0.594D-01-0.354D-01 0.364D+00 0.731D+00
 Coeff:     -0.594D-01-0.354D-01 0.364D+00 0.731D+00
 Gap=     0.424 Goal=   None    Shift=    0.000
 RMSDP=3.01D-07 MaxDP=1.39D-05 DE=-1.61D-08 OVMax= 3.30D-05

 Cycle  10  Pass 1  IDiag  1:
 E= -132.533691798303     Delta-E=       -0.000000006482 Rises=F Damp=F
 DIIS: error= 1.11D-06 at cycle   5 NSaved=   5.
 NSaved= 5 IEnMin= 5 EnMin= -132.533691798303     IErMin= 5 ErrMin= 1.11D-06
 ErrMax= 1.11D-06  0.00D+00 EMaxC= 1.00D-01 BMatC= 1.03D-10 BMatP= 6.71D-09
 IDIUse=1 WtCom= 1.00D+00 WtEn= 0.00D+00
 Coeff-Com: -0.220D-01-0.204D-01 0.745D-01 0.217D+00 0.751D+00
 Coeff:     -0.220D-01-0.204D-01 0.745D-01 0.217D+00 0.751D+00
 Gap=     0.424 Goal=   None    Shift=    0.000
 RMSDP=4.36D-08 MaxDP=2.07D-06 DE=-6.48D-09 OVMax= 3.46D-06

 Cycle  11  Pass 1  IDiag  1:
 E= -132.533691798389     Delta-E=       -0.000000000086 Rises=F Damp=F
 DIIS: error= 1.96D-07 at cycle   6 NSaved=   6.
 NSaved= 6 IEnMin= 6 EnMin= -132.533691798389     IErMin= 6 ErrMin= 1.96D-07
 ErrMax= 1.96D-07  0.00D+00 EMaxC= 1.00D-01 BMatC= 5.26D-12 BMatP= 1.03D-10
 IDIUse=1 WtCom= 1.00D+00 WtEn= 0.00D+00
 Coeff-Com:  0.209D-02 0.169D-03-0.256D-01-0.232D-01 0.123D+00 0.923D+00
 Coeff:      0.209D-02 0.169D-03-0.256D-01-0.232D-01 0.123D+00 0.923D+00
 Gap=     0.424 Goal=   None    Shift=    0.000
 RMSDP=9.29D-09 MaxDP=4.03D-07 DE=-8.64D-11 OVMax= 7.51D-07

 SCF Done:  E(RB2PLYPD3) =  -132.533691798     A.U. after   11 cycles
            NFock= 11  Conv=0.93D-08     -V/T= 2.0038
 KE= 1.320257238729D+02 PE=-4.254806320883D+02 EE= 1.024715652812D+02
 Leave Link  502 at Wed Aug 26 19:40:19 2020, MaxMem=  2097152000 cpu:       163.4
 (Enter /opt/cluster/programs/g09/g09_d.01/g09/l801.exe)
 DoSCS=T DFT=T ScalE2(SS,OS)=  0.270000  0.270000
 ExpMin= 7.60D-02 ExpMax= 9.07D+04 ExpMxC= 8.76D+02 IAcc=3 IRadAn=         5 AccDes= 0.00D+00
 HarFok:  IExCor=  205 AccDes= 0.00D+00 IRadAn=         5 IDoV=-2 UseB2=F ITyADJ=14
 ICtDFT= 12500011 ScaDFX=  1.000000  1.000000  1.000000  1.000000
 Largest valence mixing into a core orbital is  1.17D-04
 Largest core mixing into a valence orbital is  1.98D-05
 Range of M.O.s used for correlation:     4   261
 NBasis=   261 NAE=    11 NBE=    11 NFC=     3 NFV=     0
 NROrb=    258 NOA=     8 NOB=     8 NVA=   250 NVB=   250

 **** Warning!!: The largest alpha MO coefficient is  0.27786757D+02

 Leave Link  801 at Wed Aug 26 19:40:45 2020, MaxMem=  2097152000 cpu:         0.6
 (Enter /opt/cluster/programs/g09/g09_d.01/g09/l906.exe)
 DoSCS=T DFT=T ScalE2(SS,OS)=  0.270000  0.270000
 FulOut=F Deriv=F AODrv=F NAtomX=     6
   MMem=        2666  MDisk=           8 MDiskD=           8
  W3Min=      642000 MinDsk=     1426009 NBas6D=         321
 NBas2D=       52689    NTT=       51681    LW2=     4508827
    MDV=  2096809401 MDiskM=       14501 NBas2p=       52125
 Fully direct method using O(OVN) memory.
 IMap=   1   2   3   4   5   6   7   8
 JobTyp=1 Pass  1:  I=   1 to   8 NPSUse=  8 ParTrn=T ParDer=T DoDerP=F.
 Spin components of T(2) and E(2):
     alpha-alpha T2 =       0.3632076763D-01 E2=     -0.2156915249D-01
     alpha-beta  T2 =       0.2114023404D+00 E2=     -0.1382149022D+00
     beta-beta   T2 =       0.3632076763D-01 E2=     -0.2156915249D-01
 The integrals were generated   1 times.
 E2(B2PLYPD3) =    -0.1813532071D+00 E(B2PLYPD3) =    -0.13271504500553D+03
 Leave Link  906 at Wed Aug 26 19:40:59 2020, MaxMem=  2097152000 cpu:        92.1
 (Enter /opt/cluster/programs/g09/g09_d.01/g09/l601.exe)
 Copying SCF densities to generalized density rwf, IOpCl= 0 IROHF=0.

 **********************************************************************

            Population analysis using the SCF density.

 **********************************************************************

 Orbital symmetries:
       Occupied  (A) (A) (A) (A) (A) (A) (A) (A) (A) (A) (A)
       Virtual   (A) (A) (A) (A) (A) (A) (A) (A) (A) (A) (A) (A)
                 (A) (A) (A) (A) (A) (A) (A) (A) (A) (A) (A) (A)
                 (A) (A) (A) (A) (A) (A) (A) (A) (A) (A) (A) (A)
                 (A) (A) (A) (A) (A) (A) (A) (A) (A) (A) (A) (A)
                 (A) (A) (A) (A) (A) (A) (A) (A) (A) (A) (A) (A)
                 (A) (A) (A) (A) (A) (A) (A) (A) (A) (A) (A) (A)
                 (A) (A) (A) (A) (A) (A) (A) (A) (A) (A) (A) (A)
                 (A) (A) (A) (A) (A) (A) (A) (A) (A) (A) (A) (A)
                 (A) (A) (A) (A) (A) (A) (A) (A) (A) (A) (A) (A)
                 (A) (A) (A) (A) (A) (A) (A) (A) (A) (A) (A) (A)
                 (A) (A) (A) (A) (A) (A) (A) (A) (A) (A) (A) (A)
                 (A) (A) (A) (A) (A) (A) (A) (A) (A) (A) (A) (A)
                 (A) (A) (A) (A) (A) (A) (A) (A) (A) (A) (A) (A)
                 (A) (A) (A) (A) (A) (A) (A) (A) (A) (A) (A) (A)
                 (A) (A) (A) (A) (A) (A) (A) (A) (A) (A) (A) (A)
                 (A) (A) (A) (A) (A) (A) (A) (A) (A) (A) (A) (A)
                 (A) (A) (A) (A) (A) (A) (A) (A) (A) (A) (A) (A)
                 (A) (A) (A) (A) (A) (A) (A) (A) (A) (A) (A) (A)
                 (A) (A) (A) (A) (A) (A) (A) (A) (A) (A) (A) (A)
                 (A) (A) (A) (A) (A) (A) (A) (A) (A) (A) (A) (A)
                 (A) (A) (A) (A) (A) (A) (A) (A) (A) (A)
 The electronic state is 1-A.
 Alpha  occ. eigenvalues --  -14.84429 -10.67022 -10.66494  -1.03648  -0.89494
 Alpha  occ. eigenvalues --   -0.59541  -0.54965  -0.53599  -0.44759  -0.38833
 Alpha  occ. eigenvalues --   -0.38669
 Alpha virt. eigenvalues --    0.03767   0.07649   0.07988   0.10152   0.11235
 Alpha virt. eigenvalues --    0.11416   0.15358   0.16004   0.16246   0.20126
 Alpha virt. eigenvalues --    0.20175   0.25390   0.32584   0.34218   0.35049
 Alpha virt. eigenvalues --    0.38686   0.39621   0.39926   0.40545   0.47078
 Alpha virt. eigenvalues --    0.50950   0.51735   0.59058   0.59834   0.61399
 Alpha virt. eigenvalues --    0.66678   0.67325   0.68857   0.70176   0.79283
 Alpha virt. eigenvalues --    0.79591   0.82528   0.82653   0.83368   0.86484
 Alpha virt. eigenvalues --    0.92129   0.92727   0.96060   0.96389   0.97109
 Alpha virt. eigenvalues --    1.05485   1.07010   1.08136   1.11587   1.13159
 Alpha virt. eigenvalues --    1.14145   1.22752   1.23013   1.23473   1.35431
 Alpha virt. eigenvalues --    1.35506   1.45328   1.46780   1.48187   1.54327
 Alpha virt. eigenvalues --    1.64998   1.66492   1.70133   1.74700   1.78216
 Alpha virt. eigenvalues --    1.78669   1.79356   1.88189   1.92553   1.92792
 Alpha virt. eigenvalues --    1.93795   1.99162   1.99706   2.01121   2.03768
 Alpha virt. eigenvalues --    2.06052   2.11724   2.13843   2.20674   2.21668
 Alpha virt. eigenvalues --    2.21799   2.23783   2.24761   2.34534   2.37039
 Alpha virt. eigenvalues --    2.43206   2.50950   2.51555   2.57383   2.58666
 Alpha virt. eigenvalues --    2.60065   2.67057   2.70089   2.71087   2.72309
 Alpha virt. eigenvalues --    2.76677   2.78344   2.86833   2.88994   2.90187
 Alpha virt. eigenvalues --    2.93054   2.93874   2.95588   2.96714   3.06245
 Alpha virt. eigenvalues --    3.10410   3.12106   3.21350   3.27216   3.31569
 Alpha virt. eigenvalues --    3.34993   3.38661   3.41108   3.41674   3.47918
 Alpha virt. eigenvalues --    3.55402   3.56921   3.71830   3.72942   3.74809
 Alpha virt. eigenvalues --    3.89529   3.90733   3.93131   3.96163   3.97321
 Alpha virt. eigenvalues --    4.00604   4.05556   4.05905   4.25690   4.26647
 Alpha virt. eigenvalues --    4.54966   4.91215   4.91283   5.06018   5.08611
 Alpha virt. eigenvalues --    5.09199   5.19181   5.20135   5.21757   5.23197
 Alpha virt. eigenvalues --    5.33178   5.45431   5.45904   5.46844   5.66390
 Alpha virt. eigenvalues --    5.66986   5.85332   5.86394   5.91488   5.93004
 Alpha virt. eigenvalues --    5.93429   5.97921   5.99807   6.00213   6.02876
 Alpha virt. eigenvalues --    6.03562   6.05612   6.06160   6.08799   6.12883
 Alpha virt. eigenvalues --    6.19930   6.20526   6.21109   6.29061   6.30645
 Alpha virt. eigenvalues --    6.39446   6.42197   6.49177   6.56511   6.60871
 Alpha virt. eigenvalues --    6.63760   6.65562   6.91081   6.94503   6.95752
 Alpha virt. eigenvalues --    6.98090   7.02531   7.02565   7.08389   7.10824
 Alpha virt. eigenvalues --    7.17070   7.18476   7.25072   7.44030   7.47755
 Alpha virt. eigenvalues --    7.49273   7.50714   7.57002   7.57916   7.60984
 Alpha virt. eigenvalues --    7.66071   7.72123   7.73959   7.83472   7.84981
 Alpha virt. eigenvalues --    7.85674   7.92644   7.96666   8.01493   8.28921
 Alpha virt. eigenvalues --    8.31900   8.33955   8.42147   8.42892   8.45141
 Alpha virt. eigenvalues --    8.47926   8.50265   8.51146   8.54254   8.58329
 Alpha virt. eigenvalues --    8.58774   8.65982   8.66506   8.66768   8.67871
 Alpha virt. eigenvalues --    8.69853   8.83418   8.86274   8.88016   9.03416
 Alpha virt. eigenvalues --    9.08695   9.09958   9.13537   9.14352   9.16091
 Alpha virt. eigenvalues --    9.25219   9.27346   9.72039   9.73117   9.85070
 Alpha virt. eigenvalues --    9.88981   9.92063   9.94554   9.98311  10.09197
 Alpha virt. eigenvalues --   10.13159  10.13660  10.20709  10.34783  10.41567
 Alpha virt. eigenvalues --   10.54219  10.70924  11.36531  11.64903  11.82613
 Alpha virt. eigenvalues --   11.96223  11.99675  13.10957  13.57932  29.18223
 Alpha virt. eigenvalues --   29.57546  38.28815 148.83621 149.20226 198.20080
          Condensed to atoms (all electrons):
               1          2          3          4          5          6
     1  C    4.609799   0.294752  -0.059477   0.411369   0.413604   0.416803
     2  C    0.294752   4.859581   0.979957  -0.042500  -0.045296  -0.045804
     3  N   -0.059477   0.979957   6.294383  -0.000950  -0.000665  -0.001040
     4  H    0.411369  -0.042500  -0.000950   0.595533  -0.029523  -0.029994
     5  H    0.413604  -0.045296  -0.000665  -0.029523   0.590223  -0.028650
     6  H    0.416803  -0.045804  -0.001040  -0.029994  -0.028650   0.585306
 Mulliken charges:
               1
     1  C   -0.086851
     2  C   -0.000690
     3  N   -0.212209
     4  H    0.096065
     5  H    0.100307
     6  H    0.103378
 Sum of Mulliken charges =   0.00000
 Mulliken charges with hydrogens summed into heavy atoms:
               1
     1  C    0.212899
     2  C   -0.000690
     3  N   -0.212209
 Electronic spatial extent (au):  <R**2>=            161.7465
 Charge=              0.0000 electrons
 Dipole moment (field-independent basis, Debye):
    X=              4.1388    Y=              0.0048    Z=              0.0051  Tot=              4.1388
 Quadrupole moment (field-independent basis, Debye-Ang):
   XX=            -21.1152   YY=            -17.7151   ZZ=            -17.7735
   XY=             -0.0375   XZ=              0.0291   YZ=              0.0457
 Traceless Quadrupole moment (field-independent basis, Debye-Ang):
   XX=             -2.2473   YY=              1.1528   ZZ=              1.0945
   XY=             -0.0375   XZ=              0.0291   YZ=              0.0457
 Octapole moment (field-independent basis, Debye-Ang**2):
  XXX=             12.6636  YYY=              0.7636  ZZZ=              0.0593  XYY=              2.3618
  XXY=             -0.0581  XXZ=              0.0838  XZZ=              2.2914  YZZ=             -0.8170
  YYZ=             -0.1965  XYZ=              0.0379
 Hexadecapole moment (field-independent basis, Debye-Ang**3):
 XXXX=           -182.6493 YYYY=            -24.6213 ZZZZ=            -24.6735 XXXY=             -0.1957
 XXXZ=              0.1161 YYYX=              1.3085 YYYZ=              0.1371 ZZZX=              0.2606
 ZZZY=              0.0744 XXYY=            -31.1087 XXZZ=            -31.1764 YYZZ=             -8.2105
 XXYZ=              0.0420 YYXZ=             -0.2695 ZZXY=             -1.3333
 N-N= 5.844965113580D+01 E-N=-4.254806158422D+02  KE= 1.320257238729D+02
 Leave Link  601 at Wed Aug 26 19:41:03 2020, MaxMem=  2097152000 cpu:         0.3
 (Enter /opt/cluster/programs/g09/g09_d.01/g09/l9999.exe)
 1\1\GINC-NODE22\SP\RB2PLYPD3-FC\def2QZVP\C2H3N1\BOITTIER\26-Aug-2020\0
 \\#p B2PLYPD3/Def2QZVP\\cyanomethane\\0,1\C,0,-6.603932,-1.108203,1.15
 9651\C,0,-5.202109,-0.808976,0.914968\N,0,-4.091444,-0.528156,0.700249
 \H,0,-6.770978,-1.221994,2.250543\H,0,-6.841026,-2.049598,0.67542\H,0,
 -7.198126,-0.308638,0.796316\\Version=ES64L-G09RevD.01\State=1-A\HF=-1
 32.5336918\MP2=-132.715045\RMSD=9.286e-09\PG=C01 [X(C2H3N1)]\\@


 MEMORIES ARE LIKE AN ENGLISH GRAMMER LESSON -
 PRESENT TENSE, AND PAST PERFECT.
 Job cpu time:       0 days  0 hours  4 minutes 35.5 seconds.
 File lengths (MBytes):  RWF=     28 Int=      0 D2E=      0 Chk=      5 Scr=      1
 Normal termination of Gaussian 09 at Wed Aug 26 19:41:18 2020.
