 Entering Gaussian System, Link 0=/opt/cluster/programs/g09/g09_d.01/g09//g09
 Input=/home/boittier/MDCM/nms_sampling/cyanomethane_geom.xyz.dir/energies/cyanomethane_3119_energy.com
 Output=/scratch/boittier/cyanomethane_3119_energy/cyanomethane_3119_energy.out
 Initial command:
 /opt/cluster/programs/g09/g09_d.01/g09/l1.exe "/scratch/boittier/cyanomethane_3119_energy/Gau-5526.inp" -scrdir="/scratch/boittier/cyanomethane_3119_energy/"
 Entering Link 1 = /opt/cluster/programs/g09/g09_d.01/g09/l1.exe PID=      5527.
  
 Copyright (c) 1988,1990,1992,1993,1995,1998,2003,2009,2013,
            Gaussian, Inc.  All Rights Reserved.
  
 This is part of the Gaussian(R) 09 program.  It is based on
 the Gaussian(R) 03 system (copyright 2003, Gaussian, Inc.),
 the Gaussian(R) 98 system (copyright 1998, Gaussian, Inc.),
 the Gaussian(R) 94 system (copyright 1995, Gaussian, Inc.),
 the Gaussian 92(TM) system (copyright 1992, Gaussian, Inc.),
 the Gaussian 90(TM) system (copyright 1990, Gaussian, Inc.),
 the Gaussian 88(TM) system (copyright 1988, Gaussian, Inc.),
 the Gaussian 86(TM) system (copyright 1986, Carnegie Mellon
 University), and the Gaussian 82(TM) system (copyright 1983,
 Carnegie Mellon University). Gaussian is a federally registered
 trademark of Gaussian, Inc.
  
 This software contains proprietary and confidential information,
 including trade secrets, belonging to Gaussian, Inc.
  
 This software is provided under written license and may be
 used, copied, transmitted, or stored only in accord with that
 written license.
  
 The following legend is applicable only to US Government
 contracts under FAR:
  
                    RESTRICTED RIGHTS LEGEND
  
 Use, reproduction and disclosure by the US Government is
 subject to restrictions as set forth in subparagraphs (a)
 and (c) of the Commercial Computer Software - Restricted
 Rights clause in FAR 52.227-19.
  
 Gaussian, Inc.
 340 Quinnipiac St., Bldg. 40, Wallingford CT 06492
  
  
 ---------------------------------------------------------------
 Warning -- This program may not be used in any manner that
 competes with the business of Gaussian, Inc. or will provide
 assistance to any competitor of Gaussian, Inc.  The licensee
 of this program is prohibited from giving any competitor of
 Gaussian, Inc. access to this program.  By using this program,
 the user acknowledges that Gaussian, Inc. is engaged in the
 business of creating and licensing software in the field of
 computational chemistry and represents and warrants to the
 licensee that it is not a competitor of Gaussian, Inc. and that
 it will not use this program in any manner prohibited above.
 ---------------------------------------------------------------
  

 Cite this work as:
 Gaussian 09, Revision D.01,
 M. J. Frisch, G. W. Trucks, H. B. Schlegel, G. E. Scuseria, 
 M. A. Robb, J. R. Cheeseman, G. Scalmani, V. Barone, B. Mennucci, 
 G. A. Petersson, H. Nakatsuji, M. Caricato, X. Li, H. P. Hratchian, 
 A. F. Izmaylov, J. Bloino, G. Zheng, J. L. Sonnenberg, M. Hada, 
 M. Ehara, K. Toyota, R. Fukuda, J. Hasegawa, M. Ishida, T. Nakajima, 
 Y. Honda, O. Kitao, H. Nakai, T. Vreven, J. A. Montgomery, Jr., 
 J. E. Peralta, F. Ogliaro, M. Bearpark, J. J. Heyd, E. Brothers, 
 K. N. Kudin, V. N. Staroverov, T. Keith, R. Kobayashi, J. Normand, 
 K. Raghavachari, A. Rendell, J. C. Burant, S. S. Iyengar, J. Tomasi, 
 M. Cossi, N. Rega, J. M. Millam, M. Klene, J. E. Knox, J. B. Cross, 
 V. Bakken, C. Adamo, J. Jaramillo, R. Gomperts, R. E. Stratmann, 
 O. Yazyev, A. J. Austin, R. Cammi, C. Pomelli, J. W. Ochterski, 
 R. L. Martin, K. Morokuma, V. G. Zakrzewski, G. A. Voth, 
 P. Salvador, J. J. Dannenberg, S. Dapprich, A. D. Daniels, 
 O. Farkas, J. B. Foresman, J. V. Ortiz, J. Cioslowski, 
 and D. J. Fox, Gaussian, Inc., Wallingford CT, 2013.
 
 ******************************************
 Gaussian 09:  ES64L-G09RevD.01 24-Apr-2013
                26-Aug-2020 
 ******************************************
 %chk=/home/boittier/MDCM/nms_sampling/cyanomethane_geom.xyz.dir/cyanomethane_311
 9.chk
 %nproc=8
 Will use up to    8 processors via shared memory.
 %mem=16000MB
 --------------------
 #p B2PLYPD3/Def2QZVP
 --------------------
 1/38=1/1;
 2/12=2,17=6,18=5,40=1/2;
 3/5=45,7=101,11=9,16=1,25=1,30=1,74=-60/1,2,3;
 4//1;
 5/5=2,38=5/2;
 8/10=1/1;
 9/16=-3/6;
 6/7=2,8=2,9=2,10=2/1;
 99/5=1,9=1/99;
 Leave Link    1 at Wed Aug 26 22:26:39 2020, MaxMem=  2097152000 cpu:         0.3
 (Enter /opt/cluster/programs/g09/g09_d.01/g09/l101.exe)
 ------------
 cyanomethane
 ------------
 Symbolic Z-matrix:
 Charge =  0 Multiplicity = 1
 C                    -6.59429  -1.11509   1.16971 
 C                    -5.2045   -0.77056   0.97594 
 N                    -4.10742  -0.54305   0.66113 
 H                    -6.57396  -1.31365   2.10153 
 H                    -6.95238  -2.10191   0.55956 
 H                    -7.1444   -0.28902   0.74941 
 
 NAtoms=      6 NQM=        6 NQMF=       0 NMMI=      0 NMMIF=      0
                NMic=       0 NMicF=      0.
                    Isotopes and Nuclear Properties:
 (Nuclear quadrupole moments (NQMom) in fm**2, nuclear magnetic moments (NMagM)
  in nuclear magnetons)

  Atom         1           2           3           4           5           6
 IAtWgt=          12          12          14           1           1           1
 AtmWgt=  12.0000000  12.0000000  14.0030740   1.0078250   1.0078250   1.0078250
 NucSpn=           0           0           2           1           1           1
 AtZEff=   0.0000000   0.0000000   0.0000000   0.0000000   0.0000000   0.0000000
 NQMom=    0.0000000   0.0000000   2.0440000   0.0000000   0.0000000   0.0000000
 NMagM=    0.0000000   0.0000000   0.4037610   2.7928460   2.7928460   2.7928460
 AtZNuc=   6.0000000   6.0000000   7.0000000   1.0000000   1.0000000   1.0000000
 Leave Link  101 at Wed Aug 26 22:26:39 2020, MaxMem=  2097152000 cpu:         0.5
 (Enter /opt/cluster/programs/g09/g09_d.01/g09/l202.exe)
                          Input orientation:                          
 ---------------------------------------------------------------------
 Center     Atomic      Atomic             Coordinates (Angstroms)
 Number     Number       Type             X           Y           Z
 ---------------------------------------------------------------------
      1          6           0       -6.594288   -1.115087    1.169709
      2          6           0       -5.204499   -0.770556    0.975938
      3          7           0       -4.107420   -0.543045    0.661133
      4          1           0       -6.573964   -1.313654    2.101527
      5          1           0       -6.952377   -2.101914    0.559563
      6          1           0       -7.144396   -0.289015    0.749409
 ---------------------------------------------------------------------
                    Distance matrix (angstroms):
                    1          2          3          4          5
     1  C    0.000000
     2  C    1.444909   0.000000
     3  N    2.601998   1.163807   0.000000
     4  H    0.952957   1.854007   2.958448   0.000000
     5  H    1.214221   2.236283   3.245639   1.772626   0.000000
     6  H    1.077806   2.011566   3.048860   1.789833   1.832898
                    6
     6  H    0.000000
 Stoichiometry    C2H3N
 Framework group  C1[X(C2H3N)]
 Deg. of freedom    12
 Full point group                 C1      NOp   1
 Largest Abelian subgroup         C1      NOp   1
 Largest concise Abelian subgroup C1      NOp   1
                         Standard orientation:                         
 ---------------------------------------------------------------------
 Center     Atomic      Atomic             Coordinates (Angstroms)
 Number     Number       Type             X           Y           Z
 ---------------------------------------------------------------------
      1          6           0       -1.179652    0.017691    0.018469
      2          6           0        0.264302    0.022274    0.070808
      3          7           0        1.421204   -0.021307   -0.048037
      4          1           0       -1.365242   -0.157068    0.936697
      5          1           0       -1.650478   -0.872570   -0.659831
      6          1           0       -1.440611    0.938997   -0.476265
 ---------------------------------------------------------------------
 Rotational constants (GHZ):    151.4554946      9.4104194      9.3998222
 Leave Link  202 at Wed Aug 26 22:26:39 2020, MaxMem=  2097152000 cpu:         0.0
 (Enter /opt/cluster/programs/g09/g09_d.01/g09/l301.exe)
 Standard basis: def2QZVP (5D, 7F)
 Ernie: Thresh=  0.10000D-02 Tol=  0.10000D-05 Strict=F.
 There are   321 symmetry adapted cartesian basis functions of A   symmetry.
 There are   261 symmetry adapted basis functions of A   symmetry.
   261 basis functions,   390 primitive gaussians,   321 cartesian basis functions
    11 alpha electrons       11 beta electrons
       nuclear repulsion energy        58.9179006107 Hartrees.
 IExCor=  419 DFT=T Ex+Corr=B2PLYPD3 ExCW=0 ScaHFX=  0.530000
 ScaDFX=  0.470000  0.470000  0.730000  0.730000 ScalE2=  0.270000  0.270000
 IRadAn=      0 IRanWt=     -1 IRanGd=            0 ICorTp=0 IEmpDi=141
 NAtoms=    6 NActive=    6 NUniq=    6 SFac= 1.00D+00 NAtFMM=   60 NAOKFM=F Big=F
 Integral buffers will be    131072 words long.
 Regular integral format.
 Two-electron integral symmetry is turned on.
 R6Disp:  Grimme-D3(BJ) Dispersion energy=       -0.0021208824 Hartrees.
 Nuclear repulsion after empirical dispersion term =       58.9157797283 Hartrees.
 Leave Link  301 at Wed Aug 26 22:26:39 2020, MaxMem=  2097152000 cpu:         0.4
 (Enter /opt/cluster/programs/g09/g09_d.01/g09/l302.exe)
 NPDir=0 NMtPBC=     1 NCelOv=     1 NCel=       1 NClECP=     1 NCelD=      1
         NCelK=      1 NCelE2=     1 NClLst=     1 CellRange=     0.0.
 One-electron integrals computed using PRISM.
   1 Symmetry operations used in ECPInt.
 ECPInt:  NShTT=    3321 NPrTT=    8136 LenC2=    3298 LenP2D=    7141.
 LDataN:  DoStor=T MaxTD1= 8 Len=  415
 NBasis=   261 RedAO= T EigKep=  6.80D-05  NBF=   261
 NBsUse=   261 1.00D-06 EigRej= -1.00D+00 NBFU=   261
 Precomputing XC quadrature grid using
 IXCGrd= 4 IRadAn=           0 IRanWt=          -1 IRanGd=           0 AccXCQ= 0.00D+00.
 Generated NRdTot=       0 NPtTot=           0 NUsed=           0 NTot=          32
 NSgBfM=   321   321   321   321   321 MxSgAt=     6 MxSgA2=     6.
 Leave Link  302 at Wed Aug 26 22:26:41 2020, MaxMem=  2097152000 cpu:         2.3
 (Enter /opt/cluster/programs/g09/g09_d.01/g09/l303.exe)
 DipDrv:  MaxL=1.
 Leave Link  303 at Wed Aug 26 22:26:41 2020, MaxMem=  2097152000 cpu:         0.2
 (Enter /opt/cluster/programs/g09/g09_d.01/g09/l401.exe)
 ExpMin= 7.60D-02 ExpMax= 9.07D+04 ExpMxC= 8.76D+02 IAcc=2 IRadAn=         4 AccDes= 0.00D+00
 Harris functional with IExCor=  419 and IRadAn=       4 diagonalized for initial guess.
 HarFok:  IExCor=  419 AccDes= 0.00D+00 IRadAn=         4 IDoV= 1 UseB2=F ITyADJ=14
 ICtDFT=  3500011 ScaDFX=  1.000000  1.000000  1.000000  1.000000
 FoFCou: FMM=F IPFlag=           0 FMFlag=      100000 FMFlg1=           0
         NFxFlg=           0 DoJE=T BraDBF=F KetDBF=T FulRan=T
         wScrn=  0.000000 ICntrl=     500 IOpCl=  0 I1Cent=   200000004 NGrid=           0
         NMat0=    1 NMatS0=      1 NMatT0=    0 NMatD0=    1 NMtDS0=    0 NMtDT0=    0
 Petite list used in FoFCou.
 Harris En= -132.826114339552    
 JPrj=0 DoOrth=F DoCkMO=F.
 Leave Link  401 at Wed Aug 26 22:26:42 2020, MaxMem=  2097152000 cpu:         4.4
 (Enter /opt/cluster/programs/g09/g09_d.01/g09/l502.exe)
 Closed shell SCF:
 Using DIIS extrapolation, IDIIS=  1040.
 Integral symmetry usage will be decided dynamically.
 Keep R1 ints in memory in canonical form, NReq=601554820.
 IVT=      332521 IEndB=      332521 NGot=  2097152000 MDV=  1512290144
 LenX=  1512290144 LenY=  1512186662
 Requested convergence on RMS density matrix=1.00D-08 within 128 cycles.
 Requested convergence on MAX density matrix=1.00D-06.
 Requested convergence on             energy=1.00D-06.
 No special actions if energy rises.
 FoFCou: FMM=F IPFlag=           0 FMFlag=           0 FMFlg1=           0
         NFxFlg=           0 DoJE=F BraDBF=F KetDBF=F FulRan=T
         wScrn=  0.000000 ICntrl=     600 IOpCl=  0 I1Cent=           0 NGrid=           0
         NMat0=    1 NMatS0=  34191 NMatT0=    0 NMatD0=    1 NMtDS0=    0 NMtDT0=    0
 Symmetry not used in FoFCou.
 Integral accuracy reduced to 1.0D-05 until final iterations.

 Cycle   1  Pass 0  IDiag  1:
 E= -132.381004329798    
 DIIS: error= 2.55D-02 at cycle   1 NSaved=   1.
 NSaved= 1 IEnMin= 1 EnMin= -132.381004329798     IErMin= 1 ErrMin= 2.55D-02
 ErrMax= 2.55D-02  0.00D+00 EMaxC= 1.00D-01 BMatC= 1.96D-01 BMatP= 1.96D-01
 IDIUse=3 WtCom= 7.45D-01 WtEn= 2.55D-01
 Coeff-Com:  0.100D+01
 Coeff-En:   0.100D+01
 Coeff:      0.100D+01
 Gap=     0.419 Goal=   None    Shift=    0.000
 GapD=    0.419 DampG=2.000 DampE=0.500 DampFc=1.0000 IDamp=-1.
 RMSDP=1.30D-03 MaxDP=6.57D-02              OVMax= 1.62D-01

 Cycle   2  Pass 0  IDiag  1:
 E= -132.420478005665     Delta-E=       -0.039473675867 Rises=F Damp=F
 DIIS: error= 3.15D-02 at cycle   2 NSaved=   2.
 NSaved= 2 IEnMin= 2 EnMin= -132.420478005665     IErMin= 1 ErrMin= 2.55D-02
 ErrMax= 3.15D-02  0.00D+00 EMaxC= 1.00D-01 BMatC= 9.48D-02 BMatP= 1.96D-01
 IDIUse=3 WtCom= 6.85D-01 WtEn= 3.15D-01
 Coeff-Com:  0.393D+00 0.607D+00
 Coeff-En:   0.380D+00 0.620D+00
 Coeff:      0.389D+00 0.611D+00
 Gap=     0.431 Goal=   None    Shift=    0.000
 RMSDP=8.40D-04 MaxDP=3.26D-02 DE=-3.95D-02 OVMax= 1.22D-01

 Cycle   3  Pass 0  IDiag  1:
 E= -132.485011039806     Delta-E=       -0.064533034140 Rises=F Damp=F
 DIIS: error= 1.20D-02 at cycle   3 NSaved=   3.
 NSaved= 3 IEnMin= 3 EnMin= -132.485011039806     IErMin= 3 ErrMin= 1.20D-02
 ErrMax= 1.20D-02  0.00D+00 EMaxC= 1.00D-01 BMatC= 2.04D-02 BMatP= 9.48D-02
 IDIUse=3 WtCom= 8.80D-01 WtEn= 1.20D-01
 Coeff-Com:  0.101D+00 0.329D+00 0.570D+00
 Coeff-En:   0.000D+00 0.122D+00 0.878D+00
 Coeff:      0.886D-01 0.304D+00 0.607D+00
 Gap=     0.412 Goal=   None    Shift=    0.000
 RMSDP=2.74D-04 MaxDP=1.00D-02 DE=-6.45D-02 OVMax= 6.04D-02

 Cycle   4  Pass 0  IDiag  1:
 E= -132.498858949516     Delta-E=       -0.013847909710 Rises=F Damp=F
 DIIS: error= 4.46D-03 at cycle   4 NSaved=   4.
 NSaved= 4 IEnMin= 4 EnMin= -132.498858949516     IErMin= 4 ErrMin= 4.46D-03
 ErrMax= 4.46D-03  0.00D+00 EMaxC= 1.00D-01 BMatC= 3.24D-03 BMatP= 2.04D-02
 IDIUse=3 WtCom= 9.55D-01 WtEn= 4.46D-02
 Coeff-Com: -0.130D-01 0.552D-01 0.331D+00 0.627D+00
 Coeff-En:   0.000D+00 0.000D+00 0.152D+00 0.848D+00
 Coeff:     -0.125D-01 0.527D-01 0.323D+00 0.637D+00
 Gap=     0.413 Goal=   None    Shift=    0.000
 RMSDP=9.43D-05 MaxDP=3.01D-03 DE=-1.38D-02 OVMax= 1.67D-02

 Cycle   5  Pass 0  IDiag  1:
 E= -132.501668816738     Delta-E=       -0.002809867223 Rises=F Damp=F
 DIIS: error= 3.11D-04 at cycle   5 NSaved=   5.
 NSaved= 5 IEnMin= 5 EnMin= -132.501668816738     IErMin= 5 ErrMin= 3.11D-04
 ErrMax= 3.11D-04  0.00D+00 EMaxC= 1.00D-01 BMatC= 1.22D-05 BMatP= 3.24D-03
 IDIUse=3 WtCom= 9.97D-01 WtEn= 3.11D-03
 Coeff-Com: -0.343D-02 0.507D-02 0.457D-01 0.131D+00 0.822D+00
 Coeff-En:   0.000D+00 0.000D+00 0.000D+00 0.000D+00 0.100D+01
 Coeff:     -0.342D-02 0.505D-02 0.456D-01 0.130D+00 0.823D+00
 Gap=     0.412 Goal=   None    Shift=    0.000
 RMSDP=8.46D-06 MaxDP=3.15D-04 DE=-2.81D-03 OVMax= 1.34D-03

 Initial convergence to 1.0D-05 achieved.  Increase integral accuracy.
 Cycle   6  Pass 1  IDiag  1:
 E= -132.501678804426     Delta-E=       -0.000009987688 Rises=F Damp=F
 DIIS: error= 9.67D-05 at cycle   1 NSaved=   1.
 NSaved= 1 IEnMin= 1 EnMin= -132.501678804426     IErMin= 1 ErrMin= 9.67D-05
 ErrMax= 9.67D-05  0.00D+00 EMaxC= 1.00D-01 BMatC= 7.69D-07 BMatP= 7.69D-07
 IDIUse=1 WtCom= 1.00D+00 WtEn= 0.00D+00
 Coeff-Com:  0.100D+01
 Coeff:      0.100D+01
 Gap=     0.413 Goal=   None    Shift=    0.000
 RMSDP=8.46D-06 MaxDP=3.15D-04 DE=-9.99D-06 OVMax= 4.40D-04

 Cycle   7  Pass 1  IDiag  1:
 E= -132.501679287423     Delta-E=       -0.000000482996 Rises=F Damp=F
 DIIS: error= 4.64D-05 at cycle   2 NSaved=   2.
 NSaved= 2 IEnMin= 2 EnMin= -132.501679287423     IErMin= 2 ErrMin= 4.64D-05
 ErrMax= 4.64D-05  0.00D+00 EMaxC= 1.00D-01 BMatC= 3.61D-07 BMatP= 7.69D-07
 IDIUse=1 WtCom= 1.00D+00 WtEn= 0.00D+00
 Coeff-Com:  0.399D+00 0.601D+00
 Coeff:      0.399D+00 0.601D+00
 Gap=     0.413 Goal=   None    Shift=    0.000
 RMSDP=1.18D-06 MaxDP=4.26D-05 DE=-4.83D-07 OVMax= 2.16D-04

 Cycle   8  Pass 1  IDiag  1:
 E= -132.501679606256     Delta-E=       -0.000000318833 Rises=F Damp=F
 DIIS: error= 1.62D-05 at cycle   3 NSaved=   3.
 NSaved= 3 IEnMin= 3 EnMin= -132.501679606256     IErMin= 3 ErrMin= 1.62D-05
 ErrMax= 1.62D-05  0.00D+00 EMaxC= 1.00D-01 BMatC= 2.64D-08 BMatP= 3.61D-07
 IDIUse=1 WtCom= 1.00D+00 WtEn= 0.00D+00
 Coeff-Com:  0.112D+00 0.246D+00 0.642D+00
 Coeff:      0.112D+00 0.246D+00 0.642D+00
 Gap=     0.413 Goal=   None    Shift=    0.000
 RMSDP=6.14D-07 MaxDP=2.43D-05 DE=-3.19D-07 OVMax= 8.74D-05

 Cycle   9  Pass 1  IDiag  1:
 E= -132.501679624115     Delta-E=       -0.000000017859 Rises=F Damp=F
 DIIS: error= 9.60D-06 at cycle   4 NSaved=   4.
 NSaved= 4 IEnMin= 4 EnMin= -132.501679624115     IErMin= 4 ErrMin= 9.60D-06
 ErrMax= 9.60D-06  0.00D+00 EMaxC= 1.00D-01 BMatC= 9.21D-09 BMatP= 2.64D-08
 IDIUse=1 WtCom= 1.00D+00 WtEn= 0.00D+00
 Coeff-Com: -0.711D-01-0.529D-01 0.404D+00 0.720D+00
 Coeff:     -0.711D-01-0.529D-01 0.404D+00 0.720D+00
 Gap=     0.413 Goal=   None    Shift=    0.000
 RMSDP=3.59D-07 MaxDP=1.53D-05 DE=-1.79D-08 OVMax= 5.88D-05

 Cycle  10  Pass 1  IDiag  1:
 E= -132.501679634166     Delta-E=       -0.000000010051 Rises=F Damp=F
 DIIS: error= 1.00D-06 at cycle   5 NSaved=   5.
 NSaved= 5 IEnMin= 5 EnMin= -132.501679634166     IErMin= 5 ErrMin= 1.00D-06
 ErrMax= 1.00D-06  0.00D+00 EMaxC= 1.00D-01 BMatC= 1.88D-10 BMatP= 9.21D-09
 IDIUse=1 WtCom= 1.00D+00 WtEn= 0.00D+00
 Coeff-Com: -0.211D-01-0.244D-01 0.444D-01 0.153D+00 0.848D+00
 Coeff:     -0.211D-01-0.244D-01 0.444D-01 0.153D+00 0.848D+00
 Gap=     0.413 Goal=   None    Shift=    0.000
 RMSDP=5.79D-08 MaxDP=2.10D-06 DE=-1.01D-08 OVMax= 1.01D-05

 Cycle  11  Pass 1  IDiag  1:
 E= -132.501679634566     Delta-E=       -0.000000000401 Rises=F Damp=F
 DIIS: error= 5.32D-07 at cycle   6 NSaved=   6.
 NSaved= 6 IEnMin= 6 EnMin= -132.501679634566     IErMin= 6 ErrMin= 5.32D-07
 ErrMax= 5.32D-07  0.00D+00 EMaxC= 1.00D-01 BMatC= 2.73D-11 BMatP= 1.88D-10
 IDIUse=1 WtCom= 1.00D+00 WtEn= 0.00D+00
 Coeff-Com:  0.121D-01 0.840D-02-0.760D-01-0.117D+00 0.105D+00 0.107D+01
 Coeff:      0.121D-01 0.840D-02-0.760D-01-0.117D+00 0.105D+00 0.107D+01
 Gap=     0.413 Goal=   None    Shift=    0.000
 RMSDP=2.92D-08 MaxDP=9.79D-07 DE=-4.01D-10 OVMax= 6.88D-06

 Cycle  12  Pass 1  IDiag  1:
 E= -132.501679634668     Delta-E=       -0.000000000102 Rises=F Damp=F
 DIIS: error= 1.29D-07 at cycle   7 NSaved=   7.
 NSaved= 7 IEnMin= 7 EnMin= -132.501679634668     IErMin= 7 ErrMin= 1.29D-07
 ErrMax= 1.29D-07  0.00D+00 EMaxC= 1.00D-01 BMatC= 1.55D-12 BMatP= 2.73D-11
 IDIUse=1 WtCom= 1.00D+00 WtEn= 0.00D+00
 Coeff-Com:  0.276D-03 0.122D-02 0.865D-02 0.596D-03-0.935D-01-0.188D+00
 Coeff-Com:  0.127D+01
 Coeff:      0.276D-03 0.122D-02 0.865D-02 0.596D-03-0.935D-01-0.188D+00
 Coeff:      0.127D+01
 Gap=     0.413 Goal=   None    Shift=    0.000
 RMSDP=1.05D-08 MaxDP=3.76D-07 DE=-1.02D-10 OVMax= 2.44D-06

 Cycle  13  Pass 1  IDiag  1:
 E= -132.501679634675     Delta-E=       -0.000000000007 Rises=F Damp=F
 DIIS: error= 2.47D-08 at cycle   8 NSaved=   8.
 NSaved= 8 IEnMin= 8 EnMin= -132.501679634675     IErMin= 8 ErrMin= 2.47D-08
 ErrMax= 2.47D-08  0.00D+00 EMaxC= 1.00D-01 BMatC= 6.68D-14 BMatP= 1.55D-12
 IDIUse=1 WtCom= 1.00D+00 WtEn= 0.00D+00
 Coeff-Com: -0.522D-03-0.263D-03 0.476D-02 0.443D-02-0.164D-01-0.725D-01
 Coeff-Com:  0.182D+00 0.899D+00
 Coeff:     -0.522D-03-0.263D-03 0.476D-02 0.443D-02-0.164D-01-0.725D-01
 Coeff:      0.182D+00 0.899D+00
 Gap=     0.413 Goal=   None    Shift=    0.000
 RMSDP=1.35D-09 MaxDP=3.79D-08 DE=-6.65D-12 OVMax= 2.27D-07

 SCF Done:  E(RB2PLYPD3) =  -132.501679635     A.U. after   13 cycles
            NFock= 13  Conv=0.14D-08     -V/T= 2.0026
 KE= 1.321527699968D+02 PE=-4.264562657310D+02 EE= 1.028860363712D+02
 Leave Link  502 at Wed Aug 26 22:27:06 2020, MaxMem=  2097152000 cpu:       107.5
 (Enter /opt/cluster/programs/g09/g09_d.01/g09/l801.exe)
 DoSCS=T DFT=T ScalE2(SS,OS)=  0.270000  0.270000
 ExpMin= 7.60D-02 ExpMax= 9.07D+04 ExpMxC= 8.76D+02 IAcc=3 IRadAn=         5 AccDes= 0.00D+00
 HarFok:  IExCor=  205 AccDes= 0.00D+00 IRadAn=         5 IDoV=-2 UseB2=F ITyADJ=14
 ICtDFT= 12500011 ScaDFX=  1.000000  1.000000  1.000000  1.000000
 Largest valence mixing into a core orbital is  1.17D-04
 Largest core mixing into a valence orbital is  1.96D-05
 Range of M.O.s used for correlation:     4   261
 NBasis=   261 NAE=    11 NBE=    11 NFC=     3 NFV=     0
 NROrb=    258 NOA=     8 NOB=     8 NVA=   250 NVB=   250

 **** Warning!!: The largest alpha MO coefficient is  0.28967578D+02

 Leave Link  801 at Wed Aug 26 22:27:06 2020, MaxMem=  2097152000 cpu:         0.7
 (Enter /opt/cluster/programs/g09/g09_d.01/g09/l906.exe)
 DoSCS=T DFT=T ScalE2(SS,OS)=  0.270000  0.270000
 FulOut=F Deriv=F AODrv=F NAtomX=     6
   MMem=        2666  MDisk=           8 MDiskD=           8
  W3Min=      642000 MinDsk=     1426009 NBas6D=         321
 NBas2D=       52689    NTT=       51681    LW2=     4508827
    MDV=  2096809171 MDiskM=       14501 NBas2p=       52150
 Fully direct method using O(OVN) memory.
 IMap=   1   2   3   4   5   6   7   8
 JobTyp=1 Pass  1:  I=   1 to   8 NPSUse=  8 ParTrn=T ParDer=T DoDerP=F.
 Spin components of T(2) and E(2):
     alpha-alpha T2 =       0.3638152477D-01 E2=     -0.2163886566D-01
     alpha-beta  T2 =       0.2123304276D+00 E2=     -0.1385008586D+00
     beta-beta   T2 =       0.3638152477D-01 E2=     -0.2163886566D-01
 The integrals were generated   1 times.
 E2(B2PLYPD3) =    -0.1817785899D+00 E(B2PLYPD3) =    -0.13268345822456D+03
 Leave Link  906 at Wed Aug 26 22:27:21 2020, MaxMem=  2097152000 cpu:       120.4
 (Enter /opt/cluster/programs/g09/g09_d.01/g09/l601.exe)
 Copying SCF densities to generalized density rwf, IOpCl= 0 IROHF=0.

 **********************************************************************

            Population analysis using the SCF density.

 **********************************************************************

 Orbital symmetries:
       Occupied  (A) (A) (A) (A) (A) (A) (A) (A) (A) (A) (A)
       Virtual   (A) (A) (A) (A) (A) (A) (A) (A) (A) (A) (A) (A)
                 (A) (A) (A) (A) (A) (A) (A) (A) (A) (A) (A) (A)
                 (A) (A) (A) (A) (A) (A) (A) (A) (A) (A) (A) (A)
                 (A) (A) (A) (A) (A) (A) (A) (A) (A) (A) (A) (A)
                 (A) (A) (A) (A) (A) (A) (A) (A) (A) (A) (A) (A)
                 (A) (A) (A) (A) (A) (A) (A) (A) (A) (A) (A) (A)
                 (A) (A) (A) (A) (A) (A) (A) (A) (A) (A) (A) (A)
                 (A) (A) (A) (A) (A) (A) (A) (A) (A) (A) (A) (A)
                 (A) (A) (A) (A) (A) (A) (A) (A) (A) (A) (A) (A)
                 (A) (A) (A) (A) (A) (A) (A) (A) (A) (A) (A) (A)
                 (A) (A) (A) (A) (A) (A) (A) (A) (A) (A) (A) (A)
                 (A) (A) (A) (A) (A) (A) (A) (A) (A) (A) (A) (A)
                 (A) (A) (A) (A) (A) (A) (A) (A) (A) (A) (A) (A)
                 (A) (A) (A) (A) (A) (A) (A) (A) (A) (A) (A) (A)
                 (A) (A) (A) (A) (A) (A) (A) (A) (A) (A) (A) (A)
                 (A) (A) (A) (A) (A) (A) (A) (A) (A) (A) (A) (A)
                 (A) (A) (A) (A) (A) (A) (A) (A) (A) (A) (A) (A)
                 (A) (A) (A) (A) (A) (A) (A) (A) (A) (A) (A) (A)
                 (A) (A) (A) (A) (A) (A) (A) (A) (A) (A) (A) (A)
                 (A) (A) (A) (A) (A) (A) (A) (A) (A) (A) (A) (A)
                 (A) (A) (A) (A) (A) (A) (A) (A) (A) (A)
 The electronic state is 1-A.
 Alpha  occ. eigenvalues --  -14.84322 -10.66698 -10.66235  -1.03811  -0.90607
 Alpha  occ. eigenvalues --   -0.58677  -0.58380  -0.51446  -0.44677  -0.38967
 Alpha  occ. eigenvalues --   -0.38268
 Alpha virt. eigenvalues --    0.03010   0.06678   0.09565   0.10009   0.10775
 Alpha virt. eigenvalues --    0.11726   0.15001   0.15457   0.16745   0.20040
 Alpha virt. eigenvalues --    0.20266   0.25636   0.31434   0.33535   0.35858
 Alpha virt. eigenvalues --    0.38632   0.39546   0.40123   0.41670   0.44832
 Alpha virt. eigenvalues --    0.50622   0.54946   0.58461   0.61167   0.61550
 Alpha virt. eigenvalues --    0.64018   0.67769   0.68889   0.71052   0.79151
 Alpha virt. eigenvalues --    0.79953   0.82079   0.82849   0.83957   0.87306
 Alpha virt. eigenvalues --    0.91011   0.93360   0.94576   0.97304   0.99682
 Alpha virt. eigenvalues --    1.05002   1.07242   1.11086   1.11414   1.12057
 Alpha virt. eigenvalues --    1.14461   1.22127   1.23579   1.26002   1.31574
 Alpha virt. eigenvalues --    1.32468   1.41077   1.46451   1.51240   1.57534
 Alpha virt. eigenvalues --    1.62978   1.68954   1.73100   1.73688   1.76760
 Alpha virt. eigenvalues --    1.79526   1.80129   1.85615   1.88207   1.92937
 Alpha virt. eigenvalues --    1.93928   1.97386   1.99404   2.01059   2.03694
 Alpha virt. eigenvalues --    2.04195   2.05936   2.16188   2.19077   2.19478
 Alpha virt. eigenvalues --    2.24162   2.27702   2.31535   2.34360   2.36494
 Alpha virt. eigenvalues --    2.40984   2.49401   2.53750   2.56311   2.59337
 Alpha virt. eigenvalues --    2.62831   2.66044   2.68644   2.70785   2.73042
 Alpha virt. eigenvalues --    2.75263   2.76211   2.84740   2.88292   2.89798
 Alpha virt. eigenvalues --    2.92131   2.93694   2.95802   2.99301   3.01340
 Alpha virt. eigenvalues --    3.10328   3.15971   3.21964   3.23748   3.28238
 Alpha virt. eigenvalues --    3.36992   3.37640   3.43082   3.47345   3.50919
 Alpha virt. eigenvalues --    3.60342   3.66841   3.72844   3.77284   3.80618
 Alpha virt. eigenvalues --    3.85060   3.92104   3.95125   3.96260   4.01111
 Alpha virt. eigenvalues --    4.04313   4.05454   4.13293   4.20540   4.24449
 Alpha virt. eigenvalues --    4.56871   4.92607   4.92697   5.02626   5.06278
 Alpha virt. eigenvalues --    5.09491   5.11102   5.17252   5.24537   5.34729
 Alpha virt. eigenvalues --    5.37859   5.40097   5.47510   5.53650   5.66853
 Alpha virt. eigenvalues --    5.75892   5.76903   5.80508   5.85218   5.87160
 Alpha virt. eigenvalues --    5.90660   5.93558   5.94320   5.96296   5.98867
 Alpha virt. eigenvalues --    6.03055   6.04891   6.08403   6.09940   6.16682
 Alpha virt. eigenvalues --    6.18286   6.20458   6.23881   6.27069   6.31434
 Alpha virt. eigenvalues --    6.36101   6.40303   6.51064   6.58491   6.62482
 Alpha virt. eigenvalues --    6.63961   6.70932   6.78951   6.86126   6.97697
 Alpha virt. eigenvalues --    7.00715   7.02142   7.02574   7.02792   7.06597
 Alpha virt. eigenvalues --    7.13708   7.26690   7.31632   7.39831   7.44962
 Alpha virt. eigenvalues --    7.46022   7.50672   7.54004   7.62257   7.62796
 Alpha virt. eigenvalues --    7.66868   7.69342   7.73754   7.77132   7.81218
 Alpha virt. eigenvalues --    7.83230   7.93159   7.99148   8.07939   8.18518
 Alpha virt. eigenvalues --    8.31079   8.33801   8.39442   8.39492   8.42321
 Alpha virt. eigenvalues --    8.48982   8.51135   8.54141   8.59394   8.60597
 Alpha virt. eigenvalues --    8.66275   8.66639   8.66881   8.70015   8.72431
 Alpha virt. eigenvalues --    8.77685   8.85253   8.92778   8.95501   9.07064
 Alpha virt. eigenvalues --    9.10622   9.12241   9.21704   9.27337   9.28401
 Alpha virt. eigenvalues --    9.35819   9.43338   9.55520   9.66479   9.74850
 Alpha virt. eigenvalues --    9.76960   9.82942   9.89899  10.01447  10.13134
 Alpha virt. eigenvalues --   10.13983  10.30601  10.38839  10.51241  10.79548
 Alpha virt. eigenvalues --   10.97150  11.14345  11.23342  11.36860  11.79265
 Alpha virt. eigenvalues --   11.87098  11.96083  13.03082  13.25090  29.17548
 Alpha virt. eigenvalues --   29.60547  38.29202 148.86322 149.25486 198.20569
          Condensed to atoms (all electrons):
               1          2          3          4          5          6
     1  C    4.647181   0.282212  -0.060984   0.417226   0.407917   0.419589
     2  C    0.282212   4.890763   0.968774  -0.057053  -0.033035  -0.051848
     3  N   -0.060984   0.968774   6.307188   0.001139  -0.003142  -0.000862
     4  H    0.417226  -0.057053   0.001139   0.571962  -0.030792  -0.025009
     5  H    0.407917  -0.033035  -0.003142  -0.030792   0.600932  -0.030744
     6  H    0.419589  -0.051848  -0.000862  -0.025009  -0.030744   0.575196
 Mulliken charges:
               1
     1  C   -0.113142
     2  C    0.000187
     3  N   -0.212113
     4  H    0.122526
     5  H    0.088864
     6  H    0.113677
 Sum of Mulliken charges =   0.00000
 Mulliken charges with hydrogens summed into heavy atoms:
               1
     1  C    0.211926
     2  C    0.000187
     3  N   -0.212113
 Electronic spatial extent (au):  <R**2>=            159.3950
 Charge=              0.0000 electrons
 Dipole moment (field-independent basis, Debye):
    X=             -4.0503    Y=              0.0458    Z=              0.0593  Tot=              4.0510
 Quadrupole moment (field-independent basis, Debye-Ang):
   XX=            -21.3646   YY=            -17.7110   ZZ=            -17.6060
   XY=              0.2383   XZ=              0.4190   YZ=             -0.2010
 Traceless Quadrupole moment (field-independent basis, Debye-Ang):
   XX=             -2.4707   YY=              1.1828   ZZ=              1.2879
   XY=              0.2383   XZ=              0.4190   YZ=             -0.2010
 Octapole moment (field-independent basis, Debye-Ang**2):
  XXX=            -11.7613  YYY=              0.4103  ZZZ=              0.7775  XYY=             -2.3309
  XXY=             -0.5043  XXZ=             -0.6708  XZZ=             -2.2877  YZZ=             -0.2161
  YYZ=             -0.8122  XYZ=              0.1206
 Hexadecapole moment (field-independent basis, Debye-Ang**3):
 XXXX=           -180.4715 YYYY=            -25.5380 ZZZZ=            -24.3984 XXXY=              1.3459
 XXXZ=              1.7357 YYYX=             -0.4250 YYYZ=             -0.4278 ZZZX=             -1.1875
 ZZZY=             -0.4709 XXYY=            -30.6945 XXZZ=            -30.8579 YYZZ=             -8.0249
 XXYZ=              0.0517 YYXZ=              1.3010 ZZXY=              0.4171
 N-N= 5.891577972828D+01 E-N=-4.264562652330D+02  KE= 1.321527699968D+02
 Leave Link  601 at Wed Aug 26 22:27:21 2020, MaxMem=  2097152000 cpu:         0.4
 (Enter /opt/cluster/programs/g09/g09_d.01/g09/l9999.exe)
 1\1\GINC-NODE08\SP\RB2PLYPD3-FC\def2QZVP\C2H3N1\BOITTIER\26-Aug-2020\0
 \\#p B2PLYPD3/Def2QZVP\\cyanomethane\\0,1\C,0,-6.594288,-1.115087,1.16
 9709\C,0,-5.204499,-0.770556,0.975938\N,0,-4.10742,-0.543045,0.661133\
 H,0,-6.573964,-1.313654,2.101527\H,0,-6.952377,-2.101914,0.559563\H,0,
 -7.144396,-0.289015,0.749409\\Version=ES64L-G09RevD.01\State=1-A\HF=-1
 32.5016796\MP2=-132.6834582\RMSD=1.350e-09\PG=C01 [X(C2H3N1)]\\@


 THE BEST WAY TO CONVINCE A FOOL THAT HE IS WRONG 
 IS TO LET HIM HAVE HIS OWN WAY.

                                         JOSH BILLINGS
 Job cpu time:       0 days  0 hours  3 minutes 57.7 seconds.
 File lengths (MBytes):  RWF=     28 Int=      0 D2E=      0 Chk=      5 Scr=      1
 Normal termination of Gaussian 09 at Wed Aug 26 22:27:21 2020.
