 Entering Gaussian System, Link 0=/opt/cluster/programs/g09/g09_d.01/g09//g09
 Input=/home/boittier/MDCM/nms_sampling/cyanomethane_geom.xyz.dir/energies/cyanomethane_152_energy.com
 Output=/scratch/boittier/cyanomethane_152_energy/cyanomethane_152_energy.out
 Initial command:
 /opt/cluster/programs/g09/g09_d.01/g09/l1.exe "/scratch/boittier/cyanomethane_152_energy/Gau-109136.inp" -scrdir="/scratch/boittier/cyanomethane_152_energy/"
 Entering Link 1 = /opt/cluster/programs/g09/g09_d.01/g09/l1.exe PID=    109137.
  
 Copyright (c) 1988,1990,1992,1993,1995,1998,2003,2009,2013,
            Gaussian, Inc.  All Rights Reserved.
  
 This is part of the Gaussian(R) 09 program.  It is based on
 the Gaussian(R) 03 system (copyright 2003, Gaussian, Inc.),
 the Gaussian(R) 98 system (copyright 1998, Gaussian, Inc.),
 the Gaussian(R) 94 system (copyright 1995, Gaussian, Inc.),
 the Gaussian 92(TM) system (copyright 1992, Gaussian, Inc.),
 the Gaussian 90(TM) system (copyright 1990, Gaussian, Inc.),
 the Gaussian 88(TM) system (copyright 1988, Gaussian, Inc.),
 the Gaussian 86(TM) system (copyright 1986, Carnegie Mellon
 University), and the Gaussian 82(TM) system (copyright 1983,
 Carnegie Mellon University). Gaussian is a federally registered
 trademark of Gaussian, Inc.
  
 This software contains proprietary and confidential information,
 including trade secrets, belonging to Gaussian, Inc.
  
 This software is provided under written license and may be
 used, copied, transmitted, or stored only in accord with that
 written license.
  
 The following legend is applicable only to US Government
 contracts under FAR:
  
                    RESTRICTED RIGHTS LEGEND
  
 Use, reproduction and disclosure by the US Government is
 subject to restrictions as set forth in subparagraphs (a)
 and (c) of the Commercial Computer Software - Restricted
 Rights clause in FAR 52.227-19.
  
 Gaussian, Inc.
 340 Quinnipiac St., Bldg. 40, Wallingford CT 06492
  
  
 ---------------------------------------------------------------
 Warning -- This program may not be used in any manner that
 competes with the business of Gaussian, Inc. or will provide
 assistance to any competitor of Gaussian, Inc.  The licensee
 of this program is prohibited from giving any competitor of
 Gaussian, Inc. access to this program.  By using this program,
 the user acknowledges that Gaussian, Inc. is engaged in the
 business of creating and licensing software in the field of
 computational chemistry and represents and warrants to the
 licensee that it is not a competitor of Gaussian, Inc. and that
 it will not use this program in any manner prohibited above.
 ---------------------------------------------------------------
  

 Cite this work as:
 Gaussian 09, Revision D.01,
 M. J. Frisch, G. W. Trucks, H. B. Schlegel, G. E. Scuseria, 
 M. A. Robb, J. R. Cheeseman, G. Scalmani, V. Barone, B. Mennucci, 
 G. A. Petersson, H. Nakatsuji, M. Caricato, X. Li, H. P. Hratchian, 
 A. F. Izmaylov, J. Bloino, G. Zheng, J. L. Sonnenberg, M. Hada, 
 M. Ehara, K. Toyota, R. Fukuda, J. Hasegawa, M. Ishida, T. Nakajima, 
 Y. Honda, O. Kitao, H. Nakai, T. Vreven, J. A. Montgomery, Jr., 
 J. E. Peralta, F. Ogliaro, M. Bearpark, J. J. Heyd, E. Brothers, 
 K. N. Kudin, V. N. Staroverov, T. Keith, R. Kobayashi, J. Normand, 
 K. Raghavachari, A. Rendell, J. C. Burant, S. S. Iyengar, J. Tomasi, 
 M. Cossi, N. Rega, J. M. Millam, M. Klene, J. E. Knox, J. B. Cross, 
 V. Bakken, C. Adamo, J. Jaramillo, R. Gomperts, R. E. Stratmann, 
 O. Yazyev, A. J. Austin, R. Cammi, C. Pomelli, J. W. Ochterski, 
 R. L. Martin, K. Morokuma, V. G. Zakrzewski, G. A. Voth, 
 P. Salvador, J. J. Dannenberg, S. Dapprich, A. D. Daniels, 
 O. Farkas, J. B. Foresman, J. V. Ortiz, J. Cioslowski, 
 and D. J. Fox, Gaussian, Inc., Wallingford CT, 2013.
 
 ******************************************
 Gaussian 09:  ES64L-G09RevD.01 24-Apr-2013
                26-Aug-2020 
 ******************************************
 %chk=/home/boittier/MDCM/nms_sampling/cyanomethane_geom.xyz.dir/cyanomethane_152
 .chk
 %nproc=8
 Will use up to    8 processors via shared memory.
 %mem=16000MB
 --------------------
 #p B2PLYPD3/Def2QZVP
 --------------------
 1/38=1/1;
 2/12=2,17=6,18=5,40=1/2;
 3/5=45,7=101,11=9,16=1,25=1,30=1,74=-60/1,2,3;
 4//1;
 5/5=2,38=5/2;
 8/10=1/1;
 9/16=-3/6;
 6/7=2,8=2,9=2,10=2/1;
 99/5=1,9=1/99;
 Leave Link    1 at Wed Aug 26 12:00:27 2020, MaxMem=  2097152000 cpu:         0.6
 (Enter /opt/cluster/programs/g09/g09_d.01/g09/l101.exe)
 ------------
 cyanomethane
 ------------
 Symbolic Z-matrix:
 Charge =  0 Multiplicity = 1
 C                    -6.59607  -1.11851   1.1658 
 C                    -5.20468  -0.80342   0.91801 
 N                    -4.09622  -0.529     0.69699 
 H                    -6.74174  -1.19841   2.22478 
 H                    -6.88218  -2.04266   0.65996 
 H                    -7.18214  -0.26964   0.77574 
 
 NAtoms=      6 NQM=        6 NQMF=       0 NMMI=      0 NMMIF=      0
                NMic=       0 NMicF=      0.
                    Isotopes and Nuclear Properties:
 (Nuclear quadrupole moments (NQMom) in fm**2, nuclear magnetic moments (NMagM)
  in nuclear magnetons)

  Atom         1           2           3           4           5           6
 IAtWgt=          12          12          14           1           1           1
 AtmWgt=  12.0000000  12.0000000  14.0030740   1.0078250   1.0078250   1.0078250
 NucSpn=           0           0           2           1           1           1
 AtZEff=   0.0000000   0.0000000   0.0000000   0.0000000   0.0000000   0.0000000
 NQMom=    0.0000000   0.0000000   2.0440000   0.0000000   0.0000000   0.0000000
 NMagM=    0.0000000   0.0000000   0.4037610   2.7928460   2.7928460   2.7928460
 AtZNuc=   6.0000000   6.0000000   7.0000000   1.0000000   1.0000000   1.0000000
 Leave Link  101 at Wed Aug 26 12:00:27 2020, MaxMem=  2097152000 cpu:         0.6
 (Enter /opt/cluster/programs/g09/g09_d.01/g09/l202.exe)
                          Input orientation:                          
 ---------------------------------------------------------------------
 Center     Atomic      Atomic             Coordinates (Angstroms)
 Number     Number       Type             X           Y           Z
 ---------------------------------------------------------------------
      1          6           0       -6.596070   -1.118509    1.165796
      2          6           0       -5.204676   -0.803421    0.918005
      3          7           0       -4.096223   -0.529002    0.696991
      4          1           0       -6.741737   -1.198411    2.224775
      5          1           0       -6.882182   -2.042659    0.659962
      6          1           0       -7.182144   -0.269642    0.775744
 ---------------------------------------------------------------------
                    Distance matrix (angstroms):
                    1          2          3          4          5
     1  C    0.000000
     2  C    1.447984   0.000000
     3  N    2.610849   1.163108   0.000000
     4  H    1.071933   2.055778   3.127455   0.000000
     5  H    1.091687   2.101505   3.170819   1.783569   0.000000
     6  H    1.102814   2.053178   3.097802   1.776587   1.801936
                    6
     6  H    0.000000
 Stoichiometry    C2H3N
 Framework group  C1[X(C2H3N)]
 Deg. of freedom    12
 Full point group                 C1      NOp   1
 Largest Abelian subgroup         C1      NOp   1
 Largest concise Abelian subgroup C1      NOp   1
                         Standard orientation:                         
 ---------------------------------------------------------------------
 Center     Atomic      Atomic             Coordinates (Angstroms)
 Number     Number       Type             X           Y           Z
 ---------------------------------------------------------------------
      1          6           0        1.178376    0.002831    0.000734
      2          6           0       -0.269548    0.010417    0.011633
      3          7           0       -1.432461   -0.001864   -0.005772
      4          1           0        1.523794   -0.138843    1.005549
      5          1           0        1.569545    0.930659   -0.421051
      6          1           0        1.480920   -0.858255   -0.618295
 ---------------------------------------------------------------------
 Rotational constants (GHZ):    156.8992907      9.2928882      9.2841776
 Leave Link  202 at Wed Aug 26 12:00:27 2020, MaxMem=  2097152000 cpu:         0.1
 (Enter /opt/cluster/programs/g09/g09_d.01/g09/l301.exe)
 Standard basis: def2QZVP (5D, 7F)
 Ernie: Thresh=  0.10000D-02 Tol=  0.10000D-05 Strict=F.
 There are   321 symmetry adapted cartesian basis functions of A   symmetry.
 There are   261 symmetry adapted basis functions of A   symmetry.
   261 basis functions,   390 primitive gaussians,   321 cartesian basis functions
    11 alpha electrons       11 beta electrons
       nuclear repulsion energy        58.5656979906 Hartrees.
 IExCor=  419 DFT=T Ex+Corr=B2PLYPD3 ExCW=0 ScaHFX=  0.530000
 ScaDFX=  0.470000  0.470000  0.730000  0.730000 ScalE2=  0.270000  0.270000
 IRadAn=      0 IRanWt=     -1 IRanGd=            0 ICorTp=0 IEmpDi=141
 NAtoms=    6 NActive=    6 NUniq=    6 SFac= 1.00D+00 NAtFMM=   60 NAOKFM=F Big=F
 Integral buffers will be    131072 words long.
 Regular integral format.
 Two-electron integral symmetry is turned on.
 R6Disp:  Grimme-D3(BJ) Dispersion energy=       -0.0021086190 Hartrees.
 Nuclear repulsion after empirical dispersion term =       58.5635893716 Hartrees.
 Leave Link  301 at Wed Aug 26 12:00:27 2020, MaxMem=  2097152000 cpu:         0.6
 (Enter /opt/cluster/programs/g09/g09_d.01/g09/l302.exe)
 NPDir=0 NMtPBC=     1 NCelOv=     1 NCel=       1 NClECP=     1 NCelD=      1
         NCelK=      1 NCelE2=     1 NClLst=     1 CellRange=     0.0.
 One-electron integrals computed using PRISM.
   1 Symmetry operations used in ECPInt.
 ECPInt:  NShTT=    3321 NPrTT=    8136 LenC2=    3296 LenP2D=    7130.
 LDataN:  DoStor=T MaxTD1= 8 Len=  415
 NBasis=   261 RedAO= T EigKep=  8.23D-05  NBF=   261
 NBsUse=   261 1.00D-06 EigRej= -1.00D+00 NBFU=   261
 Precomputing XC quadrature grid using
 IXCGrd= 4 IRadAn=           0 IRanWt=          -1 IRanGd=           0 AccXCQ= 0.00D+00.
 Generated NRdTot=       0 NPtTot=           0 NUsed=           0 NTot=          32
 NSgBfM=   321   321   321   321   321 MxSgAt=     6 MxSgA2=     6.
 Leave Link  302 at Wed Aug 26 12:00:30 2020, MaxMem=  2097152000 cpu:         2.6
 (Enter /opt/cluster/programs/g09/g09_d.01/g09/l303.exe)
 DipDrv:  MaxL=1.
 Leave Link  303 at Wed Aug 26 12:00:30 2020, MaxMem=  2097152000 cpu:         0.3
 (Enter /opt/cluster/programs/g09/g09_d.01/g09/l401.exe)
 ExpMin= 7.60D-02 ExpMax= 9.07D+04 ExpMxC= 8.76D+02 IAcc=2 IRadAn=         4 AccDes= 0.00D+00
 Harris functional with IExCor=  419 and IRadAn=       4 diagonalized for initial guess.
 HarFok:  IExCor=  419 AccDes= 0.00D+00 IRadAn=         4 IDoV= 1 UseB2=F ITyADJ=14
 ICtDFT=  3500011 ScaDFX=  1.000000  1.000000  1.000000  1.000000
 FoFCou: FMM=F IPFlag=           0 FMFlag=      100000 FMFlg1=           0
         NFxFlg=           0 DoJE=T BraDBF=F KetDBF=T FulRan=T
         wScrn=  0.000000 ICntrl=     500 IOpCl=  0 I1Cent=   200000004 NGrid=           0
         NMat0=    1 NMatS0=      1 NMatT0=    0 NMatD0=    1 NMtDS0=    0 NMtDT0=    0
 Petite list used in FoFCou.
 Harris En= -132.850305262691    
 JPrj=0 DoOrth=F DoCkMO=F.
 Leave Link  401 at Wed Aug 26 12:00:31 2020, MaxMem=  2097152000 cpu:         4.9
 (Enter /opt/cluster/programs/g09/g09_d.01/g09/l502.exe)
 Closed shell SCF:
 Using DIIS extrapolation, IDIIS=  1040.
 Integral symmetry usage will be decided dynamically.
 Keep R1 ints in memory in canonical form, NReq=601554820.
 IVT=      332521 IEndB=      332521 NGot=  2097152000 MDV=  1512290144
 LenX=  1512290144 LenY=  1512186662
 Requested convergence on RMS density matrix=1.00D-08 within 128 cycles.
 Requested convergence on MAX density matrix=1.00D-06.
 Requested convergence on             energy=1.00D-06.
 No special actions if energy rises.
 FoFCou: FMM=F IPFlag=           0 FMFlag=           0 FMFlg1=           0
         NFxFlg=           0 DoJE=F BraDBF=F KetDBF=F FulRan=T
         wScrn=  0.000000 ICntrl=     600 IOpCl=  0 I1Cent=           0 NGrid=           0
         NMat0=    1 NMatS0=  34191 NMatT0=    0 NMatD0=    1 NMtDS0=    0 NMtDT0=    0
 Symmetry not used in FoFCou.
 Integral accuracy reduced to 1.0D-05 until final iterations.

 Cycle   1  Pass 0  IDiag  1:
 E= -132.422089897242    
 DIIS: error= 2.77D-02 at cycle   1 NSaved=   1.
 NSaved= 1 IEnMin= 1 EnMin= -132.422089897242     IErMin= 1 ErrMin= 2.77D-02
 ErrMax= 2.77D-02  0.00D+00 EMaxC= 1.00D-01 BMatC= 1.87D-01 BMatP= 1.87D-01
 IDIUse=3 WtCom= 7.23D-01 WtEn= 2.77D-01
 Coeff-Com:  0.100D+01
 Coeff-En:   0.100D+01
 Coeff:      0.100D+01
 Gap=     0.457 Goal=   None    Shift=    0.000
 GapD=    0.457 DampG=2.000 DampE=0.500 DampFc=1.0000 IDamp=-1.
 RMSDP=1.27D-03 MaxDP=6.56D-02              OVMax= 1.62D-01

 Cycle   2  Pass 0  IDiag  1:
 E= -132.454703310648     Delta-E=       -0.032613413406 Rises=F Damp=F
 DIIS: error= 3.38D-02 at cycle   2 NSaved=   2.
 NSaved= 2 IEnMin= 2 EnMin= -132.454703310648     IErMin= 1 ErrMin= 2.77D-02
 ErrMax= 3.38D-02  0.00D+00 EMaxC= 1.00D-01 BMatC= 9.35D-02 BMatP= 1.87D-01
 IDIUse=3 WtCom= 6.62D-01 WtEn= 3.38D-01
 Coeff-Com:  0.397D+00 0.603D+00
 Coeff-En:   0.397D+00 0.603D+00
 Coeff:      0.397D+00 0.603D+00
 Gap=     0.432 Goal=   None    Shift=    0.000
 RMSDP=8.46D-04 MaxDP=3.39D-02 DE=-3.26D-02 OVMax= 1.23D-01

 Cycle   3  Pass 0  IDiag  1:
 E= -132.517419510012     Delta-E=       -0.062716199365 Rises=F Damp=F
 DIIS: error= 1.50D-02 at cycle   3 NSaved=   3.
 NSaved= 3 IEnMin= 3 EnMin= -132.517419510012     IErMin= 3 ErrMin= 1.50D-02
 ErrMax= 1.50D-02  0.00D+00 EMaxC= 1.00D-01 BMatC= 2.04D-02 BMatP= 9.35D-02
 IDIUse=3 WtCom= 8.50D-01 WtEn= 1.50D-01
 Coeff-Com:  0.970D-01 0.329D+00 0.574D+00
 Coeff-En:   0.000D+00 0.136D+00 0.864D+00
 Coeff:      0.824D-01 0.300D+00 0.618D+00
 Gap=     0.424 Goal=   None    Shift=    0.000
 RMSDP=2.73D-04 MaxDP=9.90D-03 DE=-6.27D-02 OVMax= 6.04D-02

 Cycle   4  Pass 0  IDiag  1:
 E= -132.531404059500     Delta-E=       -0.013984549487 Rises=F Damp=F
 DIIS: error= 5.52D-03 at cycle   4 NSaved=   4.
 NSaved= 4 IEnMin= 4 EnMin= -132.531404059500     IErMin= 4 ErrMin= 5.52D-03
 ErrMax= 5.52D-03  0.00D+00 EMaxC= 1.00D-01 BMatC= 3.15D-03 BMatP= 2.04D-02
 IDIUse=3 WtCom= 9.45D-01 WtEn= 5.52D-02
 Coeff-Com: -0.128D-01 0.546D-01 0.329D+00 0.629D+00
 Coeff-En:   0.000D+00 0.000D+00 0.146D+00 0.854D+00
 Coeff:     -0.121D-01 0.516D-01 0.319D+00 0.641D+00
 Gap=     0.425 Goal=   None    Shift=    0.000
 RMSDP=9.31D-05 MaxDP=2.83D-03 DE=-1.40D-02 OVMax= 1.61D-02

 Cycle   5  Pass 0  IDiag  1:
 E= -132.534129513192     Delta-E=       -0.002725453692 Rises=F Damp=F
 DIIS: error= 3.54D-04 at cycle   5 NSaved=   5.
 NSaved= 5 IEnMin= 5 EnMin= -132.534129513192     IErMin= 5 ErrMin= 3.54D-04
 ErrMax= 3.54D-04  0.00D+00 EMaxC= 1.00D-01 BMatC= 1.41D-05 BMatP= 3.15D-03
 IDIUse=3 WtCom= 9.96D-01 WtEn= 3.54D-03
 Coeff-Com: -0.337D-02 0.531D-02 0.456D-01 0.136D+00 0.816D+00
 Coeff-En:   0.000D+00 0.000D+00 0.000D+00 0.000D+00 0.100D+01
 Coeff:     -0.336D-02 0.529D-02 0.454D-01 0.136D+00 0.817D+00
 Gap=     0.424 Goal=   None    Shift=    0.000
 RMSDP=8.39D-06 MaxDP=3.07D-04 DE=-2.73D-03 OVMax= 1.27D-03

 Initial convergence to 1.0D-05 achieved.  Increase integral accuracy.
 Cycle   6  Pass 1  IDiag  1:
 E= -132.534143939834     Delta-E=       -0.000014426642 Rises=F Damp=F
 DIIS: error= 9.47D-05 at cycle   1 NSaved=   1.
 NSaved= 1 IEnMin= 1 EnMin= -132.534143939834     IErMin= 1 ErrMin= 9.47D-05
 ErrMax= 9.47D-05  0.00D+00 EMaxC= 1.00D-01 BMatC= 6.62D-07 BMatP= 6.62D-07
 IDIUse=1 WtCom= 1.00D+00 WtEn= 0.00D+00
 Coeff-Com:  0.100D+01
 Coeff:      0.100D+01
 Gap=     0.425 Goal=   None    Shift=    0.000
 RMSDP=8.39D-06 MaxDP=3.07D-04 DE=-1.44D-05 OVMax= 4.14D-04

 Cycle   7  Pass 1  IDiag  1:
 E= -132.534144327465     Delta-E=       -0.000000387631 Rises=F Damp=F
 DIIS: error= 5.35D-05 at cycle   2 NSaved=   2.
 NSaved= 2 IEnMin= 2 EnMin= -132.534144327465     IErMin= 2 ErrMin= 5.35D-05
 ErrMax= 5.35D-05  0.00D+00 EMaxC= 1.00D-01 BMatC= 3.04D-07 BMatP= 6.62D-07
 IDIUse=1 WtCom= 1.00D+00 WtEn= 0.00D+00
 Coeff-Com:  0.396D+00 0.604D+00
 Coeff:      0.396D+00 0.604D+00
 Gap=     0.424 Goal=   None    Shift=    0.000
 RMSDP=1.04D-06 MaxDP=3.86D-05 DE=-3.88D-07 OVMax= 1.80D-04

 Cycle   8  Pass 1  IDiag  1:
 E= -132.534144591279     Delta-E=       -0.000000263814 Rises=F Damp=F
 DIIS: error= 1.64D-05 at cycle   3 NSaved=   3.
 NSaved= 3 IEnMin= 3 EnMin= -132.534144591279     IErMin= 3 ErrMin= 1.64D-05
 ErrMax= 1.64D-05  0.00D+00 EMaxC= 1.00D-01 BMatC= 2.31D-08 BMatP= 3.04D-07
 IDIUse=1 WtCom= 1.00D+00 WtEn= 0.00D+00
 Coeff-Com:  0.118D+00 0.258D+00 0.624D+00
 Coeff:      0.118D+00 0.258D+00 0.624D+00
 Gap=     0.424 Goal=   None    Shift=    0.000
 RMSDP=5.62D-07 MaxDP=2.54D-05 DE=-2.64D-07 OVMax= 6.27D-05

 Cycle   9  Pass 1  IDiag  1:
 E= -132.534144605716     Delta-E=       -0.000000014437 Rises=F Damp=F
 DIIS: error= 1.04D-05 at cycle   4 NSaved=   4.
 NSaved= 4 IEnMin= 4 EnMin= -132.534144605716     IErMin= 4 ErrMin= 1.04D-05
 ErrMax= 1.04D-05  0.00D+00 EMaxC= 1.00D-01 BMatC= 6.84D-09 BMatP= 2.31D-08
 IDIUse=1 WtCom= 1.00D+00 WtEn= 0.00D+00
 Coeff-Com: -0.595D-01-0.360D-01 0.379D+00 0.716D+00
 Coeff:     -0.595D-01-0.360D-01 0.379D+00 0.716D+00
 Gap=     0.424 Goal=   None    Shift=    0.000
 RMSDP=2.96D-07 MaxDP=1.37D-05 DE=-1.44D-08 OVMax= 3.68D-05

 Cycle  10  Pass 1  IDiag  1:
 E= -132.534144612294     Delta-E=       -0.000000006578 Rises=F Damp=F
 DIIS: error= 1.06D-06 at cycle   5 NSaved=   5.
 NSaved= 5 IEnMin= 5 EnMin= -132.534144612294     IErMin= 5 ErrMin= 1.06D-06
 ErrMax= 1.06D-06  0.00D+00 EMaxC= 1.00D-01 BMatC= 1.00D-10 BMatP= 6.84D-09
 IDIUse=1 WtCom= 1.00D+00 WtEn= 0.00D+00
 Coeff-Com: -0.215D-01-0.203D-01 0.742D-01 0.206D+00 0.762D+00
 Coeff:     -0.215D-01-0.203D-01 0.742D-01 0.206D+00 0.762D+00
 Gap=     0.424 Goal=   None    Shift=    0.000
 RMSDP=4.44D-08 MaxDP=2.12D-06 DE=-6.58D-09 OVMax= 3.44D-06

 Cycle  11  Pass 1  IDiag  1:
 E= -132.534144612385     Delta-E=       -0.000000000092 Rises=F Damp=F
 DIIS: error= 2.14D-07 at cycle   6 NSaved=   6.
 NSaved= 6 IEnMin= 6 EnMin= -132.534144612385     IErMin= 6 ErrMin= 2.14D-07
 ErrMax= 2.14D-07  0.00D+00 EMaxC= 1.00D-01 BMatC= 6.10D-12 BMatP= 1.00D-10
 IDIUse=1 WtCom= 1.00D+00 WtEn= 0.00D+00
 Coeff-Com:  0.284D-02 0.687D-03-0.303D-01-0.310D-01 0.122D+00 0.936D+00
 Coeff:      0.284D-02 0.687D-03-0.303D-01-0.310D-01 0.122D+00 0.936D+00
 Gap=     0.424 Goal=   None    Shift=    0.000
 RMSDP=1.02D-08 MaxDP=4.00D-07 DE=-9.16D-11 OVMax= 1.48D-06

 Cycle  12  Pass 1  IDiag  1:
 E= -132.534144612396     Delta-E=       -0.000000000011 Rises=F Damp=F
 DIIS: error= 7.72D-08 at cycle   7 NSaved=   7.
 NSaved= 7 IEnMin= 7 EnMin= -132.534144612396     IErMin= 7 ErrMin= 7.72D-08
 ErrMax= 7.72D-08  0.00D+00 EMaxC= 1.00D-01 BMatC= 2.67D-13 BMatP= 6.10D-12
 IDIUse=1 WtCom= 1.00D+00 WtEn= 0.00D+00
 Coeff-Com:  0.437D-03 0.824D-03 0.219D-02-0.113D-02-0.557D-01-0.186D+00
 Coeff-Com:  0.124D+01
 Coeff:      0.437D-03 0.824D-03 0.219D-02-0.113D-02-0.557D-01-0.186D+00
 Coeff:      0.124D+01
 Gap=     0.424 Goal=   None    Shift=    0.000
 RMSDP=3.19D-09 MaxDP=9.46D-08 DE=-1.10D-11 OVMax= 7.40D-07

 SCF Done:  E(RB2PLYPD3) =  -132.534144612     A.U. after   12 cycles
            NFock= 12  Conv=0.32D-08     -V/T= 2.0038
 KE= 1.320333509196D+02 PE=-4.257206158139D+02 EE= 1.025895309103D+02
 Leave Link  502 at Wed Aug 26 12:01:05 2020, MaxMem=  2097152000 cpu:       147.8
 (Enter /opt/cluster/programs/g09/g09_d.01/g09/l801.exe)
 DoSCS=T DFT=T ScalE2(SS,OS)=  0.270000  0.270000
 ExpMin= 7.60D-02 ExpMax= 9.07D+04 ExpMxC= 8.76D+02 IAcc=3 IRadAn=         5 AccDes= 0.00D+00
 HarFok:  IExCor=  205 AccDes= 0.00D+00 IRadAn=         5 IDoV=-2 UseB2=F ITyADJ=14
 ICtDFT= 12500011 ScaDFX=  1.000000  1.000000  1.000000  1.000000
 Largest valence mixing into a core orbital is  1.17D-04
 Largest core mixing into a valence orbital is  1.97D-05
 Range of M.O.s used for correlation:     4   261
 NBasis=   261 NAE=    11 NBE=    11 NFC=     3 NFV=     0
 NROrb=    258 NOA=     8 NOB=     8 NVA=   250 NVB=   250

 **** Warning!!: The largest alpha MO coefficient is  0.27309894D+02

 Leave Link  801 at Wed Aug 26 12:01:05 2020, MaxMem=  2097152000 cpu:         0.8
 (Enter /opt/cluster/programs/g09/g09_d.01/g09/l906.exe)
 DoSCS=T DFT=T ScalE2(SS,OS)=  0.270000  0.270000
 FulOut=F Deriv=F AODrv=F NAtomX=     6
   MMem=        2666  MDisk=           8 MDiskD=           8
  W3Min=      642000 MinDsk=     1426009 NBas6D=         321
 NBas2D=       52689    NTT=       51681    LW2=     4508827
    MDV=  2096809263 MDiskM=       14501 NBas2p=       52161
 Fully direct method using O(OVN) memory.
 IMap=   1   2   3   4   5   6   7   8
 JobTyp=1 Pass  1:  I=   1 to   8 NPSUse=  8 ParTrn=T ParDer=T DoDerP=F.
 Spin components of T(2) and E(2):
     alpha-alpha T2 =       0.3618558081D-01 E2=     -0.2154852766D-01
     alpha-beta  T2 =       0.2106868114D+00 E2=     -0.1380782715D+00
     beta-beta   T2 =       0.3618558081D-01 E2=     -0.2154852766D-01
 The integrals were generated   1 times.
 E2(B2PLYPD3) =    -0.1811753268D+00 E(B2PLYPD3) =    -0.13271531993922D+03
 Leave Link  906 at Wed Aug 26 12:01:26 2020, MaxMem=  2097152000 cpu:       172.5
 (Enter /opt/cluster/programs/g09/g09_d.01/g09/l601.exe)
 Copying SCF densities to generalized density rwf, IOpCl= 0 IROHF=0.

 **********************************************************************

            Population analysis using the SCF density.

 **********************************************************************

 Orbital symmetries:
       Occupied  (A) (A) (A) (A) (A) (A) (A) (A) (A) (A) (A)
       Virtual   (A) (A) (A) (A) (A) (A) (A) (A) (A) (A) (A) (A)
                 (A) (A) (A) (A) (A) (A) (A) (A) (A) (A) (A) (A)
                 (A) (A) (A) (A) (A) (A) (A) (A) (A) (A) (A) (A)
                 (A) (A) (A) (A) (A) (A) (A) (A) (A) (A) (A) (A)
                 (A) (A) (A) (A) (A) (A) (A) (A) (A) (A) (A) (A)
                 (A) (A) (A) (A) (A) (A) (A) (A) (A) (A) (A) (A)
                 (A) (A) (A) (A) (A) (A) (A) (A) (A) (A) (A) (A)
                 (A) (A) (A) (A) (A) (A) (A) (A) (A) (A) (A) (A)
                 (A) (A) (A) (A) (A) (A) (A) (A) (A) (A) (A) (A)
                 (A) (A) (A) (A) (A) (A) (A) (A) (A) (A) (A) (A)
                 (A) (A) (A) (A) (A) (A) (A) (A) (A) (A) (A) (A)
                 (A) (A) (A) (A) (A) (A) (A) (A) (A) (A) (A) (A)
                 (A) (A) (A) (A) (A) (A) (A) (A) (A) (A) (A) (A)
                 (A) (A) (A) (A) (A) (A) (A) (A) (A) (A) (A) (A)
                 (A) (A) (A) (A) (A) (A) (A) (A) (A) (A) (A) (A)
                 (A) (A) (A) (A) (A) (A) (A) (A) (A) (A) (A) (A)
                 (A) (A) (A) (A) (A) (A) (A) (A) (A) (A) (A) (A)
                 (A) (A) (A) (A) (A) (A) (A) (A) (A) (A) (A) (A)
                 (A) (A) (A) (A) (A) (A) (A) (A) (A) (A) (A) (A)
                 (A) (A) (A) (A) (A) (A) (A) (A) (A) (A) (A) (A)
                 (A) (A) (A) (A) (A) (A) (A) (A) (A) (A)
 The electronic state is 1-A.
 Alpha  occ. eigenvalues --  -14.84307 -10.67076 -10.66359  -1.03736  -0.89539
 Alpha  occ. eigenvalues --   -0.59433  -0.54568  -0.54028  -0.44718  -0.38812
 Alpha  occ. eigenvalues --   -0.38677
 Alpha virt. eigenvalues --    0.03751   0.07708   0.07985   0.10156   0.11307
 Alpha virt. eigenvalues --    0.11475   0.15374   0.15818   0.16319   0.20133
 Alpha virt. eigenvalues --    0.20174   0.25474   0.32710   0.34185   0.34838
 Alpha virt. eigenvalues --    0.38653   0.39667   0.39940   0.40642   0.46924
 Alpha virt. eigenvalues --    0.51128   0.51743   0.59281   0.59890   0.61478
 Alpha virt. eigenvalues --    0.66688   0.67089   0.68669   0.70245   0.79346
 Alpha virt. eigenvalues --    0.79473   0.82270   0.82719   0.83541   0.86546
 Alpha virt. eigenvalues --    0.91805   0.93276   0.95924   0.97021   0.97499
 Alpha virt. eigenvalues --    1.05801   1.07259   1.07647   1.11684   1.12816
 Alpha virt. eigenvalues --    1.14518   1.22776   1.23078   1.23528   1.35142
 Alpha virt. eigenvalues --    1.36061   1.45800   1.46434   1.47356   1.54185
 Alpha virt. eigenvalues --    1.65280   1.66338   1.69891   1.74532   1.78333
 Alpha virt. eigenvalues --    1.78893   1.79199   1.88130   1.92262   1.93358
 Alpha virt. eigenvalues --    1.93955   1.98968   1.99924   2.01202   2.04822
 Alpha virt. eigenvalues --    2.05239   2.11870   2.12835   2.19775   2.21439
 Alpha virt. eigenvalues --    2.23199   2.23591   2.24433   2.35898   2.36584
 Alpha virt. eigenvalues --    2.43401   2.50918   2.52608   2.58080   2.58607
 Alpha virt. eigenvalues --    2.59776   2.67218   2.70325   2.71522   2.72737
 Alpha virt. eigenvalues --    2.77279   2.77734   2.87046   2.88938   2.89926
 Alpha virt. eigenvalues --    2.91944   2.94664   2.95669   2.96760   3.05023
 Alpha virt. eigenvalues --    3.10708   3.11808   3.21379   3.27175   3.30458
 Alpha virt. eigenvalues --    3.35785   3.37877   3.41211   3.43105   3.47458
 Alpha virt. eigenvalues --    3.55505   3.57398   3.71376   3.73060   3.75025
 Alpha virt. eigenvalues --    3.89585   3.91199   3.91908   3.95770   3.96966
 Alpha virt. eigenvalues --    4.01061   4.05478   4.05921   4.25979   4.26264
 Alpha virt. eigenvalues --    4.55807   4.91260   4.91345   5.06747   5.09451
 Alpha virt. eigenvalues --    5.10253   5.18864   5.21270   5.21733   5.23556
 Alpha virt. eigenvalues --    5.33084   5.45440   5.45739   5.47093   5.65805
 Alpha virt. eigenvalues --    5.67601   5.85451   5.86051   5.90901   5.92895
 Alpha virt. eigenvalues --    5.94141   5.96861   5.99168   6.00660   6.02905
 Alpha virt. eigenvalues --    6.03499   6.05447   6.05923   6.08520   6.13540
 Alpha virt. eigenvalues --    6.17546   6.20614   6.21614   6.27706   6.30513
 Alpha virt. eigenvalues --    6.40748   6.43434   6.47701   6.56443   6.60536
 Alpha virt. eigenvalues --    6.63111   6.65172   6.91903   6.93658   6.97667
 Alpha virt. eigenvalues --    6.98639   7.02625   7.02645   7.06868   7.12580
 Alpha virt. eigenvalues --    7.17645   7.21501   7.25438   7.43633   7.44842
 Alpha virt. eigenvalues --    7.48195   7.50893   7.55673   7.57184   7.60544
 Alpha virt. eigenvalues --    7.67933   7.71446   7.73246   7.84147   7.85900
 Alpha virt. eigenvalues --    7.86370   7.92575   7.96068   8.01093   8.29237
 Alpha virt. eigenvalues --    8.31292   8.35905   8.41671   8.42739   8.45703
 Alpha virt. eigenvalues --    8.47087   8.48765   8.49915   8.54640   8.56104
 Alpha virt. eigenvalues --    8.60009   8.66011   8.66670   8.66852   8.67664
 Alpha virt. eigenvalues --    8.70757   8.82051   8.86103   8.89009   9.02973
 Alpha virt. eigenvalues --    9.08545   9.11687   9.12842   9.15290   9.15632
 Alpha virt. eigenvalues --    9.25390   9.27370   9.71669   9.74224   9.85901
 Alpha virt. eigenvalues --    9.88154   9.92892   9.93621   9.95721  10.08785
 Alpha virt. eigenvalues --   10.13832  10.15079  10.16436  10.35594  10.41392
 Alpha virt. eigenvalues --   10.47496  10.66527  11.37122  11.73235  11.81189
 Alpha virt. eigenvalues --   11.98464  12.02281  13.12260  13.56919  29.17252
 Alpha virt. eigenvalues --   29.60009  38.29679 148.82293 149.23082 198.21058
          Condensed to atoms (all electrons):
               1          2          3          4          5          6
     1  C    4.616596   0.291826  -0.059778   0.413612   0.414944   0.414098
     2  C    0.291826   4.862684   0.982974  -0.045391  -0.041905  -0.049260
     3  N   -0.059778   0.982974   6.291308  -0.000752  -0.000831  -0.001307
     4  H    0.413612  -0.045391  -0.000752   0.589523  -0.029946  -0.028601
     5  H    0.414944  -0.041905  -0.000831  -0.029946   0.584479  -0.028059
     6  H    0.414098  -0.049260  -0.001307  -0.028601  -0.028059   0.592163
 Mulliken charges:
               1
     1  C   -0.091298
     2  C   -0.000927
     3  N   -0.211613
     4  H    0.101554
     5  H    0.101318
     6  H    0.100967
 Sum of Mulliken charges =   0.00000
 Mulliken charges with hydrogens summed into heavy atoms:
               1
     1  C    0.212540
     2  C   -0.000927
     3  N   -0.211613
 Electronic spatial extent (au):  <R**2>=            161.0220
 Charge=              0.0000 electrons
 Dipole moment (field-independent basis, Debye):
    X=              4.1295    Y=             -0.0080    Z=              0.0118  Tot=              4.1296
 Quadrupole moment (field-independent basis, Debye-Ang):
   XX=            -21.1781   YY=            -17.6971   ZZ=            -17.7390
   XY=              0.0345   XZ=             -0.0138   YZ=             -0.0169
 Traceless Quadrupole moment (field-independent basis, Debye-Ang):
   XX=             -2.3067   YY=              1.1743   ZZ=              1.1324
   XY=              0.0345   XZ=             -0.0138   YZ=             -0.0169
 Octapole moment (field-independent basis, Debye-Ang**2):
  XXX=             12.4461  YYY=              0.1820  ZZZ=              0.7737  XYY=              2.3642
  XXY=              0.2087  XXZ=              0.0321  XZZ=              2.2771  YZZ=             -0.3065
  YYZ=             -0.7995  XYZ=             -0.0694
 Hexadecapole moment (field-independent basis, Debye-Ang**3):
 XXXX=           -181.9045 YYYY=            -24.8126 ZZZZ=            -24.6105 XXXY=              0.4922
 XXXZ=              0.0485 YYYX=              0.4694 YYYZ=              0.0355 ZZZX=              1.3281
 ZZZY=             -0.0552 XXYY=            -30.9291 XXZZ=            -31.0633 YYZZ=             -8.1740
 XXYZ=             -0.2223 YYXZ=             -1.2823 ZZXY=             -0.4428
 N-N= 5.856358937160D+01 E-N=-4.257206167177D+02  KE= 1.320333509196D+02
 Leave Link  601 at Wed Aug 26 12:01:27 2020, MaxMem=  2097152000 cpu:         0.5
 (Enter /opt/cluster/programs/g09/g09_d.01/g09/l9999.exe)
 1\1\GINC-NODE15\SP\RB2PLYPD3-FC\def2QZVP\C2H3N1\BOITTIER\26-Aug-2020\0
 \\#p B2PLYPD3/Def2QZVP\\cyanomethane\\0,1\C,0,-6.59607,-1.118509,1.165
 796\C,0,-5.204676,-0.803421,0.918005\N,0,-4.096223,-0.529002,0.696991\
 H,0,-6.741737,-1.198411,2.224775\H,0,-6.882182,-2.042659,0.659962\H,0,
 -7.182144,-0.269642,0.775744\\Version=ES64L-G09RevD.01\State=1-A\HF=-1
 32.5341446\MP2=-132.7153199\RMSD=3.188e-09\PG=C01 [X(C2H3N1)]\\@


 The number of Unix installations has grown to 10,
  with more expected.
                  -- The Unix Programmer's Manual,
                     2nd Edition, June, 1972.
 Job cpu time:       0 days  0 hours  5 minutes 32.1 seconds.
 File lengths (MBytes):  RWF=     28 Int=      0 D2E=      0 Chk=      5 Scr=      1
 Normal termination of Gaussian 09 at Wed Aug 26 12:01:29 2020.
