 Entering Gaussian System, Link 0=/opt/cluster/programs/g09/g09_d.01/g09//g09
 Input=/home/boittier/MDCM/nms_sampling/cyanomethane_geom.xyz.dir/energies/cyanomethane_2414_energy.com
 Output=/scratch/boittier/cyanomethane_2414_energy/cyanomethane_2414_energy.out
 Initial command:
 /opt/cluster/programs/g09/g09_d.01/g09/l1.exe "/scratch/boittier/cyanomethane_2414_energy/Gau-56584.inp" -scrdir="/scratch/boittier/cyanomethane_2414_energy/"
 Entering Link 1 = /opt/cluster/programs/g09/g09_d.01/g09/l1.exe PID=     56585.
  
 Copyright (c) 1988,1990,1992,1993,1995,1998,2003,2009,2013,
            Gaussian, Inc.  All Rights Reserved.
  
 This is part of the Gaussian(R) 09 program.  It is based on
 the Gaussian(R) 03 system (copyright 2003, Gaussian, Inc.),
 the Gaussian(R) 98 system (copyright 1998, Gaussian, Inc.),
 the Gaussian(R) 94 system (copyright 1995, Gaussian, Inc.),
 the Gaussian 92(TM) system (copyright 1992, Gaussian, Inc.),
 the Gaussian 90(TM) system (copyright 1990, Gaussian, Inc.),
 the Gaussian 88(TM) system (copyright 1988, Gaussian, Inc.),
 the Gaussian 86(TM) system (copyright 1986, Carnegie Mellon
 University), and the Gaussian 82(TM) system (copyright 1983,
 Carnegie Mellon University). Gaussian is a federally registered
 trademark of Gaussian, Inc.
  
 This software contains proprietary and confidential information,
 including trade secrets, belonging to Gaussian, Inc.
  
 This software is provided under written license and may be
 used, copied, transmitted, or stored only in accord with that
 written license.
  
 The following legend is applicable only to US Government
 contracts under FAR:
  
                    RESTRICTED RIGHTS LEGEND
  
 Use, reproduction and disclosure by the US Government is
 subject to restrictions as set forth in subparagraphs (a)
 and (c) of the Commercial Computer Software - Restricted
 Rights clause in FAR 52.227-19.
  
 Gaussian, Inc.
 340 Quinnipiac St., Bldg. 40, Wallingford CT 06492
  
  
 ---------------------------------------------------------------
 Warning -- This program may not be used in any manner that
 competes with the business of Gaussian, Inc. or will provide
 assistance to any competitor of Gaussian, Inc.  The licensee
 of this program is prohibited from giving any competitor of
 Gaussian, Inc. access to this program.  By using this program,
 the user acknowledges that Gaussian, Inc. is engaged in the
 business of creating and licensing software in the field of
 computational chemistry and represents and warrants to the
 licensee that it is not a competitor of Gaussian, Inc. and that
 it will not use this program in any manner prohibited above.
 ---------------------------------------------------------------
  

 Cite this work as:
 Gaussian 09, Revision D.01,
 M. J. Frisch, G. W. Trucks, H. B. Schlegel, G. E. Scuseria, 
 M. A. Robb, J. R. Cheeseman, G. Scalmani, V. Barone, B. Mennucci, 
 G. A. Petersson, H. Nakatsuji, M. Caricato, X. Li, H. P. Hratchian, 
 A. F. Izmaylov, J. Bloino, G. Zheng, J. L. Sonnenberg, M. Hada, 
 M. Ehara, K. Toyota, R. Fukuda, J. Hasegawa, M. Ishida, T. Nakajima, 
 Y. Honda, O. Kitao, H. Nakai, T. Vreven, J. A. Montgomery, Jr., 
 J. E. Peralta, F. Ogliaro, M. Bearpark, J. J. Heyd, E. Brothers, 
 K. N. Kudin, V. N. Staroverov, T. Keith, R. Kobayashi, J. Normand, 
 K. Raghavachari, A. Rendell, J. C. Burant, S. S. Iyengar, J. Tomasi, 
 M. Cossi, N. Rega, J. M. Millam, M. Klene, J. E. Knox, J. B. Cross, 
 V. Bakken, C. Adamo, J. Jaramillo, R. Gomperts, R. E. Stratmann, 
 O. Yazyev, A. J. Austin, R. Cammi, C. Pomelli, J. W. Ochterski, 
 R. L. Martin, K. Morokuma, V. G. Zakrzewski, G. A. Voth, 
 P. Salvador, J. J. Dannenberg, S. Dapprich, A. D. Daniels, 
 O. Farkas, J. B. Foresman, J. V. Ortiz, J. Cioslowski, 
 and D. J. Fox, Gaussian, Inc., Wallingford CT, 2013.
 
 ******************************************
 Gaussian 09:  ES64L-G09RevD.01 24-Apr-2013
                26-Aug-2020 
 ******************************************
 %chk=/home/boittier/MDCM/nms_sampling/cyanomethane_geom.xyz.dir/cyanomethane_241
 4.chk
 %nproc=8
 Will use up to    8 processors via shared memory.
 %mem=16000MB
 --------------------
 #p B2PLYPD3/Def2QZVP
 --------------------
 1/38=1/1;
 2/12=2,17=6,18=5,40=1/2;
 3/5=45,7=101,11=9,16=1,25=1,30=1,74=-60/1,2,3;
 4//1;
 5/5=2,38=5/2;
 8/10=1/1;
 9/16=-3/6;
 6/7=2,8=2,9=2,10=2/1;
 99/5=1,9=1/99;
 Leave Link    1 at Wed Aug 26 16:26:35 2020, MaxMem=  2097152000 cpu:         0.2
 (Enter /opt/cluster/programs/g09/g09_d.01/g09/l101.exe)
 ------------
 cyanomethane
 ------------
 Symbolic Z-matrix:
 Charge =  0 Multiplicity = 1
 C                    -6.60424  -1.11313   1.18413 
 C                    -5.20246  -0.76537   0.89676 
 N                    -4.08564  -0.55512   0.70743 
 H                    -6.78016  -1.28034   2.2347 
 H                    -6.76788  -2.13676   0.57451 
 H                    -7.33403  -0.24687   0.74018 
 
 NAtoms=      6 NQM=        6 NQMF=       0 NMMI=      0 NMMIF=      0
                NMic=       0 NMicF=      0.
                    Isotopes and Nuclear Properties:
 (Nuclear quadrupole moments (NQMom) in fm**2, nuclear magnetic moments (NMagM)
  in nuclear magnetons)

  Atom         1           2           3           4           5           6
 IAtWgt=          12          12          14           1           1           1
 AtmWgt=  12.0000000  12.0000000  14.0030740   1.0078250   1.0078250   1.0078250
 NucSpn=           0           0           2           1           1           1
 AtZEff=   0.0000000   0.0000000   0.0000000   0.0000000   0.0000000   0.0000000
 NQMom=    0.0000000   0.0000000   2.0440000   0.0000000   0.0000000   0.0000000
 NMagM=    0.0000000   0.0000000   0.4037610   2.7928460   2.7928460   2.7928460
 AtZNuc=   6.0000000   6.0000000   7.0000000   1.0000000   1.0000000   1.0000000
 Leave Link  101 at Wed Aug 26 16:26:35 2020, MaxMem=  2097152000 cpu:         0.5
 (Enter /opt/cluster/programs/g09/g09_d.01/g09/l202.exe)
                          Input orientation:                          
 ---------------------------------------------------------------------
 Center     Atomic      Atomic             Coordinates (Angstroms)
 Number     Number       Type             X           Y           Z
 ---------------------------------------------------------------------
      1          6           0       -6.604235   -1.113125    1.184129
      2          6           0       -5.202455   -0.765366    0.896763
      3          7           0       -4.085637   -0.555115    0.707426
      4          1           0       -6.780162   -1.280335    2.234702
      5          1           0       -6.767879   -2.136763    0.574510
      6          1           0       -7.334034   -0.246866    0.740179
 ---------------------------------------------------------------------
                    Distance matrix (angstroms):
                    1          2          3          4          5
     1  C    0.000000
     2  C    1.472584   0.000000
     3  N    2.623348   1.152101   0.000000
     4  H    1.078245   2.131768   3.181035   0.000000
     5  H    1.202601   2.105975   3.116681   1.868116   0.000000
     6  H    1.216595   2.199316   3.263154   1.899587   1.979820
                    6
     6  H    0.000000
 Stoichiometry    C2H3N
 Framework group  C1[X(C2H3N)]
 Deg. of freedom    12
 Full point group                 C1      NOp   1
 Largest Abelian subgroup         C1      NOp   1
 Largest concise Abelian subgroup C1      NOp   1
                         Standard orientation:                         
 ---------------------------------------------------------------------
 Center     Atomic      Atomic             Coordinates (Angstroms)
 Number     Number       Type             X           Y           Z
 ---------------------------------------------------------------------
      1          6           0       -1.186230   -0.006369    0.023664
      2          6           0        0.285604    0.030436   -0.005532
      3          7           0        1.437038   -0.007769    0.003203
      4          1           0       -1.574016   -0.198398    1.011267
      5          1           0       -1.456494   -0.922785   -0.706671
      6          1           0       -1.624998    1.031166   -0.435801
 ---------------------------------------------------------------------
 Rotational constants (GHZ):    136.0948599      9.1406351      9.0994748
 Leave Link  202 at Wed Aug 26 16:26:35 2020, MaxMem=  2097152000 cpu:         0.0
 (Enter /opt/cluster/programs/g09/g09_d.01/g09/l301.exe)
 Standard basis: def2QZVP (5D, 7F)
 Ernie: Thresh=  0.10000D-02 Tol=  0.10000D-05 Strict=F.
 There are   321 symmetry adapted cartesian basis functions of A   symmetry.
 There are   261 symmetry adapted basis functions of A   symmetry.
   261 basis functions,   390 primitive gaussians,   321 cartesian basis functions
    11 alpha electrons       11 beta electrons
       nuclear repulsion energy        57.6527225275 Hartrees.
 IExCor=  419 DFT=T Ex+Corr=B2PLYPD3 ExCW=0 ScaHFX=  0.530000
 ScaDFX=  0.470000  0.470000  0.730000  0.730000 ScalE2=  0.270000  0.270000
 IRadAn=      0 IRanWt=     -1 IRanGd=            0 ICorTp=0 IEmpDi=141
 NAtoms=    6 NActive=    6 NUniq=    6 SFac= 1.00D+00 NAtFMM=   60 NAOKFM=F Big=F
 Integral buffers will be    131072 words long.
 Regular integral format.
 Two-electron integral symmetry is turned on.
 R6Disp:  Grimme-D3(BJ) Dispersion energy=       -0.0020974526 Hartrees.
 Nuclear repulsion after empirical dispersion term =       57.6506250749 Hartrees.
 Leave Link  301 at Wed Aug 26 16:26:35 2020, MaxMem=  2097152000 cpu:         0.4
 (Enter /opt/cluster/programs/g09/g09_d.01/g09/l302.exe)
 NPDir=0 NMtPBC=     1 NCelOv=     1 NCel=       1 NClECP=     1 NCelD=      1
         NCelK=      1 NCelE2=     1 NClLst=     1 CellRange=     0.0.
 One-electron integrals computed using PRISM.
   1 Symmetry operations used in ECPInt.
 ECPInt:  NShTT=    3321 NPrTT=    8136 LenC2=    3293 LenP2D=    7118.
 LDataN:  DoStor=T MaxTD1= 8 Len=  415
 NBasis=   261 RedAO= T EigKep=  8.52D-05  NBF=   261
 NBsUse=   261 1.00D-06 EigRej= -1.00D+00 NBFU=   261
 Precomputing XC quadrature grid using
 IXCGrd= 4 IRadAn=           0 IRanWt=          -1 IRanGd=           0 AccXCQ= 0.00D+00.
 Generated NRdTot=       0 NPtTot=           0 NUsed=           0 NTot=          32
 NSgBfM=   321   321   321   321   321 MxSgAt=     6 MxSgA2=     6.
 Leave Link  302 at Wed Aug 26 16:26:36 2020, MaxMem=  2097152000 cpu:         1.9
 (Enter /opt/cluster/programs/g09/g09_d.01/g09/l303.exe)
 DipDrv:  MaxL=1.
 Leave Link  303 at Wed Aug 26 16:26:36 2020, MaxMem=  2097152000 cpu:         0.2
 (Enter /opt/cluster/programs/g09/g09_d.01/g09/l401.exe)
 ExpMin= 7.60D-02 ExpMax= 9.07D+04 ExpMxC= 8.76D+02 IAcc=2 IRadAn=         4 AccDes= 0.00D+00
 Harris functional with IExCor=  419 and IRadAn=       4 diagonalized for initial guess.
 HarFok:  IExCor=  419 AccDes= 0.00D+00 IRadAn=         4 IDoV= 1 UseB2=F ITyADJ=14
 ICtDFT=  3500011 ScaDFX=  1.000000  1.000000  1.000000  1.000000
 FoFCou: FMM=F IPFlag=           0 FMFlag=      100000 FMFlg1=           0
         NFxFlg=           0 DoJE=T BraDBF=F KetDBF=T FulRan=T
         wScrn=  0.000000 ICntrl=     500 IOpCl=  0 I1Cent=   200000004 NGrid=           0
         NMat0=    1 NMatS0=      1 NMatT0=    0 NMatD0=    1 NMtDS0=    0 NMtDT0=    0
 Petite list used in FoFCou.
 Harris En= -132.825708117908    
 JPrj=0 DoOrth=F DoCkMO=F.
 Leave Link  401 at Wed Aug 26 16:26:36 2020, MaxMem=  2097152000 cpu:         3.6
 (Enter /opt/cluster/programs/g09/g09_d.01/g09/l502.exe)
 Closed shell SCF:
 Using DIIS extrapolation, IDIIS=  1040.
 Integral symmetry usage will be decided dynamically.
 Keep R1 ints in memory in canonical form, NReq=601554820.
 IVT=      332521 IEndB=      332521 NGot=  2097152000 MDV=  1512290144
 LenX=  1512290144 LenY=  1512186662
 Requested convergence on RMS density matrix=1.00D-08 within 128 cycles.
 Requested convergence on MAX density matrix=1.00D-06.
 Requested convergence on             energy=1.00D-06.
 No special actions if energy rises.
 FoFCou: FMM=F IPFlag=           0 FMFlag=           0 FMFlg1=           0
         NFxFlg=           0 DoJE=F BraDBF=F KetDBF=F FulRan=T
         wScrn=  0.000000 ICntrl=     600 IOpCl=  0 I1Cent=           0 NGrid=           0
         NMat0=    1 NMatS0=  34191 NMatT0=    0 NMatD0=    1 NMtDS0=    0 NMtDT0=    0
 Symmetry not used in FoFCou.
 Integral accuracy reduced to 1.0D-05 until final iterations.

 Cycle   1  Pass 0  IDiag  1:
 E= -132.412108376900    
 DIIS: error= 2.62D-02 at cycle   1 NSaved=   1.
 NSaved= 1 IEnMin= 1 EnMin= -132.412108376900     IErMin= 1 ErrMin= 2.62D-02
 ErrMax= 2.62D-02  0.00D+00 EMaxC= 1.00D-01 BMatC= 1.79D-01 BMatP= 1.79D-01
 IDIUse=3 WtCom= 7.38D-01 WtEn= 2.62D-01
 Coeff-Com:  0.100D+01
 Coeff-En:   0.100D+01
 Coeff:      0.100D+01
 Gap=     0.454 Goal=   None    Shift=    0.000
 GapD=    0.454 DampG=2.000 DampE=0.500 DampFc=1.0000 IDamp=-1.
 RMSDP=1.34D-03 MaxDP=7.14D-02              OVMax= 1.78D-01

 Cycle   2  Pass 0  IDiag  1:
 E= -132.430430025236     Delta-E=       -0.018321648336 Rises=F Damp=F
 DIIS: error= 3.03D-02 at cycle   2 NSaved=   2.
 NSaved= 2 IEnMin= 2 EnMin= -132.430430025236     IErMin= 1 ErrMin= 2.62D-02
 ErrMax= 3.03D-02  0.00D+00 EMaxC= 1.00D-01 BMatC= 1.02D-01 BMatP= 1.79D-01
 IDIUse=3 WtCom= 6.97D-01 WtEn= 3.03D-01
 Coeff-Com:  0.415D+00 0.585D+00
 Coeff-En:   0.445D+00 0.555D+00
 Coeff:      0.424D+00 0.576D+00
 Gap=     0.425 Goal=   None    Shift=    0.000
 RMSDP=9.02D-04 MaxDP=3.88D-02 DE=-1.83D-02 OVMax= 1.28D-01

 Cycle   3  Pass 0  IDiag  1:
 E= -132.503127471168     Delta-E=       -0.072697445932 Rises=F Damp=F
 DIIS: error= 1.61D-02 at cycle   3 NSaved=   3.
 NSaved= 3 IEnMin= 3 EnMin= -132.503127471168     IErMin= 3 ErrMin= 1.61D-02
 ErrMax= 1.61D-02  0.00D+00 EMaxC= 1.00D-01 BMatC= 1.82D-02 BMatP= 1.02D-01
 IDIUse=3 WtCom= 8.39D-01 WtEn= 1.61D-01
 Coeff-Com:  0.882D-01 0.305D+00 0.607D+00
 Coeff-En:   0.000D+00 0.102D+00 0.898D+00
 Coeff:      0.740D-01 0.272D+00 0.654D+00
 Gap=     0.420 Goal=   None    Shift=    0.000
 RMSDP=2.63D-04 MaxDP=9.25D-03 DE=-7.27D-02 OVMax= 5.72D-02

 Cycle   4  Pass 0  IDiag  1:
 E= -132.515389638558     Delta-E=       -0.012262167390 Rises=F Damp=F
 DIIS: error= 6.30D-03 at cycle   4 NSaved=   4.
 NSaved= 4 IEnMin= 4 EnMin= -132.515389638558     IErMin= 4 ErrMin= 6.30D-03
 ErrMax= 6.30D-03  0.00D+00 EMaxC= 1.00D-01 BMatC= 3.15D-03 BMatP= 1.82D-02
 IDIUse=3 WtCom= 9.37D-01 WtEn= 6.30D-02
 Coeff-Com: -0.133D-01 0.506D-01 0.345D+00 0.618D+00
 Coeff-En:   0.000D+00 0.000D+00 0.164D+00 0.836D+00
 Coeff:     -0.125D-01 0.474D-01 0.334D+00 0.631D+00
 Gap=     0.419 Goal=   None    Shift=    0.000
 RMSDP=9.34D-05 MaxDP=3.27D-03 DE=-1.23D-02 OVMax= 1.56D-02

 Cycle   5  Pass 0  IDiag  1:
 E= -132.518154401688     Delta-E=       -0.002764763131 Rises=F Damp=F
 DIIS: error= 3.81D-04 at cycle   5 NSaved=   5.
 NSaved= 5 IEnMin= 5 EnMin= -132.518154401688     IErMin= 5 ErrMin= 3.81D-04
 ErrMax= 3.81D-04  0.00D+00 EMaxC= 1.00D-01 BMatC= 1.73D-05 BMatP= 3.15D-03
 IDIUse=3 WtCom= 9.96D-01 WtEn= 3.81D-03
 Coeff-Com: -0.407D-02 0.603D-02 0.614D-01 0.161D+00 0.776D+00
 Coeff-En:   0.000D+00 0.000D+00 0.000D+00 0.000D+00 0.100D+01
 Coeff:     -0.406D-02 0.601D-02 0.612D-01 0.160D+00 0.777D+00
 Gap=     0.418 Goal=   None    Shift=    0.000
 RMSDP=9.33D-06 MaxDP=3.72D-04 DE=-2.76D-03 OVMax= 1.27D-03

 Initial convergence to 1.0D-05 achieved.  Increase integral accuracy.
 Cycle   6  Pass 1  IDiag  1:
 E= -132.518174095638     Delta-E=       -0.000019693950 Rises=F Damp=F
 DIIS: error= 8.72D-05 at cycle   1 NSaved=   1.
 NSaved= 1 IEnMin= 1 EnMin= -132.518174095638     IErMin= 1 ErrMin= 8.72D-05
 ErrMax= 8.72D-05  0.00D+00 EMaxC= 1.00D-01 BMatC= 8.44D-07 BMatP= 8.44D-07
 IDIUse=1 WtCom= 1.00D+00 WtEn= 0.00D+00
 Coeff-Com:  0.100D+01
 Coeff:      0.100D+01
 Gap=     0.419 Goal=   None    Shift=    0.000
 RMSDP=9.33D-06 MaxDP=3.72D-04 DE=-1.97D-05 OVMax= 4.61D-04

 Cycle   7  Pass 1  IDiag  1:
 E= -132.518174586612     Delta-E=       -0.000000490974 Rises=F Damp=F
 DIIS: error= 6.30D-05 at cycle   2 NSaved=   2.
 NSaved= 2 IEnMin= 2 EnMin= -132.518174586612     IErMin= 2 ErrMin= 6.30D-05
 ErrMax= 6.30D-05  0.00D+00 EMaxC= 1.00D-01 BMatC= 4.34D-07 BMatP= 8.44D-07
 IDIUse=1 WtCom= 1.00D+00 WtEn= 0.00D+00
 Coeff-Com:  0.411D+00 0.589D+00
 Coeff:      0.411D+00 0.589D+00
 Gap=     0.418 Goal=   None    Shift=    0.000
 RMSDP=1.20D-06 MaxDP=4.93D-05 DE=-4.91D-07 OVMax= 1.94D-04

 Cycle   8  Pass 1  IDiag  1:
 E= -132.518174972345     Delta-E=       -0.000000385733 Rises=F Damp=F
 DIIS: error= 1.39D-05 at cycle   3 NSaved=   3.
 NSaved= 3 IEnMin= 3 EnMin= -132.518174972345     IErMin= 3 ErrMin= 1.39D-05
 ErrMax= 1.39D-05  0.00D+00 EMaxC= 1.00D-01 BMatC= 2.49D-08 BMatP= 4.34D-07
 IDIUse=1 WtCom= 1.00D+00 WtEn= 0.00D+00
 Coeff-Com:  0.112D+00 0.228D+00 0.660D+00
 Coeff:      0.112D+00 0.228D+00 0.660D+00
 Gap=     0.418 Goal=   None    Shift=    0.000
 RMSDP=6.38D-07 MaxDP=2.90D-05 DE=-3.86D-07 OVMax= 6.64D-05

 Cycle   9  Pass 1  IDiag  1:
 E= -132.518174987435     Delta-E=       -0.000000015090 Rises=F Damp=F
 DIIS: error= 1.40D-05 at cycle   4 NSaved=   4.
 NSaved= 4 IEnMin= 4 EnMin= -132.518174987435     IErMin= 3 ErrMin= 1.39D-05
 ErrMax= 1.40D-05  0.00D+00 EMaxC= 1.00D-01 BMatC= 9.41D-09 BMatP= 2.49D-08
 IDIUse=1 WtCom= 1.00D+00 WtEn= 0.00D+00
 Coeff-Com: -0.611D-01-0.418D-01 0.411D+00 0.692D+00
 Coeff:     -0.611D-01-0.418D-01 0.411D+00 0.692D+00
 Gap=     0.418 Goal=   None    Shift=    0.000
 RMSDP=3.20D-07 MaxDP=1.57D-05 DE=-1.51D-08 OVMax= 4.46D-05

 Cycle  10  Pass 1  IDiag  1:
 E= -132.518174996356     Delta-E=       -0.000000008922 Rises=F Damp=F
 DIIS: error= 1.23D-06 at cycle   5 NSaved=   5.
 NSaved= 5 IEnMin= 5 EnMin= -132.518174996356     IErMin= 5 ErrMin= 1.23D-06
 ErrMax= 1.23D-06  0.00D+00 EMaxC= 1.00D-01 BMatC= 1.94D-10 BMatP= 9.41D-09
 IDIUse=1 WtCom= 1.00D+00 WtEn= 0.00D+00
 Coeff-Com: -0.272D-01-0.257D-01 0.111D+00 0.247D+00 0.695D+00
 Coeff:     -0.272D-01-0.257D-01 0.111D+00 0.247D+00 0.695D+00
 Gap=     0.418 Goal=   None    Shift=    0.000
 RMSDP=5.60D-08 MaxDP=2.56D-06 DE=-8.92D-09 OVMax= 4.42D-06

 Cycle  11  Pass 1  IDiag  1:
 E= -132.518174996562     Delta-E=       -0.000000000205 Rises=F Damp=F
 DIIS: error= 3.16D-07 at cycle   6 NSaved=   6.
 NSaved= 6 IEnMin= 6 EnMin= -132.518174996562     IErMin= 6 ErrMin= 3.16D-07
 ErrMax= 3.16D-07  0.00D+00 EMaxC= 1.00D-01 BMatC= 8.58D-12 BMatP= 1.94D-10
 IDIUse=1 WtCom= 1.00D+00 WtEn= 0.00D+00
 Coeff-Com:  0.590D-02 0.392D-02-0.441D-01-0.565D-01 0.191D-01 0.107D+01
 Coeff:      0.590D-02 0.392D-02-0.441D-01-0.565D-01 0.191D-01 0.107D+01
 Gap=     0.418 Goal=   None    Shift=    0.000
 RMSDP=1.53D-08 MaxDP=5.52D-07 DE=-2.05D-10 OVMax= 2.97D-06

 Cycle  12  Pass 1  IDiag  1:
 E= -132.518174996584     Delta-E=       -0.000000000023 Rises=F Damp=F
 DIIS: error= 9.39D-08 at cycle   7 NSaved=   7.
 NSaved= 7 IEnMin= 7 EnMin= -132.518174996584     IErMin= 7 ErrMin= 9.39D-08
 ErrMax= 9.39D-08  0.00D+00 EMaxC= 1.00D-01 BMatC= 5.73D-13 BMatP= 8.58D-12
 IDIUse=1 WtCom= 1.00D+00 WtEn= 0.00D+00
 Coeff-Com: -0.739D-03 0.332D-04 0.121D-01 0.952D-02-0.547D-01-0.489D+00
 Coeff-Com:  0.152D+01
 Coeff:     -0.739D-03 0.332D-04 0.121D-01 0.952D-02-0.547D-01-0.489D+00
 Coeff:      0.152D+01
 Gap=     0.418 Goal=   None    Shift=    0.000
 RMSDP=6.25D-09 MaxDP=2.22D-07 DE=-2.28D-11 OVMax= 1.55D-06

 SCF Done:  E(RB2PLYPD3) =  -132.518174997     A.U. after   12 cycles
            NFock= 12  Conv=0.63D-08     -V/T= 2.0057
 KE= 1.317687020616D+02 PE=-4.237018834968D+02 EE= 1.017643813636D+02
 Leave Link  502 at Wed Aug 26 16:26:56 2020, MaxMem=  2097152000 cpu:        89.5
 (Enter /opt/cluster/programs/g09/g09_d.01/g09/l801.exe)
 DoSCS=T DFT=T ScalE2(SS,OS)=  0.270000  0.270000
 ExpMin= 7.60D-02 ExpMax= 9.07D+04 ExpMxC= 8.76D+02 IAcc=3 IRadAn=         5 AccDes= 0.00D+00
 HarFok:  IExCor=  205 AccDes= 0.00D+00 IRadAn=         5 IDoV=-2 UseB2=F ITyADJ=14
 ICtDFT= 12500011 ScaDFX=  1.000000  1.000000  1.000000  1.000000
 Largest valence mixing into a core orbital is  1.17D-04
 Largest core mixing into a valence orbital is  1.93D-05
 Range of M.O.s used for correlation:     4   261
 NBasis=   261 NAE=    11 NBE=    11 NFC=     3 NFV=     0
 NROrb=    258 NOA=     8 NOB=     8 NVA=   250 NVB=   250

 **** Warning!!: The largest alpha MO coefficient is  0.22601173D+02

 Leave Link  801 at Wed Aug 26 16:26:57 2020, MaxMem=  2097152000 cpu:         0.6
 (Enter /opt/cluster/programs/g09/g09_d.01/g09/l906.exe)
 DoSCS=T DFT=T ScalE2(SS,OS)=  0.270000  0.270000
 FulOut=F Deriv=F AODrv=F NAtomX=     6
   MMem=        2666  MDisk=           8 MDiskD=           8
  W3Min=      642000 MinDsk=     1426009 NBas6D=         321
 NBas2D=       52689    NTT=       51681    LW2=     4508827
    MDV=  2096810215 MDiskM=       14501 NBas2p=       52036
 Fully direct method using O(OVN) memory.
 IMap=   1   2   3   4   5   6   7   8
 JobTyp=1 Pass  1:  I=   1 to   8 NPSUse=  8 ParTrn=T ParDer=T DoDerP=F.
 Spin components of T(2) and E(2):
     alpha-alpha T2 =       0.3627886495D-01 E2=     -0.2144723802D-01
     alpha-beta  T2 =       0.2152675359D+00 E2=     -0.1385782821D+00
     beta-beta   T2 =       0.3627886495D-01 E2=     -0.2144723802D-01
 The integrals were generated   1 times.
 E2(B2PLYPD3) =    -0.1814727582D+00 E(B2PLYPD3) =    -0.13269964775476D+03
 Leave Link  906 at Wed Aug 26 16:27:09 2020, MaxMem=  2097152000 cpu:       100.4
 (Enter /opt/cluster/programs/g09/g09_d.01/g09/l601.exe)
 Copying SCF densities to generalized density rwf, IOpCl= 0 IROHF=0.

 **********************************************************************

            Population analysis using the SCF density.

 **********************************************************************

 Orbital symmetries:
       Occupied  (A) (A) (A) (A) (A) (A) (A) (A) (A) (A) (A)
       Virtual   (A) (A) (A) (A) (A) (A) (A) (A) (A) (A) (A) (A)
                 (A) (A) (A) (A) (A) (A) (A) (A) (A) (A) (A) (A)
                 (A) (A) (A) (A) (A) (A) (A) (A) (A) (A) (A) (A)
                 (A) (A) (A) (A) (A) (A) (A) (A) (A) (A) (A) (A)
                 (A) (A) (A) (A) (A) (A) (A) (A) (A) (A) (A) (A)
                 (A) (A) (A) (A) (A) (A) (A) (A) (A) (A) (A) (A)
                 (A) (A) (A) (A) (A) (A) (A) (A) (A) (A) (A) (A)
                 (A) (A) (A) (A) (A) (A) (A) (A) (A) (A) (A) (A)
                 (A) (A) (A) (A) (A) (A) (A) (A) (A) (A) (A) (A)
                 (A) (A) (A) (A) (A) (A) (A) (A) (A) (A) (A) (A)
                 (A) (A) (A) (A) (A) (A) (A) (A) (A) (A) (A) (A)
                 (A) (A) (A) (A) (A) (A) (A) (A) (A) (A) (A) (A)
                 (A) (A) (A) (A) (A) (A) (A) (A) (A) (A) (A) (A)
                 (A) (A) (A) (A) (A) (A) (A) (A) (A) (A) (A) (A)
                 (A) (A) (A) (A) (A) (A) (A) (A) (A) (A) (A) (A)
                 (A) (A) (A) (A) (A) (A) (A) (A) (A) (A) (A) (A)
                 (A) (A) (A) (A) (A) (A) (A) (A) (A) (A) (A) (A)
                 (A) (A) (A) (A) (A) (A) (A) (A) (A) (A) (A) (A)
                 (A) (A) (A) (A) (A) (A) (A) (A) (A) (A) (A) (A)
                 (A) (A) (A) (A) (A) (A) (A) (A) (A) (A) (A) (A)
                 (A) (A) (A) (A) (A) (A) (A) (A) (A) (A)
 The electronic state is 1-A.
 Alpha  occ. eigenvalues --  -14.84117 -10.69527 -10.66285  -1.04171  -0.87552
 Alpha  occ. eigenvalues --   -0.58717  -0.52919  -0.51506  -0.44712  -0.39129
 Alpha  occ. eigenvalues --   -0.38710
 Alpha virt. eigenvalues --    0.03135   0.06658   0.07563   0.10138   0.11457
 Alpha virt. eigenvalues --    0.11821   0.14977   0.15622   0.16602   0.20020
 Alpha virt. eigenvalues --    0.20096   0.25050   0.30995   0.32029   0.34133
 Alpha virt. eigenvalues --    0.37542   0.38755   0.40027   0.40333   0.46229
 Alpha virt. eigenvalues --    0.50220   0.51207   0.58069   0.59851   0.61670
 Alpha virt. eigenvalues --    0.66125   0.67137   0.67506   0.70256   0.79217
 Alpha virt. eigenvalues --    0.79716   0.80712   0.81903   0.83012   0.86749
 Alpha virt. eigenvalues --    0.92879   0.94430   0.95281   0.96045   0.97459
 Alpha virt. eigenvalues --    1.04766   1.05221   1.06893   1.09455   1.11913
 Alpha virt. eigenvalues --    1.15598   1.20279   1.22521   1.23716   1.30353
 Alpha virt. eigenvalues --    1.33720   1.41373   1.43403   1.46738   1.51510
 Alpha virt. eigenvalues --    1.64498   1.65734   1.69365   1.71733   1.77639
 Alpha virt. eigenvalues --    1.79185   1.80150   1.90207   1.92972   1.93143
 Alpha virt. eigenvalues --    1.94270   1.98214   1.99769   2.00837   2.05202
 Alpha virt. eigenvalues --    2.06756   2.10797   2.11945   2.16832   2.17907
 Alpha virt. eigenvalues --    2.19921   2.22869   2.25175   2.31170   2.35197
 Alpha virt. eigenvalues --    2.40630   2.47870   2.51169   2.56161   2.58761
 Alpha virt. eigenvalues --    2.60699   2.66499   2.68727   2.70028   2.71054
 Alpha virt. eigenvalues --    2.72882   2.76120   2.79069   2.80630   2.85194
 Alpha virt. eigenvalues --    2.86180   2.89019   2.90441   2.92286   2.95808
 Alpha virt. eigenvalues --    3.05830   3.06643   3.18677   3.20968   3.22895
 Alpha virt. eigenvalues --    3.26231   3.27822   3.37514   3.39590   3.41016
 Alpha virt. eigenvalues --    3.52220   3.53048   3.59376   3.68004   3.72541
 Alpha virt. eigenvalues --    3.74479   3.81882   3.82777   3.86963   3.91429
 Alpha virt. eigenvalues --    4.00233   4.04426   4.04800   4.21145   4.22722
 Alpha virt. eigenvalues --    4.53500   4.91007   4.91181   5.06242   5.08564
 Alpha virt. eigenvalues --    5.10976   5.12705   5.15582   5.15760   5.17307
 Alpha virt. eigenvalues --    5.27559   5.36320   5.41060   5.47285   5.63291
 Alpha virt. eigenvalues --    5.64679   5.78496   5.80827   5.82119   5.84241
 Alpha virt. eigenvalues --    5.84711   5.89936   5.91500   5.93753   5.97077
 Alpha virt. eigenvalues --    5.97323   5.98955   6.02233   6.04218   6.04478
 Alpha virt. eigenvalues --    6.07108   6.10905   6.17058   6.19482   6.22261
 Alpha virt. eigenvalues --    6.36091   6.38290   6.42480   6.46082   6.47813
 Alpha virt. eigenvalues --    6.55519   6.63157   6.73764   6.77119   6.81132
 Alpha virt. eigenvalues --    6.84846   6.93220   6.99974   7.02726   7.02736
 Alpha virt. eigenvalues --    7.05291   7.14078   7.15115   7.21636   7.23210
 Alpha virt. eigenvalues --    7.29236   7.41867   7.45189   7.49613   7.50505
 Alpha virt. eigenvalues --    7.58135   7.64898   7.67245   7.70201   7.74390
 Alpha virt. eigenvalues --    7.80149   7.82260   7.87298   7.92071   8.03212
 Alpha virt. eigenvalues --    8.20400   8.25099   8.26853   8.28334   8.31101
 Alpha virt. eigenvalues --    8.38317   8.39714   8.44155   8.47676   8.50273
 Alpha virt. eigenvalues --    8.55508   8.63495   8.65282   8.66176   8.66528
 Alpha virt. eigenvalues --    8.66649   8.70051   8.75522   8.82503   8.84719
 Alpha virt. eigenvalues --    8.92610   9.00314   9.00819   9.04835   9.09994
 Alpha virt. eigenvalues --    9.18738   9.20646   9.28811   9.43131   9.51969
 Alpha virt. eigenvalues --    9.54920   9.58963   9.68984   9.70514   9.76821
 Alpha virt. eigenvalues --    9.88736   9.95095  10.13746  10.15141  10.25331
 Alpha virt. eigenvalues --   10.32205  10.34997  11.37223  11.69965  11.75438
 Alpha virt. eigenvalues --   11.90912  11.97285  12.63771  13.24606  28.91173
 Alpha virt. eigenvalues --   29.44000  38.30927 148.52668 149.07407 198.22768
          Condensed to atoms (all electrons):
               1          2          3          4          5          6
     1  C    4.683914   0.288964  -0.060050   0.407161   0.403039   0.401560
     2  C    0.288964   4.844960   0.987497  -0.038291  -0.050167  -0.038665
     3  N   -0.060050   0.987497   6.278210  -0.000693  -0.001275  -0.000364
     4  H    0.407161  -0.038291  -0.000693   0.570293  -0.025833  -0.027224
     5  H    0.403039  -0.050167  -0.001275  -0.025833   0.590396  -0.021110
     6  H    0.401560  -0.038665  -0.000364  -0.027224  -0.021110   0.583127
 Mulliken charges:
               1
     1  C   -0.124587
     2  C    0.005702
     3  N   -0.203326
     4  H    0.114586
     5  H    0.104950
     6  H    0.102676
 Sum of Mulliken charges =   0.00000
 Mulliken charges with hydrogens summed into heavy atoms:
               1
     1  C    0.197625
     2  C    0.005702
     3  N   -0.203326
 Electronic spatial extent (au):  <R**2>=            164.8657
 Charge=              0.0000 electrons
 Dipole moment (field-independent basis, Debye):
    X=             -4.0741    Y=             -0.0134    Z=              0.0205  Tot=              4.0742
 Quadrupole moment (field-independent basis, Debye-Ang):
   XX=            -21.4323   YY=            -17.7213   ZZ=            -17.8304
   XY=             -0.0337   XZ=             -0.1225   YZ=             -0.0350
 Traceless Quadrupole moment (field-independent basis, Debye-Ang):
   XX=             -2.4377   YY=              1.2734   ZZ=              1.1643
   XY=             -0.0337   XZ=             -0.1225   YZ=             -0.0350
 Octapole moment (field-independent basis, Debye-Ang**2):
  XXX=            -11.4459  YYY=              0.2110  ZZZ=              1.0516  XYY=             -2.2825
  XXY=              0.2985  XXZ=              0.4582  XZZ=             -2.0936  YZZ=             -0.5305
  YYZ=             -0.9392  XYZ=              0.1655
 Hexadecapole moment (field-independent basis, Debye-Ang**3):
 XXXX=           -188.0709 YYYY=            -26.9604 ZZZZ=            -25.6969 XXXY=             -0.5883
 XXXZ=             -1.3008 YYYX=             -0.7417 YYYZ=             -0.0031 ZZZX=             -1.8153
 ZZZY=             -0.0253 XXYY=            -31.7697 XXZZ=            -31.7458 YYZZ=             -8.5442
 XXYZ=             -0.5296 YYXZ=              1.5265 ZZXY=              0.7456
 N-N= 5.765062507493D+01 E-N=-4.237018842225D+02  KE= 1.317687020616D+02
 Leave Link  601 at Wed Aug 26 16:27:09 2020, MaxMem=  2097152000 cpu:         0.3
 (Enter /opt/cluster/programs/g09/g09_d.01/g09/l9999.exe)
 1\1\GINC-NODE32\SP\RB2PLYPD3-FC\def2QZVP\C2H3N1\BOITTIER\26-Aug-2020\0
 \\#p B2PLYPD3/Def2QZVP\\cyanomethane\\0,1\C,0,-6.604235,-1.113125,1.18
 4129\C,0,-5.202455,-0.765366,0.896763\N,0,-4.085637,-0.555115,0.707426
 \H,0,-6.780162,-1.280335,2.234702\H,0,-6.767879,-2.136763,0.57451\H,0,
 -7.334034,-0.246866,0.740179\\Version=ES64L-G09RevD.01\State=1-A\HF=-1
 32.518175\MP2=-132.6996478\RMSD=6.252e-09\PG=C01 [X(C2H3N1)]\\@


 ALL MEN WHO EXPLORE
 DEPLORE
 THAT FRUSTRATING HURDLE
 THE GIRDLE.

         -- COLIN FLETCHER
 Job cpu time:       0 days  0 hours  3 minutes 18.6 seconds.
 File lengths (MBytes):  RWF=     28 Int=      0 D2E=      0 Chk=      5 Scr=      1
 Normal termination of Gaussian 09 at Wed Aug 26 16:27:09 2020.
