 Entering Gaussian System, Link 0=/opt/cluster/programs/g09/g09_d.01/g09//g09
 Input=/home/boittier/MDCM/nms_sampling/cyanomethane_geom.xyz.dir/energies/cyanomethane_3192_energy.com
 Output=/scratch/boittier/cyanomethane_3192_energy/cyanomethane_3192_energy.out
 Initial command:
 /opt/cluster/programs/g09/g09_d.01/g09/l1.exe "/scratch/boittier/cyanomethane_3192_energy/Gau-107701.inp" -scrdir="/scratch/boittier/cyanomethane_3192_energy/"
 Entering Link 1 = /opt/cluster/programs/g09/g09_d.01/g09/l1.exe PID=    107702.
  
 Copyright (c) 1988,1990,1992,1993,1995,1998,2003,2009,2013,
            Gaussian, Inc.  All Rights Reserved.
  
 This is part of the Gaussian(R) 09 program.  It is based on
 the Gaussian(R) 03 system (copyright 2003, Gaussian, Inc.),
 the Gaussian(R) 98 system (copyright 1998, Gaussian, Inc.),
 the Gaussian(R) 94 system (copyright 1995, Gaussian, Inc.),
 the Gaussian 92(TM) system (copyright 1992, Gaussian, Inc.),
 the Gaussian 90(TM) system (copyright 1990, Gaussian, Inc.),
 the Gaussian 88(TM) system (copyright 1988, Gaussian, Inc.),
 the Gaussian 86(TM) system (copyright 1986, Carnegie Mellon
 University), and the Gaussian 82(TM) system (copyright 1983,
 Carnegie Mellon University). Gaussian is a federally registered
 trademark of Gaussian, Inc.
  
 This software contains proprietary and confidential information,
 including trade secrets, belonging to Gaussian, Inc.
  
 This software is provided under written license and may be
 used, copied, transmitted, or stored only in accord with that
 written license.
  
 The following legend is applicable only to US Government
 contracts under FAR:
  
                    RESTRICTED RIGHTS LEGEND
  
 Use, reproduction and disclosure by the US Government is
 subject to restrictions as set forth in subparagraphs (a)
 and (c) of the Commercial Computer Software - Restricted
 Rights clause in FAR 52.227-19.
  
 Gaussian, Inc.
 340 Quinnipiac St., Bldg. 40, Wallingford CT 06492
  
  
 ---------------------------------------------------------------
 Warning -- This program may not be used in any manner that
 competes with the business of Gaussian, Inc. or will provide
 assistance to any competitor of Gaussian, Inc.  The licensee
 of this program is prohibited from giving any competitor of
 Gaussian, Inc. access to this program.  By using this program,
 the user acknowledges that Gaussian, Inc. is engaged in the
 business of creating and licensing software in the field of
 computational chemistry and represents and warrants to the
 licensee that it is not a competitor of Gaussian, Inc. and that
 it will not use this program in any manner prohibited above.
 ---------------------------------------------------------------
  

 Cite this work as:
 Gaussian 09, Revision D.01,
 M. J. Frisch, G. W. Trucks, H. B. Schlegel, G. E. Scuseria, 
 M. A. Robb, J. R. Cheeseman, G. Scalmani, V. Barone, B. Mennucci, 
 G. A. Petersson, H. Nakatsuji, M. Caricato, X. Li, H. P. Hratchian, 
 A. F. Izmaylov, J. Bloino, G. Zheng, J. L. Sonnenberg, M. Hada, 
 M. Ehara, K. Toyota, R. Fukuda, J. Hasegawa, M. Ishida, T. Nakajima, 
 Y. Honda, O. Kitao, H. Nakai, T. Vreven, J. A. Montgomery, Jr., 
 J. E. Peralta, F. Ogliaro, M. Bearpark, J. J. Heyd, E. Brothers, 
 K. N. Kudin, V. N. Staroverov, T. Keith, R. Kobayashi, J. Normand, 
 K. Raghavachari, A. Rendell, J. C. Burant, S. S. Iyengar, J. Tomasi, 
 M. Cossi, N. Rega, J. M. Millam, M. Klene, J. E. Knox, J. B. Cross, 
 V. Bakken, C. Adamo, J. Jaramillo, R. Gomperts, R. E. Stratmann, 
 O. Yazyev, A. J. Austin, R. Cammi, C. Pomelli, J. W. Ochterski, 
 R. L. Martin, K. Morokuma, V. G. Zakrzewski, G. A. Voth, 
 P. Salvador, J. J. Dannenberg, S. Dapprich, A. D. Daniels, 
 O. Farkas, J. B. Foresman, J. V. Ortiz, J. Cioslowski, 
 and D. J. Fox, Gaussian, Inc., Wallingford CT, 2013.
 
 ******************************************
 Gaussian 09:  ES64L-G09RevD.01 24-Apr-2013
                26-Aug-2020 
 ******************************************
 %chk=/home/boittier/MDCM/nms_sampling/cyanomethane_geom.xyz.dir/cyanomethane_319
 2.chk
 %nproc=8
 Will use up to    8 processors via shared memory.
 %mem=16000MB
 --------------------
 #p B2PLYPD3/Def2QZVP
 --------------------
 1/38=1/1;
 2/12=2,17=6,18=5,40=1/2;
 3/5=45,7=101,11=9,16=1,25=1,30=1,74=-60/1,2,3;
 4//1;
 5/5=2,38=5/2;
 8/10=1/1;
 9/16=-3/6;
 6/7=2,8=2,9=2,10=2/1;
 99/5=1,9=1/99;
 Leave Link    1 at Wed Aug 26 22:15:31 2020, MaxMem=  2097152000 cpu:         0.2
 (Enter /opt/cluster/programs/g09/g09_d.01/g09/l101.exe)
 ------------
 cyanomethane
 ------------
 Symbolic Z-matrix:
 Charge =  0 Multiplicity = 1
 C                    -6.59093  -1.12071   1.18991 
 C                    -5.19859  -0.78618   0.8338 
 N                    -4.10089  -0.53918   0.74139 
 H                    -6.83255  -1.19701   2.33532 
 H                    -6.86838  -2.0641    0.66299 
 H                    -7.17597  -0.31623   0.75701 
 
 NAtoms=      6 NQM=        6 NQMF=       0 NMMI=      0 NMMIF=      0
                NMic=       0 NMicF=      0.
                    Isotopes and Nuclear Properties:
 (Nuclear quadrupole moments (NQMom) in fm**2, nuclear magnetic moments (NMagM)
  in nuclear magnetons)

  Atom         1           2           3           4           5           6
 IAtWgt=          12          12          14           1           1           1
 AtmWgt=  12.0000000  12.0000000  14.0030740   1.0078250   1.0078250   1.0078250
 NucSpn=           0           0           2           1           1           1
 AtZEff=   0.0000000   0.0000000   0.0000000   0.0000000   0.0000000   0.0000000
 NQMom=    0.0000000   0.0000000   2.0440000   0.0000000   0.0000000   0.0000000
 NMagM=    0.0000000   0.0000000   0.4037610   2.7928460   2.7928460   2.7928460
 AtZNuc=   6.0000000   6.0000000   7.0000000   1.0000000   1.0000000   1.0000000
 Leave Link  101 at Wed Aug 26 22:15:32 2020, MaxMem=  2097152000 cpu:         0.5
 (Enter /opt/cluster/programs/g09/g09_d.01/g09/l202.exe)
                          Input orientation:                          
 ---------------------------------------------------------------------
 Center     Atomic      Atomic             Coordinates (Angstroms)
 Number     Number       Type             X           Y           Z
 ---------------------------------------------------------------------
      1          6           0       -6.590931   -1.120709    1.189907
      2          6           0       -5.198593   -0.786179    0.833799
      3          7           0       -4.100894   -0.539177    0.741394
      4          1           0       -6.832546   -1.197013    2.335320
      5          1           0       -6.868384   -2.064104    0.662986
      6          1           0       -7.175973   -0.316233    0.757006
 ---------------------------------------------------------------------
                    Distance matrix (angstroms):
                    1          2          3          4          5
     1  C    0.000000
     2  C    1.475577   0.000000
     3  N    2.596079   1.128934   0.000000
     4  H    1.173103   2.256801   3.230367   0.000000
     5  H    1.115625   2.109614   3.160783   1.884100   0.000000
     6  H    1.084831   2.033907   3.083190   1.839780   1.777218
                    6
     6  H    0.000000
 Stoichiometry    C2H3N
 Framework group  C1[X(C2H3N)]
 Deg. of freedom    12
 Full point group                 C1      NOp   1
 Largest Abelian subgroup         C1      NOp   1
 Largest concise Abelian subgroup C1      NOp   1
                         Standard orientation:                         
 ---------------------------------------------------------------------
 Center     Atomic      Atomic             Coordinates (Angstroms)
 Number     Number       Type             X           Y           Z
 ---------------------------------------------------------------------
      1          6           0        1.175897    0.016780   -0.005942
      2          6           0       -0.296954   -0.070307    0.015357
      3          7           0       -1.420063    0.040910   -0.012015
      4          1           0        1.632969    1.081533   -0.189129
      5          1           0        1.557305   -0.712761   -0.758882
      6          1           0        1.476503   -0.333977    0.975620
 ---------------------------------------------------------------------
 Rotational constants (GHZ):    145.6508232      9.3113349      9.2586957
 Leave Link  202 at Wed Aug 26 22:15:32 2020, MaxMem=  2097152000 cpu:         0.0
 (Enter /opt/cluster/programs/g09/g09_d.01/g09/l301.exe)
 Standard basis: def2QZVP (5D, 7F)
 Ernie: Thresh=  0.10000D-02 Tol=  0.10000D-05 Strict=F.
 There are   321 symmetry adapted cartesian basis functions of A   symmetry.
 There are   261 symmetry adapted basis functions of A   symmetry.
   261 basis functions,   390 primitive gaussians,   321 cartesian basis functions
    11 alpha electrons       11 beta electrons
       nuclear repulsion energy        58.4973588082 Hartrees.
 IExCor=  419 DFT=T Ex+Corr=B2PLYPD3 ExCW=0 ScaHFX=  0.530000
 ScaDFX=  0.470000  0.470000  0.730000  0.730000 ScalE2=  0.270000  0.270000
 IRadAn=      0 IRanWt=     -1 IRanGd=            0 ICorTp=0 IEmpDi=141
 NAtoms=    6 NActive=    6 NUniq=    6 SFac= 1.00D+00 NAtFMM=   60 NAOKFM=F Big=F
 Integral buffers will be    131072 words long.
 Regular integral format.
 Two-electron integral symmetry is turned on.
 R6Disp:  Grimme-D3(BJ) Dispersion energy=       -0.0021015915 Hartrees.
 Nuclear repulsion after empirical dispersion term =       58.4952572166 Hartrees.
 Leave Link  301 at Wed Aug 26 22:15:32 2020, MaxMem=  2097152000 cpu:         0.5
 (Enter /opt/cluster/programs/g09/g09_d.01/g09/l302.exe)
 NPDir=0 NMtPBC=     1 NCelOv=     1 NCel=       1 NClECP=     1 NCelD=      1
         NCelK=      1 NCelE2=     1 NClLst=     1 CellRange=     0.0.
 One-electron integrals computed using PRISM.
   1 Symmetry operations used in ECPInt.
 ECPInt:  NShTT=    3321 NPrTT=    8136 LenC2=    3293 LenP2D=    7124.
 LDataN:  DoStor=T MaxTD1= 8 Len=  415
 NBasis=   261 RedAO= T EigKep=  7.83D-05  NBF=   261
 NBsUse=   261 1.00D-06 EigRej= -1.00D+00 NBFU=   261
 Precomputing XC quadrature grid using
 IXCGrd= 4 IRadAn=           0 IRanWt=          -1 IRanGd=           0 AccXCQ= 0.00D+00.
 Generated NRdTot=       0 NPtTot=           0 NUsed=           0 NTot=          32
 NSgBfM=   321   321   321   321   321 MxSgAt=     6 MxSgA2=     6.
 Leave Link  302 at Wed Aug 26 22:15:33 2020, MaxMem=  2097152000 cpu:         2.3
 (Enter /opt/cluster/programs/g09/g09_d.01/g09/l303.exe)
 DipDrv:  MaxL=1.
 Leave Link  303 at Wed Aug 26 22:15:33 2020, MaxMem=  2097152000 cpu:         0.3
 (Enter /opt/cluster/programs/g09/g09_d.01/g09/l401.exe)
 ExpMin= 7.60D-02 ExpMax= 9.07D+04 ExpMxC= 8.76D+02 IAcc=2 IRadAn=         4 AccDes= 0.00D+00
 Harris functional with IExCor=  419 and IRadAn=       4 diagonalized for initial guess.
 HarFok:  IExCor=  419 AccDes= 0.00D+00 IRadAn=         4 IDoV= 1 UseB2=F ITyADJ=14
 ICtDFT=  3500011 ScaDFX=  1.000000  1.000000  1.000000  1.000000
 FoFCou: FMM=F IPFlag=           0 FMFlag=      100000 FMFlg1=           0
         NFxFlg=           0 DoJE=T BraDBF=F KetDBF=T FulRan=T
         wScrn=  0.000000 ICntrl=     500 IOpCl=  0 I1Cent=   200000004 NGrid=           0
         NMat0=    1 NMatS0=      1 NMatT0=    0 NMatD0=    1 NMtDS0=    0 NMtDT0=    0
 Petite list used in FoFCou.
 Harris En= -132.843139866934    
 JPrj=0 DoOrth=F DoCkMO=F.
 Leave Link  401 at Wed Aug 26 22:15:33 2020, MaxMem=  2097152000 cpu:         4.4
 (Enter /opt/cluster/programs/g09/g09_d.01/g09/l502.exe)
 Closed shell SCF:
 Using DIIS extrapolation, IDIIS=  1040.
 Integral symmetry usage will be decided dynamically.
 Keep R1 ints in memory in canonical form, NReq=601554820.
 IVT=      332521 IEndB=      332521 NGot=  2097152000 MDV=  1512290144
 LenX=  1512290144 LenY=  1512186662
 Requested convergence on RMS density matrix=1.00D-08 within 128 cycles.
 Requested convergence on MAX density matrix=1.00D-06.
 Requested convergence on             energy=1.00D-06.
 No special actions if energy rises.
 FoFCou: FMM=F IPFlag=           0 FMFlag=           0 FMFlg1=           0
         NFxFlg=           0 DoJE=F BraDBF=F KetDBF=F FulRan=T
         wScrn=  0.000000 ICntrl=     600 IOpCl=  0 I1Cent=           0 NGrid=           0
         NMat0=    1 NMatS0=  34191 NMatT0=    0 NMatD0=    1 NMtDS0=    0 NMtDT0=    0
 Symmetry not used in FoFCou.
 Integral accuracy reduced to 1.0D-05 until final iterations.

 Cycle   1  Pass 0  IDiag  1:
 E= -132.412090114595    
 DIIS: error= 2.75D-02 at cycle   1 NSaved=   1.
 NSaved= 1 IEnMin= 1 EnMin= -132.412090114595     IErMin= 1 ErrMin= 2.75D-02
 ErrMax= 2.75D-02  0.00D+00 EMaxC= 1.00D-01 BMatC= 1.92D-01 BMatP= 1.92D-01
 IDIUse=3 WtCom= 7.25D-01 WtEn= 2.75D-01
 Coeff-Com:  0.100D+01
 Coeff-En:   0.100D+01
 Coeff:      0.100D+01
 Gap=     0.446 Goal=   None    Shift=    0.000
 GapD=    0.446 DampG=2.000 DampE=0.500 DampFc=1.0000 IDamp=-1.
 RMSDP=1.37D-03 MaxDP=7.70D-02              OVMax= 1.68D-01

 Cycle   2  Pass 0  IDiag  1:
 E= -132.441324928250     Delta-E=       -0.029234813655 Rises=F Damp=F
 DIIS: error= 3.15D-02 at cycle   2 NSaved=   2.
 NSaved= 2 IEnMin= 2 EnMin= -132.441324928250     IErMin= 1 ErrMin= 2.75D-02
 ErrMax= 3.15D-02  0.00D+00 EMaxC= 1.00D-01 BMatC= 1.01D-01 BMatP= 1.92D-01
 IDIUse=3 WtCom= 6.85D-01 WtEn= 3.15D-01
 Coeff-Com:  0.405D+00 0.595D+00
 Coeff-En:   0.413D+00 0.587D+00
 Coeff:      0.407D+00 0.593D+00
 Gap=     0.466 Goal=   None    Shift=    0.000
 RMSDP=8.82D-04 MaxDP=3.75D-02 DE=-2.92D-02 OVMax= 1.23D-01

 Cycle   3  Pass 0  IDiag  1:
 E= -132.512557154415     Delta-E=       -0.071232226165 Rises=F Damp=F
 DIIS: error= 1.46D-02 at cycle   3 NSaved=   3.
 NSaved= 3 IEnMin= 3 EnMin= -132.512557154415     IErMin= 3 ErrMin= 1.46D-02
 ErrMax= 1.46D-02  0.00D+00 EMaxC= 1.00D-01 BMatC= 1.78D-02 BMatP= 1.01D-01
 IDIUse=3 WtCom= 8.54D-01 WtEn= 1.46D-01
 Coeff-Com:  0.891D-01 0.307D+00 0.604D+00
 Coeff-En:   0.000D+00 0.888D-01 0.911D+00
 Coeff:      0.762D-01 0.275D+00 0.648D+00
 Gap=     0.430 Goal=   None    Shift=    0.000
 RMSDP=2.55D-04 MaxDP=9.27D-03 DE=-7.12D-02 OVMax= 5.51D-02

 Cycle   4  Pass 0  IDiag  1:
 E= -132.524556186969     Delta-E=       -0.011999032553 Rises=F Damp=F
 DIIS: error= 5.62D-03 at cycle   4 NSaved=   4.
 NSaved= 4 IEnMin= 4 EnMin= -132.524556186969     IErMin= 4 ErrMin= 5.62D-03
 ErrMax= 5.62D-03  0.00D+00 EMaxC= 1.00D-01 BMatC= 2.89D-03 BMatP= 1.78D-02
 IDIUse=3 WtCom= 9.44D-01 WtEn= 5.62D-02
 Coeff-Com: -0.125D-01 0.490D-01 0.337D+00 0.626D+00
 Coeff-En:   0.000D+00 0.000D+00 0.148D+00 0.852D+00
 Coeff:     -0.118D-01 0.463D-01 0.327D+00 0.639D+00
 Gap=     0.429 Goal=   None    Shift=    0.000
 RMSDP=8.88D-05 MaxDP=2.90D-03 DE=-1.20D-02 OVMax= 1.48D-02

 Cycle   5  Pass 0  IDiag  1:
 E= -132.527047443393     Delta-E=       -0.002491256424 Rises=F Damp=F
 DIIS: error= 3.72D-04 at cycle   5 NSaved=   5.
 NSaved= 5 IEnMin= 5 EnMin= -132.527047443393     IErMin= 5 ErrMin= 3.72D-04
 ErrMax= 3.72D-04  0.00D+00 EMaxC= 1.00D-01 BMatC= 1.44D-05 BMatP= 2.89D-03
 IDIUse=3 WtCom= 9.96D-01 WtEn= 3.72D-03
 Coeff-Com: -0.365D-02 0.481D-02 0.533D-01 0.149D+00 0.796D+00
 Coeff-En:   0.000D+00 0.000D+00 0.000D+00 0.000D+00 0.100D+01
 Coeff:     -0.364D-02 0.479D-02 0.531D-01 0.149D+00 0.797D+00
 Gap=     0.428 Goal=   None    Shift=    0.000
 RMSDP=9.02D-06 MaxDP=3.68D-04 DE=-2.49D-03 OVMax= 1.14D-03

 Initial convergence to 1.0D-05 achieved.  Increase integral accuracy.
 Cycle   6  Pass 1  IDiag  1:
 E= -132.527067679284     Delta-E=       -0.000020235891 Rises=F Damp=F
 DIIS: error= 8.30D-05 at cycle   1 NSaved=   1.
 NSaved= 1 IEnMin= 1 EnMin= -132.527067679284     IErMin= 1 ErrMin= 8.30D-05
 ErrMax= 8.30D-05  0.00D+00 EMaxC= 1.00D-01 BMatC= 7.06D-07 BMatP= 7.06D-07
 IDIUse=1 WtCom= 1.00D+00 WtEn= 0.00D+00
 Coeff-Com:  0.100D+01
 Coeff:      0.100D+01
 Gap=     0.429 Goal=   None    Shift=    0.000
 RMSDP=9.02D-06 MaxDP=3.68D-04 DE=-2.02D-05 OVMax= 4.21D-04

 Cycle   7  Pass 1  IDiag  1:
 E= -132.527068113326     Delta-E=       -0.000000434043 Rises=F Damp=F
 DIIS: error= 4.95D-05 at cycle   2 NSaved=   2.
 NSaved= 2 IEnMin= 2 EnMin= -132.527068113326     IErMin= 2 ErrMin= 4.95D-05
 ErrMax= 4.95D-05  0.00D+00 EMaxC= 1.00D-01 BMatC= 3.50D-07 BMatP= 7.06D-07
 IDIUse=1 WtCom= 1.00D+00 WtEn= 0.00D+00
 Coeff-Com:  0.405D+00 0.595D+00
 Coeff:      0.405D+00 0.595D+00
 Gap=     0.429 Goal=   None    Shift=    0.000
 RMSDP=1.08D-06 MaxDP=4.40D-05 DE=-4.34D-07 OVMax= 1.73D-04

 Cycle   8  Pass 1  IDiag  1:
 E= -132.527068422454     Delta-E=       -0.000000309128 Rises=F Damp=F
 DIIS: error= 1.42D-05 at cycle   3 NSaved=   3.
 NSaved= 3 IEnMin= 3 EnMin= -132.527068422454     IErMin= 3 ErrMin= 1.42D-05
 ErrMax= 1.42D-05  0.00D+00 EMaxC= 1.00D-01 BMatC= 2.07D-08 BMatP= 3.50D-07
 IDIUse=1 WtCom= 1.00D+00 WtEn= 0.00D+00
 Coeff-Com:  0.934D-01 0.214D+00 0.693D+00
 Coeff:      0.934D-01 0.214D+00 0.693D+00
 Gap=     0.429 Goal=   None    Shift=    0.000
 RMSDP=6.14D-07 MaxDP=2.55D-05 DE=-3.09D-07 OVMax= 6.00D-05

 Cycle   9  Pass 1  IDiag  1:
 E= -132.527068436164     Delta-E=       -0.000000013709 Rises=F Damp=F
 DIIS: error= 1.35D-05 at cycle   4 NSaved=   4.
 NSaved= 4 IEnMin= 4 EnMin= -132.527068436164     IErMin= 4 ErrMin= 1.35D-05
 ErrMax= 1.35D-05  0.00D+00 EMaxC= 1.00D-01 BMatC= 8.39D-09 BMatP= 2.07D-08
 IDIUse=1 WtCom= 1.00D+00 WtEn= 0.00D+00
 Coeff-Com: -0.673D-01-0.479D-01 0.426D+00 0.689D+00
 Coeff:     -0.673D-01-0.479D-01 0.426D+00 0.689D+00
 Gap=     0.429 Goal=   None    Shift=    0.000
 RMSDP=3.07D-07 MaxDP=1.56D-05 DE=-1.37D-08 OVMax= 3.88D-05

 Cycle  10  Pass 1  IDiag  1:
 E= -132.527068444745     Delta-E=       -0.000000008582 Rises=F Damp=F
 DIIS: error= 1.13D-06 at cycle   5 NSaved=   5.
 NSaved= 5 IEnMin= 5 EnMin= -132.527068444745     IErMin= 5 ErrMin= 1.13D-06
 ErrMax= 1.13D-06  0.00D+00 EMaxC= 1.00D-01 BMatC= 1.66D-10 BMatP= 8.39D-09
 IDIUse=1 WtCom= 1.00D+00 WtEn= 0.00D+00
 Coeff-Com: -0.213D-01-0.233D-01 0.586D-01 0.164D+00 0.822D+00
 Coeff:     -0.213D-01-0.233D-01 0.586D-01 0.164D+00 0.822D+00
 Gap=     0.429 Goal=   None    Shift=    0.000
 RMSDP=5.87D-08 MaxDP=2.61D-06 DE=-8.58D-09 OVMax= 7.80D-06

 Cycle  11  Pass 1  IDiag  1:
 E= -132.527068445056     Delta-E=       -0.000000000310 Rises=F Damp=F
 DIIS: error= 6.32D-07 at cycle   6 NSaved=   6.
 NSaved= 6 IEnMin= 6 EnMin= -132.527068445056     IErMin= 6 ErrMin= 6.32D-07
 ErrMax= 6.32D-07  0.00D+00 EMaxC= 1.00D-01 BMatC= 2.13D-11 BMatP= 1.66D-10
 IDIUse=1 WtCom= 1.00D+00 WtEn= 0.00D+00
 Coeff-Com:  0.108D-01 0.719D-02-0.746D-01-0.104D+00 0.906D-01 0.107D+01
 Coeff:      0.108D-01 0.719D-02-0.746D-01-0.104D+00 0.906D-01 0.107D+01
 Gap=     0.429 Goal=   None    Shift=    0.000
 RMSDP=2.50D-08 MaxDP=8.85D-07 DE=-3.10D-10 OVMax= 5.56D-06

 Cycle  12  Pass 1  IDiag  1:
 E= -132.527068445129     Delta-E=       -0.000000000073 Rises=F Damp=F
 DIIS: error= 1.15D-07 at cycle   7 NSaved=   7.
 NSaved= 7 IEnMin= 7 EnMin= -132.527068445129     IErMin= 7 ErrMin= 1.15D-07
 ErrMax= 1.15D-07  0.00D+00 EMaxC= 1.00D-01 BMatC= 1.09D-12 BMatP= 2.13D-11
 IDIUse=1 WtCom= 1.00D+00 WtEn= 0.00D+00
 Coeff-Com:  0.585D-03 0.121D-02 0.483D-02-0.348D-02-0.799D-01-0.154D+00
 Coeff-Com:  0.123D+01
 Coeff:      0.585D-03 0.121D-02 0.483D-02-0.348D-02-0.799D-01-0.154D+00
 Coeff:      0.123D+01
 Gap=     0.429 Goal=   None    Shift=    0.000
 RMSDP=8.57D-09 MaxDP=3.68D-07 DE=-7.34D-11 OVMax= 1.77D-06

 SCF Done:  E(RB2PLYPD3) =  -132.527068445     A.U. after   12 cycles
            NFock= 12  Conv=0.86D-08     -V/T= 2.0038
 KE= 1.320282330737D+02 PE=-4.256126469815D+02 EE= 1.025620882461D+02
 Leave Link  502 at Wed Aug 26 22:15:58 2020, MaxMem=  2097152000 cpu:       116.1
 (Enter /opt/cluster/programs/g09/g09_d.01/g09/l801.exe)
 DoSCS=T DFT=T ScalE2(SS,OS)=  0.270000  0.270000
 ExpMin= 7.60D-02 ExpMax= 9.07D+04 ExpMxC= 8.76D+02 IAcc=3 IRadAn=         5 AccDes= 0.00D+00
 HarFok:  IExCor=  205 AccDes= 0.00D+00 IRadAn=         5 IDoV=-2 UseB2=F ITyADJ=14
 ICtDFT= 12500011 ScaDFX=  1.000000  1.000000  1.000000  1.000000
 Largest valence mixing into a core orbital is  1.14D-04
 Largest core mixing into a valence orbital is  1.81D-05
 Range of M.O.s used for correlation:     4   261
 NBasis=   261 NAE=    11 NBE=    11 NFC=     3 NFV=     0
 NROrb=    258 NOA=     8 NOB=     8 NVA=   250 NVB=   250

 **** Warning!!: The largest alpha MO coefficient is  0.22453220D+02

 Leave Link  801 at Wed Aug 26 22:15:58 2020, MaxMem=  2097152000 cpu:         0.8
 (Enter /opt/cluster/programs/g09/g09_d.01/g09/l906.exe)
 DoSCS=T DFT=T ScalE2(SS,OS)=  0.270000  0.270000
 FulOut=F Deriv=F AODrv=F NAtomX=     6
   MMem=        2666  MDisk=           8 MDiskD=           8
  W3Min=      642000 MinDsk=     1426009 NBas6D=         321
 NBas2D=       52689    NTT=       51681    LW2=     4508827
    MDV=  2096809859 MDiskM=       14501 NBas2p=       52075
 Fully direct method using O(OVN) memory.
 IMap=   1   2   3   4   5   6   7   8
 JobTyp=1 Pass  1:  I=   1 to   8 NPSUse=  8 ParTrn=T ParDer=T DoDerP=F.
 Spin components of T(2) and E(2):
     alpha-alpha T2 =       0.3467988237D-01 E2=     -0.2112959533D-01
     alpha-beta  T2 =       0.2056591211D+00 E2=     -0.1368039622D+00
     beta-beta   T2 =       0.3467988237D-01 E2=     -0.2112959533D-01
 The integrals were generated   1 times.
 E2(B2PLYPD3) =    -0.1790631529D+00 E(B2PLYPD3) =    -0.13270613159804D+03
 Leave Link  906 at Wed Aug 26 22:16:13 2020, MaxMem=  2097152000 cpu:       119.0
 (Enter /opt/cluster/programs/g09/g09_d.01/g09/l601.exe)
 Copying SCF densities to generalized density rwf, IOpCl= 0 IROHF=0.

 **********************************************************************

            Population analysis using the SCF density.

 **********************************************************************

 Orbital symmetries:
       Occupied  (A) (A) (A) (A) (A) (A) (A) (A) (A) (A) (A)
       Virtual   (A) (A) (A) (A) (A) (A) (A) (A) (A) (A) (A) (A)
                 (A) (A) (A) (A) (A) (A) (A) (A) (A) (A) (A) (A)
                 (A) (A) (A) (A) (A) (A) (A) (A) (A) (A) (A) (A)
                 (A) (A) (A) (A) (A) (A) (A) (A) (A) (A) (A) (A)
                 (A) (A) (A) (A) (A) (A) (A) (A) (A) (A) (A) (A)
                 (A) (A) (A) (A) (A) (A) (A) (A) (A) (A) (A) (A)
                 (A) (A) (A) (A) (A) (A) (A) (A) (A) (A) (A) (A)
                 (A) (A) (A) (A) (A) (A) (A) (A) (A) (A) (A) (A)
                 (A) (A) (A) (A) (A) (A) (A) (A) (A) (A) (A) (A)
                 (A) (A) (A) (A) (A) (A) (A) (A) (A) (A) (A) (A)
                 (A) (A) (A) (A) (A) (A) (A) (A) (A) (A) (A) (A)
                 (A) (A) (A) (A) (A) (A) (A) (A) (A) (A) (A) (A)
                 (A) (A) (A) (A) (A) (A) (A) (A) (A) (A) (A) (A)
                 (A) (A) (A) (A) (A) (A) (A) (A) (A) (A) (A) (A)
                 (A) (A) (A) (A) (A) (A) (A) (A) (A) (A) (A) (A)
                 (A) (A) (A) (A) (A) (A) (A) (A) (A) (A) (A) (A)
                 (A) (A) (A) (A) (A) (A) (A) (A) (A) (A) (A) (A)
                 (A) (A) (A) (A) (A) (A) (A) (A) (A) (A) (A) (A)
                 (A) (A) (A) (A) (A) (A) (A) (A) (A) (A) (A) (A)
                 (A) (A) (A) (A) (A) (A) (A) (A) (A) (A) (A) (A)
                 (A) (A) (A) (A) (A) (A) (A) (A) (A) (A)
 The electronic state is 1-A.
 Alpha  occ. eigenvalues --  -14.83525 -10.68189 -10.65546  -1.05164  -0.88117
 Alpha  occ. eigenvalues --   -0.58549  -0.53467  -0.52493  -0.44717  -0.39683
 Alpha  occ. eigenvalues --   -0.39603
 Alpha virt. eigenvalues --    0.03266   0.07350   0.08760   0.10119   0.11691
 Alpha virt. eigenvalues --    0.11793   0.15318   0.15403   0.17515   0.19989
 Alpha virt. eigenvalues --    0.20023   0.25560   0.32565   0.33707   0.34241
 Alpha virt. eigenvalues --    0.38308   0.39617   0.39943   0.40366   0.46084
 Alpha virt. eigenvalues --    0.49038   0.53688   0.57382   0.60542   0.61647
 Alpha virt. eigenvalues --    0.66226   0.67843   0.69366   0.70649   0.78772
 Alpha virt. eigenvalues --    0.79800   0.81153   0.81720   0.83334   0.86946
 Alpha virt. eigenvalues --    0.89959   0.94284   0.95559   0.96431   0.99130
 Alpha virt. eigenvalues --    1.06662   1.06920   1.08164   1.11049   1.14816
 Alpha virt. eigenvalues --    1.15526   1.21798   1.22782   1.24146   1.33681
 Alpha virt. eigenvalues --    1.35889   1.40091   1.45550   1.49609   1.52390
 Alpha virt. eigenvalues --    1.63294   1.66933   1.71516   1.71807   1.77391
 Alpha virt. eigenvalues --    1.77648   1.80713   1.89436   1.89662   1.94660
 Alpha virt. eigenvalues --    1.96981   1.98725   1.99859   2.01124   2.04309
 Alpha virt. eigenvalues --    2.08165   2.09383   2.14874   2.16920   2.18892
 Alpha virt. eigenvalues --    2.21832   2.24595   2.26592   2.32292   2.32853
 Alpha virt. eigenvalues --    2.42043   2.49893   2.50870   2.56963   2.57859
 Alpha virt. eigenvalues --    2.61751   2.64554   2.69164   2.71519   2.74795
 Alpha virt. eigenvalues --    2.75827   2.77822   2.84366   2.85546   2.87709
 Alpha virt. eigenvalues --    2.91841   2.93089   2.95030   2.97441   3.02134
 Alpha virt. eigenvalues --    3.07953   3.12565   3.21220   3.24370   3.26355
 Alpha virt. eigenvalues --    3.32233   3.34546   3.35745   3.37088   3.44750
 Alpha virt. eigenvalues --    3.50213   3.59422   3.65006   3.75039   3.77408
 Alpha virt. eigenvalues --    3.81004   3.83355   3.89839   3.94728   3.95499
 Alpha virt. eigenvalues --    4.01891   4.04646   4.05272   4.19335   4.26070
 Alpha virt. eigenvalues --    4.56858   4.91378   4.91651   4.99613   5.03487
 Alpha virt. eigenvalues --    5.13122   5.14458   5.17755   5.23640   5.30357
 Alpha virt. eigenvalues --    5.34829   5.43279   5.45829   5.50593   5.59653
 Alpha virt. eigenvalues --    5.69349   5.78499   5.84682   5.86230   5.87856
 Alpha virt. eigenvalues --    5.89291   5.94301   5.94621   5.98469   6.01091
 Alpha virt. eigenvalues --    6.01517   6.03317   6.05044   6.07128   6.11833
 Alpha virt. eigenvalues --    6.14129   6.14863   6.17283   6.26537   6.32254
 Alpha virt. eigenvalues --    6.39306   6.40447   6.43432   6.47825   6.54020
 Alpha virt. eigenvalues --    6.55503   6.63351   6.73563   6.84003   6.90785
 Alpha virt. eigenvalues --    6.92999   7.01688   7.03113   7.03209   7.10644
 Alpha virt. eigenvalues --    7.13889   7.15611   7.23757   7.31741   7.34696
 Alpha virt. eigenvalues --    7.49182   7.51241   7.53442   7.54273   7.58849
 Alpha virt. eigenvalues --    7.69579   7.72643   7.75345   7.78216   7.80411
 Alpha virt. eigenvalues --    7.84895   7.86612   7.90625   7.96823   8.11656
 Alpha virt. eigenvalues --    8.24480   8.34084   8.35023   8.37493   8.37830
 Alpha virt. eigenvalues --    8.41317   8.42237   8.47093   8.47333   8.52788
 Alpha virt. eigenvalues --    8.56730   8.65094   8.67231   8.67308   8.69668
 Alpha virt. eigenvalues --    8.72244   8.76425   8.83139   8.84262   8.91791
 Alpha virt. eigenvalues --    8.97106   9.04698   9.10798   9.18556   9.21820
 Alpha virt. eigenvalues --    9.26279   9.27206   9.53172   9.60154   9.63545
 Alpha virt. eigenvalues --    9.72637   9.84708   9.88292   9.91768   9.95821
 Alpha virt. eigenvalues --   10.05654  10.12951  10.17150  10.21258  10.28751
 Alpha virt. eigenvalues --   10.35039  10.45754  11.39789  11.83028  11.88237
 Alpha virt. eigenvalues --   12.01022  12.05562  13.02149  13.24043  29.08815
 Alpha virt. eigenvalues --   29.43626  38.38271 148.72637 149.08246 198.32183
          Condensed to atoms (all electrons):
               1          2          3          4          5          6
     1  C    4.629578   0.309920  -0.057785   0.412611   0.406188   0.403130
     2  C    0.309920   4.819848   0.999184  -0.034829  -0.041876  -0.048134
     3  N   -0.057785   0.999184   6.250585  -0.001788  -0.000055   0.000043
     4  H    0.412611  -0.034829  -0.001788   0.578149  -0.027096  -0.027589
     5  H    0.406188  -0.041876  -0.000055  -0.027096   0.593565  -0.028687
     6  H    0.403130  -0.048134   0.000043  -0.027589  -0.028687   0.601803
 Mulliken charges:
               1
     1  C   -0.103642
     2  C   -0.004112
     3  N   -0.190184
     4  H    0.100542
     5  H    0.097962
     6  H    0.099434
 Sum of Mulliken charges =   0.00000
 Mulliken charges with hydrogens summed into heavy atoms:
               1
     1  C    0.194296
     2  C   -0.004112
     3  N   -0.190184
 Electronic spatial extent (au):  <R**2>=            162.0429
 Charge=              0.0000 electrons
 Dipole moment (field-independent basis, Debye):
    X=              4.0462    Y=             -0.0950    Z=              0.0490  Tot=              4.0476
 Quadrupole moment (field-independent basis, Debye-Ang):
   XX=            -21.1005   YY=            -17.5814   ZZ=            -17.8266
   XY=              0.2676   XZ=             -0.0808   YZ=              0.0107
 Traceless Quadrupole moment (field-independent basis, Debye-Ang):
   XX=             -2.2643   YY=              1.2547   ZZ=              1.0095
   XY=              0.2676   XZ=             -0.0808   YZ=              0.0107
 Octapole moment (field-independent basis, Debye-Ang**2):
  XXX=             12.1772  YYY=              0.7966  ZZZ=              0.5772  XYY=              2.3767
  XXY=              0.3625  XXZ=             -0.1932  XZZ=              1.7974  YZZ=             -0.7270
  YYZ=             -0.4724  XYZ=              0.0310
 Hexadecapole moment (field-independent basis, Debye-Ang**3):
 XXXX=           -182.7930 YYYY=            -25.7087 ZZZZ=            -24.7441 XXXY=              1.4889
 XXXZ=             -0.5925 YYYX=              1.2946 YYYZ=              0.0248 ZZZX=              0.8856
 ZZZY=             -0.0020 XXYY=            -30.4695 XXZZ=            -31.6153 YYZZ=             -8.4616
 XXYZ=              0.0624 YYXZ=             -0.8318 ZZXY=             -1.2553
 N-N= 5.849525721664D+01 E-N=-4.256126501202D+02  KE= 1.320282330737D+02
 Leave Link  601 at Wed Aug 26 22:16:13 2020, MaxMem=  2097152000 cpu:         0.4
 (Enter /opt/cluster/programs/g09/g09_d.01/g09/l9999.exe)
 1\1\GINC-NODE12\SP\RB2PLYPD3-FC\def2QZVP\C2H3N1\BOITTIER\26-Aug-2020\0
 \\#p B2PLYPD3/Def2QZVP\\cyanomethane\\0,1\C,0,-6.590931,-1.120709,1.18
 9907\C,0,-5.198593,-0.786179,0.833799\N,0,-4.100894,-0.539177,0.741394
 \H,0,-6.832546,-1.197013,2.33532\H,0,-6.868384,-2.064104,0.662986\H,0,
 -7.175973,-0.316233,0.757006\\Version=ES64L-G09RevD.01\State=1-A\HF=-1
 32.5270684\MP2=-132.7061316\RMSD=8.569e-09\PG=C01 [X(C2H3N1)]\\@


 THERE'S NOTHING SO GREAT AS THE GREAT OUTDOORS.

                                       -- ZIGGY
 Job cpu time:       0 days  0 hours  4 minutes  5.3 seconds.
 File lengths (MBytes):  RWF=     28 Int=      0 D2E=      0 Chk=      5 Scr=      1
 Normal termination of Gaussian 09 at Wed Aug 26 22:16:13 2020.
