 Entering Gaussian System, Link 0=/opt/cluster/programs/g09/g09_d.01/g09//g09
 Input=/home/boittier/MDCM/nms_sampling/cyanomethane_geom.xyz.dir/energies/cyanomethane_117_energy.com
 Output=/scratch/boittier/cyanomethane_117_energy/cyanomethane_117_energy.out
 Initial command:
 /opt/cluster/programs/g09/g09_d.01/g09/l1.exe "/scratch/boittier/cyanomethane_117_energy/Gau-119008.inp" -scrdir="/scratch/boittier/cyanomethane_117_energy/"
 Entering Link 1 = /opt/cluster/programs/g09/g09_d.01/g09/l1.exe PID=    119009.
  
 Copyright (c) 1988,1990,1992,1993,1995,1998,2003,2009,2013,
            Gaussian, Inc.  All Rights Reserved.
  
 This is part of the Gaussian(R) 09 program.  It is based on
 the Gaussian(R) 03 system (copyright 2003, Gaussian, Inc.),
 the Gaussian(R) 98 system (copyright 1998, Gaussian, Inc.),
 the Gaussian(R) 94 system (copyright 1995, Gaussian, Inc.),
 the Gaussian 92(TM) system (copyright 1992, Gaussian, Inc.),
 the Gaussian 90(TM) system (copyright 1990, Gaussian, Inc.),
 the Gaussian 88(TM) system (copyright 1988, Gaussian, Inc.),
 the Gaussian 86(TM) system (copyright 1986, Carnegie Mellon
 University), and the Gaussian 82(TM) system (copyright 1983,
 Carnegie Mellon University). Gaussian is a federally registered
 trademark of Gaussian, Inc.
  
 This software contains proprietary and confidential information,
 including trade secrets, belonging to Gaussian, Inc.
  
 This software is provided under written license and may be
 used, copied, transmitted, or stored only in accord with that
 written license.
  
 The following legend is applicable only to US Government
 contracts under FAR:
  
                    RESTRICTED RIGHTS LEGEND
  
 Use, reproduction and disclosure by the US Government is
 subject to restrictions as set forth in subparagraphs (a)
 and (c) of the Commercial Computer Software - Restricted
 Rights clause in FAR 52.227-19.
  
 Gaussian, Inc.
 340 Quinnipiac St., Bldg. 40, Wallingford CT 06492
  
  
 ---------------------------------------------------------------
 Warning -- This program may not be used in any manner that
 competes with the business of Gaussian, Inc. or will provide
 assistance to any competitor of Gaussian, Inc.  The licensee
 of this program is prohibited from giving any competitor of
 Gaussian, Inc. access to this program.  By using this program,
 the user acknowledges that Gaussian, Inc. is engaged in the
 business of creating and licensing software in the field of
 computational chemistry and represents and warrants to the
 licensee that it is not a competitor of Gaussian, Inc. and that
 it will not use this program in any manner prohibited above.
 ---------------------------------------------------------------
  

 Cite this work as:
 Gaussian 09, Revision D.01,
 M. J. Frisch, G. W. Trucks, H. B. Schlegel, G. E. Scuseria, 
 M. A. Robb, J. R. Cheeseman, G. Scalmani, V. Barone, B. Mennucci, 
 G. A. Petersson, H. Nakatsuji, M. Caricato, X. Li, H. P. Hratchian, 
 A. F. Izmaylov, J. Bloino, G. Zheng, J. L. Sonnenberg, M. Hada, 
 M. Ehara, K. Toyota, R. Fukuda, J. Hasegawa, M. Ishida, T. Nakajima, 
 Y. Honda, O. Kitao, H. Nakai, T. Vreven, J. A. Montgomery, Jr., 
 J. E. Peralta, F. Ogliaro, M. Bearpark, J. J. Heyd, E. Brothers, 
 K. N. Kudin, V. N. Staroverov, T. Keith, R. Kobayashi, J. Normand, 
 K. Raghavachari, A. Rendell, J. C. Burant, S. S. Iyengar, J. Tomasi, 
 M. Cossi, N. Rega, J. M. Millam, M. Klene, J. E. Knox, J. B. Cross, 
 V. Bakken, C. Adamo, J. Jaramillo, R. Gomperts, R. E. Stratmann, 
 O. Yazyev, A. J. Austin, R. Cammi, C. Pomelli, J. W. Ochterski, 
 R. L. Martin, K. Morokuma, V. G. Zakrzewski, G. A. Voth, 
 P. Salvador, J. J. Dannenberg, S. Dapprich, A. D. Daniels, 
 O. Farkas, J. B. Foresman, J. V. Ortiz, J. Cioslowski, 
 and D. J. Fox, Gaussian, Inc., Wallingford CT, 2013.
 
 ******************************************
 Gaussian 09:  ES64L-G09RevD.01 24-Apr-2013
                26-Aug-2020 
 ******************************************
 %chk=/home/boittier/MDCM/nms_sampling/cyanomethane_geom.xyz.dir/cyanomethane_117
 .chk
 %nproc=8
 Will use up to    8 processors via shared memory.
 %mem=16000MB
 --------------------
 #p B2PLYPD3/Def2QZVP
 --------------------
 1/38=1/1;
 2/12=2,17=6,18=5,40=1/2;
 3/5=45,7=101,11=9,16=1,25=1,30=1,74=-60/1,2,3;
 4//1;
 5/5=2,38=5/2;
 8/10=1/1;
 9/16=-3/6;
 6/7=2,8=2,9=2,10=2/1;
 99/5=1,9=1/99;
 Leave Link    1 at Wed Aug 26 10:19:22 2020, MaxMem=  2097152000 cpu:         0.2
 (Enter /opt/cluster/programs/g09/g09_d.01/g09/l101.exe)
 ------------
 cyanomethane
 ------------
 Symbolic Z-matrix:
 Charge =  0 Multiplicity = 1
 C                    -6.59758  -1.11784   1.16439 
 C                    -5.20324  -0.77611   0.90862 
 N                    -4.09535  -0.54703   0.70281 
 H                    -6.77605  -1.21741   2.22476 
 H                    -6.78842  -2.04977   0.68311 
 H                    -7.25349  -0.33178   0.78486 
 
 NAtoms=      6 NQM=        6 NQMF=       0 NMMI=      0 NMMIF=      0
                NMic=       0 NMicF=      0.
                    Isotopes and Nuclear Properties:
 (Nuclear quadrupole moments (NQMom) in fm**2, nuclear magnetic moments (NMagM)
  in nuclear magnetons)

  Atom         1           2           3           4           5           6
 IAtWgt=          12          12          14           1           1           1
 AtmWgt=  12.0000000  12.0000000  14.0030740   1.0078250   1.0078250   1.0078250
 NucSpn=           0           0           2           1           1           1
 AtZEff=   0.0000000   0.0000000   0.0000000   0.0000000   0.0000000   0.0000000
 NQMom=    0.0000000   0.0000000   2.0440000   0.0000000   0.0000000   0.0000000
 NMagM=    0.0000000   0.0000000   0.4037610   2.7928460   2.7928460   2.7928460
 AtZNuc=   6.0000000   6.0000000   7.0000000   1.0000000   1.0000000   1.0000000
 Leave Link  101 at Wed Aug 26 10:19:22 2020, MaxMem=  2097152000 cpu:         0.5
 (Enter /opt/cluster/programs/g09/g09_d.01/g09/l202.exe)
                          Input orientation:                          
 ---------------------------------------------------------------------
 Center     Atomic      Atomic             Coordinates (Angstroms)
 Number     Number       Type             X           Y           Z
 ---------------------------------------------------------------------
      1          6           0       -6.597581   -1.117837    1.164394
      2          6           0       -5.203245   -0.776110    0.908621
      3          7           0       -4.095349   -0.547029    0.702811
      4          1           0       -6.776051   -1.217410    2.224764
      5          1           0       -6.788419   -2.049769    0.683107
      6          1           0       -7.253489   -0.331780    0.784863
 ---------------------------------------------------------------------
                    Distance matrix (angstroms):
                    1          2          3          4          5
     1  C    0.000000
     2  C    1.458208   0.000000
     3  N    2.607690   1.149900   0.000000
     4  H    1.079885   2.097784   3.154666   0.000000
     5  H    1.066093   2.045933   3.084030   1.752050   0.000000
     6  H    1.091854   2.101487   3.166530   1.756588   1.782731
                    6
     6  H    0.000000
 Stoichiometry    C2H3N
 Framework group  C1[X(C2H3N)]
 Deg. of freedom    12
 Full point group                 C1      NOp   1
 Largest Abelian subgroup         C1      NOp   1
 Largest concise Abelian subgroup C1      NOp   1
                         Standard orientation:                         
 ---------------------------------------------------------------------
 Center     Atomic      Atomic             Coordinates (Angstroms)
 Number     Number       Type             X           Y           Z
 ---------------------------------------------------------------------
      1          6           0       -1.178590   -0.006481   -0.003424
      2          6           0        0.279410    0.017392    0.002509
      3          7           0        1.429095   -0.004804    0.001194
      4          1           0       -1.561048   -0.108095    1.001340
      5          1           0       -1.478943   -0.848282   -0.584555
      6          1           0       -1.568591    0.924541   -0.419648
 ---------------------------------------------------------------------
 Rotational constants (GHZ):    161.1812839      9.2957829      9.2837811
 Leave Link  202 at Wed Aug 26 10:19:22 2020, MaxMem=  2097152000 cpu:         0.0
 (Enter /opt/cluster/programs/g09/g09_d.01/g09/l301.exe)
 Standard basis: def2QZVP (5D, 7F)
 Ernie: Thresh=  0.10000D-02 Tol=  0.10000D-05 Strict=F.
 There are   321 symmetry adapted cartesian basis functions of A   symmetry.
 There are   261 symmetry adapted basis functions of A   symmetry.
   261 basis functions,   390 primitive gaussians,   321 cartesian basis functions
    11 alpha electrons       11 beta electrons
       nuclear repulsion energy        58.7633404062 Hartrees.
 IExCor=  419 DFT=T Ex+Corr=B2PLYPD3 ExCW=0 ScaHFX=  0.530000
 ScaDFX=  0.470000  0.470000  0.730000  0.730000 ScalE2=  0.270000  0.270000
 IRadAn=      0 IRanWt=     -1 IRanGd=            0 ICorTp=0 IEmpDi=141
 NAtoms=    6 NActive=    6 NUniq=    6 SFac= 1.00D+00 NAtFMM=   60 NAOKFM=F Big=F
 Integral buffers will be    131072 words long.
 Regular integral format.
 Two-electron integral symmetry is turned on.
 R6Disp:  Grimme-D3(BJ) Dispersion energy=       -0.0021077597 Hartrees.
 Nuclear repulsion after empirical dispersion term =       58.7612326465 Hartrees.
 Leave Link  301 at Wed Aug 26 10:19:22 2020, MaxMem=  2097152000 cpu:         0.4
 (Enter /opt/cluster/programs/g09/g09_d.01/g09/l302.exe)
 NPDir=0 NMtPBC=     1 NCelOv=     1 NCel=       1 NClECP=     1 NCelD=      1
         NCelK=      1 NCelE2=     1 NClLst=     1 CellRange=     0.0.
 One-electron integrals computed using PRISM.
   1 Symmetry operations used in ECPInt.
 ECPInt:  NShTT=    3321 NPrTT=    8136 LenC2=    3294 LenP2D=    7129.
 LDataN:  DoStor=T MaxTD1= 8 Len=  415
 NBasis=   261 RedAO= T EigKep=  8.05D-05  NBF=   261
 NBsUse=   261 1.00D-06 EigRej= -1.00D+00 NBFU=   261
 Precomputing XC quadrature grid using
 IXCGrd= 4 IRadAn=           0 IRanWt=          -1 IRanGd=           0 AccXCQ= 0.00D+00.
 Generated NRdTot=       0 NPtTot=           0 NUsed=           0 NTot=          32
 NSgBfM=   321   321   321   321   321 MxSgAt=     6 MxSgA2=     6.
 Leave Link  302 at Wed Aug 26 10:19:23 2020, MaxMem=  2097152000 cpu:         1.9
 (Enter /opt/cluster/programs/g09/g09_d.01/g09/l303.exe)
 DipDrv:  MaxL=1.
 Leave Link  303 at Wed Aug 26 10:19:23 2020, MaxMem=  2097152000 cpu:         0.2
 (Enter /opt/cluster/programs/g09/g09_d.01/g09/l401.exe)
 ExpMin= 7.60D-02 ExpMax= 9.07D+04 ExpMxC= 8.76D+02 IAcc=2 IRadAn=         4 AccDes= 0.00D+00
 Harris functional with IExCor=  419 and IRadAn=       4 diagonalized for initial guess.
 HarFok:  IExCor=  419 AccDes= 0.00D+00 IRadAn=         4 IDoV= 1 UseB2=F ITyADJ=14
 ICtDFT=  3500011 ScaDFX=  1.000000  1.000000  1.000000  1.000000
 FoFCou: FMM=F IPFlag=           0 FMFlag=      100000 FMFlg1=           0
         NFxFlg=           0 DoJE=T BraDBF=F KetDBF=T FulRan=T
         wScrn=  0.000000 ICntrl=     500 IOpCl=  0 I1Cent=   200000004 NGrid=           0
         NMat0=    1 NMatS0=      1 NMatT0=    0 NMatD0=    1 NMtDS0=    0 NMtDT0=    0
 Petite list used in FoFCou.
 Harris En= -132.855131957666    
 JPrj=0 DoOrth=F DoCkMO=F.
 Leave Link  401 at Wed Aug 26 10:19:23 2020, MaxMem=  2097152000 cpu:         3.7
 (Enter /opt/cluster/programs/g09/g09_d.01/g09/l502.exe)
 Closed shell SCF:
 Using DIIS extrapolation, IDIIS=  1040.
 Integral symmetry usage will be decided dynamically.
 Keep R1 ints in memory in canonical form, NReq=601554820.
 IVT=      332521 IEndB=      332521 NGot=  2097152000 MDV=  1512290144
 LenX=  1512290144 LenY=  1512186662
 Requested convergence on RMS density matrix=1.00D-08 within 128 cycles.
 Requested convergence on MAX density matrix=1.00D-06.
 Requested convergence on             energy=1.00D-06.
 No special actions if energy rises.
 FoFCou: FMM=F IPFlag=           0 FMFlag=           0 FMFlg1=           0
         NFxFlg=           0 DoJE=F BraDBF=F KetDBF=F FulRan=T
         wScrn=  0.000000 ICntrl=     600 IOpCl=  0 I1Cent=           0 NGrid=           0
         NMat0=    1 NMatS0=  34191 NMatT0=    0 NMatD0=    1 NMtDS0=    0 NMtDT0=    0
 Symmetry not used in FoFCou.
 Integral accuracy reduced to 1.0D-05 until final iterations.

 Cycle   1  Pass 0  IDiag  1:
 E= -132.419778131236    
 DIIS: error= 3.04D-02 at cycle   1 NSaved=   1.
 NSaved= 1 IEnMin= 1 EnMin= -132.419778131236     IErMin= 1 ErrMin= 3.04D-02
 ErrMax= 3.04D-02  0.00D+00 EMaxC= 1.00D-01 BMatC= 1.93D-01 BMatP= 1.93D-01
 IDIUse=3 WtCom= 6.96D-01 WtEn= 3.04D-01
 Coeff-Com:  0.100D+01
 Coeff-En:   0.100D+01
 Coeff:      0.100D+01
 Gap=     0.464 Goal=   None    Shift=    0.000
 GapD=    0.464 DampG=2.000 DampE=0.500 DampFc=1.0000 IDamp=-1.
 RMSDP=1.30D-03 MaxDP=6.90D-02              OVMax= 1.63D-01

 Cycle   2  Pass 0  IDiag  1:
 E= -132.455183523776     Delta-E=       -0.035405392541 Rises=F Damp=F
 DIIS: error= 3.53D-02 at cycle   2 NSaved=   2.
 NSaved= 2 IEnMin= 2 EnMin= -132.455183523776     IErMin= 1 ErrMin= 3.04D-02
 ErrMax= 3.53D-02  0.00D+00 EMaxC= 1.00D-01 BMatC= 9.53D-02 BMatP= 1.93D-01
 IDIUse=3 WtCom= 6.47D-01 WtEn= 3.53D-01
 Coeff-Com:  0.396D+00 0.604D+00
 Coeff-En:   0.390D+00 0.610D+00
 Coeff:      0.394D+00 0.606D+00
 Gap=     0.438 Goal=   None    Shift=    0.000
 RMSDP=8.49D-04 MaxDP=3.38D-02 DE=-3.54D-02 OVMax= 1.22D-01

 Cycle   3  Pass 0  IDiag  1:
 E= -132.519523601034     Delta-E=       -0.064340077258 Rises=F Damp=F
 DIIS: error= 1.49D-02 at cycle   3 NSaved=   3.
 NSaved= 3 IEnMin= 3 EnMin= -132.519523601034     IErMin= 3 ErrMin= 1.49D-02
 ErrMax= 1.49D-02  0.00D+00 EMaxC= 1.00D-01 BMatC= 1.99D-02 BMatP= 9.53D-02
 IDIUse=3 WtCom= 8.51D-01 WtEn= 1.49D-01
 Coeff-Com:  0.958D-01 0.325D+00 0.579D+00
 Coeff-En:   0.000D+00 0.123D+00 0.877D+00
 Coeff:      0.816D-01 0.295D+00 0.623D+00
 Gap=     0.429 Goal=   None    Shift=    0.000
 RMSDP=2.69D-04 MaxDP=9.79D-03 DE=-6.43D-02 OVMax= 5.90D-02

 Cycle   4  Pass 0  IDiag  1:
 E= -132.533081120001     Delta-E=       -0.013557518967 Rises=F Damp=F
 DIIS: error= 5.46D-03 at cycle   4 NSaved=   4.
 NSaved= 4 IEnMin= 4 EnMin= -132.533081120001     IErMin= 4 ErrMin= 5.46D-03
 ErrMax= 5.46D-03  0.00D+00 EMaxC= 1.00D-01 BMatC= 3.04D-03 BMatP= 1.99D-02
 IDIUse=3 WtCom= 9.45D-01 WtEn= 5.46D-02
 Coeff-Com: -0.124D-01 0.526D-01 0.329D+00 0.631D+00
 Coeff-En:   0.000D+00 0.000D+00 0.143D+00 0.857D+00
 Coeff:     -0.117D-01 0.498D-01 0.319D+00 0.643D+00
 Gap=     0.430 Goal=   None    Shift=    0.000
 RMSDP=9.15D-05 MaxDP=2.75D-03 DE=-1.36D-02 OVMax= 1.58D-02

 Cycle   5  Pass 0  IDiag  1:
 E= -132.535701209364     Delta-E=       -0.002620089363 Rises=F Damp=F
 DIIS: error= 3.06D-04 at cycle   5 NSaved=   5.
 NSaved= 5 IEnMin= 5 EnMin= -132.535701209364     IErMin= 5 ErrMin= 3.06D-04
 ErrMax= 3.06D-04  0.00D+00 EMaxC= 1.00D-01 BMatC= 1.39D-05 BMatP= 3.04D-03
 IDIUse=3 WtCom= 9.97D-01 WtEn= 3.06D-03
 Coeff-Com: -0.336D-02 0.502D-02 0.462D-01 0.138D+00 0.814D+00
 Coeff-En:   0.000D+00 0.000D+00 0.000D+00 0.000D+00 0.100D+01
 Coeff:     -0.335D-02 0.500D-02 0.461D-01 0.138D+00 0.814D+00
 Gap=     0.429 Goal=   None    Shift=    0.000
 RMSDP=8.37D-06 MaxDP=3.17D-04 DE=-2.62D-03 OVMax= 1.23D-03

 Initial convergence to 1.0D-05 achieved.  Increase integral accuracy.
 Cycle   6  Pass 1  IDiag  1:
 E= -132.535717506421     Delta-E=       -0.000016297057 Rises=F Damp=F
 DIIS: error= 9.50D-05 at cycle   1 NSaved=   1.
 NSaved= 1 IEnMin= 1 EnMin= -132.535717506421     IErMin= 1 ErrMin= 9.50D-05
 ErrMax= 9.50D-05  0.00D+00 EMaxC= 1.00D-01 BMatC= 6.19D-07 BMatP= 6.19D-07
 IDIUse=1 WtCom= 1.00D+00 WtEn= 0.00D+00
 Coeff-Com:  0.100D+01
 Coeff:      0.100D+01
 Gap=     0.430 Goal=   None    Shift=    0.000
 RMSDP=8.37D-06 MaxDP=3.17D-04 DE=-1.63D-05 OVMax= 4.03D-04

 Cycle   7  Pass 1  IDiag  1:
 E= -132.535717872397     Delta-E=       -0.000000365976 Rises=F Damp=F
 DIIS: error= 4.33D-05 at cycle   2 NSaved=   2.
 NSaved= 2 IEnMin= 2 EnMin= -132.535717872397     IErMin= 2 ErrMin= 4.33D-05
 ErrMax= 4.33D-05  0.00D+00 EMaxC= 1.00D-01 BMatC= 2.80D-07 BMatP= 6.19D-07
 IDIUse=1 WtCom= 1.00D+00 WtEn= 0.00D+00
 Coeff-Com:  0.394D+00 0.606D+00
 Coeff:      0.394D+00 0.606D+00
 Gap=     0.430 Goal=   None    Shift=    0.000
 RMSDP=9.84D-07 MaxDP=3.82D-05 DE=-3.66D-07 OVMax= 1.69D-04

 Cycle   8  Pass 1  IDiag  1:
 E= -132.535718115157     Delta-E=       -0.000000242759 Rises=F Damp=F
 DIIS: error= 1.60D-05 at cycle   3 NSaved=   3.
 NSaved= 3 IEnMin= 3 EnMin= -132.535718115157     IErMin= 3 ErrMin= 1.60D-05
 ErrMax= 1.60D-05  0.00D+00 EMaxC= 1.00D-01 BMatC= 1.95D-08 BMatP= 2.80D-07
 IDIUse=1 WtCom= 1.00D+00 WtEn= 0.00D+00
 Coeff-Com:  0.104D+00 0.242D+00 0.654D+00
 Coeff:      0.104D+00 0.242D+00 0.654D+00
 Gap=     0.430 Goal=   None    Shift=    0.000
 RMSDP=5.57D-07 MaxDP=2.50D-05 DE=-2.43D-07 OVMax= 5.73D-05

 Cycle   9  Pass 1  IDiag  1:
 E= -132.535718126769     Delta-E=       -0.000000011613 Rises=F Damp=F
 DIIS: error= 1.06D-05 at cycle   4 NSaved=   4.
 NSaved= 4 IEnMin= 4 EnMin= -132.535718126769     IErMin= 4 ErrMin= 1.06D-05
 ErrMax= 1.06D-05  0.00D+00 EMaxC= 1.00D-01 BMatC= 6.68D-09 BMatP= 1.95D-08
 IDIUse=1 WtCom= 1.00D+00 WtEn= 0.00D+00
 Coeff-Com: -0.582D-01-0.334D-01 0.402D+00 0.690D+00
 Coeff:     -0.582D-01-0.334D-01 0.402D+00 0.690D+00
 Gap=     0.430 Goal=   None    Shift=    0.000
 RMSDP=2.73D-07 MaxDP=1.32D-05 DE=-1.16D-08 OVMax= 3.39D-05

 Cycle  10  Pass 1  IDiag  1:
 E= -132.535718133024     Delta-E=       -0.000000006255 Rises=F Damp=F
 DIIS: error= 1.04D-06 at cycle   5 NSaved=   5.
 NSaved= 5 IEnMin= 5 EnMin= -132.535718133024     IErMin= 5 ErrMin= 1.04D-06
 ErrMax= 1.04D-06  0.00D+00 EMaxC= 1.00D-01 BMatC= 8.61D-11 BMatP= 6.68D-09
 IDIUse=1 WtCom= 1.00D+00 WtEn= 0.00D+00
 Coeff-Com: -0.203D-01-0.189D-01 0.773D-01 0.194D+00 0.767D+00
 Coeff:     -0.203D-01-0.189D-01 0.773D-01 0.194D+00 0.767D+00
 Gap=     0.430 Goal=   None    Shift=    0.000
 RMSDP=4.35D-08 MaxDP=2.21D-06 DE=-6.25D-09 OVMax= 3.30D-06

 Cycle  11  Pass 1  IDiag  1:
 E= -132.535718133099     Delta-E=       -0.000000000074 Rises=F Damp=F
 DIIS: error= 1.94D-07 at cycle   6 NSaved=   6.
 NSaved= 6 IEnMin= 6 EnMin= -132.535718133099     IErMin= 6 ErrMin= 1.94D-07
 ErrMax= 1.94D-07  0.00D+00 EMaxC= 1.00D-01 BMatC= 4.89D-12 BMatP= 8.61D-11
 IDIUse=1 WtCom= 1.00D+00 WtEn= 0.00D+00
 Coeff-Com:  0.208D-02 0.229D-04-0.276D-01-0.221D-01 0.139D+00 0.909D+00
 Coeff:      0.208D-02 0.229D-04-0.276D-01-0.221D-01 0.139D+00 0.909D+00
 Gap=     0.430 Goal=   None    Shift=    0.000
 RMSDP=9.18D-09 MaxDP=4.27D-07 DE=-7.44D-11 OVMax= 9.95D-07

 SCF Done:  E(RB2PLYPD3) =  -132.535718133     A.U. after   11 cycles
            NFock= 11  Conv=0.92D-08     -V/T= 2.0032
 KE= 1.321192241488D+02 PE=-4.261892675751D+02 EE= 1.027730926467D+02
 Leave Link  502 at Wed Aug 26 10:19:42 2020, MaxMem=  2097152000 cpu:        87.3
 (Enter /opt/cluster/programs/g09/g09_d.01/g09/l801.exe)
 DoSCS=T DFT=T ScalE2(SS,OS)=  0.270000  0.270000
 ExpMin= 7.60D-02 ExpMax= 9.07D+04 ExpMxC= 8.76D+02 IAcc=3 IRadAn=         5 AccDes= 0.00D+00
 HarFok:  IExCor=  205 AccDes= 0.00D+00 IRadAn=         5 IDoV=-2 UseB2=F ITyADJ=14
 ICtDFT= 12500011 ScaDFX=  1.000000  1.000000  1.000000  1.000000
 Largest valence mixing into a core orbital is  1.16D-04
 Largest core mixing into a valence orbital is  1.91D-05
 Range of M.O.s used for correlation:     4   261
 NBasis=   261 NAE=    11 NBE=    11 NFC=     3 NFV=     0
 NROrb=    258 NOA=     8 NOB=     8 NVA=   250 NVB=   250

 **** Warning!!: The largest alpha MO coefficient is  0.33812435D+02

 Leave Link  801 at Wed Aug 26 10:19:43 2020, MaxMem=  2097152000 cpu:         0.6
 (Enter /opt/cluster/programs/g09/g09_d.01/g09/l906.exe)
 DoSCS=T DFT=T ScalE2(SS,OS)=  0.270000  0.270000
 FulOut=F Deriv=F AODrv=F NAtomX=     6
   MMem=        2666  MDisk=           8 MDiskD=           8
  W3Min=      642000 MinDsk=     1426009 NBas6D=         321
 NBas2D=       52689    NTT=       51681    LW2=     4508827
    MDV=  2096809249 MDiskM=       14501 NBas2p=       52161
 Fully direct method using O(OVN) memory.
 IMap=   1   2   3   4   5   6   7   8
 JobTyp=1 Pass  1:  I=   1 to   8 NPSUse=  8 ParTrn=T ParDer=T DoDerP=F.
 Spin components of T(2) and E(2):
     alpha-alpha T2 =       0.3534233710D-01 E2=     -0.2135051120D-01
     alpha-beta  T2 =       0.2063821331D+00 E2=     -0.1372133988D+00
     beta-beta   T2 =       0.3534233710D-01 E2=     -0.2135051120D-01
 The integrals were generated   1 times.
 E2(B2PLYPD3) =    -0.1799144212D+00 E(B2PLYPD3) =    -0.13271563255431D+03
 Leave Link  906 at Wed Aug 26 10:19:55 2020, MaxMem=  2097152000 cpu:       100.3
 (Enter /opt/cluster/programs/g09/g09_d.01/g09/l601.exe)
 Copying SCF densities to generalized density rwf, IOpCl= 0 IROHF=0.

 **********************************************************************

            Population analysis using the SCF density.

 **********************************************************************

 Orbital symmetries:
       Occupied  (A) (A) (A) (A) (A) (A) (A) (A) (A) (A) (A)
       Virtual   (A) (A) (A) (A) (A) (A) (A) (A) (A) (A) (A) (A)
                 (A) (A) (A) (A) (A) (A) (A) (A) (A) (A) (A) (A)
                 (A) (A) (A) (A) (A) (A) (A) (A) (A) (A) (A) (A)
                 (A) (A) (A) (A) (A) (A) (A) (A) (A) (A) (A) (A)
                 (A) (A) (A) (A) (A) (A) (A) (A) (A) (A) (A) (A)
                 (A) (A) (A) (A) (A) (A) (A) (A) (A) (A) (A) (A)
                 (A) (A) (A) (A) (A) (A) (A) (A) (A) (A) (A) (A)
                 (A) (A) (A) (A) (A) (A) (A) (A) (A) (A) (A) (A)
                 (A) (A) (A) (A) (A) (A) (A) (A) (A) (A) (A) (A)
                 (A) (A) (A) (A) (A) (A) (A) (A) (A) (A) (A) (A)
                 (A) (A) (A) (A) (A) (A) (A) (A) (A) (A) (A) (A)
                 (A) (A) (A) (A) (A) (A) (A) (A) (A) (A) (A) (A)
                 (A) (A) (A) (A) (A) (A) (A) (A) (A) (A) (A) (A)
                 (A) (A) (A) (A) (A) (A) (A) (A) (A) (A) (A) (A)
                 (A) (A) (A) (A) (A) (A) (A) (A) (A) (A) (A) (A)
                 (A) (A) (A) (A) (A) (A) (A) (A) (A) (A) (A) (A)
                 (A) (A) (A) (A) (A) (A) (A) (A) (A) (A) (A) (A)
                 (A) (A) (A) (A) (A) (A) (A) (A) (A) (A) (A) (A)
                 (A) (A) (A) (A) (A) (A) (A) (A) (A) (A) (A) (A)
                 (A) (A) (A) (A) (A) (A) (A) (A) (A) (A) (A) (A)
                 (A) (A) (A) (A) (A) (A) (A) (A) (A) (A)
 The electronic state is 1-A.
 Alpha  occ. eigenvalues --  -14.83995 -10.66813 -10.66043  -1.04266  -0.89469
 Alpha  occ. eigenvalues --   -0.59536  -0.54721  -0.53817  -0.44710  -0.39196
 Alpha  occ. eigenvalues --   -0.39135
 Alpha virt. eigenvalues --    0.03823   0.08042   0.08311   0.10210   0.11441
 Alpha virt. eigenvalues --    0.11525   0.15388   0.16205   0.16357   0.20057
 Alpha virt. eigenvalues --    0.20101   0.25339   0.32818   0.34649   0.34957
 Alpha virt. eigenvalues --    0.38903   0.39743   0.40074   0.40696   0.47248
 Alpha virt. eigenvalues --    0.51219   0.51568   0.59070   0.59823   0.61504
 Alpha virt. eigenvalues --    0.66838   0.67575   0.69185   0.70272   0.79127
 Alpha virt. eigenvalues --    0.79313   0.82365   0.82585   0.83628   0.86801
 Alpha virt. eigenvalues --    0.92033   0.92822   0.96014   0.96607   0.97597
 Alpha virt. eigenvalues --    1.06015   1.07176   1.08691   1.12062   1.13201
 Alpha virt. eigenvalues --    1.14756   1.22848   1.22972   1.23948   1.35480
 Alpha virt. eigenvalues --    1.36120   1.46771   1.47445   1.48886   1.54724
 Alpha virt. eigenvalues --    1.65212   1.66479   1.70125   1.74667   1.78113
 Alpha virt. eigenvalues --    1.78765   1.78971   1.88338   1.92242   1.92865
 Alpha virt. eigenvalues --    1.94164   1.99006   1.99849   2.00920   2.04505
 Alpha virt. eigenvalues --    2.05943   2.12156   2.13843   2.20554   2.21269
 Alpha virt. eigenvalues --    2.22530   2.24305   2.25095   2.34919   2.36915
 Alpha virt. eigenvalues --    2.43114   2.50847   2.51664   2.57568   2.58562
 Alpha virt. eigenvalues --    2.59912   2.67504   2.70648   2.72434   2.72639
 Alpha virt. eigenvalues --    2.77245   2.78610   2.87303   2.90151   2.90690
 Alpha virt. eigenvalues --    2.94043   2.95035   2.96069   2.97688   3.07774
 Alpha virt. eigenvalues --    3.10844   3.13123   3.21650   3.30040   3.32154
 Alpha virt. eigenvalues --    3.37084   3.39414   3.41025   3.41494   3.49100
 Alpha virt. eigenvalues --    3.55219   3.57941   3.73653   3.74329   3.75458
 Alpha virt. eigenvalues --    3.89433   3.92617   3.94436   3.97655   3.99457
 Alpha virt. eigenvalues --    4.02177   4.05361   4.05858   4.26014   4.26845
 Alpha virt. eigenvalues --    4.56549   4.91187   4.91254   5.08696   5.11433
 Alpha virt. eigenvalues --    5.12233   5.20465   5.21514   5.22056   5.22646
 Alpha virt. eigenvalues --    5.29851   5.44795   5.46014   5.46580   5.66608
 Alpha virt. eigenvalues --    5.67165   5.86205   5.87235   5.91505   5.93100
 Alpha virt. eigenvalues --    5.94813   5.98590   5.99953   6.00721   6.03626
 Alpha virt. eigenvalues --    6.04557   6.05263   6.06402   6.08619   6.13997
 Alpha virt. eigenvalues --    6.21038   6.21208   6.23381   6.30501   6.32710
 Alpha virt. eigenvalues --    6.42585   6.44836   6.49350   6.57302   6.61970
 Alpha virt. eigenvalues --    6.64133   6.65714   6.92251   6.94420   6.96219
 Alpha virt. eigenvalues --    6.97282   7.02829   7.02861   7.09591   7.11382
 Alpha virt. eigenvalues --    7.18131   7.20440   7.26380   7.48200   7.50620
 Alpha virt. eigenvalues --    7.51882   7.52767   7.58497   7.60658   7.64192
 Alpha virt. eigenvalues --    7.67355   7.73618   7.74299   7.83762   7.85801
 Alpha virt. eigenvalues --    7.87385   7.93491   7.95827   8.07029   8.30255
 Alpha virt. eigenvalues --    8.32914   8.33356   8.43379   8.45052   8.46870
 Alpha virt. eigenvalues --    8.47359   8.51065   8.51310   8.56501   8.57412
 Alpha virt. eigenvalues --    8.61023   8.66144   8.66907   8.67124   8.68012
 Alpha virt. eigenvalues --    8.72721   8.85658   8.87351   8.89893   9.05412
 Alpha virt. eigenvalues --    9.10298   9.10784   9.16305   9.17700   9.18793
 Alpha virt. eigenvalues --    9.27570   9.29647   9.76791   9.78863   9.87941
 Alpha virt. eigenvalues --    9.90840   9.95065  10.01262  10.03929  10.14292
 Alpha virt. eigenvalues --   10.17842  10.18209  10.20808  10.32776  10.48017
 Alpha virt. eigenvalues --   10.55039  10.72076  11.38696  11.67454  11.79483
 Alpha virt. eigenvalues --   12.01739  12.03420  13.14708  13.61077  29.22925
 Alpha virt. eigenvalues --   29.56979  38.34024 148.89434 149.20620 198.26388
          Condensed to atoms (all electrons):
               1          2          3          4          5          6
     1  C    4.598908   0.301771  -0.058412   0.413140   0.416269   0.413198
     2  C    0.301771   4.842105   0.991426  -0.041453  -0.048407  -0.041860
     3  N   -0.058412   0.991426   6.273962  -0.000897  -0.000915  -0.000560
     4  H    0.413140  -0.041453  -0.000897   0.595326  -0.030263  -0.031527
     5  H    0.416269  -0.048407  -0.000915  -0.030263   0.590698  -0.028307
     6  H    0.413198  -0.041860  -0.000560  -0.031527  -0.028307   0.592598
 Mulliken charges:
               1
     1  C   -0.084873
     2  C   -0.003581
     3  N   -0.204603
     4  H    0.095674
     5  H    0.100925
     6  H    0.096458
 Sum of Mulliken charges =   0.00000
 Mulliken charges with hydrogens summed into heavy atoms:
               1
     1  C    0.208185
     2  C   -0.003581
     3  N   -0.204603
 Electronic spatial extent (au):  <R**2>=            160.8547
 Charge=              0.0000 electrons
 Dipole moment (field-independent basis, Debye):
    X=             -4.1197    Y=              0.0001    Z=              0.0055  Tot=              4.1197
 Quadrupole moment (field-independent basis, Debye-Ang):
   XX=            -21.0424   YY=            -17.6477   ZZ=            -17.7540
   XY=             -0.0235   XZ=             -0.0642   YZ=              0.0256
 Traceless Quadrupole moment (field-independent basis, Debye-Ang):
   XX=             -2.2277   YY=              1.1670   ZZ=              1.0607
   XY=             -0.0235   XZ=             -0.0642   YZ=              0.0256
 Octapole moment (field-independent basis, Debye-Ang**2):
  XXX=            -12.7856  YYY=              0.0934  ZZZ=              0.7277  XYY=             -2.3091
  XXY=              0.1591  XXZ=              0.1805  XZZ=             -2.1788  YZZ=             -0.2634
  YYZ=             -0.7670  XYZ=              0.0115
 Hexadecapole moment (field-independent basis, Debye-Ang**3):
 XXXX=           -181.1384 YYYY=            -24.4309 ZZZZ=            -24.4100 XXXY=             -0.2892
 XXXZ=             -0.4341 YYYX=             -0.3650 YYYZ=              0.0955 ZZZX=             -1.3108
 ZZZY=              0.0561 XXYY=            -30.8569 XXZZ=            -30.9667 YYZZ=             -8.1364
 XXYZ=             -0.1017 YYXZ=              1.2399 ZZXY=              0.3703
 N-N= 5.876123264653D+01 E-N=-4.261892511714D+02  KE= 1.321192241488D+02
 Leave Link  601 at Wed Aug 26 10:19:55 2020, MaxMem=  2097152000 cpu:         0.3
 (Enter /opt/cluster/programs/g09/g09_d.01/g09/l9999.exe)
 1\1\GINC-NODE30\SP\RB2PLYPD3-FC\def2QZVP\C2H3N1\BOITTIER\26-Aug-2020\0
 \\#p B2PLYPD3/Def2QZVP\\cyanomethane\\0,1\C,0,-6.597581,-1.117837,1.16
 4394\C,0,-5.203245,-0.77611,0.908621\N,0,-4.095349,-0.547029,0.702811\
 H,0,-6.776051,-1.21741,2.224764\H,0,-6.788419,-2.049769,0.683107\H,0,-
 7.253489,-0.33178,0.784863\\Version=ES64L-G09RevD.01\State=1-A\HF=-132
 .5357181\MP2=-132.7156326\RMSD=9.181e-09\PG=C01 [X(C2H3N1)]\\@


 MEN HAVE BECOME THE TOOLS OF THEIR TOOLS... THOREAU   
 Job cpu time:       0 days  0 hours  3 minutes 16.2 seconds.
 File lengths (MBytes):  RWF=     28 Int=      0 D2E=      0 Chk=      5 Scr=      1
 Normal termination of Gaussian 09 at Wed Aug 26 10:19:55 2020.
