 Entering Gaussian System, Link 0=/opt/cluster/programs/g09/g09_d.01/g09//g09
 Input=/home/boittier/MDCM/nms_sampling/cyanomethane_geom.xyz.dir/energies/cyanomethane_1510_energy.com
 Output=/scratch/boittier/cyanomethane_1510_energy/cyanomethane_1510_energy.out
 Initial command:
 /opt/cluster/programs/g09/g09_d.01/g09/l1.exe "/scratch/boittier/cyanomethane_1510_energy/Gau-42608.inp" -scrdir="/scratch/boittier/cyanomethane_1510_energy/"
 Entering Link 1 = /opt/cluster/programs/g09/g09_d.01/g09/l1.exe PID=     42609.
  
 Copyright (c) 1988,1990,1992,1993,1995,1998,2003,2009,2013,
            Gaussian, Inc.  All Rights Reserved.
  
 This is part of the Gaussian(R) 09 program.  It is based on
 the Gaussian(R) 03 system (copyright 2003, Gaussian, Inc.),
 the Gaussian(R) 98 system (copyright 1998, Gaussian, Inc.),
 the Gaussian(R) 94 system (copyright 1995, Gaussian, Inc.),
 the Gaussian 92(TM) system (copyright 1992, Gaussian, Inc.),
 the Gaussian 90(TM) system (copyright 1990, Gaussian, Inc.),
 the Gaussian 88(TM) system (copyright 1988, Gaussian, Inc.),
 the Gaussian 86(TM) system (copyright 1986, Carnegie Mellon
 University), and the Gaussian 82(TM) system (copyright 1983,
 Carnegie Mellon University). Gaussian is a federally registered
 trademark of Gaussian, Inc.
  
 This software contains proprietary and confidential information,
 including trade secrets, belonging to Gaussian, Inc.
  
 This software is provided under written license and may be
 used, copied, transmitted, or stored only in accord with that
 written license.
  
 The following legend is applicable only to US Government
 contracts under FAR:
  
                    RESTRICTED RIGHTS LEGEND
  
 Use, reproduction and disclosure by the US Government is
 subject to restrictions as set forth in subparagraphs (a)
 and (c) of the Commercial Computer Software - Restricted
 Rights clause in FAR 52.227-19.
  
 Gaussian, Inc.
 340 Quinnipiac St., Bldg. 40, Wallingford CT 06492
  
  
 ---------------------------------------------------------------
 Warning -- This program may not be used in any manner that
 competes with the business of Gaussian, Inc. or will provide
 assistance to any competitor of Gaussian, Inc.  The licensee
 of this program is prohibited from giving any competitor of
 Gaussian, Inc. access to this program.  By using this program,
 the user acknowledges that Gaussian, Inc. is engaged in the
 business of creating and licensing software in the field of
 computational chemistry and represents and warrants to the
 licensee that it is not a competitor of Gaussian, Inc. and that
 it will not use this program in any manner prohibited above.
 ---------------------------------------------------------------
  

 Cite this work as:
 Gaussian 09, Revision D.01,
 M. J. Frisch, G. W. Trucks, H. B. Schlegel, G. E. Scuseria, 
 M. A. Robb, J. R. Cheeseman, G. Scalmani, V. Barone, B. Mennucci, 
 G. A. Petersson, H. Nakatsuji, M. Caricato, X. Li, H. P. Hratchian, 
 A. F. Izmaylov, J. Bloino, G. Zheng, J. L. Sonnenberg, M. Hada, 
 M. Ehara, K. Toyota, R. Fukuda, J. Hasegawa, M. Ishida, T. Nakajima, 
 Y. Honda, O. Kitao, H. Nakai, T. Vreven, J. A. Montgomery, Jr., 
 J. E. Peralta, F. Ogliaro, M. Bearpark, J. J. Heyd, E. Brothers, 
 K. N. Kudin, V. N. Staroverov, T. Keith, R. Kobayashi, J. Normand, 
 K. Raghavachari, A. Rendell, J. C. Burant, S. S. Iyengar, J. Tomasi, 
 M. Cossi, N. Rega, J. M. Millam, M. Klene, J. E. Knox, J. B. Cross, 
 V. Bakken, C. Adamo, J. Jaramillo, R. Gomperts, R. E. Stratmann, 
 O. Yazyev, A. J. Austin, R. Cammi, C. Pomelli, J. W. Ochterski, 
 R. L. Martin, K. Morokuma, V. G. Zakrzewski, G. A. Voth, 
 P. Salvador, J. J. Dannenberg, S. Dapprich, A. D. Daniels, 
 O. Farkas, J. B. Foresman, J. V. Ortiz, J. Cioslowski, 
 and D. J. Fox, Gaussian, Inc., Wallingford CT, 2013.
 
 ******************************************
 Gaussian 09:  ES64L-G09RevD.01 24-Apr-2013
                26-Aug-2020 
 ******************************************
 %chk=/home/boittier/MDCM/nms_sampling/cyanomethane_geom.xyz.dir/cyanomethane_151
 0.chk
 %nproc=8
 Will use up to    8 processors via shared memory.
 %mem=16000MB
 --------------------
 #p B2PLYPD3/Def2QZVP
 --------------------
 1/38=1/1;
 2/12=2,17=6,18=5,40=1/2;
 3/5=45,7=101,11=9,16=1,25=1,30=1,74=-60/1,2,3;
 4//1;
 5/5=2,38=5/2;
 8/10=1/1;
 9/16=-3/6;
 6/7=2,8=2,9=2,10=2/1;
 99/5=1,9=1/99;
 Leave Link    1 at Wed Aug 26 11:54:45 2020, MaxMem=  2097152000 cpu:         0.2
 (Enter /opt/cluster/programs/g09/g09_d.01/g09/l101.exe)
 ------------
 cyanomethane
 ------------
 Symbolic Z-matrix:
 Charge =  0 Multiplicity = 1
 C                    -6.59918  -1.1144    1.15519 
 C                    -5.20519  -0.77833   0.94016 
 N                    -4.0964   -0.5444    0.68491 
 H                    -6.69435  -1.2547    2.2466 
 H                    -6.82855  -2.06129   0.64175 
 H                    -7.23817  -0.31728   0.78967 
 
 NAtoms=      6 NQM=        6 NQMF=       0 NMMI=      0 NMMIF=      0
                NMic=       0 NMicF=      0.
                    Isotopes and Nuclear Properties:
 (Nuclear quadrupole moments (NQMom) in fm**2, nuclear magnetic moments (NMagM)
  in nuclear magnetons)

  Atom         1           2           3           4           5           6
 IAtWgt=          12          12          14           1           1           1
 AtmWgt=  12.0000000  12.0000000  14.0030740   1.0078250   1.0078250   1.0078250
 NucSpn=           0           0           2           1           1           1
 AtZEff=   0.0000000   0.0000000   0.0000000   0.0000000   0.0000000   0.0000000
 NQMom=    0.0000000   0.0000000   2.0440000   0.0000000   0.0000000   0.0000000
 NMagM=    0.0000000   0.0000000   0.4037610   2.7928460   2.7928460   2.7928460
 AtZNuc=   6.0000000   6.0000000   7.0000000   1.0000000   1.0000000   1.0000000
 Leave Link  101 at Wed Aug 26 11:54:46 2020, MaxMem=  2097152000 cpu:         0.5
 (Enter /opt/cluster/programs/g09/g09_d.01/g09/l202.exe)
                          Input orientation:                          
 ---------------------------------------------------------------------
 Center     Atomic      Atomic             Coordinates (Angstroms)
 Number     Number       Type             X           Y           Z
 ---------------------------------------------------------------------
      1          6           0       -6.599177   -1.114399    1.155186
      2          6           0       -5.205192   -0.778332    0.940157
      3          7           0       -4.096403   -0.544401    0.684905
      4          1           0       -6.694351   -1.254699    2.246601
      5          1           0       -6.828553   -2.061292    0.641748
      6          1           0       -7.238172   -0.317281    0.789674
 ---------------------------------------------------------------------
                    Distance matrix (angstroms):
                    1          2          3          4          5
     1  C    0.000000
     2  C    1.449956   0.000000
     3  N    2.609586   1.161590   0.000000
     4  H    1.104504   2.037478   3.113318   0.000000
     5  H    1.101289   2.090535   3.125294   1.801154   0.000000
     6  H    1.085040   2.090029   3.151709   1.815800   1.797566
                    6
     6  H    0.000000
 Stoichiometry    C2H3N
 Framework group  C1[X(C2H3N)]
 Deg. of freedom    12
 Full point group                 C1      NOp   1
 Largest Abelian subgroup         C1      NOp   1
 Largest concise Abelian subgroup C1      NOp   1
                         Standard orientation:                         
 ---------------------------------------------------------------------
 Center     Atomic      Atomic             Coordinates (Angstroms)
 Number     Number       Type             X           Y           Z
 ---------------------------------------------------------------------
      1          6           0       -1.178932   -0.011282    0.002189
      2          6           0        0.270312    0.024108   -0.026300
      3          7           0        1.430632   -0.013687    0.012687
      4          1           0       -1.495454    1.007403   -0.284208
      5          1           0       -1.517543   -0.226398    1.027814
      6          1           0       -1.549712   -0.762155   -0.687754
 ---------------------------------------------------------------------
 Rotational constants (GHZ):    152.9501925      9.2998037      9.2931076
 Leave Link  202 at Wed Aug 26 11:54:46 2020, MaxMem=  2097152000 cpu:         0.0
 (Enter /opt/cluster/programs/g09/g09_d.01/g09/l301.exe)
 Standard basis: def2QZVP (5D, 7F)
 Ernie: Thresh=  0.10000D-02 Tol=  0.10000D-05 Strict=F.
 There are   321 symmetry adapted cartesian basis functions of A   symmetry.
 There are   261 symmetry adapted basis functions of A   symmetry.
   261 basis functions,   390 primitive gaussians,   321 cartesian basis functions
    11 alpha electrons       11 beta electrons
       nuclear repulsion energy        58.4992271229 Hartrees.
 IExCor=  419 DFT=T Ex+Corr=B2PLYPD3 ExCW=0 ScaHFX=  0.530000
 ScaDFX=  0.470000  0.470000  0.730000  0.730000 ScalE2=  0.270000  0.270000
 IRadAn=      0 IRanWt=     -1 IRanGd=            0 ICorTp=0 IEmpDi=141
 NAtoms=    6 NActive=    6 NUniq=    6 SFac= 1.00D+00 NAtFMM=   60 NAOKFM=F Big=F
 Integral buffers will be    131072 words long.
 Regular integral format.
 Two-electron integral symmetry is turned on.
 R6Disp:  Grimme-D3(BJ) Dispersion energy=       -0.0021089632 Hartrees.
 Nuclear repulsion after empirical dispersion term =       58.4971181597 Hartrees.
 Leave Link  301 at Wed Aug 26 11:54:46 2020, MaxMem=  2097152000 cpu:         0.5
 (Enter /opt/cluster/programs/g09/g09_d.01/g09/l302.exe)
 NPDir=0 NMtPBC=     1 NCelOv=     1 NCel=       1 NClECP=     1 NCelD=      1
         NCelK=      1 NCelE2=     1 NClLst=     1 CellRange=     0.0.
 One-electron integrals computed using PRISM.
   1 Symmetry operations used in ECPInt.
 ECPInt:  NShTT=    3321 NPrTT=    8136 LenC2=    3297 LenP2D=    7132.
 LDataN:  DoStor=T MaxTD1= 8 Len=  415
 NBasis=   261 RedAO= T EigKep=  8.29D-05  NBF=   261
 NBsUse=   261 1.00D-06 EigRej= -1.00D+00 NBFU=   261
 Precomputing XC quadrature grid using
 IXCGrd= 4 IRadAn=           0 IRanWt=          -1 IRanGd=           0 AccXCQ= 0.00D+00.
 Generated NRdTot=       0 NPtTot=           0 NUsed=           0 NTot=          32
 NSgBfM=   321   321   321   321   321 MxSgAt=     6 MxSgA2=     6.
 Leave Link  302 at Wed Aug 26 11:54:46 2020, MaxMem=  2097152000 cpu:         2.0
 (Enter /opt/cluster/programs/g09/g09_d.01/g09/l303.exe)
 DipDrv:  MaxL=1.
 Leave Link  303 at Wed Aug 26 11:54:46 2020, MaxMem=  2097152000 cpu:         0.2
 (Enter /opt/cluster/programs/g09/g09_d.01/g09/l401.exe)
 ExpMin= 7.60D-02 ExpMax= 9.07D+04 ExpMxC= 8.76D+02 IAcc=2 IRadAn=         4 AccDes= 0.00D+00
 Harris functional with IExCor=  419 and IRadAn=       4 diagonalized for initial guess.
 HarFok:  IExCor=  419 AccDes= 0.00D+00 IRadAn=         4 IDoV= 1 UseB2=F ITyADJ=14
 ICtDFT=  3500011 ScaDFX=  1.000000  1.000000  1.000000  1.000000
 FoFCou: FMM=F IPFlag=           0 FMFlag=      100000 FMFlg1=           0
         NFxFlg=           0 DoJE=T BraDBF=F KetDBF=T FulRan=T
         wScrn=  0.000000 ICntrl=     500 IOpCl=  0 I1Cent=   200000004 NGrid=           0
         NMat0=    1 NMatS0=      1 NMatT0=    0 NMatD0=    1 NMtDS0=    0 NMtDT0=    0
 Petite list used in FoFCou.
 Harris En= -132.848327509313    
 JPrj=0 DoOrth=F DoCkMO=F.
 Leave Link  401 at Wed Aug 26 11:54:46 2020, MaxMem=  2097152000 cpu:         3.7
 (Enter /opt/cluster/programs/g09/g09_d.01/g09/l502.exe)
 Closed shell SCF:
 Using DIIS extrapolation, IDIIS=  1040.
 Integral symmetry usage will be decided dynamically.
 Keep R1 ints in memory in canonical form, NReq=601554820.
 IVT=      332521 IEndB=      332521 NGot=  2097152000 MDV=  1512290144
 LenX=  1512290144 LenY=  1512186662
 Requested convergence on RMS density matrix=1.00D-08 within 128 cycles.
 Requested convergence on MAX density matrix=1.00D-06.
 Requested convergence on             energy=1.00D-06.
 No special actions if energy rises.
 FoFCou: FMM=F IPFlag=           0 FMFlag=           0 FMFlg1=           0
         NFxFlg=           0 DoJE=F BraDBF=F KetDBF=F FulRan=T
         wScrn=  0.000000 ICntrl=     600 IOpCl=  0 I1Cent=           0 NGrid=           0
         NMat0=    1 NMatS0=  34191 NMatT0=    0 NMatD0=    1 NMtDS0=    0 NMtDT0=    0
 Symmetry not used in FoFCou.
 Integral accuracy reduced to 1.0D-05 until final iterations.

 Cycle   1  Pass 0  IDiag  1:
 E= -132.422344599169    
 DIIS: error= 2.62D-02 at cycle   1 NSaved=   1.
 NSaved= 1 IEnMin= 1 EnMin= -132.422344599169     IErMin= 1 ErrMin= 2.62D-02
 ErrMax= 2.62D-02  0.00D+00 EMaxC= 1.00D-01 BMatC= 1.86D-01 BMatP= 1.86D-01
 IDIUse=3 WtCom= 7.38D-01 WtEn= 2.62D-01
 Coeff-Com:  0.100D+01
 Coeff-En:   0.100D+01
 Coeff:      0.100D+01
 Gap=     0.454 Goal=   None    Shift=    0.000
 GapD=    0.454 DampG=2.000 DampE=0.500 DampFc=1.0000 IDamp=-1.
 RMSDP=1.28D-03 MaxDP=6.65D-02              OVMax= 1.64D-01

 Cycle   2  Pass 0  IDiag  1:
 E= -132.453179390959     Delta-E=       -0.030834791791 Rises=F Damp=F
 DIIS: error= 3.30D-02 at cycle   2 NSaved=   2.
 NSaved= 2 IEnMin= 2 EnMin= -132.453179390959     IErMin= 1 ErrMin= 2.62D-02
 ErrMax= 3.30D-02  0.00D+00 EMaxC= 1.00D-01 BMatC= 9.44D-02 BMatP= 1.86D-01
 IDIUse=3 WtCom= 6.70D-01 WtEn= 3.30D-01
 Coeff-Com:  0.399D+00 0.601D+00
 Coeff-En:   0.403D+00 0.597D+00
 Coeff:      0.400D+00 0.600D+00
 Gap=     0.434 Goal=   None    Shift=    0.000
 RMSDP=8.50D-04 MaxDP=3.39D-02 DE=-3.08D-02 OVMax= 1.23D-01

 Cycle   3  Pass 0  IDiag  1:
 E= -132.516929521874     Delta-E=       -0.063750130915 Rises=F Damp=F
 DIIS: error= 1.35D-02 at cycle   3 NSaved=   3.
 NSaved= 3 IEnMin= 3 EnMin= -132.516929521874     IErMin= 3 ErrMin= 1.35D-02
 ErrMax= 1.35D-02  0.00D+00 EMaxC= 1.00D-01 BMatC= 2.02D-02 BMatP= 9.44D-02
 IDIUse=3 WtCom= 8.65D-01 WtEn= 1.35D-01
 Coeff-Com:  0.961D-01 0.326D+00 0.578D+00
 Coeff-En:   0.000D+00 0.133D+00 0.867D+00
 Coeff:      0.831D-01 0.300D+00 0.617D+00
 Gap=     0.424 Goal=   None    Shift=    0.000
 RMSDP=2.69D-04 MaxDP=9.71D-03 DE=-6.38D-02 OVMax= 5.93D-02

 Cycle   4  Pass 0  IDiag  1:
 E= -132.530921956663     Delta-E=       -0.013992434789 Rises=F Damp=F
 DIIS: error= 4.78D-03 at cycle   4 NSaved=   4.
 NSaved= 4 IEnMin= 4 EnMin= -132.530921956663     IErMin= 4 ErrMin= 4.78D-03
 ErrMax= 4.78D-03  0.00D+00 EMaxC= 1.00D-01 BMatC= 2.93D-03 BMatP= 2.02D-02
 IDIUse=3 WtCom= 9.52D-01 WtEn= 4.78D-02
 Coeff-Com: -0.129D-01 0.549D-01 0.325D+00 0.633D+00
 Coeff-En:   0.000D+00 0.000D+00 0.135D+00 0.865D+00
 Coeff:     -0.123D-01 0.523D-01 0.316D+00 0.644D+00
 Gap=     0.424 Goal=   None    Shift=    0.000
 RMSDP=8.98D-05 MaxDP=2.85D-03 DE=-1.40D-02 OVMax= 1.53D-02

 Cycle   5  Pass 0  IDiag  1:
 E= -132.533469876507     Delta-E=       -0.002547919844 Rises=F Damp=F
 DIIS: error= 3.11D-04 at cycle   5 NSaved=   5.
 NSaved= 5 IEnMin= 5 EnMin= -132.533469876507     IErMin= 5 ErrMin= 3.11D-04
 ErrMax= 3.11D-04  0.00D+00 EMaxC= 1.00D-01 BMatC= 1.26D-05 BMatP= 2.93D-03
 IDIUse=3 WtCom= 9.97D-01 WtEn= 3.11D-03
 Coeff-Com: -0.346D-02 0.572D-02 0.469D-01 0.138D+00 0.813D+00
 Coeff-En:   0.000D+00 0.000D+00 0.000D+00 0.000D+00 0.100D+01
 Coeff:     -0.344D-02 0.570D-02 0.467D-01 0.138D+00 0.813D+00
 Gap=     0.423 Goal=   None    Shift=    0.000
 RMSDP=8.31D-06 MaxDP=3.13D-04 DE=-2.55D-03 OVMax= 1.19D-03

 Initial convergence to 1.0D-05 achieved.  Increase integral accuracy.
 Cycle   6  Pass 1  IDiag  1:
 E= -132.533483243923     Delta-E=       -0.000013367416 Rises=F Damp=F
 DIIS: error= 9.25D-05 at cycle   1 NSaved=   1.
 NSaved= 1 IEnMin= 1 EnMin= -132.533483243923     IErMin= 1 ErrMin= 9.25D-05
 ErrMax= 9.25D-05  0.00D+00 EMaxC= 1.00D-01 BMatC= 6.83D-07 BMatP= 6.83D-07
 IDIUse=1 WtCom= 1.00D+00 WtEn= 0.00D+00
 Coeff-Com:  0.100D+01
 Coeff:      0.100D+01
 Gap=     0.424 Goal=   None    Shift=    0.000
 RMSDP=8.31D-06 MaxDP=3.13D-04 DE=-1.34D-05 OVMax= 4.19D-04

 Cycle   7  Pass 1  IDiag  1:
 E= -132.533483647986     Delta-E=       -0.000000404062 Rises=F Damp=F
 DIIS: error= 4.93D-05 at cycle   2 NSaved=   2.
 NSaved= 2 IEnMin= 2 EnMin= -132.533483647986     IErMin= 2 ErrMin= 4.93D-05
 ErrMax= 4.93D-05  0.00D+00 EMaxC= 1.00D-01 BMatC= 3.14D-07 BMatP= 6.83D-07
 IDIUse=1 WtCom= 1.00D+00 WtEn= 0.00D+00
 Coeff-Com:  0.396D+00 0.604D+00
 Coeff:      0.396D+00 0.604D+00
 Gap=     0.424 Goal=   None    Shift=    0.000
 RMSDP=1.06D-06 MaxDP=4.08D-05 DE=-4.04D-07 OVMax= 1.78D-04

 Cycle   8  Pass 1  IDiag  1:
 E= -132.533483922446     Delta-E=       -0.000000274460 Rises=F Damp=F
 DIIS: error= 1.56D-05 at cycle   3 NSaved=   3.
 NSaved= 3 IEnMin= 3 EnMin= -132.533483922446     IErMin= 3 ErrMin= 1.56D-05
 ErrMax= 1.56D-05  0.00D+00 EMaxC= 1.00D-01 BMatC= 2.18D-08 BMatP= 3.14D-07
 IDIUse=1 WtCom= 1.00D+00 WtEn= 0.00D+00
 Coeff-Com:  0.111D+00 0.245D+00 0.644D+00
 Coeff:      0.111D+00 0.245D+00 0.644D+00
 Gap=     0.424 Goal=   None    Shift=    0.000
 RMSDP=5.80D-07 MaxDP=2.58D-05 DE=-2.74D-07 OVMax= 6.05D-05

 Cycle   9  Pass 1  IDiag  1:
 E= -132.533483935429     Delta-E=       -0.000000012984 Rises=F Damp=F
 DIIS: error= 9.97D-06 at cycle   4 NSaved=   4.
 NSaved= 4 IEnMin= 4 EnMin= -132.533483935429     IErMin= 4 ErrMin= 9.97D-06
 ErrMax= 9.97D-06  0.00D+00 EMaxC= 1.00D-01 BMatC= 7.51D-09 BMatP= 2.18D-08
 IDIUse=1 WtCom= 1.00D+00 WtEn= 0.00D+00
 Coeff-Com: -0.597D-01-0.367D-01 0.402D+00 0.695D+00
 Coeff:     -0.597D-01-0.367D-01 0.402D+00 0.695D+00
 Gap=     0.424 Goal=   None    Shift=    0.000
 RMSDP=2.96D-07 MaxDP=1.36D-05 DE=-1.30D-08 OVMax= 3.64D-05

 Cycle  10  Pass 1  IDiag  1:
 E= -132.533483942537     Delta-E=       -0.000000007108 Rises=F Damp=F
 DIIS: error= 1.08D-06 at cycle   5 NSaved=   5.
 NSaved= 5 IEnMin= 5 EnMin= -132.533483942537     IErMin= 5 ErrMin= 1.08D-06
 ErrMax= 1.08D-06  0.00D+00 EMaxC= 1.00D-01 BMatC= 1.08D-10 BMatP= 7.51D-09
 IDIUse=1 WtCom= 1.00D+00 WtEn= 0.00D+00
 Coeff-Com: -0.221D-01-0.208D-01 0.836D-01 0.207D+00 0.753D+00
 Coeff:     -0.221D-01-0.208D-01 0.836D-01 0.207D+00 0.753D+00
 Gap=     0.424 Goal=   None    Shift=    0.000
 RMSDP=4.57D-08 MaxDP=2.17D-06 DE=-7.11D-09 OVMax= 3.60D-06

 Cycle  11  Pass 1  IDiag  1:
 E= -132.533483942637     Delta-E=       -0.000000000099 Rises=F Damp=F
 DIIS: error= 2.16D-07 at cycle   6 NSaved=   6.
 NSaved= 6 IEnMin= 6 EnMin= -132.533483942637     IErMin= 6 ErrMin= 2.16D-07
 ErrMax= 2.16D-07  0.00D+00 EMaxC= 1.00D-01 BMatC= 5.84D-12 BMatP= 1.08D-10
 IDIUse=1 WtCom= 1.00D+00 WtEn= 0.00D+00
 Coeff-Com:  0.275D-02 0.678D-03-0.306D-01-0.281D-01 0.118D+00 0.938D+00
 Coeff:      0.275D-02 0.678D-03-0.306D-01-0.281D-01 0.118D+00 0.938D+00
 Gap=     0.424 Goal=   None    Shift=    0.000
 RMSDP=1.11D-08 MaxDP=4.14D-07 DE=-9.94D-11 OVMax= 1.21D-06

 Cycle  12  Pass 1  IDiag  1:
 E= -132.533483942647     Delta-E=       -0.000000000010 Rises=F Damp=F
 DIIS: error= 5.59D-08 at cycle   7 NSaved=   7.
 NSaved= 7 IEnMin= 7 EnMin= -132.533483942647     IErMin= 7 ErrMin= 5.59D-08
 ErrMax= 5.59D-08  0.00D+00 EMaxC= 1.00D-01 BMatC= 2.11D-13 BMatP= 5.84D-12
 IDIUse=1 WtCom= 1.00D+00 WtEn= 0.00D+00
 Coeff-Com:  0.395D-03 0.684D-03 0.127D-02-0.110D-02-0.438D-01-0.150D+00
 Coeff-Com:  0.119D+01
 Coeff:      0.395D-03 0.684D-03 0.127D-02-0.110D-02-0.438D-01-0.150D+00
 Coeff:      0.119D+01
 Gap=     0.424 Goal=   None    Shift=    0.000
 RMSDP=2.67D-09 MaxDP=8.48D-08 DE=-9.66D-12 OVMax= 5.63D-07

 SCF Done:  E(RB2PLYPD3) =  -132.533483943     A.U. after   12 cycles
            NFock= 12  Conv=0.27D-08     -V/T= 2.0040
 KE= 1.320053629052D+02 PE=-4.255723498958D+02 EE= 1.025363848883D+02
 Leave Link  502 at Wed Aug 26 11:55:08 2020, MaxMem=  2097152000 cpu:        99.2
 (Enter /opt/cluster/programs/g09/g09_d.01/g09/l801.exe)
 DoSCS=T DFT=T ScalE2(SS,OS)=  0.270000  0.270000
 ExpMin= 7.60D-02 ExpMax= 9.07D+04 ExpMxC= 8.76D+02 IAcc=3 IRadAn=         5 AccDes= 0.00D+00
 HarFok:  IExCor=  205 AccDes= 0.00D+00 IRadAn=         5 IDoV=-2 UseB2=F ITyADJ=14
 ICtDFT= 12500011 ScaDFX=  1.000000  1.000000  1.000000  1.000000
 Largest valence mixing into a core orbital is  1.17D-04
 Largest core mixing into a valence orbital is  1.96D-05
 Range of M.O.s used for correlation:     4   261
 NBasis=   261 NAE=    11 NBE=    11 NFC=     3 NFV=     0
 NROrb=    258 NOA=     8 NOB=     8 NVA=   250 NVB=   250

 **** Warning!!: The largest alpha MO coefficient is  0.28723558D+02

 Leave Link  801 at Wed Aug 26 11:55:08 2020, MaxMem=  2097152000 cpu:         0.6
 (Enter /opt/cluster/programs/g09/g09_d.01/g09/l906.exe)
 DoSCS=T DFT=T ScalE2(SS,OS)=  0.270000  0.270000
 FulOut=F Deriv=F AODrv=F NAtomX=     6
   MMem=        2666  MDisk=           8 MDiskD=           8
  W3Min=      642000 MinDsk=     1426009 NBas6D=         321
 NBas2D=       52689    NTT=       51681    LW2=     4508827
    MDV=  2096809307 MDiskM=       14501 NBas2p=       52131
 Fully direct method using O(OVN) memory.
 IMap=   1   2   3   4   5   6   7   8
 JobTyp=1 Pass  1:  I=   1 to   8 NPSUse=  8 ParTrn=T ParDer=T DoDerP=F.
 Spin components of T(2) and E(2):
     alpha-alpha T2 =       0.3617961552D-01 E2=     -0.2153699664D-01
     alpha-beta  T2 =       0.2110789828D+00 E2=     -0.1381191412D+00
     beta-beta   T2 =       0.3617961552D-01 E2=     -0.2153699664D-01
 The integrals were generated   1 times.
 E2(B2PLYPD3) =    -0.1811931344D+00 E(B2PLYPD3) =    -0.13271467707709D+03
 Leave Link  906 at Wed Aug 26 11:55:21 2020, MaxMem=  2097152000 cpu:        99.7
 (Enter /opt/cluster/programs/g09/g09_d.01/g09/l601.exe)
 Copying SCF densities to generalized density rwf, IOpCl= 0 IROHF=0.

 **********************************************************************

            Population analysis using the SCF density.

 **********************************************************************

 Orbital symmetries:
       Occupied  (A) (A) (A) (A) (A) (A) (A) (A) (A) (A) (A)
       Virtual   (A) (A) (A) (A) (A) (A) (A) (A) (A) (A) (A) (A)
                 (A) (A) (A) (A) (A) (A) (A) (A) (A) (A) (A) (A)
                 (A) (A) (A) (A) (A) (A) (A) (A) (A) (A) (A) (A)
                 (A) (A) (A) (A) (A) (A) (A) (A) (A) (A) (A) (A)
                 (A) (A) (A) (A) (A) (A) (A) (A) (A) (A) (A) (A)
                 (A) (A) (A) (A) (A) (A) (A) (A) (A) (A) (A) (A)
                 (A) (A) (A) (A) (A) (A) (A) (A) (A) (A) (A) (A)
                 (A) (A) (A) (A) (A) (A) (A) (A) (A) (A) (A) (A)
                 (A) (A) (A) (A) (A) (A) (A) (A) (A) (A) (A) (A)
                 (A) (A) (A) (A) (A) (A) (A) (A) (A) (A) (A) (A)
                 (A) (A) (A) (A) (A) (A) (A) (A) (A) (A) (A) (A)
                 (A) (A) (A) (A) (A) (A) (A) (A) (A) (A) (A) (A)
                 (A) (A) (A) (A) (A) (A) (A) (A) (A) (A) (A) (A)
                 (A) (A) (A) (A) (A) (A) (A) (A) (A) (A) (A) (A)
                 (A) (A) (A) (A) (A) (A) (A) (A) (A) (A) (A) (A)
                 (A) (A) (A) (A) (A) (A) (A) (A) (A) (A) (A) (A)
                 (A) (A) (A) (A) (A) (A) (A) (A) (A) (A) (A) (A)
                 (A) (A) (A) (A) (A) (A) (A) (A) (A) (A) (A) (A)
                 (A) (A) (A) (A) (A) (A) (A) (A) (A) (A) (A) (A)
                 (A) (A) (A) (A) (A) (A) (A) (A) (A) (A) (A) (A)
                 (A) (A) (A) (A) (A) (A) (A) (A) (A) (A)
 The electronic state is 1-A.
 Alpha  occ. eigenvalues --  -14.84261 -10.67337 -10.66301  -1.03790  -0.89326
 Alpha  occ. eigenvalues --   -0.59191  -0.54451  -0.53823  -0.44701  -0.38832
 Alpha  occ. eigenvalues --   -0.38676
 Alpha virt. eigenvalues --    0.03688   0.07623   0.07967   0.10106   0.11329
 Alpha virt. eigenvalues --    0.11491   0.15367   0.15594   0.16449   0.20118
 Alpha virt. eigenvalues --    0.20162   0.25518   0.32674   0.34052   0.34691
 Alpha virt. eigenvalues --    0.38405   0.39541   0.39983   0.40574   0.46840
 Alpha virt. eigenvalues --    0.50215   0.52614   0.58654   0.60473   0.61465
 Alpha virt. eigenvalues --    0.66474   0.67041   0.68357   0.70389   0.79138
 Alpha virt. eigenvalues --    0.79781   0.82164   0.82522   0.83485   0.86553
 Alpha virt. eigenvalues --    0.91224   0.93835   0.95624   0.96792   0.98202
 Alpha virt. eigenvalues --    1.05994   1.06741   1.07536   1.11079   1.12920
 Alpha virt. eigenvalues --    1.14856   1.22556   1.23165   1.23644   1.35063
 Alpha virt. eigenvalues --    1.35725   1.44754   1.45974   1.47079   1.53454
 Alpha virt. eigenvalues --    1.64304   1.67193   1.70046   1.74009   1.78073
 Alpha virt. eigenvalues --    1.79206   1.79699   1.88218   1.92469   1.92883
 Alpha virt. eigenvalues --    1.94850   1.99023   2.00291   2.01151   2.03848
 Alpha virt. eigenvalues --    2.06062   2.11249   2.12809   2.18922   2.20930
 Alpha virt. eigenvalues --    2.23156   2.23374   2.25221   2.34661   2.36837
 Alpha virt. eigenvalues --    2.42914   2.50911   2.52597   2.58076   2.59259
 Alpha virt. eigenvalues --    2.59731   2.67048   2.69765   2.71371   2.73113
 Alpha virt. eigenvalues --    2.76621   2.77641   2.86867   2.88663   2.89776
 Alpha virt. eigenvalues --    2.90024   2.94229   2.95256   2.95897   3.03225
 Alpha virt. eigenvalues --    3.10214   3.12016   3.21412   3.26342   3.29597
 Alpha virt. eigenvalues --    3.35511   3.36591   3.39850   3.43074   3.46211
 Alpha virt. eigenvalues --    3.54579   3.58322   3.68606   3.74164   3.74926
 Alpha virt. eigenvalues --    3.88340   3.90046   3.90637   3.93656   3.95317
 Alpha virt. eigenvalues --    4.01167   4.05021   4.05869   4.25493   4.26594
 Alpha virt. eigenvalues --    4.55823   4.91362   4.91493   5.05669   5.08172
 Alpha virt. eigenvalues --    5.10621   5.15284   5.19646   5.22736   5.27364
 Alpha virt. eigenvalues --    5.33230   5.45440   5.46454   5.47061   5.65557
 Alpha virt. eigenvalues --    5.67713   5.85310   5.85600   5.91219   5.92350
 Alpha virt. eigenvalues --    5.93751   5.95279   5.98983   6.00622   6.01841
 Alpha virt. eigenvalues --    6.02677   6.04900   6.05075   6.08066   6.13092
 Alpha virt. eigenvalues --    6.13492   6.20185   6.21507   6.25906   6.31130
 Alpha virt. eigenvalues --    6.38671   6.41713   6.46213   6.55577   6.60768
 Alpha virt. eigenvalues --    6.62128   6.63426   6.90127   6.91972   6.96957
 Alpha virt. eigenvalues --    6.98312   7.02648   7.02657   7.03472   7.14021
 Alpha virt. eigenvalues --    7.17392   7.24321   7.25055   7.38109   7.41380
 Alpha virt. eigenvalues --    7.47849   7.50658   7.54183   7.55113   7.57742
 Alpha virt. eigenvalues --    7.68127   7.71148   7.71645   7.83556   7.85415
 Alpha virt. eigenvalues --    7.87125   7.90731   7.95790   7.97860   8.26168
 Alpha virt. eigenvalues --    8.28958   8.36853   8.40648   8.41494   8.43698
 Alpha virt. eigenvalues --    8.46830   8.47229   8.48363   8.51038   8.56482
 Alpha virt. eigenvalues --    8.60216   8.64047   8.66747   8.66904   8.68682
 Alpha virt. eigenvalues --    8.70389   8.78168   8.84356   8.89790   8.99904
 Alpha virt. eigenvalues --    9.06090   9.10205   9.13349   9.15293   9.16822
 Alpha virt. eigenvalues --    9.23883   9.26029   9.69141   9.72480   9.81736
 Alpha virt. eigenvalues --    9.86083   9.86842   9.91377   9.92903  10.04651
 Alpha virt. eigenvalues --   10.10780  10.13998  10.15125  10.33765  10.36774
 Alpha virt. eigenvalues --   10.42209  10.60026  11.36869  11.76406  11.85512
 Alpha virt. eigenvalues --   11.97794  12.03227  13.12421  13.51801  29.14363
 Alpha virt. eigenvalues --   29.57999  38.29791 148.78822 149.20846 198.21262
          Condensed to atoms (all electrons):
               1          2          3          4          5          6
     1  C    4.624958   0.291192  -0.060038   0.410135   0.415513   0.415049
     2  C    0.291192   4.864184   0.981971  -0.049016  -0.045130  -0.042882
     3  N   -0.060038   0.981971   6.291656  -0.000409  -0.001562  -0.000851
     4  H    0.410135  -0.049016  -0.000409   0.593122  -0.027765  -0.027274
     5  H    0.415513  -0.045130  -0.001562  -0.027765   0.585832  -0.029407
     6  H    0.415049  -0.042882  -0.000851  -0.027274  -0.029407   0.581196
 Mulliken charges:
               1
     1  C   -0.096808
     2  C   -0.000320
     3  N   -0.210767
     4  H    0.101207
     5  H    0.102519
     6  H    0.104169
 Sum of Mulliken charges =   0.00000
 Mulliken charges with hydrogens summed into heavy atoms:
               1
     1  C    0.211087
     2  C   -0.000320
     3  N   -0.210767
 Electronic spatial extent (au):  <R**2>=            161.0979
 Charge=              0.0000 electrons
 Dipole moment (field-independent basis, Debye):
    X=             -4.1126    Y=              0.0211    Z=             -0.0098  Tot=              4.1127
 Quadrupole moment (field-independent basis, Debye-Ang):
   XX=            -21.2545   YY=            -17.6827   ZZ=            -17.7328
   XY=              0.1080   XZ=             -0.0719   YZ=              0.0273
 Traceless Quadrupole moment (field-independent basis, Debye-Ang):
   XX=             -2.3645   YY=              1.2073   ZZ=              1.1572
   XY=              0.1080   XZ=             -0.0719   YZ=              0.0273
 Octapole moment (field-independent basis, Debye-Ang**2):
  XXX=            -12.1677  YYY=              0.4874  ZZZ=              0.7829  XYY=             -2.3350
  XXY=             -0.2567  XXZ=              0.0502  XZZ=             -2.2935  YZZ=             -0.5656
  YYZ=             -0.6475  XYZ=             -0.0695
 Hexadecapole moment (field-independent basis, Debye-Ang**3):
 XXXX=           -182.3512 YYYY=            -24.8014 ZZZZ=            -24.7401 XXXY=              0.7609
 XXXZ=             -0.2277 YYYX=             -0.8192 YYYZ=              0.0523 ZZZX=             -1.1393
 ZZZY=              0.0283 XXYY=            -31.0315 XXZZ=            -30.9876 YYZZ=             -8.3285
 XXYZ=              0.1884 YYXZ=              1.0949 ZZXY=              0.9069
 N-N= 5.849711815971D+01 E-N=-4.255723506890D+02  KE= 1.320053629052D+02
 Leave Link  601 at Wed Aug 26 11:55:21 2020, MaxMem=  2097152000 cpu:         0.3
 (Enter /opt/cluster/programs/g09/g09_d.01/g09/l9999.exe)
 1\1\GINC-NODE25\SP\RB2PLYPD3-FC\def2QZVP\C2H3N1\BOITTIER\26-Aug-2020\0
 \\#p B2PLYPD3/Def2QZVP\\cyanomethane\\0,1\C,0,-6.599177,-1.114399,1.15
 5186\C,0,-5.205192,-0.778332,0.940157\N,0,-4.096403,-0.544401,0.684905
 \H,0,-6.694351,-1.254699,2.246601\H,0,-6.828553,-2.061292,0.641748\H,0
 ,-7.238172,-0.317281,0.789674\\Version=ES64L-G09RevD.01\State=1-A\HF=-
 132.5334839\MP2=-132.7146771\RMSD=2.667e-09\PG=C01 [X(C2H3N1)]\\@


 THE SOLUTION TO A PROBLEM CHANGES THE PROBLEM.

                                 -- JOHN PEERS
           PAUL DICKSON'S "THE OFFICIAL RULES"
 Job cpu time:       0 days  0 hours  3 minutes 27.6 seconds.
 File lengths (MBytes):  RWF=     28 Int=      0 D2E=      0 Chk=      5 Scr=      1
 Normal termination of Gaussian 09 at Wed Aug 26 11:55:21 2020.
