 Entering Gaussian System, Link 0=/opt/cluster/programs/g09/g09_d.01/g09//g09
 Input=/home/boittier/MDCM/nms_sampling/cyanomethane_geom.xyz.dir/energies/cyanomethane_333_energy.com
 Output=/scratch/boittier/cyanomethane_333_energy/cyanomethane_333_energy.out
 Initial command:
 /opt/cluster/programs/g09/g09_d.01/g09/l1.exe "/scratch/boittier/cyanomethane_333_energy/Gau-79060.inp" -scrdir="/scratch/boittier/cyanomethane_333_energy/"
 Entering Link 1 = /opt/cluster/programs/g09/g09_d.01/g09/l1.exe PID=     79061.
  
 Copyright (c) 1988,1990,1992,1993,1995,1998,2003,2009,2013,
            Gaussian, Inc.  All Rights Reserved.
  
 This is part of the Gaussian(R) 09 program.  It is based on
 the Gaussian(R) 03 system (copyright 2003, Gaussian, Inc.),
 the Gaussian(R) 98 system (copyright 1998, Gaussian, Inc.),
 the Gaussian(R) 94 system (copyright 1995, Gaussian, Inc.),
 the Gaussian 92(TM) system (copyright 1992, Gaussian, Inc.),
 the Gaussian 90(TM) system (copyright 1990, Gaussian, Inc.),
 the Gaussian 88(TM) system (copyright 1988, Gaussian, Inc.),
 the Gaussian 86(TM) system (copyright 1986, Carnegie Mellon
 University), and the Gaussian 82(TM) system (copyright 1983,
 Carnegie Mellon University). Gaussian is a federally registered
 trademark of Gaussian, Inc.
  
 This software contains proprietary and confidential information,
 including trade secrets, belonging to Gaussian, Inc.
  
 This software is provided under written license and may be
 used, copied, transmitted, or stored only in accord with that
 written license.
  
 The following legend is applicable only to US Government
 contracts under FAR:
  
                    RESTRICTED RIGHTS LEGEND
  
 Use, reproduction and disclosure by the US Government is
 subject to restrictions as set forth in subparagraphs (a)
 and (c) of the Commercial Computer Software - Restricted
 Rights clause in FAR 52.227-19.
  
 Gaussian, Inc.
 340 Quinnipiac St., Bldg. 40, Wallingford CT 06492
  
  
 ---------------------------------------------------------------
 Warning -- This program may not be used in any manner that
 competes with the business of Gaussian, Inc. or will provide
 assistance to any competitor of Gaussian, Inc.  The licensee
 of this program is prohibited from giving any competitor of
 Gaussian, Inc. access to this program.  By using this program,
 the user acknowledges that Gaussian, Inc. is engaged in the
 business of creating and licensing software in the field of
 computational chemistry and represents and warrants to the
 licensee that it is not a competitor of Gaussian, Inc. and that
 it will not use this program in any manner prohibited above.
 ---------------------------------------------------------------
  

 Cite this work as:
 Gaussian 09, Revision D.01,
 M. J. Frisch, G. W. Trucks, H. B. Schlegel, G. E. Scuseria, 
 M. A. Robb, J. R. Cheeseman, G. Scalmani, V. Barone, B. Mennucci, 
 G. A. Petersson, H. Nakatsuji, M. Caricato, X. Li, H. P. Hratchian, 
 A. F. Izmaylov, J. Bloino, G. Zheng, J. L. Sonnenberg, M. Hada, 
 M. Ehara, K. Toyota, R. Fukuda, J. Hasegawa, M. Ishida, T. Nakajima, 
 Y. Honda, O. Kitao, H. Nakai, T. Vreven, J. A. Montgomery, Jr., 
 J. E. Peralta, F. Ogliaro, M. Bearpark, J. J. Heyd, E. Brothers, 
 K. N. Kudin, V. N. Staroverov, T. Keith, R. Kobayashi, J. Normand, 
 K. Raghavachari, A. Rendell, J. C. Burant, S. S. Iyengar, J. Tomasi, 
 M. Cossi, N. Rega, J. M. Millam, M. Klene, J. E. Knox, J. B. Cross, 
 V. Bakken, C. Adamo, J. Jaramillo, R. Gomperts, R. E. Stratmann, 
 O. Yazyev, A. J. Austin, R. Cammi, C. Pomelli, J. W. Ochterski, 
 R. L. Martin, K. Morokuma, V. G. Zakrzewski, G. A. Voth, 
 P. Salvador, J. J. Dannenberg, S. Dapprich, A. D. Daniels, 
 O. Farkas, J. B. Foresman, J. V. Ortiz, J. Cioslowski, 
 and D. J. Fox, Gaussian, Inc., Wallingford CT, 2013.
 
 ******************************************
 Gaussian 09:  ES64L-G09RevD.01 24-Apr-2013
                26-Aug-2020 
 ******************************************
 %chk=/home/boittier/MDCM/nms_sampling/cyanomethane_geom.xyz.dir/cyanomethane_333
 .chk
 %nproc=8
 Will use up to    8 processors via shared memory.
 %mem=16000MB
 --------------------
 #p B2PLYPD3/Def2QZVP
 --------------------
 1/38=1/1;
 2/12=2,17=6,18=5,40=1/2;
 3/5=45,7=101,11=9,16=1,25=1,30=1,74=-60/1,2,3;
 4//1;
 5/5=2,38=5/2;
 8/10=1/1;
 9/16=-3/6;
 6/7=2,8=2,9=2,10=2/1;
 99/5=1,9=1/99;
 Leave Link    1 at Wed Aug 26 23:13:52 2020, MaxMem=  2097152000 cpu:         5.9
 (Enter /opt/cluster/programs/g09/g09_d.01/g09/l101.exe)
 ------------
 cyanomethane
 ------------
 Symbolic Z-matrix:
 Charge =  0 Multiplicity = 1
 C                    -6.59986  -1.12468   1.16257 
 C                    -5.20036  -0.78467   0.92915 
 N                    -4.08956  -0.5399    0.69042 
 H                    -6.7566   -1.18194   2.22519 
 H                    -6.88818  -2.01436   0.66304 
 H                    -7.26217  -0.31361   0.75925 
 
 NAtoms=      6 NQM=        6 NQMF=       0 NMMI=      0 NMMIF=      0
                NMic=       0 NMicF=      0.
                    Isotopes and Nuclear Properties:
 (Nuclear quadrupole moments (NQMom) in fm**2, nuclear magnetic moments (NMagM)
  in nuclear magnetons)

  Atom         1           2           3           4           5           6
 IAtWgt=          12          12          14           1           1           1
 AtmWgt=  12.0000000  12.0000000  14.0030740   1.0078250   1.0078250   1.0078250
 NucSpn=           0           0           2           1           1           1
 AtZEff=   0.0000000   0.0000000   0.0000000   0.0000000   0.0000000   0.0000000
 NQMom=    0.0000000   0.0000000   2.0440000   0.0000000   0.0000000   0.0000000
 NMagM=    0.0000000   0.0000000   0.4037610   2.7928460   2.7928460   2.7928460
 AtZNuc=   6.0000000   6.0000000   7.0000000   1.0000000   1.0000000   1.0000000
 Leave Link  101 at Wed Aug 26 23:13:53 2020, MaxMem=  2097152000 cpu:         0.5
 (Enter /opt/cluster/programs/g09/g09_d.01/g09/l202.exe)
                          Input orientation:                          
 ---------------------------------------------------------------------
 Center     Atomic      Atomic             Coordinates (Angstroms)
 Number     Number       Type             X           Y           Z
 ---------------------------------------------------------------------
      1          6           0       -6.599856   -1.124675    1.162569
      2          6           0       -5.200364   -0.784671    0.929150
      3          7           0       -4.089557   -0.539896    0.690417
      4          1           0       -6.756599   -1.181936    2.225193
      5          1           0       -6.888182   -2.014357    0.663041
      6          1           0       -7.262169   -0.313606    0.759248
 ---------------------------------------------------------------------
                    Distance matrix (angstroms):
                    1          2          3          4          5
     1  C    0.000000
     2  C    1.458995   0.000000
     3  N    2.620400   1.162239   0.000000
     4  H    1.075647   2.063835   3.143384   0.000000
     5  H    1.060280   2.105154   3.163398   1.774981   0.000000
     6  H    1.122123   2.121747   3.181417   1.777243   1.744040
                    6
     6  H    0.000000
 Stoichiometry    C2H3N
 Framework group  C1[X(C2H3N)]
 Deg. of freedom    12
 Full point group                 C1      NOp   1
 Largest Abelian subgroup         C1      NOp   1
 Largest concise Abelian subgroup C1      NOp   1
                         Standard orientation:                         
 ---------------------------------------------------------------------
 Center     Atomic      Atomic             Coordinates (Angstroms)
 Number     Number       Type             X           Y           Z
 ---------------------------------------------------------------------
      1          6           0        1.180611    0.001032   -0.015605
      2          6           0       -0.278048    0.021700    0.007879
      3          7           0       -1.439716   -0.013301   -0.002295
      4          1           0        1.529788    1.016479    0.047330
      5          1           0        1.563836   -0.506216   -0.864151
      6          1           0        1.569012   -0.553547    0.879239
 ---------------------------------------------------------------------
 Rotational constants (GHZ):    160.2521337      9.1889299      9.1757653
 Leave Link  202 at Wed Aug 26 23:13:54 2020, MaxMem=  2097152000 cpu:         0.0
 (Enter /opt/cluster/programs/g09/g09_d.01/g09/l301.exe)
 Standard basis: def2QZVP (5D, 7F)
 Ernie: Thresh=  0.10000D-02 Tol=  0.10000D-05 Strict=F.
 There are   321 symmetry adapted cartesian basis functions of A   symmetry.
 There are   261 symmetry adapted basis functions of A   symmetry.
   261 basis functions,   390 primitive gaussians,   321 cartesian basis functions
    11 alpha electrons       11 beta electrons
       nuclear repulsion energy        58.3938143156 Hartrees.
 IExCor=  419 DFT=T Ex+Corr=B2PLYPD3 ExCW=0 ScaHFX=  0.530000
 ScaDFX=  0.470000  0.470000  0.730000  0.730000 ScalE2=  0.270000  0.270000
 IRadAn=      0 IRanWt=     -1 IRanGd=            0 ICorTp=0 IEmpDi=141
 NAtoms=    6 NActive=    6 NUniq=    6 SFac= 1.00D+00 NAtFMM=   60 NAOKFM=F Big=F
 Integral buffers will be    131072 words long.
 Regular integral format.
 Two-electron integral symmetry is turned on.
 R6Disp:  Grimme-D3(BJ) Dispersion energy=       -0.0021006061 Hartrees.
 Nuclear repulsion after empirical dispersion term =       58.3917137095 Hartrees.
 Leave Link  301 at Wed Aug 26 23:13:59 2020, MaxMem=  2097152000 cpu:         0.5
 (Enter /opt/cluster/programs/g09/g09_d.01/g09/l302.exe)
 NPDir=0 NMtPBC=     1 NCelOv=     1 NCel=       1 NClECP=     1 NCelD=      1
         NCelK=      1 NCelE2=     1 NClLst=     1 CellRange=     0.0.
 One-electron integrals computed using PRISM.
   1 Symmetry operations used in ECPInt.
 ECPInt:  NShTT=    3321 NPrTT=    8136 LenC2=    3291 LenP2D=    7122.
 LDataN:  DoStor=T MaxTD1= 8 Len=  415
 NBasis=   261 RedAO= T EigKep=  8.29D-05  NBF=   261
 NBsUse=   261 1.00D-06 EigRej= -1.00D+00 NBFU=   261
 Precomputing XC quadrature grid using
 IXCGrd= 4 IRadAn=           0 IRanWt=          -1 IRanGd=           0 AccXCQ= 0.00D+00.
 Generated NRdTot=       0 NPtTot=           0 NUsed=           0 NTot=          32
 NSgBfM=   321   321   321   321   321 MxSgAt=     6 MxSgA2=     6.
 Leave Link  302 at Wed Aug 26 23:14:00 2020, MaxMem=  2097152000 cpu:         3.5
 (Enter /opt/cluster/programs/g09/g09_d.01/g09/l303.exe)
 DipDrv:  MaxL=1.
 Leave Link  303 at Wed Aug 26 23:14:00 2020, MaxMem=  2097152000 cpu:         0.3
 (Enter /opt/cluster/programs/g09/g09_d.01/g09/l401.exe)
 ExpMin= 7.60D-02 ExpMax= 9.07D+04 ExpMxC= 8.76D+02 IAcc=2 IRadAn=         4 AccDes= 0.00D+00
 Harris functional with IExCor=  419 and IRadAn=       4 diagonalized for initial guess.
 HarFok:  IExCor=  419 AccDes= 0.00D+00 IRadAn=         4 IDoV= 1 UseB2=F ITyADJ=14
 ICtDFT=  3500011 ScaDFX=  1.000000  1.000000  1.000000  1.000000
 FoFCou: FMM=F IPFlag=           0 FMFlag=      100000 FMFlg1=           0
         NFxFlg=           0 DoJE=T BraDBF=F KetDBF=T FulRan=T
         wScrn=  0.000000 ICntrl=     500 IOpCl=  0 I1Cent=   200000004 NGrid=           0
         NMat0=    1 NMatS0=      1 NMatT0=    0 NMatD0=    1 NMtDS0=    0 NMtDT0=    0
 Petite list used in FoFCou.
 Harris En= -132.849823332094    
 JPrj=0 DoOrth=F DoCkMO=F.
 Leave Link  401 at Wed Aug 26 23:14:07 2020, MaxMem=  2097152000 cpu:         4.1
 (Enter /opt/cluster/programs/g09/g09_d.01/g09/l502.exe)
 Closed shell SCF:
 Using DIIS extrapolation, IDIIS=  1040.
 Integral symmetry usage will be decided dynamically.
 Keep R1 ints in memory in canonical form, NReq=601554820.
 IVT=      332521 IEndB=      332521 NGot=  2097152000 MDV=  1512290144
 LenX=  1512290144 LenY=  1512186662
 Requested convergence on RMS density matrix=1.00D-08 within 128 cycles.
 Requested convergence on MAX density matrix=1.00D-06.
 Requested convergence on             energy=1.00D-06.
 No special actions if energy rises.
 FoFCou: FMM=F IPFlag=           0 FMFlag=           0 FMFlg1=           0
         NFxFlg=           0 DoJE=F BraDBF=F KetDBF=F FulRan=T
         wScrn=  0.000000 ICntrl=     600 IOpCl=  0 I1Cent=           0 NGrid=           0
         NMat0=    1 NMatS0=  34191 NMatT0=    0 NMatD0=    1 NMtDS0=    0 NMtDT0=    0
 Symmetry not used in FoFCou.
 Integral accuracy reduced to 1.0D-05 until final iterations.

 Cycle   1  Pass 0  IDiag  1:
 E= -132.420804841435    
 DIIS: error= 2.66D-02 at cycle   1 NSaved=   1.
 NSaved= 1 IEnMin= 1 EnMin= -132.420804841435     IErMin= 1 ErrMin= 2.66D-02
 ErrMax= 2.66D-02  0.00D+00 EMaxC= 1.00D-01 BMatC= 1.88D-01 BMatP= 1.88D-01
 IDIUse=3 WtCom= 7.34D-01 WtEn= 2.66D-01
 Coeff-Com:  0.100D+01
 Coeff-En:   0.100D+01
 Coeff:      0.100D+01
 Gap=     0.455 Goal=   None    Shift=    0.000
 GapD=    0.455 DampG=2.000 DampE=0.500 DampFc=1.0000 IDamp=-1.
 RMSDP=1.27D-03 MaxDP=6.55D-02              OVMax= 1.64D-01

 Cycle   2  Pass 0  IDiag  1:
 E= -132.452209788581     Delta-E=       -0.031404947146 Rises=F Damp=F
 DIIS: error= 3.39D-02 at cycle   2 NSaved=   2.
 NSaved= 2 IEnMin= 2 EnMin= -132.452209788581     IErMin= 1 ErrMin= 2.66D-02
 ErrMax= 3.39D-02  0.00D+00 EMaxC= 1.00D-01 BMatC= 9.55D-02 BMatP= 1.88D-01
 IDIUse=3 WtCom= 6.61D-01 WtEn= 3.39D-01
 Coeff-Com:  0.399D+00 0.601D+00
 Coeff-En:   0.402D+00 0.598D+00
 Coeff:      0.400D+00 0.600D+00
 Gap=     0.432 Goal=   None    Shift=    0.000
 RMSDP=8.40D-04 MaxDP=3.29D-02 DE=-3.14D-02 OVMax= 1.24D-01

 Cycle   3  Pass 0  IDiag  1:
 E= -132.516345226978     Delta-E=       -0.064135438397 Rises=F Damp=F
 DIIS: error= 1.60D-02 at cycle   3 NSaved=   3.
 NSaved= 3 IEnMin= 3 EnMin= -132.516345226978     IErMin= 3 ErrMin= 1.60D-02
 ErrMax= 1.60D-02  0.00D+00 EMaxC= 1.00D-01 BMatC= 2.05D-02 BMatP= 9.55D-02
 IDIUse=3 WtCom= 8.40D-01 WtEn= 1.60D-01
 Coeff-Com:  0.971D-01 0.327D+00 0.576D+00
 Coeff-En:   0.000D+00 0.135D+00 0.865D+00
 Coeff:      0.815D-01 0.296D+00 0.622D+00
 Gap=     0.425 Goal=   None    Shift=    0.000
 RMSDP=2.75D-04 MaxDP=9.95D-03 DE=-6.41D-02 OVMax= 6.09D-02

 Cycle   4  Pass 0  IDiag  1:
 E= -132.530373056177     Delta-E=       -0.014027829199 Rises=F Damp=F
 DIIS: error= 5.95D-03 at cycle   4 NSaved=   4.
 NSaved= 4 IEnMin= 4 EnMin= -132.530373056177     IErMin= 4 ErrMin= 5.95D-03
 ErrMax= 5.95D-03  0.00D+00 EMaxC= 1.00D-01 BMatC= 3.26D-03 BMatP= 2.05D-02
 IDIUse=3 WtCom= 9.41D-01 WtEn= 5.95D-02
 Coeff-Com: -0.125D-01 0.537D-01 0.332D+00 0.627D+00
 Coeff-En:   0.000D+00 0.000D+00 0.151D+00 0.849D+00
 Coeff:     -0.118D-01 0.505D-01 0.321D+00 0.640D+00
 Gap=     0.425 Goal=   None    Shift=    0.000
 RMSDP=9.43D-05 MaxDP=2.82D-03 DE=-1.40D-02 OVMax= 1.65D-02

 Cycle   5  Pass 0  IDiag  1:
 E= -132.533192334871     Delta-E=       -0.002819278693 Rises=F Damp=F
 DIIS: error= 3.53D-04 at cycle   5 NSaved=   5.
 NSaved= 5 IEnMin= 5 EnMin= -132.533192334871     IErMin= 5 ErrMin= 3.53D-04
 ErrMax= 3.53D-04  0.00D+00 EMaxC= 1.00D-01 BMatC= 1.56D-05 BMatP= 3.26D-03
 IDIUse=3 WtCom= 9.96D-01 WtEn= 3.53D-03
 Coeff-Com: -0.351D-02 0.532D-02 0.483D-01 0.142D+00 0.808D+00
 Coeff-En:   0.000D+00 0.000D+00 0.000D+00 0.000D+00 0.100D+01
 Coeff:     -0.350D-02 0.530D-02 0.481D-01 0.142D+00 0.808D+00
 Gap=     0.425 Goal=   None    Shift=    0.000
 RMSDP=8.45D-06 MaxDP=3.05D-04 DE=-2.82D-03 OVMax= 1.29D-03

 Initial convergence to 1.0D-05 achieved.  Increase integral accuracy.
 Cycle   6  Pass 1  IDiag  1:
 E= -132.533203589889     Delta-E=       -0.000011255019 Rises=F Damp=F
 DIIS: error= 9.64D-05 at cycle   1 NSaved=   1.
 NSaved= 1 IEnMin= 1 EnMin= -132.533203589889     IErMin= 1 ErrMin= 9.64D-05
 ErrMax= 9.64D-05  0.00D+00 EMaxC= 1.00D-01 BMatC= 6.62D-07 BMatP= 6.62D-07
 IDIUse=1 WtCom= 1.00D+00 WtEn= 0.00D+00
 Coeff-Com:  0.100D+01
 Coeff:      0.100D+01
 Gap=     0.425 Goal=   None    Shift=    0.000
 RMSDP=8.45D-06 MaxDP=3.05D-04 DE=-1.13D-05 OVMax= 4.18D-04

 Cycle   7  Pass 1  IDiag  1:
 E= -132.533203982294     Delta-E=       -0.000000392405 Rises=F Damp=F
 DIIS: error= 5.15D-05 at cycle   2 NSaved=   2.
 NSaved= 2 IEnMin= 2 EnMin= -132.533203982294     IErMin= 2 ErrMin= 5.15D-05
 ErrMax= 5.15D-05  0.00D+00 EMaxC= 1.00D-01 BMatC= 3.04D-07 BMatP= 6.62D-07
 IDIUse=1 WtCom= 1.00D+00 WtEn= 0.00D+00
 Coeff-Com:  0.395D+00 0.605D+00
 Coeff:      0.395D+00 0.605D+00
 Gap=     0.425 Goal=   None    Shift=    0.000
 RMSDP=1.04D-06 MaxDP=3.79D-05 DE=-3.92D-07 OVMax= 1.80D-04

 Cycle   8  Pass 1  IDiag  1:
 E= -132.533204244856     Delta-E=       -0.000000262562 Rises=F Damp=F
 DIIS: error= 1.68D-05 at cycle   3 NSaved=   3.
 NSaved= 3 IEnMin= 3 EnMin= -132.533204244856     IErMin= 3 ErrMin= 1.68D-05
 ErrMax= 1.68D-05  0.00D+00 EMaxC= 1.00D-01 BMatC= 2.44D-08 BMatP= 3.04D-07
 IDIUse=1 WtCom= 1.00D+00 WtEn= 0.00D+00
 Coeff-Com:  0.119D+00 0.262D+00 0.620D+00
 Coeff:      0.119D+00 0.262D+00 0.620D+00
 Gap=     0.425 Goal=   None    Shift=    0.000
 RMSDP=5.64D-07 MaxDP=2.50D-05 DE=-2.63D-07 OVMax= 6.11D-05

 Cycle   9  Pass 1  IDiag  1:
 E= -132.533204260268     Delta-E=       -0.000000015411 Rises=F Damp=F
 DIIS: error= 1.14D-05 at cycle   4 NSaved=   4.
 NSaved= 4 IEnMin= 4 EnMin= -132.533204260268     IErMin= 4 ErrMin= 1.14D-05
 ErrMax= 1.14D-05  0.00D+00 EMaxC= 1.00D-01 BMatC= 6.89D-09 BMatP= 2.44D-08
 IDIUse=1 WtCom= 1.00D+00 WtEn= 0.00D+00
 Coeff-Com: -0.596D-01-0.352D-01 0.373D+00 0.722D+00
 Coeff:     -0.596D-01-0.352D-01 0.373D+00 0.722D+00
 Gap=     0.425 Goal=   None    Shift=    0.000
 RMSDP=3.00D-07 MaxDP=1.39D-05 DE=-1.54D-08 OVMax= 3.48D-05

 Cycle  10  Pass 1  IDiag  1:
 E= -132.533204266890     Delta-E=       -0.000000006622 Rises=F Damp=F
 DIIS: error= 1.07D-06 at cycle   5 NSaved=   5.
 NSaved= 5 IEnMin= 5 EnMin= -132.533204266890     IErMin= 5 ErrMin= 1.07D-06
 ErrMax= 1.07D-06  0.00D+00 EMaxC= 1.00D-01 BMatC= 1.03D-10 BMatP= 6.89D-09
 IDIUse=1 WtCom= 1.00D+00 WtEn= 0.00D+00
 Coeff-Com: -0.219D-01-0.202D-01 0.765D-01 0.214D+00 0.752D+00
 Coeff:     -0.219D-01-0.202D-01 0.765D-01 0.214D+00 0.752D+00
 Gap=     0.425 Goal=   None    Shift=    0.000
 RMSDP=4.34D-08 MaxDP=2.07D-06 DE=-6.62D-09 OVMax= 3.44D-06

 Cycle  11  Pass 1  IDiag  1:
 E= -132.533204266984     Delta-E=       -0.000000000094 Rises=F Damp=F
 DIIS: error= 2.11D-07 at cycle   6 NSaved=   6.
 NSaved= 6 IEnMin= 6 EnMin= -132.533204266984     IErMin= 6 ErrMin= 2.11D-07
 ErrMax= 2.11D-07  0.00D+00 EMaxC= 1.00D-01 BMatC= 5.69D-12 BMatP= 1.03D-10
 IDIUse=1 WtCom= 1.00D+00 WtEn= 0.00D+00
 Coeff-Com:  0.250D-02 0.437D-03-0.280D-01-0.272D-01 0.120D+00 0.933D+00
 Coeff:      0.250D-02 0.437D-03-0.280D-01-0.272D-01 0.120D+00 0.933D+00
 Gap=     0.425 Goal=   None    Shift=    0.000
 RMSDP=1.01D-08 MaxDP=4.06D-07 DE=-9.42D-11 OVMax= 1.09D-06

 Cycle  12  Pass 1  IDiag  1:
 E= -132.533204266994     Delta-E=       -0.000000000010 Rises=F Damp=F
 DIIS: error= 5.53D-08 at cycle   7 NSaved=   7.
 NSaved= 7 IEnMin= 7 EnMin= -132.533204266994     IErMin= 7 ErrMin= 5.53D-08
 ErrMax= 5.53D-08  0.00D+00 EMaxC= 1.00D-01 BMatC= 1.89D-13 BMatP= 5.69D-12
 IDIUse=1 WtCom= 1.00D+00 WtEn= 0.00D+00
 Coeff-Com:  0.516D-03 0.682D-03-0.171D-03-0.253D-02-0.366D-01-0.100D+00
 Coeff-Com:  0.114D+01
 Coeff:      0.516D-03 0.682D-03-0.171D-03-0.253D-02-0.366D-01-0.100D+00
 Coeff:      0.114D+01
 Gap=     0.425 Goal=   None    Shift=    0.000
 RMSDP=2.33D-09 MaxDP=7.47D-08 DE=-1.00D-11 OVMax= 4.74D-07

 SCF Done:  E(RB2PLYPD3) =  -132.533204267     A.U. after   12 cycles
            NFock= 12  Conv=0.23D-08     -V/T= 2.0038
 KE= 1.320253187082D+02 PE=-4.253609883762D+02 EE= 1.024107516915D+02
 Leave Link  502 at Wed Aug 26 23:15:24 2020, MaxMem=  2097152000 cpu:       445.0
 (Enter /opt/cluster/programs/g09/g09_d.01/g09/l801.exe)
 DoSCS=T DFT=T ScalE2(SS,OS)=  0.270000  0.270000
 ExpMin= 7.60D-02 ExpMax= 9.07D+04 ExpMxC= 8.76D+02 IAcc=3 IRadAn=         5 AccDes= 0.00D+00
 HarFok:  IExCor=  205 AccDes= 0.00D+00 IRadAn=         5 IDoV=-2 UseB2=F ITyADJ=14
 ICtDFT= 12500011 ScaDFX=  1.000000  1.000000  1.000000  1.000000
 Largest valence mixing into a core orbital is  1.17D-04
 Largest core mixing into a valence orbital is  1.97D-05
 Range of M.O.s used for correlation:     4   261
 NBasis=   261 NAE=    11 NBE=    11 NFC=     3 NFV=     0
 NROrb=    258 NOA=     8 NOB=     8 NVA=   250 NVB=   250

 **** Warning!!: The largest alpha MO coefficient is  0.29031174D+02

 Leave Link  801 at Wed Aug 26 23:15:49 2020, MaxMem=  2097152000 cpu:         0.6
 (Enter /opt/cluster/programs/g09/g09_d.01/g09/l906.exe)
 DoSCS=T DFT=T ScalE2(SS,OS)=  0.270000  0.270000
 FulOut=F Deriv=F AODrv=F NAtomX=     6
   MMem=        2666  MDisk=           8 MDiskD=           8
  W3Min=      642000 MinDsk=     1426009 NBas6D=         321
 NBas2D=       52689    NTT=       51681    LW2=     4508827
    MDV=  2096809485 MDiskM=       14501 NBas2p=       52125
 Fully direct method using O(OVN) memory.
 IMap=   1   2   3   4   5   6   7   8
 JobTyp=1 Pass  1:  I=   1 to   8 NPSUse=  8 ParTrn=T ParDer=T DoDerP=F.
 Spin components of T(2) and E(2):
     alpha-alpha T2 =       0.3617266981D-01 E2=     -0.2152470160D-01
     alpha-beta  T2 =       0.2108980908D+00 E2=     -0.1380857442D+00
     beta-beta   T2 =       0.3617266981D-01 E2=     -0.2152470160D-01
 The integrals were generated   1 times.
 E2(B2PLYPD3) =    -0.1811351474D+00 E(B2PLYPD3) =    -0.13271433941443D+03
 Leave Link  906 at Wed Aug 26 23:16:06 2020, MaxMem=  2097152000 cpu:        92.6
 (Enter /opt/cluster/programs/g09/g09_d.01/g09/l601.exe)
 Copying SCF densities to generalized density rwf, IOpCl= 0 IROHF=0.

 **********************************************************************

            Population analysis using the SCF density.

 **********************************************************************

 Orbital symmetries:
       Occupied  (A) (A) (A) (A) (A) (A) (A) (A) (A) (A) (A)
       Virtual   (A) (A) (A) (A) (A) (A) (A) (A) (A) (A) (A) (A)
                 (A) (A) (A) (A) (A) (A) (A) (A) (A) (A) (A) (A)
                 (A) (A) (A) (A) (A) (A) (A) (A) (A) (A) (A) (A)
                 (A) (A) (A) (A) (A) (A) (A) (A) (A) (A) (A) (A)
                 (A) (A) (A) (A) (A) (A) (A) (A) (A) (A) (A) (A)
                 (A) (A) (A) (A) (A) (A) (A) (A) (A) (A) (A) (A)
                 (A) (A) (A) (A) (A) (A) (A) (A) (A) (A) (A) (A)
                 (A) (A) (A) (A) (A) (A) (A) (A) (A) (A) (A) (A)
                 (A) (A) (A) (A) (A) (A) (A) (A) (A) (A) (A) (A)
                 (A) (A) (A) (A) (A) (A) (A) (A) (A) (A) (A) (A)
                 (A) (A) (A) (A) (A) (A) (A) (A) (A) (A) (A) (A)
                 (A) (A) (A) (A) (A) (A) (A) (A) (A) (A) (A) (A)
                 (A) (A) (A) (A) (A) (A) (A) (A) (A) (A) (A) (A)
                 (A) (A) (A) (A) (A) (A) (A) (A) (A) (A) (A) (A)
                 (A) (A) (A) (A) (A) (A) (A) (A) (A) (A) (A) (A)
                 (A) (A) (A) (A) (A) (A) (A) (A) (A) (A) (A) (A)
                 (A) (A) (A) (A) (A) (A) (A) (A) (A) (A) (A) (A)
                 (A) (A) (A) (A) (A) (A) (A) (A) (A) (A) (A) (A)
                 (A) (A) (A) (A) (A) (A) (A) (A) (A) (A) (A) (A)
                 (A) (A) (A) (A) (A) (A) (A) (A) (A) (A) (A) (A)
                 (A) (A) (A) (A) (A) (A) (A) (A) (A) (A)
 The electronic state is 1-A.
 Alpha  occ. eigenvalues --  -14.84435 -10.67066 -10.66514  -1.03821  -0.89306
 Alpha  occ. eigenvalues --   -0.59936  -0.54898  -0.52985  -0.44834  -0.39024
 Alpha  occ. eigenvalues --   -0.38763
 Alpha virt. eigenvalues --    0.03732   0.07524   0.08058   0.10137   0.11193
 Alpha virt. eigenvalues --    0.11542   0.15378   0.16049   0.16651   0.20063
 Alpha virt. eigenvalues --    0.20181   0.25340   0.32579   0.34040   0.35270
 Alpha virt. eigenvalues --    0.38810   0.39652   0.40158   0.40345   0.47370
 Alpha virt. eigenvalues --    0.50226   0.51918   0.58448   0.59953   0.61367
 Alpha virt. eigenvalues --    0.66905   0.67870   0.69405   0.70053   0.79100
 Alpha virt. eigenvalues --    0.79560   0.82146   0.82626   0.83569   0.86523
 Alpha virt. eigenvalues --    0.91598   0.93366   0.95127   0.96273   0.97244
 Alpha virt. eigenvalues --    1.05471   1.07126   1.09024   1.11822   1.12953
 Alpha virt. eigenvalues --    1.14253   1.22250   1.22762   1.23714   1.35021
 Alpha virt. eigenvalues --    1.35513   1.45120   1.47126   1.49118   1.54431
 Alpha virt. eigenvalues --    1.65029   1.66535   1.70376   1.74340   1.77953
 Alpha virt. eigenvalues --    1.78229   1.79295   1.88930   1.91326   1.92244
 Alpha virt. eigenvalues --    1.94134   1.99326   1.99837   2.01089   2.03518
 Alpha virt. eigenvalues --    2.06131   2.11982   2.14791   2.19940   2.21484
 Alpha virt. eigenvalues --    2.22774   2.24059   2.25468   2.33829   2.36201
 Alpha virt. eigenvalues --    2.43022   2.49870   2.51755   2.56280   2.58088
 Alpha virt. eigenvalues --    2.60948   2.66685   2.69533   2.70896   2.72818
 Alpha virt. eigenvalues --    2.76425   2.78193   2.85822   2.89589   2.91030
 Alpha virt. eigenvalues --    2.92040   2.94708   2.95758   2.97727   3.08229
 Alpha virt. eigenvalues --    3.09740   3.12249   3.21167   3.27315   3.32921
 Alpha virt. eigenvalues --    3.33027   3.38811   3.39294   3.41196   3.48338
 Alpha virt. eigenvalues --    3.54098   3.56482   3.71695   3.72422   3.76384
 Alpha virt. eigenvalues --    3.88119   3.90987   3.93618   3.96362   3.99070
 Alpha virt. eigenvalues --    4.00330   4.05185   4.06246   4.25131   4.25761
 Alpha virt. eigenvalues --    4.54707   4.91036   4.91141   5.06487   5.08444
 Alpha virt. eigenvalues --    5.10531   5.16221   5.18913   5.20961   5.23805
 Alpha virt. eigenvalues --    5.31956   5.44594   5.46323   5.46942   5.64651
 Alpha virt. eigenvalues --    5.66450   5.85131   5.85859   5.90685   5.93170
 Alpha virt. eigenvalues --    5.94459   5.97578   5.99501   6.01492   6.01926
 Alpha virt. eigenvalues --    6.03553   6.05196   6.07306   6.08344   6.13093
 Alpha virt. eigenvalues --    6.18294   6.20192   6.23688   6.27849   6.32225
 Alpha virt. eigenvalues --    6.40107   6.42094   6.50391   6.58942   6.60078
 Alpha virt. eigenvalues --    6.62646   6.64899   6.86917   6.91506   6.93268
 Alpha virt. eigenvalues --    6.97213   7.02507   7.02522   7.09190   7.10468
 Alpha virt. eigenvalues --    7.13596   7.17265   7.22917   7.46057   7.47867
 Alpha virt. eigenvalues --    7.50114   7.53486   7.57669   7.59802   7.61391
 Alpha virt. eigenvalues --    7.65099   7.72428   7.76646   7.81964   7.83669
 Alpha virt. eigenvalues --    7.87340   7.94214   7.96462   8.01579   8.26097
 Alpha virt. eigenvalues --    8.27902   8.36603   8.41878   8.43329   8.45327
 Alpha virt. eigenvalues --    8.46279   8.50316   8.50868   8.54453   8.59099
 Alpha virt. eigenvalues --    8.61812   8.63399   8.66385   8.66696   8.67344
 Alpha virt. eigenvalues --    8.70424   8.81283   8.84518   8.92006   9.00774
 Alpha virt. eigenvalues --    9.04710   9.08691   9.12627   9.13958   9.18439
 Alpha virt. eigenvalues --    9.25231   9.28567   9.70817   9.73268   9.81475
 Alpha virt. eigenvalues --    9.84932   9.91093   9.94482  10.00431  10.09852
 Alpha virt. eigenvalues --   10.13486  10.15048  10.22908  10.33126  10.44377
 Alpha virt. eigenvalues --   10.54219  10.72611  11.36794  11.64678  11.82981
 Alpha virt. eigenvalues --   11.96922  12.02113  13.10505  13.53176  29.19422
 Alpha virt. eigenvalues --   29.54823  38.29846 148.85228 149.17437 198.21359
          Condensed to atoms (all electrons):
               1          2          3          4          5          6
     1  C    4.601877   0.300438  -0.059005   0.412713   0.415499   0.409268
     2  C    0.300438   4.846475   0.981559  -0.045945  -0.041007  -0.041933
     3  N   -0.059005   0.981559   6.289532  -0.000236  -0.000994  -0.001179
     4  H    0.412713  -0.045945  -0.000236   0.592875  -0.029478  -0.029038
     5  H    0.415499  -0.041007  -0.000994  -0.029478   0.588561  -0.032180
     6  H    0.409268  -0.041933  -0.001179  -0.029038  -0.032180   0.603713
 Mulliken charges:
               1
     1  C   -0.080790
     2  C    0.000412
     3  N   -0.209677
     4  H    0.099108
     5  H    0.099599
     6  H    0.091348
 Sum of Mulliken charges =   0.00000
 Mulliken charges with hydrogens summed into heavy atoms:
               1
     1  C    0.209265
     2  C    0.000412
     3  N   -0.209677
 Electronic spatial extent (au):  <R**2>=            162.4121
 Charge=              0.0000 electrons
 Dipole moment (field-independent basis, Debye):
    X=              4.1407    Y=              0.0094    Z=              0.0061  Tot=              4.1407
 Quadrupole moment (field-independent basis, Debye-Ang):
   XX=            -20.9762   YY=            -17.7084   ZZ=            -17.8592
   XY=             -0.1286   XZ=              0.0050   YZ=              0.0597
 Traceless Quadrupole moment (field-independent basis, Debye-Ang):
   XX=             -2.1282   YY=              1.1395   ZZ=              0.9888
   XY=             -0.1286   XZ=              0.0050   YZ=              0.0597
 Octapole moment (field-independent basis, Debye-Ang**2):
  XXX=             13.0195  YYY=              0.7422  ZZZ=             -0.1253  XYY=              2.3584
  XXY=             -0.2352  XXZ=             -0.0480  XZZ=              2.1817  YZZ=             -0.7961
  YYZ=              0.0431  XYZ=              0.0798
 Hexadecapole moment (field-independent basis, Debye-Ang**3):
 XXXX=           -182.8288 YYYY=            -24.6814 ZZZZ=            -24.7854 XXXY=             -0.6755
 XXXZ=             -0.2077 YYYX=              1.2695 YYYZ=              0.1834 ZZZX=             -0.1375
 ZZZY=              0.0592 XXYY=            -31.1845 XXZZ=            -31.3373 YYZZ=             -8.1874
 XXYZ=              0.1688 YYXZ=              0.0964 ZZXY=             -1.3436
 N-N= 5.839171370950D+01 E-N=-4.253609891513D+02  KE= 1.320253187082D+02
 Leave Link  601 at Wed Aug 26 23:16:09 2020, MaxMem=  2097152000 cpu:         0.3
 (Enter /opt/cluster/programs/g09/g09_d.01/g09/l9999.exe)
 1\1\GINC-NODE33\SP\RB2PLYPD3-FC\def2QZVP\C2H3N1\BOITTIER\26-Aug-2020\0
 \\#p B2PLYPD3/Def2QZVP\\cyanomethane\\0,1\C,0,-6.599856,-1.124675,1.16
 2569\C,0,-5.200364,-0.784671,0.92915\N,0,-4.089557,-0.539896,0.690417\
 H,0,-6.756599,-1.181936,2.225193\H,0,-6.888182,-2.014357,0.663041\H,0,
 -7.262169,-0.313606,0.759248\\Version=ES64L-G09RevD.01\State=1-A\HF=-1
 32.5332043\MP2=-132.7143394\RMSD=2.333e-09\PG=C01 [X(C2H3N1)]\\@


 KEEP CLOSE TO NATURES HEART, YOURSELF;
 AND BREAK CLEAR AWAY, ONCE IN A WHILE, AND
 CLIMB A MOUNTAIN OR SPEND A WEEK IN THE
 WOODS.  WASH YOUR SPIRIT CLEAN...
                                         -- JOHN MUIR
 Job cpu time:       0 days  0 hours  9 minutes 21.3 seconds.
 File lengths (MBytes):  RWF=     28 Int=      0 D2E=      0 Chk=      5 Scr=      1
 Normal termination of Gaussian 09 at Wed Aug 26 23:16:35 2020.
