 Entering Gaussian System, Link 0=/opt/cluster/programs/g09/g09_d.01/g09//g09
 Input=/home/boittier/MDCM/nms_sampling/cyanomethane_geom.xyz.dir/energies/cyanomethane_1076_energy.com
 Output=/scratch/boittier/cyanomethane_1076_energy/cyanomethane_1076_energy.out
 Initial command:
 /opt/cluster/programs/g09/g09_d.01/g09/l1.exe "/scratch/boittier/cyanomethane_1076_energy/Gau-160919.inp" -scrdir="/scratch/boittier/cyanomethane_1076_energy/"
 Entering Link 1 = /opt/cluster/programs/g09/g09_d.01/g09/l1.exe PID=    160920.
  
 Copyright (c) 1988,1990,1992,1993,1995,1998,2003,2009,2013,
            Gaussian, Inc.  All Rights Reserved.
  
 This is part of the Gaussian(R) 09 program.  It is based on
 the Gaussian(R) 03 system (copyright 2003, Gaussian, Inc.),
 the Gaussian(R) 98 system (copyright 1998, Gaussian, Inc.),
 the Gaussian(R) 94 system (copyright 1995, Gaussian, Inc.),
 the Gaussian 92(TM) system (copyright 1992, Gaussian, Inc.),
 the Gaussian 90(TM) system (copyright 1990, Gaussian, Inc.),
 the Gaussian 88(TM) system (copyright 1988, Gaussian, Inc.),
 the Gaussian 86(TM) system (copyright 1986, Carnegie Mellon
 University), and the Gaussian 82(TM) system (copyright 1983,
 Carnegie Mellon University). Gaussian is a federally registered
 trademark of Gaussian, Inc.
  
 This software contains proprietary and confidential information,
 including trade secrets, belonging to Gaussian, Inc.
  
 This software is provided under written license and may be
 used, copied, transmitted, or stored only in accord with that
 written license.
  
 The following legend is applicable only to US Government
 contracts under FAR:
  
                    RESTRICTED RIGHTS LEGEND
  
 Use, reproduction and disclosure by the US Government is
 subject to restrictions as set forth in subparagraphs (a)
 and (c) of the Commercial Computer Software - Restricted
 Rights clause in FAR 52.227-19.
  
 Gaussian, Inc.
 340 Quinnipiac St., Bldg. 40, Wallingford CT 06492
  
  
 ---------------------------------------------------------------
 Warning -- This program may not be used in any manner that
 competes with the business of Gaussian, Inc. or will provide
 assistance to any competitor of Gaussian, Inc.  The licensee
 of this program is prohibited from giving any competitor of
 Gaussian, Inc. access to this program.  By using this program,
 the user acknowledges that Gaussian, Inc. is engaged in the
 business of creating and licensing software in the field of
 computational chemistry and represents and warrants to the
 licensee that it is not a competitor of Gaussian, Inc. and that
 it will not use this program in any manner prohibited above.
 ---------------------------------------------------------------
  

 Cite this work as:
 Gaussian 09, Revision D.01,
 M. J. Frisch, G. W. Trucks, H. B. Schlegel, G. E. Scuseria, 
 M. A. Robb, J. R. Cheeseman, G. Scalmani, V. Barone, B. Mennucci, 
 G. A. Petersson, H. Nakatsuji, M. Caricato, X. Li, H. P. Hratchian, 
 A. F. Izmaylov, J. Bloino, G. Zheng, J. L. Sonnenberg, M. Hada, 
 M. Ehara, K. Toyota, R. Fukuda, J. Hasegawa, M. Ishida, T. Nakajima, 
 Y. Honda, O. Kitao, H. Nakai, T. Vreven, J. A. Montgomery, Jr., 
 J. E. Peralta, F. Ogliaro, M. Bearpark, J. J. Heyd, E. Brothers, 
 K. N. Kudin, V. N. Staroverov, T. Keith, R. Kobayashi, J. Normand, 
 K. Raghavachari, A. Rendell, J. C. Burant, S. S. Iyengar, J. Tomasi, 
 M. Cossi, N. Rega, J. M. Millam, M. Klene, J. E. Knox, J. B. Cross, 
 V. Bakken, C. Adamo, J. Jaramillo, R. Gomperts, R. E. Stratmann, 
 O. Yazyev, A. J. Austin, R. Cammi, C. Pomelli, J. W. Ochterski, 
 R. L. Martin, K. Morokuma, V. G. Zakrzewski, G. A. Voth, 
 P. Salvador, J. J. Dannenberg, S. Dapprich, A. D. Daniels, 
 O. Farkas, J. B. Foresman, J. V. Ortiz, J. Cioslowski, 
 and D. J. Fox, Gaussian, Inc., Wallingford CT, 2013.
 
 ******************************************
 Gaussian 09:  ES64L-G09RevD.01 24-Apr-2013
                26-Aug-2020 
 ******************************************
 %chk=/home/boittier/MDCM/nms_sampling/cyanomethane_geom.xyz.dir/cyanomethane_107
 6.chk
 %nproc=8
 Will use up to    8 processors via shared memory.
 %mem=16000MB
 --------------------
 #p B2PLYPD3/Def2QZVP
 --------------------
 1/38=1/1;
 2/12=2,17=6,18=5,40=1/2;
 3/5=45,7=101,11=9,16=1,25=1,30=1,74=-60/1,2,3;
 4//1;
 5/5=2,38=5/2;
 8/10=1/1;
 9/16=-3/6;
 6/7=2,8=2,9=2,10=2/1;
 99/5=1,9=1/99;
 Leave Link    1 at Wed Aug 26 09:50:30 2020, MaxMem=  2097152000 cpu:         0.2
 (Enter /opt/cluster/programs/g09/g09_d.01/g09/l101.exe)
 ------------
 cyanomethane
 ------------
 Symbolic Z-matrix:
 Charge =  0 Multiplicity = 1
 C                    -6.59346  -1.11916   1.16197 
 C                    -5.2015   -0.77416   0.90373 
 N                    -4.096    -0.54576   0.70454 
 H                    -6.77849  -1.23114   2.24177 
 H                    -6.86813  -2.03149   0.69538 
 H                    -7.23254  -0.35974   0.81161 
 
 NAtoms=      6 NQM=        6 NQMF=       0 NMMI=      0 NMMIF=      0
                NMic=       0 NMicF=      0.
                    Isotopes and Nuclear Properties:
 (Nuclear quadrupole moments (NQMom) in fm**2, nuclear magnetic moments (NMagM)
  in nuclear magnetons)

  Atom         1           2           3           4           5           6
 IAtWgt=          12          12          14           1           1           1
 AtmWgt=  12.0000000  12.0000000  14.0030740   1.0078250   1.0078250   1.0078250
 NucSpn=           0           0           2           1           1           1
 AtZEff=   0.0000000   0.0000000   0.0000000   0.0000000   0.0000000   0.0000000
 NQMom=    0.0000000   0.0000000   2.0440000   0.0000000   0.0000000   0.0000000
 NMagM=    0.0000000   0.0000000   0.4037610   2.7928460   2.7928460   2.7928460
 AtZNuc=   6.0000000   6.0000000   7.0000000   1.0000000   1.0000000   1.0000000
 Leave Link  101 at Wed Aug 26 09:50:30 2020, MaxMem=  2097152000 cpu:         0.5
 (Enter /opt/cluster/programs/g09/g09_d.01/g09/l202.exe)
                          Input orientation:                          
 ---------------------------------------------------------------------
 Center     Atomic      Atomic             Coordinates (Angstroms)
 Number     Number       Type             X           Y           Z
 ---------------------------------------------------------------------
      1          6           0       -6.593464   -1.119158    1.161975
      2          6           0       -5.201500   -0.774162    0.903727
      3          7           0       -4.096002   -0.545763    0.704540
      4          1           0       -6.778493   -1.231135    2.241766
      5          1           0       -6.868130   -2.031492    0.695382
      6          1           0       -7.232536   -0.359741    0.811610
 ---------------------------------------------------------------------
                    Distance matrix (angstroms):
                    1          2          3          4          5
     1  C    0.000000
     2  C    1.457147   0.000000
     3  N    2.602949   1.146284   0.000000
     4  H    1.101237   2.118037   3.166790   0.000000
     5  H    1.060898   2.098081   3.145182   1.743534   0.000000
     6  H    1.052560   2.074931   3.143869   1.735174   1.714950
                    6
     6  H    0.000000
 Stoichiometry    C2H3N
 Framework group  C1[X(C2H3N)]
 Deg. of freedom    12
 Full point group                 C1      NOp   1
 Largest Abelian subgroup         C1      NOp   1
 Largest concise Abelian subgroup C1      NOp   1
                         Standard orientation:                         
 ---------------------------------------------------------------------
 Center     Atomic      Atomic             Coordinates (Angstroms)
 Number     Number       Type             X           Y           Z
 ---------------------------------------------------------------------
      1          6           0        1.172880   -0.006694   -0.003278
      2          6           0       -0.284102   -0.002040    0.018169
      3          7           0       -1.430046    0.002496   -0.009387
      4          1           0        1.568762    1.011454   -0.142467
      5          1           0        1.555120   -0.607422   -0.789740
      6          1           0        1.553775   -0.369099    0.908569
 ---------------------------------------------------------------------
 Rotational constants (GHZ):    166.9572322      9.2859322      9.2766456
 Leave Link  202 at Wed Aug 26 09:50:30 2020, MaxMem=  2097152000 cpu:         0.0
 (Enter /opt/cluster/programs/g09/g09_d.01/g09/l301.exe)
 Standard basis: def2QZVP (5D, 7F)
 Ernie: Thresh=  0.10000D-02 Tol=  0.10000D-05 Strict=F.
 There are   321 symmetry adapted cartesian basis functions of A   symmetry.
 There are   261 symmetry adapted basis functions of A   symmetry.
   261 basis functions,   390 primitive gaussians,   321 cartesian basis functions
    11 alpha electrons       11 beta electrons
       nuclear repulsion energy        58.8792694080 Hartrees.
 IExCor=  419 DFT=T Ex+Corr=B2PLYPD3 ExCW=0 ScaHFX=  0.530000
 ScaDFX=  0.470000  0.470000  0.730000  0.730000 ScalE2=  0.270000  0.270000
 IRadAn=      0 IRanWt=     -1 IRanGd=            0 ICorTp=0 IEmpDi=141
 NAtoms=    6 NActive=    6 NUniq=    6 SFac= 1.00D+00 NAtFMM=   60 NAOKFM=F Big=F
 Integral buffers will be    131072 words long.
 Regular integral format.
 Two-electron integral symmetry is turned on.
 R6Disp:  Grimme-D3(BJ) Dispersion energy=       -0.0021042270 Hartrees.
 Nuclear repulsion after empirical dispersion term =       58.8771651810 Hartrees.
 Leave Link  301 at Wed Aug 26 09:50:30 2020, MaxMem=  2097152000 cpu:         0.4
 (Enter /opt/cluster/programs/g09/g09_d.01/g09/l302.exe)
 NPDir=0 NMtPBC=     1 NCelOv=     1 NCel=       1 NClECP=     1 NCelD=      1
         NCelK=      1 NCelE2=     1 NClLst=     1 CellRange=     0.0.
 One-electron integrals computed using PRISM.
   1 Symmetry operations used in ECPInt.
 ECPInt:  NShTT=    3321 NPrTT=    8136 LenC2=    3292 LenP2D=    7125.
 LDataN:  DoStor=T MaxTD1= 8 Len=  415
 NBasis=   261 RedAO= T EigKep=  7.85D-05  NBF=   261
 NBsUse=   261 1.00D-06 EigRej= -1.00D+00 NBFU=   261
 Precomputing XC quadrature grid using
 IXCGrd= 4 IRadAn=           0 IRanWt=          -1 IRanGd=           0 AccXCQ= 0.00D+00.
 Generated NRdTot=       0 NPtTot=           0 NUsed=           0 NTot=          32
 NSgBfM=   321   321   321   321   321 MxSgAt=     6 MxSgA2=     6.
 Leave Link  302 at Wed Aug 26 09:50:31 2020, MaxMem=  2097152000 cpu:         2.3
 (Enter /opt/cluster/programs/g09/g09_d.01/g09/l303.exe)
 DipDrv:  MaxL=1.
 Leave Link  303 at Wed Aug 26 09:50:31 2020, MaxMem=  2097152000 cpu:         0.3
 (Enter /opt/cluster/programs/g09/g09_d.01/g09/l401.exe)
 ExpMin= 7.60D-02 ExpMax= 9.07D+04 ExpMxC= 8.76D+02 IAcc=2 IRadAn=         4 AccDes= 0.00D+00
 Harris functional with IExCor=  419 and IRadAn=       4 diagonalized for initial guess.
 HarFok:  IExCor=  419 AccDes= 0.00D+00 IRadAn=         4 IDoV= 1 UseB2=F ITyADJ=14
 ICtDFT=  3500011 ScaDFX=  1.000000  1.000000  1.000000  1.000000
 FoFCou: FMM=F IPFlag=           0 FMFlag=      100000 FMFlg1=           0
         NFxFlg=           0 DoJE=T BraDBF=F KetDBF=T FulRan=T
         wScrn=  0.000000 ICntrl=     500 IOpCl=  0 I1Cent=   200000004 NGrid=           0
         NMat0=    1 NMatS0=      1 NMatT0=    0 NMatD0=    1 NMtDS0=    0 NMtDT0=    0
 Petite list used in FoFCou.
 Harris En= -132.857025452019    
 JPrj=0 DoOrth=F DoCkMO=F.
 Leave Link  401 at Wed Aug 26 09:50:32 2020, MaxMem=  2097152000 cpu:         4.2
 (Enter /opt/cluster/programs/g09/g09_d.01/g09/l502.exe)
 Closed shell SCF:
 Using DIIS extrapolation, IDIIS=  1040.
 Integral symmetry usage will be decided dynamically.
 Keep R1 ints in memory in canonical form, NReq=601554820.
 IVT=      332521 IEndB=      332521 NGot=  2097152000 MDV=  1512290144
 LenX=  1512290144 LenY=  1512186662
 Requested convergence on RMS density matrix=1.00D-08 within 128 cycles.
 Requested convergence on MAX density matrix=1.00D-06.
 Requested convergence on             energy=1.00D-06.
 No special actions if energy rises.
 FoFCou: FMM=F IPFlag=           0 FMFlag=           0 FMFlg1=           0
         NFxFlg=           0 DoJE=F BraDBF=F KetDBF=F FulRan=T
         wScrn=  0.000000 ICntrl=     600 IOpCl=  0 I1Cent=           0 NGrid=           0
         NMat0=    1 NMatS0=  34191 NMatT0=    0 NMatD0=    1 NMtDS0=    0 NMtDT0=    0
 Symmetry not used in FoFCou.
 Integral accuracy reduced to 1.0D-05 until final iterations.

 Cycle   1  Pass 0  IDiag  1:
 E= -132.416744069542    
 DIIS: error= 3.29D-02 at cycle   1 NSaved=   1.
 NSaved= 1 IEnMin= 1 EnMin= -132.416744069542     IErMin= 1 ErrMin= 3.29D-02
 ErrMax= 3.29D-02  0.00D+00 EMaxC= 1.00D-01 BMatC= 1.96D-01 BMatP= 1.96D-01
 IDIUse=3 WtCom= 6.71D-01 WtEn= 3.29D-01
 Coeff-Com:  0.100D+01
 Coeff-En:   0.100D+01
 Coeff:      0.100D+01
 Gap=     0.466 Goal=   None    Shift=    0.000
 GapD=    0.466 DampG=2.000 DampE=0.500 DampFc=1.0000 IDamp=-1.
 RMSDP=1.30D-03 MaxDP=6.93D-02              OVMax= 1.63D-01

 Cycle   2  Pass 0  IDiag  1:
 E= -132.454725085421     Delta-E=       -0.037981015879 Rises=F Damp=F
 DIIS: error= 3.45D-02 at cycle   2 NSaved=   2.
 NSaved= 2 IEnMin= 2 EnMin= -132.454725085421     IErMin= 1 ErrMin= 3.29D-02
 ErrMax= 3.45D-02  0.00D+00 EMaxC= 1.00D-01 BMatC= 9.52D-02 BMatP= 1.96D-01
 IDIUse=3 WtCom= 6.55D-01 WtEn= 3.45D-01
 Coeff-Com:  0.394D+00 0.606D+00
 Coeff-En:   0.383D+00 0.617D+00
 Coeff:      0.390D+00 0.610D+00
 Gap=     0.440 Goal=   None    Shift=    0.000
 RMSDP=8.45D-04 MaxDP=3.39D-02 DE=-3.80D-02 OVMax= 1.21D-01

 Cycle   3  Pass 0  IDiag  1:
 E= -132.518976836033     Delta-E=       -0.064251750613 Rises=F Damp=F
 DIIS: error= 1.54D-02 at cycle   3 NSaved=   3.
 NSaved= 3 IEnMin= 3 EnMin= -132.518976836033     IErMin= 3 ErrMin= 1.54D-02
 ErrMax= 1.54D-02  0.00D+00 EMaxC= 1.00D-01 BMatC= 1.98D-02 BMatP= 9.52D-02
 IDIUse=3 WtCom= 8.46D-01 WtEn= 1.54D-01
 Coeff-Com:  0.961D-01 0.326D+00 0.578D+00
 Coeff-En:   0.000D+00 0.120D+00 0.880D+00
 Coeff:      0.812D-01 0.294D+00 0.625D+00
 Gap=     0.431 Goal=   None    Shift=    0.000
 RMSDP=2.69D-04 MaxDP=9.88D-03 DE=-6.43D-02 OVMax= 5.93D-02

 Cycle   4  Pass 0  IDiag  1:
 E= -132.532315138344     Delta-E=       -0.013338302311 Rises=F Damp=F
 DIIS: error= 5.81D-03 at cycle   4 NSaved=   4.
 NSaved= 4 IEnMin= 4 EnMin= -132.532315138344     IErMin= 4 ErrMin= 5.81D-03
 ErrMax= 5.81D-03  0.00D+00 EMaxC= 1.00D-01 BMatC= 3.16D-03 BMatP= 1.98D-02
 IDIUse=3 WtCom= 9.42D-01 WtEn= 5.81D-02
 Coeff-Com: -0.121D-01 0.526D-01 0.333D+00 0.627D+00
 Coeff-En:   0.000D+00 0.000D+00 0.150D+00 0.850D+00
 Coeff:     -0.114D-01 0.496D-01 0.322D+00 0.640D+00
 Gap=     0.432 Goal=   None    Shift=    0.000
 RMSDP=9.30D-05 MaxDP=2.82D-03 DE=-1.33D-02 OVMax= 1.62D-02

 Cycle   5  Pass 0  IDiag  1:
 E= -132.535028042424     Delta-E=       -0.002712904080 Rises=F Damp=F
 DIIS: error= 3.33D-04 at cycle   5 NSaved=   5.
 NSaved= 5 IEnMin= 5 EnMin= -132.535028042424     IErMin= 5 ErrMin= 3.33D-04
 ErrMax= 3.33D-04  0.00D+00 EMaxC= 1.00D-01 BMatC= 1.48D-05 BMatP= 3.16D-03
 IDIUse=3 WtCom= 9.97D-01 WtEn= 3.33D-03
 Coeff-Com: -0.334D-02 0.471D-02 0.460D-01 0.138D+00 0.814D+00
 Coeff-En:   0.000D+00 0.000D+00 0.000D+00 0.000D+00 0.100D+01
 Coeff:     -0.333D-02 0.469D-02 0.459D-01 0.138D+00 0.815D+00
 Gap=     0.431 Goal=   None    Shift=    0.000
 RMSDP=8.45D-06 MaxDP=3.22D-04 DE=-2.71D-03 OVMax= 1.23D-03

 Initial convergence to 1.0D-05 achieved.  Increase integral accuracy.
 Cycle   6  Pass 1  IDiag  1:
 E= -132.535044154787     Delta-E=       -0.000016112364 Rises=F Damp=F
 DIIS: error= 9.11D-05 at cycle   1 NSaved=   1.
 NSaved= 1 IEnMin= 1 EnMin= -132.535044154787     IErMin= 1 ErrMin= 9.11D-05
 ErrMax= 9.11D-05  0.00D+00 EMaxC= 1.00D-01 BMatC= 5.74D-07 BMatP= 5.74D-07
 IDIUse=1 WtCom= 1.00D+00 WtEn= 0.00D+00
 Coeff-Com:  0.100D+01
 Coeff:      0.100D+01
 Gap=     0.431 Goal=   None    Shift=    0.000
 RMSDP=8.45D-06 MaxDP=3.22D-04 DE=-1.61D-05 OVMax= 3.90D-04

 Cycle   7  Pass 1  IDiag  1:
 E= -132.535044499837     Delta-E=       -0.000000345049 Rises=F Damp=F
 DIIS: error= 4.52D-05 at cycle   2 NSaved=   2.
 NSaved= 2 IEnMin= 2 EnMin= -132.535044499837     IErMin= 2 ErrMin= 4.52D-05
 ErrMax= 4.52D-05  0.00D+00 EMaxC= 1.00D-01 BMatC= 2.52D-07 BMatP= 5.74D-07
 IDIUse=1 WtCom= 1.00D+00 WtEn= 0.00D+00
 Coeff-Com:  0.390D+00 0.610D+00
 Coeff:      0.390D+00 0.610D+00
 Gap=     0.431 Goal=   None    Shift=    0.000
 RMSDP=9.47D-07 MaxDP=3.65D-05 DE=-3.45D-07 OVMax= 1.62D-04

 Cycle   8  Pass 1  IDiag  1:
 E= -132.535044717386     Delta-E=       -0.000000217549 Rises=F Damp=F
 DIIS: error= 1.58D-05 at cycle   3 NSaved=   3.
 NSaved= 3 IEnMin= 3 EnMin= -132.535044717386     IErMin= 3 ErrMin= 1.58D-05
 ErrMax= 1.58D-05  0.00D+00 EMaxC= 1.00D-01 BMatC= 1.92D-08 BMatP= 2.52D-07
 IDIUse=1 WtCom= 1.00D+00 WtEn= 0.00D+00
 Coeff-Com:  0.101D+00 0.246D+00 0.653D+00
 Coeff:      0.101D+00 0.246D+00 0.653D+00
 Gap=     0.431 Goal=   None    Shift=    0.000
 RMSDP=5.51D-07 MaxDP=2.47D-05 DE=-2.18D-07 OVMax= 5.45D-05

 Cycle   9  Pass 1  IDiag  1:
 E= -132.535044728933     Delta-E=       -0.000000011548 Rises=F Damp=F
 DIIS: error= 1.06D-05 at cycle   4 NSaved=   4.
 NSaved= 4 IEnMin= 4 EnMin= -132.535044728933     IErMin= 4 ErrMin= 1.06D-05
 ErrMax= 1.06D-05  0.00D+00 EMaxC= 1.00D-01 BMatC= 6.32D-09 BMatP= 1.92D-08
 IDIUse=1 WtCom= 1.00D+00 WtEn= 0.00D+00
 Coeff-Com: -0.575D-01-0.299D-01 0.398D+00 0.690D+00
 Coeff:     -0.575D-01-0.299D-01 0.398D+00 0.690D+00
 Gap=     0.431 Goal=   None    Shift=    0.000
 RMSDP=2.68D-07 MaxDP=1.31D-05 DE=-1.15D-08 OVMax= 3.08D-05

 Cycle  10  Pass 1  IDiag  1:
 E= -132.535044734825     Delta-E=       -0.000000005892 Rises=F Damp=F
 DIIS: error= 9.52D-07 at cycle   5 NSaved=   5.
 NSaved= 5 IEnMin= 5 EnMin= -132.535044734825     IErMin= 5 ErrMin= 9.52D-07
 ErrMax= 9.52D-07  0.00D+00 EMaxC= 1.00D-01 BMatC= 7.46D-11 BMatP= 6.32D-09
 IDIUse=1 WtCom= 1.00D+00 WtEn= 0.00D+00
 Coeff-Com: -0.190D-01-0.174D-01 0.711D-01 0.184D+00 0.781D+00
 Coeff:     -0.190D-01-0.174D-01 0.711D-01 0.184D+00 0.781D+00
 Gap=     0.431 Goal=   None    Shift=    0.000
 RMSDP=4.24D-08 MaxDP=2.22D-06 DE=-5.89D-09 OVMax= 3.18D-06

 Cycle  11  Pass 1  IDiag  1:
 E= -132.535044734893     Delta-E=       -0.000000000067 Rises=F Damp=F
 DIIS: error= 1.70D-07 at cycle   6 NSaved=   6.
 NSaved= 6 IEnMin= 6 EnMin= -132.535044734893     IErMin= 6 ErrMin= 1.70D-07
 ErrMax= 1.70D-07  0.00D+00 EMaxC= 1.00D-01 BMatC= 4.45D-12 BMatP= 7.46D-11
 IDIUse=1 WtCom= 1.00D+00 WtEn= 0.00D+00
 Coeff-Com:  0.156D-02-0.551D-03-0.248D-01-0.174D-01 0.161D+00 0.881D+00
 Coeff:      0.156D-02-0.551D-03-0.248D-01-0.174D-01 0.161D+00 0.881D+00
 Gap=     0.431 Goal=   None    Shift=    0.000
 RMSDP=8.77D-09 MaxDP=4.11D-07 DE=-6.72D-11 OVMax= 6.19D-07

 SCF Done:  E(RB2PLYPD3) =  -132.535044735     A.U. after   11 cycles
            NFock= 11  Conv=0.88D-08     -V/T= 2.0028
 KE= 1.321687689734D+02 PE=-4.264490158942D+02 EE= 1.028680370048D+02
 Leave Link  502 at Wed Aug 26 09:50:56 2020, MaxMem=  2097152000 cpu:       124.6
 (Enter /opt/cluster/programs/g09/g09_d.01/g09/l801.exe)
 DoSCS=T DFT=T ScalE2(SS,OS)=  0.270000  0.270000
 ExpMin= 7.60D-02 ExpMax= 9.07D+04 ExpMxC= 8.76D+02 IAcc=3 IRadAn=         5 AccDes= 0.00D+00
 HarFok:  IExCor=  205 AccDes= 0.00D+00 IRadAn=         5 IDoV=-2 UseB2=F ITyADJ=14
 ICtDFT= 12500011 ScaDFX=  1.000000  1.000000  1.000000  1.000000
 Largest valence mixing into a core orbital is  1.16D-04
 Largest core mixing into a valence orbital is  1.89D-05
 Range of M.O.s used for correlation:     4   261
 NBasis=   261 NAE=    11 NBE=    11 NFC=     3 NFV=     0
 NROrb=    258 NOA=     8 NOB=     8 NVA=   250 NVB=   250

 **** Warning!!: The largest alpha MO coefficient is  0.34034288D+02

 Leave Link  801 at Wed Aug 26 09:50:56 2020, MaxMem=  2097152000 cpu:         0.7
 (Enter /opt/cluster/programs/g09/g09_d.01/g09/l906.exe)
 DoSCS=T DFT=T ScalE2(SS,OS)=  0.270000  0.270000
 FulOut=F Deriv=F AODrv=F NAtomX=     6
   MMem=        2666  MDisk=           8 MDiskD=           8
  W3Min=      642000 MinDsk=     1426009 NBas6D=         321
 NBas2D=       52689    NTT=       51681    LW2=     4508827
    MDV=  2096809377 MDiskM=       14501 NBas2p=       52131
 Fully direct method using O(OVN) memory.
 IMap=   1   2   3   4   5   6   7   8
 JobTyp=1 Pass  1:  I=   1 to   8 NPSUse=  8 ParTrn=T ParDer=T DoDerP=F.
 Spin components of T(2) and E(2):
     alpha-alpha T2 =       0.3510332073D-01 E2=     -0.2130378544D-01
     alpha-beta  T2 =       0.2049620795D+00 E2=     -0.1369472882D+00
     beta-beta   T2 =       0.3510332073D-01 E2=     -0.2130378544D-01
 The integrals were generated   1 times.
 E2(B2PLYPD3) =    -0.1795548590D+00 E(B2PLYPD3) =    -0.13271459959394D+03
 Leave Link  906 at Wed Aug 26 09:51:11 2020, MaxMem=  2097152000 cpu:       121.4
 (Enter /opt/cluster/programs/g09/g09_d.01/g09/l601.exe)
 Copying SCF densities to generalized density rwf, IOpCl= 0 IROHF=0.

 **********************************************************************

            Population analysis using the SCF density.

 **********************************************************************

 Orbital symmetries:
       Occupied  (A) (A) (A) (A) (A) (A) (A) (A) (A) (A) (A)
       Virtual   (A) (A) (A) (A) (A) (A) (A) (A) (A) (A) (A) (A)
                 (A) (A) (A) (A) (A) (A) (A) (A) (A) (A) (A) (A)
                 (A) (A) (A) (A) (A) (A) (A) (A) (A) (A) (A) (A)
                 (A) (A) (A) (A) (A) (A) (A) (A) (A) (A) (A) (A)
                 (A) (A) (A) (A) (A) (A) (A) (A) (A) (A) (A) (A)
                 (A) (A) (A) (A) (A) (A) (A) (A) (A) (A) (A) (A)
                 (A) (A) (A) (A) (A) (A) (A) (A) (A) (A) (A) (A)
                 (A) (A) (A) (A) (A) (A) (A) (A) (A) (A) (A) (A)
                 (A) (A) (A) (A) (A) (A) (A) (A) (A) (A) (A) (A)
                 (A) (A) (A) (A) (A) (A) (A) (A) (A) (A) (A) (A)
                 (A) (A) (A) (A) (A) (A) (A) (A) (A) (A) (A) (A)
                 (A) (A) (A) (A) (A) (A) (A) (A) (A) (A) (A) (A)
                 (A) (A) (A) (A) (A) (A) (A) (A) (A) (A) (A) (A)
                 (A) (A) (A) (A) (A) (A) (A) (A) (A) (A) (A) (A)
                 (A) (A) (A) (A) (A) (A) (A) (A) (A) (A) (A) (A)
                 (A) (A) (A) (A) (A) (A) (A) (A) (A) (A) (A) (A)
                 (A) (A) (A) (A) (A) (A) (A) (A) (A) (A) (A) (A)
                 (A) (A) (A) (A) (A) (A) (A) (A) (A) (A) (A) (A)
                 (A) (A) (A) (A) (A) (A) (A) (A) (A) (A) (A) (A)
                 (A) (A) (A) (A) (A) (A) (A) (A) (A) (A) (A) (A)
                 (A) (A) (A) (A) (A) (A) (A) (A) (A) (A)
 The electronic state is 1-A.
 Alpha  occ. eigenvalues --  -14.84005 -10.66503 -10.66047  -1.04482  -0.89566
 Alpha  occ. eigenvalues --   -0.60260  -0.54563  -0.53602  -0.44814  -0.39397
 Alpha  occ. eigenvalues --   -0.39273
 Alpha virt. eigenvalues --    0.03836   0.08003   0.08430   0.10198   0.11452
 Alpha virt. eigenvalues --    0.11602   0.15517   0.16386   0.16748   0.20029
 Alpha virt. eigenvalues --    0.20077   0.25391   0.32955   0.34649   0.35301
 Alpha virt. eigenvalues --    0.39248   0.40188   0.40232   0.40529   0.47937
 Alpha virt. eigenvalues --    0.50459   0.51656   0.58801   0.59733   0.61410
 Alpha virt. eigenvalues --    0.67652   0.68055   0.69999   0.70020   0.78888
 Alpha virt. eigenvalues --    0.79154   0.82423   0.82551   0.83813   0.86929
 Alpha virt. eigenvalues --    0.91666   0.92560   0.95818   0.96380   0.97522
 Alpha virt. eigenvalues --    1.06215   1.08759   1.09023   1.12708   1.13308
 Alpha virt. eigenvalues --    1.14484   1.22514   1.22818   1.24299   1.35779
 Alpha virt. eigenvalues --    1.35874   1.47359   1.48564   1.50902   1.55462
 Alpha virt. eigenvalues --    1.65508   1.66700   1.70000   1.74832   1.77955
 Alpha virt. eigenvalues --    1.78112   1.78758   1.89252   1.91346   1.91780
 Alpha virt. eigenvalues --    1.94198   1.99330   1.99787   2.01128   2.04320
 Alpha virt. eigenvalues --    2.06001   2.13344   2.14723   2.20438   2.22262
 Alpha virt. eigenvalues --    2.23801   2.24717   2.25070   2.34507   2.35978
 Alpha virt. eigenvalues --    2.43448   2.50605   2.51612   2.56427   2.57591
 Alpha virt. eigenvalues --    2.60425   2.67158   2.70466   2.71882   2.73086
 Alpha virt. eigenvalues --    2.77897   2.78742   2.87131   2.91206   2.92188
 Alpha virt. eigenvalues --    2.92946   2.98209   2.98545   2.99092   3.11920
 Alpha virt. eigenvalues --    3.12581   3.12687   3.21705   3.32655   3.33842
 Alpha virt. eigenvalues --    3.35817   3.37004   3.41426   3.42864   3.52030
 Alpha virt. eigenvalues --    3.55183   3.56645   3.74874   3.75081   3.76996
 Alpha virt. eigenvalues --    3.89147   3.95147   3.96766   4.01215   4.02016
 Alpha virt. eigenvalues --    4.02445   4.05549   4.06486   4.25322   4.25822
 Alpha virt. eigenvalues --    4.57061   4.90947   4.90983   5.09332   5.11933
 Alpha virt. eigenvalues --    5.13479   5.17872   5.20732   5.22445   5.23774
 Alpha virt. eigenvalues --    5.28897   5.44355   5.45334   5.46477   5.65090
 Alpha virt. eigenvalues --    5.67431   5.86146   5.87307   5.90166   5.94432
 Alpha virt. eigenvalues --    5.95610   6.00150   6.01013   6.02169   6.03805
 Alpha virt. eigenvalues --    6.04807   6.06961   6.07447   6.08928   6.14783
 Alpha virt. eigenvalues --    6.19051   6.20683   6.31968   6.33018   6.34685
 Alpha virt. eigenvalues --    6.42993   6.47984   6.52122   6.60415   6.62274
 Alpha virt. eigenvalues --    6.65597   6.66779   6.90579   6.93648   6.93913
 Alpha virt. eigenvalues --    6.96548   7.02810   7.02821   7.07263   7.15115
 Alpha virt. eigenvalues --    7.15750   7.20678   7.24221   7.51199   7.52971
 Alpha virt. eigenvalues --    7.55605   7.60061   7.62537   7.64021   7.66142
 Alpha virt. eigenvalues --    7.70177   7.75714   7.78119   7.78655   7.89365
 Alpha virt. eigenvalues --    7.90189   7.94301   7.99215   8.10507   8.28236
 Alpha virt. eigenvalues --    8.31351   8.36264   8.45961   8.47456   8.47934
 Alpha virt. eigenvalues --    8.48338   8.50466   8.51947   8.58389   8.62104
 Alpha virt. eigenvalues --    8.62807   8.64830   8.66800   8.67113   8.68661
 Alpha virt. eigenvalues --    8.72831   8.80381   8.92829   8.96251   9.06726
 Alpha virt. eigenvalues --    9.10575   9.11278   9.14501   9.18254   9.19207
 Alpha virt. eigenvalues --    9.30137   9.31153   9.77670   9.80621   9.87609
 Alpha virt. eigenvalues --    9.93069   9.96548  10.09599  10.10330  10.18543
 Alpha virt. eigenvalues --   10.20328  10.24129  10.26732  10.35850  10.56593
 Alpha virt. eigenvalues --   10.62551  10.78355  11.39193  11.58384  11.78415
 Alpha virt. eigenvalues --   12.03562  12.06974  13.15467  13.58665  29.27243
 Alpha virt. eigenvalues --   29.57298  38.35417 148.95049 149.21294 198.28105
          Condensed to atoms (all electrons):
               1          2          3          4          5          6
     1  C    4.579795   0.309241  -0.057715   0.412760   0.415450   0.412453
     2  C    0.309241   4.825193   0.994661  -0.042300  -0.042194  -0.042582
     3  N   -0.057715   0.994661   6.267342  -0.000944  -0.000945  -0.000413
     4  H    0.412760  -0.042300  -0.000944   0.603217  -0.031196  -0.031454
     5  H    0.415450  -0.042194  -0.000945  -0.031196   0.598417  -0.032995
     6  H    0.412453  -0.042582  -0.000413  -0.031454  -0.032995   0.602384
 Mulliken charges:
               1
     1  C   -0.071983
     2  C   -0.002018
     3  N   -0.201987
     4  H    0.089917
     5  H    0.093464
     6  H    0.092607
 Sum of Mulliken charges =   0.00000
 Mulliken charges with hydrogens summed into heavy atoms:
               1
     1  C    0.204004
     2  C   -0.002018
     3  N   -0.201987
 Electronic spatial extent (au):  <R**2>=            160.9436
 Charge=              0.0000 electrons
 Dipole moment (field-independent basis, Debye):
    X=              4.1259    Y=             -0.0109    Z=              0.0185  Tot=              4.1259
 Quadrupole moment (field-independent basis, Debye-Ang):
   XX=            -20.8220   YY=            -17.7354   ZZ=            -17.7413
   XY=              0.0123   XZ=             -0.0460   YZ=              0.0081
 Traceless Quadrupole moment (field-independent basis, Debye-Ang):
   XX=             -2.0558   YY=              1.0308   ZZ=              1.0249
   XY=              0.0123   XZ=             -0.0460   YZ=              0.0081
 Octapole moment (field-independent basis, Debye-Ang**2):
  XXX=             13.3603  YYY=              0.6171  ZZZ=              0.2503  XYY=              2.2037
  XXY=             -0.0163  XXZ=             -0.0354  XZZ=              2.1653  YZZ=             -0.6779
  YYZ=             -0.3001  XYZ=              0.0122
 Hexadecapole moment (field-independent basis, Debye-Ang**3):
 XXXX=           -180.1580 YYYY=            -24.4542 ZZZZ=            -24.0706 XXXY=             -0.0602
 XXXZ=             -0.1897 YYYX=              1.0907 YYYZ=             -0.0097 ZZZX=              0.5002
 ZZZY=              0.0458 XXYY=            -30.8906 XXZZ=            -30.9066 YYZZ=             -8.1191
 XXYZ=              0.0296 YYXZ=             -0.4931 ZZXY=             -1.1559
 N-N= 5.887716518104D+01 E-N=-4.264489995462D+02  KE= 1.321687689734D+02
 Leave Link  601 at Wed Aug 26 09:51:12 2020, MaxMem=  2097152000 cpu:         0.4
 (Enter /opt/cluster/programs/g09/g09_d.01/g09/l9999.exe)
 1\1\GINC-NODE17\SP\RB2PLYPD3-FC\def2QZVP\C2H3N1\BOITTIER\26-Aug-2020\0
 \\#p B2PLYPD3/Def2QZVP\\cyanomethane\\0,1\C,0,-6.593464,-1.119158,1.16
 1975\C,0,-5.2015,-0.774162,0.903727\N,0,-4.096002,-0.545763,0.70454\H,
 0,-6.778493,-1.231135,2.241766\H,0,-6.86813,-2.031492,0.695382\H,0,-7.
 232536,-0.359741,0.81161\\Version=ES64L-G09RevD.01\State=1-A\HF=-132.5
 350447\MP2=-132.7145996\RMSD=8.769e-09\PG=C01 [X(C2H3N1)]\\@


 THE WISE MAN HAS THE POWER TO REASON AWAY
 WHAT A FOOL BELIEVES.
                     - DOOBIE BROTHERS
 Job cpu time:       0 days  0 hours  4 minutes 15.5 seconds.
 File lengths (MBytes):  RWF=     28 Int=      0 D2E=      0 Chk=      5 Scr=      1
 Normal termination of Gaussian 09 at Wed Aug 26 09:51:12 2020.
