 Entering Gaussian System, Link 0=/opt/cluster/programs/g09/g09_d.01/g09//g09
 Input=/home/boittier/MDCM/nms_sampling/cyanomethane_geom.xyz.dir/energies/cyanomethane_687_energy.com
 Output=/scratch/boittier/cyanomethane_687_energy/cyanomethane_687_energy.out
 Initial command:
 /opt/cluster/programs/g09/g09_d.01/g09/l1.exe "/scratch/boittier/cyanomethane_687_energy/Gau-169682.inp" -scrdir="/scratch/boittier/cyanomethane_687_energy/"
 Entering Link 1 = /opt/cluster/programs/g09/g09_d.01/g09/l1.exe PID=    169683.
  
 Copyright (c) 1988,1990,1992,1993,1995,1998,2003,2009,2013,
            Gaussian, Inc.  All Rights Reserved.
  
 This is part of the Gaussian(R) 09 program.  It is based on
 the Gaussian(R) 03 system (copyright 2003, Gaussian, Inc.),
 the Gaussian(R) 98 system (copyright 1998, Gaussian, Inc.),
 the Gaussian(R) 94 system (copyright 1995, Gaussian, Inc.),
 the Gaussian 92(TM) system (copyright 1992, Gaussian, Inc.),
 the Gaussian 90(TM) system (copyright 1990, Gaussian, Inc.),
 the Gaussian 88(TM) system (copyright 1988, Gaussian, Inc.),
 the Gaussian 86(TM) system (copyright 1986, Carnegie Mellon
 University), and the Gaussian 82(TM) system (copyright 1983,
 Carnegie Mellon University). Gaussian is a federally registered
 trademark of Gaussian, Inc.
  
 This software contains proprietary and confidential information,
 including trade secrets, belonging to Gaussian, Inc.
  
 This software is provided under written license and may be
 used, copied, transmitted, or stored only in accord with that
 written license.
  
 The following legend is applicable only to US Government
 contracts under FAR:
  
                    RESTRICTED RIGHTS LEGEND
  
 Use, reproduction and disclosure by the US Government is
 subject to restrictions as set forth in subparagraphs (a)
 and (c) of the Commercial Computer Software - Restricted
 Rights clause in FAR 52.227-19.
  
 Gaussian, Inc.
 340 Quinnipiac St., Bldg. 40, Wallingford CT 06492
  
  
 ---------------------------------------------------------------
 Warning -- This program may not be used in any manner that
 competes with the business of Gaussian, Inc. or will provide
 assistance to any competitor of Gaussian, Inc.  The licensee
 of this program is prohibited from giving any competitor of
 Gaussian, Inc. access to this program.  By using this program,
 the user acknowledges that Gaussian, Inc. is engaged in the
 business of creating and licensing software in the field of
 computational chemistry and represents and warrants to the
 licensee that it is not a competitor of Gaussian, Inc. and that
 it will not use this program in any manner prohibited above.
 ---------------------------------------------------------------
  

 Cite this work as:
 Gaussian 09, Revision D.01,
 M. J. Frisch, G. W. Trucks, H. B. Schlegel, G. E. Scuseria, 
 M. A. Robb, J. R. Cheeseman, G. Scalmani, V. Barone, B. Mennucci, 
 G. A. Petersson, H. Nakatsuji, M. Caricato, X. Li, H. P. Hratchian, 
 A. F. Izmaylov, J. Bloino, G. Zheng, J. L. Sonnenberg, M. Hada, 
 M. Ehara, K. Toyota, R. Fukuda, J. Hasegawa, M. Ishida, T. Nakajima, 
 Y. Honda, O. Kitao, H. Nakai, T. Vreven, J. A. Montgomery, Jr., 
 J. E. Peralta, F. Ogliaro, M. Bearpark, J. J. Heyd, E. Brothers, 
 K. N. Kudin, V. N. Staroverov, T. Keith, R. Kobayashi, J. Normand, 
 K. Raghavachari, A. Rendell, J. C. Burant, S. S. Iyengar, J. Tomasi, 
 M. Cossi, N. Rega, J. M. Millam, M. Klene, J. E. Knox, J. B. Cross, 
 V. Bakken, C. Adamo, J. Jaramillo, R. Gomperts, R. E. Stratmann, 
 O. Yazyev, A. J. Austin, R. Cammi, C. Pomelli, J. W. Ochterski, 
 R. L. Martin, K. Morokuma, V. G. Zakrzewski, G. A. Voth, 
 P. Salvador, J. J. Dannenberg, S. Dapprich, A. D. Daniels, 
 O. Farkas, J. B. Foresman, J. V. Ortiz, J. Cioslowski, 
 and D. J. Fox, Gaussian, Inc., Wallingford CT, 2013.
 
 ******************************************
 Gaussian 09:  ES64L-G09RevD.01 24-Apr-2013
                27-Aug-2020 
 ******************************************
 %chk=/home/boittier/MDCM/nms_sampling/cyanomethane_geom.xyz.dir/cyanomethane_687
 .chk
 %nproc=8
 Will use up to    8 processors via shared memory.
 %mem=16000MB
 --------------------
 #p B2PLYPD3/Def2QZVP
 --------------------
 1/38=1/1;
 2/12=2,17=6,18=5,40=1/2;
 3/5=45,7=101,11=9,16=1,25=1,30=1,74=-60/1,2,3;
 4//1;
 5/5=2,38=5/2;
 8/10=1/1;
 9/16=-3/6;
 6/7=2,8=2,9=2,10=2/1;
 99/5=1,9=1/99;
 Leave Link    1 at Thu Aug 27 00:05:25 2020, MaxMem=  2097152000 cpu:         7.7
 (Enter /opt/cluster/programs/g09/g09_d.01/g09/l101.exe)
 ------------
 cyanomethane
 ------------
 Symbolic Z-matrix:
 Charge =  0 Multiplicity = 1
 C                    -6.59154  -1.11255   1.15951 
 C                    -5.20174  -0.79077   0.89606 
 N                    -4.09682  -0.53789   0.70986 
 H                    -6.80162  -1.24281   2.25834 
 H                    -6.85438  -2.03865   0.70333 
 H                    -7.23171  -0.33341   0.84025 
 
 NAtoms=      6 NQM=        6 NQMF=       0 NMMI=      0 NMMIF=      0
                NMic=       0 NMicF=      0.
                    Isotopes and Nuclear Properties:
 (Nuclear quadrupole moments (NQMom) in fm**2, nuclear magnetic moments (NMagM)
  in nuclear magnetons)

  Atom         1           2           3           4           5           6
 IAtWgt=          12          12          14           1           1           1
 AtmWgt=  12.0000000  12.0000000  14.0030740   1.0078250   1.0078250   1.0078250
 NucSpn=           0           0           2           1           1           1
 AtZEff=   0.0000000   0.0000000   0.0000000   0.0000000   0.0000000   0.0000000
 NQMom=    0.0000000   0.0000000   2.0440000   0.0000000   0.0000000   0.0000000
 NMagM=    0.0000000   0.0000000   0.4037610   2.7928460   2.7928460   2.7928460
 AtZNuc=   6.0000000   6.0000000   7.0000000   1.0000000   1.0000000   1.0000000
 Leave Link  101 at Thu Aug 27 00:05:28 2020, MaxMem=  2097152000 cpu:         0.5
 (Enter /opt/cluster/programs/g09/g09_d.01/g09/l202.exe)
                          Input orientation:                          
 ---------------------------------------------------------------------
 Center     Atomic      Atomic             Coordinates (Angstroms)
 Number     Number       Type             X           Y           Z
 ---------------------------------------------------------------------
      1          6           0       -6.591543   -1.112547    1.159509
      2          6           0       -5.201741   -0.790770    0.896055
      3          7           0       -4.096816   -0.537886    0.709856
      4          1           0       -6.801618   -1.242805    2.258341
      5          1           0       -6.854380   -2.038655    0.703329
      6          1           0       -7.231707   -0.333410    0.840249
 ---------------------------------------------------------------------
                    Distance matrix (angstroms):
                    1          2          3          4          5
     1  C    0.000000
     2  C    1.450689   0.000000
     3  N    2.599247   1.148686   0.000000
     4  H    1.126291   2.149364   3.195414   0.000000
     5  H    1.065298   2.079802   3.139508   1.747634   0.000000
     6  H    1.057729   2.081599   3.144257   1.738666   1.751851
                    6
     6  H    0.000000
 Stoichiometry    C2H3N
 Framework group  C1[X(C2H3N)]
 Deg. of freedom    12
 Full point group                 C1      NOp   1
 Largest Abelian subgroup         C1      NOp   1
 Largest concise Abelian subgroup C1      NOp   1
                         Standard orientation:                         
 ---------------------------------------------------------------------
 Center     Atomic      Atomic             Coordinates (Angstroms)
 Number     Number       Type             X           Y           Z
 ---------------------------------------------------------------------
      1          6           0        1.168710    0.003822   -0.011555
      2          6           0       -0.281979    0.003815   -0.011795
      3          7           0       -1.430440   -0.003687    0.009679
      4          1           0        1.598257   -0.384073    0.954653
      5          1           0        1.543103    0.995612   -0.116632
      6          1           0        1.551333   -0.631552   -0.765671
 ---------------------------------------------------------------------
 Rotational constants (GHZ):    164.2398781      9.2908950      9.2869400
 Leave Link  202 at Thu Aug 27 00:05:29 2020, MaxMem=  2097152000 cpu:         0.0
 (Enter /opt/cluster/programs/g09/g09_d.01/g09/l301.exe)
 Standard basis: def2QZVP (5D, 7F)
 Ernie: Thresh=  0.10000D-02 Tol=  0.10000D-05 Strict=F.
 There are   321 symmetry adapted cartesian basis functions of A   symmetry.
 There are   261 symmetry adapted basis functions of A   symmetry.
   261 basis functions,   390 primitive gaussians,   321 cartesian basis functions
    11 alpha electrons       11 beta electrons
       nuclear repulsion energy        58.7880842031 Hartrees.
 IExCor=  419 DFT=T Ex+Corr=B2PLYPD3 ExCW=0 ScaHFX=  0.530000
 ScaDFX=  0.470000  0.470000  0.730000  0.730000 ScalE2=  0.270000  0.270000
 IRadAn=      0 IRanWt=     -1 IRanGd=            0 ICorTp=0 IEmpDi=141
 NAtoms=    6 NActive=    6 NUniq=    6 SFac= 1.00D+00 NAtFMM=   60 NAOKFM=F Big=F
 Integral buffers will be    131072 words long.
 Regular integral format.
 Two-electron integral symmetry is turned on.
 R6Disp:  Grimme-D3(BJ) Dispersion energy=       -0.0021026819 Hartrees.
 Nuclear repulsion after empirical dispersion term =       58.7859815212 Hartrees.
 Leave Link  301 at Thu Aug 27 00:05:30 2020, MaxMem=  2097152000 cpu:         0.4
 (Enter /opt/cluster/programs/g09/g09_d.01/g09/l302.exe)
 NPDir=0 NMtPBC=     1 NCelOv=     1 NCel=       1 NClECP=     1 NCelD=      1
         NCelK=      1 NCelE2=     1 NClLst=     1 CellRange=     0.0.
 One-electron integrals computed using PRISM.
   1 Symmetry operations used in ECPInt.
 ECPInt:  NShTT=    3321 NPrTT=    8136 LenC2=    3292 LenP2D=    7124.
 LDataN:  DoStor=T MaxTD1= 8 Len=  415
 NBasis=   261 RedAO= T EigKep=  7.89D-05  NBF=   261
 NBsUse=   261 1.00D-06 EigRej= -1.00D+00 NBFU=   261
 Precomputing XC quadrature grid using
 IXCGrd= 4 IRadAn=           0 IRanWt=          -1 IRanGd=           0 AccXCQ= 0.00D+00.
 Generated NRdTot=       0 NPtTot=           0 NUsed=           0 NTot=          32
 NSgBfM=   321   321   321   321   321 MxSgAt=     6 MxSgA2=     6.
 Leave Link  302 at Thu Aug 27 00:05:31 2020, MaxMem=  2097152000 cpu:         1.9
 (Enter /opt/cluster/programs/g09/g09_d.01/g09/l303.exe)
 DipDrv:  MaxL=1.
 Leave Link  303 at Thu Aug 27 00:05:32 2020, MaxMem=  2097152000 cpu:         0.2
 (Enter /opt/cluster/programs/g09/g09_d.01/g09/l401.exe)
 ExpMin= 7.60D-02 ExpMax= 9.07D+04 ExpMxC= 8.76D+02 IAcc=2 IRadAn=         4 AccDes= 0.00D+00
 Harris functional with IExCor=  419 and IRadAn=       4 diagonalized for initial guess.
 HarFok:  IExCor=  419 AccDes= 0.00D+00 IRadAn=         4 IDoV= 1 UseB2=F ITyADJ=14
 ICtDFT=  3500011 ScaDFX=  1.000000  1.000000  1.000000  1.000000
 FoFCou: FMM=F IPFlag=           0 FMFlag=      100000 FMFlg1=           0
         NFxFlg=           0 DoJE=T BraDBF=F KetDBF=T FulRan=T
         wScrn=  0.000000 ICntrl=     500 IOpCl=  0 I1Cent=   200000004 NGrid=           0
         NMat0=    1 NMatS0=      1 NMatT0=    0 NMatD0=    1 NMtDS0=    0 NMtDT0=    0
 Petite list used in FoFCou.
 Harris En= -132.853842366476    
 JPrj=0 DoOrth=F DoCkMO=F.
 Leave Link  401 at Thu Aug 27 00:05:34 2020, MaxMem=  2097152000 cpu:         3.6
 (Enter /opt/cluster/programs/g09/g09_d.01/g09/l502.exe)
 Closed shell SCF:
 Using DIIS extrapolation, IDIIS=  1040.
 Integral symmetry usage will be decided dynamically.
 Keep R1 ints in memory in canonical form, NReq=601554820.
 IVT=      332521 IEndB=      332521 NGot=  2097152000 MDV=  1512290144
 LenX=  1512290144 LenY=  1512186662
 Requested convergence on RMS density matrix=1.00D-08 within 128 cycles.
 Requested convergence on MAX density matrix=1.00D-06.
 Requested convergence on             energy=1.00D-06.
 No special actions if energy rises.
 FoFCou: FMM=F IPFlag=           0 FMFlag=           0 FMFlg1=           0
         NFxFlg=           0 DoJE=F BraDBF=F KetDBF=F FulRan=T
         wScrn=  0.000000 ICntrl=     600 IOpCl=  0 I1Cent=           0 NGrid=           0
         NMat0=    1 NMatS0=  34191 NMatT0=    0 NMatD0=    1 NMtDS0=    0 NMtDT0=    0
 Symmetry not used in FoFCou.
 Integral accuracy reduced to 1.0D-05 until final iterations.

 Cycle   1  Pass 0  IDiag  1:
 E= -132.417613321911    
 DIIS: error= 2.89D-02 at cycle   1 NSaved=   1.
 NSaved= 1 IEnMin= 1 EnMin= -132.417613321911     IErMin= 1 ErrMin= 2.89D-02
 ErrMax= 2.89D-02  0.00D+00 EMaxC= 1.00D-01 BMatC= 1.93D-01 BMatP= 1.93D-01
 IDIUse=3 WtCom= 7.11D-01 WtEn= 2.89D-01
 Coeff-Com:  0.100D+01
 Coeff-En:   0.100D+01
 Coeff:      0.100D+01
 Gap=     0.457 Goal=   None    Shift=    0.000
 GapD=    0.457 DampG=2.000 DampE=0.500 DampFc=1.0000 IDamp=-1.
 RMSDP=1.30D-03 MaxDP=6.88D-02              OVMax= 1.65D-01

 Cycle   2  Pass 0  IDiag  1:
 E= -132.454087968284     Delta-E=       -0.036474646373 Rises=F Damp=F
 DIIS: error= 3.40D-02 at cycle   2 NSaved=   2.
 NSaved= 2 IEnMin= 2 EnMin= -132.454087968284     IErMin= 1 ErrMin= 2.89D-02
 ErrMax= 3.40D-02  0.00D+00 EMaxC= 1.00D-01 BMatC= 9.43D-02 BMatP= 1.93D-01
 IDIUse=3 WtCom= 6.60D-01 WtEn= 3.40D-01
 Coeff-Com:  0.394D+00 0.606D+00
 Coeff-En:   0.387D+00 0.613D+00
 Coeff:      0.392D+00 0.608D+00
 Gap=     0.438 Goal=   None    Shift=    0.000
 RMSDP=8.52D-04 MaxDP=3.40D-02 DE=-3.65D-02 OVMax= 1.20D-01

 Cycle   3  Pass 0  IDiag  1:
 E= -132.518143969898     Delta-E=       -0.064056001614 Rises=F Damp=F
 DIIS: error= 1.14D-02 at cycle   3 NSaved=   3.
 NSaved= 3 IEnMin= 3 EnMin= -132.518143969898     IErMin= 3 ErrMin= 1.14D-02
 ErrMax= 1.14D-02  0.00D+00 EMaxC= 1.00D-01 BMatC= 1.95D-02 BMatP= 9.43D-02
 IDIUse=3 WtCom= 8.86D-01 WtEn= 1.14D-01
 Coeff-Com:  0.953D-01 0.325D+00 0.580D+00
 Coeff-En:   0.000D+00 0.118D+00 0.882D+00
 Coeff:      0.844D-01 0.301D+00 0.615D+00
 Gap=     0.429 Goal=   None    Shift=    0.000
 RMSDP=2.62D-04 MaxDP=9.59D-03 DE=-6.41D-02 OVMax= 5.76D-02

 Cycle   4  Pass 0  IDiag  1:
 E= -132.531609543939     Delta-E=       -0.013465574041 Rises=F Damp=F
 DIIS: error= 4.29D-03 at cycle   4 NSaved=   4.
 NSaved= 4 IEnMin= 4 EnMin= -132.531609543939     IErMin= 4 ErrMin= 4.29D-03
 ErrMax= 4.29D-03  0.00D+00 EMaxC= 1.00D-01 BMatC= 2.74D-03 BMatP= 1.95D-02
 IDIUse=3 WtCom= 9.57D-01 WtEn= 4.29D-02
 Coeff-Com: -0.122D-01 0.558D-01 0.322D+00 0.635D+00
 Coeff-En:   0.000D+00 0.000D+00 0.126D+00 0.874D+00
 Coeff:     -0.117D-01 0.534D-01 0.313D+00 0.645D+00
 Gap=     0.429 Goal=   None    Shift=    0.000
 RMSDP=8.66D-05 MaxDP=2.61D-03 DE=-1.35D-02 OVMax= 1.47D-02

 Cycle   5  Pass 0  IDiag  1:
 E= -132.533978257268     Delta-E=       -0.002368713329 Rises=F Damp=F
 DIIS: error= 3.00D-04 at cycle   5 NSaved=   5.
 NSaved= 5 IEnMin= 5 EnMin= -132.533978257268     IErMin= 5 ErrMin= 3.00D-04
 ErrMax= 3.00D-04  0.00D+00 EMaxC= 1.00D-01 BMatC= 1.16D-05 BMatP= 2.74D-03
 IDIUse=3 WtCom= 9.97D-01 WtEn= 3.00D-03
 Coeff-Com: -0.336D-02 0.547D-02 0.450D-01 0.135D+00 0.818D+00
 Coeff-En:   0.000D+00 0.000D+00 0.000D+00 0.000D+00 0.100D+01
 Coeff:     -0.335D-02 0.545D-02 0.448D-01 0.135D+00 0.818D+00
 Gap=     0.428 Goal=   None    Shift=    0.000
 RMSDP=8.33D-06 MaxDP=3.36D-04 DE=-2.37D-03 OVMax= 1.11D-03

 Initial convergence to 1.0D-05 achieved.  Increase integral accuracy.
 Cycle   6  Pass 1  IDiag  1:
 E= -132.533990816609     Delta-E=       -0.000012559341 Rises=F Damp=F
 DIIS: error= 8.85D-05 at cycle   1 NSaved=   1.
 NSaved= 1 IEnMin= 1 EnMin= -132.533990816609     IErMin= 1 ErrMin= 8.85D-05
 ErrMax= 8.85D-05  0.00D+00 EMaxC= 1.00D-01 BMatC= 5.73D-07 BMatP= 5.73D-07
 IDIUse=1 WtCom= 1.00D+00 WtEn= 0.00D+00
 Coeff-Com:  0.100D+01
 Coeff:      0.100D+01
 Gap=     0.428 Goal=   None    Shift=    0.000
 RMSDP=8.33D-06 MaxDP=3.36D-04 DE=-1.26D-05 OVMax= 3.86D-04

 Cycle   7  Pass 1  IDiag  1:
 E= -132.533991171064     Delta-E=       -0.000000354454 Rises=F Damp=F
 DIIS: error= 4.27D-05 at cycle   2 NSaved=   2.
 NSaved= 2 IEnMin= 2 EnMin= -132.533991171064     IErMin= 2 ErrMin= 4.27D-05
 ErrMax= 4.27D-05  0.00D+00 EMaxC= 1.00D-01 BMatC= 2.47D-07 BMatP= 5.73D-07
 IDIUse=1 WtCom= 1.00D+00 WtEn= 0.00D+00
 Coeff-Com:  0.387D+00 0.613D+00
 Coeff:      0.387D+00 0.613D+00
 Gap=     0.428 Goal=   None    Shift=    0.000
 RMSDP=9.41D-07 MaxDP=3.66D-05 DE=-3.54D-07 OVMax= 1.59D-04

 Cycle   8  Pass 1  IDiag  1:
 E= -132.533991385701     Delta-E=       -0.000000214637 Rises=F Damp=F
 DIIS: error= 1.50D-05 at cycle   3 NSaved=   3.
 NSaved= 3 IEnMin= 3 EnMin= -132.533991385701     IErMin= 3 ErrMin= 1.50D-05
 ErrMax= 1.50D-05  0.00D+00 EMaxC= 1.00D-01 BMatC= 1.73D-08 BMatP= 2.47D-07
 IDIUse=1 WtCom= 1.00D+00 WtEn= 0.00D+00
 Coeff-Com:  0.904D-01 0.231D+00 0.678D+00
 Coeff:      0.904D-01 0.231D+00 0.678D+00
 Gap=     0.428 Goal=   None    Shift=    0.000
 RMSDP=5.67D-07 MaxDP=2.57D-05 DE=-2.15D-07 OVMax= 5.52D-05

 Cycle   9  Pass 1  IDiag  1:
 E= -132.533991395427     Delta-E=       -0.000000009726 Rises=F Damp=F
 DIIS: error= 7.94D-06 at cycle   4 NSaved=   4.
 NSaved= 4 IEnMin= 4 EnMin= -132.533991395427     IErMin= 4 ErrMin= 7.94D-06
 ErrMax= 7.94D-06  0.00D+00 EMaxC= 1.00D-01 BMatC= 6.92D-09 BMatP= 1.73D-08
 IDIUse=1 WtCom= 1.00D+00 WtEn= 0.00D+00
 Coeff-Com: -0.581D-01-0.307D-01 0.427D+00 0.662D+00
 Coeff:     -0.581D-01-0.307D-01 0.427D+00 0.662D+00
 Gap=     0.428 Goal=   None    Shift=    0.000
 RMSDP=2.61D-07 MaxDP=1.25D-05 DE=-9.73D-09 OVMax= 3.34D-05

 Cycle  10  Pass 1  IDiag  1:
 E= -132.533991401794     Delta-E=       -0.000000006368 Rises=F Damp=F
 DIIS: error= 9.60D-07 at cycle   5 NSaved=   5.
 NSaved= 5 IEnMin= 5 EnMin= -132.533991401794     IErMin= 5 ErrMin= 9.60D-07
 ErrMax= 9.60D-07  0.00D+00 EMaxC= 1.00D-01 BMatC= 7.78D-11 BMatP= 6.92D-09
 IDIUse=1 WtCom= 1.00D+00 WtEn= 0.00D+00
 Coeff-Com: -0.194D-01-0.177D-01 0.805D-01 0.182D+00 0.774D+00
 Coeff:     -0.194D-01-0.177D-01 0.805D-01 0.182D+00 0.774D+00
 Gap=     0.428 Goal=   None    Shift=    0.000
 RMSDP=4.27D-08 MaxDP=2.20D-06 DE=-6.37D-09 OVMax= 3.18D-06

 Cycle  11  Pass 1  IDiag  1:
 E= -132.533991401862     Delta-E=       -0.000000000068 Rises=F Damp=F
 DIIS: error= 1.64D-07 at cycle   6 NSaved=   6.
 NSaved= 6 IEnMin= 6 EnMin= -132.533991401862     IErMin= 6 ErrMin= 1.64D-07
 ErrMax= 1.64D-07  0.00D+00 EMaxC= 1.00D-01 BMatC= 4.60D-12 BMatP= 7.78D-11
 IDIUse=1 WtCom= 1.00D+00 WtEn= 0.00D+00
 Coeff-Com:  0.167D-02-0.470D-03-0.263D-01-0.166D-01 0.158D+00 0.884D+00
 Coeff:      0.167D-02-0.470D-03-0.263D-01-0.166D-01 0.158D+00 0.884D+00
 Gap=     0.428 Goal=   None    Shift=    0.000
 RMSDP=9.15D-09 MaxDP=4.13D-07 DE=-6.79D-11 OVMax= 8.31D-07

 SCF Done:  E(RB2PLYPD3) =  -132.533991402     A.U. after   11 cycles
            NFock= 11  Conv=0.92D-08     -V/T= 2.0031
 KE= 1.321200180482D+02 PE=-4.262274299906D+02 EE= 1.027874390192D+02
 Leave Link  502 at Thu Aug 27 00:05:55 2020, MaxMem=  2097152000 cpu:        92.9
 (Enter /opt/cluster/programs/g09/g09_d.01/g09/l801.exe)
 DoSCS=T DFT=T ScalE2(SS,OS)=  0.270000  0.270000
 ExpMin= 7.60D-02 ExpMax= 9.07D+04 ExpMxC= 8.76D+02 IAcc=3 IRadAn=         5 AccDes= 0.00D+00
 HarFok:  IExCor=  205 AccDes= 0.00D+00 IRadAn=         5 IDoV=-2 UseB2=F ITyADJ=14
 ICtDFT= 12500011 ScaDFX=  1.000000  1.000000  1.000000  1.000000
 Largest valence mixing into a core orbital is  1.16D-04
 Largest core mixing into a valence orbital is  1.90D-05
 Range of M.O.s used for correlation:     4   261
 NBasis=   261 NAE=    11 NBE=    11 NFC=     3 NFV=     0
 NROrb=    258 NOA=     8 NOB=     8 NVA=   250 NVB=   250

 **** Warning!!: The largest alpha MO coefficient is  0.30957158D+02

 Leave Link  801 at Thu Aug 27 00:05:56 2020, MaxMem=  2097152000 cpu:         0.6
 (Enter /opt/cluster/programs/g09/g09_d.01/g09/l906.exe)
 DoSCS=T DFT=T ScalE2(SS,OS)=  0.270000  0.270000
 FulOut=F Deriv=F AODrv=F NAtomX=     6
   MMem=        2666  MDisk=           8 MDiskD=           8
  W3Min=      642000 MinDsk=     1426009 NBas6D=         321
 NBas2D=       52689    NTT=       51681    LW2=     4508827
    MDV=  2096809405 MDiskM=       14501 NBas2p=       52131
 Fully direct method using O(OVN) memory.
 IMap=   1   2   3   4   5   6   7   8
 JobTyp=1 Pass  1:  I=   1 to   8 NPSUse=  8 ParTrn=T ParDer=T DoDerP=F.
 Spin components of T(2) and E(2):
     alpha-alpha T2 =       0.3534888792D-01 E2=     -0.2135765426D-01
     alpha-beta  T2 =       0.2064881255D+00 E2=     -0.1372198664D+00
     beta-beta   T2 =       0.3534888792D-01 E2=     -0.2135765426D-01
 The integrals were generated   1 times.
 E2(B2PLYPD3) =    -0.1799351749D+00 E(B2PLYPD3) =    -0.13271392657675D+03
 Leave Link  906 at Thu Aug 27 00:06:09 2020, MaxMem=  2097152000 cpu:        96.5
 (Enter /opt/cluster/programs/g09/g09_d.01/g09/l601.exe)
 Copying SCF densities to generalized density rwf, IOpCl= 0 IROHF=0.

 **********************************************************************

            Population analysis using the SCF density.

 **********************************************************************

 Orbital symmetries:
       Occupied  (A) (A) (A) (A) (A) (A) (A) (A) (A) (A) (A)
       Virtual   (A) (A) (A) (A) (A) (A) (A) (A) (A) (A) (A) (A)
                 (A) (A) (A) (A) (A) (A) (A) (A) (A) (A) (A) (A)
                 (A) (A) (A) (A) (A) (A) (A) (A) (A) (A) (A) (A)
                 (A) (A) (A) (A) (A) (A) (A) (A) (A) (A) (A) (A)
                 (A) (A) (A) (A) (A) (A) (A) (A) (A) (A) (A) (A)
                 (A) (A) (A) (A) (A) (A) (A) (A) (A) (A) (A) (A)
                 (A) (A) (A) (A) (A) (A) (A) (A) (A) (A) (A) (A)
                 (A) (A) (A) (A) (A) (A) (A) (A) (A) (A) (A) (A)
                 (A) (A) (A) (A) (A) (A) (A) (A) (A) (A) (A) (A)
                 (A) (A) (A) (A) (A) (A) (A) (A) (A) (A) (A) (A)
                 (A) (A) (A) (A) (A) (A) (A) (A) (A) (A) (A) (A)
                 (A) (A) (A) (A) (A) (A) (A) (A) (A) (A) (A) (A)
                 (A) (A) (A) (A) (A) (A) (A) (A) (A) (A) (A) (A)
                 (A) (A) (A) (A) (A) (A) (A) (A) (A) (A) (A) (A)
                 (A) (A) (A) (A) (A) (A) (A) (A) (A) (A) (A) (A)
                 (A) (A) (A) (A) (A) (A) (A) (A) (A) (A) (A) (A)
                 (A) (A) (A) (A) (A) (A) (A) (A) (A) (A) (A) (A)
                 (A) (A) (A) (A) (A) (A) (A) (A) (A) (A) (A) (A)
                 (A) (A) (A) (A) (A) (A) (A) (A) (A) (A) (A) (A)
                 (A) (A) (A) (A) (A) (A) (A) (A) (A) (A) (A) (A)
                 (A) (A) (A) (A) (A) (A) (A) (A) (A) (A)
 The electronic state is 1-A.
 Alpha  occ. eigenvalues --  -14.84089 -10.66797 -10.66121  -1.04412  -0.89433
 Alpha  occ. eigenvalues --   -0.60313  -0.54950  -0.52736  -0.44849  -0.39369
 Alpha  occ. eigenvalues --   -0.39072
 Alpha virt. eigenvalues --    0.03756   0.07628   0.08342   0.10179   0.11373
 Alpha virt. eigenvalues --    0.11752   0.15526   0.16549   0.16624   0.20004
 Alpha virt. eigenvalues --    0.20123   0.25484   0.32833   0.34204   0.35404
 Alpha virt. eigenvalues --    0.39132   0.40069   0.40338   0.40457   0.47680
 Alpha virt. eigenvalues --    0.50588   0.51393   0.58678   0.59693   0.61457
 Alpha virt. eigenvalues --    0.67339   0.68450   0.69899   0.69939   0.79015
 Alpha virt. eigenvalues --    0.79100   0.82328   0.82450   0.83837   0.86810
 Alpha virt. eigenvalues --    0.91687   0.92865   0.96003   0.96093   0.97663
 Alpha virt. eigenvalues --    1.06114   1.08041   1.09721   1.12613   1.13431
 Alpha virt. eigenvalues --    1.14018   1.22371   1.22569   1.24142   1.35351
 Alpha virt. eigenvalues --    1.35689   1.45450   1.48446   1.50804   1.54956
 Alpha virt. eigenvalues --    1.65881   1.66363   1.70349   1.74527   1.77963
 Alpha virt. eigenvalues --    1.78370   1.78501   1.89623   1.90920   1.92119
 Alpha virt. eigenvalues --    1.94092   1.99080   1.99686   2.01249   2.04759
 Alpha virt. eigenvalues --    2.05745   2.12539   2.15471   2.20165   2.22452
 Alpha virt. eigenvalues --    2.22962   2.23509   2.26532   2.34379   2.35631
 Alpha virt. eigenvalues --    2.43312   2.50341   2.51812   2.55298   2.57966
 Alpha virt. eigenvalues --    2.60993   2.66904   2.70360   2.71789   2.73815
 Alpha virt. eigenvalues --    2.76773   2.78282   2.87279   2.90919   2.91532
 Alpha virt. eigenvalues --    2.92164   2.96840   2.97161   2.99353   3.09964
 Alpha virt. eigenvalues --    3.11348   3.12735   3.21574   3.29212   3.31627
 Alpha virt. eigenvalues --    3.33199   3.40152   3.41170   3.42444   3.50050
 Alpha virt. eigenvalues --    3.54692   3.56975   3.74539   3.74948   3.75818
 Alpha virt. eigenvalues --    3.87893   3.94212   3.95786   3.99308   4.01199
 Alpha virt. eigenvalues --    4.01849   4.05260   4.06238   4.24356   4.25199
 Alpha virt. eigenvalues --    4.57477   4.90858   4.90934   5.09610   5.11737
 Alpha virt. eigenvalues --    5.13364   5.17895   5.20140   5.20697   5.22637
 Alpha virt. eigenvalues --    5.29486   5.44009   5.44828   5.47177   5.64710
 Alpha virt. eigenvalues --    5.66231   5.84930   5.86783   5.90133   5.94618
 Alpha virt. eigenvalues --    5.95101   5.98237   5.99375   6.01094   6.03117
 Alpha virt. eigenvalues --    6.03438   6.05883   6.07638   6.09083   6.14299
 Alpha virt. eigenvalues --    6.17920   6.19558   6.29401   6.29871   6.32403
 Alpha virt. eigenvalues --    6.41077   6.47663   6.52061   6.59701   6.61628
 Alpha virt. eigenvalues --    6.63468   6.65280   6.88687   6.92947   6.93456
 Alpha virt. eigenvalues --    6.97313   7.02735   7.02779   7.08196   7.12364
 Alpha virt. eigenvalues --    7.13788   7.16238   7.25789   7.49306   7.51453
 Alpha virt. eigenvalues --    7.52372   7.58137   7.62159   7.62724   7.63796
 Alpha virt. eigenvalues --    7.66455   7.73839   7.79645   7.79698   7.84702
 Alpha virt. eigenvalues --    7.90811   7.96001   7.98306   8.03866   8.26011
 Alpha virt. eigenvalues --    8.32042   8.35966   8.43412   8.45264   8.46366
 Alpha virt. eigenvalues --    8.47608   8.51080   8.51540   8.59083   8.59889
 Alpha virt. eigenvalues --    8.60461   8.63083   8.66848   8.66962   8.69722
 Alpha virt. eigenvalues --    8.71703   8.80008   8.92011   8.94167   8.99681
 Alpha virt. eigenvalues --    9.08230   9.10349   9.13543   9.18076   9.18481
 Alpha virt. eigenvalues --    9.28750   9.30936   9.72043   9.77980   9.81996
 Alpha virt. eigenvalues --    9.84558   9.95981  10.03184  10.07305  10.14216
 Alpha virt. eigenvalues --   10.18991  10.20313  10.24882  10.34671  10.50866
 Alpha virt. eigenvalues --   10.56255  10.75343  11.38834  11.63063  11.84046
 Alpha virt. eigenvalues --   12.04883  12.08304  13.14128  13.49043  29.23805
 Alpha virt. eigenvalues --   29.58290  38.34641 148.90771 149.22354 198.27112
          Condensed to atoms (all electrons):
               1          2          3          4          5          6
     1  C    4.589333   0.306237  -0.058254   0.409559   0.413666   0.413531
     2  C    0.306237   4.828024   0.994131  -0.039920  -0.044289  -0.043215
     3  N   -0.058254   0.994131   6.269459  -0.001352  -0.000579  -0.000554
     4  H    0.409559  -0.039920  -0.001352   0.608601  -0.031496  -0.032263
     5  H    0.413666  -0.044289  -0.000579  -0.031496   0.597730  -0.030471
     6  H    0.413531  -0.043215  -0.000554  -0.032263  -0.030471   0.597392
 Mulliken charges:
               1
     1  C   -0.074071
     2  C   -0.000968
     3  N   -0.202851
     4  H    0.086871
     5  H    0.095439
     6  H    0.095580
 Sum of Mulliken charges =   0.00000
 Mulliken charges with hydrogens summed into heavy atoms:
               1
     1  C    0.203818
     2  C   -0.000968
     3  N   -0.202851
 Electronic spatial extent (au):  <R**2>=            161.1395
 Charge=              0.0000 electrons
 Dipole moment (field-independent basis, Debye):
    X=              4.1246    Y=              0.0039    Z=             -0.0140  Tot=              4.1246
 Quadrupole moment (field-independent basis, Debye-Ang):
   XX=            -20.8339   YY=            -17.6962   ZZ=            -17.8334
   XY=             -0.0495   XZ=              0.1012   YZ=              0.0547
 Traceless Quadrupole moment (field-independent basis, Debye-Ang):
   XX=             -2.0461   YY=              1.0916   ZZ=              0.9544
   XY=             -0.0495   XZ=              0.1012   YZ=              0.0547
 Octapole moment (field-independent basis, Debye-Ang**2):
  XXX=             13.2633  YYY=              0.6970  ZZZ=              0.2551  XYY=              2.2433
  XXY=             -0.0976  XXZ=              0.1457  XZZ=              2.0954  YZZ=             -0.6679
  YYZ=             -0.3198  XYZ=              0.0584
 Hexadecapole moment (field-independent basis, Debye-Ang**3):
 XXXX=           -180.4236 YYYY=            -24.2938 ZZZZ=            -24.7144 XXXY=             -0.2588
 XXXZ=              0.3951 YYYX=              1.1631 YYYZ=              0.1872 ZZZX=              0.5046
 ZZZY=              0.0464 XXYY=            -30.8628 XXZZ=            -31.0381 YYZZ=             -8.1818
 XXYZ=              0.0873 YYXZ=             -0.5323 ZZXY=             -1.1685
 N-N= 5.878598152124D+01 E-N=-4.262274132309D+02  KE= 1.321200180482D+02
 Leave Link  601 at Thu Aug 27 00:06:10 2020, MaxMem=  2097152000 cpu:         0.3
 (Enter /opt/cluster/programs/g09/g09_d.01/g09/l9999.exe)
 1\1\GINC-NODE22\SP\RB2PLYPD3-FC\def2QZVP\C2H3N1\BOITTIER\27-Aug-2020\0
 \\#p B2PLYPD3/Def2QZVP\\cyanomethane\\0,1\C,0,-6.591543,-1.112547,1.15
 9509\C,0,-5.201741,-0.79077,0.896055\N,0,-4.096816,-0.537886,0.709856\
 H,0,-6.801618,-1.242805,2.258341\H,0,-6.85438,-2.038655,0.703329\H,0,-
 7.231707,-0.33341,0.840249\\Version=ES64L-G09RevD.01\State=1-A\HF=-132
 .5339914\MP2=-132.7139266\RMSD=9.152e-09\PG=C01 [X(C2H3N1)]\\@


 Discoveries are often made by not following instructions,
 by going off the main road, by trying the untried.
 -- Frank Tyger
 Job cpu time:       0 days  0 hours  3 minutes 25.9 seconds.
 File lengths (MBytes):  RWF=     28 Int=      0 D2E=      0 Chk=      5 Scr=      1
 Normal termination of Gaussian 09 at Thu Aug 27 00:06:12 2020.
