 Entering Gaussian System, Link 0=/opt/cluster/programs/g09/g09_d.01/g09//g09
 Input=/home/boittier/MDCM/nms_sampling/cyanomethane_geom.xyz.dir/energies/cyanomethane_2194_energy.com
 Output=/scratch/boittier/cyanomethane_2194_energy/cyanomethane_2194_energy.out
 Initial command:
 /opt/cluster/programs/g09/g09_d.01/g09/l1.exe "/scratch/boittier/cyanomethane_2194_energy/Gau-180388.inp" -scrdir="/scratch/boittier/cyanomethane_2194_energy/"
 Entering Link 1 = /opt/cluster/programs/g09/g09_d.01/g09/l1.exe PID=    180389.
  
 Copyright (c) 1988,1990,1992,1993,1995,1998,2003,2009,2013,
            Gaussian, Inc.  All Rights Reserved.
  
 This is part of the Gaussian(R) 09 program.  It is based on
 the Gaussian(R) 03 system (copyright 2003, Gaussian, Inc.),
 the Gaussian(R) 98 system (copyright 1998, Gaussian, Inc.),
 the Gaussian(R) 94 system (copyright 1995, Gaussian, Inc.),
 the Gaussian 92(TM) system (copyright 1992, Gaussian, Inc.),
 the Gaussian 90(TM) system (copyright 1990, Gaussian, Inc.),
 the Gaussian 88(TM) system (copyright 1988, Gaussian, Inc.),
 the Gaussian 86(TM) system (copyright 1986, Carnegie Mellon
 University), and the Gaussian 82(TM) system (copyright 1983,
 Carnegie Mellon University). Gaussian is a federally registered
 trademark of Gaussian, Inc.
  
 This software contains proprietary and confidential information,
 including trade secrets, belonging to Gaussian, Inc.
  
 This software is provided under written license and may be
 used, copied, transmitted, or stored only in accord with that
 written license.
  
 The following legend is applicable only to US Government
 contracts under FAR:
  
                    RESTRICTED RIGHTS LEGEND
  
 Use, reproduction and disclosure by the US Government is
 subject to restrictions as set forth in subparagraphs (a)
 and (c) of the Commercial Computer Software - Restricted
 Rights clause in FAR 52.227-19.
  
 Gaussian, Inc.
 340 Quinnipiac St., Bldg. 40, Wallingford CT 06492
  
  
 ---------------------------------------------------------------
 Warning -- This program may not be used in any manner that
 competes with the business of Gaussian, Inc. or will provide
 assistance to any competitor of Gaussian, Inc.  The licensee
 of this program is prohibited from giving any competitor of
 Gaussian, Inc. access to this program.  By using this program,
 the user acknowledges that Gaussian, Inc. is engaged in the
 business of creating and licensing software in the field of
 computational chemistry and represents and warrants to the
 licensee that it is not a competitor of Gaussian, Inc. and that
 it will not use this program in any manner prohibited above.
 ---------------------------------------------------------------
  

 Cite this work as:
 Gaussian 09, Revision D.01,
 M. J. Frisch, G. W. Trucks, H. B. Schlegel, G. E. Scuseria, 
 M. A. Robb, J. R. Cheeseman, G. Scalmani, V. Barone, B. Mennucci, 
 G. A. Petersson, H. Nakatsuji, M. Caricato, X. Li, H. P. Hratchian, 
 A. F. Izmaylov, J. Bloino, G. Zheng, J. L. Sonnenberg, M. Hada, 
 M. Ehara, K. Toyota, R. Fukuda, J. Hasegawa, M. Ishida, T. Nakajima, 
 Y. Honda, O. Kitao, H. Nakai, T. Vreven, J. A. Montgomery, Jr., 
 J. E. Peralta, F. Ogliaro, M. Bearpark, J. J. Heyd, E. Brothers, 
 K. N. Kudin, V. N. Staroverov, T. Keith, R. Kobayashi, J. Normand, 
 K. Raghavachari, A. Rendell, J. C. Burant, S. S. Iyengar, J. Tomasi, 
 M. Cossi, N. Rega, J. M. Millam, M. Klene, J. E. Knox, J. B. Cross, 
 V. Bakken, C. Adamo, J. Jaramillo, R. Gomperts, R. E. Stratmann, 
 O. Yazyev, A. J. Austin, R. Cammi, C. Pomelli, J. W. Ochterski, 
 R. L. Martin, K. Morokuma, V. G. Zakrzewski, G. A. Voth, 
 P. Salvador, J. J. Dannenberg, S. Dapprich, A. D. Daniels, 
 O. Farkas, J. B. Foresman, J. V. Ortiz, J. Cioslowski, 
 and D. J. Fox, Gaussian, Inc., Wallingford CT, 2013.
 
 ******************************************
 Gaussian 09:  ES64L-G09RevD.01 24-Apr-2013
                26-Aug-2020 
 ******************************************
 %chk=/home/boittier/MDCM/nms_sampling/cyanomethane_geom.xyz.dir/cyanomethane_219
 4.chk
 %nproc=8
 Will use up to    8 processors via shared memory.
 %mem=16000MB
 --------------------
 #p B2PLYPD3/Def2QZVP
 --------------------
 1/38=1/1;
 2/12=2,17=6,18=5,40=1/2;
 3/5=45,7=101,11=9,16=1,25=1,30=1,74=-60/1,2,3;
 4//1;
 5/5=2,38=5/2;
 8/10=1/1;
 9/16=-3/6;
 6/7=2,8=2,9=2,10=2/1;
 99/5=1,9=1/99;
 Leave Link    1 at Wed Aug 26 15:23:36 2020, MaxMem=  2097152000 cpu:         0.4
 (Enter /opt/cluster/programs/g09/g09_d.01/g09/l101.exe)
 ------------
 cyanomethane
 ------------
 Symbolic Z-matrix:
 Charge =  0 Multiplicity = 1
 C                    -6.60965  -1.11138   1.17643 
 C                    -5.19927  -0.80194   0.8683 
 N                    -4.08672  -0.53553   0.7242 
 H                    -6.80678  -1.20068   2.26334 
 H                    -6.7647   -2.02883   0.68465 
 H                    -7.27019  -0.31509   0.79407 
 
 NAtoms=      6 NQM=        6 NQMF=       0 NMMI=      0 NMMIF=      0
                NMic=       0 NMicF=      0.
                    Isotopes and Nuclear Properties:
 (Nuclear quadrupole moments (NQMom) in fm**2, nuclear magnetic moments (NMagM)
  in nuclear magnetons)

  Atom         1           2           3           4           5           6
 IAtWgt=          12          12          14           1           1           1
 AtmWgt=  12.0000000  12.0000000  14.0030740   1.0078250   1.0078250   1.0078250
 NucSpn=           0           0           2           1           1           1
 AtZEff=   0.0000000   0.0000000   0.0000000   0.0000000   0.0000000   0.0000000
 NQMom=    0.0000000   0.0000000   2.0440000   0.0000000   0.0000000   0.0000000
 NMagM=    0.0000000   0.0000000   0.4037610   2.7928460   2.7928460   2.7928460
 AtZNuc=   6.0000000   6.0000000   7.0000000   1.0000000   1.0000000   1.0000000
 Leave Link  101 at Wed Aug 26 15:23:36 2020, MaxMem=  2097152000 cpu:         0.5
 (Enter /opt/cluster/programs/g09/g09_d.01/g09/l202.exe)
                          Input orientation:                          
 ---------------------------------------------------------------------
 Center     Atomic      Atomic             Coordinates (Angstroms)
 Number     Number       Type             X           Y           Z
 ---------------------------------------------------------------------
      1          6           0       -6.609654   -1.111381    1.176425
      2          6           0       -5.199265   -0.801939    0.868302
      3          7           0       -4.086723   -0.535526    0.724195
      4          1           0       -6.806775   -1.200683    2.263343
      5          1           0       -6.764695   -2.028830    0.684645
      6          1           0       -7.270190   -0.315090    0.794067
 ---------------------------------------------------------------------
                    Distance matrix (angstroms):
                    1          2          3          4          5
     1  C    0.000000
     2  C    1.476445   0.000000
     3  N    2.627033   1.153036   0.000000
     4  H    1.108252   2.165462   3.195324   0.000000
     5  H    1.052425   1.997389   3.066440   1.783223   0.000000
     6  H    1.102989   2.128676   3.191855   1.777020   1.790085
                    6
     6  H    0.000000
 Stoichiometry    C2H3N
 Framework group  C1[X(C2H3N)]
 Deg. of freedom    12
 Full point group                 C1      NOp   1
 Largest Abelian subgroup         C1      NOp   1
 Largest concise Abelian subgroup C1      NOp   1
                         Standard orientation:                         
 ---------------------------------------------------------------------
 Center     Atomic      Atomic             Coordinates (Angstroms)
 Number     Number       Type             X           Y           Z
 ---------------------------------------------------------------------
      1          6           0        1.190341    0.001345    0.006211
      2          6           0       -0.285445    0.026932   -0.029737
      3          7           0       -1.436577   -0.021346    0.015613
      4          1           0        1.593789   -0.481852    0.918336
      5          1           0        1.446762    1.021428   -0.029512
      6          1           0        1.586106   -0.559813   -0.856956
 ---------------------------------------------------------------------
 Rotational constants (GHZ):    156.8953793      9.1599637      9.1571157
 Leave Link  202 at Wed Aug 26 15:23:36 2020, MaxMem=  2097152000 cpu:         0.0
 (Enter /opt/cluster/programs/g09/g09_d.01/g09/l301.exe)
 Standard basis: def2QZVP (5D, 7F)
 Ernie: Thresh=  0.10000D-02 Tol=  0.10000D-05 Strict=F.
 There are   321 symmetry adapted cartesian basis functions of A   symmetry.
 There are   261 symmetry adapted basis functions of A   symmetry.
   261 basis functions,   390 primitive gaussians,   321 cartesian basis functions
    11 alpha electrons       11 beta electrons
       nuclear repulsion energy        58.3645161068 Hartrees.
 IExCor=  419 DFT=T Ex+Corr=B2PLYPD3 ExCW=0 ScaHFX=  0.530000
 ScaDFX=  0.470000  0.470000  0.730000  0.730000 ScalE2=  0.270000  0.270000
 IRadAn=      0 IRanWt=     -1 IRanGd=            0 ICorTp=0 IEmpDi=141
 NAtoms=    6 NActive=    6 NUniq=    6 SFac= 1.00D+00 NAtFMM=   60 NAOKFM=F Big=F
 Integral buffers will be    131072 words long.
 Regular integral format.
 Two-electron integral symmetry is turned on.
 R6Disp:  Grimme-D3(BJ) Dispersion energy=       -0.0021018436 Hartrees.
 Nuclear repulsion after empirical dispersion term =       58.3624142632 Hartrees.
 Leave Link  301 at Wed Aug 26 15:23:36 2020, MaxMem=  2097152000 cpu:         0.5
 (Enter /opt/cluster/programs/g09/g09_d.01/g09/l302.exe)
 NPDir=0 NMtPBC=     1 NCelOv=     1 NCel=       1 NClECP=     1 NCelD=      1
         NCelK=      1 NCelE2=     1 NClLst=     1 CellRange=     0.0.
 One-electron integrals computed using PRISM.
   1 Symmetry operations used in ECPInt.
 ECPInt:  NShTT=    3321 NPrTT=    8136 LenC2=    3293 LenP2D=    7123.
 LDataN:  DoStor=T MaxTD1= 8 Len=  415
 NBasis=   261 RedAO= T EigKep=  8.35D-05  NBF=   261
 NBsUse=   261 1.00D-06 EigRej= -1.00D+00 NBFU=   261
 Precomputing XC quadrature grid using
 IXCGrd= 4 IRadAn=           0 IRanWt=          -1 IRanGd=           0 AccXCQ= 0.00D+00.
 Generated NRdTot=       0 NPtTot=           0 NUsed=           0 NTot=          32
 NSgBfM=   321   321   321   321   321 MxSgAt=     6 MxSgA2=     6.
 Leave Link  302 at Wed Aug 26 15:23:36 2020, MaxMem=  2097152000 cpu:         2.4
 (Enter /opt/cluster/programs/g09/g09_d.01/g09/l303.exe)
 DipDrv:  MaxL=1.
 Leave Link  303 at Wed Aug 26 15:23:36 2020, MaxMem=  2097152000 cpu:         0.2
 (Enter /opt/cluster/programs/g09/g09_d.01/g09/l401.exe)
 ExpMin= 7.60D-02 ExpMax= 9.07D+04 ExpMxC= 8.76D+02 IAcc=2 IRadAn=         4 AccDes= 0.00D+00
 Harris functional with IExCor=  419 and IRadAn=       4 diagonalized for initial guess.
 HarFok:  IExCor=  419 AccDes= 0.00D+00 IRadAn=         4 IDoV= 1 UseB2=F ITyADJ=14
 ICtDFT=  3500011 ScaDFX=  1.000000  1.000000  1.000000  1.000000
 FoFCou: FMM=F IPFlag=           0 FMFlag=      100000 FMFlg1=           0
         NFxFlg=           0 DoJE=T BraDBF=F KetDBF=T FulRan=T
         wScrn=  0.000000 ICntrl=     500 IOpCl=  0 I1Cent=   200000004 NGrid=           0
         NMat0=    1 NMatS0=      1 NMatT0=    0 NMatD0=    1 NMtDS0=    0 NMtDT0=    0
 Petite list used in FoFCou.
 Harris En= -132.849063670189    
 JPrj=0 DoOrth=F DoCkMO=F.
 Leave Link  401 at Wed Aug 26 15:23:37 2020, MaxMem=  2097152000 cpu:         4.3
 (Enter /opt/cluster/programs/g09/g09_d.01/g09/l502.exe)
 Closed shell SCF:
 Using DIIS extrapolation, IDIIS=  1040.
 Integral symmetry usage will be decided dynamically.
 Keep R1 ints in memory in canonical form, NReq=601554820.
 IVT=      332521 IEndB=      332521 NGot=  2097152000 MDV=  1512290144
 LenX=  1512290144 LenY=  1512186662
 Requested convergence on RMS density matrix=1.00D-08 within 128 cycles.
 Requested convergence on MAX density matrix=1.00D-06.
 Requested convergence on             energy=1.00D-06.
 No special actions if energy rises.
 FoFCou: FMM=F IPFlag=           0 FMFlag=           0 FMFlg1=           0
         NFxFlg=           0 DoJE=F BraDBF=F KetDBF=F FulRan=T
         wScrn=  0.000000 ICntrl=     600 IOpCl=  0 I1Cent=           0 NGrid=           0
         NMat0=    1 NMatS0=  34191 NMatT0=    0 NMatD0=    1 NMtDS0=    0 NMtDT0=    0
 Symmetry not used in FoFCou.
 Integral accuracy reduced to 1.0D-05 until final iterations.

 Cycle   1  Pass 0  IDiag  1:
 E= -132.418604701058    
 DIIS: error= 2.45D-02 at cycle   1 NSaved=   1.
 NSaved= 1 IEnMin= 1 EnMin= -132.418604701058     IErMin= 1 ErrMin= 2.45D-02
 ErrMax= 2.45D-02  0.00D+00 EMaxC= 1.00D-01 BMatC= 1.90D-01 BMatP= 1.90D-01
 IDIUse=3 WtCom= 7.55D-01 WtEn= 2.45D-01
 Coeff-Com:  0.100D+01
 Coeff-En:   0.100D+01
 Coeff:      0.100D+01
 Gap=     0.453 Goal=   None    Shift=    0.000
 GapD=    0.453 DampG=2.000 DampE=0.500 DampFc=1.0000 IDamp=-1.
 RMSDP=1.29D-03 MaxDP=6.88D-02              OVMax= 1.66D-01

 Cycle   2  Pass 0  IDiag  1:
 E= -132.448636450071     Delta-E=       -0.030031749012 Rises=F Damp=F
 DIIS: error= 3.29D-02 at cycle   2 NSaved=   2.
 NSaved= 2 IEnMin= 2 EnMin= -132.448636450071     IErMin= 1 ErrMin= 2.45D-02
 ErrMax= 3.29D-02  0.00D+00 EMaxC= 1.00D-01 BMatC= 9.87D-02 BMatP= 1.90D-01
 IDIUse=3 WtCom= 6.71D-01 WtEn= 3.29D-01
 Coeff-Com:  0.403D+00 0.597D+00
 Coeff-En:   0.409D+00 0.591D+00
 Coeff:      0.405D+00 0.595D+00
 Gap=     0.443 Goal=   None    Shift=    0.000
 RMSDP=8.45D-04 MaxDP=3.38D-02 DE=-3.00D-02 OVMax= 1.25D-01

 Cycle   3  Pass 0  IDiag  1:
 E= -132.515589716826     Delta-E=       -0.066953266755 Rises=F Damp=F
 DIIS: error= 1.52D-02 at cycle   3 NSaved=   3.
 NSaved= 3 IEnMin= 3 EnMin= -132.515589716826     IErMin= 3 ErrMin= 1.52D-02
 ErrMax= 1.52D-02  0.00D+00 EMaxC= 1.00D-01 BMatC= 2.01D-02 BMatP= 9.87D-02
 IDIUse=3 WtCom= 8.48D-01 WtEn= 1.52D-01
 Coeff-Com:  0.954D-01 0.321D+00 0.583D+00
 Coeff-En:   0.000D+00 0.126D+00 0.874D+00
 Coeff:      0.809D-01 0.292D+00 0.628D+00
 Gap=     0.428 Goal=   None    Shift=    0.000
 RMSDP=2.69D-04 MaxDP=9.72D-03 DE=-6.70D-02 OVMax= 5.92D-02

 Cycle   4  Pass 0  IDiag  1:
 E= -132.529491753195     Delta-E=       -0.013902036369 Rises=F Damp=F
 DIIS: error= 5.44D-03 at cycle   4 NSaved=   4.
 NSaved= 4 IEnMin= 4 EnMin= -132.529491753195     IErMin= 4 ErrMin= 5.44D-03
 ErrMax= 5.44D-03  0.00D+00 EMaxC= 1.00D-01 BMatC= 3.01D-03 BMatP= 2.01D-02
 IDIUse=3 WtCom= 9.46D-01 WtEn= 5.44D-02
 Coeff-Com: -0.124D-01 0.513D-01 0.327D+00 0.634D+00
 Coeff-En:   0.000D+00 0.000D+00 0.139D+00 0.861D+00
 Coeff:     -0.117D-01 0.485D-01 0.317D+00 0.647D+00
 Gap=     0.428 Goal=   None    Shift=    0.000
 RMSDP=9.08D-05 MaxDP=2.82D-03 DE=-1.39D-02 OVMax= 1.58D-02

 Cycle   5  Pass 0  IDiag  1:
 E= -132.532092363161     Delta-E=       -0.002600609966 Rises=F Damp=F
 DIIS: error= 3.18D-04 at cycle   5 NSaved=   5.
 NSaved= 5 IEnMin= 5 EnMin= -132.532092363161     IErMin= 5 ErrMin= 3.18D-04
 ErrMax= 3.18D-04  0.00D+00 EMaxC= 1.00D-01 BMatC= 1.46D-05 BMatP= 3.01D-03
 IDIUse=3 WtCom= 9.97D-01 WtEn= 3.18D-03
 Coeff-Com: -0.362D-02 0.546D-02 0.509D-01 0.148D+00 0.799D+00
 Coeff-En:   0.000D+00 0.000D+00 0.000D+00 0.000D+00 0.100D+01
 Coeff:     -0.361D-02 0.544D-02 0.507D-01 0.148D+00 0.800D+00
 Gap=     0.427 Goal=   None    Shift=    0.000
 RMSDP=8.38D-06 MaxDP=3.07D-04 DE=-2.60D-03 OVMax= 1.29D-03

 Initial convergence to 1.0D-05 achieved.  Increase integral accuracy.
 Cycle   6  Pass 1  IDiag  1:
 E= -132.532104115358     Delta-E=       -0.000011752197 Rises=F Damp=F
 DIIS: error= 9.34D-05 at cycle   1 NSaved=   1.
 NSaved= 1 IEnMin= 1 EnMin= -132.532104115358     IErMin= 1 ErrMin= 9.34D-05
 ErrMax= 9.34D-05  0.00D+00 EMaxC= 1.00D-01 BMatC= 7.00D-07 BMatP= 7.00D-07
 IDIUse=1 WtCom= 1.00D+00 WtEn= 0.00D+00
 Coeff-Com:  0.100D+01
 Coeff:      0.100D+01
 Gap=     0.428 Goal=   None    Shift=    0.000
 RMSDP=8.38D-06 MaxDP=3.07D-04 DE=-1.18D-05 OVMax= 4.33D-04

 Cycle   7  Pass 1  IDiag  1:
 E= -132.532104530895     Delta-E=       -0.000000415537 Rises=F Damp=F
 DIIS: error= 4.05D-05 at cycle   2 NSaved=   2.
 NSaved= 2 IEnMin= 2 EnMin= -132.532104530895     IErMin= 2 ErrMin= 4.05D-05
 ErrMax= 4.05D-05  0.00D+00 EMaxC= 1.00D-01 BMatC= 3.33D-07 BMatP= 7.00D-07
 IDIUse=1 WtCom= 1.00D+00 WtEn= 0.00D+00
 Coeff-Com:  0.400D+00 0.600D+00
 Coeff:      0.400D+00 0.600D+00
 Gap=     0.428 Goal=   None    Shift=    0.000
 RMSDP=1.09D-06 MaxDP=4.08D-05 DE=-4.16D-07 OVMax= 1.90D-04

 Cycle   8  Pass 1  IDiag  1:
 E= -132.532104822075     Delta-E=       -0.000000291180 Rises=F Damp=F
 DIIS: error= 1.55D-05 at cycle   3 NSaved=   3.
 NSaved= 3 IEnMin= 3 EnMin= -132.532104822075     IErMin= 3 ErrMin= 1.55D-05
 ErrMax= 1.55D-05  0.00D+00 EMaxC= 1.00D-01 BMatC= 2.28D-08 BMatP= 3.33D-07
 IDIUse=1 WtCom= 1.00D+00 WtEn= 0.00D+00
 Coeff-Com:  0.111D+00 0.242D+00 0.647D+00
 Coeff:      0.111D+00 0.242D+00 0.647D+00
 Gap=     0.428 Goal=   None    Shift=    0.000
 RMSDP=5.81D-07 MaxDP=2.46D-05 DE=-2.91D-07 OVMax= 6.92D-05

 Cycle   9  Pass 1  IDiag  1:
 E= -132.532104836192     Delta-E=       -0.000000014117 Rises=F Damp=F
 DIIS: error= 1.15D-05 at cycle   4 NSaved=   4.
 NSaved= 4 IEnMin= 4 EnMin= -132.532104836192     IErMin= 4 ErrMin= 1.15D-05
 ErrMax= 1.15D-05  0.00D+00 EMaxC= 1.00D-01 BMatC= 7.60D-09 BMatP= 2.28D-08
 IDIUse=1 WtCom= 1.00D+00 WtEn= 0.00D+00
 Coeff-Com: -0.621D-01-0.404D-01 0.397D+00 0.706D+00
 Coeff:     -0.621D-01-0.404D-01 0.397D+00 0.706D+00
 Gap=     0.428 Goal=   None    Shift=    0.000
 RMSDP=3.07D-07 MaxDP=1.44D-05 DE=-1.41D-08 OVMax= 4.35D-05

 Cycle  10  Pass 1  IDiag  1:
 E= -132.532104843615     Delta-E=       -0.000000007422 Rises=F Damp=F
 DIIS: error= 1.06D-06 at cycle   5 NSaved=   5.
 NSaved= 5 IEnMin= 5 EnMin= -132.532104843615     IErMin= 5 ErrMin= 1.06D-06
 ErrMax= 1.06D-06  0.00D+00 EMaxC= 1.00D-01 BMatC= 1.27D-10 BMatP= 7.60D-09
 IDIUse=1 WtCom= 1.00D+00 WtEn= 0.00D+00
 Coeff-Com: -0.224D-01-0.218D-01 0.773D-01 0.203D+00 0.764D+00
 Coeff:     -0.224D-01-0.218D-01 0.773D-01 0.203D+00 0.764D+00
 Gap=     0.428 Goal=   None    Shift=    0.000
 RMSDP=4.72D-08 MaxDP=2.20D-06 DE=-7.42D-09 OVMax= 4.34D-06

 Cycle  11  Pass 1  IDiag  1:
 E= -132.532104843766     Delta-E=       -0.000000000151 Rises=F Damp=F
 DIIS: error= 3.16D-07 at cycle   6 NSaved=   6.
 NSaved= 6 IEnMin= 6 EnMin= -132.532104843766     IErMin= 6 ErrMin= 3.16D-07
 ErrMax= 3.16D-07  0.00D+00 EMaxC= 1.00D-01 BMatC= 9.60D-12 BMatP= 1.27D-10
 IDIUse=1 WtCom= 1.00D+00 WtEn= 0.00D+00
 Coeff-Com:  0.583D-02 0.320D-02-0.459D-01-0.595D-01 0.801D-01 0.102D+01
 Coeff:      0.583D-02 0.320D-02-0.459D-01-0.595D-01 0.801D-01 0.102D+01
 Gap=     0.428 Goal=   None    Shift=    0.000
 RMSDP=1.52D-08 MaxDP=4.37D-07 DE=-1.51D-10 OVMax= 3.01D-06

 Cycle  12  Pass 1  IDiag  1:
 E= -132.532104843795     Delta-E=       -0.000000000030 Rises=F Damp=F
 DIIS: error= 9.78D-08 at cycle   7 NSaved=   7.
 NSaved= 7 IEnMin= 7 EnMin= -132.532104843795     IErMin= 7 ErrMin= 9.78D-08
 ErrMax= 9.78D-08  0.00D+00 EMaxC= 1.00D-01 BMatC= 6.27D-13 BMatP= 9.60D-12
 IDIUse=1 WtCom= 1.00D+00 WtEn= 0.00D+00
 Coeff-Com: -0.923D-04 0.731D-03 0.923D-02 0.395D-02-0.831D-01-0.351D+00
 Coeff-Com:  0.142D+01
 Coeff:     -0.923D-04 0.731D-03 0.923D-02 0.395D-02-0.831D-01-0.351D+00
 Coeff:      0.142D+01
 Gap=     0.428 Goal=   None    Shift=    0.000
 RMSDP=6.30D-09 MaxDP=2.04D-07 DE=-2.95D-11 OVMax= 1.56D-06

 SCF Done:  E(RB2PLYPD3) =  -132.532104844     A.U. after   12 cycles
            NFock= 12  Conv=0.63D-08     -V/T= 2.0037
 KE= 1.320395370522D+02 PE=-4.253285869220D+02 EE= 1.023945307628D+02
 Leave Link  502 at Wed Aug 26 15:23:59 2020, MaxMem=  2097152000 cpu:       100.8
 (Enter /opt/cluster/programs/g09/g09_d.01/g09/l801.exe)
 DoSCS=T DFT=T ScalE2(SS,OS)=  0.270000  0.270000
 ExpMin= 7.60D-02 ExpMax= 9.07D+04 ExpMxC= 8.76D+02 IAcc=3 IRadAn=         5 AccDes= 0.00D+00
 HarFok:  IExCor=  205 AccDes= 0.00D+00 IRadAn=         5 IDoV=-2 UseB2=F ITyADJ=14
 ICtDFT= 12500011 ScaDFX=  1.000000  1.000000  1.000000  1.000000
 Largest valence mixing into a core orbital is  1.16D-04
 Largest core mixing into a valence orbital is  1.93D-05
 Range of M.O.s used for correlation:     4   261
 NBasis=   261 NAE=    11 NBE=    11 NFC=     3 NFV=     0
 NROrb=    258 NOA=     8 NOB=     8 NVA=   250 NVB=   250

 **** Warning!!: The largest alpha MO coefficient is  0.32870789D+02

 Leave Link  801 at Wed Aug 26 15:23:59 2020, MaxMem=  2097152000 cpu:         0.7
 (Enter /opt/cluster/programs/g09/g09_d.01/g09/l906.exe)
 DoSCS=T DFT=T ScalE2(SS,OS)=  0.270000  0.270000
 FulOut=F Deriv=F AODrv=F NAtomX=     6
   MMem=        2666  MDisk=           8 MDiskD=           8
  W3Min=      642000 MinDsk=     1426009 NBas6D=         321
 NBas2D=       52689    NTT=       51681    LW2=     4508827
    MDV=  2096809413 MDiskM=       14501 NBas2p=       52155
 Fully direct method using O(OVN) memory.
 IMap=   1   2   3   4   5   6   7   8
 JobTyp=1 Pass  1:  I=   1 to   8 NPSUse=  8 ParTrn=T ParDer=T DoDerP=F.
 Spin components of T(2) and E(2):
     alpha-alpha T2 =       0.3567687682D-01 E2=     -0.2138987616D-01
     alpha-beta  T2 =       0.2089305130D+00 E2=     -0.1376544343D+00
     beta-beta   T2 =       0.3567687682D-01 E2=     -0.2138987616D-01
 The integrals were generated   1 times.
 E2(B2PLYPD3) =    -0.1804341867D+00 E(B2PLYPD3) =    -0.13271253903045D+03
 Leave Link  906 at Wed Aug 26 15:24:14 2020, MaxMem=  2097152000 cpu:       118.8
 (Enter /opt/cluster/programs/g09/g09_d.01/g09/l601.exe)
 Copying SCF densities to generalized density rwf, IOpCl= 0 IROHF=0.

 **********************************************************************

            Population analysis using the SCF density.

 **********************************************************************

 Orbital symmetries:
       Occupied  (A) (A) (A) (A) (A) (A) (A) (A) (A) (A) (A)
       Virtual   (A) (A) (A) (A) (A) (A) (A) (A) (A) (A) (A) (A)
                 (A) (A) (A) (A) (A) (A) (A) (A) (A) (A) (A) (A)
                 (A) (A) (A) (A) (A) (A) (A) (A) (A) (A) (A) (A)
                 (A) (A) (A) (A) (A) (A) (A) (A) (A) (A) (A) (A)
                 (A) (A) (A) (A) (A) (A) (A) (A) (A) (A) (A) (A)
                 (A) (A) (A) (A) (A) (A) (A) (A) (A) (A) (A) (A)
                 (A) (A) (A) (A) (A) (A) (A) (A) (A) (A) (A) (A)
                 (A) (A) (A) (A) (A) (A) (A) (A) (A) (A) (A) (A)
                 (A) (A) (A) (A) (A) (A) (A) (A) (A) (A) (A) (A)
                 (A) (A) (A) (A) (A) (A) (A) (A) (A) (A) (A) (A)
                 (A) (A) (A) (A) (A) (A) (A) (A) (A) (A) (A) (A)
                 (A) (A) (A) (A) (A) (A) (A) (A) (A) (A) (A) (A)
                 (A) (A) (A) (A) (A) (A) (A) (A) (A) (A) (A) (A)
                 (A) (A) (A) (A) (A) (A) (A) (A) (A) (A) (A) (A)
                 (A) (A) (A) (A) (A) (A) (A) (A) (A) (A) (A) (A)
                 (A) (A) (A) (A) (A) (A) (A) (A) (A) (A) (A) (A)
                 (A) (A) (A) (A) (A) (A) (A) (A) (A) (A) (A) (A)
                 (A) (A) (A) (A) (A) (A) (A) (A) (A) (A) (A) (A)
                 (A) (A) (A) (A) (A) (A) (A) (A) (A) (A) (A) (A)
                 (A) (A) (A) (A) (A) (A) (A) (A) (A) (A) (A) (A)
                 (A) (A) (A) (A) (A) (A) (A) (A) (A) (A)
 The electronic state is 1-A.
 Alpha  occ. eigenvalues --  -14.84141 -10.67274 -10.66236  -1.04125  -0.89030
 Alpha  occ. eigenvalues --   -0.59122  -0.54905  -0.53019  -0.44718  -0.39183
 Alpha  occ. eigenvalues --   -0.39096
 Alpha virt. eigenvalues --    0.03659   0.07539   0.08673   0.10167   0.11215
 Alpha virt. eigenvalues --    0.11508   0.15210   0.15681   0.16865   0.20028
 Alpha virt. eigenvalues --    0.20137   0.25108   0.32553   0.34351   0.34920
 Alpha virt. eigenvalues --    0.38510   0.39496   0.40015   0.40350   0.46834
 Alpha virt. eigenvalues --    0.49700   0.53179   0.58050   0.60279   0.61396
 Alpha virt. eigenvalues --    0.66299   0.68032   0.68857   0.70483   0.79024
 Alpha virt. eigenvalues --    0.79778   0.81974   0.82394   0.83414   0.86676
 Alpha virt. eigenvalues --    0.90787   0.94009   0.94978   0.95739   0.98413
 Alpha virt. eigenvalues --    1.05566   1.06401   1.09000   1.11379   1.13472
 Alpha virt. eigenvalues --    1.14314   1.22066   1.22775   1.24314   1.34616
 Alpha virt. eigenvalues --    1.35735   1.43913   1.46237   1.50371   1.54163
 Alpha virt. eigenvalues --    1.64275   1.67116   1.70876   1.73488   1.77810
 Alpha virt. eigenvalues --    1.78367   1.79453   1.88305   1.90401   1.92265
 Alpha virt. eigenvalues --    1.95455   1.98613   2.00045   2.01328   2.04054
 Alpha virt. eigenvalues --    2.06101   2.09905   2.14581   2.18602   2.19766
 Alpha virt. eigenvalues --    2.23042   2.25835   2.26220   2.33797   2.35209
 Alpha virt. eigenvalues --    2.41699   2.49637   2.51720   2.57295   2.59305
 Alpha virt. eigenvalues --    2.60511   2.66586   2.69277   2.71629   2.72335
 Alpha virt. eigenvalues --    2.76761   2.77482   2.85443   2.88536   2.90316
 Alpha virt. eigenvalues --    2.92472   2.93059   2.95526   2.96688   3.05563
 Alpha virt. eigenvalues --    3.08641   3.13531   3.21497   3.27286   3.31825
 Alpha virt. eigenvalues --    3.33646   3.37632   3.40139   3.40556   3.46581
 Alpha virt. eigenvalues --    3.51820   3.60102   3.69920   3.74416   3.76703
 Alpha virt. eigenvalues --    3.87163   3.89907   3.93189   3.94350   3.96631
 Alpha virt. eigenvalues --    4.01157   4.04478   4.05843   4.25562   4.26882
 Alpha virt. eigenvalues --    4.53871   4.91469   4.91506   5.05324   5.08341
 Alpha virt. eigenvalues --    5.11195   5.12162   5.19005   5.21133   5.28470
 Alpha virt. eigenvalues --    5.31522   5.43793   5.47483   5.47852   5.64270
 Alpha virt. eigenvalues --    5.69360   5.84793   5.85871   5.90371   5.92784
 Alpha virt. eigenvalues --    5.93556   5.95967   5.97952   6.00008   6.01599
 Alpha virt. eigenvalues --    6.03116   6.04958   6.06493   6.08093   6.14377
 Alpha virt. eigenvalues --    6.17365   6.18904   6.21734   6.27593   6.33299
 Alpha virt. eigenvalues --    6.37487   6.38793   6.52005   6.54918   6.58310
 Alpha virt. eigenvalues --    6.62702   6.64153   6.84382   6.90128   6.92879
 Alpha virt. eigenvalues --    6.96854   7.02673   7.02711   7.06273   7.11432
 Alpha virt. eigenvalues --    7.15090   7.21602   7.24142   7.40237   7.48322
 Alpha virt. eigenvalues --    7.49853   7.50779   7.55990   7.56552   7.59818
 Alpha virt. eigenvalues --    7.67202   7.72516   7.74031   7.81436   7.82472
 Alpha virt. eigenvalues --    7.83760   7.94016   7.95381   8.01426   8.19192
 Alpha virt. eigenvalues --    8.26996   8.37883   8.39908   8.42657   8.45205
 Alpha virt. eigenvalues --    8.46677   8.47720   8.49855   8.52193   8.57735
 Alpha virt. eigenvalues --    8.59494   8.62843   8.66754   8.66948   8.68648
 Alpha virt. eigenvalues --    8.74134   8.80933   8.87061   8.89780   9.00572
 Alpha virt. eigenvalues --    9.02268   9.09273   9.12843   9.20729   9.21267
 Alpha virt. eigenvalues --    9.24784   9.26778   9.67581   9.74077   9.79919
 Alpha virt. eigenvalues --    9.85444   9.88364   9.94115  10.00007  10.05882
 Alpha virt. eigenvalues --   10.13438  10.15116  10.21157  10.29723  10.38167
 Alpha virt. eigenvalues --   10.56778  10.69622  11.37403  11.65554  11.81457
 Alpha virt. eigenvalues --   11.94434  12.06039  13.11725  13.49959  29.18264
 Alpha virt. eigenvalues --   29.47690  38.32209 148.84238 149.10205 198.24367
          Condensed to atoms (all electrons):
               1          2          3          4          5          6
     1  C    4.610053   0.302657  -0.058563   0.414433   0.411470   0.411346
     2  C    0.302657   4.845462   0.983118  -0.037564  -0.051580  -0.039334
     3  N   -0.058563   0.983118   6.282565  -0.001437   0.000161  -0.000569
     4  H    0.414433  -0.037564  -0.001437   0.587280  -0.028615  -0.031975
     5  H    0.411470  -0.051580   0.000161  -0.028615   0.591999  -0.027551
     6  H    0.411346  -0.039334  -0.000569  -0.031975  -0.027551   0.590649
 Mulliken charges:
               1
     1  C   -0.091396
     2  C   -0.002759
     3  N   -0.205273
     4  H    0.097878
     5  H    0.104116
     6  H    0.097434
 Sum of Mulliken charges =   0.00000
 Mulliken charges with hydrogens summed into heavy atoms:
               1
     1  C    0.208032
     2  C   -0.002759
     3  N   -0.205273
 Electronic spatial extent (au):  <R**2>=            162.6334
 Charge=              0.0000 electrons
 Dipole moment (field-independent basis, Debye):
    X=              4.1185    Y=              0.0344    Z=             -0.0208  Tot=              4.1187
 Quadrupole moment (field-independent basis, Debye-Ang):
   XX=            -21.0807   YY=            -17.6729   ZZ=            -17.7997
   XY=             -0.2391   XZ=              0.1011   YZ=              0.0078
 Traceless Quadrupole moment (field-independent basis, Debye-Ang):
   XX=             -2.2296   YY=              1.1782   ZZ=              1.0514
   XY=             -0.2391   XZ=              0.1011   YZ=              0.0078
 Octapole moment (field-independent basis, Debye-Ang**2):
  XXX=             12.7407  YYY=              0.8526  ZZZ=              0.1833  XYY=              2.2461
  XXY=             -0.5322  XXZ=              0.1360  XZZ=              2.2492  YZZ=             -0.8002
  YYZ=             -0.0751  XYZ=              0.0128
 Hexadecapole moment (field-independent basis, Debye-Ang**3):
 XXXX=           -183.6770 YYYY=            -24.4214 ZZZZ=            -24.9855 XXXY=             -1.4283
 XXXZ=              0.5146 YYYX=              1.2562 YYYZ=              0.0354 ZZZX=              0.2083
 ZZZY=             -0.0169 XXYY=            -31.4709 XXZZ=            -31.1385 YYZZ=             -8.2065
 XXYZ=              0.0086 YYXZ=             -0.1601 ZZXY=             -1.3859
 N-N= 5.836241426321D+01 E-N=-4.253285881217D+02  KE= 1.320395370522D+02
 Leave Link  601 at Wed Aug 26 15:24:14 2020, MaxMem=  2097152000 cpu:         0.4
 (Enter /opt/cluster/programs/g09/g09_d.01/g09/l9999.exe)
 1\1\GINC-NODE19\SP\RB2PLYPD3-FC\def2QZVP\C2H3N1\BOITTIER\26-Aug-2020\0
 \\#p B2PLYPD3/Def2QZVP\\cyanomethane\\0,1\C,0,-6.609654,-1.111381,1.17
 6425\C,0,-5.199265,-0.801939,0.868302\N,0,-4.086723,-0.535526,0.724195
 \H,0,-6.806775,-1.200683,2.263343\H,0,-6.764695,-2.02883,0.684645\H,0,
 -7.27019,-0.31509,0.794067\\Version=ES64L-G09RevD.01\State=1-A\HF=-132
 .5321048\MP2=-132.712539\RMSD=6.301e-09\PG=C01 [X(C2H3N1)]\\@


 CHINESE FORTUNE COOKIE OF JAN 1 1967 SAY....
 ALL THINGS ARE DIFFICULT BEFORE THEY ARE EASY.
 WE LEARN SO LITTLE AND FORGET SO MUCH.
 YOU WILL OVERCOME OBSTACLES TO ACHIEVE SUCCESS.
 AH SO.
 Job cpu time:       0 days  0 hours  3 minutes 49.5 seconds.
 File lengths (MBytes):  RWF=     28 Int=      0 D2E=      0 Chk=      5 Scr=      1
 Normal termination of Gaussian 09 at Wed Aug 26 15:24:14 2020.
