 Entering Gaussian System, Link 0=/opt/cluster/programs/g09/g09_d.01/g09//g09
 Input=/home/boittier/MDCM/nms_sampling/cyanomethane_geom.xyz.dir/energies/cyanomethane_694_energy.com
 Output=/scratch/boittier/cyanomethane_694_energy/cyanomethane_694_energy.out
 Initial command:
 /opt/cluster/programs/g09/g09_d.01/g09/l1.exe "/scratch/boittier/cyanomethane_694_energy/Gau-218663.inp" -scrdir="/scratch/boittier/cyanomethane_694_energy/"
 Entering Link 1 = /opt/cluster/programs/g09/g09_d.01/g09/l1.exe PID=    218665.
  
 Copyright (c) 1988,1990,1992,1993,1995,1998,2003,2009,2013,
            Gaussian, Inc.  All Rights Reserved.
  
 This is part of the Gaussian(R) 09 program.  It is based on
 the Gaussian(R) 03 system (copyright 2003, Gaussian, Inc.),
 the Gaussian(R) 98 system (copyright 1998, Gaussian, Inc.),
 the Gaussian(R) 94 system (copyright 1995, Gaussian, Inc.),
 the Gaussian 92(TM) system (copyright 1992, Gaussian, Inc.),
 the Gaussian 90(TM) system (copyright 1990, Gaussian, Inc.),
 the Gaussian 88(TM) system (copyright 1988, Gaussian, Inc.),
 the Gaussian 86(TM) system (copyright 1986, Carnegie Mellon
 University), and the Gaussian 82(TM) system (copyright 1983,
 Carnegie Mellon University). Gaussian is a federally registered
 trademark of Gaussian, Inc.
  
 This software contains proprietary and confidential information,
 including trade secrets, belonging to Gaussian, Inc.
  
 This software is provided under written license and may be
 used, copied, transmitted, or stored only in accord with that
 written license.
  
 The following legend is applicable only to US Government
 contracts under FAR:
  
                    RESTRICTED RIGHTS LEGEND
  
 Use, reproduction and disclosure by the US Government is
 subject to restrictions as set forth in subparagraphs (a)
 and (c) of the Commercial Computer Software - Restricted
 Rights clause in FAR 52.227-19.
  
 Gaussian, Inc.
 340 Quinnipiac St., Bldg. 40, Wallingford CT 06492
  
  
 ---------------------------------------------------------------
 Warning -- This program may not be used in any manner that
 competes with the business of Gaussian, Inc. or will provide
 assistance to any competitor of Gaussian, Inc.  The licensee
 of this program is prohibited from giving any competitor of
 Gaussian, Inc. access to this program.  By using this program,
 the user acknowledges that Gaussian, Inc. is engaged in the
 business of creating and licensing software in the field of
 computational chemistry and represents and warrants to the
 licensee that it is not a competitor of Gaussian, Inc. and that
 it will not use this program in any manner prohibited above.
 ---------------------------------------------------------------
  

 Cite this work as:
 Gaussian 09, Revision D.01,
 M. J. Frisch, G. W. Trucks, H. B. Schlegel, G. E. Scuseria, 
 M. A. Robb, J. R. Cheeseman, G. Scalmani, V. Barone, B. Mennucci, 
 G. A. Petersson, H. Nakatsuji, M. Caricato, X. Li, H. P. Hratchian, 
 A. F. Izmaylov, J. Bloino, G. Zheng, J. L. Sonnenberg, M. Hada, 
 M. Ehara, K. Toyota, R. Fukuda, J. Hasegawa, M. Ishida, T. Nakajima, 
 Y. Honda, O. Kitao, H. Nakai, T. Vreven, J. A. Montgomery, Jr., 
 J. E. Peralta, F. Ogliaro, M. Bearpark, J. J. Heyd, E. Brothers, 
 K. N. Kudin, V. N. Staroverov, T. Keith, R. Kobayashi, J. Normand, 
 K. Raghavachari, A. Rendell, J. C. Burant, S. S. Iyengar, J. Tomasi, 
 M. Cossi, N. Rega, J. M. Millam, M. Klene, J. E. Knox, J. B. Cross, 
 V. Bakken, C. Adamo, J. Jaramillo, R. Gomperts, R. E. Stratmann, 
 O. Yazyev, A. J. Austin, R. Cammi, C. Pomelli, J. W. Ochterski, 
 R. L. Martin, K. Morokuma, V. G. Zakrzewski, G. A. Voth, 
 P. Salvador, J. J. Dannenberg, S. Dapprich, A. D. Daniels, 
 O. Farkas, J. B. Foresman, J. V. Ortiz, J. Cioslowski, 
 and D. J. Fox, Gaussian, Inc., Wallingford CT, 2013.
 
 ******************************************
 Gaussian 09:  ES64L-G09RevD.01 24-Apr-2013
                27-Aug-2020 
 ******************************************
 %chk=/home/boittier/MDCM/nms_sampling/cyanomethane_geom.xyz.dir/cyanomethane_694
 .chk
 %nproc=8
 Will use up to    8 processors via shared memory.
 %mem=16000MB
 --------------------
 #p B2PLYPD3/Def2QZVP
 --------------------
 1/38=1/1;
 2/12=2,17=6,18=5,40=1/2;
 3/5=45,7=101,11=9,16=1,25=1,30=1,74=-60/1,2,3;
 4//1;
 5/5=2,38=5/2;
 8/10=1/1;
 9/16=-3/6;
 6/7=2,8=2,9=2,10=2/1;
 99/5=1,9=1/99;
 Leave Link    1 at Thu Aug 27 00:05:43 2020, MaxMem=  2097152000 cpu:         0.3
 (Enter /opt/cluster/programs/g09/g09_d.01/g09/l101.exe)
 ------------
 cyanomethane
 ------------
 Symbolic Z-matrix:
 Charge =  0 Multiplicity = 1
 C                    -6.59346  -1.118     1.16477 
 C                    -5.20327  -0.77312   0.90796 
 N                    -4.09427  -0.54552   0.7025 
 H                    -6.78776  -1.26406   2.23942 
 H                    -6.87751  -2.0357    0.64852 
 H                    -7.21671  -0.34305   0.81011 
 
 NAtoms=      6 NQM=        6 NQMF=       0 NMMI=      0 NMMIF=      0
                NMic=       0 NMicF=      0.
                    Isotopes and Nuclear Properties:
 (Nuclear quadrupole moments (NQMom) in fm**2, nuclear magnetic moments (NMagM)
  in nuclear magnetons)

  Atom         1           2           3           4           5           6
 IAtWgt=          12          12          14           1           1           1
 AtmWgt=  12.0000000  12.0000000  14.0030740   1.0078250   1.0078250   1.0078250
 NucSpn=           0           0           2           1           1           1
 AtZEff=   0.0000000   0.0000000   0.0000000   0.0000000   0.0000000   0.0000000
 NQMom=    0.0000000   0.0000000   2.0440000   0.0000000   0.0000000   0.0000000
 NMagM=    0.0000000   0.0000000   0.4037610   2.7928460   2.7928460   2.7928460
 AtZNuc=   6.0000000   6.0000000   7.0000000   1.0000000   1.0000000   1.0000000
 Leave Link  101 at Thu Aug 27 00:05:46 2020, MaxMem=  2097152000 cpu:         0.4
 (Enter /opt/cluster/programs/g09/g09_d.01/g09/l202.exe)
                          Input orientation:                          
 ---------------------------------------------------------------------
 Center     Atomic      Atomic             Coordinates (Angstroms)
 Number     Number       Type             X           Y           Z
 ---------------------------------------------------------------------
      1          6           0       -6.593462   -1.118002    1.164772
      2          6           0       -5.203273   -0.773120    0.907962
      3          7           0       -4.094275   -0.545517    0.702502
      4          1           0       -6.787760   -1.264059    2.239418
      5          1           0       -6.877510   -2.035698    0.648518
      6          1           0       -7.216705   -0.343045    0.810107
 ---------------------------------------------------------------------
                    Distance matrix (angstroms):
                    1          2          3          4          5
     1  C    0.000000
     2  C    1.455170   0.000000
     3  N    2.605258   1.150606   0.000000
     4  H    1.101793   2.127063   3.183281   0.000000
     5  H    1.090581   2.112933   3.157523   1.770436   0.000000
     6  H    1.055830   2.061176   3.130837   1.753622   1.733851
                    6
     6  H    0.000000
 Stoichiometry    C2H3N
 Framework group  C1[X(C2H3N)]
 Deg. of freedom    12
 Full point group                 C1      NOp   1
 Largest Abelian subgroup         C1      NOp   1
 Largest concise Abelian subgroup C1      NOp   1
                         Standard orientation:                         
 ---------------------------------------------------------------------
 Center     Atomic      Atomic             Coordinates (Angstroms)
 Number     Number       Type             X           Y           Z
 ---------------------------------------------------------------------
      1          6           0        1.173198   -0.001617   -0.000376
      2          6           0       -0.281834    0.004532    0.018715
      3          7           0       -1.432037   -0.000696   -0.011279
      4          1           0        1.583824    0.985838   -0.265457
      5          1           0        1.558493   -0.725148   -0.719693
      6          1           0        1.533757   -0.273308    0.954066
 ---------------------------------------------------------------------
 Rotational constants (GHZ):    162.9611998      9.2689339      9.2572564
 Leave Link  202 at Thu Aug 27 00:05:47 2020, MaxMem=  2097152000 cpu:         0.1
 (Enter /opt/cluster/programs/g09/g09_d.01/g09/l301.exe)
 Standard basis: def2QZVP (5D, 7F)
 Ernie: Thresh=  0.10000D-02 Tol=  0.10000D-05 Strict=F.
 There are   321 symmetry adapted cartesian basis functions of A   symmetry.
 There are   261 symmetry adapted basis functions of A   symmetry.
   261 basis functions,   390 primitive gaussians,   321 cartesian basis functions
    11 alpha electrons       11 beta electrons
       nuclear repulsion energy        58.7006555111 Hartrees.
 IExCor=  419 DFT=T Ex+Corr=B2PLYPD3 ExCW=0 ScaHFX=  0.530000
 ScaDFX=  0.470000  0.470000  0.730000  0.730000 ScalE2=  0.270000  0.270000
 IRadAn=      0 IRanWt=     -1 IRanGd=            0 ICorTp=0 IEmpDi=141
 NAtoms=    6 NActive=    6 NUniq=    6 SFac= 1.00D+00 NAtFMM=   60 NAOKFM=F Big=F
 Integral buffers will be    131072 words long.
 Regular integral format.
 Two-electron integral symmetry is turned on.
 R6Disp:  Grimme-D3(BJ) Dispersion energy=       -0.0021027171 Hartrees.
 Nuclear repulsion after empirical dispersion term =       58.6985527939 Hartrees.
 Leave Link  301 at Thu Aug 27 00:05:47 2020, MaxMem=  2097152000 cpu:         0.4
 (Enter /opt/cluster/programs/g09/g09_d.01/g09/l302.exe)
 NPDir=0 NMtPBC=     1 NCelOv=     1 NCel=       1 NClECP=     1 NCelD=      1
         NCelK=      1 NCelE2=     1 NClLst=     1 CellRange=     0.0.
 One-electron integrals computed using PRISM.
   1 Symmetry operations used in ECPInt.
 ECPInt:  NShTT=    3321 NPrTT=    8136 LenC2=    3293 LenP2D=    7126.
 LDataN:  DoStor=T MaxTD1= 8 Len=  415
 NBasis=   261 RedAO= T EigKep=  8.01D-05  NBF=   261
 NBsUse=   261 1.00D-06 EigRej= -1.00D+00 NBFU=   261
 Precomputing XC quadrature grid using
 IXCGrd= 4 IRadAn=           0 IRanWt=          -1 IRanGd=           0 AccXCQ= 0.00D+00.
 Generated NRdTot=       0 NPtTot=           0 NUsed=           0 NTot=          32
 NSgBfM=   321   321   321   321   321 MxSgAt=     6 MxSgA2=     6.
 Leave Link  302 at Thu Aug 27 00:05:49 2020, MaxMem=  2097152000 cpu:         2.2
 (Enter /opt/cluster/programs/g09/g09_d.01/g09/l303.exe)
 DipDrv:  MaxL=1.
 Leave Link  303 at Thu Aug 27 00:05:50 2020, MaxMem=  2097152000 cpu:         0.2
 (Enter /opt/cluster/programs/g09/g09_d.01/g09/l401.exe)
 ExpMin= 7.60D-02 ExpMax= 9.07D+04 ExpMxC= 8.76D+02 IAcc=2 IRadAn=         4 AccDes= 0.00D+00
 Harris functional with IExCor=  419 and IRadAn=       4 diagonalized for initial guess.
 HarFok:  IExCor=  419 AccDes= 0.00D+00 IRadAn=         4 IDoV= 1 UseB2=F ITyADJ=14
 ICtDFT=  3500011 ScaDFX=  1.000000  1.000000  1.000000  1.000000
 FoFCou: FMM=F IPFlag=           0 FMFlag=      100000 FMFlg1=           0
         NFxFlg=           0 DoJE=T BraDBF=F KetDBF=T FulRan=T
         wScrn=  0.000000 ICntrl=     500 IOpCl=  0 I1Cent=   200000004 NGrid=           0
         NMat0=    1 NMatS0=      1 NMatT0=    0 NMatD0=    1 NMtDS0=    0 NMtDT0=    0
 Petite list used in FoFCou.
 Harris En= -132.854259917658    
 JPrj=0 DoOrth=F DoCkMO=F.
 Leave Link  401 at Thu Aug 27 00:05:51 2020, MaxMem=  2097152000 cpu:         4.0
 (Enter /opt/cluster/programs/g09/g09_d.01/g09/l502.exe)
 Closed shell SCF:
 Using DIIS extrapolation, IDIIS=  1040.
 Integral symmetry usage will be decided dynamically.
 Keep R1 ints in memory in canonical form, NReq=601554820.
 IVT=      332521 IEndB=      332521 NGot=  2097152000 MDV=  1512290144
 LenX=  1512290144 LenY=  1512186662
 Requested convergence on RMS density matrix=1.00D-08 within 128 cycles.
 Requested convergence on MAX density matrix=1.00D-06.
 Requested convergence on             energy=1.00D-06.
 No special actions if energy rises.
 FoFCou: FMM=F IPFlag=           0 FMFlag=           0 FMFlg1=           0
         NFxFlg=           0 DoJE=F BraDBF=F KetDBF=F FulRan=T
         wScrn=  0.000000 ICntrl=     600 IOpCl=  0 I1Cent=           0 NGrid=           0
         NMat0=    1 NMatS0=  34191 NMatT0=    0 NMatD0=    1 NMtDS0=    0 NMtDT0=    0
 Symmetry not used in FoFCou.
 Integral accuracy reduced to 1.0D-05 until final iterations.

 Cycle   1  Pass 0  IDiag  1:
 E= -132.419716777634    
 DIIS: error= 3.11D-02 at cycle   1 NSaved=   1.
 NSaved= 1 IEnMin= 1 EnMin= -132.419716777634     IErMin= 1 ErrMin= 3.11D-02
 ErrMax= 3.11D-02  0.00D+00 EMaxC= 1.00D-01 BMatC= 1.92D-01 BMatP= 1.92D-01
 IDIUse=3 WtCom= 6.89D-01 WtEn= 3.11D-01
 Coeff-Com:  0.100D+01
 Coeff-En:   0.100D+01
 Coeff:      0.100D+01
 Gap=     0.461 Goal=   None    Shift=    0.000
 GapD=    0.461 DampG=2.000 DampE=0.500 DampFc=1.0000 IDamp=-1.
 RMSDP=1.29D-03 MaxDP=6.85D-02              OVMax= 1.64D-01

 Cycle   2  Pass 0  IDiag  1:
 E= -132.454928139090     Delta-E=       -0.035211361456 Rises=F Damp=F
 DIIS: error= 3.32D-02 at cycle   2 NSaved=   2.
 NSaved= 2 IEnMin= 2 EnMin= -132.454928139090     IErMin= 1 ErrMin= 3.11D-02
 ErrMax= 3.32D-02  0.00D+00 EMaxC= 1.00D-01 BMatC= 9.48D-02 BMatP= 1.92D-01
 IDIUse=3 WtCom= 6.68D-01 WtEn= 3.32D-01
 Coeff-Com:  0.396D+00 0.604D+00
 Coeff-En:   0.391D+00 0.609D+00
 Coeff:      0.394D+00 0.606D+00
 Gap=     0.439 Goal=   None    Shift=    0.000
 RMSDP=8.48D-04 MaxDP=3.37D-02 DE=-3.52D-02 OVMax= 1.21D-01

 Cycle   3  Pass 0  IDiag  1:
 E= -132.519090691587     Delta-E=       -0.064162552497 Rises=F Damp=F
 DIIS: error= 1.59D-02 at cycle   3 NSaved=   3.
 NSaved= 3 IEnMin= 3 EnMin= -132.519090691587     IErMin= 3 ErrMin= 1.59D-02
 ErrMax= 1.59D-02  0.00D+00 EMaxC= 1.00D-01 BMatC= 1.97D-02 BMatP= 9.48D-02
 IDIUse=3 WtCom= 8.41D-01 WtEn= 1.59D-01
 Coeff-Com:  0.956D-01 0.325D+00 0.579D+00
 Coeff-En:   0.000D+00 0.122D+00 0.878D+00
 Coeff:      0.804D-01 0.293D+00 0.627D+00
 Gap=     0.429 Goal=   None    Shift=    0.000
 RMSDP=2.70D-04 MaxDP=9.87D-03 DE=-6.42D-02 OVMax= 5.94D-02

 Cycle   4  Pass 0  IDiag  1:
 E= -132.532387814222     Delta-E=       -0.013297122635 Rises=F Damp=F
 DIIS: error= 6.04D-03 at cycle   4 NSaved=   4.
 NSaved= 4 IEnMin= 4 EnMin= -132.532387814222     IErMin= 4 ErrMin= 6.04D-03
 ErrMax= 6.04D-03  0.00D+00 EMaxC= 1.00D-01 BMatC= 3.23D-03 BMatP= 1.97D-02
 IDIUse=3 WtCom= 9.40D-01 WtEn= 6.04D-02
 Coeff-Com: -0.123D-01 0.529D-01 0.335D+00 0.624D+00
 Coeff-En:   0.000D+00 0.000D+00 0.155D+00 0.845D+00
 Coeff:     -0.116D-01 0.497D-01 0.324D+00 0.638D+00
 Gap=     0.430 Goal=   None    Shift=    0.000
 RMSDP=9.39D-05 MaxDP=2.85D-03 DE=-1.33D-02 OVMax= 1.64D-02

 Cycle   5  Pass 0  IDiag  1:
 E= -132.535164137494     Delta-E=       -0.002776323271 Rises=F Damp=F
 DIIS: error= 3.30D-04 at cycle   5 NSaved=   5.
 NSaved= 5 IEnMin= 5 EnMin= -132.535164137494     IErMin= 5 ErrMin= 3.30D-04
 ErrMax= 3.30D-04  0.00D+00 EMaxC= 1.00D-01 BMatC= 1.52D-05 BMatP= 3.23D-03
 IDIUse=3 WtCom= 9.97D-01 WtEn= 3.30D-03
 Coeff-Com: -0.336D-02 0.474D-02 0.463D-01 0.138D+00 0.814D+00
 Coeff-En:   0.000D+00 0.000D+00 0.000D+00 0.000D+00 0.100D+01
 Coeff:     -0.335D-02 0.473D-02 0.462D-01 0.138D+00 0.815D+00
 Gap=     0.429 Goal=   None    Shift=    0.000
 RMSDP=8.54D-06 MaxDP=3.22D-04 DE=-2.78D-03 OVMax= 1.27D-03

 Initial convergence to 1.0D-05 achieved.  Increase integral accuracy.
 Cycle   6  Pass 1  IDiag  1:
 E= -132.535179217422     Delta-E=       -0.000015079929 Rises=F Damp=F
 DIIS: error= 8.85D-05 at cycle   1 NSaved=   1.
 NSaved= 1 IEnMin= 1 EnMin= -132.535179217422     IErMin= 1 ErrMin= 8.85D-05
 ErrMax= 8.85D-05  0.00D+00 EMaxC= 1.00D-01 BMatC= 5.99D-07 BMatP= 5.99D-07
 IDIUse=1 WtCom= 1.00D+00 WtEn= 0.00D+00
 Coeff-Com:  0.100D+01
 Coeff:      0.100D+01
 Gap=     0.430 Goal=   None    Shift=    0.000
 RMSDP=8.54D-06 MaxDP=3.22D-04 DE=-1.51D-05 OVMax= 3.96D-04

 Cycle   7  Pass 1  IDiag  1:
 E= -132.535179575093     Delta-E=       -0.000000357671 Rises=F Damp=F
 DIIS: error= 4.36D-05 at cycle   2 NSaved=   2.
 NSaved= 2 IEnMin= 2 EnMin= -132.535179575093     IErMin= 2 ErrMin= 4.36D-05
 ErrMax= 4.36D-05  0.00D+00 EMaxC= 1.00D-01 BMatC= 2.68D-07 BMatP= 5.99D-07
 IDIUse=1 WtCom= 1.00D+00 WtEn= 0.00D+00
 Coeff-Com:  0.392D+00 0.608D+00
 Coeff:      0.392D+00 0.608D+00
 Gap=     0.429 Goal=   None    Shift=    0.000
 RMSDP=9.79D-07 MaxDP=3.78D-05 DE=-3.58D-07 OVMax= 1.70D-04

 Cycle   8  Pass 1  IDiag  1:
 E= -132.535179806540     Delta-E=       -0.000000231447 Rises=F Damp=F
 DIIS: error= 1.54D-05 at cycle   3 NSaved=   3.
 NSaved= 3 IEnMin= 3 EnMin= -132.535179806540     IErMin= 3 ErrMin= 1.54D-05
 ErrMax= 1.54D-05  0.00D+00 EMaxC= 1.00D-01 BMatC= 2.06D-08 BMatP= 2.68D-07
 IDIUse=1 WtCom= 1.00D+00 WtEn= 0.00D+00
 Coeff-Com:  0.107D+00 0.250D+00 0.643D+00
 Coeff:      0.107D+00 0.250D+00 0.643D+00
 Gap=     0.429 Goal=   None    Shift=    0.000
 RMSDP=5.60D-07 MaxDP=2.51D-05 DE=-2.31D-07 OVMax= 5.86D-05

 Cycle   9  Pass 1  IDiag  1:
 E= -132.535179819188     Delta-E=       -0.000000012647 Rises=F Damp=F
 DIIS: error= 1.13D-05 at cycle   4 NSaved=   4.
 NSaved= 4 IEnMin= 4 EnMin= -132.535179819188     IErMin= 4 ErrMin= 1.13D-05
 ErrMax= 1.13D-05  0.00D+00 EMaxC= 1.00D-01 BMatC= 6.52D-09 BMatP= 2.06D-08
 IDIUse=1 WtCom= 1.00D+00 WtEn= 0.00D+00
 Coeff-Com: -0.581D-01-0.316D-01 0.390D+00 0.699D+00
 Coeff:     -0.581D-01-0.316D-01 0.390D+00 0.699D+00
 Gap=     0.429 Goal=   None    Shift=    0.000
 RMSDP=2.81D-07 MaxDP=1.35D-05 DE=-1.26D-08 OVMax= 3.39D-05

 Cycle  10  Pass 1  IDiag  1:
 E= -132.535179825323     Delta-E=       -0.000000006135 Rises=F Damp=F
 DIIS: error= 9.50D-07 at cycle   5 NSaved=   5.
 NSaved= 5 IEnMin= 5 EnMin= -132.535179825323     IErMin= 5 ErrMin= 9.50D-07
 ErrMax= 9.50D-07  0.00D+00 EMaxC= 1.00D-01 BMatC= 8.21D-11 BMatP= 6.52D-09
 IDIUse=1 WtCom= 1.00D+00 WtEn= 0.00D+00
 Coeff-Com: -0.198D-01-0.183D-01 0.720D-01 0.191D+00 0.775D+00
 Coeff:     -0.198D-01-0.183D-01 0.720D-01 0.191D+00 0.775D+00
 Gap=     0.429 Goal=   None    Shift=    0.000
 RMSDP=4.35D-08 MaxDP=2.21D-06 DE=-6.14D-09 OVMax= 3.28D-06

 Cycle  11  Pass 1  IDiag  1:
 E= -132.535179825395     Delta-E=       -0.000000000072 Rises=F Damp=F
 DIIS: error= 2.07D-07 at cycle   6 NSaved=   6.
 NSaved= 6 IEnMin= 6 EnMin= -132.535179825395     IErMin= 6 ErrMin= 2.07D-07
 ErrMax= 2.07D-07  0.00D+00 EMaxC= 1.00D-01 BMatC= 5.06D-12 BMatP= 8.21D-11
 IDIUse=1 WtCom= 1.00D+00 WtEn= 0.00D+00
 Coeff-Com:  0.201D-02-0.158D-03-0.269D-01-0.226D-01 0.149D+00 0.898D+00
 Coeff:      0.201D-02-0.158D-03-0.269D-01-0.226D-01 0.149D+00 0.898D+00
 Gap=     0.429 Goal=   None    Shift=    0.000
 RMSDP=9.63D-09 MaxDP=4.11D-07 DE=-7.22D-11 OVMax= 1.03D-06

 SCF Done:  E(RB2PLYPD3) =  -132.535179825     A.U. after   11 cycles
            NFock= 11  Conv=0.96D-08     -V/T= 2.0033
 KE= 1.321018149500D+02 PE=-4.260428102912D+02 EE= 1.027072627219D+02
 Leave Link  502 at Thu Aug 27 00:06:15 2020, MaxMem=  2097152000 cpu:       116.5
 (Enter /opt/cluster/programs/g09/g09_d.01/g09/l801.exe)
 DoSCS=T DFT=T ScalE2(SS,OS)=  0.270000  0.270000
 ExpMin= 7.60D-02 ExpMax= 9.07D+04 ExpMxC= 8.76D+02 IAcc=3 IRadAn=         5 AccDes= 0.00D+00
 HarFok:  IExCor=  205 AccDes= 0.00D+00 IRadAn=         5 IDoV=-2 UseB2=F ITyADJ=14
 ICtDFT= 12500011 ScaDFX=  1.000000  1.000000  1.000000  1.000000
 Largest valence mixing into a core orbital is  1.16D-04
 Largest core mixing into a valence orbital is  1.91D-05
 Range of M.O.s used for correlation:     4   261
 NBasis=   261 NAE=    11 NBE=    11 NFC=     3 NFV=     0
 NROrb=    258 NOA=     8 NOB=     8 NVA=   250 NVB=   250

 **** Warning!!: The largest alpha MO coefficient is  0.32877192D+02

 Leave Link  801 at Thu Aug 27 00:06:16 2020, MaxMem=  2097152000 cpu:         0.6
 (Enter /opt/cluster/programs/g09/g09_d.01/g09/l906.exe)
 DoSCS=T DFT=T ScalE2(SS,OS)=  0.270000  0.270000
 FulOut=F Deriv=F AODrv=F NAtomX=     6
   MMem=        2666  MDisk=           8 MDiskD=           8
  W3Min=      642000 MinDsk=     1426009 NBas6D=         321
 NBas2D=       52689    NTT=       51681    LW2=     4508827
    MDV=  2096809419 MDiskM=       14501 NBas2p=       52131
 Fully direct method using O(OVN) memory.
 IMap=   1   2   3   4   5   6   7   8
 JobTyp=1 Pass  1:  I=   1 to   8 NPSUse=  8 ParTrn=T ParDer=T DoDerP=F.
 Spin components of T(2) and E(2):
     alpha-alpha T2 =       0.3544404722D-01 E2=     -0.2137102247D-01
     alpha-beta  T2 =       0.2070162882D+00 E2=     -0.1373203470D+00
     beta-beta   T2 =       0.3544404722D-01 E2=     -0.2137102247D-01
 The integrals were generated   1 times.
 E2(B2PLYPD3) =    -0.1800623920D+00 E(B2PLYPD3) =    -0.13271524221736D+03
 Leave Link  906 at Thu Aug 27 00:06:33 2020, MaxMem=  2097152000 cpu:       121.7
 (Enter /opt/cluster/programs/g09/g09_d.01/g09/l601.exe)
 Copying SCF densities to generalized density rwf, IOpCl= 0 IROHF=0.

 **********************************************************************

            Population analysis using the SCF density.

 **********************************************************************

 Orbital symmetries:
       Occupied  (A) (A) (A) (A) (A) (A) (A) (A) (A) (A) (A)
       Virtual   (A) (A) (A) (A) (A) (A) (A) (A) (A) (A) (A) (A)
                 (A) (A) (A) (A) (A) (A) (A) (A) (A) (A) (A) (A)
                 (A) (A) (A) (A) (A) (A) (A) (A) (A) (A) (A) (A)
                 (A) (A) (A) (A) (A) (A) (A) (A) (A) (A) (A) (A)
                 (A) (A) (A) (A) (A) (A) (A) (A) (A) (A) (A) (A)
                 (A) (A) (A) (A) (A) (A) (A) (A) (A) (A) (A) (A)
                 (A) (A) (A) (A) (A) (A) (A) (A) (A) (A) (A) (A)
                 (A) (A) (A) (A) (A) (A) (A) (A) (A) (A) (A) (A)
                 (A) (A) (A) (A) (A) (A) (A) (A) (A) (A) (A) (A)
                 (A) (A) (A) (A) (A) (A) (A) (A) (A) (A) (A) (A)
                 (A) (A) (A) (A) (A) (A) (A) (A) (A) (A) (A) (A)
                 (A) (A) (A) (A) (A) (A) (A) (A) (A) (A) (A) (A)
                 (A) (A) (A) (A) (A) (A) (A) (A) (A) (A) (A) (A)
                 (A) (A) (A) (A) (A) (A) (A) (A) (A) (A) (A) (A)
                 (A) (A) (A) (A) (A) (A) (A) (A) (A) (A) (A) (A)
                 (A) (A) (A) (A) (A) (A) (A) (A) (A) (A) (A) (A)
                 (A) (A) (A) (A) (A) (A) (A) (A) (A) (A) (A) (A)
                 (A) (A) (A) (A) (A) (A) (A) (A) (A) (A) (A) (A)
                 (A) (A) (A) (A) (A) (A) (A) (A) (A) (A) (A) (A)
                 (A) (A) (A) (A) (A) (A) (A) (A) (A) (A) (A) (A)
                 (A) (A) (A) (A) (A) (A) (A) (A) (A) (A)
 The electronic state is 1-A.
 Alpha  occ. eigenvalues --  -14.84121 -10.66851 -10.66166  -1.04307  -0.89372
 Alpha  occ. eigenvalues --   -0.60063  -0.54303  -0.53520  -0.44822  -0.39220
 Alpha  occ. eigenvalues --   -0.39156
 Alpha virt. eigenvalues --    0.03774   0.07741   0.08287   0.10180   0.11443
 Alpha virt. eigenvalues --    0.11575   0.15487   0.16226   0.16752   0.20049
 Alpha virt. eigenvalues --    0.20097   0.25422   0.32850   0.34616   0.34933
 Alpha virt. eigenvalues --    0.39062   0.40036   0.40171   0.40367   0.47669
 Alpha virt. eigenvalues --    0.50275   0.51762   0.58734   0.59743   0.61427
 Alpha virt. eigenvalues --    0.67405   0.68013   0.69702   0.70014   0.78992
 Alpha virt. eigenvalues --    0.79268   0.82371   0.82401   0.83693   0.86768
 Alpha virt. eigenvalues --    0.91642   0.93041   0.95731   0.96295   0.97537
 Alpha virt. eigenvalues --    1.06100   1.08307   1.08688   1.12267   1.13370
 Alpha virt. eigenvalues --    1.14324   1.22482   1.22800   1.23787   1.35395
 Alpha virt. eigenvalues --    1.35873   1.46818   1.47254   1.49653   1.55025
 Alpha virt. eigenvalues --    1.65373   1.66702   1.69978   1.74577   1.77984
 Alpha virt. eigenvalues --    1.78296   1.78714   1.89443   1.91546   1.91881
 Alpha virt. eigenvalues --    1.94348   1.99112   1.99797   2.01162   2.04770
 Alpha virt. eigenvalues --    2.06009   2.13219   2.14601   2.20537   2.21066
 Alpha virt. eigenvalues --    2.23563   2.24124   2.24619   2.34538   2.35542
 Alpha virt. eigenvalues --    2.43257   2.50504   2.51660   2.56717   2.57721
 Alpha virt. eigenvalues --    2.60412   2.66939   2.70274   2.72253   2.72702
 Alpha virt. eigenvalues --    2.77358   2.78246   2.86907   2.90295   2.91031
 Alpha virt. eigenvalues --    2.92921   2.96684   2.97468   2.97632   3.10370
 Alpha virt. eigenvalues --    3.11056   3.12010   3.21481   3.31265   3.32932
 Alpha virt. eigenvalues --    3.34944   3.35968   3.38821   3.42052   3.50422
 Alpha virt. eigenvalues --    3.53517   3.56936   3.73527   3.75140   3.75599
 Alpha virt. eigenvalues --    3.87825   3.93214   3.94405   3.99251   4.00255
 Alpha virt. eigenvalues --    4.01871   4.05167   4.06080   4.25130   4.25698
 Alpha virt. eigenvalues --    4.56683   4.90955   4.91027   5.08536   5.11121
 Alpha virt. eigenvalues --    5.12752   5.16617   5.20397   5.21262   5.24029
 Alpha virt. eigenvalues --    5.29737   5.44224   5.45505   5.47000   5.64165
 Alpha virt. eigenvalues --    5.67169   5.85297   5.86648   5.90419   5.93893
 Alpha virt. eigenvalues --    5.95159   5.99144   6.00034   6.01072   6.02634
 Alpha virt. eigenvalues --    6.03458   6.05876   6.06690   6.08146   6.14238
 Alpha virt. eigenvalues --    6.18294   6.19963   6.28266   6.32435   6.33855
 Alpha virt. eigenvalues --    6.41633   6.44590   6.49435   6.58566   6.60590
 Alpha virt. eigenvalues --    6.63656   6.64883   6.88762   6.91733   6.94256
 Alpha virt. eigenvalues --    6.96553   7.02728   7.02731   7.09195   7.13262
 Alpha virt. eigenvalues --    7.13539   7.19639   7.22853   7.49841   7.50500
 Alpha virt. eigenvalues --    7.52338   7.54930   7.60183   7.62451   7.65304
 Alpha virt. eigenvalues --    7.66664   7.75477   7.77221   7.79120   7.87708
 Alpha virt. eigenvalues --    7.89289   7.92858   7.99017   8.05774   8.26281
 Alpha virt. eigenvalues --    8.31192   8.35041   8.44514   8.45559   8.46676
 Alpha virt. eigenvalues --    8.48271   8.49398   8.50597   8.55767   8.60594
 Alpha virt. eigenvalues --    8.61915   8.64371   8.65741   8.66914   8.66958
 Alpha virt. eigenvalues --    8.71714   8.80880   8.89920   8.91705   9.04177
 Alpha virt. eigenvalues --    9.07391   9.09627   9.12407   9.15221   9.17907
 Alpha virt. eigenvalues --    9.27465   9.29129   9.74500   9.77765   9.83256
 Alpha virt. eigenvalues --    9.87157   9.94721  10.01270  10.06065  10.13849
 Alpha virt. eigenvalues --   10.18196  10.18843  10.21854  10.32522  10.46611
 Alpha virt. eigenvalues --   10.57122  10.69456  11.38524  11.66604  11.81898
 Alpha virt. eigenvalues --   12.01899  12.07842  13.13920  13.52526  29.22850
 Alpha virt. eigenvalues --   29.56661  38.33826 148.89459 149.20266 198.26148
          Condensed to atoms (all electrons):
               1          2          3          4          5          6
     1  C    4.592428   0.305477  -0.058270   0.412867   0.413587   0.411348
     2  C    0.305477   4.832395   0.991510  -0.041197  -0.042521  -0.044335
     3  N   -0.058270   0.991510   6.273149  -0.000827  -0.001140  -0.000448
     4  H    0.412867  -0.041197  -0.000827   0.596774  -0.030360  -0.030686
     5  H    0.413587  -0.042521  -0.001140  -0.030360   0.598263  -0.031664
     6  H    0.411348  -0.044335  -0.000448  -0.030686  -0.031664   0.600310
 Mulliken charges:
               1
     1  C   -0.077437
     2  C   -0.001328
     3  N   -0.203974
     4  H    0.093428
     5  H    0.093835
     6  H    0.095475
 Sum of Mulliken charges =   0.00000
 Mulliken charges with hydrogens summed into heavy atoms:
               1
     1  C    0.205302
     2  C   -0.001328
     3  N   -0.203974
 Electronic spatial extent (au):  <R**2>=            161.3977
 Charge=              0.0000 electrons
 Dipole moment (field-independent basis, Debye):
    X=              4.1263    Y=             -0.0100    Z=              0.0258  Tot=              4.1264
 Quadrupole moment (field-independent basis, Debye-Ang):
   XX=            -20.8890   YY=            -17.7330   ZZ=            -17.7767
   XY=             -0.0039   XZ=             -0.0684   YZ=             -0.0125
 Traceless Quadrupole moment (field-independent basis, Debye-Ang):
   XX=             -2.0894   YY=              1.0666   ZZ=              1.0228
   XY=             -0.0039   XZ=             -0.0684   YZ=             -0.0125
 Octapole moment (field-independent basis, Debye-Ang**2):
  XXX=             13.1554  YYY=              0.4777  ZZZ=              0.5325  XYY=              2.2663
  XXY=              0.0264  XXZ=             -0.0909  XZZ=              2.1380  YZZ=             -0.5641
  YYZ=             -0.5307  XYZ=             -0.0157
 Hexadecapole moment (field-independent basis, Debye-Ang**3):
 XXXX=           -181.0590 YYYY=            -24.7255 ZZZZ=            -24.3565 XXXY=              0.0375
 XXXZ=             -0.3106 YYYX=              0.8859 YYYZ=             -0.0348 ZZZX=              0.9346
 ZZZY=             -0.0098 XXYY=            -30.8788 XXZZ=            -31.1223 YYZZ=             -8.1486
 XXYZ=             -0.0269 YYXZ=             -0.9020 ZZXY=             -0.9432
 N-N= 5.869855279395D+01 E-N=-4.260427932201D+02  KE= 1.321018149500D+02
 Leave Link  601 at Thu Aug 27 00:06:35 2020, MaxMem=  2097152000 cpu:         0.4
 (Enter /opt/cluster/programs/g09/g09_d.01/g09/l9999.exe)
 1\1\GINC-NODE17\SP\RB2PLYPD3-FC\def2QZVP\C2H3N1\BOITTIER\27-Aug-2020\0
 \\#p B2PLYPD3/Def2QZVP\\cyanomethane\\0,1\C,0,-6.593462,-1.118002,1.16
 4772\C,0,-5.203273,-0.77312,0.907962\N,0,-4.094275,-0.545517,0.702502\
 H,0,-6.78776,-1.264059,2.239418\H,0,-6.87751,-2.035698,0.648518\H,0,-7
 .216705,-0.343045,0.810107\\Version=ES64L-G09RevD.01\State=1-A\HF=-132
 .5351798\MP2=-132.7152422\RMSD=9.629e-09\PG=C01 [X(C2H3N1)]\\@


 ALL THINGS ARE POSSIBLE EXCEPT SKIING THROUGH A REVOLVING DOOR.
 Job cpu time:       0 days  0 hours  4 minutes  9.2 seconds.
 File lengths (MBytes):  RWF=     28 Int=      0 D2E=      0 Chk=      5 Scr=      1
 Normal termination of Gaussian 09 at Thu Aug 27 00:06:38 2020.
