 Entering Gaussian System, Link 0=/opt/cluster/programs/g09/g09_d.01/g09//g09
 Input=/home/boittier/MDCM/nms_sampling/cyanomethane_geom.xyz.dir/energies/cyanomethane_403_energy.com
 Output=/scratch/boittier/cyanomethane_403_energy/cyanomethane_403_energy.out
 Initial command:
 /opt/cluster/programs/g09/g09_d.01/g09/l1.exe "/scratch/boittier/cyanomethane_403_energy/Gau-104162.inp" -scrdir="/scratch/boittier/cyanomethane_403_energy/"
 Entering Link 1 = /opt/cluster/programs/g09/g09_d.01/g09/l1.exe PID=    104163.
  
 Copyright (c) 1988,1990,1992,1993,1995,1998,2003,2009,2013,
            Gaussian, Inc.  All Rights Reserved.
  
 This is part of the Gaussian(R) 09 program.  It is based on
 the Gaussian(R) 03 system (copyright 2003, Gaussian, Inc.),
 the Gaussian(R) 98 system (copyright 1998, Gaussian, Inc.),
 the Gaussian(R) 94 system (copyright 1995, Gaussian, Inc.),
 the Gaussian 92(TM) system (copyright 1992, Gaussian, Inc.),
 the Gaussian 90(TM) system (copyright 1990, Gaussian, Inc.),
 the Gaussian 88(TM) system (copyright 1988, Gaussian, Inc.),
 the Gaussian 86(TM) system (copyright 1986, Carnegie Mellon
 University), and the Gaussian 82(TM) system (copyright 1983,
 Carnegie Mellon University). Gaussian is a federally registered
 trademark of Gaussian, Inc.
  
 This software contains proprietary and confidential information,
 including trade secrets, belonging to Gaussian, Inc.
  
 This software is provided under written license and may be
 used, copied, transmitted, or stored only in accord with that
 written license.
  
 The following legend is applicable only to US Government
 contracts under FAR:
  
                    RESTRICTED RIGHTS LEGEND
  
 Use, reproduction and disclosure by the US Government is
 subject to restrictions as set forth in subparagraphs (a)
 and (c) of the Commercial Computer Software - Restricted
 Rights clause in FAR 52.227-19.
  
 Gaussian, Inc.
 340 Quinnipiac St., Bldg. 40, Wallingford CT 06492
  
  
 ---------------------------------------------------------------
 Warning -- This program may not be used in any manner that
 competes with the business of Gaussian, Inc. or will provide
 assistance to any competitor of Gaussian, Inc.  The licensee
 of this program is prohibited from giving any competitor of
 Gaussian, Inc. access to this program.  By using this program,
 the user acknowledges that Gaussian, Inc. is engaged in the
 business of creating and licensing software in the field of
 computational chemistry and represents and warrants to the
 licensee that it is not a competitor of Gaussian, Inc. and that
 it will not use this program in any manner prohibited above.
 ---------------------------------------------------------------
  

 Cite this work as:
 Gaussian 09, Revision D.01,
 M. J. Frisch, G. W. Trucks, H. B. Schlegel, G. E. Scuseria, 
 M. A. Robb, J. R. Cheeseman, G. Scalmani, V. Barone, B. Mennucci, 
 G. A. Petersson, H. Nakatsuji, M. Caricato, X. Li, H. P. Hratchian, 
 A. F. Izmaylov, J. Bloino, G. Zheng, J. L. Sonnenberg, M. Hada, 
 M. Ehara, K. Toyota, R. Fukuda, J. Hasegawa, M. Ishida, T. Nakajima, 
 Y. Honda, O. Kitao, H. Nakai, T. Vreven, J. A. Montgomery, Jr., 
 J. E. Peralta, F. Ogliaro, M. Bearpark, J. J. Heyd, E. Brothers, 
 K. N. Kudin, V. N. Staroverov, T. Keith, R. Kobayashi, J. Normand, 
 K. Raghavachari, A. Rendell, J. C. Burant, S. S. Iyengar, J. Tomasi, 
 M. Cossi, N. Rega, J. M. Millam, M. Klene, J. E. Knox, J. B. Cross, 
 V. Bakken, C. Adamo, J. Jaramillo, R. Gomperts, R. E. Stratmann, 
 O. Yazyev, A. J. Austin, R. Cammi, C. Pomelli, J. W. Ochterski, 
 R. L. Martin, K. Morokuma, V. G. Zakrzewski, G. A. Voth, 
 P. Salvador, J. J. Dannenberg, S. Dapprich, A. D. Daniels, 
 O. Farkas, J. B. Foresman, J. V. Ortiz, J. Cioslowski, 
 and D. J. Fox, Gaussian, Inc., Wallingford CT, 2013.
 
 ******************************************
 Gaussian 09:  ES64L-G09RevD.01 24-Apr-2013
                26-Aug-2020 
 ******************************************
 %chk=/home/boittier/MDCM/nms_sampling/cyanomethane_geom.xyz.dir/cyanomethane_403
 .chk
 %nproc=8
 Will use up to    8 processors via shared memory.
 %mem=16000MB
 --------------------
 #p B2PLYPD3/Def2QZVP
 --------------------
 1/38=1/1;
 2/12=2,17=6,18=5,40=1/2;
 3/5=45,7=101,11=9,16=1,25=1,30=1,74=-60/1,2,3;
 4//1;
 5/5=2,38=5/2;
 8/10=1/1;
 9/16=-3/6;
 6/7=2,8=2,9=2,10=2/1;
 99/5=1,9=1/99;
 Leave Link    1 at Wed Aug 26 23:55:19 2020, MaxMem=  2097152000 cpu:         4.2
 (Enter /opt/cluster/programs/g09/g09_d.01/g09/l101.exe)
 ------------
 cyanomethane
 ------------
 Symbolic Z-matrix:
 Charge =  0 Multiplicity = 1
 C                    -6.60492  -1.11175   1.15945 
 C                    -5.19832  -0.79734   0.92905 
 N                    -4.0917   -0.53569   0.69107 
 H                    -6.73437  -1.2046    2.21664 
 H                    -6.83576  -2.062     0.68623 
 H                    -7.26971  -0.30548   0.77632 
 
 NAtoms=      6 NQM=        6 NQMF=       0 NMMI=      0 NMMIF=      0
                NMic=       0 NMicF=      0.
                    Isotopes and Nuclear Properties:
 (Nuclear quadrupole moments (NQMom) in fm**2, nuclear magnetic moments (NMagM)
  in nuclear magnetons)

  Atom         1           2           3           4           5           6
 IAtWgt=          12          12          14           1           1           1
 AtmWgt=  12.0000000  12.0000000  14.0030740   1.0078250   1.0078250   1.0078250
 NucSpn=           0           0           2           1           1           1
 AtZEff=   0.0000000   0.0000000   0.0000000   0.0000000   0.0000000   0.0000000
 NQMom=    0.0000000   0.0000000   2.0440000   0.0000000   0.0000000   0.0000000
 NMagM=    0.0000000   0.0000000   0.4037610   2.7928460   2.7928460   2.7928460
 AtZNuc=   6.0000000   6.0000000   7.0000000   1.0000000   1.0000000   1.0000000
 Leave Link  101 at Wed Aug 26 23:55:19 2020, MaxMem=  2097152000 cpu:         0.5
 (Enter /opt/cluster/programs/g09/g09_d.01/g09/l202.exe)
                          Input orientation:                          
 ---------------------------------------------------------------------
 Center     Atomic      Atomic             Coordinates (Angstroms)
 Number     Number       Type             X           Y           Z
 ---------------------------------------------------------------------
      1          6           0       -6.604916   -1.111753    1.159445
      2          6           0       -5.198322   -0.797335    0.929054
      3          7           0       -4.091698   -0.535694    0.691066
      4          1           0       -6.734367   -1.204599    2.216637
      5          1           0       -6.835763   -2.061997    0.686232
      6          1           0       -7.269713   -0.305479    0.776319
 ---------------------------------------------------------------------
                    Distance matrix (angstroms):
                    1          2          3          4          5
     1  C    0.000000
     2  C    1.459605   0.000000
     3  N    2.620589   1.161771   0.000000
     4  H    1.069127   2.045279   3.123860   0.000000
     5  H    1.086363   2.083158   3.139987   1.757143   0.000000
     6  H    1.113022   2.134458   3.187483   1.780317   1.811569
                    6
     6  H    0.000000
 Stoichiometry    C2H3N
 Framework group  C1[X(C2H3N)]
 Deg. of freedom    12
 Full point group                 C1      NOp   1
 Largest Abelian subgroup         C1      NOp   1
 Largest concise Abelian subgroup C1      NOp   1
                         Standard orientation:                         
 ---------------------------------------------------------------------
 Center     Atomic      Atomic             Coordinates (Angstroms)
 Number     Number       Type             X           Y           Z
 ---------------------------------------------------------------------
      1          6           0       -1.183139    0.000998   -0.005909
      2          6           0        0.276200   -0.008603    0.020218
      3          7           0        1.437438    0.006923   -0.011355
      4          1           0       -1.514066   -0.231764    0.983708
      5          1           0       -1.528511   -0.769980   -0.688915
      6          1           0       -1.577858    0.998917   -0.301160
 ---------------------------------------------------------------------
 Rotational constants (GHZ):    157.3953444      9.2121977      9.1943013
 Leave Link  202 at Wed Aug 26 23:55:19 2020, MaxMem=  2097152000 cpu:         0.0
 (Enter /opt/cluster/programs/g09/g09_d.01/g09/l301.exe)
 Standard basis: def2QZVP (5D, 7F)
 Ernie: Thresh=  0.10000D-02 Tol=  0.10000D-05 Strict=F.
 There are   321 symmetry adapted cartesian basis functions of A   symmetry.
 There are   261 symmetry adapted basis functions of A   symmetry.
   261 basis functions,   390 primitive gaussians,   321 cartesian basis functions
    11 alpha electrons       11 beta electrons
       nuclear repulsion energy        58.3907529576 Hartrees.
 IExCor=  419 DFT=T Ex+Corr=B2PLYPD3 ExCW=0 ScaHFX=  0.530000
 ScaDFX=  0.470000  0.470000  0.730000  0.730000 ScalE2=  0.270000  0.270000
 IRadAn=      0 IRanWt=     -1 IRanGd=            0 ICorTp=0 IEmpDi=141
 NAtoms=    6 NActive=    6 NUniq=    6 SFac= 1.00D+00 NAtFMM=   60 NAOKFM=F Big=F
 Integral buffers will be    131072 words long.
 Regular integral format.
 Two-electron integral symmetry is turned on.
 R6Disp:  Grimme-D3(BJ) Dispersion energy=       -0.0021033040 Hartrees.
 Nuclear repulsion after empirical dispersion term =       58.3886496536 Hartrees.
 Leave Link  301 at Wed Aug 26 23:55:21 2020, MaxMem=  2097152000 cpu:         0.4
 (Enter /opt/cluster/programs/g09/g09_d.01/g09/l302.exe)
 NPDir=0 NMtPBC=     1 NCelOv=     1 NCel=       1 NClECP=     1 NCelD=      1
         NCelK=      1 NCelE2=     1 NClLst=     1 CellRange=     0.0.
 One-electron integrals computed using PRISM.
   1 Symmetry operations used in ECPInt.
 ECPInt:  NShTT=    3321 NPrTT=    8136 LenC2=    3294 LenP2D=    7127.
 LDataN:  DoStor=T MaxTD1= 8 Len=  415
 NBasis=   261 RedAO= T EigKep=  8.36D-05  NBF=   261
 NBsUse=   261 1.00D-06 EigRej= -1.00D+00 NBFU=   261
 Precomputing XC quadrature grid using
 IXCGrd= 4 IRadAn=           0 IRanWt=          -1 IRanGd=           0 AccXCQ= 0.00D+00.
 Generated NRdTot=       0 NPtTot=           0 NUsed=           0 NTot=          32
 NSgBfM=   321   321   321   321   321 MxSgAt=     6 MxSgA2=     6.
 Leave Link  302 at Wed Aug 26 23:55:22 2020, MaxMem=  2097152000 cpu:         1.9
 (Enter /opt/cluster/programs/g09/g09_d.01/g09/l303.exe)
 DipDrv:  MaxL=1.
 Leave Link  303 at Wed Aug 26 23:55:22 2020, MaxMem=  2097152000 cpu:         0.2
 (Enter /opt/cluster/programs/g09/g09_d.01/g09/l401.exe)
 ExpMin= 7.60D-02 ExpMax= 9.07D+04 ExpMxC= 8.76D+02 IAcc=2 IRadAn=         4 AccDes= 0.00D+00
 Harris functional with IExCor=  419 and IRadAn=       4 diagonalized for initial guess.
 HarFok:  IExCor=  419 AccDes= 0.00D+00 IRadAn=         4 IDoV= 1 UseB2=F ITyADJ=14
 ICtDFT=  3500011 ScaDFX=  1.000000  1.000000  1.000000  1.000000
 FoFCou: FMM=F IPFlag=           0 FMFlag=      100000 FMFlg1=           0
         NFxFlg=           0 DoJE=T BraDBF=F KetDBF=T FulRan=T
         wScrn=  0.000000 ICntrl=     500 IOpCl=  0 I1Cent=   200000004 NGrid=           0
         NMat0=    1 NMatS0=      1 NMatT0=    0 NMatD0=    1 NMtDS0=    0 NMtDT0=    0
 Petite list used in FoFCou.
 Harris En= -132.849760140932    
 JPrj=0 DoOrth=F DoCkMO=F.
 Leave Link  401 at Wed Aug 26 23:55:27 2020, MaxMem=  2097152000 cpu:         3.7
 (Enter /opt/cluster/programs/g09/g09_d.01/g09/l502.exe)
 Closed shell SCF:
 Using DIIS extrapolation, IDIIS=  1040.
 Integral symmetry usage will be decided dynamically.
 Keep R1 ints in memory in canonical form, NReq=601554820.
 IVT=      332521 IEndB=      332521 NGot=  2097152000 MDV=  1512290144
 LenX=  1512290144 LenY=  1512186662
 Requested convergence on RMS density matrix=1.00D-08 within 128 cycles.
 Requested convergence on MAX density matrix=1.00D-06.
 Requested convergence on             energy=1.00D-06.
 No special actions if energy rises.
 FoFCou: FMM=F IPFlag=           0 FMFlag=           0 FMFlg1=           0
         NFxFlg=           0 DoJE=F BraDBF=F KetDBF=F FulRan=T
         wScrn=  0.000000 ICntrl=     600 IOpCl=  0 I1Cent=           0 NGrid=           0
         NMat0=    1 NMatS0=  34191 NMatT0=    0 NMatD0=    1 NMtDS0=    0 NMtDT0=    0
 Symmetry not used in FoFCou.
 Integral accuracy reduced to 1.0D-05 until final iterations.

 Cycle   1  Pass 0  IDiag  1:
 E= -132.422207578678    
 DIIS: error= 2.59D-02 at cycle   1 NSaved=   1.
 NSaved= 1 IEnMin= 1 EnMin= -132.422207578678     IErMin= 1 ErrMin= 2.59D-02
 ErrMax= 2.59D-02  0.00D+00 EMaxC= 1.00D-01 BMatC= 1.87D-01 BMatP= 1.87D-01
 IDIUse=3 WtCom= 7.41D-01 WtEn= 2.59D-01
 Coeff-Com:  0.100D+01
 Coeff-En:   0.100D+01
 Coeff:      0.100D+01
 Gap=     0.455 Goal=   None    Shift=    0.000
 GapD=    0.455 DampG=2.000 DampE=0.500 DampFc=1.0000 IDamp=-1.
 RMSDP=1.27D-03 MaxDP=6.60D-02              OVMax= 1.64D-01

 Cycle   2  Pass 0  IDiag  1:
 E= -132.452959483516     Delta-E=       -0.030751904838 Rises=F Damp=F
 DIIS: error= 3.35D-02 at cycle   2 NSaved=   2.
 NSaved= 2 IEnMin= 2 EnMin= -132.452959483516     IErMin= 1 ErrMin= 2.59D-02
 ErrMax= 3.35D-02  0.00D+00 EMaxC= 1.00D-01 BMatC= 9.55D-02 BMatP= 1.87D-01
 IDIUse=3 WtCom= 6.65D-01 WtEn= 3.35D-01
 Coeff-Com:  0.400D+00 0.600D+00
 Coeff-En:   0.404D+00 0.596D+00
 Coeff:      0.401D+00 0.599D+00
 Gap=     0.434 Goal=   None    Shift=    0.000
 RMSDP=8.43D-04 MaxDP=3.31D-02 DE=-3.08D-02 OVMax= 1.24D-01

 Cycle   3  Pass 0  IDiag  1:
 E= -132.517147705237     Delta-E=       -0.064188221721 Rises=F Damp=F
 DIIS: error= 1.34D-02 at cycle   3 NSaved=   3.
 NSaved= 3 IEnMin= 3 EnMin= -132.517147705237     IErMin= 3 ErrMin= 1.34D-02
 ErrMax= 1.34D-02  0.00D+00 EMaxC= 1.00D-01 BMatC= 2.04D-02 BMatP= 9.55D-02
 IDIUse=3 WtCom= 8.66D-01 WtEn= 1.34D-01
 Coeff-Com:  0.966D-01 0.326D+00 0.577D+00
 Coeff-En:   0.000D+00 0.135D+00 0.865D+00
 Coeff:      0.836D-01 0.301D+00 0.616D+00
 Gap=     0.426 Goal=   None    Shift=    0.000
 RMSDP=2.69D-04 MaxDP=9.74D-03 DE=-6.42D-02 OVMax= 5.95D-02

 Cycle   4  Pass 0  IDiag  1:
 E= -132.531426407899     Delta-E=       -0.014278702662 Rises=F Damp=F
 DIIS: error= 4.69D-03 at cycle   4 NSaved=   4.
 NSaved= 4 IEnMin= 4 EnMin= -132.531426407899     IErMin= 4 ErrMin= 4.69D-03
 ErrMax= 4.69D-03  0.00D+00 EMaxC= 1.00D-01 BMatC= 2.89D-03 BMatP= 2.04D-02
 IDIUse=3 WtCom= 9.53D-01 WtEn= 4.69D-02
 Coeff-Com: -0.126D-01 0.548D-01 0.322D+00 0.636D+00
 Coeff-En:   0.000D+00 0.000D+00 0.130D+00 0.870D+00
 Coeff:     -0.120D-01 0.522D-01 0.313D+00 0.647D+00
 Gap=     0.426 Goal=   None    Shift=    0.000
 RMSDP=8.90D-05 MaxDP=2.80D-03 DE=-1.43D-02 OVMax= 1.52D-02

 Cycle   5  Pass 0  IDiag  1:
 E= -132.533939093851     Delta-E=       -0.002512685951 Rises=F Damp=F
 DIIS: error= 3.25D-04 at cycle   5 NSaved=   5.
 NSaved= 5 IEnMin= 5 EnMin= -132.533939093851     IErMin= 5 ErrMin= 3.25D-04
 ErrMax= 3.25D-04  0.00D+00 EMaxC= 1.00D-01 BMatC= 1.28D-05 BMatP= 2.89D-03
 IDIUse=3 WtCom= 9.97D-01 WtEn= 3.25D-03
 Coeff-Com: -0.354D-02 0.593D-02 0.481D-01 0.142D+00 0.808D+00
 Coeff-En:   0.000D+00 0.000D+00 0.000D+00 0.000D+00 0.100D+01
 Coeff:     -0.352D-02 0.591D-02 0.480D-01 0.141D+00 0.808D+00
 Gap=     0.425 Goal=   None    Shift=    0.000
 RMSDP=8.22D-06 MaxDP=3.02D-04 DE=-2.51D-03 OVMax= 1.20D-03

 Initial convergence to 1.0D-05 achieved.  Increase integral accuracy.
 Cycle   6  Pass 1  IDiag  1:
 E= -132.533951982882     Delta-E=       -0.000012889032 Rises=F Damp=F
 DIIS: error= 9.46D-05 at cycle   1 NSaved=   1.
 NSaved= 1 IEnMin= 1 EnMin= -132.533951982882     IErMin= 1 ErrMin= 9.46D-05
 ErrMax= 9.46D-05  0.00D+00 EMaxC= 1.00D-01 BMatC= 6.74D-07 BMatP= 6.74D-07
 IDIUse=1 WtCom= 1.00D+00 WtEn= 0.00D+00
 Coeff-Com:  0.100D+01
 Coeff:      0.100D+01
 Gap=     0.426 Goal=   None    Shift=    0.000
 RMSDP=8.22D-06 MaxDP=3.02D-04 DE=-1.29D-05 OVMax= 4.22D-04

 Cycle   7  Pass 1  IDiag  1:
 E= -132.533952386624     Delta-E=       -0.000000403742 Rises=F Damp=F
 DIIS: error= 4.99D-05 at cycle   2 NSaved=   2.
 NSaved= 2 IEnMin= 2 EnMin= -132.533952386624     IErMin= 2 ErrMin= 4.99D-05
 ErrMax= 4.99D-05  0.00D+00 EMaxC= 1.00D-01 BMatC= 3.07D-07 BMatP= 6.74D-07
 IDIUse=1 WtCom= 1.00D+00 WtEn= 0.00D+00
 Coeff-Com:  0.395D+00 0.605D+00
 Coeff:      0.395D+00 0.605D+00
 Gap=     0.426 Goal=   None    Shift=    0.000
 RMSDP=1.05D-06 MaxDP=4.12D-05 DE=-4.04D-07 OVMax= 1.79D-04

 Cycle   8  Pass 1  IDiag  1:
 E= -132.533952655550     Delta-E=       -0.000000268926 Rises=F Damp=F
 DIIS: error= 1.58D-05 at cycle   3 NSaved=   3.
 NSaved= 3 IEnMin= 3 EnMin= -132.533952655550     IErMin= 3 ErrMin= 1.58D-05
 ErrMax= 1.58D-05  0.00D+00 EMaxC= 1.00D-01 BMatC= 2.17D-08 BMatP= 3.07D-07
 IDIUse=1 WtCom= 1.00D+00 WtEn= 0.00D+00
 Coeff-Com:  0.108D+00 0.245D+00 0.647D+00
 Coeff:      0.108D+00 0.245D+00 0.647D+00
 Gap=     0.426 Goal=   None    Shift=    0.000
 RMSDP=5.76D-07 MaxDP=2.57D-05 DE=-2.69D-07 OVMax= 6.17D-05

 Cycle   9  Pass 1  IDiag  1:
 E= -132.533952668492     Delta-E=       -0.000000012943 Rises=F Damp=F
 DIIS: error= 1.02D-05 at cycle   4 NSaved=   4.
 NSaved= 4 IEnMin= 4 EnMin= -132.533952668492     IErMin= 4 ErrMin= 1.02D-05
 ErrMax= 1.02D-05  0.00D+00 EMaxC= 1.00D-01 BMatC= 7.57D-09 BMatP= 2.17D-08
 IDIUse=1 WtCom= 1.00D+00 WtEn= 0.00D+00
 Coeff-Com: -0.603D-01-0.368D-01 0.404D+00 0.693D+00
 Coeff:     -0.603D-01-0.368D-01 0.404D+00 0.693D+00
 Gap=     0.426 Goal=   None    Shift=    0.000
 RMSDP=2.91D-07 MaxDP=1.35D-05 DE=-1.29D-08 OVMax= 3.76D-05

 Cycle  10  Pass 1  IDiag  1:
 E= -132.533952675707     Delta-E=       -0.000000007215 Rises=F Damp=F
 DIIS: error= 1.08D-06 at cycle   5 NSaved=   5.
 NSaved= 5 IEnMin= 5 EnMin= -132.533952675707     IErMin= 5 ErrMin= 1.08D-06
 ErrMax= 1.08D-06  0.00D+00 EMaxC= 1.00D-01 BMatC= 1.11D-10 BMatP= 7.57D-09
 IDIUse=1 WtCom= 1.00D+00 WtEn= 0.00D+00
 Coeff-Com: -0.220D-01-0.209D-01 0.820D-01 0.203D+00 0.757D+00
 Coeff:     -0.220D-01-0.209D-01 0.820D-01 0.203D+00 0.757D+00
 Gap=     0.426 Goal=   None    Shift=    0.000
 RMSDP=4.56D-08 MaxDP=2.14D-06 DE=-7.21D-09 OVMax= 3.59D-06

 Cycle  11  Pass 1  IDiag  1:
 E= -132.533952675820     Delta-E=       -0.000000000113 Rises=F Damp=F
 DIIS: error= 3.19D-07 at cycle   6 NSaved=   6.
 NSaved= 6 IEnMin= 6 EnMin= -132.533952675820     IErMin= 6 ErrMin= 3.19D-07
 ErrMax= 3.19D-07  0.00D+00 EMaxC= 1.00D-01 BMatC= 6.81D-12 BMatP= 1.11D-10
 IDIUse=1 WtCom= 1.00D+00 WtEn= 0.00D+00
 Coeff-Com:  0.357D-02 0.124D-02-0.352D-01-0.359D-01 0.109D+00 0.958D+00
 Coeff:      0.357D-02 0.124D-02-0.352D-01-0.359D-01 0.109D+00 0.958D+00
 Gap=     0.426 Goal=   None    Shift=    0.000
 RMSDP=1.18D-08 MaxDP=4.00D-07 DE=-1.13D-10 OVMax= 1.78D-06

 Cycle  12  Pass 1  IDiag  1:
 E= -132.533952675834     Delta-E=       -0.000000000014 Rises=F Damp=F
 DIIS: error= 9.81D-08 at cycle   7 NSaved=   7.
 NSaved= 7 IEnMin= 7 EnMin= -132.533952675834     IErMin= 7 ErrMin= 9.81D-08
 ErrMax= 9.81D-08  0.00D+00 EMaxC= 1.00D-01 BMatC= 3.41D-13 BMatP= 6.81D-12
 IDIUse=1 WtCom= 1.00D+00 WtEn= 0.00D+00
 Coeff-Com:  0.190D-03 0.787D-03 0.516D-02 0.123D-02-0.675D-01-0.272D+00
 Coeff-Com:  0.133D+01
 Coeff:      0.190D-03 0.787D-03 0.516D-02 0.123D-02-0.675D-01-0.272D+00
 Coeff:      0.133D+01
 Gap=     0.426 Goal=   None    Shift=    0.000
 RMSDP=4.00D-09 MaxDP=1.40D-07 DE=-1.44D-11 OVMax= 9.44D-07

 SCF Done:  E(RB2PLYPD3) =  -132.533952676     A.U. after   12 cycles
            NFock= 12  Conv=0.40D-08     -V/T= 2.0039
 KE= 1.320138936245D+02 PE=-4.253554106601D+02 EE= 1.024189147062D+02
 Leave Link  502 at Wed Aug 26 23:56:01 2020, MaxMem=  2097152000 cpu:       160.1
 (Enter /opt/cluster/programs/g09/g09_d.01/g09/l801.exe)
 DoSCS=T DFT=T ScalE2(SS,OS)=  0.270000  0.270000
 ExpMin= 7.60D-02 ExpMax= 9.07D+04 ExpMxC= 8.76D+02 IAcc=3 IRadAn=         5 AccDes= 0.00D+00
 HarFok:  IExCor=  205 AccDes= 0.00D+00 IRadAn=         5 IDoV=-2 UseB2=F ITyADJ=14
 ICtDFT= 12500011 ScaDFX=  1.000000  1.000000  1.000000  1.000000
 Largest valence mixing into a core orbital is  1.17D-04
 Largest core mixing into a valence orbital is  1.97D-05
 Range of M.O.s used for correlation:     4   261
 NBasis=   261 NAE=    11 NBE=    11 NFC=     3 NFV=     0
 NROrb=    258 NOA=     8 NOB=     8 NVA=   250 NVB=   250

 **** Warning!!: The largest alpha MO coefficient is  0.29877881D+02

 Leave Link  801 at Wed Aug 26 23:56:02 2020, MaxMem=  2097152000 cpu:         0.6
 (Enter /opt/cluster/programs/g09/g09_d.01/g09/l906.exe)
 DoSCS=T DFT=T ScalE2(SS,OS)=  0.270000  0.270000
 FulOut=F Deriv=F AODrv=F NAtomX=     6
   MMem=        2666  MDisk=           8 MDiskD=           8
  W3Min=      642000 MinDsk=     1426009 NBas6D=         321
 NBas2D=       52689    NTT=       51681    LW2=     4508827
    MDV=  2096809471 MDiskM=       14501 NBas2p=       52125
 Fully direct method using O(OVN) memory.
 IMap=   1   2   3   4   5   6   7   8
 JobTyp=1 Pass  1:  I=   1 to   8 NPSUse=  8 ParTrn=T ParDer=T DoDerP=F.
 Spin components of T(2) and E(2):
     alpha-alpha T2 =       0.3614761250D-01 E2=     -0.2151663858D-01
     alpha-beta  T2 =       0.2108497190D+00 E2=     -0.1380690419D+00
     beta-beta   T2 =       0.3614761250D-01 E2=     -0.2151663858D-01
 The integrals were generated   1 times.
 E2(B2PLYPD3) =    -0.1811023190D+00 E(B2PLYPD3) =    -0.13271505499484D+03
 Leave Link  906 at Wed Aug 26 23:56:16 2020, MaxMem=  2097152000 cpu:        93.3
 (Enter /opt/cluster/programs/g09/g09_d.01/g09/l601.exe)
 Copying SCF densities to generalized density rwf, IOpCl= 0 IROHF=0.

 **********************************************************************

            Population analysis using the SCF density.

 **********************************************************************

 Orbital symmetries:
       Occupied  (A) (A) (A) (A) (A) (A) (A) (A) (A) (A) (A)
       Virtual   (A) (A) (A) (A) (A) (A) (A) (A) (A) (A) (A) (A)
                 (A) (A) (A) (A) (A) (A) (A) (A) (A) (A) (A) (A)
                 (A) (A) (A) (A) (A) (A) (A) (A) (A) (A) (A) (A)
                 (A) (A) (A) (A) (A) (A) (A) (A) (A) (A) (A) (A)
                 (A) (A) (A) (A) (A) (A) (A) (A) (A) (A) (A) (A)
                 (A) (A) (A) (A) (A) (A) (A) (A) (A) (A) (A) (A)
                 (A) (A) (A) (A) (A) (A) (A) (A) (A) (A) (A) (A)
                 (A) (A) (A) (A) (A) (A) (A) (A) (A) (A) (A) (A)
                 (A) (A) (A) (A) (A) (A) (A) (A) (A) (A) (A) (A)
                 (A) (A) (A) (A) (A) (A) (A) (A) (A) (A) (A) (A)
                 (A) (A) (A) (A) (A) (A) (A) (A) (A) (A) (A) (A)
                 (A) (A) (A) (A) (A) (A) (A) (A) (A) (A) (A) (A)
                 (A) (A) (A) (A) (A) (A) (A) (A) (A) (A) (A) (A)
                 (A) (A) (A) (A) (A) (A) (A) (A) (A) (A) (A) (A)
                 (A) (A) (A) (A) (A) (A) (A) (A) (A) (A) (A) (A)
                 (A) (A) (A) (A) (A) (A) (A) (A) (A) (A) (A) (A)
                 (A) (A) (A) (A) (A) (A) (A) (A) (A) (A) (A) (A)
                 (A) (A) (A) (A) (A) (A) (A) (A) (A) (A) (A) (A)
                 (A) (A) (A) (A) (A) (A) (A) (A) (A) (A) (A) (A)
                 (A) (A) (A) (A) (A) (A) (A) (A) (A) (A) (A) (A)
                 (A) (A) (A) (A) (A) (A) (A) (A) (A) (A)
 The electronic state is 1-A.
 Alpha  occ. eigenvalues --  -14.84352 -10.67191 -10.66427  -1.03796  -0.89278
 Alpha  occ. eigenvalues --   -0.59410  -0.54319  -0.53846  -0.44760  -0.38887
 Alpha  occ. eigenvalues --   -0.38845
 Alpha virt. eigenvalues --    0.03709   0.07580   0.08157   0.10160   0.11338
 Alpha virt. eigenvalues --    0.11362   0.15339   0.15746   0.16618   0.20129
 Alpha virt. eigenvalues --    0.20133   0.25318   0.32603   0.34467   0.34652
 Alpha virt. eigenvalues --    0.38645   0.39705   0.39927   0.40321   0.47065
 Alpha virt. eigenvalues --    0.50312   0.52195   0.58904   0.59838   0.61353
 Alpha virt. eigenvalues --    0.66716   0.67306   0.69052   0.70223   0.79256
 Alpha virt. eigenvalues --    0.79577   0.82378   0.82469   0.83303   0.86531
 Alpha virt. eigenvalues --    0.91407   0.93816   0.95272   0.96400   0.97526
 Alpha virt. eigenvalues --    1.05624   1.07202   1.07800   1.11670   1.13219
 Alpha virt. eigenvalues --    1.14140   1.22731   1.22929   1.23319   1.34987
 Alpha virt. eigenvalues --    1.35886   1.44763   1.46726   1.47874   1.54517
 Alpha virt. eigenvalues --    1.64767   1.66796   1.70124   1.74350   1.78047
 Alpha virt. eigenvalues --    1.78815   1.79018   1.88420   1.91558   1.92876
 Alpha virt. eigenvalues --    1.94614   1.98979   2.00105   2.00933   2.04264
 Alpha virt. eigenvalues --    2.06255   2.11949   2.13529   2.18809   2.21256
 Alpha virt. eigenvalues --    2.22927   2.23942   2.24714   2.34786   2.35760
 Alpha virt. eigenvalues --    2.42992   2.50680   2.51561   2.57754   2.58352
 Alpha virt. eigenvalues --    2.60104   2.66797   2.69856   2.71409   2.72140
 Alpha virt. eigenvalues --    2.77277   2.77713   2.86414   2.88373   2.88912
 Alpha virt. eigenvalues --    2.93410   2.93784   2.95327   2.96891   3.05872
 Alpha virt. eigenvalues --    3.10142   3.11733   3.21268   3.28491   3.29973
 Alpha virt. eigenvalues --    3.33971   3.38335   3.39817   3.40677   3.47316
 Alpha virt. eigenvalues --    3.53668   3.57404   3.70875   3.73801   3.74995
 Alpha virt. eigenvalues --    3.87973   3.90810   3.91084   3.95961   3.97569
 Alpha virt. eigenvalues --    4.01001   4.05023   4.05843   4.25168   4.26557
 Alpha virt. eigenvalues --    4.54667   4.91154   4.91332   5.05841   5.08706
 Alpha virt. eigenvalues --    5.10219   5.14371   5.20216   5.21358   5.25738
 Alpha virt. eigenvalues --    5.32351   5.44716   5.46100   5.47553   5.64358
 Alpha virt. eigenvalues --    5.68455   5.84653   5.86213   5.90554   5.92127
 Alpha virt. eigenvalues --    5.94267   5.97781   5.98839   5.99932   6.01939
 Alpha virt. eigenvalues --    6.03124   6.04820   6.06056   6.08045   6.13422
 Alpha virt. eigenvalues --    6.18479   6.19258   6.21526   6.29822   6.31313
 Alpha virt. eigenvalues --    6.39659   6.43131   6.46918   6.55875   6.57852
 Alpha virt. eigenvalues --    6.63219   6.64691   6.88537   6.90182   6.95682
 Alpha virt. eigenvalues --    6.97310   7.02570   7.02593   7.07647   7.11664
 Alpha virt. eigenvalues --    7.15946   7.19039   7.23340   7.44008   7.46319
 Alpha virt. eigenvalues --    7.47650   7.50170   7.54672   7.58437   7.61087
 Alpha virt. eigenvalues --    7.67420   7.72754   7.73516   7.82975   7.84450
 Alpha virt. eigenvalues --    7.87013   7.91072   7.97298   8.01041   8.25230
 Alpha virt. eigenvalues --    8.28928   8.36206   8.41673   8.42651   8.46063
 Alpha virt. eigenvalues --    8.47002   8.48771   8.49326   8.52094   8.58135
 Alpha virt. eigenvalues --    8.60145   8.63840   8.66497   8.66768   8.67388
 Alpha virt. eigenvalues --    8.70271   8.83695   8.84781   8.85802   9.02071
 Alpha virt. eigenvalues --    9.04788   9.12216   9.12850   9.13577   9.14661
 Alpha virt. eigenvalues --    9.23791   9.26956   9.68452   9.73323   9.81208
 Alpha virt. eigenvalues --    9.88383   9.91852   9.92371   9.97813  10.08715
 Alpha virt. eigenvalues --   10.12896  10.14395  10.16644  10.31791  10.43099
 Alpha virt. eigenvalues --   10.46766  10.65712  11.37033  11.71966  11.80041
 Alpha virt. eigenvalues --   11.95242  12.03640  13.10815  13.52385  29.17186
 Alpha virt. eigenvalues --   29.54440  38.29792 148.82471 149.17017 198.21292
          Condensed to atoms (all electrons):
               1          2          3          4          5          6
     1  C    4.611968   0.297066  -0.059242   0.410173   0.414069   0.414521
     2  C    0.297066   4.853923   0.981427  -0.045972  -0.044594  -0.040958
     3  N   -0.059242   0.981427   6.290267  -0.000471  -0.000919  -0.001065
     4  H    0.410173  -0.045972  -0.000471   0.596442  -0.029961  -0.029518
     5  H    0.414069  -0.044594  -0.000919  -0.029961   0.588895  -0.028188
     6  H    0.414521  -0.040958  -0.001065  -0.029518  -0.028188   0.585772
 Mulliken charges:
               1
     1  C   -0.088555
     2  C   -0.000891
     3  N   -0.209997
     4  H    0.099307
     5  H    0.100698
     6  H    0.099436
 Sum of Mulliken charges =   0.00000
 Mulliken charges with hydrogens summed into heavy atoms:
               1
     1  C    0.210888
     2  C   -0.000891
     3  N   -0.209997
 Electronic spatial extent (au):  <R**2>=            162.1366
 Charge=              0.0000 electrons
 Dipole moment (field-independent basis, Debye):
    X=             -4.1339    Y=             -0.0222    Z=              0.0312  Tot=              4.1341
 Quadrupole moment (field-independent basis, Debye-Ang):
   XX=            -21.0975   YY=            -17.6907   ZZ=            -17.8056
   XY=             -0.0518   XZ=              0.0472   YZ=              0.0103
 Traceless Quadrupole moment (field-independent basis, Debye-Ang):
   XX=             -2.2329   YY=              1.1739   ZZ=              1.0590
   XY=             -0.0518   XZ=              0.0472   YZ=              0.0103
 Octapole moment (field-independent basis, Debye-Ang**2):
  XXX=            -12.6845  YYY=              0.4704  ZZZ=              0.6378  XYY=             -2.4276
  XXY=              0.1262  XXZ=             -0.0739  XZZ=             -2.1749  YZZ=             -0.5264
  YYZ=             -0.6531  XYZ=             -0.0034
 Hexadecapole moment (field-independent basis, Debye-Ang**3):
 XXXX=           -183.0871 YYYY=            -24.8891 ZZZZ=            -24.5442 XXXY=             -0.3443
 XXXZ=              0.2606 YYYX=             -0.8293 YYYZ=              0.0287 ZZZX=             -1.1144
 ZZZY=              0.0264 XXYY=            -30.9634 XXZZ=            -31.4362 YYZZ=             -8.2378
 XXYZ=             -0.0162 YYXZ=              1.0676 ZZXY=              0.8604
 N-N= 5.838864965363D+01 E-N=-4.253554115984D+02  KE= 1.320138936245D+02
 Leave Link  601 at Wed Aug 26 23:56:21 2020, MaxMem=  2097152000 cpu:         0.4
 (Enter /opt/cluster/programs/g09/g09_d.01/g09/l9999.exe)
 1\1\GINC-NODE26\SP\RB2PLYPD3-FC\def2QZVP\C2H3N1\BOITTIER\26-Aug-2020\0
 \\#p B2PLYPD3/Def2QZVP\\cyanomethane\\0,1\C,0,-6.604916,-1.111753,1.15
 9445\C,0,-5.198322,-0.797335,0.929054\N,0,-4.091698,-0.535694,0.691066
 \H,0,-6.734367,-1.204599,2.216637\H,0,-6.835763,-2.061997,0.686232\H,0
 ,-7.269713,-0.305479,0.776319\\Version=ES64L-G09RevD.01\State=1-A\HF=-
 132.5339527\MP2=-132.715055\RMSD=4.000e-09\PG=C01 [X(C2H3N1)]\\@


 10 WHATSOEVER THY HAND FINDETH TO DO, DO IT WITH THY  
 MIGHT. FOR THERE IS NO WORK, NOR DEVICE, NOR KNOWLEDGE, NOR  
 WISDOM, IN THE GRAVE, WHITHER THOU GOEST.                    
 11 I RETURNED AND SAW UNDER THE SUN, THAT THE RACE IS NOT TO 
 THE SWIFT, NOR THE BATTLE TO THE STRONG, NEITHER YET BREAD TO
 THE WISE, NOR YET RICHES TO MEN OF UNDERSTANDING, NOR YET    
 FAVOR TO MEN OF SKILL. BUT TIME AND CHANCE HAPPEN TO THEM ALL.
 12 FOR MAN ALSO KNOWETH NOT HIS TIME. AS THE FISHES   
 THAT ARE TAKEN IN AN EVIL NET, AND AS THE BIRDS THAT ARE     
 CAUGHT IN THE SNARE. SO ARE THE SONS OF MEN SNARED IN AN EVIL
 TIME, WHEN IT FALLETH SUDDENLY UPON THEM.
                                         ECCLESIASTES 9
 Job cpu time:       0 days  0 hours  4 minutes 26.3 seconds.
 File lengths (MBytes):  RWF=     28 Int=      0 D2E=      0 Chk=      5 Scr=      1
 Normal termination of Gaussian 09 at Wed Aug 26 23:56:24 2020.
