 Entering Gaussian System, Link 0=/opt/cluster/programs/g09/g09_d.01/g09//g09
 Input=/home/boittier/MDCM/nms_sampling/cyanomethane_geom.xyz.dir/energies/cyanomethane_3291_energy.com
 Output=/scratch/boittier/cyanomethane_3291_energy/cyanomethane_3291_energy.out
 Initial command:
 /opt/cluster/programs/g09/g09_d.01/g09/l1.exe "/scratch/boittier/cyanomethane_3291_energy/Gau-163268.inp" -scrdir="/scratch/boittier/cyanomethane_3291_energy/"
 Entering Link 1 = /opt/cluster/programs/g09/g09_d.01/g09/l1.exe PID=    163269.
  
 Copyright (c) 1988,1990,1992,1993,1995,1998,2003,2009,2013,
            Gaussian, Inc.  All Rights Reserved.
  
 This is part of the Gaussian(R) 09 program.  It is based on
 the Gaussian(R) 03 system (copyright 2003, Gaussian, Inc.),
 the Gaussian(R) 98 system (copyright 1998, Gaussian, Inc.),
 the Gaussian(R) 94 system (copyright 1995, Gaussian, Inc.),
 the Gaussian 92(TM) system (copyright 1992, Gaussian, Inc.),
 the Gaussian 90(TM) system (copyright 1990, Gaussian, Inc.),
 the Gaussian 88(TM) system (copyright 1988, Gaussian, Inc.),
 the Gaussian 86(TM) system (copyright 1986, Carnegie Mellon
 University), and the Gaussian 82(TM) system (copyright 1983,
 Carnegie Mellon University). Gaussian is a federally registered
 trademark of Gaussian, Inc.
  
 This software contains proprietary and confidential information,
 including trade secrets, belonging to Gaussian, Inc.
  
 This software is provided under written license and may be
 used, copied, transmitted, or stored only in accord with that
 written license.
  
 The following legend is applicable only to US Government
 contracts under FAR:
  
                    RESTRICTED RIGHTS LEGEND
  
 Use, reproduction and disclosure by the US Government is
 subject to restrictions as set forth in subparagraphs (a)
 and (c) of the Commercial Computer Software - Restricted
 Rights clause in FAR 52.227-19.
  
 Gaussian, Inc.
 340 Quinnipiac St., Bldg. 40, Wallingford CT 06492
  
  
 ---------------------------------------------------------------
 Warning -- This program may not be used in any manner that
 competes with the business of Gaussian, Inc. or will provide
 assistance to any competitor of Gaussian, Inc.  The licensee
 of this program is prohibited from giving any competitor of
 Gaussian, Inc. access to this program.  By using this program,
 the user acknowledges that Gaussian, Inc. is engaged in the
 business of creating and licensing software in the field of
 computational chemistry and represents and warrants to the
 licensee that it is not a competitor of Gaussian, Inc. and that
 it will not use this program in any manner prohibited above.
 ---------------------------------------------------------------
  

 Cite this work as:
 Gaussian 09, Revision D.01,
 M. J. Frisch, G. W. Trucks, H. B. Schlegel, G. E. Scuseria, 
 M. A. Robb, J. R. Cheeseman, G. Scalmani, V. Barone, B. Mennucci, 
 G. A. Petersson, H. Nakatsuji, M. Caricato, X. Li, H. P. Hratchian, 
 A. F. Izmaylov, J. Bloino, G. Zheng, J. L. Sonnenberg, M. Hada, 
 M. Ehara, K. Toyota, R. Fukuda, J. Hasegawa, M. Ishida, T. Nakajima, 
 Y. Honda, O. Kitao, H. Nakai, T. Vreven, J. A. Montgomery, Jr., 
 J. E. Peralta, F. Ogliaro, M. Bearpark, J. J. Heyd, E. Brothers, 
 K. N. Kudin, V. N. Staroverov, T. Keith, R. Kobayashi, J. Normand, 
 K. Raghavachari, A. Rendell, J. C. Burant, S. S. Iyengar, J. Tomasi, 
 M. Cossi, N. Rega, J. M. Millam, M. Klene, J. E. Knox, J. B. Cross, 
 V. Bakken, C. Adamo, J. Jaramillo, R. Gomperts, R. E. Stratmann, 
 O. Yazyev, A. J. Austin, R. Cammi, C. Pomelli, J. W. Ochterski, 
 R. L. Martin, K. Morokuma, V. G. Zakrzewski, G. A. Voth, 
 P. Salvador, J. J. Dannenberg, S. Dapprich, A. D. Daniels, 
 O. Farkas, J. B. Foresman, J. V. Ortiz, J. Cioslowski, 
 and D. J. Fox, Gaussian, Inc., Wallingford CT, 2013.
 
 ******************************************
 Gaussian 09:  ES64L-G09RevD.01 24-Apr-2013
                26-Aug-2020 
 ******************************************
 %chk=/home/boittier/MDCM/nms_sampling/cyanomethane_geom.xyz.dir/cyanomethane_329
 1.chk
 %nproc=8
 Will use up to    8 processors via shared memory.
 %mem=16000MB
 --------------------
 #p B2PLYPD3/Def2QZVP
 --------------------
 1/38=1/1;
 2/12=2,17=6,18=5,40=1/2;
 3/5=45,7=101,11=9,16=1,25=1,30=1,74=-60/1,2,3;
 4//1;
 5/5=2,38=5/2;
 8/10=1/1;
 9/16=-3/6;
 6/7=2,8=2,9=2,10=2/1;
 99/5=1,9=1/99;
 Leave Link    1 at Wed Aug 26 23:02:02 2020, MaxMem=  2097152000 cpu:         0.2
 (Enter /opt/cluster/programs/g09/g09_d.01/g09/l101.exe)
 ------------
 cyanomethane
 ------------
 Symbolic Z-matrix:
 Charge =  0 Multiplicity = 1
 C                    -6.62949  -1.10576   1.17712 
 C                    -5.19483  -0.7591    0.87236 
 N                    -4.0803   -0.56266   0.71882 
 H                    -6.69335  -1.24713   2.26644 
 H                    -6.68174  -2.152     0.70523 
 H                    -7.36922  -0.34695   0.76985 
 
 NAtoms=      6 NQM=        6 NQMF=       0 NMMI=      0 NMMIF=      0
                NMic=       0 NMicF=      0.
                    Isotopes and Nuclear Properties:
 (Nuclear quadrupole moments (NQMom) in fm**2, nuclear magnetic moments (NMagM)
  in nuclear magnetons)

  Atom         1           2           3           4           5           6
 IAtWgt=          12          12          14           1           1           1
 AtmWgt=  12.0000000  12.0000000  14.0030740   1.0078250   1.0078250   1.0078250
 NucSpn=           0           0           2           1           1           1
 AtZEff=   0.0000000   0.0000000   0.0000000   0.0000000   0.0000000   0.0000000
 NQMom=    0.0000000   0.0000000   2.0440000   0.0000000   0.0000000   0.0000000
 NMagM=    0.0000000   0.0000000   0.4037610   2.7928460   2.7928460   2.7928460
 AtZNuc=   6.0000000   6.0000000   7.0000000   1.0000000   1.0000000   1.0000000
 Leave Link  101 at Wed Aug 26 23:02:02 2020, MaxMem=  2097152000 cpu:         0.5
 (Enter /opt/cluster/programs/g09/g09_d.01/g09/l202.exe)
                          Input orientation:                          
 ---------------------------------------------------------------------
 Center     Atomic      Atomic             Coordinates (Angstroms)
 Number     Number       Type             X           Y           Z
 ---------------------------------------------------------------------
      1          6           0       -6.629491   -1.105762    1.177115
      2          6           0       -5.194833   -0.759099    0.872363
      3          7           0       -4.080302   -0.562657    0.718819
      4          1           0       -6.693348   -1.247128    2.266440
      5          1           0       -6.681744   -2.151998    0.705231
      6          1           0       -7.369219   -0.346952    0.769851
 ---------------------------------------------------------------------
                    Distance matrix (angstroms):
                    1          2          3          4          5
     1  C    0.000000
     2  C    1.507081   0.000000
     3  N    2.646387   1.142079   0.000000
     4  H    1.100314   2.104084   3.113140   0.000000
     5  H    1.148919   2.044261   3.048555   1.804522   0.000000
     6  H    1.135277   2.215475   3.296378   1.872671   1.932612
                    6
     6  H    0.000000
 Stoichiometry    C2H3N
 Framework group  C1[X(C2H3N)]
 Deg. of freedom    12
 Full point group                 C1      NOp   1
 Largest Abelian subgroup         C1      NOp   1
 Largest concise Abelian subgroup C1      NOp   1
                         Standard orientation:                         
 ---------------------------------------------------------------------
 Center     Atomic      Atomic             Coordinates (Angstroms)
 Number     Number       Type             X           Y           Z
 ---------------------------------------------------------------------
      1          6           0       -1.209611    0.004151    0.007660
      2          6           0        0.296596    0.046700   -0.020985
      3          7           0        1.436727   -0.011271    0.011972
      4          1           0       -1.492848   -0.420151    0.982563
      5          1           0       -1.396443   -0.815484   -0.775480
      6          1           0       -1.689709    1.009423   -0.210945
 ---------------------------------------------------------------------
 Rotational constants (GHZ):    143.0164847      9.0675208      9.0237652
 Leave Link  202 at Wed Aug 26 23:02:02 2020, MaxMem=  2097152000 cpu:         0.1
 (Enter /opt/cluster/programs/g09/g09_d.01/g09/l301.exe)
 Standard basis: def2QZVP (5D, 7F)
 Ernie: Thresh=  0.10000D-02 Tol=  0.10000D-05 Strict=F.
 There are   321 symmetry adapted cartesian basis functions of A   symmetry.
 There are   261 symmetry adapted basis functions of A   symmetry.
   261 basis functions,   390 primitive gaussians,   321 cartesian basis functions
    11 alpha electrons       11 beta electrons
       nuclear repulsion energy        57.8189714666 Hartrees.
 IExCor=  419 DFT=T Ex+Corr=B2PLYPD3 ExCW=0 ScaHFX=  0.530000
 ScaDFX=  0.470000  0.470000  0.730000  0.730000 ScalE2=  0.270000  0.270000
 IRadAn=      0 IRanWt=     -1 IRanGd=            0 ICorTp=0 IEmpDi=141
 NAtoms=    6 NActive=    6 NUniq=    6 SFac= 1.00D+00 NAtFMM=   60 NAOKFM=F Big=F
 Integral buffers will be    131072 words long.
 Regular integral format.
 Two-electron integral symmetry is turned on.
 R6Disp:  Grimme-D3(BJ) Dispersion energy=       -0.0020990142 Hartrees.
 Nuclear repulsion after empirical dispersion term =       57.8168724524 Hartrees.
 Leave Link  301 at Wed Aug 26 23:02:02 2020, MaxMem=  2097152000 cpu:         0.4
 (Enter /opt/cluster/programs/g09/g09_d.01/g09/l302.exe)
 NPDir=0 NMtPBC=     1 NCelOv=     1 NCel=       1 NClECP=     1 NCelD=      1
         NCelK=      1 NCelE2=     1 NClLst=     1 CellRange=     0.0.
 One-electron integrals computed using PRISM.
   1 Symmetry operations used in ECPInt.
 ECPInt:  NShTT=    3321 NPrTT=    8136 LenC2=    3294 LenP2D=    7118.
 LDataN:  DoStor=T MaxTD1= 8 Len=  415
 NBasis=   261 RedAO= T EigKep=  8.64D-05  NBF=   261
 NBsUse=   261 1.00D-06 EigRej= -1.00D+00 NBFU=   261
 Precomputing XC quadrature grid using
 IXCGrd= 4 IRadAn=           0 IRanWt=          -1 IRanGd=           0 AccXCQ= 0.00D+00.
 Generated NRdTot=       0 NPtTot=           0 NUsed=           0 NTot=          32
 NSgBfM=   321   321   321   321   321 MxSgAt=     6 MxSgA2=     6.
 Leave Link  302 at Wed Aug 26 23:02:03 2020, MaxMem=  2097152000 cpu:         2.0
 (Enter /opt/cluster/programs/g09/g09_d.01/g09/l303.exe)
 DipDrv:  MaxL=1.
 Leave Link  303 at Wed Aug 26 23:02:03 2020, MaxMem=  2097152000 cpu:         0.2
 (Enter /opt/cluster/programs/g09/g09_d.01/g09/l401.exe)
 ExpMin= 7.60D-02 ExpMax= 9.07D+04 ExpMxC= 8.76D+02 IAcc=2 IRadAn=         4 AccDes= 0.00D+00
 Harris functional with IExCor=  419 and IRadAn=       4 diagonalized for initial guess.
 HarFok:  IExCor=  419 AccDes= 0.00D+00 IRadAn=         4 IDoV= 1 UseB2=F ITyADJ=14
 ICtDFT=  3500011 ScaDFX=  1.000000  1.000000  1.000000  1.000000
 FoFCou: FMM=F IPFlag=           0 FMFlag=      100000 FMFlg1=           0
         NFxFlg=           0 DoJE=T BraDBF=F KetDBF=T FulRan=T
         wScrn=  0.000000 ICntrl=     500 IOpCl=  0 I1Cent=   200000004 NGrid=           0
         NMat0=    1 NMatS0=      1 NMatT0=    0 NMatD0=    1 NMtDS0=    0 NMtDT0=    0
 Petite list used in FoFCou.
 Harris En= -132.837969350263    
 JPrj=0 DoOrth=F DoCkMO=F.
 Leave Link  401 at Wed Aug 26 23:02:04 2020, MaxMem=  2097152000 cpu:         3.8
 (Enter /opt/cluster/programs/g09/g09_d.01/g09/l502.exe)
 Closed shell SCF:
 Using DIIS extrapolation, IDIIS=  1040.
 Integral symmetry usage will be decided dynamically.
 Keep R1 ints in memory in canonical form, NReq=601554820.
 IVT=      332521 IEndB=      332521 NGot=  2097152000 MDV=  1512290144
 LenX=  1512290144 LenY=  1512186662
 Requested convergence on RMS density matrix=1.00D-08 within 128 cycles.
 Requested convergence on MAX density matrix=1.00D-06.
 Requested convergence on             energy=1.00D-06.
 No special actions if energy rises.
 FoFCou: FMM=F IPFlag=           0 FMFlag=           0 FMFlg1=           0
         NFxFlg=           0 DoJE=F BraDBF=F KetDBF=F FulRan=T
         wScrn=  0.000000 ICntrl=     600 IOpCl=  0 I1Cent=           0 NGrid=           0
         NMat0=    1 NMatS0=  34191 NMatT0=    0 NMatD0=    1 NMtDS0=    0 NMtDT0=    0
 Symmetry not used in FoFCou.
 Integral accuracy reduced to 1.0D-05 until final iterations.

 Cycle   1  Pass 0  IDiag  1:
 E= -132.417140304713    
 DIIS: error= 2.52D-02 at cycle   1 NSaved=   1.
 NSaved= 1 IEnMin= 1 EnMin= -132.417140304713     IErMin= 1 ErrMin= 2.52D-02
 ErrMax= 2.52D-02  0.00D+00 EMaxC= 1.00D-01 BMatC= 1.86D-01 BMatP= 1.86D-01
 IDIUse=3 WtCom= 7.48D-01 WtEn= 2.52D-01
 Coeff-Com:  0.100D+01
 Coeff-En:   0.100D+01
 Coeff:      0.100D+01
 Gap=     0.463 Goal=   None    Shift=    0.000
 GapD=    0.463 DampG=2.000 DampE=0.500 DampFc=1.0000 IDamp=-1.
 RMSDP=1.34D-03 MaxDP=7.45D-02              OVMax= 1.68D-01

 Cycle   2  Pass 0  IDiag  1:
 E= -132.437536703136     Delta-E=       -0.020396398423 Rises=F Damp=F
 DIIS: error= 3.17D-02 at cycle   2 NSaved=   2.
 NSaved= 2 IEnMin= 2 EnMin= -132.437536703136     IErMin= 1 ErrMin= 2.52D-02
 ErrMax= 3.17D-02  0.00D+00 EMaxC= 1.00D-01 BMatC= 1.05D-01 BMatP= 1.86D-01
 IDIUse=3 WtCom= 6.83D-01 WtEn= 3.17D-01
 Coeff-Com:  0.415D+00 0.585D+00
 Coeff-En:   0.440D+00 0.560D+00
 Coeff:      0.423D+00 0.577D+00
 Gap=     0.437 Goal=   None    Shift=    0.000
 RMSDP=8.79D-04 MaxDP=3.62D-02 DE=-2.04D-02 OVMax= 1.29D-01

 Cycle   3  Pass 0  IDiag  1:
 E= -132.511392980338     Delta-E=       -0.073856277202 Rises=F Damp=F
 DIIS: error= 1.60D-02 at cycle   3 NSaved=   3.
 NSaved= 3 IEnMin= 3 EnMin= -132.511392980338     IErMin= 3 ErrMin= 1.60D-02
 ErrMax= 1.60D-02  0.00D+00 EMaxC= 1.00D-01 BMatC= 1.85D-02 BMatP= 1.05D-01
 IDIUse=3 WtCom= 8.40D-01 WtEn= 1.60D-01
 Coeff-Com:  0.887D-01 0.305D+00 0.607D+00
 Coeff-En:   0.000D+00 0.103D+00 0.897D+00
 Coeff:      0.746D-01 0.272D+00 0.653D+00
 Gap=     0.427 Goal=   None    Shift=    0.000
 RMSDP=2.60D-04 MaxDP=9.14D-03 DE=-7.39D-02 OVMax= 5.70D-02

 Cycle   4  Pass 0  IDiag  1:
 E= -132.524187822613     Delta-E=       -0.012794842275 Rises=F Damp=F
 DIIS: error= 5.82D-03 at cycle   4 NSaved=   4.
 NSaved= 4 IEnMin= 4 EnMin= -132.524187822613     IErMin= 4 ErrMin= 5.82D-03
 ErrMax= 5.82D-03  0.00D+00 EMaxC= 1.00D-01 BMatC= 2.81D-03 BMatP= 1.85D-02
 IDIUse=3 WtCom= 9.42D-01 WtEn= 5.82D-02
 Coeff-Com: -0.127D-01 0.463D-01 0.331D+00 0.636D+00
 Coeff-En:   0.000D+00 0.000D+00 0.139D+00 0.861D+00
 Coeff:     -0.119D-01 0.436D-01 0.320D+00 0.649D+00
 Gap=     0.426 Goal=   None    Shift=    0.000
 RMSDP=8.86D-05 MaxDP=2.99D-03 DE=-1.28D-02 OVMax= 1.49D-02

 Cycle   5  Pass 0  IDiag  1:
 E= -132.526633505083     Delta-E=       -0.002445682470 Rises=F Damp=F
 DIIS: error= 3.64D-04 at cycle   5 NSaved=   5.
 NSaved= 5 IEnMin= 5 EnMin= -132.526633505083     IErMin= 5 ErrMin= 3.64D-04
 ErrMax= 3.64D-04  0.00D+00 EMaxC= 1.00D-01 BMatC= 1.56D-05 BMatP= 2.81D-03
 IDIUse=3 WtCom= 9.96D-01 WtEn= 3.64D-03
 Coeff-Com: -0.393D-02 0.563D-02 0.591D-01 0.164D+00 0.775D+00
 Coeff-En:   0.000D+00 0.000D+00 0.000D+00 0.000D+00 0.100D+01
 Coeff:     -0.391D-02 0.561D-02 0.589D-01 0.164D+00 0.776D+00
 Gap=     0.425 Goal=   None    Shift=    0.000
 RMSDP=8.81D-06 MaxDP=3.38D-04 DE=-2.45D-03 OVMax= 1.27D-03

 Initial convergence to 1.0D-05 achieved.  Increase integral accuracy.
 Cycle   6  Pass 1  IDiag  1:
 E= -132.526650183848     Delta-E=       -0.000016678765 Rises=F Damp=F
 DIIS: error= 8.79D-05 at cycle   1 NSaved=   1.
 NSaved= 1 IEnMin= 1 EnMin= -132.526650183848     IErMin= 1 ErrMin= 8.79D-05
 ErrMax= 8.79D-05  0.00D+00 EMaxC= 1.00D-01 BMatC= 8.05D-07 BMatP= 8.05D-07
 IDIUse=1 WtCom= 1.00D+00 WtEn= 0.00D+00
 Coeff-Com:  0.100D+01
 Coeff:      0.100D+01
 Gap=     0.426 Goal=   None    Shift=    0.000
 RMSDP=8.81D-06 MaxDP=3.38D-04 DE=-1.67D-05 OVMax= 4.67D-04

 Cycle   7  Pass 1  IDiag  1:
 E= -132.526650632452     Delta-E=       -0.000000448605 Rises=F Damp=F
 DIIS: error= 6.11D-05 at cycle   2 NSaved=   2.
 NSaved= 2 IEnMin= 2 EnMin= -132.526650632452     IErMin= 2 ErrMin= 6.11D-05
 ErrMax= 6.11D-05  0.00D+00 EMaxC= 1.00D-01 BMatC= 4.26D-07 BMatP= 8.05D-07
 IDIUse=1 WtCom= 1.00D+00 WtEn= 0.00D+00
 Coeff-Com:  0.415D+00 0.585D+00
 Coeff:      0.415D+00 0.585D+00
 Gap=     0.425 Goal=   None    Shift=    0.000
 RMSDP=1.18D-06 MaxDP=5.12D-05 DE=-4.49D-07 OVMax= 1.97D-04

 Cycle   8  Pass 1  IDiag  1:
 E= -132.526651012981     Delta-E=       -0.000000380528 Rises=F Damp=F
 DIIS: error= 1.39D-05 at cycle   3 NSaved=   3.
 NSaved= 3 IEnMin= 3 EnMin= -132.526651012981     IErMin= 3 ErrMin= 1.39D-05
 ErrMax= 1.39D-05  0.00D+00 EMaxC= 1.00D-01 BMatC= 2.26D-08 BMatP= 4.26D-07
 IDIUse=1 WtCom= 1.00D+00 WtEn= 0.00D+00
 Coeff-Com:  0.109D+00 0.220D+00 0.671D+00
 Coeff:      0.109D+00 0.220D+00 0.671D+00
 Gap=     0.425 Goal=   None    Shift=    0.000
 RMSDP=6.06D-07 MaxDP=2.62D-05 DE=-3.81D-07 OVMax= 7.01D-05

 Cycle   9  Pass 1  IDiag  1:
 E= -132.526651026908     Delta-E=       -0.000000013927 Rises=F Damp=F
 DIIS: error= 1.24D-05 at cycle   4 NSaved=   4.
 NSaved= 4 IEnMin= 4 EnMin= -132.526651026908     IErMin= 4 ErrMin= 1.24D-05
 ErrMax= 1.24D-05  0.00D+00 EMaxC= 1.00D-01 BMatC= 8.49D-09 BMatP= 2.26D-08
 IDIUse=1 WtCom= 1.00D+00 WtEn= 0.00D+00
 Coeff-Com: -0.625D-01-0.430D-01 0.412D+00 0.694D+00
 Coeff:     -0.625D-01-0.430D-01 0.412D+00 0.694D+00
 Gap=     0.425 Goal=   None    Shift=    0.000
 RMSDP=3.04D-07 MaxDP=1.55D-05 DE=-1.39D-08 OVMax= 4.77D-05

 Cycle  10  Pass 1  IDiag  1:
 E= -132.526651035150     Delta-E=       -0.000000008243 Rises=F Damp=F
 DIIS: error= 1.18D-06 at cycle   5 NSaved=   5.
 NSaved= 5 IEnMin= 5 EnMin= -132.526651035150     IErMin= 5 ErrMin= 1.18D-06
 ErrMax= 1.18D-06  0.00D+00 EMaxC= 1.00D-01 BMatC= 1.74D-10 BMatP= 8.49D-09
 IDIUse=1 WtCom= 1.00D+00 WtEn= 0.00D+00
 Coeff-Com: -0.254D-01-0.246D-01 0.935D-01 0.224D+00 0.733D+00
 Coeff:     -0.254D-01-0.246D-01 0.935D-01 0.224D+00 0.733D+00
 Gap=     0.425 Goal=   None    Shift=    0.000
 RMSDP=5.49D-08 MaxDP=2.59D-06 DE=-8.24D-09 OVMax= 5.35D-06

 Cycle  11  Pass 1  IDiag  1:
 E= -132.526651035360     Delta-E=       -0.000000000209 Rises=F Damp=F
 DIIS: error= 3.76D-07 at cycle   6 NSaved=   6.
 NSaved= 6 IEnMin= 6 EnMin= -132.526651035360     IErMin= 6 ErrMin= 3.76D-07
 ErrMax= 3.76D-07  0.00D+00 EMaxC= 1.00D-01 BMatC= 1.13D-11 BMatP= 1.74D-10
 IDIUse=1 WtCom= 1.00D+00 WtEn= 0.00D+00
 Coeff-Com:  0.762D-02 0.510D-02-0.541D-01-0.736D-01 0.212D-01 0.109D+01
 Coeff:      0.762D-02 0.510D-02-0.541D-01-0.736D-01 0.212D-01 0.109D+01
 Gap=     0.425 Goal=   None    Shift=    0.000
 RMSDP=1.72D-08 MaxDP=4.74D-07 DE=-2.09D-10 OVMax= 3.92D-06

 Cycle  12  Pass 1  IDiag  1:
 E= -132.526651035400     Delta-E=       -0.000000000040 Rises=F Damp=F
 DIIS: error= 1.22D-07 at cycle   7 NSaved=   7.
 NSaved= 7 IEnMin= 7 EnMin= -132.526651035400     IErMin= 7 ErrMin= 1.22D-07
 ErrMax= 1.22D-07  0.00D+00 EMaxC= 1.00D-01 BMatC= 7.23D-13 BMatP= 1.13D-11
 IDIUse=1 WtCom= 1.00D+00 WtEn= 0.00D+00
 Coeff-Com: -0.837D-03 0.514D-04 0.137D-01 0.103D-01-0.635D-01-0.437D+00
 Coeff-Com:  0.148D+01
 Coeff:     -0.837D-03 0.514D-04 0.137D-01 0.103D-01-0.635D-01-0.437D+00
 Coeff:      0.148D+01
 Gap=     0.425 Goal=   None    Shift=    0.000
 RMSDP=7.48D-09 MaxDP=2.60D-07 DE=-4.04D-11 OVMax= 1.78D-06

 SCF Done:  E(RB2PLYPD3) =  -132.526651035     A.U. after   12 cycles
            NFock= 12  Conv=0.75D-08     -V/T= 2.0048
 KE= 1.318907470998D+02 PE=-4.241550701015D+02 EE= 1.019207995140D+02
 Leave Link  502 at Wed Aug 26 23:02:33 2020, MaxMem=  2097152000 cpu:       153.3
 (Enter /opt/cluster/programs/g09/g09_d.01/g09/l801.exe)
 DoSCS=T DFT=T ScalE2(SS,OS)=  0.270000  0.270000
 ExpMin= 7.60D-02 ExpMax= 9.07D+04 ExpMxC= 8.76D+02 IAcc=3 IRadAn=         5 AccDes= 0.00D+00
 HarFok:  IExCor=  205 AccDes= 0.00D+00 IRadAn=         5 IDoV=-2 UseB2=F ITyADJ=14
 ICtDFT= 12500011 ScaDFX=  1.000000  1.000000  1.000000  1.000000
 Largest valence mixing into a core orbital is  1.15D-04
 Largest core mixing into a valence orbital is  1.88D-05
 Range of M.O.s used for correlation:     4   261
 NBasis=   261 NAE=    11 NBE=    11 NFC=     3 NFV=     0
 NROrb=    258 NOA=     8 NOB=     8 NVA=   250 NVB=   250

 **** Warning!!: The largest alpha MO coefficient is  0.22723008D+02

 Leave Link  801 at Wed Aug 26 23:02:33 2020, MaxMem=  2097152000 cpu:         0.6
 (Enter /opt/cluster/programs/g09/g09_d.01/g09/l906.exe)
 DoSCS=T DFT=T ScalE2(SS,OS)=  0.270000  0.270000
 FulOut=F Deriv=F AODrv=F NAtomX=     6
   MMem=        2666  MDisk=           8 MDiskD=           8
  W3Min=      642000 MinDsk=     1426009 NBas6D=         321
 NBas2D=       52689    NTT=       51681    LW2=     4508827
    MDV=  2096809993 MDiskM=       14501 NBas2p=       52056
 Fully direct method using O(OVN) memory.
 IMap=   1   2   3   4   5   6   7   8
 JobTyp=1 Pass  1:  I=   1 to   8 NPSUse=  8 ParTrn=T ParDer=T DoDerP=F.
 Spin components of T(2) and E(2):
     alpha-alpha T2 =       0.3542474968D-01 E2=     -0.2125862366D-01
     alpha-beta  T2 =       0.2098038485D+00 E2=     -0.1376176684D+00
     beta-beta   T2 =       0.3542474968D-01 E2=     -0.2125862366D-01
 The integrals were generated   1 times.
 E2(B2PLYPD3) =    -0.1801349157D+00 E(B2PLYPD3) =    -0.13270678595113D+03
 Leave Link  906 at Wed Aug 26 23:02:46 2020, MaxMem=  2097152000 cpu:       100.6
 (Enter /opt/cluster/programs/g09/g09_d.01/g09/l601.exe)
 Copying SCF densities to generalized density rwf, IOpCl= 0 IROHF=0.

 **********************************************************************

            Population analysis using the SCF density.

 **********************************************************************

 Orbital symmetries:
       Occupied  (A) (A) (A) (A) (A) (A) (A) (A) (A) (A) (A)
       Virtual   (A) (A) (A) (A) (A) (A) (A) (A) (A) (A) (A) (A)
                 (A) (A) (A) (A) (A) (A) (A) (A) (A) (A) (A) (A)
                 (A) (A) (A) (A) (A) (A) (A) (A) (A) (A) (A) (A)
                 (A) (A) (A) (A) (A) (A) (A) (A) (A) (A) (A) (A)
                 (A) (A) (A) (A) (A) (A) (A) (A) (A) (A) (A) (A)
                 (A) (A) (A) (A) (A) (A) (A) (A) (A) (A) (A) (A)
                 (A) (A) (A) (A) (A) (A) (A) (A) (A) (A) (A) (A)
                 (A) (A) (A) (A) (A) (A) (A) (A) (A) (A) (A) (A)
                 (A) (A) (A) (A) (A) (A) (A) (A) (A) (A) (A) (A)
                 (A) (A) (A) (A) (A) (A) (A) (A) (A) (A) (A) (A)
                 (A) (A) (A) (A) (A) (A) (A) (A) (A) (A) (A) (A)
                 (A) (A) (A) (A) (A) (A) (A) (A) (A) (A) (A) (A)
                 (A) (A) (A) (A) (A) (A) (A) (A) (A) (A) (A) (A)
                 (A) (A) (A) (A) (A) (A) (A) (A) (A) (A) (A) (A)
                 (A) (A) (A) (A) (A) (A) (A) (A) (A) (A) (A) (A)
                 (A) (A) (A) (A) (A) (A) (A) (A) (A) (A) (A) (A)
                 (A) (A) (A) (A) (A) (A) (A) (A) (A) (A) (A) (A)
                 (A) (A) (A) (A) (A) (A) (A) (A) (A) (A) (A) (A)
                 (A) (A) (A) (A) (A) (A) (A) (A) (A) (A) (A) (A)
                 (A) (A) (A) (A) (A) (A) (A) (A) (A) (A) (A) (A)
                 (A) (A) (A) (A) (A) (A) (A) (A) (A) (A)
 The electronic state is 1-A.
 Alpha  occ. eigenvalues --  -14.83693 -10.68848 -10.65949  -1.04410  -0.87682
 Alpha  occ. eigenvalues --   -0.57687  -0.53839  -0.52507  -0.44469  -0.39519
 Alpha  occ. eigenvalues --   -0.39097
 Alpha virt. eigenvalues --    0.03439   0.07900   0.08177   0.10286   0.11230
 Alpha virt. eigenvalues --    0.11789   0.14748   0.15316   0.16721   0.19915
 Alpha virt. eigenvalues --    0.20136   0.24466   0.31679   0.32973   0.34864
 Alpha virt. eigenvalues --    0.37318   0.38262   0.39643   0.40898   0.46150
 Alpha virt. eigenvalues --    0.50539   0.52311   0.57490   0.60431   0.61538
 Alpha virt. eigenvalues --    0.65371   0.66869   0.68547   0.70643   0.78905
 Alpha virt. eigenvalues --    0.79147   0.81229   0.81757   0.84154   0.86860
 Alpha virt. eigenvalues --    0.91090   0.92839   0.95079   0.96352   0.97949
 Alpha virt. eigenvalues --    1.05146   1.05968   1.08023   1.10295   1.11130
 Alpha virt. eigenvalues --    1.16411   1.21433   1.22646   1.24229   1.32219
 Alpha virt. eigenvalues --    1.35354   1.42116   1.44026   1.48009   1.52316
 Alpha virt. eigenvalues --    1.63553   1.64814   1.70272   1.71892   1.77199
 Alpha virt. eigenvalues --    1.78773   1.81015   1.87735   1.91741   1.92886
 Alpha virt. eigenvalues --    1.94591   1.97721   1.99707   2.01320   2.04428
 Alpha virt. eigenvalues --    2.06030   2.10242   2.11315   2.14734   2.19216
 Alpha virt. eigenvalues --    2.23254   2.24090   2.26913   2.32751   2.35573
 Alpha virt. eigenvalues --    2.40456   2.47759   2.51568   2.56352   2.59927
 Alpha virt. eigenvalues --    2.61919   2.66405   2.67408   2.69892   2.72688
 Alpha virt. eigenvalues --    2.74191   2.77176   2.79875   2.81533   2.87023
 Alpha virt. eigenvalues --    2.87764   2.90747   2.92875   2.95622   2.98251
 Alpha virt. eigenvalues --    3.07302   3.10240   3.20056   3.21542   3.27667
 Alpha virt. eigenvalues --    3.30495   3.33509   3.35244   3.39202   3.44841
 Alpha virt. eigenvalues --    3.53052   3.57465   3.63599   3.70435   3.72434
 Alpha virt. eigenvalues --    3.78421   3.84034   3.86453   3.89705   3.91387
 Alpha virt. eigenvalues --    3.99692   4.02857   4.05943   4.23800   4.24417
 Alpha virt. eigenvalues --    4.50214   4.91351   4.91924   5.06451   5.08662
 Alpha virt. eigenvalues --    5.10138   5.16440   5.16829   5.18791   5.22631
 Alpha virt. eigenvalues --    5.26018   5.40794   5.42879   5.50161   5.64928
 Alpha virt. eigenvalues --    5.68573   5.81651   5.84082   5.86001   5.88229
 Alpha virt. eigenvalues --    5.90640   5.91407   5.92886   5.95868   5.97992
 Alpha virt. eigenvalues --    5.99425   6.01825   6.04504   6.05495   6.07122
 Alpha virt. eigenvalues --    6.11438   6.15375   6.19534   6.22362   6.24782
 Alpha virt. eigenvalues --    6.33402   6.38258   6.44951   6.48404   6.52725
 Alpha virt. eigenvalues --    6.56270   6.59441   6.72836   6.80113   6.86319
 Alpha virt. eigenvalues --    6.91327   6.93760   7.02975   7.03063   7.03929
 Alpha virt. eigenvalues --    7.13625   7.14976   7.20872   7.25836   7.27037
 Alpha virt. eigenvalues --    7.41167   7.45934   7.47467   7.52940   7.55142
 Alpha virt. eigenvalues --    7.64854   7.66768   7.72576   7.75557   7.80071
 Alpha virt. eigenvalues --    7.81629   7.85432   7.96657   7.99190   8.12197
 Alpha virt. eigenvalues --    8.21443   8.24589   8.30806   8.32335   8.34344
 Alpha virt. eigenvalues --    8.37821   8.41096   8.44019   8.46322   8.48666
 Alpha virt. eigenvalues --    8.53163   8.61549   8.66078   8.66983   8.68089
 Alpha virt. eigenvalues --    8.72267   8.73017   8.79500   8.83872   8.90627
 Alpha virt. eigenvalues --    8.97140   9.03585   9.06513   9.08132   9.14641
 Alpha virt. eigenvalues --    9.21839   9.25442   9.52250   9.61467   9.66049
 Alpha virt. eigenvalues --    9.75245   9.76481   9.83264   9.85381   9.88002
 Alpha virt. eigenvalues --    9.98509  10.10504  10.11828  10.15153  10.18252
 Alpha virt. eigenvalues --   10.22190  10.42360  11.37633  11.81926  11.88846
 Alpha virt. eigenvalues --   11.99693  12.02277  12.92119  13.33267  29.03407
 Alpha virt. eigenvalues --   29.34604  38.34074 148.65739 148.97664 198.26813
          Condensed to atoms (all electrons):
               1          2          3          4          5          6
     1  C    4.655829   0.297478  -0.058284   0.409223   0.405731   0.409442
     2  C    0.297478   4.844412   0.988891  -0.042478  -0.052302  -0.031413
     3  N   -0.058284   0.988891   6.270339  -0.001078  -0.000704   0.000419
     4  H    0.409223  -0.042478  -0.001078   0.580435  -0.026263  -0.027952
     5  H    0.405731  -0.052302  -0.000704  -0.026263   0.590626  -0.022667
     6  H    0.409442  -0.031413   0.000419  -0.027952  -0.022667   0.562273
 Mulliken charges:
               1
     1  C   -0.119419
     2  C   -0.004589
     3  N   -0.199583
     4  H    0.108114
     5  H    0.105578
     6  H    0.109899
 Sum of Mulliken charges =   0.00000
 Mulliken charges with hydrogens summed into heavy atoms:
               1
     1  C    0.204172
     2  C   -0.004589
     3  N   -0.199583
 Electronic spatial extent (au):  <R**2>=            164.6605
 Charge=              0.0000 electrons
 Dipole moment (field-independent basis, Debye):
    X=             -4.1048    Y=             -0.0173    Z=             -0.0007  Tot=              4.1049
 Quadrupole moment (field-independent basis, Debye-Ang):
   XX=            -21.4108   YY=            -17.5216   ZZ=            -17.8892
   XY=             -0.1057   XZ=             -0.1428   YZ=             -0.0376
 Traceless Quadrupole moment (field-independent basis, Debye-Ang):
   XX=             -2.4703   YY=              1.4189   ZZ=              1.0513
   XY=             -0.1057   XZ=             -0.1428   YZ=             -0.0376
 Octapole moment (field-independent basis, Debye-Ang**2):
  XXX=            -11.8802  YYY=              0.4136  ZZZ=              0.6766  XYY=             -2.5710
  XXY=              0.7520  XXZ=              0.2737  XZZ=             -1.8127  YZZ=             -0.8988
  YYZ=             -0.5219  XYZ=              0.1774
 Hexadecapole moment (field-independent basis, Debye-Ang**3):
 XXXX=           -187.8269 YYYY=            -25.8063 ZZZZ=            -25.2514 XXXY=             -1.6519
 XXXZ=             -0.8174 YYYX=             -1.3278 YYYZ=              0.0933 ZZZX=             -1.0860
 ZZZY=             -0.1485 XXYY=            -31.0688 XXZZ=            -32.5308 YYZZ=             -8.2775
 XXYZ=             -0.5578 YYXZ=              0.8211 ZZXY=              1.2318
 N-N= 5.781687245241D+01 E-N=-4.241550710152D+02  KE= 1.318907470998D+02
 Leave Link  601 at Wed Aug 26 23:02:47 2020, MaxMem=  2097152000 cpu:         0.3
 (Enter /opt/cluster/programs/g09/g09_d.01/g09/l9999.exe)
 1\1\GINC-NODE22\SP\RB2PLYPD3-FC\def2QZVP\C2H3N1\BOITTIER\26-Aug-2020\0
 \\#p B2PLYPD3/Def2QZVP\\cyanomethane\\0,1\C,0,-6.629491,-1.105762,1.17
 7115\C,0,-5.194833,-0.759099,0.872363\N,0,-4.080302,-0.562657,0.718819
 \H,0,-6.693348,-1.247128,2.26644\H,0,-6.681744,-2.151998,0.705231\H,0,
 -7.369219,-0.346952,0.769851\\Version=ES64L-G09RevD.01\State=1-A\HF=-1
 32.526651\MP2=-132.706786\RMSD=7.484e-09\PG=C01 [X(C2H3N1)]\\@


 READER, WHETHER YOU BE DILETTANTE OR PROFESSOR ... SHOW YOURSELF TO BE
 MORE HUMAN THAN CRITICAL, AND THEN YOUR PLEASURE WILL INCREASE.
                                           -- DOMENICO SCARLATTI (1738)
 Job cpu time:       0 days  0 hours  4 minutes 22.4 seconds.
 File lengths (MBytes):  RWF=     28 Int=      0 D2E=      0 Chk=      5 Scr=      1
 Normal termination of Gaussian 09 at Wed Aug 26 23:02:47 2020.
