 Entering Gaussian System, Link 0=/opt/cluster/programs/g09/g09_d.01/g09//g09
 Input=/home/boittier/MDCM/nms_sampling/cyanomethane_geom.xyz.dir/energies/cyanomethane_873_energy.com
 Output=/scratch/boittier/cyanomethane_873_energy/cyanomethane_873_energy.out
 Initial command:
 /opt/cluster/programs/g09/g09_d.01/g09/l1.exe "/scratch/boittier/cyanomethane_873_energy/Gau-199171.inp" -scrdir="/scratch/boittier/cyanomethane_873_energy/"
 Entering Link 1 = /opt/cluster/programs/g09/g09_d.01/g09/l1.exe PID=    199179.
  
 Copyright (c) 1988,1990,1992,1993,1995,1998,2003,2009,2013,
            Gaussian, Inc.  All Rights Reserved.
  
 This is part of the Gaussian(R) 09 program.  It is based on
 the Gaussian(R) 03 system (copyright 2003, Gaussian, Inc.),
 the Gaussian(R) 98 system (copyright 1998, Gaussian, Inc.),
 the Gaussian(R) 94 system (copyright 1995, Gaussian, Inc.),
 the Gaussian 92(TM) system (copyright 1992, Gaussian, Inc.),
 the Gaussian 90(TM) system (copyright 1990, Gaussian, Inc.),
 the Gaussian 88(TM) system (copyright 1988, Gaussian, Inc.),
 the Gaussian 86(TM) system (copyright 1986, Carnegie Mellon
 University), and the Gaussian 82(TM) system (copyright 1983,
 Carnegie Mellon University). Gaussian is a federally registered
 trademark of Gaussian, Inc.
  
 This software contains proprietary and confidential information,
 including trade secrets, belonging to Gaussian, Inc.
  
 This software is provided under written license and may be
 used, copied, transmitted, or stored only in accord with that
 written license.
  
 The following legend is applicable only to US Government
 contracts under FAR:
  
                    RESTRICTED RIGHTS LEGEND
  
 Use, reproduction and disclosure by the US Government is
 subject to restrictions as set forth in subparagraphs (a)
 and (c) of the Commercial Computer Software - Restricted
 Rights clause in FAR 52.227-19.
  
 Gaussian, Inc.
 340 Quinnipiac St., Bldg. 40, Wallingford CT 06492
  
  
 ---------------------------------------------------------------
 Warning -- This program may not be used in any manner that
 competes with the business of Gaussian, Inc. or will provide
 assistance to any competitor of Gaussian, Inc.  The licensee
 of this program is prohibited from giving any competitor of
 Gaussian, Inc. access to this program.  By using this program,
 the user acknowledges that Gaussian, Inc. is engaged in the
 business of creating and licensing software in the field of
 computational chemistry and represents and warrants to the
 licensee that it is not a competitor of Gaussian, Inc. and that
 it will not use this program in any manner prohibited above.
 ---------------------------------------------------------------
  

 Cite this work as:
 Gaussian 09, Revision D.01,
 M. J. Frisch, G. W. Trucks, H. B. Schlegel, G. E. Scuseria, 
 M. A. Robb, J. R. Cheeseman, G. Scalmani, V. Barone, B. Mennucci, 
 G. A. Petersson, H. Nakatsuji, M. Caricato, X. Li, H. P. Hratchian, 
 A. F. Izmaylov, J. Bloino, G. Zheng, J. L. Sonnenberg, M. Hada, 
 M. Ehara, K. Toyota, R. Fukuda, J. Hasegawa, M. Ishida, T. Nakajima, 
 Y. Honda, O. Kitao, H. Nakai, T. Vreven, J. A. Montgomery, Jr., 
 J. E. Peralta, F. Ogliaro, M. Bearpark, J. J. Heyd, E. Brothers, 
 K. N. Kudin, V. N. Staroverov, T. Keith, R. Kobayashi, J. Normand, 
 K. Raghavachari, A. Rendell, J. C. Burant, S. S. Iyengar, J. Tomasi, 
 M. Cossi, N. Rega, J. M. Millam, M. Klene, J. E. Knox, J. B. Cross, 
 V. Bakken, C. Adamo, J. Jaramillo, R. Gomperts, R. E. Stratmann, 
 O. Yazyev, A. J. Austin, R. Cammi, C. Pomelli, J. W. Ochterski, 
 R. L. Martin, K. Morokuma, V. G. Zakrzewski, G. A. Voth, 
 P. Salvador, J. J. Dannenberg, S. Dapprich, A. D. Daniels, 
 O. Farkas, J. B. Foresman, J. V. Ortiz, J. Cioslowski, 
 and D. J. Fox, Gaussian, Inc., Wallingford CT, 2013.
 
 ******************************************
 Gaussian 09:  ES64L-G09RevD.01 24-Apr-2013
                27-Aug-2020 
 ******************************************
 %chk=/home/boittier/MDCM/nms_sampling/cyanomethane_geom.xyz.dir/cyanomethane_873
 .chk
 %nproc=8
 Will use up to    8 processors via shared memory.
 %mem=16000MB
 --------------------
 #p B2PLYPD3/Def2QZVP
 --------------------
 1/38=1/1;
 2/12=2,17=6,18=5,40=1/2;
 3/5=45,7=101,11=9,16=1,25=1,30=1,74=-60/1,2,3;
 4//1;
 5/5=2,38=5/2;
 8/10=1/1;
 9/16=-3/6;
 6/7=2,8=2,9=2,10=2/1;
 99/5=1,9=1/99;
 Leave Link    1 at Thu Aug 27 00:10:56 2020, MaxMem=  2097152000 cpu:         0.3
 (Enter /opt/cluster/programs/g09/g09_d.01/g09/l101.exe)
 ------------
 cyanomethane
 ------------
 Symbolic Z-matrix:
 Charge =  0 Multiplicity = 1
 C                    -6.59782  -1.11351   1.16102 
 C                    -5.19792  -0.78045   0.91386 
 N                    -4.09209  -0.54417   0.69921 
 H                    -6.7854   -1.24719   2.22754 
 H                    -6.85458  -2.02503   0.67511 
 H                    -7.28515  -0.35977   0.81332 
 
 NAtoms=      6 NQM=        6 NQMF=       0 NMMI=      0 NMMIF=      0
                NMic=       0 NMicF=      0.
                    Isotopes and Nuclear Properties:
 (Nuclear quadrupole moments (NQMom) in fm**2, nuclear magnetic moments (NMagM)
  in nuclear magnetons)

  Atom         1           2           3           4           5           6
 IAtWgt=          12          12          14           1           1           1
 AtmWgt=  12.0000000  12.0000000  14.0030740   1.0078250   1.0078250   1.0078250
 NucSpn=           0           0           2           1           1           1
 AtZEff=   0.0000000   0.0000000   0.0000000   0.0000000   0.0000000   0.0000000
 NQMom=    0.0000000   0.0000000   2.0440000   0.0000000   0.0000000   0.0000000
 NMagM=    0.0000000   0.0000000   0.4037610   2.7928460   2.7928460   2.7928460
 AtZNuc=   6.0000000   6.0000000   7.0000000   1.0000000   1.0000000   1.0000000
 Leave Link  101 at Thu Aug 27 00:10:57 2020, MaxMem=  2097152000 cpu:         0.6
 (Enter /opt/cluster/programs/g09/g09_d.01/g09/l202.exe)
                          Input orientation:                          
 ---------------------------------------------------------------------
 Center     Atomic      Atomic             Coordinates (Angstroms)
 Number     Number       Type             X           Y           Z
 ---------------------------------------------------------------------
      1          6           0       -6.597818   -1.113511    1.161017
      2          6           0       -5.197918   -0.780450    0.913855
      3          7           0       -4.092090   -0.544172    0.699205
      4          1           0       -6.785404   -1.247194    2.227542
      5          1           0       -6.854578   -2.025035    0.675112
      6          1           0       -7.285150   -0.359766    0.813316
 ---------------------------------------------------------------------
                    Distance matrix (angstroms):
                    1          2          3          4          5
     1  C    0.000000
     2  C    1.460047   0.000000
     3  N    2.610764   1.150981   0.000000
     4  H    1.091117   2.112755   3.175531   0.000000
     5  H    1.064380   2.085788   3.134466   1.737775   0.000000
     6  H    1.077707   2.131577   3.200415   1.742788   1.725576
                    6
     6  H    0.000000
 Stoichiometry    C2H3N
 Framework group  C1[X(C2H3N)]
 Deg. of freedom    12
 Full point group                 C1      NOp   1
 Largest Abelian subgroup         C1      NOp   1
 Largest concise Abelian subgroup C1      NOp   1
                         Standard orientation:                         
 ---------------------------------------------------------------------
 Center     Atomic      Atomic             Coordinates (Angstroms)
 Number     Number       Type             X           Y           Z
 ---------------------------------------------------------------------
      1          6           0       -1.174726   -0.004512    0.002882
      2          6           0        0.285203    0.004805   -0.013255
      3          7           0        1.436037   -0.002302    0.003675
      4          1           0       -1.573392    1.004374   -0.114374
      5          1           0       -1.533946   -0.383822    0.930239
      6          1           0       -1.607782   -0.606193   -0.779355
 ---------------------------------------------------------------------
 Rotational constants (GHZ):    166.4689632      9.2138521      9.2077641
 Leave Link  202 at Thu Aug 27 00:10:57 2020, MaxMem=  2097152000 cpu:         0.0
 (Enter /opt/cluster/programs/g09/g09_d.01/g09/l301.exe)
 Standard basis: def2QZVP (5D, 7F)
 Ernie: Thresh=  0.10000D-02 Tol=  0.10000D-05 Strict=F.
 There are   321 symmetry adapted cartesian basis functions of A   symmetry.
 There are   261 symmetry adapted basis functions of A   symmetry.
   261 basis functions,   390 primitive gaussians,   321 cartesian basis functions
    11 alpha electrons       11 beta electrons
       nuclear repulsion energy        58.6449439157 Hartrees.
 IExCor=  419 DFT=T Ex+Corr=B2PLYPD3 ExCW=0 ScaHFX=  0.530000
 ScaDFX=  0.470000  0.470000  0.730000  0.730000 ScalE2=  0.270000  0.270000
 IRadAn=      0 IRanWt=     -1 IRanGd=            0 ICorTp=0 IEmpDi=141
 NAtoms=    6 NActive=    6 NUniq=    6 SFac= 1.00D+00 NAtFMM=   60 NAOKFM=F Big=F
 Integral buffers will be    131072 words long.
 Regular integral format.
 Two-electron integral symmetry is turned on.
 R6Disp:  Grimme-D3(BJ) Dispersion energy=       -0.0020992216 Hartrees.
 Nuclear repulsion after empirical dispersion term =       58.6428446941 Hartrees.
 Leave Link  301 at Thu Aug 27 00:10:57 2020, MaxMem=  2097152000 cpu:         0.4
 (Enter /opt/cluster/programs/g09/g09_d.01/g09/l302.exe)
 NPDir=0 NMtPBC=     1 NCelOv=     1 NCel=       1 NClECP=     1 NCelD=      1
         NCelK=      1 NCelE2=     1 NClLst=     1 CellRange=     0.0.
 One-electron integrals computed using PRISM.
   1 Symmetry operations used in ECPInt.
 ECPInt:  NShTT=    3321 NPrTT=    8136 LenC2=    3293 LenP2D=    7127.
 LDataN:  DoStor=T MaxTD1= 8 Len=  415
 NBasis=   261 RedAO= T EigKep=  8.06D-05  NBF=   261
 NBsUse=   261 1.00D-06 EigRej= -1.00D+00 NBFU=   261
 Precomputing XC quadrature grid using
 IXCGrd= 4 IRadAn=           0 IRanWt=          -1 IRanGd=           0 AccXCQ= 0.00D+00.
 Generated NRdTot=       0 NPtTot=           0 NUsed=           0 NTot=          32
 NSgBfM=   321   321   321   321   321 MxSgAt=     6 MxSgA2=     6.
 Leave Link  302 at Thu Aug 27 00:10:58 2020, MaxMem=  2097152000 cpu:         2.3
 (Enter /opt/cluster/programs/g09/g09_d.01/g09/l303.exe)
 DipDrv:  MaxL=1.
 Leave Link  303 at Thu Aug 27 00:11:00 2020, MaxMem=  2097152000 cpu:         0.3
 (Enter /opt/cluster/programs/g09/g09_d.01/g09/l401.exe)
 ExpMin= 7.60D-02 ExpMax= 9.07D+04 ExpMxC= 8.76D+02 IAcc=2 IRadAn=         4 AccDes= 0.00D+00
 Harris functional with IExCor=  419 and IRadAn=       4 diagonalized for initial guess.
 HarFok:  IExCor=  419 AccDes= 0.00D+00 IRadAn=         4 IDoV= 1 UseB2=F ITyADJ=14
 ICtDFT=  3500011 ScaDFX=  1.000000  1.000000  1.000000  1.000000
 FoFCou: FMM=F IPFlag=           0 FMFlag=      100000 FMFlg1=           0
         NFxFlg=           0 DoJE=T BraDBF=F KetDBF=T FulRan=T
         wScrn=  0.000000 ICntrl=     500 IOpCl=  0 I1Cent=   200000004 NGrid=           0
         NMat0=    1 NMatS0=      1 NMatT0=    0 NMatD0=    1 NMtDS0=    0 NMtDT0=    0
 Petite list used in FoFCou.
 Harris En= -132.855086619302    
 JPrj=0 DoOrth=F DoCkMO=F.
 Leave Link  401 at Thu Aug 27 00:11:01 2020, MaxMem=  2097152000 cpu:         4.4
 (Enter /opt/cluster/programs/g09/g09_d.01/g09/l502.exe)
 Closed shell SCF:
 Using DIIS extrapolation, IDIIS=  1040.
 Integral symmetry usage will be decided dynamically.
 Keep R1 ints in memory in canonical form, NReq=601554820.
 IVT=      332521 IEndB=      332521 NGot=  2097152000 MDV=  1512290144
 LenX=  1512290144 LenY=  1512186662
 Requested convergence on RMS density matrix=1.00D-08 within 128 cycles.
 Requested convergence on MAX density matrix=1.00D-06.
 Requested convergence on             energy=1.00D-06.
 No special actions if energy rises.
 FoFCou: FMM=F IPFlag=           0 FMFlag=           0 FMFlg1=           0
         NFxFlg=           0 DoJE=F BraDBF=F KetDBF=F FulRan=T
         wScrn=  0.000000 ICntrl=     600 IOpCl=  0 I1Cent=           0 NGrid=           0
         NMat0=    1 NMatS0=  34191 NMatT0=    0 NMatD0=    1 NMtDS0=    0 NMtDT0=    0
 Symmetry not used in FoFCou.
 Integral accuracy reduced to 1.0D-05 until final iterations.

 Cycle   1  Pass 0  IDiag  1:
 E= -132.419574180152    
 DIIS: error= 3.17D-02 at cycle   1 NSaved=   1.
 NSaved= 1 IEnMin= 1 EnMin= -132.419574180152     IErMin= 1 ErrMin= 3.17D-02
 ErrMax= 3.17D-02  0.00D+00 EMaxC= 1.00D-01 BMatC= 1.93D-01 BMatP= 1.93D-01
 IDIUse=3 WtCom= 6.83D-01 WtEn= 3.17D-01
 Coeff-Com:  0.100D+01
 Coeff-En:   0.100D+01
 Coeff:      0.100D+01
 Gap=     0.463 Goal=   None    Shift=    0.000
 GapD=    0.463 DampG=2.000 DampE=0.500 DampFc=1.0000 IDamp=-1.
 RMSDP=1.29D-03 MaxDP=6.81D-02              OVMax= 1.62D-01

 Cycle   2  Pass 0  IDiag  1:
 E= -132.454659235463     Delta-E=       -0.035085055311 Rises=F Damp=F
 DIIS: error= 3.24D-02 at cycle   2 NSaved=   2.
 NSaved= 2 IEnMin= 2 EnMin= -132.454659235463     IErMin= 1 ErrMin= 3.17D-02
 ErrMax= 3.24D-02  0.00D+00 EMaxC= 1.00D-01 BMatC= 9.55D-02 BMatP= 1.93D-01
 IDIUse=3 WtCom= 6.76D-01 WtEn= 3.24D-01
 Coeff-Com:  0.396D+00 0.604D+00
 Coeff-En:   0.391D+00 0.609D+00
 Coeff:      0.395D+00 0.605D+00
 Gap=     0.439 Goal=   None    Shift=    0.000
 RMSDP=8.44D-04 MaxDP=3.35D-02 DE=-3.51D-02 OVMax= 1.22D-01

 Cycle   3  Pass 0  IDiag  1:
 E= -132.519115254902     Delta-E=       -0.064456019438 Rises=F Damp=F
 DIIS: error= 1.39D-02 at cycle   3 NSaved=   3.
 NSaved= 3 IEnMin= 3 EnMin= -132.519115254902     IErMin= 3 ErrMin= 1.39D-02
 ErrMax= 1.39D-02  0.00D+00 EMaxC= 1.00D-01 BMatC= 1.99D-02 BMatP= 9.55D-02
 IDIUse=3 WtCom= 8.61D-01 WtEn= 1.39D-01
 Coeff-Com:  0.960D-01 0.325D+00 0.579D+00
 Coeff-En:   0.000D+00 0.124D+00 0.876D+00
 Coeff:      0.826D-01 0.297D+00 0.620D+00
 Gap=     0.430 Goal=   None    Shift=    0.000
 RMSDP=2.67D-04 MaxDP=9.76D-03 DE=-6.45D-02 OVMax= 5.88D-02

 Cycle   4  Pass 0  IDiag  1:
 E= -132.532809619895     Delta-E=       -0.013694364994 Rises=F Damp=F
 DIIS: error= 5.00D-03 at cycle   4 NSaved=   4.
 NSaved= 4 IEnMin= 4 EnMin= -132.532809619895     IErMin= 4 ErrMin= 5.00D-03
 ErrMax= 5.00D-03  0.00D+00 EMaxC= 1.00D-01 BMatC= 2.96D-03 BMatP= 1.99D-02
 IDIUse=3 WtCom= 9.50D-01 WtEn= 5.00D-02
 Coeff-Com: -0.121D-01 0.540D-01 0.326D+00 0.632D+00
 Coeff-En:   0.000D+00 0.000D+00 0.137D+00 0.863D+00
 Coeff:     -0.115D-01 0.513D-01 0.317D+00 0.643D+00
 Gap=     0.431 Goal=   None    Shift=    0.000
 RMSDP=8.99D-05 MaxDP=2.71D-03 DE=-1.37D-02 OVMax= 1.54D-02

 Cycle   5  Pass 0  IDiag  1:
 E= -132.535368001163     Delta-E=       -0.002558381268 Rises=F Damp=F
 DIIS: error= 3.40D-04 at cycle   5 NSaved=   5.
 NSaved= 5 IEnMin= 5 EnMin= -132.535368001163     IErMin= 5 ErrMin= 3.40D-04
 ErrMax= 3.40D-04  0.00D+00 EMaxC= 1.00D-01 BMatC= 1.33D-05 BMatP= 2.96D-03
 IDIUse=3 WtCom= 9.97D-01 WtEn= 3.40D-03
 Coeff-Com: -0.344D-02 0.531D-02 0.471D-01 0.140D+00 0.811D+00
 Coeff-En:   0.000D+00 0.000D+00 0.000D+00 0.000D+00 0.100D+01
 Coeff:     -0.343D-02 0.529D-02 0.470D-01 0.139D+00 0.812D+00
 Gap=     0.430 Goal=   None    Shift=    0.000
 RMSDP=8.30D-06 MaxDP=3.17D-04 DE=-2.56D-03 OVMax= 1.17D-03

 Initial convergence to 1.0D-05 achieved.  Increase integral accuracy.
 Cycle   6  Pass 1  IDiag  1:
 E= -132.535384153832     Delta-E=       -0.000016152669 Rises=F Damp=F
 DIIS: error= 8.64D-05 at cycle   1 NSaved=   1.
 NSaved= 1 IEnMin= 1 EnMin= -132.535384153832     IErMin= 1 ErrMin= 8.64D-05
 ErrMax= 8.64D-05  0.00D+00 EMaxC= 1.00D-01 BMatC= 5.91D-07 BMatP= 5.91D-07
 IDIUse=1 WtCom= 1.00D+00 WtEn= 0.00D+00
 Coeff-Com:  0.100D+01
 Coeff:      0.100D+01
 Gap=     0.431 Goal=   None    Shift=    0.000
 RMSDP=8.30D-06 MaxDP=3.17D-04 DE=-1.62D-05 OVMax= 3.96D-04

 Cycle   7  Pass 1  IDiag  1:
 E= -132.535384512565     Delta-E=       -0.000000358733 Rises=F Damp=F
 DIIS: error= 4.86D-05 at cycle   2 NSaved=   2.
 NSaved= 2 IEnMin= 2 EnMin= -132.535384512565     IErMin= 2 ErrMin= 4.86D-05
 ErrMax= 4.86D-05  0.00D+00 EMaxC= 1.00D-01 BMatC= 2.60D-07 BMatP= 5.91D-07
 IDIUse=1 WtCom= 1.00D+00 WtEn= 0.00D+00
 Coeff-Com:  0.389D+00 0.611D+00
 Coeff:      0.389D+00 0.611D+00
 Gap=     0.430 Goal=   None    Shift=    0.000
 RMSDP=9.66D-07 MaxDP=3.76D-05 DE=-3.59D-07 OVMax= 1.64D-04

 Cycle   8  Pass 1  IDiag  1:
 E= -132.535384737475     Delta-E=       -0.000000224910 Rises=F Damp=F
 DIIS: error= 1.48D-05 at cycle   3 NSaved=   3.
 NSaved= 3 IEnMin= 3 EnMin= -132.535384737475     IErMin= 3 ErrMin= 1.48D-05
 ErrMax= 1.48D-05  0.00D+00 EMaxC= 1.00D-01 BMatC= 1.95D-08 BMatP= 2.60D-07
 IDIUse=1 WtCom= 1.00D+00 WtEn= 0.00D+00
 Coeff-Com:  0.100D+00 0.244D+00 0.655D+00
 Coeff:      0.100D+00 0.244D+00 0.655D+00
 Gap=     0.430 Goal=   None    Shift=    0.000
 RMSDP=5.60D-07 MaxDP=2.52D-05 DE=-2.25D-07 OVMax= 5.50D-05

 Cycle   9  Pass 1  IDiag  1:
 E= -132.535384749070     Delta-E=       -0.000000011595 Rises=F Damp=F
 DIIS: error= 9.62D-06 at cycle   4 NSaved=   4.
 NSaved= 4 IEnMin= 4 EnMin= -132.535384749070     IErMin= 4 ErrMin= 9.62D-06
 ErrMax= 9.62D-06  0.00D+00 EMaxC= 1.00D-01 BMatC= 6.72D-09 BMatP= 1.95D-08
 IDIUse=1 WtCom= 1.00D+00 WtEn= 0.00D+00
 Coeff-Com: -0.582D-01-0.308D-01 0.404D+00 0.685D+00
 Coeff:     -0.582D-01-0.308D-01 0.404D+00 0.685D+00
 Gap=     0.430 Goal=   None    Shift=    0.000
 RMSDP=2.71D-07 MaxDP=1.30D-05 DE=-1.16D-08 OVMax= 3.21D-05

 Cycle  10  Pass 1  IDiag  1:
 E= -132.535384755347     Delta-E=       -0.000000006277 Rises=F Damp=F
 DIIS: error= 9.34D-07 at cycle   5 NSaved=   5.
 NSaved= 5 IEnMin= 5 EnMin= -132.535384755347     IErMin= 5 ErrMin= 9.34D-07
 ErrMax= 9.34D-07  0.00D+00 EMaxC= 1.00D-01 BMatC= 8.26D-11 BMatP= 6.72D-09
 IDIUse=1 WtCom= 1.00D+00 WtEn= 0.00D+00
 Coeff-Com: -0.198D-01-0.180D-01 0.762D-01 0.190D+00 0.772D+00
 Coeff:     -0.198D-01-0.180D-01 0.762D-01 0.190D+00 0.772D+00
 Gap=     0.430 Goal=   None    Shift=    0.000
 RMSDP=4.29D-08 MaxDP=2.18D-06 DE=-6.28D-09 OVMax= 3.24D-06

 Cycle  11  Pass 1  IDiag  1:
 E= -132.535384755418     Delta-E=       -0.000000000071 Rises=F Damp=F
 DIIS: error= 1.70D-07 at cycle   6 NSaved=   6.
 NSaved= 6 IEnMin= 6 EnMin= -132.535384755418     IErMin= 6 ErrMin= 1.70D-07
 ErrMax= 1.70D-07  0.00D+00 EMaxC= 1.00D-01 BMatC= 4.93D-12 BMatP= 8.26D-11
 IDIUse=1 WtCom= 1.00D+00 WtEn= 0.00D+00
 Coeff-Com:  0.196D-02-0.253D-03-0.272D-01-0.207D-01 0.149D+00 0.897D+00
 Coeff:      0.196D-02-0.253D-03-0.272D-01-0.207D-01 0.149D+00 0.897D+00
 Gap=     0.430 Goal=   None    Shift=    0.000
 RMSDP=9.52D-09 MaxDP=4.22D-07 DE=-7.15D-11 OVMax= 8.60D-07

 SCF Done:  E(RB2PLYPD3) =  -132.535384755     A.U. after   11 cycles
            NFock= 11  Conv=0.95D-08     -V/T= 2.0032
 KE= 1.321069283162D+02 PE=-4.259294271651D+02 EE= 1.026442693993D+02
 Leave Link  502 at Thu Aug 27 00:11:27 2020, MaxMem=  2097152000 cpu:       136.8
 (Enter /opt/cluster/programs/g09/g09_d.01/g09/l801.exe)
 DoSCS=T DFT=T ScalE2(SS,OS)=  0.270000  0.270000
 ExpMin= 7.60D-02 ExpMax= 9.07D+04 ExpMxC= 8.76D+02 IAcc=3 IRadAn=         5 AccDes= 0.00D+00
 HarFok:  IExCor=  205 AccDes= 0.00D+00 IRadAn=         5 IDoV=-2 UseB2=F ITyADJ=14
 ICtDFT= 12500011 ScaDFX=  1.000000  1.000000  1.000000  1.000000
 DSYEVD-2 returned Info=         115 IAlg= 4 N=    57 NDim=    57 NE2=    36788223 trying  DSYEV.
 Largest valence mixing into a core orbital is  1.16D-04
 Largest core mixing into a valence orbital is  1.92D-05
 Range of M.O.s used for correlation:     4   261
 NBasis=   261 NAE=    11 NBE=    11 NFC=     3 NFV=     0
 NROrb=    258 NOA=     8 NOB=     8 NVA=   250 NVB=   250

 **** Warning!!: The largest alpha MO coefficient is  0.32812407D+02

 Leave Link  801 at Thu Aug 27 00:11:28 2020, MaxMem=  2097152000 cpu:         0.7
 (Enter /opt/cluster/programs/g09/g09_d.01/g09/l906.exe)
 DoSCS=T DFT=T ScalE2(SS,OS)=  0.270000  0.270000
 FulOut=F Deriv=F AODrv=F NAtomX=     6
   MMem=        2666  MDisk=           8 MDiskD=           8
  W3Min=      642000 MinDsk=     1426009 NBas6D=         321
 NBas2D=       52689    NTT=       51681    LW2=     4508827
    MDV=  2096809489 MDiskM=       14501 NBas2p=       52131
 Fully direct method using O(OVN) memory.
 IMap=   1   2   3   4   5   6   7   8
 JobTyp=1 Pass  1:  I=   1 to   8 NPSUse=  8 ParTrn=T ParDer=T DoDerP=F.
 Spin components of T(2) and E(2):
     alpha-alpha T2 =       0.3544761030D-01 E2=     -0.2136874188D-01
     alpha-beta  T2 =       0.2069496573D+00 E2=     -0.1373159774D+00
     beta-beta   T2 =       0.3544761030D-01 E2=     -0.2136874188D-01
 The integrals were generated   1 times.
 E2(B2PLYPD3) =    -0.1800534612D+00 E(B2PLYPD3) =    -0.13271543821660D+03
 Leave Link  906 at Thu Aug 27 00:11:43 2020, MaxMem=  2097152000 cpu:       112.1
 (Enter /opt/cluster/programs/g09/g09_d.01/g09/l601.exe)
 Copying SCF densities to generalized density rwf, IOpCl= 0 IROHF=0.

 **********************************************************************

            Population analysis using the SCF density.

 **********************************************************************

 Orbital symmetries:
       Occupied  (A) (A) (A) (A) (A) (A) (A) (A) (A) (A) (A)
       Virtual   (A) (A) (A) (A) (A) (A) (A) (A) (A) (A) (A) (A)
                 (A) (A) (A) (A) (A) (A) (A) (A) (A) (A) (A) (A)
                 (A) (A) (A) (A) (A) (A) (A) (A) (A) (A) (A) (A)
                 (A) (A) (A) (A) (A) (A) (A) (A) (A) (A) (A) (A)
                 (A) (A) (A) (A) (A) (A) (A) (A) (A) (A) (A) (A)
                 (A) (A) (A) (A) (A) (A) (A) (A) (A) (A) (A) (A)
                 (A) (A) (A) (A) (A) (A) (A) (A) (A) (A) (A) (A)
                 (A) (A) (A) (A) (A) (A) (A) (A) (A) (A) (A) (A)
                 (A) (A) (A) (A) (A) (A) (A) (A) (A) (A) (A) (A)
                 (A) (A) (A) (A) (A) (A) (A) (A) (A) (A) (A) (A)
                 (A) (A) (A) (A) (A) (A) (A) (A) (A) (A) (A) (A)
                 (A) (A) (A) (A) (A) (A) (A) (A) (A) (A) (A) (A)
                 (A) (A) (A) (A) (A) (A) (A) (A) (A) (A) (A) (A)
                 (A) (A) (A) (A) (A) (A) (A) (A) (A) (A) (A) (A)
                 (A) (A) (A) (A) (A) (A) (A) (A) (A) (A) (A) (A)
                 (A) (A) (A) (A) (A) (A) (A) (A) (A) (A) (A) (A)
                 (A) (A) (A) (A) (A) (A) (A) (A) (A) (A) (A) (A)
                 (A) (A) (A) (A) (A) (A) (A) (A) (A) (A) (A) (A)
                 (A) (A) (A) (A) (A) (A) (A) (A) (A) (A) (A) (A)
                 (A) (A) (A) (A) (A) (A) (A) (A) (A) (A) (A) (A)
                 (A) (A) (A) (A) (A) (A) (A) (A) (A) (A)
 The electronic state is 1-A.
 Alpha  occ. eigenvalues --  -14.84191 -10.66745 -10.66269  -1.04314  -0.89350
 Alpha  occ. eigenvalues --   -0.60366  -0.54059  -0.53586  -0.44871  -0.39273
 Alpha  occ. eigenvalues --   -0.39218
 Alpha virt. eigenvalues --    0.03815   0.07926   0.08105   0.10200   0.11474
 Alpha virt. eigenvalues --    0.11506   0.15468   0.16472   0.16772   0.20065
 Alpha virt. eigenvalues --    0.20071   0.25323   0.32802   0.34755   0.35090
 Alpha virt. eigenvalues --    0.39153   0.39787   0.40114   0.40592   0.47948
 Alpha virt. eigenvalues --    0.50715   0.51082   0.58720   0.59352   0.61462
 Alpha virt. eigenvalues --    0.67808   0.68297   0.69820   0.70066   0.78950
 Alpha virt. eigenvalues --    0.79135   0.82282   0.82462   0.83873   0.86795
 Alpha virt. eigenvalues --    0.91704   0.92285   0.95596   0.96211   0.96934
 Alpha virt. eigenvalues --    1.05911   1.08983   1.09119   1.12361   1.13159
 Alpha virt. eigenvalues --    1.14436   1.22120   1.22592   1.24051   1.35389
 Alpha virt. eigenvalues --    1.35863   1.47443   1.48541   1.50065   1.55120
 Alpha virt. eigenvalues --    1.65564   1.66485   1.69872   1.74649   1.77756
 Alpha virt. eigenvalues --    1.78207   1.78522   1.89786   1.90766   1.91792
 Alpha virt. eigenvalues --    1.93663   1.99224   1.99777   2.01179   2.04618
 Alpha virt. eigenvalues --    2.05762   2.13902   2.14716   2.20026   2.22076
 Alpha virt. eigenvalues --    2.23717   2.24515   2.25588   2.33927   2.35515
 Alpha virt. eigenvalues --    2.43219   2.50328   2.51048   2.56320   2.57033
 Alpha virt. eigenvalues --    2.60778   2.66930   2.70159   2.71497   2.72383
 Alpha virt. eigenvalues --    2.76922   2.78372   2.85618   2.91063   2.91859
 Alpha virt. eigenvalues --    2.92409   2.97754   2.98333   2.98706   3.11131
 Alpha virt. eigenvalues --    3.12313   3.12763   3.21445   3.33081   3.33491
 Alpha virt. eigenvalues --    3.34483   3.36752   3.38509   3.41551   3.51527
 Alpha virt. eigenvalues --    3.53672   3.55617   3.73825   3.75059   3.75827
 Alpha virt. eigenvalues --    3.87830   3.94336   3.95398   3.99945   4.01045
 Alpha virt. eigenvalues --    4.01079   4.05649   4.06376   4.25178   4.25378
 Alpha virt. eigenvalues --    4.55938   4.90867   4.90879   5.08946   5.11483
 Alpha virt. eigenvalues --    5.12390   5.18765   5.20009   5.20452   5.21564
 Alpha virt. eigenvalues --    5.28929   5.43793   5.44692   5.46869   5.64950
 Alpha virt. eigenvalues --    5.65669   5.85660   5.86745   5.90324   5.94497
 Alpha virt. eigenvalues --    5.95605   5.99354   6.00483   6.02125   6.03865
 Alpha virt. eigenvalues --    6.04533   6.06125   6.06601   6.08090   6.14053
 Alpha virt. eigenvalues --    6.18401   6.18936   6.32051   6.33690   6.35073
 Alpha virt. eigenvalues --    6.43554   6.46007   6.46861   6.60718   6.61886
 Alpha virt. eigenvalues --    6.63698   6.64919   6.88536   6.89760   6.94278
 Alpha virt. eigenvalues --    6.95438   7.02679   7.02698   7.07910   7.12626
 Alpha virt. eigenvalues --    7.13650   7.16931   7.21312   7.49956   7.52105
 Alpha virt. eigenvalues --    7.55580   7.58109   7.62786   7.64064   7.64981
 Alpha virt. eigenvalues --    7.68225   7.76262   7.77678   7.78525   7.89095
 Alpha virt. eigenvalues --    7.89568   7.95461   7.98670   8.08329   8.27084
 Alpha virt. eigenvalues --    8.29068   8.33392   8.46316   8.46699   8.47310
 Alpha virt. eigenvalues --    8.47948   8.49344   8.50283   8.59080   8.59461
 Alpha virt. eigenvalues --    8.62069   8.65926   8.66628   8.66870   8.67705
 Alpha virt. eigenvalues --    8.68903   8.77850   8.91360   8.95062   9.05431
 Alpha virt. eigenvalues --    9.05655   9.09360   9.11855   9.13552   9.16796
 Alpha virt. eigenvalues --    9.28688   9.29304   9.75704   9.77656   9.85608
 Alpha virt. eigenvalues --    9.87558   9.94217  10.09401  10.10094  10.16488
 Alpha virt. eigenvalues --   10.18044  10.18962  10.22980  10.31954  10.52911
 Alpha virt. eigenvalues --   10.58137  10.70386  11.38380  11.68965  11.79874
 Alpha virt. eigenvalues --   12.03091  12.04715  13.13230  13.56084  29.25015
 Alpha virt. eigenvalues --   29.55115  38.33748 148.92017 149.18441 198.26075
          Condensed to atoms (all electrons):
               1          2          3          4          5          6
     1  C    4.582944   0.308840  -0.057868   0.411257   0.413579   0.411963
     2  C    0.308840   4.825115   0.991082  -0.042024  -0.044178  -0.038664
     3  N   -0.057868   0.991082   6.272953  -0.000673  -0.000949  -0.000622
     4  H    0.411257  -0.042024  -0.000673   0.603943  -0.030955  -0.031984
     5  H    0.413579  -0.044178  -0.000949  -0.030955   0.601834  -0.032678
     6  H    0.411963  -0.038664  -0.000622  -0.031984  -0.032678   0.600960
 Mulliken charges:
               1
     1  C   -0.070715
     2  C   -0.000172
     3  N   -0.203922
     4  H    0.090437
     5  H    0.093346
     6  H    0.091024
 Sum of Mulliken charges =   0.00000
 Mulliken charges with hydrogens summed into heavy atoms:
               1
     1  C    0.204093
     2  C   -0.000172
     3  N   -0.203922
 Electronic spatial extent (au):  <R**2>=            161.9840
 Charge=              0.0000 electrons
 Dipole moment (field-independent basis, Debye):
    X=             -4.1383    Y=              0.0003    Z=              0.0034  Tot=              4.1383
 Quadrupole moment (field-independent basis, Debye-Ang):
   XX=            -20.7779   YY=            -17.7811   ZZ=            -17.7941
   XY=              0.0230   XZ=              0.0102   YZ=             -0.0069
 Traceless Quadrupole moment (field-independent basis, Debye-Ang):
   XX=             -1.9936   YY=              1.0033   ZZ=              0.9903
   XY=              0.0230   XZ=              0.0102   YZ=             -0.0069
 Octapole moment (field-independent basis, Debye-Ang**2):
  XXX=            -13.5262  YYY=              0.6450  ZZZ=              0.3801  XYY=             -2.2004
  XXY=             -0.0677  XXZ=             -0.1267  XZZ=             -2.1555  YZZ=             -0.6802
  YYZ=             -0.2335  XYZ=             -0.0232
 Hexadecapole moment (field-independent basis, Debye-Ang**3):
 XXXX=           -181.2728 YYYY=            -24.5405 ZZZZ=            -24.3085 XXXY=              0.2179
 XXXZ=              0.2563 YYYX=             -1.1416 YYYZ=             -0.0152 ZZZX=             -0.5020
 ZZZY=             -0.0515 XXYY=            -31.1026 XXZZ=            -31.1656 YYZZ=             -8.1721
 XXYZ=              0.1083 YYXZ=              0.4594 ZZXY=              1.1768
 N-N= 5.864284469414D+01 E-N=-4.259294104825D+02  KE= 1.321069283162D+02
 Leave Link  601 at Thu Aug 27 00:11:43 2020, MaxMem=  2097152000 cpu:         0.3
 (Enter /opt/cluster/programs/g09/g09_d.01/g09/l9999.exe)
 1\1\GINC-NODE01\SP\RB2PLYPD3-FC\def2QZVP\C2H3N1\BOITTIER\27-Aug-2020\0
 \\#p B2PLYPD3/Def2QZVP\\cyanomethane\\0,1\C,0,-6.597818,-1.113511,1.16
 1017\C,0,-5.197918,-0.78045,0.913855\N,0,-4.09209,-0.544172,0.699205\H
 ,0,-6.785404,-1.247194,2.227542\H,0,-6.854578,-2.025035,0.675112\H,0,-
 7.28515,-0.359766,0.813316\\Version=ES64L-G09RevD.01\State=1-A\HF=-132
 .5353848\MP2=-132.7154382\RMSD=9.524e-09\PG=C01 [X(C2H3N1)]\\@


 MYSTERY IS THE WISDOM OF BLOCKHEADS... HORACE WALPOLE 
 Job cpu time:       0 days  0 hours  4 minutes 19.5 seconds.
 File lengths (MBytes):  RWF=     28 Int=      0 D2E=      0 Chk=      5 Scr=      1
 Normal termination of Gaussian 09 at Thu Aug 27 00:11:44 2020.
