 Entering Gaussian System, Link 0=/opt/cluster/programs/g09/g09_d.01/g09//g09
 Input=/home/boittier/MDCM/nms_sampling/cyanomethane_geom.xyz.dir/energies/cyanomethane_214_energy.com
 Output=/scratch/boittier/cyanomethane_214_energy/cyanomethane_214_energy.out
 Initial command:
 /opt/cluster/programs/g09/g09_d.01/g09/l1.exe "/scratch/boittier/cyanomethane_214_energy/Gau-55836.inp" -scrdir="/scratch/boittier/cyanomethane_214_energy/"
 Entering Link 1 = /opt/cluster/programs/g09/g09_d.01/g09/l1.exe PID=     55837.
  
 Copyright (c) 1988,1990,1992,1993,1995,1998,2003,2009,2013,
            Gaussian, Inc.  All Rights Reserved.
  
 This is part of the Gaussian(R) 09 program.  It is based on
 the Gaussian(R) 03 system (copyright 2003, Gaussian, Inc.),
 the Gaussian(R) 98 system (copyright 1998, Gaussian, Inc.),
 the Gaussian(R) 94 system (copyright 1995, Gaussian, Inc.),
 the Gaussian 92(TM) system (copyright 1992, Gaussian, Inc.),
 the Gaussian 90(TM) system (copyright 1990, Gaussian, Inc.),
 the Gaussian 88(TM) system (copyright 1988, Gaussian, Inc.),
 the Gaussian 86(TM) system (copyright 1986, Carnegie Mellon
 University), and the Gaussian 82(TM) system (copyright 1983,
 Carnegie Mellon University). Gaussian is a federally registered
 trademark of Gaussian, Inc.
  
 This software contains proprietary and confidential information,
 including trade secrets, belonging to Gaussian, Inc.
  
 This software is provided under written license and may be
 used, copied, transmitted, or stored only in accord with that
 written license.
  
 The following legend is applicable only to US Government
 contracts under FAR:
  
                    RESTRICTED RIGHTS LEGEND
  
 Use, reproduction and disclosure by the US Government is
 subject to restrictions as set forth in subparagraphs (a)
 and (c) of the Commercial Computer Software - Restricted
 Rights clause in FAR 52.227-19.
  
 Gaussian, Inc.
 340 Quinnipiac St., Bldg. 40, Wallingford CT 06492
  
  
 ---------------------------------------------------------------
 Warning -- This program may not be used in any manner that
 competes with the business of Gaussian, Inc. or will provide
 assistance to any competitor of Gaussian, Inc.  The licensee
 of this program is prohibited from giving any competitor of
 Gaussian, Inc. access to this program.  By using this program,
 the user acknowledges that Gaussian, Inc. is engaged in the
 business of creating and licensing software in the field of
 computational chemistry and represents and warrants to the
 licensee that it is not a competitor of Gaussian, Inc. and that
 it will not use this program in any manner prohibited above.
 ---------------------------------------------------------------
  

 Cite this work as:
 Gaussian 09, Revision D.01,
 M. J. Frisch, G. W. Trucks, H. B. Schlegel, G. E. Scuseria, 
 M. A. Robb, J. R. Cheeseman, G. Scalmani, V. Barone, B. Mennucci, 
 G. A. Petersson, H. Nakatsuji, M. Caricato, X. Li, H. P. Hratchian, 
 A. F. Izmaylov, J. Bloino, G. Zheng, J. L. Sonnenberg, M. Hada, 
 M. Ehara, K. Toyota, R. Fukuda, J. Hasegawa, M. Ishida, T. Nakajima, 
 Y. Honda, O. Kitao, H. Nakai, T. Vreven, J. A. Montgomery, Jr., 
 J. E. Peralta, F. Ogliaro, M. Bearpark, J. J. Heyd, E. Brothers, 
 K. N. Kudin, V. N. Staroverov, T. Keith, R. Kobayashi, J. Normand, 
 K. Raghavachari, A. Rendell, J. C. Burant, S. S. Iyengar, J. Tomasi, 
 M. Cossi, N. Rega, J. M. Millam, M. Klene, J. E. Knox, J. B. Cross, 
 V. Bakken, C. Adamo, J. Jaramillo, R. Gomperts, R. E. Stratmann, 
 O. Yazyev, A. J. Austin, R. Cammi, C. Pomelli, J. W. Ochterski, 
 R. L. Martin, K. Morokuma, V. G. Zakrzewski, G. A. Voth, 
 P. Salvador, J. J. Dannenberg, S. Dapprich, A. D. Daniels, 
 O. Farkas, J. B. Foresman, J. V. Ortiz, J. Cioslowski, 
 and D. J. Fox, Gaussian, Inc., Wallingford CT, 2013.
 
 ******************************************
 Gaussian 09:  ES64L-G09RevD.01 24-Apr-2013
                26-Aug-2020 
 ******************************************
 %chk=/home/boittier/MDCM/nms_sampling/cyanomethane_geom.xyz.dir/cyanomethane_214
 .chk
 %nproc=8
 Will use up to    8 processors via shared memory.
 %mem=16000MB
 --------------------
 #p B2PLYPD3/Def2QZVP
 --------------------
 1/38=1/1;
 2/12=2,17=6,18=5,40=1/2;
 3/5=45,7=101,11=9,16=1,25=1,30=1,74=-60/1,2,3;
 4//1;
 5/5=2,38=5/2;
 8/10=1/1;
 9/16=-3/6;
 6/7=2,8=2,9=2,10=2/1;
 99/5=1,9=1/99;
 Leave Link    1 at Wed Aug 26 15:11:19 2020, MaxMem=  2097152000 cpu:         0.2
 (Enter /opt/cluster/programs/g09/g09_d.01/g09/l101.exe)
 ------------
 cyanomethane
 ------------
 Symbolic Z-matrix:
 Charge =  0 Multiplicity = 1
 C                    -6.60176  -1.1125    1.16163 
 C                    -5.20171  -0.78746   0.90515 
 N                    -4.09043  -0.54125   0.70502 
 H                    -6.78997  -1.21321   2.2338 
 H                    -6.80983  -2.06082   0.70889 
 H                    -7.25476  -0.33721   0.79468 
 
 NAtoms=      6 NQM=        6 NQMF=       0 NMMI=      0 NMMIF=      0
                NMic=       0 NMicF=      0.
                    Isotopes and Nuclear Properties:
 (Nuclear quadrupole moments (NQMom) in fm**2, nuclear magnetic moments (NMagM)
  in nuclear magnetons)

  Atom         1           2           3           4           5           6
 IAtWgt=          12          12          14           1           1           1
 AtmWgt=  12.0000000  12.0000000  14.0030740   1.0078250   1.0078250   1.0078250
 NucSpn=           0           0           2           1           1           1
 AtZEff=   0.0000000   0.0000000   0.0000000   0.0000000   0.0000000   0.0000000
 NQMom=    0.0000000   0.0000000   2.0440000   0.0000000   0.0000000   0.0000000
 NMagM=    0.0000000   0.0000000   0.4037610   2.7928460   2.7928460   2.7928460
 AtZNuc=   6.0000000   6.0000000   7.0000000   1.0000000   1.0000000   1.0000000
 Leave Link  101 at Wed Aug 26 15:11:19 2020, MaxMem=  2097152000 cpu:         0.5
 (Enter /opt/cluster/programs/g09/g09_d.01/g09/l202.exe)
                          Input orientation:                          
 ---------------------------------------------------------------------
 Center     Atomic      Atomic             Coordinates (Angstroms)
 Number     Number       Type             X           Y           Z
 ---------------------------------------------------------------------
      1          6           0       -6.601761   -1.112495    1.161633
      2          6           0       -5.201714   -0.787456    0.905154
      3          7           0       -4.090433   -0.541246    0.705021
      4          1           0       -6.789967   -1.213208    2.233804
      5          1           0       -6.809827   -2.060818    0.708887
      6          1           0       -7.254757   -0.337206    0.794679
 ---------------------------------------------------------------------
                    Distance matrix (angstroms):
                    1          2          3          4          5
     1  C    0.000000
     2  C    1.459987   0.000000
     3  N    2.615643   1.155689   0.000000
     4  H    1.093213   2.114030   3.174302   0.000000
     5  H    1.071255   2.060582   3.115159   1.744766   0.000000
     6  H    1.078022   2.104736   3.172163   1.747710   1.782179
                    6
     6  H    0.000000
 Stoichiometry    C2H3N
 Framework group  C1[X(C2H3N)]
 Deg. of freedom    12
 Full point group                 C1      NOp   1
 Largest Abelian subgroup         C1      NOp   1
 Largest concise Abelian subgroup C1      NOp   1
                         Standard orientation:                         
 ---------------------------------------------------------------------
 Center     Atomic      Atomic             Coordinates (Angstroms)
 Number     Number       Type             X           Y           Z
 ---------------------------------------------------------------------
      1          6           0       -1.179891    0.000180   -0.007403
      2          6           0        0.280077    0.006187   -0.002582
      3          7           0        1.435727   -0.000578    0.004008
      4          1           0       -1.574216   -0.070327    1.009775
      5          1           0       -1.505671   -0.870997   -0.538914
      6          1           0       -1.571322    0.907168   -0.439012
 ---------------------------------------------------------------------
 Rotational constants (GHZ):    162.2545416      9.2259712      9.2118378
 Leave Link  202 at Wed Aug 26 15:11:19 2020, MaxMem=  2097152000 cpu:         0.0
 (Enter /opt/cluster/programs/g09/g09_d.01/g09/l301.exe)
 Standard basis: def2QZVP (5D, 7F)
 Ernie: Thresh=  0.10000D-02 Tol=  0.10000D-05 Strict=F.
 There are   321 symmetry adapted cartesian basis functions of A   symmetry.
 There are   261 symmetry adapted basis functions of A   symmetry.
   261 basis functions,   390 primitive gaussians,   321 cartesian basis functions
    11 alpha electrons       11 beta electrons
       nuclear repulsion energy        58.5683255069 Hartrees.
 IExCor=  419 DFT=T Ex+Corr=B2PLYPD3 ExCW=0 ScaHFX=  0.530000
 ScaDFX=  0.470000  0.470000  0.730000  0.730000 ScalE2=  0.270000  0.270000
 IRadAn=      0 IRanWt=     -1 IRanGd=            0 ICorTp=0 IEmpDi=141
 NAtoms=    6 NActive=    6 NUniq=    6 SFac= 1.00D+00 NAtFMM=   60 NAOKFM=F Big=F
 Integral buffers will be    131072 words long.
 Regular integral format.
 Two-electron integral symmetry is turned on.
 R6Disp:  Grimme-D3(BJ) Dispersion energy=       -0.0021028358 Hartrees.
 Nuclear repulsion after empirical dispersion term =       58.5662226711 Hartrees.
 Leave Link  301 at Wed Aug 26 15:11:19 2020, MaxMem=  2097152000 cpu:         0.5
 (Enter /opt/cluster/programs/g09/g09_d.01/g09/l302.exe)
 NPDir=0 NMtPBC=     1 NCelOv=     1 NCel=       1 NClECP=     1 NCelD=      1
         NCelK=      1 NCelE2=     1 NClLst=     1 CellRange=     0.0.
 One-electron integrals computed using PRISM.
   1 Symmetry operations used in ECPInt.
 ECPInt:  NShTT=    3321 NPrTT=    8136 LenC2=    3293 LenP2D=    7128.
 LDataN:  DoStor=T MaxTD1= 8 Len=  415
 NBasis=   261 RedAO= T EigKep=  8.20D-05  NBF=   261
 NBsUse=   261 1.00D-06 EigRej= -1.00D+00 NBFU=   261
 Precomputing XC quadrature grid using
 IXCGrd= 4 IRadAn=           0 IRanWt=          -1 IRanGd=           0 AccXCQ= 0.00D+00.
 Generated NRdTot=       0 NPtTot=           0 NUsed=           0 NTot=          32
 NSgBfM=   321   321   321   321   321 MxSgAt=     6 MxSgA2=     6.
 Leave Link  302 at Wed Aug 26 15:11:20 2020, MaxMem=  2097152000 cpu:         2.0
 (Enter /opt/cluster/programs/g09/g09_d.01/g09/l303.exe)
 DipDrv:  MaxL=1.
 Leave Link  303 at Wed Aug 26 15:11:20 2020, MaxMem=  2097152000 cpu:         0.2
 (Enter /opt/cluster/programs/g09/g09_d.01/g09/l401.exe)
 ExpMin= 7.60D-02 ExpMax= 9.07D+04 ExpMxC= 8.76D+02 IAcc=2 IRadAn=         4 AccDes= 0.00D+00
 Harris functional with IExCor=  419 and IRadAn=       4 diagonalized for initial guess.
 HarFok:  IExCor=  419 AccDes= 0.00D+00 IRadAn=         4 IDoV= 1 UseB2=F ITyADJ=14
 ICtDFT=  3500011 ScaDFX=  1.000000  1.000000  1.000000  1.000000
 FoFCou: FMM=F IPFlag=           0 FMFlag=      100000 FMFlg1=           0
         NFxFlg=           0 DoJE=T BraDBF=F KetDBF=T FulRan=T
         wScrn=  0.000000 ICntrl=     500 IOpCl=  0 I1Cent=   200000004 NGrid=           0
         NMat0=    1 NMatS0=      1 NMatT0=    0 NMatD0=    1 NMtDS0=    0 NMtDT0=    0
 Petite list used in FoFCou.
 Harris En= -132.853437558755    
 JPrj=0 DoOrth=F DoCkMO=F.
 Leave Link  401 at Wed Aug 26 15:11:20 2020, MaxMem=  2097152000 cpu:         3.7
 (Enter /opt/cluster/programs/g09/g09_d.01/g09/l502.exe)
 Closed shell SCF:
 Using DIIS extrapolation, IDIIS=  1040.
 Integral symmetry usage will be decided dynamically.
 Keep R1 ints in memory in canonical form, NReq=601554820.
 IVT=      332521 IEndB=      332521 NGot=  2097152000 MDV=  1512290144
 LenX=  1512290144 LenY=  1512186662
 Requested convergence on RMS density matrix=1.00D-08 within 128 cycles.
 Requested convergence on MAX density matrix=1.00D-06.
 Requested convergence on             energy=1.00D-06.
 No special actions if energy rises.
 FoFCou: FMM=F IPFlag=           0 FMFlag=           0 FMFlg1=           0
         NFxFlg=           0 DoJE=F BraDBF=F KetDBF=F FulRan=T
         wScrn=  0.000000 ICntrl=     600 IOpCl=  0 I1Cent=           0 NGrid=           0
         NMat0=    1 NMatS0=  34191 NMatT0=    0 NMatD0=    1 NMtDS0=    0 NMtDT0=    0
 Symmetry not used in FoFCou.
 Integral accuracy reduced to 1.0D-05 until final iterations.

 Cycle   1  Pass 0  IDiag  1:
 E= -132.421010059154    
 DIIS: error= 2.98D-02 at cycle   1 NSaved=   1.
 NSaved= 1 IEnMin= 1 EnMin= -132.421010059154     IErMin= 1 ErrMin= 2.98D-02
 ErrMax= 2.98D-02  0.00D+00 EMaxC= 1.00D-01 BMatC= 1.91D-01 BMatP= 1.91D-01
 IDIUse=3 WtCom= 7.02D-01 WtEn= 2.98D-01
 Coeff-Com:  0.100D+01
 Coeff-En:   0.100D+01
 Coeff:      0.100D+01
 Gap=     0.460 Goal=   None    Shift=    0.000
 GapD=    0.460 DampG=2.000 DampE=0.500 DampFc=1.0000 IDamp=-1.
 RMSDP=1.28D-03 MaxDP=6.72D-02              OVMax= 1.63D-01

 Cycle   2  Pass 0  IDiag  1:
 E= -132.454537885982     Delta-E=       -0.033527826828 Rises=F Damp=F
 DIIS: error= 3.45D-02 at cycle   2 NSaved=   2.
 NSaved= 2 IEnMin= 2 EnMin= -132.454537885982     IErMin= 1 ErrMin= 2.98D-02
 ErrMax= 3.45D-02  0.00D+00 EMaxC= 1.00D-01 BMatC= 9.54D-02 BMatP= 1.91D-01
 IDIUse=3 WtCom= 6.55D-01 WtEn= 3.45D-01
 Coeff-Com:  0.398D+00 0.602D+00
 Coeff-En:   0.396D+00 0.604D+00
 Coeff:      0.397D+00 0.603D+00
 Gap=     0.436 Goal=   None    Shift=    0.000
 RMSDP=8.44D-04 MaxDP=3.31D-02 DE=-3.35D-02 OVMax= 1.23D-01

 Cycle   3  Pass 0  IDiag  1:
 E= -132.518715991440     Delta-E=       -0.064178105458 Rises=F Damp=F
 DIIS: error= 1.52D-02 at cycle   3 NSaved=   3.
 NSaved= 3 IEnMin= 3 EnMin= -132.518715991440     IErMin= 3 ErrMin= 1.52D-02
 ErrMax= 1.52D-02  0.00D+00 EMaxC= 1.00D-01 BMatC= 2.02D-02 BMatP= 9.54D-02
 IDIUse=3 WtCom= 8.48D-01 WtEn= 1.52D-01
 Coeff-Com:  0.964D-01 0.326D+00 0.577D+00
 Coeff-En:   0.000D+00 0.130D+00 0.870D+00
 Coeff:      0.818D-01 0.296D+00 0.622D+00
 Gap=     0.428 Goal=   None    Shift=    0.000
 RMSDP=2.71D-04 MaxDP=9.86D-03 DE=-6.42D-02 OVMax= 5.98D-02

 Cycle   4  Pass 0  IDiag  1:
 E= -132.532559430120     Delta-E=       -0.013843438680 Rises=F Damp=F
 DIIS: error= 5.58D-03 at cycle   4 NSaved=   4.
 NSaved= 4 IEnMin= 4 EnMin= -132.532559430120     IErMin= 4 ErrMin= 5.58D-03
 ErrMax= 5.58D-03  0.00D+00 EMaxC= 1.00D-01 BMatC= 3.11D-03 BMatP= 2.02D-02
 IDIUse=3 WtCom= 9.44D-01 WtEn= 5.58D-02
 Coeff-Com: -0.124D-01 0.533D-01 0.329D+00 0.630D+00
 Coeff-En:   0.000D+00 0.000D+00 0.144D+00 0.856D+00
 Coeff:     -0.117D-01 0.503D-01 0.319D+00 0.643D+00
 Gap=     0.428 Goal=   None    Shift=    0.000
 RMSDP=9.22D-05 MaxDP=2.77D-03 DE=-1.38D-02 OVMax= 1.60D-02

 Cycle   5  Pass 0  IDiag  1:
 E= -132.535241187644     Delta-E=       -0.002681757524 Rises=F Damp=F
 DIIS: error= 3.25D-04 at cycle   5 NSaved=   5.
 NSaved= 5 IEnMin= 5 EnMin= -132.535241187644     IErMin= 5 ErrMin= 3.25D-04
 ErrMax= 3.25D-04  0.00D+00 EMaxC= 1.00D-01 BMatC= 1.45D-05 BMatP= 3.11D-03
 IDIUse=3 WtCom= 9.97D-01 WtEn= 3.25D-03
 Coeff-Com: -0.344D-02 0.523D-02 0.472D-01 0.141D+00 0.810D+00
 Coeff-En:   0.000D+00 0.000D+00 0.000D+00 0.000D+00 0.100D+01
 Coeff:     -0.343D-02 0.521D-02 0.471D-01 0.140D+00 0.811D+00
 Gap=     0.427 Goal=   None    Shift=    0.000
 RMSDP=8.37D-06 MaxDP=3.07D-04 DE=-2.68D-03 OVMax= 1.24D-03

 Initial convergence to 1.0D-05 achieved.  Increase integral accuracy.
 Cycle   6  Pass 1  IDiag  1:
 E= -132.535256312081     Delta-E=       -0.000015124437 Rises=F Damp=F
 DIIS: error= 9.48D-05 at cycle   1 NSaved=   1.
 NSaved= 1 IEnMin= 1 EnMin= -132.535256312081     IErMin= 1 ErrMin= 9.48D-05
 ErrMax= 9.48D-05  0.00D+00 EMaxC= 1.00D-01 BMatC= 6.32D-07 BMatP= 6.32D-07
 IDIUse=1 WtCom= 1.00D+00 WtEn= 0.00D+00
 Coeff-Com:  0.100D+01
 Coeff:      0.100D+01
 Gap=     0.428 Goal=   None    Shift=    0.000
 RMSDP=8.37D-06 MaxDP=3.07D-04 DE=-1.51D-05 OVMax= 4.09D-04

 Cycle   7  Pass 1  IDiag  1:
 E= -132.535256687249     Delta-E=       -0.000000375168 Rises=F Damp=F
 DIIS: error= 4.75D-05 at cycle   2 NSaved=   2.
 NSaved= 2 IEnMin= 2 EnMin= -132.535256687249     IErMin= 2 ErrMin= 4.75D-05
 ErrMax= 4.75D-05  0.00D+00 EMaxC= 1.00D-01 BMatC= 2.86D-07 BMatP= 6.32D-07
 IDIUse=1 WtCom= 1.00D+00 WtEn= 0.00D+00
 Coeff-Com:  0.393D+00 0.607D+00
 Coeff:      0.393D+00 0.607D+00
 Gap=     0.428 Goal=   None    Shift=    0.000
 RMSDP=9.98D-07 MaxDP=3.81D-05 DE=-3.75D-07 OVMax= 1.72D-04

 Cycle   8  Pass 1  IDiag  1:
 E= -132.535256934832     Delta-E=       -0.000000247583 Rises=F Damp=F
 DIIS: error= 1.62D-05 at cycle   3 NSaved=   3.
 NSaved= 3 IEnMin= 3 EnMin= -132.535256934832     IErMin= 3 ErrMin= 1.62D-05
 ErrMax= 1.62D-05  0.00D+00 EMaxC= 1.00D-01 BMatC= 2.14D-08 BMatP= 2.86D-07
 IDIUse=1 WtCom= 1.00D+00 WtEn= 0.00D+00
 Coeff-Com:  0.109D+00 0.251D+00 0.640D+00
 Coeff:      0.109D+00 0.251D+00 0.640D+00
 Gap=     0.428 Goal=   None    Shift=    0.000
 RMSDP=5.57D-07 MaxDP=2.52D-05 DE=-2.48D-07 OVMax= 5.72D-05

 Cycle   9  Pass 1  IDiag  1:
 E= -132.535256947873     Delta-E=       -0.000000013041 Rises=F Damp=F
 DIIS: error= 1.07D-05 at cycle   4 NSaved=   4.
 NSaved= 4 IEnMin= 4 EnMin= -132.535256947873     IErMin= 4 ErrMin= 1.07D-05
 ErrMax= 1.07D-05  0.00D+00 EMaxC= 1.00D-01 BMatC= 6.79D-09 BMatP= 2.14D-08
 IDIUse=1 WtCom= 1.00D+00 WtEn= 0.00D+00
 Coeff-Com: -0.587D-01-0.333D-01 0.391D+00 0.701D+00
 Coeff:     -0.587D-01-0.333D-01 0.391D+00 0.701D+00
 Gap=     0.428 Goal=   None    Shift=    0.000
 RMSDP=2.80D-07 MaxDP=1.33D-05 DE=-1.30D-08 OVMax= 3.26D-05

 Cycle  10  Pass 1  IDiag  1:
 E= -132.535256954298     Delta-E=       -0.000000006425 Rises=F Damp=F
 DIIS: error= 1.04D-06 at cycle   5 NSaved=   5.
 NSaved= 5 IEnMin= 5 EnMin= -132.535256954298     IErMin= 5 ErrMin= 1.04D-06
 ErrMax= 1.04D-06  0.00D+00 EMaxC= 1.00D-01 BMatC= 9.23D-11 BMatP= 6.79D-09
 IDIUse=1 WtCom= 1.00D+00 WtEn= 0.00D+00
 Coeff-Com: -0.208D-01-0.192D-01 0.766D-01 0.201D+00 0.763D+00
 Coeff:     -0.208D-01-0.192D-01 0.766D-01 0.201D+00 0.763D+00
 Gap=     0.428 Goal=   None    Shift=    0.000
 RMSDP=4.36D-08 MaxDP=2.16D-06 DE=-6.43D-09 OVMax= 3.35D-06

 Cycle  11  Pass 1  IDiag  1:
 E= -132.535256954380     Delta-E=       -0.000000000082 Rises=F Damp=F
 DIIS: error= 1.81D-07 at cycle   6 NSaved=   6.
 NSaved= 6 IEnMin= 6 EnMin= -132.535256954380     IErMin= 6 ErrMin= 1.81D-07
 ErrMax= 1.81D-07  0.00D+00 EMaxC= 1.00D-01 BMatC= 5.23D-12 BMatP= 9.23D-11
 IDIUse=1 WtCom= 1.00D+00 WtEn= 0.00D+00
 Coeff-Com:  0.220D-02 0.921D-04-0.277D-01-0.236D-01 0.134D+00 0.915D+00
 Coeff:      0.220D-02 0.921D-04-0.277D-01-0.236D-01 0.134D+00 0.915D+00
 Gap=     0.428 Goal=   None    Shift=    0.000
 RMSDP=9.29D-09 MaxDP=4.26D-07 DE=-8.19D-11 OVMax= 9.53D-07

 SCF Done:  E(RB2PLYPD3) =  -132.535256954     A.U. after   11 cycles
            NFock= 11  Conv=0.93D-08     -V/T= 2.0035
 KE= 1.320754798606D+02 PE=-4.257568740281D+02 EE= 1.025799145420D+02
 Leave Link  502 at Wed Aug 26 15:11:40 2020, MaxMem=  2097152000 cpu:        88.4
 (Enter /opt/cluster/programs/g09/g09_d.01/g09/l801.exe)
 DoSCS=T DFT=T ScalE2(SS,OS)=  0.270000  0.270000
 ExpMin= 7.60D-02 ExpMax= 9.07D+04 ExpMxC= 8.76D+02 IAcc=3 IRadAn=         5 AccDes= 0.00D+00
 HarFok:  IExCor=  205 AccDes= 0.00D+00 IRadAn=         5 IDoV=-2 UseB2=F ITyADJ=14
 ICtDFT= 12500011 ScaDFX=  1.000000  1.000000  1.000000  1.000000
 Largest valence mixing into a core orbital is  1.16D-04
 Largest core mixing into a valence orbital is  1.94D-05
 Range of M.O.s used for correlation:     4   261
 NBasis=   261 NAE=    11 NBE=    11 NFC=     3 NFV=     0
 NROrb=    258 NOA=     8 NOB=     8 NVA=   250 NVB=   250

 **** Warning!!: The largest alpha MO coefficient is  0.31464993D+02

 Leave Link  801 at Wed Aug 26 15:11:40 2020, MaxMem=  2097152000 cpu:         0.6
 (Enter /opt/cluster/programs/g09/g09_d.01/g09/l906.exe)
 DoSCS=T DFT=T ScalE2(SS,OS)=  0.270000  0.270000
 FulOut=F Deriv=F AODrv=F NAtomX=     6
   MMem=        2666  MDisk=           8 MDiskD=           8
  W3Min=      642000 MinDsk=     1426009 NBas6D=         321
 NBas2D=       52689    NTT=       51681    LW2=     4508827
    MDV=  2096809457 MDiskM=       14501 NBas2p=       52125
 Fully direct method using O(OVN) memory.
 IMap=   1   2   3   4   5   6   7   8
 JobTyp=1 Pass  1:  I=   1 to   8 NPSUse=  8 ParTrn=T ParDer=T DoDerP=F.
 Spin components of T(2) and E(2):
     alpha-alpha T2 =       0.3571849492D-01 E2=     -0.2142815062D-01
     alpha-beta  T2 =       0.2083717654D+00 E2=     -0.1376003866D+00
     beta-beta   T2 =       0.3571849492D-01 E2=     -0.2142815062D-01
 The integrals were generated   1 times.
 E2(B2PLYPD3) =    -0.1804566879D+00 E(B2PLYPD3) =    -0.13271571364228D+03
 Leave Link  906 at Wed Aug 26 15:11:53 2020, MaxMem=  2097152000 cpu:       102.9
 (Enter /opt/cluster/programs/g09/g09_d.01/g09/l601.exe)
 Copying SCF densities to generalized density rwf, IOpCl= 0 IROHF=0.

 **********************************************************************

            Population analysis using the SCF density.

 **********************************************************************

 Orbital symmetries:
       Occupied  (A) (A) (A) (A) (A) (A) (A) (A) (A) (A) (A)
       Virtual   (A) (A) (A) (A) (A) (A) (A) (A) (A) (A) (A) (A)
                 (A) (A) (A) (A) (A) (A) (A) (A) (A) (A) (A) (A)
                 (A) (A) (A) (A) (A) (A) (A) (A) (A) (A) (A) (A)
                 (A) (A) (A) (A) (A) (A) (A) (A) (A) (A) (A) (A)
                 (A) (A) (A) (A) (A) (A) (A) (A) (A) (A) (A) (A)
                 (A) (A) (A) (A) (A) (A) (A) (A) (A) (A) (A) (A)
                 (A) (A) (A) (A) (A) (A) (A) (A) (A) (A) (A) (A)
                 (A) (A) (A) (A) (A) (A) (A) (A) (A) (A) (A) (A)
                 (A) (A) (A) (A) (A) (A) (A) (A) (A) (A) (A) (A)
                 (A) (A) (A) (A) (A) (A) (A) (A) (A) (A) (A) (A)
                 (A) (A) (A) (A) (A) (A) (A) (A) (A) (A) (A) (A)
                 (A) (A) (A) (A) (A) (A) (A) (A) (A) (A) (A) (A)
                 (A) (A) (A) (A) (A) (A) (A) (A) (A) (A) (A) (A)
                 (A) (A) (A) (A) (A) (A) (A) (A) (A) (A) (A) (A)
                 (A) (A) (A) (A) (A) (A) (A) (A) (A) (A) (A) (A)
                 (A) (A) (A) (A) (A) (A) (A) (A) (A) (A) (A) (A)
                 (A) (A) (A) (A) (A) (A) (A) (A) (A) (A) (A) (A)
                 (A) (A) (A) (A) (A) (A) (A) (A) (A) (A) (A) (A)
                 (A) (A) (A) (A) (A) (A) (A) (A) (A) (A) (A) (A)
                 (A) (A) (A) (A) (A) (A) (A) (A) (A) (A) (A) (A)
                 (A) (A) (A) (A) (A) (A) (A) (A) (A) (A)
 The electronic state is 1-A.
 Alpha  occ. eigenvalues --  -14.84223 -10.66895 -10.66297  -1.04062  -0.89379
 Alpha  occ. eigenvalues --   -0.59812  -0.54733  -0.53437  -0.44786  -0.39140
 Alpha  occ. eigenvalues --   -0.38984
 Alpha virt. eigenvalues --    0.03798   0.07835   0.08178   0.10197   0.11300
 Alpha virt. eigenvalues --    0.11535   0.15379   0.16214   0.16520   0.20056
 Alpha virt. eigenvalues --    0.20138   0.25289   0.32735   0.34477   0.35100
 Alpha virt. eigenvalues --    0.38919   0.39802   0.40036   0.40445   0.47413
 Alpha virt. eigenvalues --    0.50969   0.51392   0.59003   0.59559   0.61418
 Alpha virt. eigenvalues --    0.66944   0.67844   0.69509   0.70081   0.79202
 Alpha virt. eigenvalues --    0.79280   0.82387   0.82452   0.83608   0.86664
 Alpha virt. eigenvalues --    0.91937   0.92956   0.95821   0.96092   0.97261
 Alpha virt. eigenvalues --    1.05658   1.07249   1.09065   1.12326   1.13123
 Alpha virt. eigenvalues --    1.14148   1.22571   1.22662   1.23910   1.35214
 Alpha virt. eigenvalues --    1.35947   1.46444   1.47593   1.48895   1.54810
 Alpha virt. eigenvalues --    1.65662   1.66070   1.70227   1.74656   1.78145
 Alpha virt. eigenvalues --    1.78421   1.78782   1.88760   1.91650   1.92364
 Alpha virt. eigenvalues --    1.93992   1.99140   1.99764   2.00994   2.04552
 Alpha virt. eigenvalues --    2.05670   2.12365   2.14372   2.20264   2.21496
 Alpha virt. eigenvalues --    2.22415   2.23999   2.25853   2.34944   2.35901
 Alpha virt. eigenvalues --    2.43139   2.50451   2.51435   2.56801   2.58066
 Alpha virt. eigenvalues --    2.60545   2.67067   2.70286   2.71491   2.72509
 Alpha virt. eigenvalues --    2.77237   2.78284   2.86296   2.90025   2.90726
 Alpha virt. eigenvalues --    2.92970   2.95721   2.95914   2.98118   3.08715
 Alpha virt. eigenvalues --    3.10462   3.12574   3.21374   3.29254   3.33581
 Alpha virt. eigenvalues --    3.36268   3.38782   3.39055   3.41042   3.49164
 Alpha virt. eigenvalues --    3.54106   3.56841   3.73233   3.74264   3.75130
 Alpha virt. eigenvalues --    3.88740   3.92272   3.93942   3.97291   4.00027
 Alpha virt. eigenvalues --    4.01190   4.05385   4.05974   4.25678   4.26226
 Alpha virt. eigenvalues --    4.55465   4.91044   4.91145   5.08000   5.10638
 Alpha virt. eigenvalues --    5.11345   5.19722   5.19764   5.20728   5.21919
 Alpha virt. eigenvalues --    5.30457   5.44772   5.45687   5.46839   5.65684
 Alpha virt. eigenvalues --    5.66727   5.85928   5.86571   5.90937   5.93333
 Alpha virt. eigenvalues --    5.94919   5.98993   5.99827   6.00771   6.03267
 Alpha virt. eigenvalues --    6.04074   6.05484   6.06634   6.08365   6.13768
 Alpha virt. eigenvalues --    6.19689   6.20209   6.24952   6.31129   6.33830
 Alpha virt. eigenvalues --    6.41581   6.42910   6.49713   6.58491   6.61215
 Alpha virt. eigenvalues --    6.62724   6.65126   6.89682   6.92249   6.94702
 Alpha virt. eigenvalues --    6.96900   7.02665   7.02687   7.09425   7.11605
 Alpha virt. eigenvalues --    7.15596   7.18265   7.23516   7.48739   7.49263
 Alpha virt. eigenvalues --    7.51553   7.53569   7.58488   7.61944   7.63642
 Alpha virt. eigenvalues --    7.66025   7.73372   7.75930   7.82001   7.85520
 Alpha virt. eigenvalues --    7.88838   7.93510   7.97262   8.05858   8.27477
 Alpha virt. eigenvalues --    8.31557   8.33896   8.43768   8.44474   8.46411
 Alpha virt. eigenvalues --    8.47767   8.49990   8.51088   8.57166   8.58364
 Alpha virt. eigenvalues --    8.60312   8.64462   8.66711   8.66892   8.68285
 Alpha virt. eigenvalues --    8.69969   8.82296   8.87072   8.90541   9.02837
 Alpha virt. eigenvalues --    9.08059   9.09549   9.14877   9.15787   9.17526
 Alpha virt. eigenvalues --    9.26076   9.29359   9.74329   9.76370   9.86274
 Alpha virt. eigenvalues --    9.87520   9.93234  10.02337  10.04782  10.13679
 Alpha virt. eigenvalues --   10.15840  10.16547  10.21157  10.31823  10.48383
 Alpha virt. eigenvalues --   10.53983  10.70372  11.37946  11.70465  11.78592
 Alpha virt. eigenvalues --   12.00206  12.02570  13.12546  13.58866  29.22155
 Alpha virt. eigenvalues --   29.55591  38.32144 148.88399 149.18672 198.24105
          Condensed to atoms (all electrons):
               1          2          3          4          5          6
     1  C    4.596683   0.302382  -0.058549   0.411160   0.414383   0.414091
     2  C    0.302382   4.841236   0.987180  -0.040763  -0.046843  -0.041557
     3  N   -0.058549   0.987180   6.280597  -0.001044  -0.000717  -0.000570
     4  H    0.411160  -0.040763  -0.001044   0.601148  -0.030926  -0.032054
     5  H    0.414383  -0.046843  -0.000717  -0.030926   0.593837  -0.028479
     6  H    0.414091  -0.041557  -0.000570  -0.032054  -0.028479   0.591108
 Mulliken charges:
               1
     1  C   -0.080150
     2  C   -0.001636
     3  N   -0.206897
     4  H    0.092478
     5  H    0.098744
     6  H    0.097461
 Sum of Mulliken charges =   0.00000
 Mulliken charges with hydrogens summed into heavy atoms:
               1
     1  C    0.208533
     2  C   -0.001636
     3  N   -0.206897
 Electronic spatial extent (au):  <R**2>=            161.8171
 Charge=              0.0000 electrons
 Dipole moment (field-independent basis, Debye):
    X=             -4.1367    Y=             -0.0060    Z=              0.0060  Tot=              4.1367
 Quadrupole moment (field-independent basis, Debye-Ang):
   XX=            -20.9638   YY=            -17.6614   ZZ=            -17.8432
   XY=             -0.0287   XZ=             -0.0871   YZ=              0.0096
 Traceless Quadrupole moment (field-independent basis, Debye-Ang):
   XX=             -2.1410   YY=              1.1614   ZZ=              0.9796
   XY=             -0.0287   XZ=             -0.0871   YZ=              0.0096
 Octapole moment (field-independent basis, Debye-Ang**2):
  XXX=            -13.0515  YYY=              0.0625  ZZZ=              0.7443  XYY=             -2.3660
  XXY=              0.1443  XXZ=              0.1831  XZZ=             -2.1326  YZZ=             -0.1550
  YYZ=             -0.7676  XYZ=              0.0209
 Hexadecapole moment (field-independent basis, Debye-Ang**3):
 XXXX=           -182.0192 YYYY=            -24.3975 ZZZZ=            -24.5717 XXXY=             -0.3358
 XXXZ=             -0.4553 YYYX=             -0.2283 YYYZ=              0.0695 ZZZX=             -1.3376
 ZZZY=              0.0043 XXYY=            -30.9775 XXZZ=            -31.2613 YYZZ=             -8.2018
 XXYZ=             -0.1042 YYXZ=              1.2688 ZZXY=              0.2247
 N-N= 5.856622267114D+01 E-N=-4.257568574362D+02  KE= 1.320754798606D+02
 Leave Link  601 at Wed Aug 26 15:11:53 2020, MaxMem=  2097152000 cpu:         0.3
 (Enter /opt/cluster/programs/g09/g09_d.01/g09/l9999.exe)
 1\1\GINC-NODE33\SP\RB2PLYPD3-FC\def2QZVP\C2H3N1\BOITTIER\26-Aug-2020\0
 \\#p B2PLYPD3/Def2QZVP\\cyanomethane\\0,1\C,0,-6.601761,-1.112495,1.16
 1633\C,0,-5.201714,-0.787456,0.905154\N,0,-4.090433,-0.541246,0.705021
 \H,0,-6.789967,-1.213208,2.233804\H,0,-6.809827,-2.060818,0.708887\H,0
 ,-7.254757,-0.337206,0.794679\\Version=ES64L-G09RevD.01\State=1-A\HF=-
 132.535257\MP2=-132.7157136\RMSD=9.287e-09\PG=C01 [X(C2H3N1)]\\@


 TO ERR IS HUMAN - AND TO BLAME IT ON A COMPUTER IS EVEN MORE SO.
 Job cpu time:       0 days  0 hours  3 minutes 19.9 seconds.
 File lengths (MBytes):  RWF=     28 Int=      0 D2E=      0 Chk=      5 Scr=      1
 Normal termination of Gaussian 09 at Wed Aug 26 15:11:53 2020.
