 Entering Gaussian System, Link 0=/opt/cluster/programs/g09/g09_d.01/g09//g09
 Input=/home/boittier/MDCM/nms_sampling/cyanomethane_geom.xyz.dir/energies/cyanomethane_2930_energy.com
 Output=/scratch/boittier/cyanomethane_2930_energy/cyanomethane_2930_energy.out
 Initial command:
 /opt/cluster/programs/g09/g09_d.01/g09/l1.exe "/scratch/boittier/cyanomethane_2930_energy/Gau-212253.inp" -scrdir="/scratch/boittier/cyanomethane_2930_energy/"
 Entering Link 1 = /opt/cluster/programs/g09/g09_d.01/g09/l1.exe PID=    212254.
  
 Copyright (c) 1988,1990,1992,1993,1995,1998,2003,2009,2013,
            Gaussian, Inc.  All Rights Reserved.
  
 This is part of the Gaussian(R) 09 program.  It is based on
 the Gaussian(R) 03 system (copyright 2003, Gaussian, Inc.),
 the Gaussian(R) 98 system (copyright 1998, Gaussian, Inc.),
 the Gaussian(R) 94 system (copyright 1995, Gaussian, Inc.),
 the Gaussian 92(TM) system (copyright 1992, Gaussian, Inc.),
 the Gaussian 90(TM) system (copyright 1990, Gaussian, Inc.),
 the Gaussian 88(TM) system (copyright 1988, Gaussian, Inc.),
 the Gaussian 86(TM) system (copyright 1986, Carnegie Mellon
 University), and the Gaussian 82(TM) system (copyright 1983,
 Carnegie Mellon University). Gaussian is a federally registered
 trademark of Gaussian, Inc.
  
 This software contains proprietary and confidential information,
 including trade secrets, belonging to Gaussian, Inc.
  
 This software is provided under written license and may be
 used, copied, transmitted, or stored only in accord with that
 written license.
  
 The following legend is applicable only to US Government
 contracts under FAR:
  
                    RESTRICTED RIGHTS LEGEND
  
 Use, reproduction and disclosure by the US Government is
 subject to restrictions as set forth in subparagraphs (a)
 and (c) of the Commercial Computer Software - Restricted
 Rights clause in FAR 52.227-19.
  
 Gaussian, Inc.
 340 Quinnipiac St., Bldg. 40, Wallingford CT 06492
  
  
 ---------------------------------------------------------------
 Warning -- This program may not be used in any manner that
 competes with the business of Gaussian, Inc. or will provide
 assistance to any competitor of Gaussian, Inc.  The licensee
 of this program is prohibited from giving any competitor of
 Gaussian, Inc. access to this program.  By using this program,
 the user acknowledges that Gaussian, Inc. is engaged in the
 business of creating and licensing software in the field of
 computational chemistry and represents and warrants to the
 licensee that it is not a competitor of Gaussian, Inc. and that
 it will not use this program in any manner prohibited above.
 ---------------------------------------------------------------
  

 Cite this work as:
 Gaussian 09, Revision D.01,
 M. J. Frisch, G. W. Trucks, H. B. Schlegel, G. E. Scuseria, 
 M. A. Robb, J. R. Cheeseman, G. Scalmani, V. Barone, B. Mennucci, 
 G. A. Petersson, H. Nakatsuji, M. Caricato, X. Li, H. P. Hratchian, 
 A. F. Izmaylov, J. Bloino, G. Zheng, J. L. Sonnenberg, M. Hada, 
 M. Ehara, K. Toyota, R. Fukuda, J. Hasegawa, M. Ishida, T. Nakajima, 
 Y. Honda, O. Kitao, H. Nakai, T. Vreven, J. A. Montgomery, Jr., 
 J. E. Peralta, F. Ogliaro, M. Bearpark, J. J. Heyd, E. Brothers, 
 K. N. Kudin, V. N. Staroverov, T. Keith, R. Kobayashi, J. Normand, 
 K. Raghavachari, A. Rendell, J. C. Burant, S. S. Iyengar, J. Tomasi, 
 M. Cossi, N. Rega, J. M. Millam, M. Klene, J. E. Knox, J. B. Cross, 
 V. Bakken, C. Adamo, J. Jaramillo, R. Gomperts, R. E. Stratmann, 
 O. Yazyev, A. J. Austin, R. Cammi, C. Pomelli, J. W. Ochterski, 
 R. L. Martin, K. Morokuma, V. G. Zakrzewski, G. A. Voth, 
 P. Salvador, J. J. Dannenberg, S. Dapprich, A. D. Daniels, 
 O. Farkas, J. B. Foresman, J. V. Ortiz, J. Cioslowski, 
 and D. J. Fox, Gaussian, Inc., Wallingford CT, 2013.
 
 ******************************************
 Gaussian 09:  ES64L-G09RevD.01 24-Apr-2013
                26-Aug-2020 
 ******************************************
 %chk=/home/boittier/MDCM/nms_sampling/cyanomethane_geom.xyz.dir/cyanomethane_293
 0.chk
 %nproc=8
 Will use up to    8 processors via shared memory.
 %mem=16000MB
 --------------------
 #p B2PLYPD3/Def2QZVP
 --------------------
 1/38=1/1;
 2/12=2,17=6,18=5,40=1/2;
 3/5=45,7=101,11=9,16=1,25=1,30=1,74=-60/1,2,3;
 4//1;
 5/5=2,38=5/2;
 8/10=1/1;
 9/16=-3/6;
 6/7=2,8=2,9=2,10=2/1;
 99/5=1,9=1/99;
 Leave Link    1 at Wed Aug 26 21:42:41 2020, MaxMem=  2097152000 cpu:         0.3
 (Enter /opt/cluster/programs/g09/g09_d.01/g09/l101.exe)
 ------------
 cyanomethane
 ------------
 Symbolic Z-matrix:
 Charge =  0 Multiplicity = 1
 C                    -6.60228  -1.09449   1.16992 
 C                    -5.18873  -0.74449   0.90247 
 N                    -4.08611  -0.56695   0.70443 
 H                    -6.83853  -1.42905   2.23977 
 H                    -6.82807  -2.08293   0.57094 
 H                    -7.39952  -0.43678   0.84778 
 
 NAtoms=      6 NQM=        6 NQMF=       0 NMMI=      0 NMMIF=      0
                NMic=       0 NMicF=      0.
                    Isotopes and Nuclear Properties:
 (Nuclear quadrupole moments (NQMom) in fm**2, nuclear magnetic moments (NMagM)
  in nuclear magnetons)

  Atom         1           2           3           4           5           6
 IAtWgt=          12          12          14           1           1           1
 AtmWgt=  12.0000000  12.0000000  14.0030740   1.0078250   1.0078250   1.0078250
 NucSpn=           0           0           2           1           1           1
 AtZEff=   0.0000000   0.0000000   0.0000000   0.0000000   0.0000000   0.0000000
 NQMom=    0.0000000   0.0000000   2.0440000   0.0000000   0.0000000   0.0000000
 NMagM=    0.0000000   0.0000000   0.4037610   2.7928460   2.7928460   2.7928460
 AtZNuc=   6.0000000   6.0000000   7.0000000   1.0000000   1.0000000   1.0000000
 Leave Link  101 at Wed Aug 26 21:42:41 2020, MaxMem=  2097152000 cpu:         0.5
 (Enter /opt/cluster/programs/g09/g09_d.01/g09/l202.exe)
                          Input orientation:                          
 ---------------------------------------------------------------------
 Center     Atomic      Atomic             Coordinates (Angstroms)
 Number     Number       Type             X           Y           Z
 ---------------------------------------------------------------------
      1          6           0       -6.602275   -1.094493    1.169919
      2          6           0       -5.188728   -0.744494    0.902468
      3          7           0       -4.086113   -0.566946    0.704425
      4          1           0       -6.838532   -1.429049    2.239773
      5          1           0       -6.828066   -2.082927    0.570941
      6          1           0       -7.399519   -0.436781    0.847780
 ---------------------------------------------------------------------
                    Distance matrix (angstroms):
                    1          2          3          4          5
     1  C    0.000000
     2  C    1.480589   0.000000
     3  N    2.612673   1.134242   0.000000
     4  H    1.145571   2.231334   3.267465   0.000000
     5  H    1.177607   2.142135   3.135972   1.792391   0.000000
     6  H    1.082569   2.232773   3.319059   1.799152   1.764368
                    6
     6  H    0.000000
 Stoichiometry    C2H3N
 Framework group  C1[X(C2H3N)]
 Deg. of freedom    12
 Full point group                 C1      NOp   1
 Largest Abelian subgroup         C1      NOp   1
 Largest concise Abelian subgroup C1      NOp   1
                         Standard orientation:                         
 ---------------------------------------------------------------------
 Center     Atomic      Atomic             Coordinates (Angstroms)
 Number     Number       Type             X           Y           Z
 ---------------------------------------------------------------------
      1          6           0       -1.172158   -0.000356   -0.025199
      2          6           0        0.308165   -0.017120   -0.047760
      3          7           0        1.440120    0.009120    0.019270
      4          1           0       -1.659979    1.031388   -0.124537
      5          1           0       -1.500005   -0.299225    1.065650
      6          1           0       -1.736898   -0.691148   -0.638250
 ---------------------------------------------------------------------
 Rotational constants (GHZ):    155.2593904      9.0593404      9.0523722
 Leave Link  202 at Wed Aug 26 21:42:41 2020, MaxMem=  2097152000 cpu:         0.0
 (Enter /opt/cluster/programs/g09/g09_d.01/g09/l301.exe)
 Standard basis: def2QZVP (5D, 7F)
 Ernie: Thresh=  0.10000D-02 Tol=  0.10000D-05 Strict=F.
 There are   321 symmetry adapted cartesian basis functions of A   symmetry.
 There are   261 symmetry adapted basis functions of A   symmetry.
   261 basis functions,   390 primitive gaussians,   321 cartesian basis functions
    11 alpha electrons       11 beta electrons
       nuclear repulsion energy        58.0165993358 Hartrees.
 IExCor=  419 DFT=T Ex+Corr=B2PLYPD3 ExCW=0 ScaHFX=  0.530000
 ScaDFX=  0.470000  0.470000  0.730000  0.730000 ScalE2=  0.270000  0.270000
 IRadAn=      0 IRanWt=     -1 IRanGd=            0 ICorTp=0 IEmpDi=141
 NAtoms=    6 NActive=    6 NUniq=    6 SFac= 1.00D+00 NAtFMM=   60 NAOKFM=F Big=F
 Integral buffers will be    131072 words long.
 Regular integral format.
 Two-electron integral symmetry is turned on.
 R6Disp:  Grimme-D3(BJ) Dispersion energy=       -0.0020810465 Hartrees.
 Nuclear repulsion after empirical dispersion term =       58.0145182893 Hartrees.
 Leave Link  301 at Wed Aug 26 21:42:41 2020, MaxMem=  2097152000 cpu:         0.4
 (Enter /opt/cluster/programs/g09/g09_d.01/g09/l302.exe)
 NPDir=0 NMtPBC=     1 NCelOv=     1 NCel=       1 NClECP=     1 NCelD=      1
         NCelK=      1 NCelE2=     1 NClLst=     1 CellRange=     0.0.
 One-electron integrals computed using PRISM.
   1 Symmetry operations used in ECPInt.
 ECPInt:  NShTT=    3321 NPrTT=    8136 LenC2=    3291 LenP2D=    7109.
 LDataN:  DoStor=T MaxTD1= 8 Len=  415
 NBasis=   261 RedAO= T EigKep=  8.09D-05  NBF=   261
 NBsUse=   261 1.00D-06 EigRej= -1.00D+00 NBFU=   261
 Precomputing XC quadrature grid using
 IXCGrd= 4 IRadAn=           0 IRanWt=          -1 IRanGd=           0 AccXCQ= 0.00D+00.
 Generated NRdTot=       0 NPtTot=           0 NUsed=           0 NTot=          32
 NSgBfM=   321   321   321   321   321 MxSgAt=     6 MxSgA2=     6.
 Leave Link  302 at Wed Aug 26 21:42:42 2020, MaxMem=  2097152000 cpu:         2.0
 (Enter /opt/cluster/programs/g09/g09_d.01/g09/l303.exe)
 DipDrv:  MaxL=1.
 Leave Link  303 at Wed Aug 26 21:42:42 2020, MaxMem=  2097152000 cpu:         0.2
 (Enter /opt/cluster/programs/g09/g09_d.01/g09/l401.exe)
 ExpMin= 7.60D-02 ExpMax= 9.07D+04 ExpMxC= 8.76D+02 IAcc=2 IRadAn=         4 AccDes= 0.00D+00
 Harris functional with IExCor=  419 and IRadAn=       4 diagonalized for initial guess.
 HarFok:  IExCor=  419 AccDes= 0.00D+00 IRadAn=         4 IDoV= 1 UseB2=F ITyADJ=14
 ICtDFT=  3500011 ScaDFX=  1.000000  1.000000  1.000000  1.000000
 FoFCou: FMM=F IPFlag=           0 FMFlag=      100000 FMFlg1=           0
         NFxFlg=           0 DoJE=T BraDBF=F KetDBF=T FulRan=T
         wScrn=  0.000000 ICntrl=     500 IOpCl=  0 I1Cent=   200000004 NGrid=           0
         NMat0=    1 NMatS0=      1 NMatT0=    0 NMatD0=    1 NMtDS0=    0 NMtDT0=    0
 Petite list used in FoFCou.
 Harris En= -132.837352478721    
 JPrj=0 DoOrth=F DoCkMO=F.
 Leave Link  401 at Wed Aug 26 21:42:42 2020, MaxMem=  2097152000 cpu:         4.2
 (Enter /opt/cluster/programs/g09/g09_d.01/g09/l502.exe)
 Closed shell SCF:
 Using DIIS extrapolation, IDIIS=  1040.
 Integral symmetry usage will be decided dynamically.
 Keep R1 ints in memory in canonical form, NReq=601554820.
 IVT=      332521 IEndB=      332521 NGot=  2097152000 MDV=  1512290144
 LenX=  1512290144 LenY=  1512186662
 Requested convergence on RMS density matrix=1.00D-08 within 128 cycles.
 Requested convergence on MAX density matrix=1.00D-06.
 Requested convergence on             energy=1.00D-06.
 No special actions if energy rises.
 FoFCou: FMM=F IPFlag=           0 FMFlag=           0 FMFlg1=           0
         NFxFlg=           0 DoJE=F BraDBF=F KetDBF=F FulRan=T
         wScrn=  0.000000 ICntrl=     600 IOpCl=  0 I1Cent=           0 NGrid=           0
         NMat0=    1 NMatS0=  34191 NMatT0=    0 NMatD0=    1 NMtDS0=    0 NMtDT0=    0
 Symmetry not used in FoFCou.
 Integral accuracy reduced to 1.0D-05 until final iterations.

 Cycle   1  Pass 0  IDiag  1:
 E= -132.412283867046    
 DIIS: error= 2.73D-02 at cycle   1 NSaved=   1.
 NSaved= 1 IEnMin= 1 EnMin= -132.412283867046     IErMin= 1 ErrMin= 2.73D-02
 ErrMax= 2.73D-02  0.00D+00 EMaxC= 1.00D-01 BMatC= 1.88D-01 BMatP= 1.88D-01
 IDIUse=3 WtCom= 7.27D-01 WtEn= 2.73D-01
 Coeff-Com:  0.100D+01
 Coeff-En:   0.100D+01
 Coeff:      0.100D+01
 Gap=     0.463 Goal=   None    Shift=    0.000
 GapD=    0.463 DampG=2.000 DampE=0.500 DampFc=1.0000 IDamp=-1.
 RMSDP=1.35D-03 MaxDP=7.45D-02              OVMax= 1.76D-01

 Cycle   2  Pass 0  IDiag  1:
 E= -132.436823530581     Delta-E=       -0.024539663535 Rises=F Damp=F
 DIIS: error= 2.70D-02 at cycle   2 NSaved=   2.
 NSaved= 2 IEnMin= 2 EnMin= -132.436823530581     IErMin= 2 ErrMin= 2.70D-02
 ErrMax= 2.70D-02  0.00D+00 EMaxC= 1.00D-01 BMatC= 1.02D-01 BMatP= 1.88D-01
 IDIUse=3 WtCom= 7.30D-01 WtEn= 2.70D-01
 Coeff-Com:  0.409D+00 0.591D+00
 Coeff-En:   0.428D+00 0.572D+00
 Coeff:      0.414D+00 0.586D+00
 Gap=     0.434 Goal=   None    Shift=    0.000
 RMSDP=8.94D-04 MaxDP=3.76D-02 DE=-2.45D-02 OVMax= 1.25D-01

 Cycle   3  Pass 0  IDiag  1:
 E= -132.509396518467     Delta-E=       -0.072572987886 Rises=F Damp=F
 DIIS: error= 1.52D-02 at cycle   3 NSaved=   3.
 NSaved= 3 IEnMin= 3 EnMin= -132.509396518467     IErMin= 3 ErrMin= 1.52D-02
 ErrMax= 1.52D-02  0.00D+00 EMaxC= 1.00D-01 BMatC= 1.78D-02 BMatP= 1.02D-01
 IDIUse=3 WtCom= 8.48D-01 WtEn= 1.52D-01
 Coeff-Com:  0.876D-01 0.305D+00 0.608D+00
 Coeff-En:   0.000D+00 0.903D-01 0.910D+00
 Coeff:      0.743D-01 0.272D+00 0.654D+00
 Gap=     0.428 Goal=   None    Shift=    0.000
 RMSDP=2.56D-04 MaxDP=9.23D-03 DE=-7.26D-02 OVMax= 5.59D-02

 Cycle   4  Pass 0  IDiag  1:
 E= -132.521310317819     Delta-E=       -0.011913799352 Rises=F Damp=F
 DIIS: error= 5.86D-03 at cycle   4 NSaved=   4.
 NSaved= 4 IEnMin= 4 EnMin= -132.521310317819     IErMin= 4 ErrMin= 5.86D-03
 ErrMax= 5.86D-03  0.00D+00 EMaxC= 1.00D-01 BMatC= 2.99D-03 BMatP= 1.78D-02
 IDIUse=3 WtCom= 9.41D-01 WtEn= 5.86D-02
 Coeff-Com: -0.121D-01 0.510D-01 0.343D+00 0.618D+00
 Coeff-En:   0.000D+00 0.000D+00 0.156D+00 0.844D+00
 Coeff:     -0.114D-01 0.481D-01 0.332D+00 0.632D+00
 Gap=     0.427 Goal=   None    Shift=    0.000
 RMSDP=9.03D-05 MaxDP=2.81D-03 DE=-1.19D-02 OVMax= 1.50D-02

 Cycle   5  Pass 0  IDiag  1:
 E= -132.523912267786     Delta-E=       -0.002601949967 Rises=F Damp=F
 DIIS: error= 3.68D-04 at cycle   5 NSaved=   5.
 NSaved= 5 IEnMin= 5 EnMin= -132.523912267786     IErMin= 5 ErrMin= 3.68D-04
 ErrMax= 3.68D-04  0.00D+00 EMaxC= 1.00D-01 BMatC= 1.65D-05 BMatP= 2.99D-03
 IDIUse=3 WtCom= 9.96D-01 WtEn= 3.68D-03
 Coeff-Com: -0.385D-02 0.525D-02 0.573D-01 0.156D+00 0.785D+00
 Coeff-En:   0.000D+00 0.000D+00 0.000D+00 0.000D+00 0.100D+01
 Coeff:     -0.384D-02 0.523D-02 0.571D-01 0.155D+00 0.786D+00
 Gap=     0.426 Goal=   None    Shift=    0.000
 RMSDP=9.31D-06 MaxDP=3.60D-04 DE=-2.60D-03 OVMax= 1.21D-03

 Initial convergence to 1.0D-05 achieved.  Increase integral accuracy.
 Cycle   6  Pass 1  IDiag  1:
 E= -132.523934181019     Delta-E=       -0.000021913234 Rises=F Damp=F
 DIIS: error= 6.99D-05 at cycle   1 NSaved=   1.
 NSaved= 1 IEnMin= 1 EnMin= -132.523934181019     IErMin= 1 ErrMin= 6.99D-05
 ErrMax= 6.99D-05  0.00D+00 EMaxC= 1.00D-01 BMatC= 6.76D-07 BMatP= 6.76D-07
 IDIUse=1 WtCom= 1.00D+00 WtEn= 0.00D+00
 Coeff-Com:  0.100D+01
 Coeff:      0.100D+01
 Gap=     0.427 Goal=   None    Shift=    0.000
 RMSDP=9.31D-06 MaxDP=3.60D-04 DE=-2.19D-05 OVMax= 4.17D-04

 Cycle   7  Pass 1  IDiag  1:
 E= -132.523934596214     Delta-E=       -0.000000415194 Rises=F Damp=F
 DIIS: error= 5.66D-05 at cycle   2 NSaved=   2.
 NSaved= 2 IEnMin= 2 EnMin= -132.523934596214     IErMin= 2 ErrMin= 5.66D-05
 ErrMax= 5.66D-05  0.00D+00 EMaxC= 1.00D-01 BMatC= 3.22D-07 BMatP= 6.76D-07
 IDIUse=1 WtCom= 1.00D+00 WtEn= 0.00D+00
 Coeff-Com:  0.400D+00 0.600D+00
 Coeff:      0.400D+00 0.600D+00
 Gap=     0.426 Goal=   None    Shift=    0.000
 RMSDP=1.05D-06 MaxDP=4.25D-05 DE=-4.15D-07 OVMax= 1.78D-04

 Cycle   8  Pass 1  IDiag  1:
 E= -132.523934879479     Delta-E=       -0.000000283265 Rises=F Damp=F
 DIIS: error= 1.18D-05 at cycle   3 NSaved=   3.
 NSaved= 3 IEnMin= 3 EnMin= -132.523934879479     IErMin= 3 ErrMin= 1.18D-05
 ErrMax= 1.18D-05  0.00D+00 EMaxC= 1.00D-01 BMatC= 2.01D-08 BMatP= 3.22D-07
 IDIUse=1 WtCom= 1.00D+00 WtEn= 0.00D+00
 Coeff-Com:  0.920D-01 0.220D+00 0.688D+00
 Coeff:      0.920D-01 0.220D+00 0.688D+00
 Gap=     0.426 Goal=   None    Shift=    0.000
 RMSDP=6.14D-07 MaxDP=2.77D-05 DE=-2.83D-07 OVMax= 6.33D-05

 Cycle   9  Pass 1  IDiag  1:
 E= -132.523934891556     Delta-E=       -0.000000012077 Rises=F Damp=F
 DIIS: error= 1.30D-05 at cycle   4 NSaved=   4.
 NSaved= 4 IEnMin= 4 EnMin= -132.523934891556     IErMin= 3 ErrMin= 1.18D-05
 ErrMax= 1.30D-05  0.00D+00 EMaxC= 1.00D-01 BMatC= 8.13D-09 BMatP= 2.01D-08
 IDIUse=1 WtCom= 1.00D+00 WtEn= 0.00D+00
 Coeff-Com: -0.604D-01-0.361D-01 0.426D+00 0.670D+00
 Coeff:     -0.604D-01-0.361D-01 0.426D+00 0.670D+00
 Gap=     0.426 Goal=   None    Shift=    0.000
 RMSDP=2.84D-07 MaxDP=1.44D-05 DE=-1.21D-08 OVMax= 4.39D-05

 Cycle  10  Pass 1  IDiag  1:
 E= -132.523934899219     Delta-E=       -0.000000007663 Rises=F Damp=F
 DIIS: error= 9.84D-07 at cycle   5 NSaved=   5.
 NSaved= 5 IEnMin= 5 EnMin= -132.523934899219     IErMin= 5 ErrMin= 9.84D-07
 ErrMax= 9.84D-07  0.00D+00 EMaxC= 1.00D-01 BMatC= 1.32D-10 BMatP= 8.13D-09
 IDIUse=1 WtCom= 1.00D+00 WtEn= 0.00D+00
 Coeff-Com: -0.226D-01-0.212D-01 0.922D-01 0.203D+00 0.749D+00
 Coeff:     -0.226D-01-0.212D-01 0.922D-01 0.203D+00 0.749D+00
 Gap=     0.426 Goal=   None    Shift=    0.000
 RMSDP=5.25D-08 MaxDP=2.56D-06 DE=-7.66D-09 OVMax= 4.91D-06

 Cycle  11  Pass 1  IDiag  1:
 E= -132.523934899386     Delta-E=       -0.000000000167 Rises=F Damp=F
 DIIS: error= 4.32D-07 at cycle   6 NSaved=   6.
 NSaved= 6 IEnMin= 6 EnMin= -132.523934899386     IErMin= 6 ErrMin= 4.32D-07
 ErrMax= 4.32D-07  0.00D+00 EMaxC= 1.00D-01 BMatC= 1.05D-11 BMatP= 1.32D-10
 IDIUse=1 WtCom= 1.00D+00 WtEn= 0.00D+00
 Coeff-Com:  0.632D-02 0.318D-02-0.521D-01-0.635D-01 0.776D-01 0.103D+01
 Coeff:      0.632D-02 0.318D-02-0.521D-01-0.635D-01 0.776D-01 0.103D+01
 Gap=     0.426 Goal=   None    Shift=    0.000
 RMSDP=1.71D-08 MaxDP=5.50D-07 DE=-1.67D-10 OVMax= 3.47D-06

 Cycle  12  Pass 1  IDiag  1:
 E= -132.523934899418     Delta-E=       -0.000000000032 Rises=F Damp=F
 DIIS: error= 1.14D-07 at cycle   7 NSaved=   7.
 NSaved= 7 IEnMin= 7 EnMin= -132.523934899418     IErMin= 7 ErrMin= 1.14D-07
 ErrMax= 1.14D-07  0.00D+00 EMaxC= 1.00D-01 BMatC= 7.15D-13 BMatP= 1.05D-11
 IDIUse=1 WtCom= 1.00D+00 WtEn= 0.00D+00
 Coeff-Com:  0.235D-03 0.102D-02 0.706D-02 0.676D-03-0.831D-01-0.302D+00
 Coeff-Com:  0.138D+01
 Coeff:      0.235D-03 0.102D-02 0.706D-02 0.676D-03-0.831D-01-0.302D+00
 Coeff:      0.138D+01
 Gap=     0.426 Goal=   None    Shift=    0.000
 RMSDP=6.57D-09 MaxDP=2.10D-07 DE=-3.16D-11 OVMax= 1.61D-06

 SCF Done:  E(RB2PLYPD3) =  -132.523934899     A.U. after   12 cycles
            NFock= 12  Conv=0.66D-08     -V/T= 2.0045
 KE= 1.319256352280D+02 PE=-4.245325329057D+02 EE= 1.020684444890D+02
 Leave Link  502 at Wed Aug 26 21:43:06 2020, MaxMem=  2097152000 cpu:       116.5
 (Enter /opt/cluster/programs/g09/g09_d.01/g09/l801.exe)
 DoSCS=T DFT=T ScalE2(SS,OS)=  0.270000  0.270000
 ExpMin= 7.60D-02 ExpMax= 9.07D+04 ExpMxC= 8.76D+02 IAcc=3 IRadAn=         5 AccDes= 0.00D+00
 HarFok:  IExCor=  205 AccDes= 0.00D+00 IRadAn=         5 IDoV=-2 UseB2=F ITyADJ=14
 ICtDFT= 12500011 ScaDFX=  1.000000  1.000000  1.000000  1.000000
 Largest valence mixing into a core orbital is  1.15D-04
 Largest core mixing into a valence orbital is  1.85D-05
 Range of M.O.s used for correlation:     4   261
 NBasis=   261 NAE=    11 NBE=    11 NFC=     3 NFV=     0
 NROrb=    258 NOA=     8 NOB=     8 NVA=   250 NVB=   250

 **** Warning!!: The largest alpha MO coefficient is  0.26668580D+02

 Leave Link  801 at Wed Aug 26 21:43:06 2020, MaxMem=  2097152000 cpu:         0.7
 (Enter /opt/cluster/programs/g09/g09_d.01/g09/l906.exe)
 DoSCS=T DFT=T ScalE2(SS,OS)=  0.270000  0.270000
 FulOut=F Deriv=F AODrv=F NAtomX=     6
   MMem=        2666  MDisk=           8 MDiskD=           8
  W3Min=      642000 MinDsk=     1426009 NBas6D=         321
 NBas2D=       52689    NTT=       51681    LW2=     4508827
    MDV=  2096810687 MDiskM=       14501 NBas2p=       51950
 Fully direct method using O(OVN) memory.
 IMap=   1   2   3   4   5   6   7   8
 JobTyp=1 Pass  1:  I=   1 to   8 NPSUse=  8 ParTrn=T ParDer=T DoDerP=F.
 Spin components of T(2) and E(2):
     alpha-alpha T2 =       0.3519231599D-01 E2=     -0.2122999796D-01
     alpha-beta  T2 =       0.2086106440D+00 E2=     -0.1373496471D+00
     beta-beta   T2 =       0.3519231599D-01 E2=     -0.2122999796D-01
 The integrals were generated   1 times.
 E2(B2PLYPD3) =    -0.1798096430D+00 E(B2PLYPD3) =    -0.13270374454240D+03
 Leave Link  906 at Wed Aug 26 21:43:19 2020, MaxMem=  2097152000 cpu:       104.7
 (Enter /opt/cluster/programs/g09/g09_d.01/g09/l601.exe)
 Copying SCF densities to generalized density rwf, IOpCl= 0 IROHF=0.

 **********************************************************************

            Population analysis using the SCF density.

 **********************************************************************

 Orbital symmetries:
       Occupied  (A) (A) (A) (A) (A) (A) (A) (A) (A) (A) (A)
       Virtual   (A) (A) (A) (A) (A) (A) (A) (A) (A) (A) (A) (A)
                 (A) (A) (A) (A) (A) (A) (A) (A) (A) (A) (A) (A)
                 (A) (A) (A) (A) (A) (A) (A) (A) (A) (A) (A) (A)
                 (A) (A) (A) (A) (A) (A) (A) (A) (A) (A) (A) (A)
                 (A) (A) (A) (A) (A) (A) (A) (A) (A) (A) (A) (A)
                 (A) (A) (A) (A) (A) (A) (A) (A) (A) (A) (A) (A)
                 (A) (A) (A) (A) (A) (A) (A) (A) (A) (A) (A) (A)
                 (A) (A) (A) (A) (A) (A) (A) (A) (A) (A) (A) (A)
                 (A) (A) (A) (A) (A) (A) (A) (A) (A) (A) (A) (A)
                 (A) (A) (A) (A) (A) (A) (A) (A) (A) (A) (A) (A)
                 (A) (A) (A) (A) (A) (A) (A) (A) (A) (A) (A) (A)
                 (A) (A) (A) (A) (A) (A) (A) (A) (A) (A) (A) (A)
                 (A) (A) (A) (A) (A) (A) (A) (A) (A) (A) (A) (A)
                 (A) (A) (A) (A) (A) (A) (A) (A) (A) (A) (A) (A)
                 (A) (A) (A) (A) (A) (A) (A) (A) (A) (A) (A) (A)
                 (A) (A) (A) (A) (A) (A) (A) (A) (A) (A) (A) (A)
                 (A) (A) (A) (A) (A) (A) (A) (A) (A) (A) (A) (A)
                 (A) (A) (A) (A) (A) (A) (A) (A) (A) (A) (A) (A)
                 (A) (A) (A) (A) (A) (A) (A) (A) (A) (A) (A) (A)
                 (A) (A) (A) (A) (A) (A) (A) (A) (A) (A) (A) (A)
                 (A) (A) (A) (A) (A) (A) (A) (A) (A) (A)
 The electronic state is 1-A.
 Alpha  occ. eigenvalues --  -14.83973 -10.68608 -10.66253  -1.05140  -0.87588
 Alpha  occ. eigenvalues --   -0.60507  -0.52817  -0.50778  -0.45012  -0.39966
 Alpha  occ. eigenvalues --   -0.39298
 Alpha virt. eigenvalues --    0.03339   0.07151   0.07793   0.10259   0.11464
 Alpha virt. eigenvalues --    0.12178   0.15191   0.16265   0.18172   0.20000
 Alpha virt. eigenvalues --    0.20184   0.24936   0.32160   0.32578   0.34919
 Alpha virt. eigenvalues --    0.38180   0.38652   0.40070   0.41163   0.47775
 Alpha virt. eigenvalues --    0.49286   0.50669   0.56657   0.59118   0.61878
 Alpha virt. eigenvalues --    0.68519   0.68891   0.69513   0.71346   0.78615
 Alpha virt. eigenvalues --    0.78733   0.80553   0.82183   0.84795   0.86990
 Alpha virt. eigenvalues --    0.89420   0.91855   0.94723   0.95746   0.97235
 Alpha virt. eigenvalues --    1.06461   1.09164   1.09930   1.11016   1.12693
 Alpha virt. eigenvalues --    1.16262   1.20560   1.21752   1.23059   1.34053
 Alpha virt. eigenvalues --    1.35270   1.42489   1.46957   1.48224   1.53373
 Alpha virt. eigenvalues --    1.64064   1.65487   1.70271   1.70945   1.76309
 Alpha virt. eigenvalues --    1.77748   1.78686   1.87166   1.91135   1.92155
 Alpha virt. eigenvalues --    1.93278   1.99056   1.99472   2.01420   2.04696
 Alpha virt. eigenvalues --    2.06153   2.12753   2.15038   2.19315   2.20267
 Alpha virt. eigenvalues --    2.23543   2.24700   2.27026   2.31798   2.33380
 Alpha virt. eigenvalues --    2.40480   2.46079   2.50304   2.53390   2.55715
 Alpha virt. eigenvalues --    2.63671   2.66371   2.67661   2.68424   2.70567
 Alpha virt. eigenvalues --    2.73870   2.76720   2.80875   2.89264   2.91207
 Alpha virt. eigenvalues --    2.91839   2.93276   2.97012   2.98516   3.06538
 Alpha virt. eigenvalues --    3.08312   3.09916   3.19526   3.20266   3.24113
 Alpha virt. eigenvalues --    3.27698   3.31318   3.36850   3.41296   3.47362
 Alpha virt. eigenvalues --    3.49795   3.52599   3.64625   3.70692   3.74291
 Alpha virt. eigenvalues --    3.78754   3.90647   3.92336   3.93555   3.97397
 Alpha virt. eigenvalues --    4.00908   4.04304   4.05786   4.18095   4.21311
 Alpha virt. eigenvalues --    4.54271   4.90262   4.90507   5.04131   5.09078
 Alpha virt. eigenvalues --    5.11740   5.15267   5.16028   5.17876   5.24176
 Alpha virt. eigenvalues --    5.24408   5.36938   5.39927   5.48467   5.57195
 Alpha virt. eigenvalues --    5.63391   5.80082   5.82580   5.87834   5.89159
 Alpha virt. eigenvalues --    5.91246   5.94099   5.94845   5.96468   5.97292
 Alpha virt. eigenvalues --    6.00530   6.02016   6.03916   6.07031   6.08597
 Alpha virt. eigenvalues --    6.11176   6.14750   6.19145   6.26477   6.28777
 Alpha virt. eigenvalues --    6.37346   6.43417   6.47108   6.51788   6.53606
 Alpha virt. eigenvalues --    6.57477   6.62825   6.66112   6.70263   6.83104
 Alpha virt. eigenvalues --    6.84648   6.93383   7.02662   7.02841   7.03662
 Alpha virt. eigenvalues --    7.08241   7.14096   7.18656   7.36838   7.41709
 Alpha virt. eigenvalues --    7.49319   7.52133   7.54280   7.56718   7.61486
 Alpha virt. eigenvalues --    7.62162   7.68639   7.73232   7.74072   7.79358
 Alpha virt. eigenvalues --    7.81555   7.88703   7.94687   8.01474   8.12725
 Alpha virt. eigenvalues --    8.18213   8.20835   8.34134   8.36959   8.40284
 Alpha virt. eigenvalues --    8.42510   8.45134   8.47201   8.47322   8.53389
 Alpha virt. eigenvalues --    8.55138   8.60911   8.65982   8.66580   8.67374
 Alpha virt. eigenvalues --    8.69992   8.73014   8.74871   8.87109   8.91602
 Alpha virt. eigenvalues --    8.92281   8.98701   9.03018   9.09391   9.12794
 Alpha virt. eigenvalues --    9.27385   9.31183   9.50443   9.54532   9.66193
 Alpha virt. eigenvalues --    9.70177   9.74748   9.84692   9.91025   9.93072
 Alpha virt. eigenvalues --   10.01718  10.05653  10.16186  10.19692  10.25558
 Alpha virt. eigenvalues --   10.36785  10.55464  11.39842  11.86540  11.90306
 Alpha virt. eigenvalues --   11.99461  12.08926  12.89717  13.25204  29.09268
 Alpha virt. eigenvalues --   29.41285  38.37275 148.71785 149.06032 198.30713
          Condensed to atoms (all electrons):
               1          2          3          4          5          6
     1  C    4.619722   0.316041  -0.056654   0.405036   0.398114   0.403619
     2  C    0.316041   4.783410   1.002290  -0.035242  -0.046229  -0.029103
     3  N   -0.056654   1.002290   6.248808  -0.000649  -0.001730   0.000386
     4  H    0.405036  -0.035242  -0.000649   0.601616  -0.028173  -0.032942
     5  H    0.398114  -0.046229  -0.001730  -0.028173   0.626652  -0.031554
     6  H    0.403619  -0.029103   0.000386  -0.032942  -0.031554   0.593374
 Mulliken charges:
               1
     1  C   -0.085878
     2  C    0.008834
     3  N   -0.192452
     4  H    0.090355
     5  H    0.082920
     6  H    0.096221
 Sum of Mulliken charges =   0.00000
 Mulliken charges with hydrogens summed into heavy atoms:
               1
     1  C    0.183618
     2  C    0.008834
     3  N   -0.192452
 Electronic spatial extent (au):  <R**2>=            165.4303
 Charge=              0.0000 electrons
 Dipole moment (field-independent basis, Debye):
    X=             -4.1136    Y=             -0.0276    Z=              0.0087  Tot=              4.1137
 Quadrupole moment (field-independent basis, Debye-Ang):
   XX=            -20.5757   YY=            -17.8594   ZZ=            -18.0497
   XY=             -0.0246   XZ=             -0.0897   YZ=              0.0783
 Traceless Quadrupole moment (field-independent basis, Debye-Ang):
   XX=             -1.7474   YY=              0.9689   ZZ=              0.7785
   XY=             -0.0246   XZ=             -0.0897   YZ=              0.0783
 Octapole moment (field-independent basis, Debye-Ang**2):
  XXX=            -13.8811  YYY=              0.6221  ZZZ=              0.7312  XYY=             -2.1079
  XXY=             -0.0835  XXZ=             -0.3779  XZZ=             -1.6149  YZZ=             -0.5797
  YYZ=             -0.3540  XYZ=             -0.2036
 Hexadecapole moment (field-independent basis, Debye-Ang**3):
 XXXX=           -184.1096 YYYY=            -25.3303 ZZZZ=            -25.4862 XXXY=              0.1509
 XXXZ=              0.8275 YYYX=             -1.0865 YYYZ=              0.2877 ZZZX=             -0.9563
 ZZZY=             -0.0887 XXYY=            -31.2699 XXZZ=            -32.5778 YYZZ=             -8.7245
 XXYZ=              0.6009 YYXZ=              0.7765 ZZXY=              1.0759
 N-N= 5.801451828930D+01 E-N=-4.245325345816D+02  KE= 1.319256352280D+02
 Leave Link  601 at Wed Aug 26 21:43:20 2020, MaxMem=  2097152000 cpu:         0.3
 (Enter /opt/cluster/programs/g09/g09_d.01/g09/l9999.exe)
 1\1\GINC-NODE40\SP\RB2PLYPD3-FC\def2QZVP\C2H3N1\BOITTIER\26-Aug-2020\0
 \\#p B2PLYPD3/Def2QZVP\\cyanomethane\\0,1\C,0,-6.602275,-1.094493,1.16
 9919\C,0,-5.188728,-0.744494,0.902468\N,0,-4.086113,-0.566946,0.704425
 \H,0,-6.838532,-1.429049,2.239773\H,0,-6.828066,-2.082927,0.570941\H,0
 ,-7.399519,-0.436781,0.84778\\Version=ES64L-G09RevD.01\State=1-A\HF=-1
 32.5239349\MP2=-132.7037445\RMSD=6.570e-09\PG=C01 [X(C2H3N1)]\\@


 TRUTH, IN SCIENCE, CAN BE DEFINED AS THE WORKING HYPOTHESIS 
 BEST FITTED TO OPEN THE WAY TO THE NEXT BETTER ONE.

                              -- KONRAD LORENZ
 Job cpu time:       0 days  0 hours  3 minutes 50.3 seconds.
 File lengths (MBytes):  RWF=     28 Int=      0 D2E=      0 Chk=      5 Scr=      1
 Normal termination of Gaussian 09 at Wed Aug 26 21:43:20 2020.
