 Entering Gaussian System, Link 0=/opt/cluster/programs/g09/g09_d.01/g09//g09
 Input=/home/boittier/MDCM/nms_sampling/cyanomethane_geom.xyz.dir/energies/cyanomethane_2501_energy.com
 Output=/scratch/boittier/cyanomethane_2501_energy/cyanomethane_2501_energy.out
 Initial command:
 /opt/cluster/programs/g09/g09_d.01/g09/l1.exe "/scratch/boittier/cyanomethane_2501_energy/Gau-69398.inp" -scrdir="/scratch/boittier/cyanomethane_2501_energy/"
 Entering Link 1 = /opt/cluster/programs/g09/g09_d.01/g09/l1.exe PID=     69399.
  
 Copyright (c) 1988,1990,1992,1993,1995,1998,2003,2009,2013,
            Gaussian, Inc.  All Rights Reserved.
  
 This is part of the Gaussian(R) 09 program.  It is based on
 the Gaussian(R) 03 system (copyright 2003, Gaussian, Inc.),
 the Gaussian(R) 98 system (copyright 1998, Gaussian, Inc.),
 the Gaussian(R) 94 system (copyright 1995, Gaussian, Inc.),
 the Gaussian 92(TM) system (copyright 1992, Gaussian, Inc.),
 the Gaussian 90(TM) system (copyright 1990, Gaussian, Inc.),
 the Gaussian 88(TM) system (copyright 1988, Gaussian, Inc.),
 the Gaussian 86(TM) system (copyright 1986, Carnegie Mellon
 University), and the Gaussian 82(TM) system (copyright 1983,
 Carnegie Mellon University). Gaussian is a federally registered
 trademark of Gaussian, Inc.
  
 This software contains proprietary and confidential information,
 including trade secrets, belonging to Gaussian, Inc.
  
 This software is provided under written license and may be
 used, copied, transmitted, or stored only in accord with that
 written license.
  
 The following legend is applicable only to US Government
 contracts under FAR:
  
                    RESTRICTED RIGHTS LEGEND
  
 Use, reproduction and disclosure by the US Government is
 subject to restrictions as set forth in subparagraphs (a)
 and (c) of the Commercial Computer Software - Restricted
 Rights clause in FAR 52.227-19.
  
 Gaussian, Inc.
 340 Quinnipiac St., Bldg. 40, Wallingford CT 06492
  
  
 ---------------------------------------------------------------
 Warning -- This program may not be used in any manner that
 competes with the business of Gaussian, Inc. or will provide
 assistance to any competitor of Gaussian, Inc.  The licensee
 of this program is prohibited from giving any competitor of
 Gaussian, Inc. access to this program.  By using this program,
 the user acknowledges that Gaussian, Inc. is engaged in the
 business of creating and licensing software in the field of
 computational chemistry and represents and warrants to the
 licensee that it is not a competitor of Gaussian, Inc. and that
 it will not use this program in any manner prohibited above.
 ---------------------------------------------------------------
  

 Cite this work as:
 Gaussian 09, Revision D.01,
 M. J. Frisch, G. W. Trucks, H. B. Schlegel, G. E. Scuseria, 
 M. A. Robb, J. R. Cheeseman, G. Scalmani, V. Barone, B. Mennucci, 
 G. A. Petersson, H. Nakatsuji, M. Caricato, X. Li, H. P. Hratchian, 
 A. F. Izmaylov, J. Bloino, G. Zheng, J. L. Sonnenberg, M. Hada, 
 M. Ehara, K. Toyota, R. Fukuda, J. Hasegawa, M. Ishida, T. Nakajima, 
 Y. Honda, O. Kitao, H. Nakai, T. Vreven, J. A. Montgomery, Jr., 
 J. E. Peralta, F. Ogliaro, M. Bearpark, J. J. Heyd, E. Brothers, 
 K. N. Kudin, V. N. Staroverov, T. Keith, R. Kobayashi, J. Normand, 
 K. Raghavachari, A. Rendell, J. C. Burant, S. S. Iyengar, J. Tomasi, 
 M. Cossi, N. Rega, J. M. Millam, M. Klene, J. E. Knox, J. B. Cross, 
 V. Bakken, C. Adamo, J. Jaramillo, R. Gomperts, R. E. Stratmann, 
 O. Yazyev, A. J. Austin, R. Cammi, C. Pomelli, J. W. Ochterski, 
 R. L. Martin, K. Morokuma, V. G. Zakrzewski, G. A. Voth, 
 P. Salvador, J. J. Dannenberg, S. Dapprich, A. D. Daniels, 
 O. Farkas, J. B. Foresman, J. V. Ortiz, J. Cioslowski, 
 and D. J. Fox, Gaussian, Inc., Wallingford CT, 2013.
 
 ******************************************
 Gaussian 09:  ES64L-G09RevD.01 24-Apr-2013
                26-Aug-2020 
 ******************************************
 %chk=/home/boittier/MDCM/nms_sampling/cyanomethane_geom.xyz.dir/cyanomethane_250
 1.chk
 %nproc=8
 Will use up to    8 processors via shared memory.
 %mem=16000MB
 --------------------
 #p B2PLYPD3/Def2QZVP
 --------------------
 1/38=1/1;
 2/12=2,17=6,18=5,40=1/2;
 3/5=45,7=101,11=9,16=1,25=1,30=1,74=-60/1,2,3;
 4//1;
 5/5=2,38=5/2;
 8/10=1/1;
 9/16=-3/6;
 6/7=2,8=2,9=2,10=2/1;
 99/5=1,9=1/99;
 Leave Link    1 at Wed Aug 26 18:42:31 2020, MaxMem=  2097152000 cpu:         0.2
 (Enter /opt/cluster/programs/g09/g09_d.01/g09/l101.exe)
 ------------
 cyanomethane
 ------------
 Symbolic Z-matrix:
 Charge =  0 Multiplicity = 1
 C                    -6.58739  -1.10312   1.1589 
 C                    -5.20299  -0.86692   0.91806 
 N                    -4.08679  -0.49913   0.70167 
 H                    -6.9209   -1.09089   2.18971 
 H                    -6.88623  -1.97954   0.74609 
 H                    -7.25833  -0.30172   0.75812 
 
 NAtoms=      6 NQM=        6 NQMF=       0 NMMI=      0 NMMIF=      0
                NMic=       0 NMicF=      0.
                    Isotopes and Nuclear Properties:
 (Nuclear quadrupole moments (NQMom) in fm**2, nuclear magnetic moments (NMagM)
  in nuclear magnetons)

  Atom         1           2           3           4           5           6
 IAtWgt=          12          12          14           1           1           1
 AtmWgt=  12.0000000  12.0000000  14.0030740   1.0078250   1.0078250   1.0078250
 NucSpn=           0           0           2           1           1           1
 AtZEff=   0.0000000   0.0000000   0.0000000   0.0000000   0.0000000   0.0000000
 NQMom=    0.0000000   0.0000000   2.0440000   0.0000000   0.0000000   0.0000000
 NMagM=    0.0000000   0.0000000   0.4037610   2.7928460   2.7928460   2.7928460
 AtZNuc=   6.0000000   6.0000000   7.0000000   1.0000000   1.0000000   1.0000000
 Leave Link  101 at Wed Aug 26 18:42:31 2020, MaxMem=  2097152000 cpu:         0.5
 (Enter /opt/cluster/programs/g09/g09_d.01/g09/l202.exe)
                          Input orientation:                          
 ---------------------------------------------------------------------
 Center     Atomic      Atomic             Coordinates (Angstroms)
 Number     Number       Type             X           Y           Z
 ---------------------------------------------------------------------
      1          6           0       -6.587387   -1.103119    1.158897
      2          6           0       -5.202988   -0.866919    0.918061
      3          7           0       -4.086790   -0.499133    0.701671
      4          1           0       -6.920897   -1.090885    2.189712
      5          1           0       -6.886229   -1.979544    0.746088
      6          1           0       -7.258327   -0.301715    0.758120
 ---------------------------------------------------------------------
                    Distance matrix (angstroms):
                    1          2          3          4          5
     1  C    0.000000
     2  C    1.424905   0.000000
     3  N    2.612822   1.194985   0.000000
     4  H    1.083493   2.149062   3.255242   0.000000
     5  H    1.013824   2.025046   3.167088   1.695573   0.000000
     6  H    1.119389   2.137628   3.178177   1.669163   1.718637
                    6
     6  H    0.000000
 Stoichiometry    C2H3N
 Framework group  C1[X(C2H3N)]
 Deg. of freedom    12
 Full point group                 C1      NOp   1
 Largest Abelian subgroup         C1      NOp   1
 Largest concise Abelian subgroup C1      NOp   1
                         Standard orientation:                         
 ---------------------------------------------------------------------
 Center     Atomic      Atomic             Coordinates (Angstroms)
 Number     Number       Type             X           Y           Z
 ---------------------------------------------------------------------
      1          6           0        1.160077    0.006016   -0.003378
      2          6           0       -0.263042    0.074224    0.017455
      3          7           0       -1.452337   -0.040203   -0.004320
      4          1           0        1.660356   -0.208594    0.933437
      5          1           0        1.561598    0.856336   -0.382291
      6          1           0        1.562194   -0.847761   -0.605373
 ---------------------------------------------------------------------
 Rotational constants (GHZ):    168.9228387      9.1783335      9.1459360
 Leave Link  202 at Wed Aug 26 18:42:32 2020, MaxMem=  2097152000 cpu:         0.0
 (Enter /opt/cluster/programs/g09/g09_d.01/g09/l301.exe)
 Standard basis: def2QZVP (5D, 7F)
 Ernie: Thresh=  0.10000D-02 Tol=  0.10000D-05 Strict=F.
 There are   321 symmetry adapted cartesian basis functions of A   symmetry.
 There are   261 symmetry adapted basis functions of A   symmetry.
   261 basis functions,   390 primitive gaussians,   321 cartesian basis functions
    11 alpha electrons       11 beta electrons
       nuclear repulsion energy        58.3141264537 Hartrees.
 IExCor=  419 DFT=T Ex+Corr=B2PLYPD3 ExCW=0 ScaHFX=  0.530000
 ScaDFX=  0.470000  0.470000  0.730000  0.730000 ScalE2=  0.270000  0.270000
 IRadAn=      0 IRanWt=     -1 IRanGd=            0 ICorTp=0 IEmpDi=141
 NAtoms=    6 NActive=    6 NUniq=    6 SFac= 1.00D+00 NAtFMM=   60 NAOKFM=F Big=F
 Integral buffers will be    131072 words long.
 Regular integral format.
 Two-electron integral symmetry is turned on.
 R6Disp:  Grimme-D3(BJ) Dispersion energy=       -0.0020934441 Hartrees.
 Nuclear repulsion after empirical dispersion term =       58.3120330097 Hartrees.
 Leave Link  301 at Wed Aug 26 18:42:32 2020, MaxMem=  2097152000 cpu:         0.4
 (Enter /opt/cluster/programs/g09/g09_d.01/g09/l302.exe)
 NPDir=0 NMtPBC=     1 NCelOv=     1 NCel=       1 NClECP=     1 NCelD=      1
         NCelK=      1 NCelE2=     1 NClLst=     1 CellRange=     0.0.
 One-electron integrals computed using PRISM.
   1 Symmetry operations used in ECPInt.
 ECPInt:  NShTT=    3321 NPrTT=    8136 LenC2=    3290 LenP2D=    7121.
 LDataN:  DoStor=T MaxTD1= 8 Len=  415
 NBasis=   261 RedAO= T EigKep=  7.82D-05  NBF=   261
 NBsUse=   261 1.00D-06 EigRej= -1.00D+00 NBFU=   261
 Precomputing XC quadrature grid using
 IXCGrd= 4 IRadAn=           0 IRanWt=          -1 IRanGd=           0 AccXCQ= 0.00D+00.
 Generated NRdTot=       0 NPtTot=           0 NUsed=           0 NTot=          32
 NSgBfM=   321   321   321   321   321 MxSgAt=     6 MxSgA2=     6.
 Leave Link  302 at Wed Aug 26 18:42:32 2020, MaxMem=  2097152000 cpu:         1.9
 (Enter /opt/cluster/programs/g09/g09_d.01/g09/l303.exe)
 DipDrv:  MaxL=1.
 Leave Link  303 at Wed Aug 26 18:42:32 2020, MaxMem=  2097152000 cpu:         0.2
 (Enter /opt/cluster/programs/g09/g09_d.01/g09/l401.exe)
 ExpMin= 7.60D-02 ExpMax= 9.07D+04 ExpMxC= 8.76D+02 IAcc=2 IRadAn=         4 AccDes= 0.00D+00
 Harris functional with IExCor=  419 and IRadAn=       4 diagonalized for initial guess.
 HarFok:  IExCor=  419 AccDes= 0.00D+00 IRadAn=         4 IDoV= 1 UseB2=F ITyADJ=14
 ICtDFT=  3500011 ScaDFX=  1.000000  1.000000  1.000000  1.000000
 FoFCou: FMM=F IPFlag=           0 FMFlag=      100000 FMFlg1=           0
         NFxFlg=           0 DoJE=T BraDBF=F KetDBF=T FulRan=T
         wScrn=  0.000000 ICntrl=     500 IOpCl=  0 I1Cent=   200000004 NGrid=           0
         NMat0=    1 NMatS0=      1 NMatT0=    0 NMatD0=    1 NMtDS0=    0 NMtDT0=    0
 Petite list used in FoFCou.
 Harris En= -132.839026351816    
 JPrj=0 DoOrth=F DoCkMO=F.
 Leave Link  401 at Wed Aug 26 18:42:33 2020, MaxMem=  2097152000 cpu:         3.7
 (Enter /opt/cluster/programs/g09/g09_d.01/g09/l502.exe)
 Closed shell SCF:
 Using DIIS extrapolation, IDIIS=  1040.
 Integral symmetry usage will be decided dynamically.
 Keep R1 ints in memory in canonical form, NReq=601554820.
 IVT=      332521 IEndB=      332521 NGot=  2097152000 MDV=  1512290144
 LenX=  1512290144 LenY=  1512186662
 Requested convergence on RMS density matrix=1.00D-08 within 128 cycles.
 Requested convergence on MAX density matrix=1.00D-06.
 Requested convergence on             energy=1.00D-06.
 No special actions if energy rises.
 FoFCou: FMM=F IPFlag=           0 FMFlag=           0 FMFlg1=           0
         NFxFlg=           0 DoJE=F BraDBF=F KetDBF=F FulRan=T
         wScrn=  0.000000 ICntrl=     600 IOpCl=  0 I1Cent=           0 NGrid=           0
         NMat0=    1 NMatS0=  34191 NMatT0=    0 NMatD0=    1 NMtDS0=    0 NMtDT0=    0
 Symmetry not used in FoFCou.
 Integral accuracy reduced to 1.0D-05 until final iterations.

 Cycle   1  Pass 0  IDiag  1:
 E= -132.408904007359    
 DIIS: error= 2.99D-02 at cycle   1 NSaved=   1.
 NSaved= 1 IEnMin= 1 EnMin= -132.408904007359     IErMin= 1 ErrMin= 2.99D-02
 ErrMax= 2.99D-02  0.00D+00 EMaxC= 1.00D-01 BMatC= 1.84D-01 BMatP= 1.84D-01
 IDIUse=3 WtCom= 7.01D-01 WtEn= 2.99D-01
 Coeff-Com:  0.100D+01
 Coeff-En:   0.100D+01
 Coeff:      0.100D+01
 Gap=     0.426 Goal=   None    Shift=    0.000
 GapD=    0.426 DampG=2.000 DampE=0.500 DampFc=1.0000 IDamp=-1.
 RMSDP=1.18D-03 MaxDP=5.47D-02              OVMax= 1.57D-01

 Cycle   2  Pass 0  IDiag  1:
 E= -132.444519587899     Delta-E=       -0.035615580540 Rises=F Damp=F
 DIIS: error= 2.97D-02 at cycle   2 NSaved=   2.
 NSaved= 2 IEnMin= 2 EnMin= -132.444519587899     IErMin= 2 ErrMin= 2.97D-02
 ErrMax= 2.97D-02  0.00D+00 EMaxC= 1.00D-01 BMatC= 8.80D-02 BMatP= 1.84D-01
 IDIUse=3 WtCom= 7.03D-01 WtEn= 2.97D-01
 Coeff-Com:  0.390D+00 0.610D+00
 Coeff-En:   0.383D+00 0.617D+00
 Coeff:      0.388D+00 0.612D+00
 Gap=     0.425 Goal=   None    Shift=    0.000
 RMSDP=7.99D-04 MaxDP=3.04D-02 DE=-3.56D-02 OVMax= 1.22D-01

 Cycle   3  Pass 0  IDiag  1:
 E= -132.501265519060     Delta-E=       -0.056745931161 Rises=F Damp=F
 DIIS: error= 1.51D-02 at cycle   3 NSaved=   3.
 NSaved= 3 IEnMin= 3 EnMin= -132.501265519060     IErMin= 3 ErrMin= 1.51D-02
 ErrMax= 1.51D-02  0.00D+00 EMaxC= 1.00D-01 BMatC= 2.24D-02 BMatP= 8.80D-02
 IDIUse=3 WtCom= 8.49D-01 WtEn= 1.51D-01
 Coeff-Com:  0.105D+00 0.345D+00 0.550D+00
 Coeff-En:   0.000D+00 0.169D+00 0.831D+00
 Coeff:      0.887D-01 0.318D+00 0.593D+00
 Gap=     0.411 Goal=   None    Shift=    0.000
 RMSDP=2.90D-04 MaxDP=1.06D-02 DE=-5.67D-02 OVMax= 6.54D-02

 Cycle   4  Pass 0  IDiag  1:
 E= -132.516527416481     Delta-E=       -0.015261897421 Rises=F Damp=F
 DIIS: error= 5.78D-03 at cycle   4 NSaved=   4.
 NSaved= 4 IEnMin= 4 EnMin= -132.516527416481     IErMin= 4 ErrMin= 5.78D-03
 ErrMax= 5.78D-03  0.00D+00 EMaxC= 1.00D-01 BMatC= 3.80D-03 BMatP= 2.24D-02
 IDIUse=3 WtCom= 9.42D-01 WtEn= 5.78D-02
 Coeff-Com: -0.127D-01 0.626D-01 0.336D+00 0.614D+00
 Coeff-En:   0.000D+00 0.000D+00 0.169D+00 0.831D+00
 Coeff:     -0.120D-01 0.590D-01 0.326D+00 0.627D+00
 Gap=     0.414 Goal=   None    Shift=    0.000
 RMSDP=1.00D-04 MaxDP=2.96D-03 DE=-1.53D-02 OVMax= 1.82D-02

 Cycle   5  Pass 0  IDiag  1:
 E= -132.519836875080     Delta-E=       -0.003309458599 Rises=F Damp=F
 DIIS: error= 3.69D-04 at cycle   5 NSaved=   5.
 NSaved= 5 IEnMin= 5 EnMin= -132.519836875080     IErMin= 5 ErrMin= 3.69D-04
 ErrMax= 3.69D-04  0.00D+00 EMaxC= 1.00D-01 BMatC= 1.56D-05 BMatP= 3.80D-03
 IDIUse=3 WtCom= 9.96D-01 WtEn= 3.69D-03
 Coeff-Com: -0.330D-02 0.519D-02 0.413D-01 0.125D+00 0.832D+00
 Coeff-En:   0.000D+00 0.000D+00 0.000D+00 0.000D+00 0.100D+01
 Coeff:     -0.329D-02 0.517D-02 0.411D-01 0.125D+00 0.832D+00
 Gap=     0.413 Goal=   None    Shift=    0.000
 RMSDP=8.30D-06 MaxDP=2.90D-04 DE=-3.31D-03 OVMax= 1.36D-03

 Initial convergence to 1.0D-05 achieved.  Increase integral accuracy.
 Cycle   6  Pass 1  IDiag  1:
 E= -132.519846385543     Delta-E=       -0.000009510463 Rises=F Damp=F
 DIIS: error= 8.84D-05 at cycle   1 NSaved=   1.
 NSaved= 1 IEnMin= 1 EnMin= -132.519846385543     IErMin= 1 ErrMin= 8.84D-05
 ErrMax= 8.84D-05  0.00D+00 EMaxC= 1.00D-01 BMatC= 5.86D-07 BMatP= 5.86D-07
 IDIUse=1 WtCom= 1.00D+00 WtEn= 0.00D+00
 Coeff-Com:  0.100D+01
 Coeff:      0.100D+01
 Gap=     0.413 Goal=   None    Shift=    0.000
 RMSDP=8.30D-06 MaxDP=2.90D-04 DE=-9.51D-06 OVMax= 3.93D-04

 Cycle   7  Pass 1  IDiag  1:
 E= -132.519846749961     Delta-E=       -0.000000364417 Rises=F Damp=F
 DIIS: error= 4.74D-05 at cycle   2 NSaved=   2.
 NSaved= 2 IEnMin= 2 EnMin= -132.519846749961     IErMin= 2 ErrMin= 4.74D-05
 ErrMax= 4.74D-05  0.00D+00 EMaxC= 1.00D-01 BMatC= 2.52D-07 BMatP= 5.86D-07
 IDIUse=1 WtCom= 1.00D+00 WtEn= 0.00D+00
 Coeff-Com:  0.385D+00 0.615D+00
 Coeff:      0.385D+00 0.615D+00
 Gap=     0.413 Goal=   None    Shift=    0.000
 RMSDP=9.96D-07 MaxDP=3.66D-05 DE=-3.64D-07 OVMax= 1.95D-04

 Cycle   8  Pass 1  IDiag  1:
 E= -132.519846960378     Delta-E=       -0.000000210418 Rises=F Damp=F
 DIIS: error= 1.80D-05 at cycle   3 NSaved=   3.
 NSaved= 3 IEnMin= 3 EnMin= -132.519846960378     IErMin= 3 ErrMin= 1.80D-05
 ErrMax= 1.80D-05  0.00D+00 EMaxC= 1.00D-01 BMatC= 3.39D-08 BMatP= 2.52D-07
 IDIUse=1 WtCom= 1.00D+00 WtEn= 0.00D+00
 Coeff-Com:  0.134D+00 0.312D+00 0.554D+00
 Coeff:      0.134D+00 0.312D+00 0.554D+00
 Gap=     0.413 Goal=   None    Shift=    0.000
 RMSDP=5.45D-07 MaxDP=2.40D-05 DE=-2.10D-07 OVMax= 7.20D-05

 Cycle   9  Pass 1  IDiag  1:
 E= -132.519846984258     Delta-E=       -0.000000023880 Rises=F Damp=F
 DIIS: error= 8.78D-06 at cycle   4 NSaved=   4.
 NSaved= 4 IEnMin= 4 EnMin= -132.519846984258     IErMin= 4 ErrMin= 8.78D-06
 ErrMax= 8.78D-06  0.00D+00 EMaxC= 1.00D-01 BMatC= 6.10D-09 BMatP= 3.39D-08
 IDIUse=1 WtCom= 1.00D+00 WtEn= 0.00D+00
 Coeff-Com: -0.629D-01-0.308D-01 0.313D+00 0.781D+00
 Coeff:     -0.629D-01-0.308D-01 0.313D+00 0.781D+00
 Gap=     0.413 Goal=   None    Shift=    0.000
 RMSDP=3.19D-07 MaxDP=1.32D-05 DE=-2.39D-08 OVMax= 3.47D-05

 Cycle  10  Pass 1  IDiag  1:
 E= -132.519846990618     Delta-E=       -0.000000006360 Rises=F Damp=F
 DIIS: error= 8.37D-07 at cycle   5 NSaved=   5.
 NSaved= 5 IEnMin= 5 EnMin= -132.519846990618     IErMin= 5 ErrMin= 8.37D-07
 ErrMax= 8.37D-07  0.00D+00 EMaxC= 1.00D-01 BMatC= 9.40D-11 BMatP= 6.10D-09
 IDIUse=1 WtCom= 1.00D+00 WtEn= 0.00D+00
 Coeff-Com: -0.188D-01-0.184D-01 0.386D-01 0.178D+00 0.821D+00
 Coeff:     -0.188D-01-0.184D-01 0.386D-01 0.178D+00 0.821D+00
 Gap=     0.413 Goal=   None    Shift=    0.000
 RMSDP=4.07D-08 MaxDP=1.69D-06 DE=-6.36D-09 OVMax= 3.78D-06

 Cycle  11  Pass 1  IDiag  1:
 E= -132.519846990722     Delta-E=       -0.000000000104 Rises=F Damp=F
 DIIS: error= 3.51D-07 at cycle   6 NSaved=   6.
 NSaved= 6 IEnMin= 6 EnMin= -132.519846990722     IErMin= 6 ErrMin= 3.51D-07
 ErrMax= 3.51D-07  0.00D+00 EMaxC= 1.00D-01 BMatC= 9.26D-12 BMatP= 9.40D-11
 IDIUse=1 WtCom= 1.00D+00 WtEn= 0.00D+00
 Coeff-Com:  0.317D-02 0.219D-05-0.291D-01-0.391D-01 0.173D+00 0.892D+00
 Coeff:      0.317D-02 0.219D-05-0.291D-01-0.391D-01 0.173D+00 0.892D+00
 Gap=     0.413 Goal=   None    Shift=    0.000
 RMSDP=1.06D-08 MaxDP=3.23D-07 DE=-1.04D-10 OVMax= 1.84D-06

 Cycle  12  Pass 1  IDiag  1:
 E= -132.519846990743     Delta-E=       -0.000000000020 Rises=F Damp=F
 DIIS: error= 1.16D-07 at cycle   7 NSaved=   7.
 NSaved= 7 IEnMin= 7 EnMin= -132.519846990743     IErMin= 7 ErrMin= 1.16D-07
 ErrMax= 1.16D-07  0.00D+00 EMaxC= 1.00D-01 BMatC= 5.78D-13 BMatP= 9.26D-12
 IDIUse=1 WtCom= 1.00D+00 WtEn= 0.00D+00
 Coeff-Com:  0.133D-02 0.150D-02-0.182D-02-0.104D-01-0.725D-01-0.734D-01
 Coeff-Com:  0.116D+01
 Coeff:      0.133D-02 0.150D-02-0.182D-02-0.104D-01-0.725D-01-0.734D-01
 Coeff:      0.116D+01
 Gap=     0.413 Goal=   None    Shift=    0.000
 RMSDP=4.50D-09 MaxDP=1.22D-07 DE=-2.01D-11 OVMax= 1.08D-06

 SCF Done:  E(RB2PLYPD3) =  -132.519846991     A.U. after   12 cycles
            NFock= 12  Conv=0.45D-08     -V/T= 2.0040
 KE= 1.319917006438D+02 PE=-4.251014293423D+02 EE= 1.022778486982D+02
 Leave Link  502 at Wed Aug 26 18:42:54 2020, MaxMem=  2097152000 cpu:        97.9
 (Enter /opt/cluster/programs/g09/g09_d.01/g09/l801.exe)
 DoSCS=T DFT=T ScalE2(SS,OS)=  0.270000  0.270000
 ExpMin= 7.60D-02 ExpMax= 9.07D+04 ExpMxC= 8.76D+02 IAcc=3 IRadAn=         5 AccDes= 0.00D+00
 HarFok:  IExCor=  205 AccDes= 0.00D+00 IRadAn=         5 IDoV=-2 UseB2=F ITyADJ=14
 ICtDFT= 12500011 ScaDFX=  1.000000  1.000000  1.000000  1.000000
 Largest valence mixing into a core orbital is  1.19D-04
 Largest core mixing into a valence orbital is  2.11D-05
 Range of M.O.s used for correlation:     4   261
 NBasis=   261 NAE=    11 NBE=    11 NFC=     3 NFV=     0
 NROrb=    258 NOA=     8 NOB=     8 NVA=   250 NVB=   250

 **** Warning!!: The largest alpha MO coefficient is  0.30238863D+02

 Leave Link  801 at Wed Aug 26 18:42:54 2020, MaxMem=  2097152000 cpu:         0.6
 (Enter /opt/cluster/programs/g09/g09_d.01/g09/l906.exe)
 DoSCS=T DFT=T ScalE2(SS,OS)=  0.270000  0.270000
 FulOut=F Deriv=F AODrv=F NAtomX=     6
   MMem=        2666  MDisk=           8 MDiskD=           8
  W3Min=      642000 MinDsk=     1426009 NBas6D=         321
 NBas2D=       52689    NTT=       51681    LW2=     4508827
    MDV=  2096809813 MDiskM=       14501 NBas2p=       52041
 Fully direct method using O(OVN) memory.
 IMap=   1   2   3   4   5   6   7   8
 JobTyp=1 Pass  1:  I=   1 to   8 NPSUse=  8 ParTrn=T ParDer=T DoDerP=F.
 Spin components of T(2) and E(2):
     alpha-alpha T2 =       0.3832458540D-01 E2=     -0.2207440225D-01
     alpha-beta  T2 =       0.2207357925D+00 E2=     -0.1401647896D+00
     beta-beta   T2 =       0.3832458540D-01 E2=     -0.2207440225D-01
 The integrals were generated   1 times.
 E2(B2PLYPD3) =    -0.1843135941D+00 E(B2PLYPD3) =    -0.13270416058488D+03
 Leave Link  906 at Wed Aug 26 18:43:07 2020, MaxMem=  2097152000 cpu:       100.4
 (Enter /opt/cluster/programs/g09/g09_d.01/g09/l601.exe)
 Copying SCF densities to generalized density rwf, IOpCl= 0 IROHF=0.

 **********************************************************************

            Population analysis using the SCF density.

 **********************************************************************

 Orbital symmetries:
       Occupied  (A) (A) (A) (A) (A) (A) (A) (A) (A) (A) (A)
       Virtual   (A) (A) (A) (A) (A) (A) (A) (A) (A) (A) (A) (A)
                 (A) (A) (A) (A) (A) (A) (A) (A) (A) (A) (A) (A)
                 (A) (A) (A) (A) (A) (A) (A) (A) (A) (A) (A) (A)
                 (A) (A) (A) (A) (A) (A) (A) (A) (A) (A) (A) (A)
                 (A) (A) (A) (A) (A) (A) (A) (A) (A) (A) (A) (A)
                 (A) (A) (A) (A) (A) (A) (A) (A) (A) (A) (A) (A)
                 (A) (A) (A) (A) (A) (A) (A) (A) (A) (A) (A) (A)
                 (A) (A) (A) (A) (A) (A) (A) (A) (A) (A) (A) (A)
                 (A) (A) (A) (A) (A) (A) (A) (A) (A) (A) (A) (A)
                 (A) (A) (A) (A) (A) (A) (A) (A) (A) (A) (A) (A)
                 (A) (A) (A) (A) (A) (A) (A) (A) (A) (A) (A) (A)
                 (A) (A) (A) (A) (A) (A) (A) (A) (A) (A) (A) (A)
                 (A) (A) (A) (A) (A) (A) (A) (A) (A) (A) (A) (A)
                 (A) (A) (A) (A) (A) (A) (A) (A) (A) (A) (A) (A)
                 (A) (A) (A) (A) (A) (A) (A) (A) (A) (A) (A) (A)
                 (A) (A) (A) (A) (A) (A) (A) (A) (A) (A) (A) (A)
                 (A) (A) (A) (A) (A) (A) (A) (A) (A) (A) (A) (A)
                 (A) (A) (A) (A) (A) (A) (A) (A) (A) (A) (A) (A)
                 (A) (A) (A) (A) (A) (A) (A) (A) (A) (A) (A) (A)
                 (A) (A) (A) (A) (A) (A) (A) (A) (A) (A) (A) (A)
                 (A) (A) (A) (A) (A) (A) (A) (A) (A) (A)
 The electronic state is 1-A.
 Alpha  occ. eigenvalues --  -14.85569 -10.67569 -10.66297  -1.02821  -0.90162
 Alpha  occ. eigenvalues --   -0.62214  -0.55459  -0.52055  -0.45255  -0.38354
 Alpha  occ. eigenvalues --   -0.37915
 Alpha virt. eigenvalues --    0.03396   0.06222   0.07448   0.09891   0.10953
 Alpha virt. eigenvalues --    0.11696   0.15648   0.16528   0.17003   0.20065
 Alpha virt. eigenvalues --    0.20465   0.26165   0.32830   0.33898   0.35400
 Alpha virt. eigenvalues --    0.39046   0.39383   0.40226   0.41187   0.48410
 Alpha virt. eigenvalues --    0.48646   0.52694   0.56406   0.60176   0.62182
 Alpha virt. eigenvalues --    0.67521   0.69111   0.69567   0.71334   0.78568
 Alpha virt. eigenvalues --    0.79407   0.81955   0.83246   0.84765   0.86258
 Alpha virt. eigenvalues --    0.88949   0.91763   0.94156   0.95589   0.98362
 Alpha virt. eigenvalues --    1.05452   1.08754   1.09982   1.11801   1.13276
 Alpha virt. eigenvalues --    1.15394   1.20297   1.22230   1.24927   1.34269
 Alpha virt. eigenvalues --    1.34787   1.43380   1.45783   1.54201   1.57416
 Alpha virt. eigenvalues --    1.63714   1.67180   1.71036   1.75540   1.76173
 Alpha virt. eigenvalues --    1.77429   1.78752   1.87705   1.89574   1.90733
 Alpha virt. eigenvalues --    1.93798   1.99284   2.00553   2.02158   2.03162
 Alpha virt. eigenvalues --    2.06443   2.12504   2.16968   2.19252   2.23196
 Alpha virt. eigenvalues --    2.25374   2.26399   2.30066   2.31053   2.36171
 Alpha virt. eigenvalues --    2.43701   2.48492   2.52779   2.53300   2.56464
 Alpha virt. eigenvalues --    2.60829   2.64790   2.66581   2.69196   2.71455
 Alpha virt. eigenvalues --    2.74903   2.77030   2.84155   2.88710   2.92761
 Alpha virt. eigenvalues --    2.94647   2.98595   3.01464   3.03424   3.11224
 Alpha virt. eigenvalues --    3.12649   3.16957   3.21405   3.23717   3.29810
 Alpha virt. eigenvalues --    3.36881   3.41135   3.42861   3.47049   3.49080
 Alpha virt. eigenvalues --    3.55005   3.57816   3.69164   3.71421   3.76846
 Alpha virt. eigenvalues --    3.87766   3.93694   3.95547   4.01225   4.02948
 Alpha virt. eigenvalues --    4.04655   4.05869   4.09761   4.20849   4.23509
 Alpha virt. eigenvalues --    4.53282   4.90656   4.90911   5.01064   5.02407
 Alpha virt. eigenvalues --    5.06644   5.12204   5.14383   5.25827   5.29510
 Alpha virt. eigenvalues --    5.38543   5.42683   5.47607   5.48611   5.61896
 Alpha virt. eigenvalues --    5.65083   5.82884   5.84112   5.86302   5.94372
 Alpha virt. eigenvalues --    5.95781   5.98618   6.00153   6.02364   6.03106
 Alpha virt. eigenvalues --    6.07698   6.09072   6.10492   6.11120   6.14441
 Alpha virt. eigenvalues --    6.17191   6.19842   6.24360   6.31999   6.39192
 Alpha virt. eigenvalues --    6.43286   6.49992   6.55504   6.63242   6.64158
 Alpha virt. eigenvalues --    6.67664   6.68351   6.84141   6.87457   6.91686
 Alpha virt. eigenvalues --    6.95665   7.01602   7.01696   7.06157   7.08112
 Alpha virt. eigenvalues --    7.16405   7.17382   7.22666   7.43365   7.46378
 Alpha virt. eigenvalues --    7.57611   7.59607   7.61923   7.63805   7.70122
 Alpha virt. eigenvalues --    7.71744   7.73364   7.81683   7.82107   7.87004
 Alpha virt. eigenvalues --    7.92523   7.95367   8.03340   8.06719   8.18755
 Alpha virt. eigenvalues --    8.19800   8.38872   8.42107   8.43296   8.45506
 Alpha virt. eigenvalues --    8.48943   8.50881   8.54448   8.54816   8.59146
 Alpha virt. eigenvalues --    8.64415   8.65408   8.66278   8.67293   8.72107
 Alpha virt. eigenvalues --    8.73625   8.77225   8.97203   8.99000   9.00961
 Alpha virt. eigenvalues --    9.03147   9.05543   9.10174   9.21366   9.24409
 Alpha virt. eigenvalues --    9.30990   9.32227   9.59180   9.66181   9.76040
 Alpha virt. eigenvalues --    9.84732   9.88727  10.06776  10.10553  10.13086
 Alpha virt. eigenvalues --   10.26989  10.29948  10.37856  10.46943  10.52397
 Alpha virt. eigenvalues --   10.80155  10.88657  11.31208  11.49999  11.73178
 Alpha virt. eigenvalues --   11.85164  12.08504  13.09037  13.43588  29.18901
 Alpha virt. eigenvalues --   29.65119  38.19009 148.84358 149.27868 198.08808
          Condensed to atoms (all electrons):
               1          2          3          4          5          6
     1  C    4.577362   0.299874  -0.060296   0.409174   0.411384   0.413871
     2  C    0.299874   4.856170   0.957817  -0.036317  -0.044484  -0.045144
     3  N   -0.060296   0.957817   6.327170  -0.001252   0.000401  -0.002850
     4  H    0.409174  -0.036317  -0.001252   0.617366  -0.035491  -0.037192
     5  H    0.411384  -0.044484   0.000401  -0.035491   0.607715  -0.032242
     6  H    0.413871  -0.045144  -0.002850  -0.037192  -0.032242   0.619714
 Mulliken charges:
               1
     1  C   -0.051369
     2  C    0.012084
     3  N   -0.220990
     4  H    0.083713
     5  H    0.092718
     6  H    0.083844
 Sum of Mulliken charges =   0.00000
 Mulliken charges with hydrogens summed into heavy atoms:
               1
     1  C    0.208906
     2  C    0.012084
     3  N   -0.220990
 Electronic spatial extent (au):  <R**2>=            162.7508
 Charge=              0.0000 electrons
 Dipole moment (field-independent basis, Debye):
    X=              4.1929    Y=              0.0224    Z=              0.0068  Tot=              4.1930
 Quadrupole moment (field-independent basis, Debye-Ang):
   XX=            -20.5050   YY=            -17.8504   ZZ=            -18.1217
   XY=             -0.2775   XZ=              0.0513   YZ=             -0.0964
 Traceless Quadrupole moment (field-independent basis, Debye-Ang):
   XX=             -1.6793   YY=              0.9753   ZZ=              0.7040
   XY=             -0.2775   XZ=              0.0513   YZ=             -0.0964
 Octapole moment (field-independent basis, Debye-Ang**2):
  XXX=             14.3214  YYY=              0.0663  ZZZ=              0.4508  XYY=              2.4277
  XXY=             -0.3938  XXZ=              0.2478  XZZ=              2.1319  YZZ=             -0.3116
  YYZ=             -0.6321  XYZ=             -0.1525
 Hexadecapole moment (field-independent basis, Debye-Ang**3):
 XXXX=           -180.3071 YYYY=            -24.8485 ZZZZ=            -24.9767 XXXY=             -1.0404
 XXXZ=              0.6159 YYYX=              0.4428 YYYZ=             -0.0462 ZZZX=              1.0312
 ZZZY=             -0.2885 XXYY=            -31.3558 XXZZ=            -31.5869 YYZZ=             -8.1850
 XXYZ=             -0.3343 YYXZ=             -1.0505 ZZXY=             -0.4653
 N-N= 5.831203300968D+01 E-N=-4.251014315804D+02  KE= 1.319917006438D+02
 Leave Link  601 at Wed Aug 26 18:43:09 2020, MaxMem=  2097152000 cpu:         0.4
 (Enter /opt/cluster/programs/g09/g09_d.01/g09/l9999.exe)
 1\1\GINC-NODE25\SP\RB2PLYPD3-FC\def2QZVP\C2H3N1\BOITTIER\26-Aug-2020\0
 \\#p B2PLYPD3/Def2QZVP\\cyanomethane\\0,1\C,0,-6.587387,-1.103119,1.15
 8897\C,0,-5.202988,-0.866919,0.918061\N,0,-4.08679,-0.499133,0.701671\
 H,0,-6.920897,-1.090885,2.189712\H,0,-6.886229,-1.979544,0.746088\H,0,
 -7.258327,-0.301715,0.75812\\Version=ES64L-G09RevD.01\State=1-A\HF=-13
 2.519847\MP2=-132.7041606\RMSD=4.500e-09\PG=C01 [X(C2H3N1)]\\@


 WOE UNTO THEM THAT CALL EVIL GOOD, AND GOOD EVIL      
 Job cpu time:       0 days  0 hours  3 minutes 26.6 seconds.
 File lengths (MBytes):  RWF=     28 Int=      0 D2E=      0 Chk=      5 Scr=      1
 Normal termination of Gaussian 09 at Wed Aug 26 18:43:09 2020.
