 Entering Gaussian System, Link 0=/opt/cluster/programs/g09/g09_d.01/g09//g09
 Input=/home/boittier/MDCM/nms_sampling/cyanomethane_geom.xyz.dir/energies/cyanomethane_1035_energy.com
 Output=/scratch/boittier/cyanomethane_1035_energy/cyanomethane_1035_energy.out
 Initial command:
 /opt/cluster/programs/g09/g09_d.01/g09/l1.exe "/scratch/boittier/cyanomethane_1035_energy/Gau-86425.inp" -scrdir="/scratch/boittier/cyanomethane_1035_energy/"
 Entering Link 1 = /opt/cluster/programs/g09/g09_d.01/g09/l1.exe PID=     86426.
  
 Copyright (c) 1988,1990,1992,1993,1995,1998,2003,2009,2013,
            Gaussian, Inc.  All Rights Reserved.
  
 This is part of the Gaussian(R) 09 program.  It is based on
 the Gaussian(R) 03 system (copyright 2003, Gaussian, Inc.),
 the Gaussian(R) 98 system (copyright 1998, Gaussian, Inc.),
 the Gaussian(R) 94 system (copyright 1995, Gaussian, Inc.),
 the Gaussian 92(TM) system (copyright 1992, Gaussian, Inc.),
 the Gaussian 90(TM) system (copyright 1990, Gaussian, Inc.),
 the Gaussian 88(TM) system (copyright 1988, Gaussian, Inc.),
 the Gaussian 86(TM) system (copyright 1986, Carnegie Mellon
 University), and the Gaussian 82(TM) system (copyright 1983,
 Carnegie Mellon University). Gaussian is a federally registered
 trademark of Gaussian, Inc.
  
 This software contains proprietary and confidential information,
 including trade secrets, belonging to Gaussian, Inc.
  
 This software is provided under written license and may be
 used, copied, transmitted, or stored only in accord with that
 written license.
  
 The following legend is applicable only to US Government
 contracts under FAR:
  
                    RESTRICTED RIGHTS LEGEND
  
 Use, reproduction and disclosure by the US Government is
 subject to restrictions as set forth in subparagraphs (a)
 and (c) of the Commercial Computer Software - Restricted
 Rights clause in FAR 52.227-19.
  
 Gaussian, Inc.
 340 Quinnipiac St., Bldg. 40, Wallingford CT 06492
  
  
 ---------------------------------------------------------------
 Warning -- This program may not be used in any manner that
 competes with the business of Gaussian, Inc. or will provide
 assistance to any competitor of Gaussian, Inc.  The licensee
 of this program is prohibited from giving any competitor of
 Gaussian, Inc. access to this program.  By using this program,
 the user acknowledges that Gaussian, Inc. is engaged in the
 business of creating and licensing software in the field of
 computational chemistry and represents and warrants to the
 licensee that it is not a competitor of Gaussian, Inc. and that
 it will not use this program in any manner prohibited above.
 ---------------------------------------------------------------
  

 Cite this work as:
 Gaussian 09, Revision D.01,
 M. J. Frisch, G. W. Trucks, H. B. Schlegel, G. E. Scuseria, 
 M. A. Robb, J. R. Cheeseman, G. Scalmani, V. Barone, B. Mennucci, 
 G. A. Petersson, H. Nakatsuji, M. Caricato, X. Li, H. P. Hratchian, 
 A. F. Izmaylov, J. Bloino, G. Zheng, J. L. Sonnenberg, M. Hada, 
 M. Ehara, K. Toyota, R. Fukuda, J. Hasegawa, M. Ishida, T. Nakajima, 
 Y. Honda, O. Kitao, H. Nakai, T. Vreven, J. A. Montgomery, Jr., 
 J. E. Peralta, F. Ogliaro, M. Bearpark, J. J. Heyd, E. Brothers, 
 K. N. Kudin, V. N. Staroverov, T. Keith, R. Kobayashi, J. Normand, 
 K. Raghavachari, A. Rendell, J. C. Burant, S. S. Iyengar, J. Tomasi, 
 M. Cossi, N. Rega, J. M. Millam, M. Klene, J. E. Knox, J. B. Cross, 
 V. Bakken, C. Adamo, J. Jaramillo, R. Gomperts, R. E. Stratmann, 
 O. Yazyev, A. J. Austin, R. Cammi, C. Pomelli, J. W. Ochterski, 
 R. L. Martin, K. Morokuma, V. G. Zakrzewski, G. A. Voth, 
 P. Salvador, J. J. Dannenberg, S. Dapprich, A. D. Daniels, 
 O. Farkas, J. B. Foresman, J. V. Ortiz, J. Cioslowski, 
 and D. J. Fox, Gaussian, Inc., Wallingford CT, 2013.
 
 ******************************************
 Gaussian 09:  ES64L-G09RevD.01 24-Apr-2013
                26-Aug-2020 
 ******************************************
 %chk=/home/boittier/MDCM/nms_sampling/cyanomethane_geom.xyz.dir/cyanomethane_103
 5.chk
 %nproc=8
 Will use up to    8 processors via shared memory.
 %mem=16000MB
 --------------------
 #p B2PLYPD3/Def2QZVP
 --------------------
 1/38=1/1;
 2/12=2,17=6,18=5,40=1/2;
 3/5=45,7=101,11=9,16=1,25=1,30=1,74=-60/1,2,3;
 4//1;
 5/5=2,38=5/2;
 8/10=1/1;
 9/16=-3/6;
 6/7=2,8=2,9=2,10=2/1;
 99/5=1,9=1/99;
 Leave Link    1 at Wed Aug 26 09:39:18 2020, MaxMem=  2097152000 cpu:         0.2
 (Enter /opt/cluster/programs/g09/g09_d.01/g09/l101.exe)
 ------------
 cyanomethane
 ------------
 Symbolic Z-matrix:
 Charge =  0 Multiplicity = 1
 C                    -6.6048   -1.11798   1.16769 
 C                    -5.20102  -0.78443   0.92339 
 N                    -4.09102  -0.5405    0.69245 
 H                    -6.7069   -1.21763   2.2315 
 H                    -6.8714   -2.06824   0.64331 
 H                    -7.23983  -0.29534   0.75481 
 
 NAtoms=      6 NQM=        6 NQMF=       0 NMMI=      0 NMMIF=      0
                NMic=       0 NMicF=      0.
                    Isotopes and Nuclear Properties:
 (Nuclear quadrupole moments (NQMom) in fm**2, nuclear magnetic moments (NMagM)
  in nuclear magnetons)

  Atom         1           2           3           4           5           6
 IAtWgt=          12          12          14           1           1           1
 AtmWgt=  12.0000000  12.0000000  14.0030740   1.0078250   1.0078250   1.0078250
 NucSpn=           0           0           2           1           1           1
 AtZEff=   0.0000000   0.0000000   0.0000000   0.0000000   0.0000000   0.0000000
 NQMom=    0.0000000   0.0000000   2.0440000   0.0000000   0.0000000   0.0000000
 NMagM=    0.0000000   0.0000000   0.4037610   2.7928460   2.7928460   2.7928460
 AtZNuc=   6.0000000   6.0000000   7.0000000   1.0000000   1.0000000   1.0000000
 Leave Link  101 at Wed Aug 26 09:39:18 2020, MaxMem=  2097152000 cpu:         0.5
 (Enter /opt/cluster/programs/g09/g09_d.01/g09/l202.exe)
                          Input orientation:                          
 ---------------------------------------------------------------------
 Center     Atomic      Atomic             Coordinates (Angstroms)
 Number     Number       Type             X           Y           Z
 ---------------------------------------------------------------------
      1          6           0       -6.604796   -1.117983    1.167690
      2          6           0       -5.201023   -0.784426    0.923386
      3          7           0       -4.091017   -0.540495    0.692454
      4          1           0       -6.706905   -1.217626    2.231502
      5          1           0       -6.871397   -2.068239    0.643314
      6          1           0       -7.239830   -0.295340    0.754811
 ---------------------------------------------------------------------
                    Distance matrix (angstroms):
                    1          2          3          4          5
     1  C    0.000000
     2  C    1.463394   0.000000
     3  N    2.622675   1.159718   0.000000
     4  H    1.073336   2.041203   3.109670   0.000000
     5  H    1.117601   2.125268   3.172842   1.809127   0.000000
     6  H    1.118248   2.103415   3.158958   1.820779   1.814207
                    6
     6  H    0.000000
 Stoichiometry    C2H3N
 Framework group  C1[X(C2H3N)]
 Deg. of freedom    12
 Full point group                 C1      NOp   1
 Largest Abelian subgroup         C1      NOp   1
 Largest concise Abelian subgroup C1      NOp   1
                         Standard orientation:                         
 ---------------------------------------------------------------------
 Center     Atomic      Atomic             Coordinates (Angstroms)
 Number     Number       Type             X           Y           Z
 ---------------------------------------------------------------------
      1          6           0        1.186492   -0.004653   -0.001845
      2          6           0       -0.276822   -0.006045   -0.017043
      3          7           0       -1.436129    0.005244    0.011680
      4          1           0        1.492640   -0.769445   -0.689898
      5          1           0        1.560785   -0.213420    1.030315
      6          1           0        1.541460    1.010346   -0.308852
 ---------------------------------------------------------------------
 Rotational constants (GHZ):    152.0763784      9.2000110      9.1964084
 Leave Link  202 at Wed Aug 26 09:39:18 2020, MaxMem=  2097152000 cpu:         0.0
 (Enter /opt/cluster/programs/g09/g09_d.01/g09/l301.exe)
 Standard basis: def2QZVP (5D, 7F)
 Ernie: Thresh=  0.10000D-02 Tol=  0.10000D-05 Strict=F.
 There are   321 symmetry adapted cartesian basis functions of A   symmetry.
 There are   261 symmetry adapted basis functions of A   symmetry.
   261 basis functions,   390 primitive gaussians,   321 cartesian basis functions
    11 alpha electrons       11 beta electrons
       nuclear repulsion energy        58.2602579480 Hartrees.
 IExCor=  419 DFT=T Ex+Corr=B2PLYPD3 ExCW=0 ScaHFX=  0.530000
 ScaDFX=  0.470000  0.470000  0.730000  0.730000 ScalE2=  0.270000  0.270000
 IRadAn=      0 IRanWt=     -1 IRanGd=            0 ICorTp=0 IEmpDi=141
 NAtoms=    6 NActive=    6 NUniq=    6 SFac= 1.00D+00 NAtFMM=   60 NAOKFM=F Big=F
 Integral buffers will be    131072 words long.
 Regular integral format.
 Two-electron integral symmetry is turned on.
 R6Disp:  Grimme-D3(BJ) Dispersion energy=       -0.0021037248 Hartrees.
 Nuclear repulsion after empirical dispersion term =       58.2581542232 Hartrees.
 Leave Link  301 at Wed Aug 26 09:39:18 2020, MaxMem=  2097152000 cpu:         0.4
 (Enter /opt/cluster/programs/g09/g09_d.01/g09/l302.exe)
 NPDir=0 NMtPBC=     1 NCelOv=     1 NCel=       1 NClECP=     1 NCelD=      1
         NCelK=      1 NCelE2=     1 NClLst=     1 CellRange=     0.0.
 One-electron integrals computed using PRISM.
   1 Symmetry operations used in ECPInt.
 ECPInt:  NShTT=    3321 NPrTT=    8136 LenC2=    3293 LenP2D=    7125.
 LDataN:  DoStor=T MaxTD1= 8 Len=  415
 NBasis=   261 RedAO= T EigKep=  8.48D-05  NBF=   261
 NBsUse=   261 1.00D-06 EigRej= -1.00D+00 NBFU=   261
 Precomputing XC quadrature grid using
 IXCGrd= 4 IRadAn=           0 IRanWt=          -1 IRanGd=           0 AccXCQ= 0.00D+00.
 Generated NRdTot=       0 NPtTot=           0 NUsed=           0 NTot=          32
 NSgBfM=   321   321   321   321   321 MxSgAt=     6 MxSgA2=     6.
 Leave Link  302 at Wed Aug 26 09:39:18 2020, MaxMem=  2097152000 cpu:         2.0
 (Enter /opt/cluster/programs/g09/g09_d.01/g09/l303.exe)
 DipDrv:  MaxL=1.
 Leave Link  303 at Wed Aug 26 09:39:18 2020, MaxMem=  2097152000 cpu:         0.2
 (Enter /opt/cluster/programs/g09/g09_d.01/g09/l401.exe)
 ExpMin= 7.60D-02 ExpMax= 9.07D+04 ExpMxC= 8.76D+02 IAcc=2 IRadAn=         4 AccDes= 0.00D+00
 Harris functional with IExCor=  419 and IRadAn=       4 diagonalized for initial guess.
 HarFok:  IExCor=  419 AccDes= 0.00D+00 IRadAn=         4 IDoV= 1 UseB2=F ITyADJ=14
 ICtDFT=  3500011 ScaDFX=  1.000000  1.000000  1.000000  1.000000
 FoFCou: FMM=F IPFlag=           0 FMFlag=      100000 FMFlg1=           0
         NFxFlg=           0 DoJE=T BraDBF=F KetDBF=T FulRan=T
         wScrn=  0.000000 ICntrl=     500 IOpCl=  0 I1Cent=   200000004 NGrid=           0
         NMat0=    1 NMatS0=      1 NMatT0=    0 NMatD0=    1 NMtDS0=    0 NMtDT0=    0
 Petite list used in FoFCou.
 Harris En= -132.846602313175    
 JPrj=0 DoOrth=F DoCkMO=F.
 Leave Link  401 at Wed Aug 26 09:39:19 2020, MaxMem=  2097152000 cpu:         3.7
 (Enter /opt/cluster/programs/g09/g09_d.01/g09/l502.exe)
 Closed shell SCF:
 Using DIIS extrapolation, IDIIS=  1040.
 Integral symmetry usage will be decided dynamically.
 Keep R1 ints in memory in canonical form, NReq=601554820.
 IVT=      332521 IEndB=      332521 NGot=  2097152000 MDV=  1512290144
 LenX=  1512290144 LenY=  1512186662
 Requested convergence on RMS density matrix=1.00D-08 within 128 cycles.
 Requested convergence on MAX density matrix=1.00D-06.
 Requested convergence on             energy=1.00D-06.
 No special actions if energy rises.
 FoFCou: FMM=F IPFlag=           0 FMFlag=           0 FMFlg1=           0
         NFxFlg=           0 DoJE=F BraDBF=F KetDBF=F FulRan=T
         wScrn=  0.000000 ICntrl=     600 IOpCl=  0 I1Cent=           0 NGrid=           0
         NMat0=    1 NMatS0=  34191 NMatT0=    0 NMatD0=    1 NMtDS0=    0 NMtDT0=    0
 Symmetry not used in FoFCou.
 Integral accuracy reduced to 1.0D-05 until final iterations.

 Cycle   1  Pass 0  IDiag  1:
 E= -132.422896829218    
 DIIS: error= 2.48D-02 at cycle   1 NSaved=   1.
 NSaved= 1 IEnMin= 1 EnMin= -132.422896829218     IErMin= 1 ErrMin= 2.48D-02
 ErrMax= 2.48D-02  0.00D+00 EMaxC= 1.00D-01 BMatC= 1.85D-01 BMatP= 1.85D-01
 IDIUse=3 WtCom= 7.52D-01 WtEn= 2.48D-01
 Coeff-Com:  0.100D+01
 Coeff-En:   0.100D+01
 Coeff:      0.100D+01
 Gap=     0.454 Goal=   None    Shift=    0.000
 GapD=    0.454 DampG=2.000 DampE=0.500 DampFc=1.0000 IDamp=-1.
 RMSDP=1.28D-03 MaxDP=6.73D-02              OVMax= 1.67D-01

 Cycle   2  Pass 0  IDiag  1:
 E= -132.450897283721     Delta-E=       -0.028000454503 Rises=F Damp=F
 DIIS: error= 3.35D-02 at cycle   2 NSaved=   2.
 NSaved= 2 IEnMin= 2 EnMin= -132.450897283721     IErMin= 1 ErrMin= 2.48D-02
 ErrMax= 3.35D-02  0.00D+00 EMaxC= 1.00D-01 BMatC= 9.66D-02 BMatP= 1.85D-01
 IDIUse=3 WtCom= 6.65D-01 WtEn= 3.35D-01
 Coeff-Com:  0.403D+00 0.597D+00
 Coeff-En:   0.413D+00 0.587D+00
 Coeff:      0.407D+00 0.593D+00
 Gap=     0.432 Goal=   None    Shift=    0.000
 RMSDP=8.55D-04 MaxDP=3.41D-02 DE=-2.80D-02 OVMax= 1.25D-01

 Cycle   3  Pass 0  IDiag  1:
 E= -132.516590169234     Delta-E=       -0.065692885514 Rises=F Damp=F
 DIIS: error= 1.55D-02 at cycle   3 NSaved=   3.
 NSaved= 3 IEnMin= 3 EnMin= -132.516590169234     IErMin= 3 ErrMin= 1.55D-02
 ErrMax= 1.55D-02  0.00D+00 EMaxC= 1.00D-01 BMatC= 2.00D-02 BMatP= 9.66D-02
 IDIUse=3 WtCom= 8.45D-01 WtEn= 1.55D-01
 Coeff-Com:  0.948D-01 0.322D+00 0.583D+00
 Coeff-En:   0.000D+00 0.129D+00 0.871D+00
 Coeff:      0.801D-01 0.292D+00 0.628D+00
 Gap=     0.425 Goal=   None    Shift=    0.000
 RMSDP=2.70D-04 MaxDP=9.71D-03 DE=-6.57D-02 OVMax= 5.95D-02

 Cycle   4  Pass 0  IDiag  1:
 E= -132.530344073447     Delta-E=       -0.013753904213 Rises=F Damp=F
 DIIS: error= 5.70D-03 at cycle   4 NSaved=   4.
 NSaved= 4 IEnMin= 4 EnMin= -132.530344073447     IErMin= 4 ErrMin= 5.70D-03
 ErrMax= 5.70D-03  0.00D+00 EMaxC= 1.00D-01 BMatC= 3.09D-03 BMatP= 2.00D-02
 IDIUse=3 WtCom= 9.43D-01 WtEn= 5.70D-02
 Coeff-Com: -0.128D-01 0.526D-01 0.331D+00 0.630D+00
 Coeff-En:   0.000D+00 0.000D+00 0.146D+00 0.854D+00
 Coeff:     -0.121D-01 0.496D-01 0.320D+00 0.643D+00
 Gap=     0.425 Goal=   None    Shift=    0.000
 RMSDP=9.22D-05 MaxDP=2.93D-03 DE=-1.38D-02 OVMax= 1.59D-02

 Cycle   5  Pass 0  IDiag  1:
 E= -132.533024943148     Delta-E=       -0.002680869701 Rises=F Damp=F
 DIIS: error= 3.28D-04 at cycle   5 NSaved=   5.
 NSaved= 5 IEnMin= 5 EnMin= -132.533024943148     IErMin= 5 ErrMin= 3.28D-04
 ErrMax= 3.28D-04  0.00D+00 EMaxC= 1.00D-01 BMatC= 1.48D-05 BMatP= 3.09D-03
 IDIUse=3 WtCom= 9.97D-01 WtEn= 3.28D-03
 Coeff-Com: -0.356D-02 0.552D-02 0.496D-01 0.144D+00 0.804D+00
 Coeff-En:   0.000D+00 0.000D+00 0.000D+00 0.000D+00 0.100D+01
 Coeff:     -0.355D-02 0.550D-02 0.494D-01 0.144D+00 0.805D+00
 Gap=     0.424 Goal=   None    Shift=    0.000
 RMSDP=8.52D-06 MaxDP=3.09D-04 DE=-2.68D-03 OVMax= 1.28D-03

 Initial convergence to 1.0D-05 achieved.  Increase integral accuracy.
 Cycle   6  Pass 1  IDiag  1:
 E= -132.533039379998     Delta-E=       -0.000014436850 Rises=F Damp=F
 DIIS: error= 9.47D-05 at cycle   1 NSaved=   1.
 NSaved= 1 IEnMin= 1 EnMin= -132.533039379998     IErMin= 1 ErrMin= 9.47D-05
 ErrMax= 9.47D-05  0.00D+00 EMaxC= 1.00D-01 BMatC= 7.12D-07 BMatP= 7.12D-07
 IDIUse=1 WtCom= 1.00D+00 WtEn= 0.00D+00
 Coeff-Com:  0.100D+01
 Coeff:      0.100D+01
 Gap=     0.425 Goal=   None    Shift=    0.000
 RMSDP=8.52D-06 MaxDP=3.09D-04 DE=-1.44D-05 OVMax= 4.32D-04

 Cycle   7  Pass 1  IDiag  1:
 E= -132.533039794026     Delta-E=       -0.000000414028 Rises=F Damp=F
 DIIS: error= 5.05D-05 at cycle   2 NSaved=   2.
 NSaved= 2 IEnMin= 2 EnMin= -132.533039794026     IErMin= 2 ErrMin= 5.05D-05
 ErrMax= 5.05D-05  0.00D+00 EMaxC= 1.00D-01 BMatC= 3.38D-07 BMatP= 7.12D-07
 IDIUse=1 WtCom= 1.00D+00 WtEn= 0.00D+00
 Coeff-Com:  0.400D+00 0.600D+00
 Coeff:      0.400D+00 0.600D+00
 Gap=     0.424 Goal=   None    Shift=    0.000
 RMSDP=1.08D-06 MaxDP=4.25D-05 DE=-4.14D-07 OVMax= 1.85D-04

 Cycle   8  Pass 1  IDiag  1:
 E= -132.533040089536     Delta-E=       -0.000000295510 Rises=F Damp=F
 DIIS: error= 1.60D-05 at cycle   3 NSaved=   3.
 NSaved= 3 IEnMin= 3 EnMin= -132.533040089536     IErMin= 3 ErrMin= 1.60D-05
 ErrMax= 1.60D-05  0.00D+00 EMaxC= 1.00D-01 BMatC= 2.35D-08 BMatP= 3.38D-07
 IDIUse=1 WtCom= 1.00D+00 WtEn= 0.00D+00
 Coeff-Com:  0.116D+00 0.249D+00 0.635D+00
 Coeff:      0.116D+00 0.249D+00 0.635D+00
 Gap=     0.424 Goal=   None    Shift=    0.000
 RMSDP=5.80D-07 MaxDP=2.60D-05 DE=-2.96D-07 OVMax= 6.37D-05

 Cycle   9  Pass 1  IDiag  1:
 E= -132.533040103995     Delta-E=       -0.000000014458 Rises=F Damp=F
 DIIS: error= 1.14D-05 at cycle   4 NSaved=   4.
 NSaved= 4 IEnMin= 4 EnMin= -132.533040103995     IErMin= 4 ErrMin= 1.14D-05
 ErrMax= 1.14D-05  0.00D+00 EMaxC= 1.00D-01 BMatC= 7.45D-09 BMatP= 2.35D-08
 IDIUse=1 WtCom= 1.00D+00 WtEn= 0.00D+00
 Coeff-Com: -0.598D-01-0.374D-01 0.389D+00 0.709D+00
 Coeff:     -0.598D-01-0.374D-01 0.389D+00 0.709D+00
 Gap=     0.424 Goal=   None    Shift=    0.000
 RMSDP=2.99D-07 MaxDP=1.41D-05 DE=-1.45D-08 OVMax= 3.75D-05

 Cycle  10  Pass 1  IDiag  1:
 E= -132.533040111105     Delta-E=       -0.000000007111 Rises=F Damp=F
 DIIS: error= 1.13D-06 at cycle   5 NSaved=   5.
 NSaved= 5 IEnMin= 5 EnMin= -132.533040111105     IErMin= 5 ErrMin= 1.13D-06
 ErrMax= 1.13D-06  0.00D+00 EMaxC= 1.00D-01 BMatC= 1.17D-10 BMatP= 7.45D-09
 IDIUse=1 WtCom= 1.00D+00 WtEn= 0.00D+00
 Coeff-Com: -0.231D-01-0.216D-01 0.857D-01 0.220D+00 0.739D+00
 Coeff:     -0.231D-01-0.216D-01 0.857D-01 0.220D+00 0.739D+00
 Gap=     0.424 Goal=   None    Shift=    0.000
 RMSDP=4.68D-08 MaxDP=2.21D-06 DE=-7.11D-09 OVMax= 3.65D-06

 Cycle  11  Pass 1  IDiag  1:
 E= -132.533040111208     Delta-E=       -0.000000000103 Rises=F Damp=F
 DIIS: error= 2.47D-07 at cycle   6 NSaved=   6.
 NSaved= 6 IEnMin= 6 EnMin= -132.533040111208     IErMin= 6 ErrMin= 2.47D-07
 ErrMax= 2.47D-07  0.00D+00 EMaxC= 1.00D-01 BMatC= 5.75D-12 BMatP= 1.17D-10
 IDIUse=1 WtCom= 1.00D+00 WtEn= 0.00D+00
 Coeff-Com:  0.290D-02 0.922D-03-0.301D-01-0.301D-01 0.101D+00 0.955D+00
 Coeff:      0.290D-02 0.922D-03-0.301D-01-0.301D-01 0.101D+00 0.955D+00
 Gap=     0.424 Goal=   None    Shift=    0.000
 RMSDP=1.11D-08 MaxDP=4.52D-07 DE=-1.03D-10 OVMax= 1.31D-06

 Cycle  12  Pass 1  IDiag  1:
 E= -132.533040111217     Delta-E=       -0.000000000009 Rises=F Damp=F
 DIIS: error= 6.56D-08 at cycle   7 NSaved=   7.
 NSaved= 7 IEnMin= 7 EnMin= -132.533040111217     IErMin= 7 ErrMin= 6.56D-08
 ErrMax= 6.56D-08  0.00D+00 EMaxC= 1.00D-01 BMatC= 2.06D-13 BMatP= 5.75D-12
 IDIUse=1 WtCom= 1.00D+00 WtEn= 0.00D+00
 Coeff-Com:  0.166D-03 0.572D-03 0.338D-02 0.141D-02-0.468D-01-0.216D+00
 Coeff-Com:  0.126D+01
 Coeff:      0.166D-03 0.572D-03 0.338D-02 0.141D-02-0.468D-01-0.216D+00
 Coeff:      0.126D+01
 Gap=     0.424 Goal=   None    Shift=    0.000
 RMSDP=2.84D-09 MaxDP=9.11D-08 DE=-9.27D-12 OVMax= 6.08D-07

 SCF Done:  E(RB2PLYPD3) =  -132.533040111     A.U. after   12 cycles
            NFock= 12  Conv=0.28D-08     -V/T= 2.0043
 KE= 1.319655685472D+02 PE=-4.250674366873D+02 EE= 1.023106738057D+02
 Leave Link  502 at Wed Aug 26 09:39:40 2020, MaxMem=  2097152000 cpu:        92.7
 (Enter /opt/cluster/programs/g09/g09_d.01/g09/l801.exe)
 DoSCS=T DFT=T ScalE2(SS,OS)=  0.270000  0.270000
 ExpMin= 7.60D-02 ExpMax= 9.07D+04 ExpMxC= 8.76D+02 IAcc=3 IRadAn=         5 AccDes= 0.00D+00
 HarFok:  IExCor=  205 AccDes= 0.00D+00 IRadAn=         5 IDoV=-2 UseB2=F ITyADJ=14
 ICtDFT= 12500011 ScaDFX=  1.000000  1.000000  1.000000  1.000000
 Largest valence mixing into a core orbital is  1.17D-04
 Largest core mixing into a valence orbital is  1.96D-05
 Range of M.O.s used for correlation:     4   261
 NBasis=   261 NAE=    11 NBE=    11 NFC=     3 NFV=     0
 NROrb=    258 NOA=     8 NOB=     8 NVA=   250 NVB=   250

 **** Warning!!: The largest alpha MO coefficient is  0.30879473D+02

 Leave Link  801 at Wed Aug 26 09:39:40 2020, MaxMem=  2097152000 cpu:         0.6
 (Enter /opt/cluster/programs/g09/g09_d.01/g09/l906.exe)
 DoSCS=T DFT=T ScalE2(SS,OS)=  0.270000  0.270000
 FulOut=F Deriv=F AODrv=F NAtomX=     6
   MMem=        2666  MDisk=           8 MDiskD=           8
  W3Min=      642000 MinDsk=     1426009 NBas6D=         321
 NBas2D=       52689    NTT=       51681    LW2=     4508827
    MDV=  2096809413 MDiskM=       14501 NBas2p=       52155
 Fully direct method using O(OVN) memory.
 IMap=   1   2   3   4   5   6   7   8
 JobTyp=1 Pass  1:  I=   1 to   8 NPSUse=  8 ParTrn=T ParDer=T DoDerP=F.
 Spin components of T(2) and E(2):
     alpha-alpha T2 =       0.3613170000D-01 E2=     -0.2149467064D-01
     alpha-beta  T2 =       0.2113438836D+00 E2=     -0.1381070636D+00
     beta-beta   T2 =       0.3613170000D-01 E2=     -0.2149467064D-01
 The integrals were generated   1 times.
 E2(B2PLYPD3) =    -0.1810964049D+00 E(B2PLYPD3) =    -0.13271413651615D+03
 Leave Link  906 at Wed Aug 26 09:39:53 2020, MaxMem=  2097152000 cpu:       102.3
 (Enter /opt/cluster/programs/g09/g09_d.01/g09/l601.exe)
 Copying SCF densities to generalized density rwf, IOpCl= 0 IROHF=0.

 **********************************************************************

            Population analysis using the SCF density.

 **********************************************************************

 Orbital symmetries:
       Occupied  (A) (A) (A) (A) (A) (A) (A) (A) (A) (A) (A)
       Virtual   (A) (A) (A) (A) (A) (A) (A) (A) (A) (A) (A) (A)
                 (A) (A) (A) (A) (A) (A) (A) (A) (A) (A) (A) (A)
                 (A) (A) (A) (A) (A) (A) (A) (A) (A) (A) (A) (A)
                 (A) (A) (A) (A) (A) (A) (A) (A) (A) (A) (A) (A)
                 (A) (A) (A) (A) (A) (A) (A) (A) (A) (A) (A) (A)
                 (A) (A) (A) (A) (A) (A) (A) (A) (A) (A) (A) (A)
                 (A) (A) (A) (A) (A) (A) (A) (A) (A) (A) (A) (A)
                 (A) (A) (A) (A) (A) (A) (A) (A) (A) (A) (A) (A)
                 (A) (A) (A) (A) (A) (A) (A) (A) (A) (A) (A) (A)
                 (A) (A) (A) (A) (A) (A) (A) (A) (A) (A) (A) (A)
                 (A) (A) (A) (A) (A) (A) (A) (A) (A) (A) (A) (A)
                 (A) (A) (A) (A) (A) (A) (A) (A) (A) (A) (A) (A)
                 (A) (A) (A) (A) (A) (A) (A) (A) (A) (A) (A) (A)
                 (A) (A) (A) (A) (A) (A) (A) (A) (A) (A) (A) (A)
                 (A) (A) (A) (A) (A) (A) (A) (A) (A) (A) (A) (A)
                 (A) (A) (A) (A) (A) (A) (A) (A) (A) (A) (A) (A)
                 (A) (A) (A) (A) (A) (A) (A) (A) (A) (A) (A) (A)
                 (A) (A) (A) (A) (A) (A) (A) (A) (A) (A) (A) (A)
                 (A) (A) (A) (A) (A) (A) (A) (A) (A) (A) (A) (A)
                 (A) (A) (A) (A) (A) (A) (A) (A) (A) (A) (A) (A)
                 (A) (A) (A) (A) (A) (A) (A) (A) (A) (A)
 The electronic state is 1-A.
 Alpha  occ. eigenvalues --  -14.84248 -10.67657 -10.66334  -1.03835  -0.88956
 Alpha  occ. eigenvalues --   -0.58884  -0.54643  -0.53200  -0.44692  -0.38930
 Alpha  occ. eigenvalues --   -0.38799
 Alpha virt. eigenvalues --    0.03640   0.07471   0.08164   0.10168   0.11253
 Alpha virt. eigenvalues --    0.11498   0.15233   0.15821   0.16279   0.20086
 Alpha virt. eigenvalues --    0.20154   0.25202   0.32450   0.33957   0.34644
 Alpha virt. eigenvalues --    0.38238   0.39695   0.39798   0.40151   0.46744
 Alpha virt. eigenvalues --    0.50496   0.52134   0.58852   0.59922   0.61344
 Alpha virt. eigenvalues --    0.66308   0.67319   0.68229   0.70371   0.79354
 Alpha virt. eigenvalues --    0.79656   0.82193   0.82329   0.83140   0.86506
 Alpha virt. eigenvalues --    0.91956   0.93801   0.95385   0.96460   0.97345
 Alpha virt. eigenvalues --    1.05624   1.06160   1.07623   1.11259   1.13224
 Alpha virt. eigenvalues --    1.13883   1.22197   1.23159   1.23464   1.34757
 Alpha virt. eigenvalues --    1.35303   1.43734   1.45651   1.47991   1.53700
 Alpha virt. eigenvalues --    1.65000   1.66353   1.70180   1.73909   1.78372
 Alpha virt. eigenvalues --    1.78892   1.79175   1.88446   1.92173   1.93184
 Alpha virt. eigenvalues --    1.94726   1.98766   1.99848   2.00733   2.05293
 Alpha virt. eigenvalues --    2.05514   2.10354   2.13774   2.18871   2.20180
 Alpha virt. eigenvalues --    2.22349   2.23108   2.25126   2.34780   2.35359
 Alpha virt. eigenvalues --    2.42221   2.50430   2.51737   2.57774   2.59623
 Alpha virt. eigenvalues --    2.59824   2.67021   2.69733   2.72038   2.72460
 Alpha virt. eigenvalues --    2.76411   2.76822   2.86304   2.87228   2.88321
 Alpha virt. eigenvalues --    2.88895   2.93306   2.94623   2.94940   3.02453
 Alpha virt. eigenvalues --    3.08552   3.11696   3.21284   3.25365   3.29058
 Alpha virt. eigenvalues --    3.33180   3.35789   3.39788   3.42449   3.44912
 Alpha virt. eigenvalues --    3.53471   3.57746   3.70437   3.71910   3.73472
 Alpha virt. eigenvalues --    3.87253   3.87956   3.89308   3.92388   3.94496
 Alpha virt. eigenvalues --    4.01252   4.04755   4.05557   4.25866   4.26203
 Alpha virt. eigenvalues --    4.54295   4.91335   4.91367   5.06369   5.09012
 Alpha virt. eigenvalues --    5.10482   5.15626   5.18471   5.20572   5.23578
 Alpha virt. eigenvalues --    5.31682   5.44082   5.45836   5.46933   5.65935
 Alpha virt. eigenvalues --    5.67986   5.84717   5.85687   5.91625   5.91914
 Alpha virt. eigenvalues --    5.92241   5.95054   5.97478   5.99212   6.00229
 Alpha virt. eigenvalues --    6.01418   6.04364   6.05011   6.07220   6.11972
 Alpha virt. eigenvalues --    6.12687   6.19010   6.19302   6.26472   6.28812
 Alpha virt. eigenvalues --    6.36256   6.39474   6.47456   6.54827   6.57871
 Alpha virt. eigenvalues --    6.60355   6.63247   6.87227   6.90564   6.94664
 Alpha virt. eigenvalues --    6.97071   7.02112   7.02647   7.02698   7.14526
 Alpha virt. eigenvalues --    7.15591   7.18601   7.22532   7.34063   7.40304
 Alpha virt. eigenvalues --    7.46561   7.50178   7.52887   7.53103   7.55423
 Alpha virt. eigenvalues --    7.67514   7.70694   7.71461   7.82315   7.83282
 Alpha virt. eigenvalues --    7.85541   7.92156   7.93900   7.94264   8.23676
 Alpha virt. eigenvalues --    8.27093   8.34836   8.38802   8.39815   8.43581
 Alpha virt. eigenvalues --    8.45892   8.46913   8.49086   8.50135   8.56401
 Alpha virt. eigenvalues --    8.57177   8.63173   8.66121   8.66763   8.66819
 Alpha virt. eigenvalues --    8.70979   8.78179   8.80802   8.88690   8.97416
 Alpha virt. eigenvalues --    9.04416   9.08786   9.11373   9.13687   9.14791
 Alpha virt. eigenvalues --    9.22700   9.23817   9.66527   9.70962   9.78013
 Alpha virt. eigenvalues --    9.79733   9.84846   9.87970   9.91382   9.98866
 Alpha virt. eigenvalues --   10.11192  10.13160  10.13191  10.27592  10.30107
 Alpha virt. eigenvalues --   10.43400  10.57132  11.37324  11.76762  11.83974
 Alpha virt. eigenvalues --   11.96629  12.05238  13.07550  13.44566  29.12481
 Alpha virt. eigenvalues --   29.52129  38.30235 148.76779 149.14710 198.21830
          Condensed to atoms (all electrons):
               1          2          3          4          5          6
     1  C    4.628454   0.293291  -0.059558   0.412334   0.412407   0.411558
     2  C    0.293291   4.858354   0.982724  -0.047643  -0.041462  -0.043625
     3  N   -0.059558   0.982724   6.288257  -0.000329  -0.001189  -0.000888
     4  H    0.412334  -0.047643  -0.000329   0.584038  -0.028008  -0.026719
     5  H    0.412407  -0.041462  -0.001189  -0.028008   0.585949  -0.028848
     6  H    0.411558  -0.043625  -0.000888  -0.026719  -0.028848   0.586859
 Mulliken charges:
               1
     1  C   -0.098486
     2  C   -0.001640
     3  N   -0.209017
     4  H    0.106328
     5  H    0.101151
     6  H    0.101664
 Sum of Mulliken charges =   0.00000
 Mulliken charges with hydrogens summed into heavy atoms:
               1
     1  C    0.210657
     2  C   -0.001640
     3  N   -0.209017
 Electronic spatial extent (au):  <R**2>=            162.4232
 Charge=              0.0000 electrons
 Dipole moment (field-independent basis, Debye):
    X=              4.1198    Y=             -0.0085    Z=             -0.0142  Tot=              4.1199
 Quadrupole moment (field-independent basis, Debye-Ang):
   XX=            -21.2443   YY=            -17.7045   ZZ=            -17.7522
   XY=              0.0556   XZ=              0.1161   YZ=              0.0442
 Traceless Quadrupole moment (field-independent basis, Debye-Ang):
   XX=             -2.3439   YY=              1.1958   ZZ=              1.1481
   XY=              0.0556   XZ=              0.1161   YZ=              0.0442
 Octapole moment (field-independent basis, Debye-Ang**2):
  XXX=             12.2418  YYY=              0.5098  ZZZ=              0.7209  XYY=              2.3201
  XXY=              0.0957  XXZ=              0.2234  XZZ=              2.2813  YZZ=             -0.5372
  YYZ=             -0.7110  XYZ=              0.0245
 Hexadecapole moment (field-independent basis, Debye-Ang**3):
 XXXX=           -184.1985 YYYY=            -24.8706 ZZZZ=            -24.9209 XXXY=              0.2318
 XXXZ=              0.6142 YYYX=              0.8787 YYYZ=              0.0972 ZZZX=              1.2163
 ZZZY=              0.1066 XXYY=            -31.2822 XXZZ=            -31.2602 YYZZ=             -8.3583
 XXYZ=             -0.0110 YYXZ=             -1.1546 ZZXY=             -0.8668
 N-N= 5.825815422324D+01 E-N=-4.250674372918D+02  KE= 1.319655685472D+02
 Leave Link  601 at Wed Aug 26 09:39:53 2020, MaxMem=  2097152000 cpu:         0.3
 (Enter /opt/cluster/programs/g09/g09_d.01/g09/l9999.exe)
 1\1\GINC-NODE36\SP\RB2PLYPD3-FC\def2QZVP\C2H3N1\BOITTIER\26-Aug-2020\0
 \\#p B2PLYPD3/Def2QZVP\\cyanomethane\\0,1\C,0,-6.604796,-1.117983,1.16
 769\C,0,-5.201023,-0.784426,0.923386\N,0,-4.091017,-0.540495,0.692454\
 H,0,-6.706905,-1.217626,2.231502\H,0,-6.871397,-2.068239,0.643314\H,0,
 -7.23983,-0.29534,0.754811\\Version=ES64L-G09RevD.01\State=1-A\HF=-132
 .5330401\MP2=-132.7141365\RMSD=2.838e-09\PG=C01 [X(C2H3N1)]\\@


 HE THAT FOLLOWS NATURE IS NEVER LOST.

                             -- BACON
 Job cpu time:       0 days  0 hours  3 minutes 23.4 seconds.
 File lengths (MBytes):  RWF=     28 Int=      0 D2E=      0 Chk=      5 Scr=      1
 Normal termination of Gaussian 09 at Wed Aug 26 09:39:53 2020.
