 Entering Gaussian System, Link 0=/opt/cluster/programs/g09/g09_d.01/g09//g09
 Input=/home/boittier/MDCM/nms_sampling/cyanomethane_geom.xyz.dir/energies/cyanomethane_2065_energy.com
 Output=/scratch/boittier/cyanomethane_2065_energy/cyanomethane_2065_energy.out
 Initial command:
 /opt/cluster/programs/g09/g09_d.01/g09/l1.exe "/scratch/boittier/cyanomethane_2065_energy/Gau-47416.inp" -scrdir="/scratch/boittier/cyanomethane_2065_energy/"
 Entering Link 1 = /opt/cluster/programs/g09/g09_d.01/g09/l1.exe PID=     47417.
  
 Copyright (c) 1988,1990,1992,1993,1995,1998,2003,2009,2013,
            Gaussian, Inc.  All Rights Reserved.
  
 This is part of the Gaussian(R) 09 program.  It is based on
 the Gaussian(R) 03 system (copyright 2003, Gaussian, Inc.),
 the Gaussian(R) 98 system (copyright 1998, Gaussian, Inc.),
 the Gaussian(R) 94 system (copyright 1995, Gaussian, Inc.),
 the Gaussian 92(TM) system (copyright 1992, Gaussian, Inc.),
 the Gaussian 90(TM) system (copyright 1990, Gaussian, Inc.),
 the Gaussian 88(TM) system (copyright 1988, Gaussian, Inc.),
 the Gaussian 86(TM) system (copyright 1986, Carnegie Mellon
 University), and the Gaussian 82(TM) system (copyright 1983,
 Carnegie Mellon University). Gaussian is a federally registered
 trademark of Gaussian, Inc.
  
 This software contains proprietary and confidential information,
 including trade secrets, belonging to Gaussian, Inc.
  
 This software is provided under written license and may be
 used, copied, transmitted, or stored only in accord with that
 written license.
  
 The following legend is applicable only to US Government
 contracts under FAR:
  
                    RESTRICTED RIGHTS LEGEND
  
 Use, reproduction and disclosure by the US Government is
 subject to restrictions as set forth in subparagraphs (a)
 and (c) of the Commercial Computer Software - Restricted
 Rights clause in FAR 52.227-19.
  
 Gaussian, Inc.
 340 Quinnipiac St., Bldg. 40, Wallingford CT 06492
  
  
 ---------------------------------------------------------------
 Warning -- This program may not be used in any manner that
 competes with the business of Gaussian, Inc. or will provide
 assistance to any competitor of Gaussian, Inc.  The licensee
 of this program is prohibited from giving any competitor of
 Gaussian, Inc. access to this program.  By using this program,
 the user acknowledges that Gaussian, Inc. is engaged in the
 business of creating and licensing software in the field of
 computational chemistry and represents and warrants to the
 licensee that it is not a competitor of Gaussian, Inc. and that
 it will not use this program in any manner prohibited above.
 ---------------------------------------------------------------
  

 Cite this work as:
 Gaussian 09, Revision D.01,
 M. J. Frisch, G. W. Trucks, H. B. Schlegel, G. E. Scuseria, 
 M. A. Robb, J. R. Cheeseman, G. Scalmani, V. Barone, B. Mennucci, 
 G. A. Petersson, H. Nakatsuji, M. Caricato, X. Li, H. P. Hratchian, 
 A. F. Izmaylov, J. Bloino, G. Zheng, J. L. Sonnenberg, M. Hada, 
 M. Ehara, K. Toyota, R. Fukuda, J. Hasegawa, M. Ishida, T. Nakajima, 
 Y. Honda, O. Kitao, H. Nakai, T. Vreven, J. A. Montgomery, Jr., 
 J. E. Peralta, F. Ogliaro, M. Bearpark, J. J. Heyd, E. Brothers, 
 K. N. Kudin, V. N. Staroverov, T. Keith, R. Kobayashi, J. Normand, 
 K. Raghavachari, A. Rendell, J. C. Burant, S. S. Iyengar, J. Tomasi, 
 M. Cossi, N. Rega, J. M. Millam, M. Klene, J. E. Knox, J. B. Cross, 
 V. Bakken, C. Adamo, J. Jaramillo, R. Gomperts, R. E. Stratmann, 
 O. Yazyev, A. J. Austin, R. Cammi, C. Pomelli, J. W. Ochterski, 
 R. L. Martin, K. Morokuma, V. G. Zakrzewski, G. A. Voth, 
 P. Salvador, J. J. Dannenberg, S. Dapprich, A. D. Daniels, 
 O. Farkas, J. B. Foresman, J. V. Ortiz, J. Cioslowski, 
 and D. J. Fox, Gaussian, Inc., Wallingford CT, 2013.
 
 ******************************************
 Gaussian 09:  ES64L-G09RevD.01 24-Apr-2013
                26-Aug-2020 
 ******************************************
 %chk=/home/boittier/MDCM/nms_sampling/cyanomethane_geom.xyz.dir/cyanomethane_206
 5.chk
 %nproc=8
 Will use up to    8 processors via shared memory.
 %mem=16000MB
 --------------------
 #p B2PLYPD3/Def2QZVP
 --------------------
 1/38=1/1;
 2/12=2,17=6,18=5,40=1/2;
 3/5=45,7=101,11=9,16=1,25=1,30=1,74=-60/1,2,3;
 4//1;
 5/5=2,38=5/2;
 8/10=1/1;
 9/16=-3/6;
 6/7=2,8=2,9=2,10=2/1;
 99/5=1,9=1/99;
 Leave Link    1 at Wed Aug 26 14:47:28 2020, MaxMem=  2097152000 cpu:         0.2
 (Enter /opt/cluster/programs/g09/g09_d.01/g09/l101.exe)
 ------------
 cyanomethane
 ------------
 Symbolic Z-matrix:
 Charge =  0 Multiplicity = 1
 C                    -6.59693  -1.10689   1.17362 
 C                    -5.20299  -0.79737   0.88186 
 N                    -4.09888  -0.53794   0.71447 
 H                    -6.7162   -1.20729   2.24815 
 H                    -6.79009  -2.05201   0.70631 
 H                    -7.27367  -0.35608   0.78533 
 
 NAtoms=      6 NQM=        6 NQMF=       0 NMMI=      0 NMMIF=      0
                NMic=       0 NMicF=      0.
                    Isotopes and Nuclear Properties:
 (Nuclear quadrupole moments (NQMom) in fm**2, nuclear magnetic moments (NMagM)
  in nuclear magnetons)

  Atom         1           2           3           4           5           6
 IAtWgt=          12          12          14           1           1           1
 AtmWgt=  12.0000000  12.0000000  14.0030740   1.0078250   1.0078250   1.0078250
 NucSpn=           0           0           2           1           1           1
 AtZEff=   0.0000000   0.0000000   0.0000000   0.0000000   0.0000000   0.0000000
 NQMom=    0.0000000   0.0000000   2.0440000   0.0000000   0.0000000   0.0000000
 NMagM=    0.0000000   0.0000000   0.4037610   2.7928460   2.7928460   2.7928460
 AtZNuc=   6.0000000   6.0000000   7.0000000   1.0000000   1.0000000   1.0000000
 Leave Link  101 at Wed Aug 26 14:47:28 2020, MaxMem=  2097152000 cpu:         0.5
 (Enter /opt/cluster/programs/g09/g09_d.01/g09/l202.exe)
                          Input orientation:                          
 ---------------------------------------------------------------------
 Center     Atomic      Atomic             Coordinates (Angstroms)
 Number     Number       Type             X           Y           Z
 ---------------------------------------------------------------------
      1          6           0       -6.596930   -1.106886    1.173615
      2          6           0       -5.202988   -0.797367    0.881861
      3          7           0       -4.098879   -0.537941    0.714470
      4          1           0       -6.716200   -1.207288    2.248151
      5          1           0       -6.790089   -2.052006    0.706307
      6          1           0       -7.273668   -0.356076    0.785328
 ---------------------------------------------------------------------
                    Distance matrix (angstroms):
                    1          2          3          4          5
     1  C    0.000000
     2  C    1.457394   0.000000
     3  N    2.602839   1.146463   0.000000
     4  H    1.085787   2.079566   3.106537   0.000000
     5  H    1.071886   2.030721   3.087891   1.759628   0.000000
     6  H    1.082800   2.119380   3.180783   1.781904   1.765296
                    6
     6  H    0.000000
 Stoichiometry    C2H3N
 Framework group  C1[X(C2H3N)]
 Deg. of freedom    12
 Full point group                 C1      NOp   1
 Largest Abelian subgroup         C1      NOp   1
 Largest concise Abelian subgroup C1      NOp   1
                         Standard orientation:                         
 ---------------------------------------------------------------------
 Center     Atomic      Atomic             Coordinates (Angstroms)
 Number     Number       Type             X           Y           Z
 ---------------------------------------------------------------------
      1          6           0       -1.177708    0.001475   -0.006838
      2          6           0        0.279329   -0.020897    0.016429
      3          7           0        1.425122    0.007040   -0.011051
      4          1           0       -1.506419    0.908349   -0.505298
      5          1           0       -1.485648    0.030293    1.019456
      6          1           0       -1.593514   -0.871392   -0.494347
 ---------------------------------------------------------------------
 Rotational constants (GHZ):    159.9251353      9.3343884      9.3262311
 Leave Link  202 at Wed Aug 26 14:47:28 2020, MaxMem=  2097152000 cpu:         0.0
 (Enter /opt/cluster/programs/g09/g09_d.01/g09/l301.exe)
 Standard basis: def2QZVP (5D, 7F)
 Ernie: Thresh=  0.10000D-02 Tol=  0.10000D-05 Strict=F.
 There are   321 symmetry adapted cartesian basis functions of A   symmetry.
 There are   261 symmetry adapted basis functions of A   symmetry.
   261 basis functions,   390 primitive gaussians,   321 cartesian basis functions
    11 alpha electrons       11 beta electrons
       nuclear repulsion energy        58.8576158436 Hartrees.
 IExCor=  419 DFT=T Ex+Corr=B2PLYPD3 ExCW=0 ScaHFX=  0.530000
 ScaDFX=  0.470000  0.470000  0.730000  0.730000 ScalE2=  0.270000  0.270000
 IRadAn=      0 IRanWt=     -1 IRanGd=            0 ICorTp=0 IEmpDi=141
 NAtoms=    6 NActive=    6 NUniq=    6 SFac= 1.00D+00 NAtFMM=   60 NAOKFM=F Big=F
 Integral buffers will be    131072 words long.
 Regular integral format.
 Two-electron integral symmetry is turned on.
 R6Disp:  Grimme-D3(BJ) Dispersion energy=       -0.0021103155 Hartrees.
 Nuclear repulsion after empirical dispersion term =       58.8555055281 Hartrees.
 Leave Link  301 at Wed Aug 26 14:47:28 2020, MaxMem=  2097152000 cpu:         0.4
 (Enter /opt/cluster/programs/g09/g09_d.01/g09/l302.exe)
 NPDir=0 NMtPBC=     1 NCelOv=     1 NCel=       1 NClECP=     1 NCelD=      1
         NCelK=      1 NCelE2=     1 NClLst=     1 CellRange=     0.0.
 One-electron integrals computed using PRISM.
   1 Symmetry operations used in ECPInt.
 ECPInt:  NShTT=    3321 NPrTT=    8136 LenC2=    3296 LenP2D=    7134.
 LDataN:  DoStor=T MaxTD1= 8 Len=  415
 NBasis=   261 RedAO= T EigKep=  7.97D-05  NBF=   261
 NBsUse=   261 1.00D-06 EigRej= -1.00D+00 NBFU=   261
 Precomputing XC quadrature grid using
 IXCGrd= 4 IRadAn=           0 IRanWt=          -1 IRanGd=           0 AccXCQ= 0.00D+00.
 Generated NRdTot=       0 NPtTot=           0 NUsed=           0 NTot=          32
 NSgBfM=   321   321   321   321   321 MxSgAt=     6 MxSgA2=     6.
 Leave Link  302 at Wed Aug 26 14:47:28 2020, MaxMem=  2097152000 cpu:         2.0
 (Enter /opt/cluster/programs/g09/g09_d.01/g09/l303.exe)
 DipDrv:  MaxL=1.
 Leave Link  303 at Wed Aug 26 14:47:29 2020, MaxMem=  2097152000 cpu:         0.2
 (Enter /opt/cluster/programs/g09/g09_d.01/g09/l401.exe)
 ExpMin= 7.60D-02 ExpMax= 9.07D+04 ExpMxC= 8.76D+02 IAcc=2 IRadAn=         4 AccDes= 0.00D+00
 Harris functional with IExCor=  419 and IRadAn=       4 diagonalized for initial guess.
 HarFok:  IExCor=  419 AccDes= 0.00D+00 IRadAn=         4 IDoV= 1 UseB2=F ITyADJ=14
 ICtDFT=  3500011 ScaDFX=  1.000000  1.000000  1.000000  1.000000
 FoFCou: FMM=F IPFlag=           0 FMFlag=      100000 FMFlg1=           0
         NFxFlg=           0 DoJE=T BraDBF=F KetDBF=T FulRan=T
         wScrn=  0.000000 ICntrl=     500 IOpCl=  0 I1Cent=   200000004 NGrid=           0
         NMat0=    1 NMatS0=      1 NMatT0=    0 NMatD0=    1 NMtDS0=    0 NMtDT0=    0
 Petite list used in FoFCou.
 Harris En= -132.855435146551    
 JPrj=0 DoOrth=F DoCkMO=F.
 Leave Link  401 at Wed Aug 26 14:47:29 2020, MaxMem=  2097152000 cpu:         3.7
 (Enter /opt/cluster/programs/g09/g09_d.01/g09/l502.exe)
 Closed shell SCF:
 Using DIIS extrapolation, IDIIS=  1040.
 Integral symmetry usage will be decided dynamically.
 Keep R1 ints in memory in canonical form, NReq=601554820.
 IVT=      332521 IEndB=      332521 NGot=  2097152000 MDV=  1512290144
 LenX=  1512290144 LenY=  1512186662
 Requested convergence on RMS density matrix=1.00D-08 within 128 cycles.
 Requested convergence on MAX density matrix=1.00D-06.
 Requested convergence on             energy=1.00D-06.
 No special actions if energy rises.
 FoFCou: FMM=F IPFlag=           0 FMFlag=           0 FMFlg1=           0
         NFxFlg=           0 DoJE=F BraDBF=F KetDBF=F FulRan=T
         wScrn=  0.000000 ICntrl=     600 IOpCl=  0 I1Cent=           0 NGrid=           0
         NMat0=    1 NMatS0=  34191 NMatT0=    0 NMatD0=    1 NMtDS0=    0 NMtDT0=    0
 Symmetry not used in FoFCou.
 Integral accuracy reduced to 1.0D-05 until final iterations.

 Cycle   1  Pass 0  IDiag  1:
 E= -132.418938642176    
 DIIS: error= 3.03D-02 at cycle   1 NSaved=   1.
 NSaved= 1 IEnMin= 1 EnMin= -132.418938642176     IErMin= 1 ErrMin= 3.03D-02
 ErrMax= 3.03D-02  0.00D+00 EMaxC= 1.00D-01 BMatC= 1.94D-01 BMatP= 1.94D-01
 IDIUse=3 WtCom= 6.97D-01 WtEn= 3.03D-01
 Coeff-Com:  0.100D+01
 Coeff-En:   0.100D+01
 Coeff:      0.100D+01
 Gap=     0.465 Goal=   None    Shift=    0.000
 GapD=    0.465 DampG=2.000 DampE=0.500 DampFc=1.0000 IDamp=-1.
 RMSDP=1.31D-03 MaxDP=7.02D-02              OVMax= 1.64D-01

 Cycle   2  Pass 0  IDiag  1:
 E= -132.454966835031     Delta-E=       -0.036028192855 Rises=F Damp=F
 DIIS: error= 3.50D-02 at cycle   2 NSaved=   2.
 NSaved= 2 IEnMin= 2 EnMin= -132.454966835031     IErMin= 1 ErrMin= 3.03D-02
 ErrMax= 3.50D-02  0.00D+00 EMaxC= 1.00D-01 BMatC= 9.55D-02 BMatP= 1.94D-01
 IDIUse=3 WtCom= 6.50D-01 WtEn= 3.50D-01
 Coeff-Com:  0.395D+00 0.605D+00
 Coeff-En:   0.389D+00 0.611D+00
 Coeff:      0.393D+00 0.607D+00
 Gap=     0.440 Goal=   None    Shift=    0.000
 RMSDP=8.53D-04 MaxDP=3.43D-02 DE=-3.60D-02 OVMax= 1.21D-01

 Cycle   3  Pass 0  IDiag  1:
 E= -132.519611177113     Delta-E=       -0.064644342082 Rises=F Damp=F
 DIIS: error= 1.37D-02 at cycle   3 NSaved=   3.
 NSaved= 3 IEnMin= 3 EnMin= -132.519611177113     IErMin= 3 ErrMin= 1.37D-02
 ErrMax= 1.37D-02  0.00D+00 EMaxC= 1.00D-01 BMatC= 1.96D-02 BMatP= 9.55D-02
 IDIUse=3 WtCom= 8.63D-01 WtEn= 1.37D-01
 Coeff-Com:  0.953D-01 0.324D+00 0.581D+00
 Coeff-En:   0.000D+00 0.119D+00 0.881D+00
 Coeff:      0.822D-01 0.296D+00 0.622D+00
 Gap=     0.430 Goal=   None    Shift=    0.000
 RMSDP=2.65D-04 MaxDP=9.68D-03 DE=-6.46D-02 OVMax= 5.83D-02

 Cycle   4  Pass 0  IDiag  1:
 E= -132.533081956108     Delta-E=       -0.013470778995 Rises=F Damp=F
 DIIS: error= 4.95D-03 at cycle   4 NSaved=   4.
 NSaved= 4 IEnMin= 4 EnMin= -132.533081956108     IErMin= 4 ErrMin= 4.95D-03
 ErrMax= 4.95D-03  0.00D+00 EMaxC= 1.00D-01 BMatC= 2.89D-03 BMatP= 1.96D-02
 IDIUse=3 WtCom= 9.51D-01 WtEn= 4.95D-02
 Coeff-Com: -0.124D-01 0.527D-01 0.325D+00 0.634D+00
 Coeff-En:   0.000D+00 0.000D+00 0.135D+00 0.865D+00
 Coeff:     -0.118D-01 0.501D-01 0.316D+00 0.646D+00
 Gap=     0.430 Goal=   None    Shift=    0.000
 RMSDP=8.93D-05 MaxDP=2.67D-03 DE=-1.35D-02 OVMax= 1.53D-02

 Cycle   5  Pass 0  IDiag  1:
 E= -132.535570750910     Delta-E=       -0.002488794802 Rises=F Damp=F
 DIIS: error= 2.86D-04 at cycle   5 NSaved=   5.
 NSaved= 5 IEnMin= 5 EnMin= -132.535570750910     IErMin= 5 ErrMin= 2.86D-04
 ErrMax= 2.86D-04  0.00D+00 EMaxC= 1.00D-01 BMatC= 1.26D-05 BMatP= 2.89D-03
 IDIUse=3 WtCom= 9.97D-01 WtEn= 2.86D-03
 Coeff-Com: -0.334D-02 0.511D-02 0.458D-01 0.137D+00 0.815D+00
 Coeff-En:   0.000D+00 0.000D+00 0.000D+00 0.000D+00 0.100D+01
 Coeff:     -0.333D-02 0.510D-02 0.457D-01 0.137D+00 0.816D+00
 Gap=     0.429 Goal=   None    Shift=    0.000
 RMSDP=8.32D-06 MaxDP=3.26D-04 DE=-2.49D-03 OVMax= 1.19D-03

 Initial convergence to 1.0D-05 achieved.  Increase integral accuracy.
 Cycle   6  Pass 1  IDiag  1:
 E= -132.535581286145     Delta-E=       -0.000010535235 Rises=F Damp=F
 DIIS: error= 9.28D-05 at cycle   1 NSaved=   1.
 NSaved= 1 IEnMin= 1 EnMin= -132.535581286145     IErMin= 1 ErrMin= 9.28D-05
 ErrMax= 9.28D-05  0.00D+00 EMaxC= 1.00D-01 BMatC= 6.17D-07 BMatP= 6.17D-07
 IDIUse=1 WtCom= 1.00D+00 WtEn= 0.00D+00
 Coeff-Com:  0.100D+01
 Coeff:      0.100D+01
 Gap=     0.430 Goal=   None    Shift=    0.000
 RMSDP=8.32D-06 MaxDP=3.26D-04 DE=-1.05D-05 OVMax= 4.00D-04

 Cycle   7  Pass 1  IDiag  1:
 E= -132.535581655156     Delta-E=       -0.000000369010 Rises=F Damp=F
 DIIS: error= 4.37D-05 at cycle   2 NSaved=   2.
 NSaved= 2 IEnMin= 2 EnMin= -132.535581655156     IErMin= 2 ErrMin= 4.37D-05
 ErrMax= 4.37D-05  0.00D+00 EMaxC= 1.00D-01 BMatC= 2.79D-07 BMatP= 6.17D-07
 IDIUse=1 WtCom= 1.00D+00 WtEn= 0.00D+00
 Coeff-Com:  0.394D+00 0.606D+00
 Coeff:      0.394D+00 0.606D+00
 Gap=     0.430 Goal=   None    Shift=    0.000
 RMSDP=9.91D-07 MaxDP=3.79D-05 DE=-3.69D-07 OVMax= 1.68D-04

 Cycle   8  Pass 1  IDiag  1:
 E= -132.535581898184     Delta-E=       -0.000000243028 Rises=F Damp=F
 DIIS: error= 1.54D-05 at cycle   3 NSaved=   3.
 NSaved= 3 IEnMin= 3 EnMin= -132.535581898184     IErMin= 3 ErrMin= 1.54D-05
 ErrMax= 1.54D-05  0.00D+00 EMaxC= 1.00D-01 BMatC= 1.83D-08 BMatP= 2.79D-07
 IDIUse=1 WtCom= 1.00D+00 WtEn= 0.00D+00
 Coeff-Com:  0.982D-01 0.232D+00 0.670D+00
 Coeff:      0.982D-01 0.232D+00 0.670D+00
 Gap=     0.430 Goal=   None    Shift=    0.000
 RMSDP=5.67D-07 MaxDP=2.48D-05 DE=-2.43D-07 OVMax= 5.88D-05

 Cycle   9  Pass 1  IDiag  1:
 E= -132.535581908790     Delta-E=       -0.000000010606 Rises=F Damp=F
 DIIS: error= 9.95D-06 at cycle   4 NSaved=   4.
 NSaved= 4 IEnMin= 4 EnMin= -132.535581908790     IErMin= 4 ErrMin= 9.95D-06
 ErrMax= 9.95D-06  0.00D+00 EMaxC= 1.00D-01 BMatC= 6.90D-09 BMatP= 1.83D-08
 IDIUse=1 WtCom= 1.00D+00 WtEn= 0.00D+00
 Coeff-Com: -0.586D-01-0.347D-01 0.416D+00 0.677D+00
 Coeff:     -0.586D-01-0.347D-01 0.416D+00 0.677D+00
 Gap=     0.430 Goal=   None    Shift=    0.000
 RMSDP=2.74D-07 MaxDP=1.31D-05 DE=-1.06D-08 OVMax= 3.65D-05

 Cycle  10  Pass 1  IDiag  1:
 E= -132.535581915231     Delta-E=       -0.000000006442 Rises=F Damp=F
 DIIS: error= 1.02D-06 at cycle   5 NSaved=   5.
 NSaved= 5 IEnMin= 5 EnMin= -132.535581915231     IErMin= 5 ErrMin= 1.02D-06
 ErrMax= 1.02D-06  0.00D+00 EMaxC= 1.00D-01 BMatC= 8.87D-11 BMatP= 6.90D-09
 IDIUse=1 WtCom= 1.00D+00 WtEn= 0.00D+00
 Coeff-Com: -0.200D-01-0.189D-01 0.778D-01 0.188D+00 0.774D+00
 Coeff:     -0.200D-01-0.189D-01 0.778D-01 0.188D+00 0.774D+00
 Gap=     0.430 Goal=   None    Shift=    0.000
 RMSDP=4.39D-08 MaxDP=2.24D-06 DE=-6.44D-09 OVMax= 3.33D-06

 Cycle  11  Pass 1  IDiag  1:
 E= -132.535581915320     Delta-E=       -0.000000000088 Rises=F Damp=F
 DIIS: error= 1.86D-07 at cycle   6 NSaved=   6.
 NSaved= 6 IEnMin= 6 EnMin= -132.535581915320     IErMin= 6 ErrMin= 1.86D-07
 ErrMax= 1.86D-07  0.00D+00 EMaxC= 1.00D-01 BMatC= 5.76D-12 BMatP= 8.87D-11
 IDIUse=1 WtCom= 1.00D+00 WtEn= 0.00D+00
 Coeff-Com:  0.290D-02 0.676D-03-0.330D-01-0.299D-01 0.130D+00 0.929D+00
 Coeff:      0.290D-02 0.676D-03-0.330D-01-0.299D-01 0.130D+00 0.929D+00
 Gap=     0.430 Goal=   None    Shift=    0.000
 RMSDP=1.05D-08 MaxDP=4.23D-07 DE=-8.82D-11 OVMax= 1.56D-06

 Cycle  12  Pass 1  IDiag  1:
 E= -132.535581915329     Delta-E=       -0.000000000009 Rises=F Damp=F
 DIIS: error= 6.35D-08 at cycle   7 NSaved=   7.
 NSaved= 7 IEnMin= 7 EnMin= -132.535581915329     IErMin= 7 ErrMin= 6.35D-08
 ErrMax= 6.35D-08  0.00D+00 EMaxC= 1.00D-01 BMatC= 2.84D-13 BMatP= 5.76D-12
 IDIUse=1 WtCom= 1.00D+00 WtEn= 0.00D+00
 Coeff-Com:  0.501D-03 0.896D-03 0.222D-02-0.227D-02-0.632D-01-0.188D+00
 Coeff-Com:  0.125D+01
 Coeff:      0.501D-03 0.896D-03 0.222D-02-0.227D-02-0.632D-01-0.188D+00
 Coeff:      0.125D+01
 Gap=     0.430 Goal=   None    Shift=    0.000
 RMSDP=3.29D-09 MaxDP=1.14D-07 DE=-9.32D-12 OVMax= 7.96D-07

 SCF Done:  E(RB2PLYPD3) =  -132.535581915     A.U. after   12 cycles
            NFock= 12  Conv=0.33D-08     -V/T= 2.0030
 KE= 1.321368407407D+02 PE=-4.263966470526D+02 EE= 1.028687188685D+02
 Leave Link  502 at Wed Aug 26 14:47:51 2020, MaxMem=  2097152000 cpu:       104.4
 (Enter /opt/cluster/programs/g09/g09_d.01/g09/l801.exe)
 DoSCS=T DFT=T ScalE2(SS,OS)=  0.270000  0.270000
 ExpMin= 7.60D-02 ExpMax= 9.07D+04 ExpMxC= 8.76D+02 IAcc=3 IRadAn=         5 AccDes= 0.00D+00
 HarFok:  IExCor=  205 AccDes= 0.00D+00 IRadAn=         5 IDoV=-2 UseB2=F ITyADJ=14
 ICtDFT= 12500011 ScaDFX=  1.000000  1.000000  1.000000  1.000000
 Largest valence mixing into a core orbital is  1.16D-04
 Largest core mixing into a valence orbital is  1.89D-05
 Range of M.O.s used for correlation:     4   261
 NBasis=   261 NAE=    11 NBE=    11 NFC=     3 NFV=     0
 NROrb=    258 NOA=     8 NOB=     8 NVA=   250 NVB=   250

 **** Warning!!: The largest alpha MO coefficient is  0.31857078D+02

 Leave Link  801 at Wed Aug 26 14:47:51 2020, MaxMem=  2097152000 cpu:         0.6
 (Enter /opt/cluster/programs/g09/g09_d.01/g09/l906.exe)
 DoSCS=T DFT=T ScalE2(SS,OS)=  0.270000  0.270000
 FulOut=F Deriv=F AODrv=F NAtomX=     6
   MMem=        2666  MDisk=           8 MDiskD=           8
  W3Min=      642000 MinDsk=     1426009 NBas6D=         321
 NBas2D=       52689    NTT=       51681    LW2=     4508827
    MDV=  2096809107 MDiskM=       14501 NBas2p=       52191
 Fully direct method using O(OVN) memory.
 IMap=   1   2   3   4   5   6   7   8
 JobTyp=1 Pass  1:  I=   1 to   8 NPSUse=  8 ParTrn=T ParDer=T DoDerP=F.
 Spin components of T(2) and E(2):
     alpha-alpha T2 =       0.3515225926D-01 E2=     -0.2131141552D-01
     alpha-beta  T2 =       0.2054548498D+00 E2=     -0.1370297091D+00
     beta-beta   T2 =       0.3515225926D-01 E2=     -0.2131141552D-01
 The integrals were generated   1 times.
 E2(B2PLYPD3) =    -0.1796525401D+00 E(B2PLYPD3) =    -0.13271523445544D+03
 Leave Link  906 at Wed Aug 26 14:48:04 2020, MaxMem=  2097152000 cpu:       100.6
 (Enter /opt/cluster/programs/g09/g09_d.01/g09/l601.exe)
 Copying SCF densities to generalized density rwf, IOpCl= 0 IROHF=0.

 **********************************************************************

            Population analysis using the SCF density.

 **********************************************************************

 Orbital symmetries:
       Occupied  (A) (A) (A) (A) (A) (A) (A) (A) (A) (A) (A)
       Virtual   (A) (A) (A) (A) (A) (A) (A) (A) (A) (A) (A) (A)
                 (A) (A) (A) (A) (A) (A) (A) (A) (A) (A) (A) (A)
                 (A) (A) (A) (A) (A) (A) (A) (A) (A) (A) (A) (A)
                 (A) (A) (A) (A) (A) (A) (A) (A) (A) (A) (A) (A)
                 (A) (A) (A) (A) (A) (A) (A) (A) (A) (A) (A) (A)
                 (A) (A) (A) (A) (A) (A) (A) (A) (A) (A) (A) (A)
                 (A) (A) (A) (A) (A) (A) (A) (A) (A) (A) (A) (A)
                 (A) (A) (A) (A) (A) (A) (A) (A) (A) (A) (A) (A)
                 (A) (A) (A) (A) (A) (A) (A) (A) (A) (A) (A) (A)
                 (A) (A) (A) (A) (A) (A) (A) (A) (A) (A) (A) (A)
                 (A) (A) (A) (A) (A) (A) (A) (A) (A) (A) (A) (A)
                 (A) (A) (A) (A) (A) (A) (A) (A) (A) (A) (A) (A)
                 (A) (A) (A) (A) (A) (A) (A) (A) (A) (A) (A) (A)
                 (A) (A) (A) (A) (A) (A) (A) (A) (A) (A) (A) (A)
                 (A) (A) (A) (A) (A) (A) (A) (A) (A) (A) (A) (A)
                 (A) (A) (A) (A) (A) (A) (A) (A) (A) (A) (A) (A)
                 (A) (A) (A) (A) (A) (A) (A) (A) (A) (A) (A) (A)
                 (A) (A) (A) (A) (A) (A) (A) (A) (A) (A) (A) (A)
                 (A) (A) (A) (A) (A) (A) (A) (A) (A) (A) (A) (A)
                 (A) (A) (A) (A) (A) (A) (A) (A) (A) (A) (A) (A)
                 (A) (A) (A) (A) (A) (A) (A) (A) (A) (A)
 The electronic state is 1-A.
 Alpha  occ. eigenvalues --  -14.83865 -10.66820 -10.65904  -1.04391  -0.89480
 Alpha  occ. eigenvalues --   -0.59380  -0.54372  -0.54244  -0.44672  -0.39273
 Alpha  occ. eigenvalues --   -0.39165
 Alpha virt. eigenvalues --    0.03807   0.08060   0.08464   0.10200   0.11474
 Alpha virt. eigenvalues --    0.11585   0.15419   0.15792   0.16698   0.20059
 Alpha virt. eigenvalues --    0.20086   0.25386   0.32917   0.34536   0.34975
 Alpha virt. eigenvalues --    0.38876   0.39879   0.39956   0.40827   0.47158
 Alpha virt. eigenvalues --    0.50561   0.52365   0.58959   0.60123   0.61528
 Alpha virt. eigenvalues --    0.66760   0.67415   0.69124   0.70409   0.78984
 Alpha virt. eigenvalues --    0.79427   0.82345   0.82465   0.83722   0.86884
 Alpha virt. eigenvalues --    0.91224   0.93667   0.95769   0.96868   0.98240
 Alpha virt. eigenvalues --    1.06311   1.07816   1.07925   1.11781   1.13455
 Alpha virt. eigenvalues --    1.15039   1.22771   1.23482   1.23820   1.35291
 Alpha virt. eigenvalues --    1.36526   1.46711   1.47104   1.48824   1.54516
 Alpha virt. eigenvalues --    1.64835   1.66938   1.70114   1.74248   1.78024
 Alpha virt. eigenvalues --    1.78757   1.79317   1.88047   1.91961   1.92736
 Alpha virt. eigenvalues --    1.94887   1.98974   2.00434   2.00864   2.04185
 Alpha virt. eigenvalues --    2.06166   2.12189   2.13105   2.19545   2.21197
 Alpha virt. eigenvalues --    2.23616   2.24078   2.25350   2.35259   2.36941
 Alpha virt. eigenvalues --    2.43057   2.50909   2.52277   2.57947   2.58446
 Alpha virt. eigenvalues --    2.60118   2.67522   2.70626   2.72071   2.73665
 Alpha virt. eigenvalues --    2.77454   2.78557   2.87765   2.89403   2.91355
 Alpha virt. eigenvalues --    2.94163   2.94945   2.96515   2.97530   3.07073
 Alpha virt. eigenvalues --    3.11377   3.13064   3.21774   3.28965   3.32206
 Alpha virt. eigenvalues --    3.37095   3.39717   3.41314   3.42283   3.48540
 Alpha virt. eigenvalues --    3.55172   3.58892   3.71763   3.75289   3.77137
 Alpha virt. eigenvalues --    3.89623   3.93269   3.94183   3.97474   3.98734
 Alpha virt. eigenvalues --    4.02638   4.05174   4.05901   4.25919   4.26917
 Alpha virt. eigenvalues --    4.57038   4.91234   4.91406   5.08365   5.11555
 Alpha virt. eigenvalues --    5.13109   5.17411   5.21654   5.22105   5.26956
 Alpha virt. eigenvalues --    5.30054   5.44729   5.46033   5.47562   5.65391
 Alpha virt. eigenvalues --    5.68554   5.86159   5.87160   5.91009   5.93059
 Alpha virt. eigenvalues --    5.95222   5.97646   5.99646   6.01464   6.03393
 Alpha virt. eigenvalues --    6.04691   6.05217   6.06524   6.08582   6.14659
 Alpha virt. eigenvalues --    6.20583   6.21702   6.23657   6.29840   6.31534
 Alpha virt. eigenvalues --    6.43589   6.45618   6.49077   6.57062   6.61719
 Alpha virt. eigenvalues --    6.64775   6.65199   6.91745   6.92859   6.96981
 Alpha virt. eigenvalues --    6.98050   7.02921   7.02931   7.09539   7.11624
 Alpha virt. eigenvalues --    7.19379   7.22839   7.28295   7.48252   7.49126
 Alpha virt. eigenvalues --    7.51314   7.53172   7.57664   7.60111   7.64274
 Alpha virt. eigenvalues --    7.68877   7.73411   7.73848   7.84929   7.85488
 Alpha virt. eigenvalues --    7.86886   7.92060   7.97576   8.07070   8.28440
 Alpha virt. eigenvalues --    8.30768   8.37544   8.43610   8.44292   8.47071
 Alpha virt. eigenvalues --    8.47578   8.49262   8.51237   8.54200   8.57727
 Alpha virt. eigenvalues --    8.62626   8.66044   8.67174   8.67266   8.69339
 Alpha virt. eigenvalues --    8.73400   8.84354   8.88048   8.90653   9.05275
 Alpha virt. eigenvalues --    9.07707   9.14897   9.16831   9.18605   9.19533
 Alpha virt. eigenvalues --    9.28639   9.30251   9.76385   9.79573   9.88369
 Alpha virt. eigenvalues --    9.93201   9.95112  10.00764  10.02306  10.13823
 Alpha virt. eigenvalues --   10.18074  10.18962  10.20666  10.33321  10.49248
 Alpha virt. eigenvalues --   10.51809  10.71877  11.39209  11.72659  11.75904
 Alpha virt. eigenvalues --   12.01622  12.05937  13.16233  13.61252  29.22724
 Alpha virt. eigenvalues --   29.57280  38.35001 148.89183 149.21140 198.27603
          Condensed to atoms (all electrons):
               1          2          3          4          5          6
     1  C    4.602211   0.301396  -0.058489   0.416523   0.411883   0.415012
     2  C    0.301396   4.842597   0.993393  -0.045752  -0.048392  -0.039105
     3  N   -0.058489   0.993393   6.270635  -0.001249  -0.000538  -0.000604
     4  H    0.416523  -0.045752  -0.001249   0.589974  -0.028915  -0.029983
     5  H    0.411883  -0.048392  -0.000538  -0.028915   0.597967  -0.030161
     6  H    0.415012  -0.039105  -0.000604  -0.029983  -0.030161   0.586577
 Mulliken charges:
               1
     1  C   -0.088538
     2  C   -0.004136
     3  N   -0.203148
     4  H    0.099402
     5  H    0.098156
     6  H    0.098264
 Sum of Mulliken charges =   0.00000
 Mulliken charges with hydrogens summed into heavy atoms:
               1
     1  C    0.207285
     2  C   -0.004136
     3  N   -0.203148
 Electronic spatial extent (au):  <R**2>=            160.3506
 Charge=              0.0000 electrons
 Dipole moment (field-independent basis, Debye):
    X=             -4.1083    Y=             -0.0024    Z=              0.0298  Tot=              4.1084
 Quadrupole moment (field-independent basis, Debye-Ang):
   XX=            -21.0872   YY=            -17.6468   ZZ=            -17.7036
   XY=              0.0077   XZ=              0.0854   YZ=              0.0058
 Traceless Quadrupole moment (field-independent basis, Debye-Ang):
   XX=             -2.2747   YY=              1.1657   ZZ=              1.1090
   XY=              0.0077   XZ=              0.0854   YZ=              0.0058
 Octapole moment (field-independent basis, Debye-Ang**2):
  XXX=            -12.6238  YYY=              0.1141  ZZZ=              0.8140  XYY=             -2.3201
  XXY=             -0.1823  XXZ=             -0.2084  XZZ=             -2.1509  YZZ=              0.0577
  YYZ=             -0.7934  XYZ=             -0.0492
 Hexadecapole moment (field-independent basis, Debye-Ang**3):
 XXXX=           -180.6465 YYYY=            -24.4621 ZZZZ=            -24.3052 XXXY=              0.3583
 XXXZ=              0.6174 YYYX=              0.0206 YYYZ=             -0.0684 ZZZX=             -1.3083
 ZZZY=              0.0402 XXYY=            -30.5952 XXZZ=            -31.0139 YYZZ=             -8.1540
 XXYZ=              0.1678 YYXZ=              1.3174 ZZXY=             -0.0258
 N-N= 5.885550552808D+01 E-N=-4.263966481727D+02  KE= 1.321368407407D+02
 Leave Link  601 at Wed Aug 26 14:48:04 2020, MaxMem=  2097152000 cpu:         0.3
 (Enter /opt/cluster/programs/g09/g09_d.01/g09/l9999.exe)
 1\1\GINC-NODE32\SP\RB2PLYPD3-FC\def2QZVP\C2H3N1\BOITTIER\26-Aug-2020\0
 \\#p B2PLYPD3/Def2QZVP\\cyanomethane\\0,1\C,0,-6.59693,-1.106886,1.173
 615\C,0,-5.202988,-0.797367,0.881861\N,0,-4.098879,-0.537941,0.71447\H
 ,0,-6.7162,-1.207288,2.248151\H,0,-6.790089,-2.052006,0.706307\H,0,-7.
 273668,-0.356076,0.785328\\Version=ES64L-G09RevD.01\State=1-A\HF=-132.
 5355819\MP2=-132.7152345\RMSD=3.293e-09\PG=C01 [X(C2H3N1)]\\@


 ART, GLORY, FREEDOM FAIL, BUT NATURE STILL IS FAIR.

                                           -- BYRON
 Job cpu time:       0 days  0 hours  3 minutes 33.7 seconds.
 File lengths (MBytes):  RWF=     28 Int=      0 D2E=      0 Chk=      5 Scr=      1
 Normal termination of Gaussian 09 at Wed Aug 26 14:48:04 2020.
