 Entering Gaussian System, Link 0=/opt/cluster/programs/g09/g09_d.01/g09//g09
 Input=/home/boittier/MDCM/nms_sampling/cyanomethane_geom.xyz.dir/energies/cyanomethane_1015_energy.com
 Output=/scratch/boittier/cyanomethane_1015_energy/cyanomethane_1015_energy.out
 Initial command:
 /opt/cluster/programs/g09/g09_d.01/g09/l1.exe "/scratch/boittier/cyanomethane_1015_energy/Gau-245738.inp" -scrdir="/scratch/boittier/cyanomethane_1015_energy/"
 Entering Link 1 = /opt/cluster/programs/g09/g09_d.01/g09/l1.exe PID=    245739.
  
 Copyright (c) 1988,1990,1992,1993,1995,1998,2003,2009,2013,
            Gaussian, Inc.  All Rights Reserved.
  
 This is part of the Gaussian(R) 09 program.  It is based on
 the Gaussian(R) 03 system (copyright 2003, Gaussian, Inc.),
 the Gaussian(R) 98 system (copyright 1998, Gaussian, Inc.),
 the Gaussian(R) 94 system (copyright 1995, Gaussian, Inc.),
 the Gaussian 92(TM) system (copyright 1992, Gaussian, Inc.),
 the Gaussian 90(TM) system (copyright 1990, Gaussian, Inc.),
 the Gaussian 88(TM) system (copyright 1988, Gaussian, Inc.),
 the Gaussian 86(TM) system (copyright 1986, Carnegie Mellon
 University), and the Gaussian 82(TM) system (copyright 1983,
 Carnegie Mellon University). Gaussian is a federally registered
 trademark of Gaussian, Inc.
  
 This software contains proprietary and confidential information,
 including trade secrets, belonging to Gaussian, Inc.
  
 This software is provided under written license and may be
 used, copied, transmitted, or stored only in accord with that
 written license.
  
 The following legend is applicable only to US Government
 contracts under FAR:
  
                    RESTRICTED RIGHTS LEGEND
  
 Use, reproduction and disclosure by the US Government is
 subject to restrictions as set forth in subparagraphs (a)
 and (c) of the Commercial Computer Software - Restricted
 Rights clause in FAR 52.227-19.
  
 Gaussian, Inc.
 340 Quinnipiac St., Bldg. 40, Wallingford CT 06492
  
  
 ---------------------------------------------------------------
 Warning -- This program may not be used in any manner that
 competes with the business of Gaussian, Inc. or will provide
 assistance to any competitor of Gaussian, Inc.  The licensee
 of this program is prohibited from giving any competitor of
 Gaussian, Inc. access to this program.  By using this program,
 the user acknowledges that Gaussian, Inc. is engaged in the
 business of creating and licensing software in the field of
 computational chemistry and represents and warrants to the
 licensee that it is not a competitor of Gaussian, Inc. and that
 it will not use this program in any manner prohibited above.
 ---------------------------------------------------------------
  

 Cite this work as:
 Gaussian 09, Revision D.01,
 M. J. Frisch, G. W. Trucks, H. B. Schlegel, G. E. Scuseria, 
 M. A. Robb, J. R. Cheeseman, G. Scalmani, V. Barone, B. Mennucci, 
 G. A. Petersson, H. Nakatsuji, M. Caricato, X. Li, H. P. Hratchian, 
 A. F. Izmaylov, J. Bloino, G. Zheng, J. L. Sonnenberg, M. Hada, 
 M. Ehara, K. Toyota, R. Fukuda, J. Hasegawa, M. Ishida, T. Nakajima, 
 Y. Honda, O. Kitao, H. Nakai, T. Vreven, J. A. Montgomery, Jr., 
 J. E. Peralta, F. Ogliaro, M. Bearpark, J. J. Heyd, E. Brothers, 
 K. N. Kudin, V. N. Staroverov, T. Keith, R. Kobayashi, J. Normand, 
 K. Raghavachari, A. Rendell, J. C. Burant, S. S. Iyengar, J. Tomasi, 
 M. Cossi, N. Rega, J. M. Millam, M. Klene, J. E. Knox, J. B. Cross, 
 V. Bakken, C. Adamo, J. Jaramillo, R. Gomperts, R. E. Stratmann, 
 O. Yazyev, A. J. Austin, R. Cammi, C. Pomelli, J. W. Ochterski, 
 R. L. Martin, K. Morokuma, V. G. Zakrzewski, G. A. Voth, 
 P. Salvador, J. J. Dannenberg, S. Dapprich, A. D. Daniels, 
 O. Farkas, J. B. Foresman, J. V. Ortiz, J. Cioslowski, 
 and D. J. Fox, Gaussian, Inc., Wallingford CT, 2013.
 
 ******************************************
 Gaussian 09:  ES64L-G09RevD.01 24-Apr-2013
                26-Aug-2020 
 ******************************************
 %chk=/home/boittier/MDCM/nms_sampling/cyanomethane_geom.xyz.dir/cyanomethane_101
 5.chk
 %nproc=8
 Will use up to    8 processors via shared memory.
 %mem=16000MB
 --------------------
 #p B2PLYPD3/Def2QZVP
 --------------------
 1/38=1/1;
 2/12=2,17=6,18=5,40=1/2;
 3/5=45,7=101,11=9,16=1,25=1,30=1,74=-60/1,2,3;
 4//1;
 5/5=2,38=5/2;
 8/10=1/1;
 9/16=-3/6;
 6/7=2,8=2,9=2,10=2/1;
 99/5=1,9=1/99;
 Leave Link    1 at Wed Aug 26 09:33:18 2020, MaxMem=  2097152000 cpu:         0.3
 (Enter /opt/cluster/programs/g09/g09_d.01/g09/l101.exe)
 ------------
 cyanomethane
 ------------
 Symbolic Z-matrix:
 Charge =  0 Multiplicity = 1
 C                    -6.59505  -1.12058   1.17147 
 C                    -5.19938  -0.79208   0.91277 
 N                    -4.09253  -0.53686   0.69763 
 H                    -6.74564  -1.18759   2.21806 
 H                    -6.90275  -2.0318    0.66151 
 H                    -7.2859   -0.29781   0.75907 
 
 NAtoms=      6 NQM=        6 NQMF=       0 NMMI=      0 NMMIF=      0
                NMic=       0 NMicF=      0.
                    Isotopes and Nuclear Properties:
 (Nuclear quadrupole moments (NQMom) in fm**2, nuclear magnetic moments (NMagM)
  in nuclear magnetons)

  Atom         1           2           3           4           5           6
 IAtWgt=          12          12          14           1           1           1
 AtmWgt=  12.0000000  12.0000000  14.0030740   1.0078250   1.0078250   1.0078250
 NucSpn=           0           0           2           1           1           1
 AtZEff=   0.0000000   0.0000000   0.0000000   0.0000000   0.0000000   0.0000000
 NQMom=    0.0000000   0.0000000   2.0440000   0.0000000   0.0000000   0.0000000
 NMagM=    0.0000000   0.0000000   0.4037610   2.7928460   2.7928460   2.7928460
 AtZNuc=   6.0000000   6.0000000   7.0000000   1.0000000   1.0000000   1.0000000
 Leave Link  101 at Wed Aug 26 09:33:18 2020, MaxMem=  2097152000 cpu:         0.5
 (Enter /opt/cluster/programs/g09/g09_d.01/g09/l202.exe)
                          Input orientation:                          
 ---------------------------------------------------------------------
 Center     Atomic      Atomic             Coordinates (Angstroms)
 Number     Number       Type             X           Y           Z
 ---------------------------------------------------------------------
      1          6           0       -6.595046   -1.120582    1.171473
      2          6           0       -5.199384   -0.792084    0.912767
      3          7           0       -4.092528   -0.536863    0.697627
      4          1           0       -6.745642   -1.187585    2.218064
      5          1           0       -6.902749   -2.031799    0.661510
      6          1           0       -7.285897   -0.297808    0.759073
 ---------------------------------------------------------------------
                    Distance matrix (angstroms):
                    1          2          3          4          5
     1  C    0.000000
     2  C    1.456953   0.000000
     3  N    2.613016   1.156094   0.000000
     4  H    1.059491   2.061828   3.126369   0.000000
     5  H    1.088605   2.121668   3.183313   1.777706   0.000000
     6  H    1.150785   2.149760   3.202894   1.792270   1.778495
                    6
     6  H    0.000000
 Stoichiometry    C2H3N
 Framework group  C1[X(C2H3N)]
 Deg. of freedom    12
 Full point group                 C1      NOp   1
 Largest Abelian subgroup         C1      NOp   1
 Largest concise Abelian subgroup C1      NOp   1
                         Standard orientation:                         
 ---------------------------------------------------------------------
 Center     Atomic      Atomic             Coordinates (Angstroms)
 Number     Number       Type             X           Y           Z
 ---------------------------------------------------------------------
      1          6           0        1.176035   -0.016173    0.003298
      2          6           0       -0.280867   -0.005545   -0.002752
      3          7           0       -1.436874    0.007580    0.002701
      4          1           0        1.517820   -0.824654   -0.590050
      5          1           0        1.581206   -0.058450    1.012808
      6          1           0        1.588084    0.960350   -0.444946
 ---------------------------------------------------------------------
 Rotational constants (GHZ):    157.6197026      9.2063590      9.2001136
 Leave Link  202 at Wed Aug 26 09:33:18 2020, MaxMem=  2097152000 cpu:         0.0
 (Enter /opt/cluster/programs/g09/g09_d.01/g09/l301.exe)
 Standard basis: def2QZVP (5D, 7F)
 Ernie: Thresh=  0.10000D-02 Tol=  0.10000D-05 Strict=F.
 There are   321 symmetry adapted cartesian basis functions of A   symmetry.
 There are   261 symmetry adapted basis functions of A   symmetry.
   261 basis functions,   390 primitive gaussians,   321 cartesian basis functions
    11 alpha electrons       11 beta electrons
       nuclear repulsion energy        58.3870579119 Hartrees.
 IExCor=  419 DFT=T Ex+Corr=B2PLYPD3 ExCW=0 ScaHFX=  0.530000
 ScaDFX=  0.470000  0.470000  0.730000  0.730000 ScalE2=  0.270000  0.270000
 IRadAn=      0 IRanWt=     -1 IRanGd=            0 ICorTp=0 IEmpDi=141
 NAtoms=    6 NActive=    6 NUniq=    6 SFac= 1.00D+00 NAtFMM=   60 NAOKFM=F Big=F
 Integral buffers will be    131072 words long.
 Regular integral format.
 Two-electron integral symmetry is turned on.
 R6Disp:  Grimme-D3(BJ) Dispersion energy=       -0.0020991115 Hartrees.
 Nuclear repulsion after empirical dispersion term =       58.3849588004 Hartrees.
 Leave Link  301 at Wed Aug 26 09:33:18 2020, MaxMem=  2097152000 cpu:         0.4
 (Enter /opt/cluster/programs/g09/g09_d.01/g09/l302.exe)
 NPDir=0 NMtPBC=     1 NCelOv=     1 NCel=       1 NClECP=     1 NCelD=      1
         NCelK=      1 NCelE2=     1 NClLst=     1 CellRange=     0.0.
 One-electron integrals computed using PRISM.
   1 Symmetry operations used in ECPInt.
 ECPInt:  NShTT=    3321 NPrTT=    8136 LenC2=    3293 LenP2D=    7125.
 LDataN:  DoStor=T MaxTD1= 8 Len=  415
 NBasis=   261 RedAO= T EigKep=  8.21D-05  NBF=   261
 NBsUse=   261 1.00D-06 EigRej= -1.00D+00 NBFU=   261
 Precomputing XC quadrature grid using
 IXCGrd= 4 IRadAn=           0 IRanWt=          -1 IRanGd=           0 AccXCQ= 0.00D+00.
 Generated NRdTot=       0 NPtTot=           0 NUsed=           0 NTot=          32
 NSgBfM=   321   321   321   321   321 MxSgAt=     6 MxSgA2=     6.
 Leave Link  302 at Wed Aug 26 09:33:18 2020, MaxMem=  2097152000 cpu:         2.3
 (Enter /opt/cluster/programs/g09/g09_d.01/g09/l303.exe)
 DipDrv:  MaxL=1.
 Leave Link  303 at Wed Aug 26 09:33:19 2020, MaxMem=  2097152000 cpu:         0.2
 (Enter /opt/cluster/programs/g09/g09_d.01/g09/l401.exe)
 ExpMin= 7.60D-02 ExpMax= 9.07D+04 ExpMxC= 8.76D+02 IAcc=2 IRadAn=         4 AccDes= 0.00D+00
 Harris functional with IExCor=  419 and IRadAn=       4 diagonalized for initial guess.
 HarFok:  IExCor=  419 AccDes= 0.00D+00 IRadAn=         4 IDoV= 1 UseB2=F ITyADJ=14
 ICtDFT=  3500011 ScaDFX=  1.000000  1.000000  1.000000  1.000000
 FoFCou: FMM=F IPFlag=           0 FMFlag=      100000 FMFlg1=           0
         NFxFlg=           0 DoJE=T BraDBF=F KetDBF=T FulRan=T
         wScrn=  0.000000 ICntrl=     500 IOpCl=  0 I1Cent=   200000004 NGrid=           0
         NMat0=    1 NMatS0=      1 NMatT0=    0 NMatD0=    1 NMtDS0=    0 NMtDT0=    0
 Petite list used in FoFCou.
 Harris En= -132.847934922366    
 JPrj=0 DoOrth=F DoCkMO=F.
 Leave Link  401 at Wed Aug 26 09:33:20 2020, MaxMem=  2097152000 cpu:         4.4
 (Enter /opt/cluster/programs/g09/g09_d.01/g09/l502.exe)
 Closed shell SCF:
 Using DIIS extrapolation, IDIIS=  1040.
 Integral symmetry usage will be decided dynamically.
 Keep R1 ints in memory in canonical form, NReq=601554820.
 IVT=      332521 IEndB=      332521 NGot=  2097152000 MDV=  1512290144
 LenX=  1512290144 LenY=  1512186662
 Requested convergence on RMS density matrix=1.00D-08 within 128 cycles.
 Requested convergence on MAX density matrix=1.00D-06.
 Requested convergence on             energy=1.00D-06.
 No special actions if energy rises.
 FoFCou: FMM=F IPFlag=           0 FMFlag=           0 FMFlg1=           0
         NFxFlg=           0 DoJE=F BraDBF=F KetDBF=F FulRan=T
         wScrn=  0.000000 ICntrl=     600 IOpCl=  0 I1Cent=           0 NGrid=           0
         NMat0=    1 NMatS0=  34191 NMatT0=    0 NMatD0=    1 NMtDS0=    0 NMtDT0=    0
 Symmetry not used in FoFCou.
 Integral accuracy reduced to 1.0D-05 until final iterations.

 Cycle   1  Pass 0  IDiag  1:
 E= -132.420302608854    
 DIIS: error= 2.64D-02 at cycle   1 NSaved=   1.
 NSaved= 1 IEnMin= 1 EnMin= -132.420302608854     IErMin= 1 ErrMin= 2.64D-02
 ErrMax= 2.64D-02  0.00D+00 EMaxC= 1.00D-01 BMatC= 1.88D-01 BMatP= 1.88D-01
 IDIUse=3 WtCom= 7.36D-01 WtEn= 2.64D-01
 Coeff-Com:  0.100D+01
 Coeff-En:   0.100D+01
 Coeff:      0.100D+01
 Gap=     0.452 Goal=   None    Shift=    0.000
 GapD=    0.452 DampG=2.000 DampE=0.500 DampFc=1.0000 IDamp=-1.
 RMSDP=1.29D-03 MaxDP=6.75D-02              OVMax= 1.68D-01

 Cycle   2  Pass 0  IDiag  1:
 E= -132.451099998593     Delta-E=       -0.030797389739 Rises=F Damp=F
 DIIS: error= 3.29D-02 at cycle   2 NSaved=   2.
 NSaved= 2 IEnMin= 2 EnMin= -132.451099998593     IErMin= 1 ErrMin= 2.64D-02
 ErrMax= 3.29D-02  0.00D+00 EMaxC= 1.00D-01 BMatC= 9.56D-02 BMatP= 1.88D-01
 IDIUse=3 WtCom= 6.71D-01 WtEn= 3.29D-01
 Coeff-Com:  0.400D+00 0.600D+00
 Coeff-En:   0.404D+00 0.596D+00
 Coeff:      0.401D+00 0.599D+00
 Gap=     0.433 Goal=   None    Shift=    0.000
 RMSDP=8.56D-04 MaxDP=3.47D-02 DE=-3.08D-02 OVMax= 1.23D-01

 Cycle   3  Pass 0  IDiag  1:
 E= -132.516305551666     Delta-E=       -0.065205553072 Rises=F Damp=F
 DIIS: error= 1.34D-02 at cycle   3 NSaved=   3.
 NSaved= 3 IEnMin= 3 EnMin= -132.516305551666     IErMin= 3 ErrMin= 1.34D-02
 ErrMax= 1.34D-02  0.00D+00 EMaxC= 1.00D-01 BMatC= 1.97D-02 BMatP= 9.56D-02
 IDIUse=3 WtCom= 8.66D-01 WtEn= 1.34D-01
 Coeff-Com:  0.948D-01 0.322D+00 0.583D+00
 Coeff-En:   0.000D+00 0.124D+00 0.876D+00
 Coeff:      0.821D-01 0.296D+00 0.622D+00
 Gap=     0.426 Goal=   None    Shift=    0.000
 RMSDP=2.66D-04 MaxDP=9.63D-03 DE=-6.52D-02 OVMax= 5.87D-02

 Cycle   4  Pass 0  IDiag  1:
 E= -132.529865801219     Delta-E=       -0.013560249554 Rises=F Damp=F
 DIIS: error= 4.84D-03 at cycle   4 NSaved=   4.
 NSaved= 4 IEnMin= 4 EnMin= -132.529865801219     IErMin= 4 ErrMin= 4.84D-03
 ErrMax= 4.84D-03  0.00D+00 EMaxC= 1.00D-01 BMatC= 2.94D-03 BMatP= 1.97D-02
 IDIUse=3 WtCom= 9.52D-01 WtEn= 4.84D-02
 Coeff-Com: -0.126D-01 0.548D-01 0.328D+00 0.630D+00
 Coeff-En:   0.000D+00 0.000D+00 0.139D+00 0.861D+00
 Coeff:     -0.120D-01 0.522D-01 0.319D+00 0.641D+00
 Gap=     0.425 Goal=   None    Shift=    0.000
 RMSDP=8.96D-05 MaxDP=2.79D-03 DE=-1.36D-02 OVMax= 1.53D-02

 Cycle   5  Pass 0  IDiag  1:
 E= -132.532420137693     Delta-E=       -0.002554336473 Rises=F Damp=F
 DIIS: error= 3.14D-04 at cycle   5 NSaved=   5.
 NSaved= 5 IEnMin= 5 EnMin= -132.532420137693     IErMin= 5 ErrMin= 3.14D-04
 ErrMax= 3.14D-04  0.00D+00 EMaxC= 1.00D-01 BMatC= 1.30D-05 BMatP= 2.94D-03
 IDIUse=3 WtCom= 9.97D-01 WtEn= 3.14D-03
 Coeff-Com: -0.351D-02 0.561D-02 0.482D-01 0.140D+00 0.810D+00
 Coeff-En:   0.000D+00 0.000D+00 0.000D+00 0.000D+00 0.100D+01
 Coeff:     -0.350D-02 0.559D-02 0.480D-01 0.140D+00 0.810D+00
 Gap=     0.425 Goal=   None    Shift=    0.000
 RMSDP=8.45D-06 MaxDP=3.22D-04 DE=-2.55D-03 OVMax= 1.17D-03

 Initial convergence to 1.0D-05 achieved.  Increase integral accuracy.
 Cycle   6  Pass 1  IDiag  1:
 E= -132.532433098488     Delta-E=       -0.000012960796 Rises=F Damp=F
 DIIS: error= 8.95D-05 at cycle   1 NSaved=   1.
 NSaved= 1 IEnMin= 1 EnMin= -132.532433098488     IErMin= 1 ErrMin= 8.95D-05
 ErrMax= 8.95D-05  0.00D+00 EMaxC= 1.00D-01 BMatC= 6.48D-07 BMatP= 6.48D-07
 IDIUse=1 WtCom= 1.00D+00 WtEn= 0.00D+00
 Coeff-Com:  0.100D+01
 Coeff:      0.100D+01
 Gap=     0.425 Goal=   None    Shift=    0.000
 RMSDP=8.45D-06 MaxDP=3.22D-04 DE=-1.30D-05 OVMax= 4.10D-04

 Cycle   7  Pass 1  IDiag  1:
 E= -132.532433488793     Delta-E=       -0.000000390305 Rises=F Damp=F
 DIIS: error= 3.93D-05 at cycle   2 NSaved=   2.
 NSaved= 2 IEnMin= 2 EnMin= -132.532433488793     IErMin= 2 ErrMin= 3.93D-05
 ErrMax= 3.93D-05  0.00D+00 EMaxC= 1.00D-01 BMatC= 2.93D-07 BMatP= 6.48D-07
 IDIUse=1 WtCom= 1.00D+00 WtEn= 0.00D+00
 Coeff-Com:  0.394D+00 0.606D+00
 Coeff:      0.394D+00 0.606D+00
 Gap=     0.425 Goal=   None    Shift=    0.000
 RMSDP=1.01D-06 MaxDP=3.93D-05 DE=-3.90D-07 OVMax= 1.72D-04

 Cycle   8  Pass 1  IDiag  1:
 E= -132.532433744165     Delta-E=       -0.000000255372 Rises=F Damp=F
 DIIS: error= 1.52D-05 at cycle   3 NSaved=   3.
 NSaved= 3 IEnMin= 3 EnMin= -132.532433744165     IErMin= 3 ErrMin= 1.52D-05
 ErrMax= 1.52D-05  0.00D+00 EMaxC= 1.00D-01 BMatC= 2.07D-08 BMatP= 2.93D-07
 IDIUse=1 WtCom= 1.00D+00 WtEn= 0.00D+00
 Coeff-Com:  0.105D+00 0.242D+00 0.653D+00
 Coeff:      0.105D+00 0.242D+00 0.653D+00
 Gap=     0.425 Goal=   None    Shift=    0.000
 RMSDP=5.73D-07 MaxDP=2.62D-05 DE=-2.55D-07 OVMax= 5.89D-05

 Cycle   9  Pass 1  IDiag  1:
 E= -132.532433756332     Delta-E=       -0.000000012167 Rises=F Damp=F
 DIIS: error= 9.99D-06 at cycle   4 NSaved=   4.
 NSaved= 4 IEnMin= 4 EnMin= -132.532433756332     IErMin= 4 ErrMin= 9.99D-06
 ErrMax= 9.99D-06  0.00D+00 EMaxC= 1.00D-01 BMatC= 7.33D-09 BMatP= 2.07D-08
 IDIUse=1 WtCom= 1.00D+00 WtEn= 0.00D+00
 Coeff-Com: -0.590D-01-0.344D-01 0.407D+00 0.686D+00
 Coeff:     -0.590D-01-0.344D-01 0.407D+00 0.686D+00
 Gap=     0.425 Goal=   None    Shift=    0.000
 RMSDP=2.80D-07 MaxDP=1.34D-05 DE=-1.22D-08 OVMax= 3.47D-05

 Cycle  10  Pass 1  IDiag  1:
 E= -132.532433763191     Delta-E=       -0.000000006860 Rises=F Damp=F
 DIIS: error= 1.03D-06 at cycle   5 NSaved=   5.
 NSaved= 5 IEnMin= 5 EnMin= -132.532433763191     IErMin= 5 ErrMin= 1.03D-06
 ErrMax= 1.03D-06  0.00D+00 EMaxC= 1.00D-01 BMatC= 9.94D-11 BMatP= 7.33D-09
 IDIUse=1 WtCom= 1.00D+00 WtEn= 0.00D+00
 Coeff-Com: -0.218D-01-0.200D-01 0.878D-01 0.208D+00 0.746D+00
 Coeff:     -0.218D-01-0.200D-01 0.878D-01 0.208D+00 0.746D+00
 Gap=     0.425 Goal=   None    Shift=    0.000
 RMSDP=4.45D-08 MaxDP=2.19D-06 DE=-6.86D-09 OVMax= 3.41D-06

 Cycle  11  Pass 1  IDiag  1:
 E= -132.532433763282     Delta-E=       -0.000000000090 Rises=F Damp=F
 DIIS: error= 1.76D-07 at cycle   6 NSaved=   6.
 NSaved= 6 IEnMin= 6 EnMin= -132.532433763282     IErMin= 6 ErrMin= 1.76D-07
 ErrMax= 1.76D-07  0.00D+00 EMaxC= 1.00D-01 BMatC= 5.06D-12 BMatP= 9.94D-11
 IDIUse=1 WtCom= 1.00D+00 WtEn= 0.00D+00
 Coeff-Com:  0.213D-02 0.135D-03-0.274D-01-0.216D-01 0.125D+00 0.922D+00
 Coeff:      0.213D-02 0.135D-03-0.274D-01-0.216D-01 0.125D+00 0.922D+00
 Gap=     0.425 Goal=   None    Shift=    0.000
 RMSDP=9.77D-09 MaxDP=4.52D-07 DE=-9.03D-11 OVMax= 9.34D-07

 SCF Done:  E(RB2PLYPD3) =  -132.532433763     A.U. after   11 cycles
            NFock= 11  Conv=0.98D-08     -V/T= 2.0040
 KE= 1.320060422403D+02 PE=-4.253389982050D+02 EE= 1.024155634011D+02
 Leave Link  502 at Wed Aug 26 09:33:41 2020, MaxMem=  2097152000 cpu:        99.6
 (Enter /opt/cluster/programs/g09/g09_d.01/g09/l801.exe)
 DoSCS=T DFT=T ScalE2(SS,OS)=  0.270000  0.270000
 ExpMin= 7.60D-02 ExpMax= 9.07D+04 ExpMxC= 8.76D+02 IAcc=3 IRadAn=         5 AccDes= 0.00D+00
 HarFok:  IExCor=  205 AccDes= 0.00D+00 IRadAn=         5 IDoV=-2 UseB2=F ITyADJ=14
 ICtDFT= 12500011 ScaDFX=  1.000000  1.000000  1.000000  1.000000
 Largest valence mixing into a core orbital is  1.16D-04
 Largest core mixing into a valence orbital is  1.94D-05
 Range of M.O.s used for correlation:     4   261
 NBasis=   261 NAE=    11 NBE=    11 NFC=     3 NFV=     0
 NROrb=    258 NOA=     8 NOB=     8 NVA=   250 NVB=   250

 **** Warning!!: The largest alpha MO coefficient is  0.27763158D+02

 Leave Link  801 at Wed Aug 26 09:33:42 2020, MaxMem=  2097152000 cpu:         1.7
 (Enter /opt/cluster/programs/g09/g09_d.01/g09/l906.exe)
 DoSCS=T DFT=T ScalE2(SS,OS)=  0.270000  0.270000
 FulOut=F Deriv=F AODrv=F NAtomX=     6
   MMem=        2666  MDisk=           8 MDiskD=           8
  W3Min=      642000 MinDsk=     1426009 NBas6D=         321
 NBas2D=       52689    NTT=       51681    LW2=     4508827
    MDV=  2096809517 MDiskM=       14501 NBas2p=       52131
 Fully direct method using O(OVN) memory.
 IMap=   1   2   3   4   5   6   7   8
 JobTyp=1 Pass  1:  I=   1 to   8 NPSUse=  8 ParTrn=T ParDer=T DoDerP=F.
 Spin components of T(2) and E(2):
     alpha-alpha T2 =       0.3592066646D-01 E2=     -0.2145578211D-01
     alpha-beta  T2 =       0.2101261779D+00 E2=     -0.1378664877D+00
     beta-beta   T2 =       0.3592066646D-01 E2=     -0.2145578211D-01
 The integrals were generated   1 times.
 E2(B2PLYPD3) =    -0.1807780519D+00 E(B2PLYPD3) =    -0.13271321181518D+03
 Leave Link  906 at Wed Aug 26 09:33:57 2020, MaxMem=  2097152000 cpu:       119.3
 (Enter /opt/cluster/programs/g09/g09_d.01/g09/l601.exe)
 Copying SCF densities to generalized density rwf, IOpCl= 0 IROHF=0.

 **********************************************************************

            Population analysis using the SCF density.

 **********************************************************************

 Orbital symmetries:
       Occupied  (A) (A) (A) (A) (A) (A) (A) (A) (A) (A) (A)
       Virtual   (A) (A) (A) (A) (A) (A) (A) (A) (A) (A) (A) (A)
                 (A) (A) (A) (A) (A) (A) (A) (A) (A) (A) (A) (A)
                 (A) (A) (A) (A) (A) (A) (A) (A) (A) (A) (A) (A)
                 (A) (A) (A) (A) (A) (A) (A) (A) (A) (A) (A) (A)
                 (A) (A) (A) (A) (A) (A) (A) (A) (A) (A) (A) (A)
                 (A) (A) (A) (A) (A) (A) (A) (A) (A) (A) (A) (A)
                 (A) (A) (A) (A) (A) (A) (A) (A) (A) (A) (A) (A)
                 (A) (A) (A) (A) (A) (A) (A) (A) (A) (A) (A) (A)
                 (A) (A) (A) (A) (A) (A) (A) (A) (A) (A) (A) (A)
                 (A) (A) (A) (A) (A) (A) (A) (A) (A) (A) (A) (A)
                 (A) (A) (A) (A) (A) (A) (A) (A) (A) (A) (A) (A)
                 (A) (A) (A) (A) (A) (A) (A) (A) (A) (A) (A) (A)
                 (A) (A) (A) (A) (A) (A) (A) (A) (A) (A) (A) (A)
                 (A) (A) (A) (A) (A) (A) (A) (A) (A) (A) (A) (A)
                 (A) (A) (A) (A) (A) (A) (A) (A) (A) (A) (A) (A)
                 (A) (A) (A) (A) (A) (A) (A) (A) (A) (A) (A) (A)
                 (A) (A) (A) (A) (A) (A) (A) (A) (A) (A) (A) (A)
                 (A) (A) (A) (A) (A) (A) (A) (A) (A) (A) (A) (A)
                 (A) (A) (A) (A) (A) (A) (A) (A) (A) (A) (A) (A)
                 (A) (A) (A) (A) (A) (A) (A) (A) (A) (A) (A) (A)
                 (A) (A) (A) (A) (A) (A) (A) (A) (A) (A)
 The electronic state is 1-A.
 Alpha  occ. eigenvalues --  -14.84287 -10.67418 -10.66359  -1.04085  -0.89033
 Alpha  occ. eigenvalues --   -0.59829  -0.54820  -0.52385  -0.44840  -0.39178
 Alpha  occ. eigenvalues --   -0.38848
 Alpha virt. eigenvalues --    0.03649   0.07308   0.08127   0.10170   0.11273
 Alpha virt. eigenvalues --    0.11686   0.15385   0.16265   0.16578   0.20032
 Alpha virt. eigenvalues --    0.20147   0.25345   0.32402   0.33787   0.35231
 Alpha virt. eigenvalues --    0.38713   0.39791   0.39958   0.40400   0.47250
 Alpha virt. eigenvalues --    0.50466   0.51383   0.58780   0.59441   0.61434
 Alpha virt. eigenvalues --    0.67015   0.68138   0.69254   0.69962   0.79212
 Alpha virt. eigenvalues --    0.79374   0.82131   0.82365   0.83476   0.86573
 Alpha virt. eigenvalues --    0.92146   0.93380   0.95566   0.96168   0.97069
 Alpha virt. eigenvalues --    1.05693   1.07114   1.08909   1.11798   1.13368
 Alpha virt. eigenvalues --    1.13729   1.22135   1.22671   1.23422   1.34865
 Alpha virt. eigenvalues --    1.35115   1.43763   1.46834   1.49553   1.54156
 Alpha virt. eigenvalues --    1.65750   1.65987   1.70289   1.73949   1.78061
 Alpha virt. eigenvalues --    1.78504   1.78776   1.89620   1.91748   1.92060
 Alpha virt. eigenvalues --    1.94112   1.98802   1.99731   2.01033   2.04605
 Alpha virt. eigenvalues --    2.06314   2.11696   2.15563   2.19739   2.21006
 Alpha virt. eigenvalues --    2.22001   2.23860   2.24922   2.33453   2.35717
 Alpha virt. eigenvalues --    2.42718   2.50042   2.51312   2.55628   2.58495
 Alpha virt. eigenvalues --    2.61108   2.66746   2.69938   2.71234   2.73741
 Alpha virt. eigenvalues --    2.75823   2.77306   2.86113   2.88519   2.90382
 Alpha virt. eigenvalues --    2.91726   2.93055   2.95328   2.96978   3.07318
 Alpha virt. eigenvalues --    3.08126   3.11742   3.21199   3.25572   3.30227
 Alpha virt. eigenvalues --    3.32150   3.37692   3.38701   3.40880   3.47512
 Alpha virt. eigenvalues --    3.52788   3.56698   3.71590   3.73241   3.74733
 Alpha virt. eigenvalues --    3.86483   3.90003   3.91543   3.95962   3.98005
 Alpha virt. eigenvalues --    4.00890   4.05128   4.05756   4.24256   4.24968
 Alpha virt. eigenvalues --    4.55690   4.90912   4.91028   5.08077   5.10534
 Alpha virt. eigenvalues --    5.11582   5.17197   5.17884   5.19514   5.20964
 Alpha virt. eigenvalues --    5.30323   5.43313   5.45241   5.47251   5.64212
 Alpha virt. eigenvalues --    5.65848   5.83831   5.85888   5.90347   5.92776
 Alpha virt. eigenvalues --    5.94157   5.95689   5.98457   5.99715   6.00153
 Alpha virt. eigenvalues --    6.01684   6.05131   6.06659   6.07100   6.12476
 Alpha virt. eigenvalues --    6.17128   6.18132   6.21153   6.24023   6.31722
 Alpha virt. eigenvalues --    6.40371   6.43202   6.48789   6.56008   6.59277
 Alpha virt. eigenvalues --    6.61091   6.63401   6.85584   6.90964   6.91793
 Alpha virt. eigenvalues --    6.96168   7.02604   7.02624   7.08896   7.09675
 Alpha virt. eigenvalues --    7.10968   7.13905   7.22143   7.41043   7.47258
 Alpha virt. eigenvalues --    7.49087   7.52309   7.55626   7.58153   7.59304
 Alpha virt. eigenvalues --    7.64786   7.72569   7.76298   7.81146   7.82665
 Alpha virt. eigenvalues --    7.85680   7.91376   7.96092   7.98305   8.24873
 Alpha virt. eigenvalues --    8.28282   8.34425   8.39446   8.42301   8.43166
 Alpha virt. eigenvalues --    8.45000   8.49473   8.52028   8.54633   8.58199
 Alpha virt. eigenvalues --    8.60118   8.62505   8.65750   8.66652   8.66757
 Alpha virt. eigenvalues --    8.70814   8.81262   8.85463   8.88111   8.97456
 Alpha virt. eigenvalues --    9.02819   9.06299   9.10650   9.13818   9.15569
 Alpha virt. eigenvalues --    9.25125   9.27031   9.66720   9.72345   9.73313
 Alpha virt. eigenvalues --    9.77006   9.86813   9.92871   9.93980  10.05782
 Alpha virt. eigenvalues --   10.15179  10.16538  10.19252  10.30517  10.34632
 Alpha virt. eigenvalues --   10.49844  10.67058  11.37706  11.68118  11.85607
 Alpha virt. eigenvalues --   12.00565  12.04989  13.07626  13.40824  29.16552
 Alpha virt. eigenvalues --   29.54083  38.31700 148.81960 149.17276 198.23570
          Condensed to atoms (all electrons):
               1          2          3          4          5          6
     1  C    4.610475   0.300659  -0.058904   0.413020   0.412005   0.407111
     2  C    0.300659   4.839233   0.987496  -0.045806  -0.040763  -0.040830
     3  N   -0.058904   0.987496   6.279996  -0.000426  -0.000805  -0.001188
     4  H    0.413020  -0.045806  -0.000426   0.589336  -0.029645  -0.028580
     5  H    0.412005  -0.040763  -0.000805  -0.029645   0.592142  -0.030828
     6  H    0.407111  -0.040830  -0.001188  -0.028580  -0.030828   0.603781
 Mulliken charges:
               1
     1  C   -0.084367
     2  C    0.000010
     3  N   -0.206169
     4  H    0.102100
     5  H    0.097893
     6  H    0.090533
 Sum of Mulliken charges =   0.00000
 Mulliken charges with hydrogens summed into heavy atoms:
               1
     1  C    0.206159
     2  C    0.000010
     3  N   -0.206169
 Electronic spatial extent (au):  <R**2>=            162.4964
 Charge=              0.0000 electrons
 Dipole moment (field-independent basis, Debye):
    X=              4.1277    Y=             -0.0135    Z=              0.0005  Tot=              4.1278
 Quadrupole moment (field-independent basis, Debye-Ang):
   XX=            -20.9733   YY=            -17.7951   ZZ=            -17.7833
   XY=              0.0963   XZ=              0.0512   YZ=              0.0833
 Traceless Quadrupole moment (field-independent basis, Debye-Ang):
   XX=             -2.1228   YY=              1.0555   ZZ=              1.0673
   XY=              0.0963   XZ=              0.0512   YZ=              0.0833
 Octapole moment (field-independent basis, Debye-Ang**2):
  XXX=             12.9123  YYY=              0.1095  ZZZ=              0.7849  XYY=              2.1978
  XXY=              0.1486  XXZ=              0.1558  XZZ=              2.2281  YZZ=             -0.2267
  YYZ=             -0.7851  XYZ=              0.0802
 Hexadecapole moment (field-independent basis, Debye-Ang**3):
 XXXX=           -182.9227 YYYY=            -25.0267 ZZZZ=            -24.7523 XXXY=              0.3410
 XXXZ=              0.4193 YYYX=              0.3065 YYYZ=              0.1017 ZZZX=              1.3872
 ZZZY=              0.2670 XXYY=            -31.3321 XXZZ=            -31.1718 YYZZ=             -8.2967
 XXYZ=              0.1025 YYXZ=             -1.3284 ZZXY=             -0.3458
 N-N= 5.838495880038D+01 E-N=-4.253389815972D+02  KE= 1.320060422403D+02
 Leave Link  601 at Wed Aug 26 09:33:59 2020, MaxMem=  2097152000 cpu:         0.4
 (Enter /opt/cluster/programs/g09/g09_d.01/g09/l9999.exe)
 1\1\GINC-NODE20\SP\RB2PLYPD3-FC\def2QZVP\C2H3N1\BOITTIER\26-Aug-2020\0
 \\#p B2PLYPD3/Def2QZVP\\cyanomethane\\0,1\C,0,-6.595046,-1.120582,1.17
 1473\C,0,-5.199384,-0.792084,0.912767\N,0,-4.092528,-0.536863,0.697627
 \H,0,-6.745642,-1.187585,2.218064\H,0,-6.902749,-2.031799,0.66151\H,0,
 -7.285897,-0.297808,0.759073\\Version=ES64L-G09RevD.01\State=1-A\HF=-1
 32.5324338\MP2=-132.7132118\RMSD=9.765e-09\PG=C01 [X(C2H3N1)]\\@


 AND HERE I AM, FOR ALL MY LORE,
 THE WRETCHED FOOL I WAS BEFORE.
 CALLED MASTER OF ARTS, AND DOCTOR TO BOOT,
 FOR TEN YEARS ALMOST I CONFUTE
 AND UP AND DOWN, WHEREVER IT GOES
 I DRAG MY STUDENTS BY THE NOSE --
 AND SEE THAT FOR ALL OUR SCIENCE AND ART
 WE CAN KNOW NOTHING.  IT BURNS MY HEART.

                                       -- FAUST
 Job cpu time:       0 days  0 hours  3 minutes 49.6 seconds.
 File lengths (MBytes):  RWF=     28 Int=      0 D2E=      0 Chk=      5 Scr=      1
 Normal termination of Gaussian 09 at Wed Aug 26 09:34:00 2020.
