 Entering Gaussian System, Link 0=/opt/cluster/programs/g09/g09_d.01/g09//g09
 Input=/home/boittier/MDCM/nms_sampling/cyanomethane_geom.xyz.dir/energies/cyanomethane_833_energy.com
 Output=/scratch/boittier/cyanomethane_833_energy/cyanomethane_833_energy.out
 Initial command:
 /opt/cluster/programs/g09/g09_d.01/g09/l1.exe "/scratch/boittier/cyanomethane_833_energy/Gau-124232.inp" -scrdir="/scratch/boittier/cyanomethane_833_energy/"
 Entering Link 1 = /opt/cluster/programs/g09/g09_d.01/g09/l1.exe PID=    124233.
  
 Copyright (c) 1988,1990,1992,1993,1995,1998,2003,2009,2013,
            Gaussian, Inc.  All Rights Reserved.
  
 This is part of the Gaussian(R) 09 program.  It is based on
 the Gaussian(R) 03 system (copyright 2003, Gaussian, Inc.),
 the Gaussian(R) 98 system (copyright 1998, Gaussian, Inc.),
 the Gaussian(R) 94 system (copyright 1995, Gaussian, Inc.),
 the Gaussian 92(TM) system (copyright 1992, Gaussian, Inc.),
 the Gaussian 90(TM) system (copyright 1990, Gaussian, Inc.),
 the Gaussian 88(TM) system (copyright 1988, Gaussian, Inc.),
 the Gaussian 86(TM) system (copyright 1986, Carnegie Mellon
 University), and the Gaussian 82(TM) system (copyright 1983,
 Carnegie Mellon University). Gaussian is a federally registered
 trademark of Gaussian, Inc.
  
 This software contains proprietary and confidential information,
 including trade secrets, belonging to Gaussian, Inc.
  
 This software is provided under written license and may be
 used, copied, transmitted, or stored only in accord with that
 written license.
  
 The following legend is applicable only to US Government
 contracts under FAR:
  
                    RESTRICTED RIGHTS LEGEND
  
 Use, reproduction and disclosure by the US Government is
 subject to restrictions as set forth in subparagraphs (a)
 and (c) of the Commercial Computer Software - Restricted
 Rights clause in FAR 52.227-19.
  
 Gaussian, Inc.
 340 Quinnipiac St., Bldg. 40, Wallingford CT 06492
  
  
 ---------------------------------------------------------------
 Warning -- This program may not be used in any manner that
 competes with the business of Gaussian, Inc. or will provide
 assistance to any competitor of Gaussian, Inc.  The licensee
 of this program is prohibited from giving any competitor of
 Gaussian, Inc. access to this program.  By using this program,
 the user acknowledges that Gaussian, Inc. is engaged in the
 business of creating and licensing software in the field of
 computational chemistry and represents and warrants to the
 licensee that it is not a competitor of Gaussian, Inc. and that
 it will not use this program in any manner prohibited above.
 ---------------------------------------------------------------
  

 Cite this work as:
 Gaussian 09, Revision D.01,
 M. J. Frisch, G. W. Trucks, H. B. Schlegel, G. E. Scuseria, 
 M. A. Robb, J. R. Cheeseman, G. Scalmani, V. Barone, B. Mennucci, 
 G. A. Petersson, H. Nakatsuji, M. Caricato, X. Li, H. P. Hratchian, 
 A. F. Izmaylov, J. Bloino, G. Zheng, J. L. Sonnenberg, M. Hada, 
 M. Ehara, K. Toyota, R. Fukuda, J. Hasegawa, M. Ishida, T. Nakajima, 
 Y. Honda, O. Kitao, H. Nakai, T. Vreven, J. A. Montgomery, Jr., 
 J. E. Peralta, F. Ogliaro, M. Bearpark, J. J. Heyd, E. Brothers, 
 K. N. Kudin, V. N. Staroverov, T. Keith, R. Kobayashi, J. Normand, 
 K. Raghavachari, A. Rendell, J. C. Burant, S. S. Iyengar, J. Tomasi, 
 M. Cossi, N. Rega, J. M. Millam, M. Klene, J. E. Knox, J. B. Cross, 
 V. Bakken, C. Adamo, J. Jaramillo, R. Gomperts, R. E. Stratmann, 
 O. Yazyev, A. J. Austin, R. Cammi, C. Pomelli, J. W. Ochterski, 
 R. L. Martin, K. Morokuma, V. G. Zakrzewski, G. A. Voth, 
 P. Salvador, J. J. Dannenberg, S. Dapprich, A. D. Daniels, 
 O. Farkas, J. B. Foresman, J. V. Ortiz, J. Cioslowski, 
 and D. J. Fox, Gaussian, Inc., Wallingford CT, 2013.
 
 ******************************************
 Gaussian 09:  ES64L-G09RevD.01 24-Apr-2013
                27-Aug-2020 
 ******************************************
 %chk=/home/boittier/MDCM/nms_sampling/cyanomethane_geom.xyz.dir/cyanomethane_833
 .chk
 %nproc=8
 Will use up to    8 processors via shared memory.
 %mem=16000MB
 --------------------
 #p B2PLYPD3/Def2QZVP
 --------------------
 1/38=1/1;
 2/12=2,17=6,18=5,40=1/2;
 3/5=45,7=101,11=9,16=1,25=1,30=1,74=-60/1,2,3;
 4//1;
 5/5=2,38=5/2;
 8/10=1/1;
 9/16=-3/6;
 6/7=2,8=2,9=2,10=2/1;
 99/5=1,9=1/99;
 Leave Link    1 at Thu Aug 27 00:09:38 2020, MaxMem=  2097152000 cpu:         6.1
 (Enter /opt/cluster/programs/g09/g09_d.01/g09/l101.exe)
 ------------
 cyanomethane
 ------------
 Symbolic Z-matrix:
 Charge =  0 Multiplicity = 1
 C                    -6.59329  -1.11316   1.17426 
 C                    -5.20329  -0.81066   0.90221 
 N                    -4.09849  -0.52636   0.70409 
 H                    -6.73012  -1.19525   2.25854 
 H                    -6.89042  -2.05078   0.64382 
 H                    -7.20518  -0.28509   0.75039 
 
 NAtoms=      6 NQM=        6 NQMF=       0 NMMI=      0 NMMIF=      0
                NMic=       0 NMicF=      0.
                    Isotopes and Nuclear Properties:
 (Nuclear quadrupole moments (NQMom) in fm**2, nuclear magnetic moments (NMagM)
  in nuclear magnetons)

  Atom         1           2           3           4           5           6
 IAtWgt=          12          12          14           1           1           1
 AtmWgt=  12.0000000  12.0000000  14.0030740   1.0078250   1.0078250   1.0078250
 NucSpn=           0           0           2           1           1           1
 AtZEff=   0.0000000   0.0000000   0.0000000   0.0000000   0.0000000   0.0000000
 NQMom=    0.0000000   0.0000000   2.0440000   0.0000000   0.0000000   0.0000000
 NMagM=    0.0000000   0.0000000   0.4037610   2.7928460   2.7928460   2.7928460
 AtZNuc=   6.0000000   6.0000000   7.0000000   1.0000000   1.0000000   1.0000000
 Leave Link  101 at Thu Aug 27 00:09:41 2020, MaxMem=  2097152000 cpu:         0.5
 (Enter /opt/cluster/programs/g09/g09_d.01/g09/l202.exe)
                          Input orientation:                          
 ---------------------------------------------------------------------
 Center     Atomic      Atomic             Coordinates (Angstroms)
 Number     Number       Type             X           Y           Z
 ---------------------------------------------------------------------
      1          6           0       -6.593290   -1.113156    1.174255
      2          6           0       -5.203288   -0.810664    0.902210
      3          7           0       -4.098494   -0.526360    0.704085
      4          1           0       -6.730117   -1.195252    2.258543
      5          1           0       -6.890418   -2.050781    0.643816
      6          1           0       -7.205178   -0.285088    0.750391
 ---------------------------------------------------------------------
                    Distance matrix (angstroms):
                    1          2          3          4          5
     1  C    0.000000
     2  C    1.448315   0.000000
     3  N    2.605647   1.157865   0.000000
     4  H    1.095966   2.078161   3.128769   0.000000
     5  H    1.117493   2.109755   3.181561   1.834385   0.000000
     6  H    1.113447   2.075293   3.116383   1.824446   1.796692
                    6
     6  H    0.000000
 Stoichiometry    C2H3N
 Framework group  C1[X(C2H3N)]
 Deg. of freedom    12
 Full point group                 C1      NOp   1
 Largest Abelian subgroup         C1      NOp   1
 Largest concise Abelian subgroup C1      NOp   1
                         Standard orientation:                         
 ---------------------------------------------------------------------
 Center     Atomic      Atomic             Coordinates (Angstroms)
 Number     Number       Type             X           Y           Z
 ---------------------------------------------------------------------
      1          6           0        1.175433    0.010181    0.001383
      2          6           0       -0.272638   -0.007071   -0.018855
      3          7           0       -1.430193    0.001122    0.006647
      4          1           0        1.516765    1.046213   -0.104788
      5          1           0        1.576010   -0.646473   -0.809255
      6          1           0        1.501805   -0.426255    0.972346
 ---------------------------------------------------------------------
 Rotational constants (GHZ):    151.4053406      9.3019304      9.2881760
 Leave Link  202 at Thu Aug 27 00:09:42 2020, MaxMem=  2097152000 cpu:         0.0
 (Enter /opt/cluster/programs/g09/g09_d.01/g09/l301.exe)
 Standard basis: def2QZVP (5D, 7F)
 Ernie: Thresh=  0.10000D-02 Tol=  0.10000D-05 Strict=F.
 There are   321 symmetry adapted cartesian basis functions of A   symmetry.
 There are   261 symmetry adapted basis functions of A   symmetry.
   261 basis functions,   390 primitive gaussians,   321 cartesian basis functions
    11 alpha electrons       11 beta electrons
       nuclear repulsion energy        58.4408375255 Hartrees.
 IExCor=  419 DFT=T Ex+Corr=B2PLYPD3 ExCW=0 ScaHFX=  0.530000
 ScaDFX=  0.470000  0.470000  0.730000  0.730000 ScalE2=  0.270000  0.270000
 IRadAn=      0 IRanWt=     -1 IRanGd=            0 ICorTp=0 IEmpDi=141
 NAtoms=    6 NActive=    6 NUniq=    6 SFac= 1.00D+00 NAtFMM=   60 NAOKFM=F Big=F
 Integral buffers will be    131072 words long.
 Regular integral format.
 Two-electron integral symmetry is turned on.
 R6Disp:  Grimme-D3(BJ) Dispersion energy=       -0.0021062798 Hartrees.
 Nuclear repulsion after empirical dispersion term =       58.4387312457 Hartrees.
 Leave Link  301 at Thu Aug 27 00:09:43 2020, MaxMem=  2097152000 cpu:         0.4
 (Enter /opt/cluster/programs/g09/g09_d.01/g09/l302.exe)
 NPDir=0 NMtPBC=     1 NCelOv=     1 NCel=       1 NClECP=     1 NCelD=      1
         NCelK=      1 NCelE2=     1 NClLst=     1 CellRange=     0.0.
 One-electron integrals computed using PRISM.
   1 Symmetry operations used in ECPInt.
 ECPInt:  NShTT=    3321 NPrTT=    8136 LenC2=    3296 LenP2D=    7129.
 LDataN:  DoStor=T MaxTD1= 8 Len=  415
 NBasis=   261 RedAO= T EigKep=  8.27D-05  NBF=   261
 NBsUse=   261 1.00D-06 EigRej= -1.00D+00 NBFU=   261
 Precomputing XC quadrature grid using
 IXCGrd= 4 IRadAn=           0 IRanWt=          -1 IRanGd=           0 AccXCQ= 0.00D+00.
 Generated NRdTot=       0 NPtTot=           0 NUsed=           0 NTot=          32
 NSgBfM=   321   321   321   321   321 MxSgAt=     6 MxSgA2=     6.
 Leave Link  302 at Thu Aug 27 00:09:52 2020, MaxMem=  2097152000 cpu:         1.9
 (Enter /opt/cluster/programs/g09/g09_d.01/g09/l303.exe)
 DipDrv:  MaxL=1.
 Leave Link  303 at Thu Aug 27 00:09:52 2020, MaxMem=  2097152000 cpu:         0.2
 (Enter /opt/cluster/programs/g09/g09_d.01/g09/l401.exe)
 ExpMin= 7.60D-02 ExpMax= 9.07D+04 ExpMxC= 8.76D+02 IAcc=2 IRadAn=         4 AccDes= 0.00D+00
 Harris functional with IExCor=  419 and IRadAn=       4 diagonalized for initial guess.
 HarFok:  IExCor=  419 AccDes= 0.00D+00 IRadAn=         4 IDoV= 1 UseB2=F ITyADJ=14
 ICtDFT=  3500011 ScaDFX=  1.000000  1.000000  1.000000  1.000000
 FoFCou: FMM=F IPFlag=           0 FMFlag=      100000 FMFlg1=           0
         NFxFlg=           0 DoJE=T BraDBF=F KetDBF=T FulRan=T
         wScrn=  0.000000 ICntrl=     500 IOpCl=  0 I1Cent=   200000004 NGrid=           0
         NMat0=    1 NMatS0=      1 NMatT0=    0 NMatD0=    1 NMtDS0=    0 NMtDT0=    0
 Petite list used in FoFCou.
 Harris En= -132.847097983142    
 JPrj=0 DoOrth=F DoCkMO=F.
 Leave Link  401 at Thu Aug 27 00:09:53 2020, MaxMem=  2097152000 cpu:         3.6
 (Enter /opt/cluster/programs/g09/g09_d.01/g09/l502.exe)
 Closed shell SCF:
 Using DIIS extrapolation, IDIIS=  1040.
 Integral symmetry usage will be decided dynamically.
 Keep R1 ints in memory in canonical form, NReq=601554820.
 IVT=      332521 IEndB=      332521 NGot=  2097152000 MDV=  1512290144
 LenX=  1512290144 LenY=  1512186662
 Requested convergence on RMS density matrix=1.00D-08 within 128 cycles.
 Requested convergence on MAX density matrix=1.00D-06.
 Requested convergence on             energy=1.00D-06.
 No special actions if energy rises.
 FoFCou: FMM=F IPFlag=           0 FMFlag=           0 FMFlg1=           0
         NFxFlg=           0 DoJE=F BraDBF=F KetDBF=F FulRan=T
         wScrn=  0.000000 ICntrl=     600 IOpCl=  0 I1Cent=           0 NGrid=           0
         NMat0=    1 NMatS0=  34191 NMatT0=    0 NMatD0=    1 NMtDS0=    0 NMtDT0=    0
 Symmetry not used in FoFCou.
 Integral accuracy reduced to 1.0D-05 until final iterations.

 Cycle   1  Pass 0  IDiag  1:
 E= -132.423371621835    
 DIIS: error= 2.72D-02 at cycle   1 NSaved=   1.
 NSaved= 1 IEnMin= 1 EnMin= -132.423371621835     IErMin= 1 ErrMin= 2.72D-02
 ErrMax= 2.72D-02  0.00D+00 EMaxC= 1.00D-01 BMatC= 1.85D-01 BMatP= 1.85D-01
 IDIUse=3 WtCom= 7.28D-01 WtEn= 2.72D-01
 Coeff-Com:  0.100D+01
 Coeff-En:   0.100D+01
 Coeff:      0.100D+01
 Gap=     0.456 Goal=   None    Shift=    0.000
 GapD=    0.456 DampG=2.000 DampE=0.500 DampFc=1.0000 IDamp=-1.
 RMSDP=1.29D-03 MaxDP=6.77D-02              OVMax= 1.66D-01

 Cycle   2  Pass 0  IDiag  1:
 E= -132.453195883483     Delta-E=       -0.029824261648 Rises=F Damp=F
 DIIS: error= 3.29D-02 at cycle   2 NSaved=   2.
 NSaved= 2 IEnMin= 2 EnMin= -132.453195883483     IErMin= 1 ErrMin= 2.72D-02
 ErrMax= 3.29D-02  0.00D+00 EMaxC= 1.00D-01 BMatC= 9.43D-02 BMatP= 1.85D-01
 IDIUse=3 WtCom= 6.71D-01 WtEn= 3.29D-01
 Coeff-Com:  0.400D+00 0.600D+00
 Coeff-En:   0.406D+00 0.594D+00
 Coeff:      0.402D+00 0.598D+00
 Gap=     0.432 Goal=   None    Shift=    0.000
 RMSDP=8.63D-04 MaxDP=3.57D-02 DE=-2.98D-02 OVMax= 1.23D-01

 Cycle   3  Pass 0  IDiag  1:
 E= -132.517648703929     Delta-E=       -0.064452820446 Rises=F Damp=F
 DIIS: error= 1.49D-02 at cycle   3 NSaved=   3.
 NSaved= 3 IEnMin= 3 EnMin= -132.517648703929     IErMin= 3 ErrMin= 1.49D-02
 ErrMax= 1.49D-02  0.00D+00 EMaxC= 1.00D-01 BMatC= 1.95D-02 BMatP= 9.43D-02
 IDIUse=3 WtCom= 8.51D-01 WtEn= 1.49D-01
 Coeff-Com:  0.942D-01 0.323D+00 0.583D+00
 Coeff-En:   0.000D+00 0.125D+00 0.875D+00
 Coeff:      0.802D-01 0.293D+00 0.627D+00
 Gap=     0.424 Goal=   None    Shift=    0.000
 RMSDP=2.68D-04 MaxDP=9.68D-03 DE=-6.45D-02 OVMax= 5.89D-02

 Cycle   4  Pass 0  IDiag  1:
 E= -132.530963214047     Delta-E=       -0.013314510118 Rises=F Damp=F
 DIIS: error= 5.60D-03 at cycle   4 NSaved=   4.
 NSaved= 4 IEnMin= 4 EnMin= -132.530963214047     IErMin= 4 ErrMin= 5.60D-03
 ErrMax= 5.60D-03  0.00D+00 EMaxC= 1.00D-01 BMatC= 3.10D-03 BMatP= 1.95D-02
 IDIUse=3 WtCom= 9.44D-01 WtEn= 5.60D-02
 Coeff-Com: -0.130D-01 0.540D-01 0.333D+00 0.626D+00
 Coeff-En:   0.000D+00 0.000D+00 0.150D+00 0.850D+00
 Coeff:     -0.123D-01 0.509D-01 0.323D+00 0.638D+00
 Gap=     0.424 Goal=   None    Shift=    0.000
 RMSDP=9.24D-05 MaxDP=2.91D-03 DE=-1.33D-02 OVMax= 1.58D-02

 Cycle   5  Pass 0  IDiag  1:
 E= -132.533652632202     Delta-E=       -0.002689418156 Rises=F Damp=F
 DIIS: error= 3.42D-04 at cycle   5 NSaved=   5.
 NSaved= 5 IEnMin= 5 EnMin= -132.533652632202     IErMin= 5 ErrMin= 3.42D-04
 ErrMax= 3.42D-04  0.00D+00 EMaxC= 1.00D-01 BMatC= 1.41D-05 BMatP= 3.10D-03
 IDIUse=3 WtCom= 9.97D-01 WtEn= 3.42D-03
 Coeff-Com: -0.341D-02 0.522D-02 0.467D-01 0.137D+00 0.814D+00
 Coeff-En:   0.000D+00 0.000D+00 0.000D+00 0.000D+00 0.100D+01
 Coeff:     -0.339D-02 0.520D-02 0.465D-01 0.137D+00 0.815D+00
 Gap=     0.424 Goal=   None    Shift=    0.000
 RMSDP=8.62D-06 MaxDP=3.26D-04 DE=-2.69D-03 OVMax= 1.22D-03

 Initial convergence to 1.0D-05 achieved.  Increase integral accuracy.
 Cycle   6  Pass 1  IDiag  1:
 E= -132.533665840490     Delta-E=       -0.000013208288 Rises=F Damp=F
 DIIS: error= 8.95D-05 at cycle   1 NSaved=   1.
 NSaved= 1 IEnMin= 1 EnMin= -132.533665840490     IErMin= 1 ErrMin= 8.95D-05
 ErrMax= 8.95D-05  0.00D+00 EMaxC= 1.00D-01 BMatC= 6.77D-07 BMatP= 6.77D-07
 IDIUse=1 WtCom= 1.00D+00 WtEn= 0.00D+00
 Coeff-Com:  0.100D+01
 Coeff:      0.100D+01
 Gap=     0.424 Goal=   None    Shift=    0.000
 RMSDP=8.62D-06 MaxDP=3.26D-04 DE=-1.32D-05 OVMax= 4.13D-04

 Cycle   7  Pass 1  IDiag  1:
 E= -132.533666234855     Delta-E=       -0.000000394365 Rises=F Damp=F
 DIIS: error= 5.38D-05 at cycle   2 NSaved=   2.
 NSaved= 2 IEnMin= 2 EnMin= -132.533666234855     IErMin= 2 ErrMin= 5.38D-05
 ErrMax= 5.38D-05  0.00D+00 EMaxC= 1.00D-01 BMatC= 3.17D-07 BMatP= 6.77D-07
 IDIUse=1 WtCom= 1.00D+00 WtEn= 0.00D+00
 Coeff-Com:  0.399D+00 0.601D+00
 Coeff:      0.399D+00 0.601D+00
 Gap=     0.424 Goal=   None    Shift=    0.000
 RMSDP=1.06D-06 MaxDP=4.07D-05 DE=-3.94D-07 OVMax= 1.76D-04

 Cycle   8  Pass 1  IDiag  1:
 E= -132.533666510529     Delta-E=       -0.000000275673 Rises=F Damp=F
 DIIS: error= 1.55D-05 at cycle   3 NSaved=   3.
 NSaved= 3 IEnMin= 3 EnMin= -132.533666510529     IErMin= 3 ErrMin= 1.55D-05
 ErrMax= 1.55D-05  0.00D+00 EMaxC= 1.00D-01 BMatC= 2.26D-08 BMatP= 3.17D-07
 IDIUse=1 WtCom= 1.00D+00 WtEn= 0.00D+00
 Coeff-Com:  0.116D+00 0.251D+00 0.633D+00
 Coeff:      0.116D+00 0.251D+00 0.633D+00
 Gap=     0.424 Goal=   None    Shift=    0.000
 RMSDP=5.75D-07 MaxDP=2.60D-05 DE=-2.76D-07 OVMax= 5.93D-05

 Cycle   9  Pass 1  IDiag  1:
 E= -132.533666524472     Delta-E=       -0.000000013943 Rises=F Damp=F
 DIIS: error= 1.06D-05 at cycle   4 NSaved=   4.
 NSaved= 4 IEnMin= 4 EnMin= -132.533666524472     IErMin= 4 ErrMin= 1.06D-05
 ErrMax= 1.06D-05  0.00D+00 EMaxC= 1.00D-01 BMatC= 7.04D-09 BMatP= 2.26D-08
 IDIUse=1 WtCom= 1.00D+00 WtEn= 0.00D+00
 Coeff-Com: -0.589D-01-0.361D-01 0.386D+00 0.709D+00
 Coeff:     -0.589D-01-0.361D-01 0.386D+00 0.709D+00
 Gap=     0.424 Goal=   None    Shift=    0.000
 RMSDP=2.97D-07 MaxDP=1.39D-05 DE=-1.39D-08 OVMax= 3.45D-05

 Cycle  10  Pass 1  IDiag  1:
 E= -132.533666531136     Delta-E=       -0.000000006664 Rises=F Damp=F
 DIIS: error= 1.06D-06 at cycle   5 NSaved=   5.
 NSaved= 5 IEnMin= 5 EnMin= -132.533666531136     IErMin= 5 ErrMin= 1.06D-06
 ErrMax= 1.06D-06  0.00D+00 EMaxC= 1.00D-01 BMatC= 1.03D-10 BMatP= 7.04D-09
 IDIUse=1 WtCom= 1.00D+00 WtEn= 0.00D+00
 Coeff-Com: -0.222D-01-0.207D-01 0.834D-01 0.216D+00 0.744D+00
 Coeff:     -0.222D-01-0.207D-01 0.834D-01 0.216D+00 0.744D+00
 Gap=     0.424 Goal=   None    Shift=    0.000
 RMSDP=4.56D-08 MaxDP=2.21D-06 DE=-6.66D-09 OVMax= 3.47D-06

 Cycle  11  Pass 1  IDiag  1:
 E= -132.533666531226     Delta-E=       -0.000000000089 Rises=F Damp=F
 DIIS: error= 2.05D-07 at cycle   6 NSaved=   6.
 NSaved= 6 IEnMin= 6 EnMin= -132.533666531226     IErMin= 6 ErrMin= 2.05D-07
 ErrMax= 2.05D-07  0.00D+00 EMaxC= 1.00D-01 BMatC= 5.21D-12 BMatP= 1.03D-10
 IDIUse=1 WtCom= 1.00D+00 WtEn= 0.00D+00
 Coeff-Com:  0.225D-02 0.367D-03-0.270D-01-0.244D-01 0.117D+00 0.931D+00
 Coeff:      0.225D-02 0.367D-03-0.270D-01-0.244D-01 0.117D+00 0.931D+00
 Gap=     0.424 Goal=   None    Shift=    0.000
 RMSDP=1.05D-08 MaxDP=4.63D-07 DE=-8.94D-11 OVMax= 1.03D-06

 Cycle  12  Pass 1  IDiag  1:
 E= -132.533666531232     Delta-E=       -0.000000000006 Rises=F Damp=F
 DIIS: error= 5.27D-08 at cycle   7 NSaved=   7.
 NSaved= 7 IEnMin= 7 EnMin= -132.533666531232     IErMin= 7 ErrMin= 5.27D-08
 ErrMax= 5.27D-08  0.00D+00 EMaxC= 1.00D-01 BMatC= 1.71D-13 BMatP= 5.21D-12
 IDIUse=1 WtCom= 1.00D+00 WtEn= 0.00D+00
 Coeff-Com:  0.505D-03 0.651D-03-0.561D-03-0.241D-02-0.325D-01-0.859D-01
 Coeff-Com:  0.112D+01
 Coeff:      0.505D-03 0.651D-03-0.561D-03-0.241D-02-0.325D-01-0.859D-01
 Coeff:      0.112D+01
 Gap=     0.424 Goal=   None    Shift=    0.000
 RMSDP=2.17D-09 MaxDP=6.12D-08 DE=-5.85D-12 OVMax= 4.32D-07

 SCF Done:  E(RB2PLYPD3) =  -132.533666531     A.U. after   12 cycles
            NFock= 12  Conv=0.22D-08     -V/T= 2.0042
 KE= 1.319756315628D+02 PE=-4.254382842023D+02 EE= 1.024902548626D+02
 Leave Link  502 at Thu Aug 27 00:10:14 2020, MaxMem=  2097152000 cpu:        89.8
 (Enter /opt/cluster/programs/g09/g09_d.01/g09/l801.exe)
 DoSCS=T DFT=T ScalE2(SS,OS)=  0.270000  0.270000
 ExpMin= 7.60D-02 ExpMax= 9.07D+04 ExpMxC= 8.76D+02 IAcc=3 IRadAn=         5 AccDes= 0.00D+00
 HarFok:  IExCor=  205 AccDes= 0.00D+00 IRadAn=         5 IDoV=-2 UseB2=F ITyADJ=14
 ICtDFT= 12500011 ScaDFX=  1.000000  1.000000  1.000000  1.000000
 Largest valence mixing into a core orbital is  1.16D-04
 Largest core mixing into a valence orbital is  1.95D-05
 Range of M.O.s used for correlation:     4   261
 NBasis=   261 NAE=    11 NBE=    11 NFC=     3 NFV=     0
 NROrb=    258 NOA=     8 NOB=     8 NVA=   250 NVB=   250

 **** Warning!!: The largest alpha MO coefficient is  0.25757421D+02

 Leave Link  801 at Thu Aug 27 00:10:15 2020, MaxMem=  2097152000 cpu:         0.6
 (Enter /opt/cluster/programs/g09/g09_d.01/g09/l906.exe)
 DoSCS=T DFT=T ScalE2(SS,OS)=  0.270000  0.270000
 FulOut=F Deriv=F AODrv=F NAtomX=     6
   MMem=        2666  MDisk=           8 MDiskD=           8
  W3Min=      642000 MinDsk=     1426009 NBas6D=         321
 NBas2D=       52689    NTT=       51681    LW2=     4508827
    MDV=  2096809405 MDiskM=       14501 NBas2p=       52131
 Fully direct method using O(OVN) memory.
 IMap=   1   2   3   4   5   6   7   8
 JobTyp=1 Pass  1:  I=   1 to   8 NPSUse=  8 ParTrn=T ParDer=T DoDerP=F.
 Spin components of T(2) and E(2):
     alpha-alpha T2 =       0.3604979079D-01 E2=     -0.2149509099D-01
     alpha-beta  T2 =       0.2107981625D+00 E2=     -0.1380048576D+00
     beta-beta   T2 =       0.3604979079D-01 E2=     -0.2149509099D-01
 The integrals were generated   1 times.
 E2(B2PLYPD3) =    -0.1809950396D+00 E(B2PLYPD3) =    -0.13271466157081D+03
 Leave Link  906 at Thu Aug 27 00:10:28 2020, MaxMem=  2097152000 cpu:       104.5
 (Enter /opt/cluster/programs/g09/g09_d.01/g09/l601.exe)
 Copying SCF densities to generalized density rwf, IOpCl= 0 IROHF=0.

 **********************************************************************

            Population analysis using the SCF density.

 **********************************************************************

 Orbital symmetries:
       Occupied  (A) (A) (A) (A) (A) (A) (A) (A) (A) (A) (A)
       Virtual   (A) (A) (A) (A) (A) (A) (A) (A) (A) (A) (A) (A)
                 (A) (A) (A) (A) (A) (A) (A) (A) (A) (A) (A) (A)
                 (A) (A) (A) (A) (A) (A) (A) (A) (A) (A) (A) (A)
                 (A) (A) (A) (A) (A) (A) (A) (A) (A) (A) (A) (A)
                 (A) (A) (A) (A) (A) (A) (A) (A) (A) (A) (A) (A)
                 (A) (A) (A) (A) (A) (A) (A) (A) (A) (A) (A) (A)
                 (A) (A) (A) (A) (A) (A) (A) (A) (A) (A) (A) (A)
                 (A) (A) (A) (A) (A) (A) (A) (A) (A) (A) (A) (A)
                 (A) (A) (A) (A) (A) (A) (A) (A) (A) (A) (A) (A)
                 (A) (A) (A) (A) (A) (A) (A) (A) (A) (A) (A) (A)
                 (A) (A) (A) (A) (A) (A) (A) (A) (A) (A) (A) (A)
                 (A) (A) (A) (A) (A) (A) (A) (A) (A) (A) (A) (A)
                 (A) (A) (A) (A) (A) (A) (A) (A) (A) (A) (A) (A)
                 (A) (A) (A) (A) (A) (A) (A) (A) (A) (A) (A) (A)
                 (A) (A) (A) (A) (A) (A) (A) (A) (A) (A) (A) (A)
                 (A) (A) (A) (A) (A) (A) (A) (A) (A) (A) (A) (A)
                 (A) (A) (A) (A) (A) (A) (A) (A) (A) (A) (A) (A)
                 (A) (A) (A) (A) (A) (A) (A) (A) (A) (A) (A) (A)
                 (A) (A) (A) (A) (A) (A) (A) (A) (A) (A) (A) (A)
                 (A) (A) (A) (A) (A) (A) (A) (A) (A) (A) (A) (A)
                 (A) (A) (A) (A) (A) (A) (A) (A) (A) (A)
 The electronic state is 1-A.
 Alpha  occ. eigenvalues --  -14.84181 -10.67662 -10.66225  -1.03949  -0.89059
 Alpha  occ. eigenvalues --   -0.59147  -0.54389  -0.53242  -0.44717  -0.38919
 Alpha  occ. eigenvalues --   -0.38738
 Alpha virt. eigenvalues --    0.03652   0.07560   0.07785   0.10152   0.11393
 Alpha virt. eigenvalues --    0.11622   0.15333   0.15927   0.16273   0.20083
 Alpha virt. eigenvalues --    0.20154   0.25485   0.32573   0.33868   0.34592
 Alpha virt. eigenvalues --    0.38278   0.39525   0.39965   0.40520   0.46841
 Alpha virt. eigenvalues --    0.50895   0.51525   0.58982   0.60000   0.61506
 Alpha virt. eigenvalues --    0.66614   0.66985   0.68506   0.70240   0.79301
 Alpha virt. eigenvalues --    0.79521   0.82013   0.82389   0.83409   0.86536
 Alpha virt. eigenvalues --    0.92536   0.93099   0.96175   0.97107   0.97254
 Alpha virt. eigenvalues --    1.05742   1.06617   1.07704   1.11308   1.12631
 Alpha virt. eigenvalues --    1.14838   1.22208   1.23113   1.23437   1.34794
 Alpha virt. eigenvalues --    1.35456   1.44119   1.45615   1.46932   1.53372
 Alpha virt. eigenvalues --    1.65027   1.66290   1.69959   1.73995   1.78326
 Alpha virt. eigenvalues --    1.78855   1.79497   1.88933   1.93284   1.93684
 Alpha virt. eigenvalues --    1.93768   1.98824   1.99485   2.01222   2.04574
 Alpha virt. eigenvalues --    2.06419   2.11510   2.13566   2.19257   2.20250
 Alpha virt. eigenvalues --    2.21859   2.23438   2.24453   2.34664   2.36456
 Alpha virt. eigenvalues --    2.42893   2.50661   2.52265   2.57246   2.59461
 Alpha virt. eigenvalues --    2.60041   2.67143   2.70139   2.71950   2.73182
 Alpha virt. eigenvalues --    2.76451   2.76958   2.85735   2.88154   2.88461
 Alpha virt. eigenvalues --    2.90163   2.93574   2.94315   2.95498   3.02469
 Alpha virt. eigenvalues --    3.09383   3.10753   3.21217   3.25261   3.30077
 Alpha virt. eigenvalues --    3.33619   3.34882   3.38945   3.41422   3.45790
 Alpha virt. eigenvalues --    3.55358   3.55997   3.69619   3.72458   3.73845
 Alpha virt. eigenvalues --    3.86551   3.87643   3.89427   3.93331   3.95153
 Alpha virt. eigenvalues --    4.01090   4.05023   4.05695   4.25097   4.25678
 Alpha virt. eigenvalues --    4.56285   4.91170   4.91311   5.07597   5.10060
 Alpha virt. eigenvalues --    5.11289   5.17543   5.20017   5.20652   5.21967
 Alpha virt. eigenvalues --    5.31640   5.44456   5.44948   5.47473   5.65516
 Alpha virt. eigenvalues --    5.66587   5.84763   5.85648   5.91048   5.92282
 Alpha virt. eigenvalues --    5.92834   5.95441   5.97734   5.98521   6.00118
 Alpha virt. eigenvalues --    6.01276   6.04166   6.04321   6.07018   6.12309
 Alpha virt. eigenvalues --    6.13047   6.18934   6.19672   6.27236   6.28451
 Alpha virt. eigenvalues --    6.37316   6.40838   6.44871   6.55745   6.59126
 Alpha virt. eigenvalues --    6.60154   6.61259   6.88493   6.90770   6.95665
 Alpha virt. eigenvalues --    6.96796   7.02405   7.02708   7.02768   7.12729
 Alpha virt. eigenvalues --    7.15760   7.19465   7.25265   7.34225   7.39732
 Alpha virt. eigenvalues --    7.45901   7.50872   7.52555   7.54705   7.55405
 Alpha virt. eigenvalues --    7.67939   7.71143   7.72129   7.83538   7.85001
 Alpha virt. eigenvalues --    7.86123   7.91235   7.91832   7.96953   8.28010
 Alpha virt. eigenvalues --    8.29109   8.30381   8.38432   8.39409   8.43334
 Alpha virt. eigenvalues --    8.44964   8.45701   8.48509   8.52465   8.55273
 Alpha virt. eigenvalues --    8.57346   8.65116   8.66649   8.66790   8.66848
 Alpha virt. eigenvalues --    8.69380   8.79489   8.81245   8.86827   8.96615
 Alpha virt. eigenvalues --    9.05250   9.07797   9.09987   9.12544   9.16039
 Alpha virt. eigenvalues --    9.22989   9.25214   9.68154   9.70832   9.76169
 Alpha virt. eigenvalues --    9.80123   9.84047   9.87808   9.89377   9.99535
 Alpha virt. eigenvalues --   10.05496  10.14447  10.15740  10.26515  10.33870
 Alpha virt. eigenvalues --   10.36519  10.49958  11.37596  11.82007  11.87263
 Alpha virt. eigenvalues --   12.04063  12.04880  13.08668  13.42205  29.11380
 Alpha virt. eigenvalues --   29.57972  38.30965 148.75164 149.21332 198.22624
          Condensed to atoms (all electrons):
               1          2          3          4          5          6
     1  C    4.631270   0.291036  -0.059899   0.414442   0.409805   0.411500
     2  C    0.291036   4.857579   0.987109  -0.046280  -0.041655  -0.047208
     3  N   -0.059899   0.987109   6.283993  -0.000838  -0.000688  -0.001331
     4  H    0.414442  -0.046280  -0.000838   0.580745  -0.027381  -0.026585
     5  H    0.409805  -0.041655  -0.000688  -0.027381   0.589581  -0.029407
     6  H    0.411500  -0.047208  -0.001331  -0.026585  -0.029407   0.591590
 Mulliken charges:
               1
     1  C   -0.098154
     2  C   -0.000581
     3  N   -0.208347
     4  H    0.105897
     5  H    0.099744
     6  H    0.101441
 Sum of Mulliken charges =   0.00000
 Mulliken charges with hydrogens summed into heavy atoms:
               1
     1  C    0.208928
     2  C   -0.000581
     3  N   -0.208347
 Electronic spatial extent (au):  <R**2>=            161.4221
 Charge=              0.0000 electrons
 Dipole moment (field-independent basis, Debye):
    X=              4.1111    Y=             -0.0118    Z=              0.0012  Tot=              4.1112
 Quadrupole moment (field-independent basis, Debye-Ang):
   XX=            -21.2320   YY=            -17.6333   ZZ=            -17.8129
   XY=             -0.0497   XZ=              0.0068   YZ=             -0.0114
 Traceless Quadrupole moment (field-independent basis, Debye-Ang):
   XX=             -2.3393   YY=              1.2594   ZZ=              1.0799
   XY=             -0.0497   XZ=              0.0068   YZ=             -0.0114
 Octapole moment (field-independent basis, Debye-Ang**2):
  XXX=             12.1572  YYY=              0.8805  ZZZ=              0.4279  XYY=              2.4041
  XXY=             -0.1168  XXZ=             -0.1130  XZZ=              2.1432  YZZ=             -0.8177
  YYZ=             -0.2731  XYZ=              0.0240
 Hexadecapole moment (field-independent basis, Debye-Ang**3):
 XXXX=           -182.6835 YYYY=            -24.9325 ZZZZ=            -25.0943 XXXY=             -0.2430
 XXXZ=             -0.2048 YYYX=              1.3348 YYYZ=              0.0142 ZZZX=              0.5277
 ZZZY=             -0.1058 XXYY=            -30.8507 XXZZ=            -31.2500 YYZZ=             -8.3207
 XXYZ=              0.1181 YYXZ=             -0.5115 ZZXY=             -1.3780
 N-N= 5.843873124569D+01 E-N=-4.254382849624D+02  KE= 1.319756315628D+02
 Leave Link  601 at Thu Aug 27 00:10:29 2020, MaxMem=  2097152000 cpu:         0.3
 (Enter /opt/cluster/programs/g09/g09_d.01/g09/l9999.exe)
 1\1\GINC-NODE38\SP\RB2PLYPD3-FC\def2QZVP\C2H3N1\BOITTIER\27-Aug-2020\0
 \\#p B2PLYPD3/Def2QZVP\\cyanomethane\\0,1\C,0,-6.59329,-1.113156,1.174
 255\C,0,-5.203288,-0.810664,0.90221\N,0,-4.098494,-0.52636,0.704085\H,
 0,-6.730117,-1.195252,2.258543\H,0,-6.890418,-2.050781,0.643816\H,0,-7
 .205178,-0.285088,0.750391\\Version=ES64L-G09RevD.01\State=1-A\HF=-132
 .5336665\MP2=-132.7146616\RMSD=2.171e-09\PG=C01 [X(C2H3N1)]\\@


 IF I HAVE SEEN FARTHER, IT IS BY STANDING ON THE
 SHOULDERS OF GIANTS. -- SIR ISAAC NEWTON
 Job cpu time:       0 days  0 hours  3 minutes 28.4 seconds.
 File lengths (MBytes):  RWF=     28 Int=      0 D2E=      0 Chk=      5 Scr=      1
 Normal termination of Gaussian 09 at Thu Aug 27 00:10:40 2020.
