 Entering Gaussian System, Link 0=/opt/cluster/programs/g09/g09_d.01/g09//g09
 Input=/home/boittier/MDCM/nms_sampling/cyanomethane_geom.xyz.dir/energies/cyanomethane_2243_energy.com
 Output=/scratch/boittier/cyanomethane_2243_energy/cyanomethane_2243_energy.out
 Initial command:
 /opt/cluster/programs/g09/g09_d.01/g09/l1.exe "/scratch/boittier/cyanomethane_2243_energy/Gau-147742.inp" -scrdir="/scratch/boittier/cyanomethane_2243_energy/"
 Entering Link 1 = /opt/cluster/programs/g09/g09_d.01/g09/l1.exe PID=    147743.
  
 Copyright (c) 1988,1990,1992,1993,1995,1998,2003,2009,2013,
            Gaussian, Inc.  All Rights Reserved.
  
 This is part of the Gaussian(R) 09 program.  It is based on
 the Gaussian(R) 03 system (copyright 2003, Gaussian, Inc.),
 the Gaussian(R) 98 system (copyright 1998, Gaussian, Inc.),
 the Gaussian(R) 94 system (copyright 1995, Gaussian, Inc.),
 the Gaussian 92(TM) system (copyright 1992, Gaussian, Inc.),
 the Gaussian 90(TM) system (copyright 1990, Gaussian, Inc.),
 the Gaussian 88(TM) system (copyright 1988, Gaussian, Inc.),
 the Gaussian 86(TM) system (copyright 1986, Carnegie Mellon
 University), and the Gaussian 82(TM) system (copyright 1983,
 Carnegie Mellon University). Gaussian is a federally registered
 trademark of Gaussian, Inc.
  
 This software contains proprietary and confidential information,
 including trade secrets, belonging to Gaussian, Inc.
  
 This software is provided under written license and may be
 used, copied, transmitted, or stored only in accord with that
 written license.
  
 The following legend is applicable only to US Government
 contracts under FAR:
  
                    RESTRICTED RIGHTS LEGEND
  
 Use, reproduction and disclosure by the US Government is
 subject to restrictions as set forth in subparagraphs (a)
 and (c) of the Commercial Computer Software - Restricted
 Rights clause in FAR 52.227-19.
  
 Gaussian, Inc.
 340 Quinnipiac St., Bldg. 40, Wallingford CT 06492
  
  
 ---------------------------------------------------------------
 Warning -- This program may not be used in any manner that
 competes with the business of Gaussian, Inc. or will provide
 assistance to any competitor of Gaussian, Inc.  The licensee
 of this program is prohibited from giving any competitor of
 Gaussian, Inc. access to this program.  By using this program,
 the user acknowledges that Gaussian, Inc. is engaged in the
 business of creating and licensing software in the field of
 computational chemistry and represents and warrants to the
 licensee that it is not a competitor of Gaussian, Inc. and that
 it will not use this program in any manner prohibited above.
 ---------------------------------------------------------------
  

 Cite this work as:
 Gaussian 09, Revision D.01,
 M. J. Frisch, G. W. Trucks, H. B. Schlegel, G. E. Scuseria, 
 M. A. Robb, J. R. Cheeseman, G. Scalmani, V. Barone, B. Mennucci, 
 G. A. Petersson, H. Nakatsuji, M. Caricato, X. Li, H. P. Hratchian, 
 A. F. Izmaylov, J. Bloino, G. Zheng, J. L. Sonnenberg, M. Hada, 
 M. Ehara, K. Toyota, R. Fukuda, J. Hasegawa, M. Ishida, T. Nakajima, 
 Y. Honda, O. Kitao, H. Nakai, T. Vreven, J. A. Montgomery, Jr., 
 J. E. Peralta, F. Ogliaro, M. Bearpark, J. J. Heyd, E. Brothers, 
 K. N. Kudin, V. N. Staroverov, T. Keith, R. Kobayashi, J. Normand, 
 K. Raghavachari, A. Rendell, J. C. Burant, S. S. Iyengar, J. Tomasi, 
 M. Cossi, N. Rega, J. M. Millam, M. Klene, J. E. Knox, J. B. Cross, 
 V. Bakken, C. Adamo, J. Jaramillo, R. Gomperts, R. E. Stratmann, 
 O. Yazyev, A. J. Austin, R. Cammi, C. Pomelli, J. W. Ochterski, 
 R. L. Martin, K. Morokuma, V. G. Zakrzewski, G. A. Voth, 
 P. Salvador, J. J. Dannenberg, S. Dapprich, A. D. Daniels, 
 O. Farkas, J. B. Foresman, J. V. Ortiz, J. Cioslowski, 
 and D. J. Fox, Gaussian, Inc., Wallingford CT, 2013.
 
 ******************************************
 Gaussian 09:  ES64L-G09RevD.01 24-Apr-2013
                26-Aug-2020 
 ******************************************
 %chk=/home/boittier/MDCM/nms_sampling/cyanomethane_geom.xyz.dir/cyanomethane_224
 3.chk
 %nproc=8
 Will use up to    8 processors via shared memory.
 %mem=16000MB
 --------------------
 #p B2PLYPD3/Def2QZVP
 --------------------
 1/38=1/1;
 2/12=2,17=6,18=5,40=1/2;
 3/5=45,7=101,11=9,16=1,25=1,30=1,74=-60/1,2,3;
 4//1;
 5/5=2,38=5/2;
 8/10=1/1;
 9/16=-3/6;
 6/7=2,8=2,9=2,10=2/1;
 99/5=1,9=1/99;
 Leave Link    1 at Wed Aug 26 15:37:42 2020, MaxMem=  2097152000 cpu:         0.3
 (Enter /opt/cluster/programs/g09/g09_d.01/g09/l101.exe)
 ------------
 cyanomethane
 ------------
 Symbolic Z-matrix:
 Charge =  0 Multiplicity = 1
 C                    -6.59599  -1.12881   1.17562 
 C                    -5.19659  -0.77297   0.88004 
 N                    -4.09091  -0.54493   0.71846 
 H                    -6.873    -1.21427   2.25324 
 H                    -6.88773  -2.05306   0.65405 
 H                    -7.21719  -0.2718    0.78381 
 
 NAtoms=      6 NQM=        6 NQMF=       0 NMMI=      0 NMMIF=      0
                NMic=       0 NMicF=      0.
                    Isotopes and Nuclear Properties:
 (Nuclear quadrupole moments (NQMom) in fm**2, nuclear magnetic moments (NMagM)
  in nuclear magnetons)

  Atom         1           2           3           4           5           6
 IAtWgt=          12          12          14           1           1           1
 AtmWgt=  12.0000000  12.0000000  14.0030740   1.0078250   1.0078250   1.0078250
 NucSpn=           0           0           2           1           1           1
 AtZEff=   0.0000000   0.0000000   0.0000000   0.0000000   0.0000000   0.0000000
 NQMom=    0.0000000   0.0000000   2.0440000   0.0000000   0.0000000   0.0000000
 NMagM=    0.0000000   0.0000000   0.4037610   2.7928460   2.7928460   2.7928460
 AtZNuc=   6.0000000   6.0000000   7.0000000   1.0000000   1.0000000   1.0000000
 Leave Link  101 at Wed Aug 26 15:37:42 2020, MaxMem=  2097152000 cpu:         0.5
 (Enter /opt/cluster/programs/g09/g09_d.01/g09/l202.exe)
                          Input orientation:                          
 ---------------------------------------------------------------------
 Center     Atomic      Atomic             Coordinates (Angstroms)
 Number     Number       Type             X           Y           Z
 ---------------------------------------------------------------------
      1          6           0       -6.595992   -1.128812    1.175615
      2          6           0       -5.196588   -0.772966    0.880041
      3          7           0       -4.090906   -0.544931    0.718456
      4          1           0       -6.872997   -1.214271    2.253244
      5          1           0       -6.887725   -2.053064    0.654052
      6          1           0       -7.217192   -0.271795    0.783807
 ---------------------------------------------------------------------
                    Distance matrix (angstroms):
                    1          2          3          4          5
     1  C    0.000000
     2  C    1.473880   0.000000
     3  N    2.612540   1.140457   0.000000
     4  H    1.115939   2.211512   3.247094   0.000000
     5  H    1.100626   2.132995   3.178177   1.805881   0.000000
     6  H    1.128663   2.084052   3.138875   1.779319   1.816123
                    6
     6  H    0.000000
 Stoichiometry    C2H3N
 Framework group  C1[X(C2H3N)]
 Deg. of freedom    12
 Full point group                 C1      NOp   1
 Largest Abelian subgroup         C1      NOp   1
 Largest concise Abelian subgroup C1      NOp   1
                         Standard orientation:                         
 ---------------------------------------------------------------------
 Center     Atomic      Atomic             Coordinates (Angstroms)
 Number     Number       Type             X           Y           Z
 ---------------------------------------------------------------------
      1          6           0        1.178290    0.011674    0.014645
      2          6           0       -0.294844   -0.004717   -0.029281
      3          7           0       -1.434225    0.001412    0.019868
      4          1           0        1.654981   -0.382435    0.943495
      5          1           0        1.568953    1.019846   -0.191147
      6          1           0        1.514962   -0.689038   -0.803607
 ---------------------------------------------------------------------
 Rotational constants (GHZ):    154.1279163      9.1677675      9.1556673
 Leave Link  202 at Wed Aug 26 15:37:42 2020, MaxMem=  2097152000 cpu:         0.0
 (Enter /opt/cluster/programs/g09/g09_d.01/g09/l301.exe)
 Standard basis: def2QZVP (5D, 7F)
 Ernie: Thresh=  0.10000D-02 Tol=  0.10000D-05 Strict=F.
 There are   321 symmetry adapted cartesian basis functions of A   symmetry.
 There are   261 symmetry adapted basis functions of A   symmetry.
   261 basis functions,   390 primitive gaussians,   321 cartesian basis functions
    11 alpha electrons       11 beta electrons
       nuclear repulsion energy        58.2798112808 Hartrees.
 IExCor=  419 DFT=T Ex+Corr=B2PLYPD3 ExCW=0 ScaHFX=  0.530000
 ScaDFX=  0.470000  0.470000  0.730000  0.730000 ScalE2=  0.270000  0.270000
 IRadAn=      0 IRanWt=     -1 IRanGd=            0 ICorTp=0 IEmpDi=141
 NAtoms=    6 NActive=    6 NUniq=    6 SFac= 1.00D+00 NAtFMM=   60 NAOKFM=F Big=F
 Integral buffers will be    131072 words long.
 Regular integral format.
 Two-electron integral symmetry is turned on.
 R6Disp:  Grimme-D3(BJ) Dispersion energy=       -0.0020937029 Hartrees.
 Nuclear repulsion after empirical dispersion term =       58.2777175779 Hartrees.
 Leave Link  301 at Wed Aug 26 15:37:42 2020, MaxMem=  2097152000 cpu:         0.5
 (Enter /opt/cluster/programs/g09/g09_d.01/g09/l302.exe)
 NPDir=0 NMtPBC=     1 NCelOv=     1 NCel=       1 NClECP=     1 NCelD=      1
         NCelK=      1 NCelE2=     1 NClLst=     1 CellRange=     0.0.
 One-electron integrals computed using PRISM.
   1 Symmetry operations used in ECPInt.
 ECPInt:  NShTT=    3321 NPrTT=    8136 LenC2=    3291 LenP2D=    7117.
 LDataN:  DoStor=T MaxTD1= 8 Len=  415
 NBasis=   261 RedAO= T EigKep=  8.19D-05  NBF=   261
 NBsUse=   261 1.00D-06 EigRej= -1.00D+00 NBFU=   261
 Precomputing XC quadrature grid using
 IXCGrd= 4 IRadAn=           0 IRanWt=          -1 IRanGd=           0 AccXCQ= 0.00D+00.
 Generated NRdTot=       0 NPtTot=           0 NUsed=           0 NTot=          32
 NSgBfM=   321   321   321   321   321 MxSgAt=     6 MxSgA2=     6.
 Leave Link  302 at Wed Aug 26 15:37:42 2020, MaxMem=  2097152000 cpu:         2.5
 (Enter /opt/cluster/programs/g09/g09_d.01/g09/l303.exe)
 DipDrv:  MaxL=1.
 Leave Link  303 at Wed Aug 26 15:37:43 2020, MaxMem=  2097152000 cpu:         0.3
 (Enter /opt/cluster/programs/g09/g09_d.01/g09/l401.exe)
 ExpMin= 7.60D-02 ExpMax= 9.07D+04 ExpMxC= 8.76D+02 IAcc=2 IRadAn=         4 AccDes= 0.00D+00
 Harris functional with IExCor=  419 and IRadAn=       4 diagonalized for initial guess.
 HarFok:  IExCor=  419 AccDes= 0.00D+00 IRadAn=         4 IDoV= 1 UseB2=F ITyADJ=14
 ICtDFT=  3500011 ScaDFX=  1.000000  1.000000  1.000000  1.000000
 FoFCou: FMM=F IPFlag=           0 FMFlag=      100000 FMFlg1=           0
         NFxFlg=           0 DoJE=T BraDBF=F KetDBF=T FulRan=T
         wScrn=  0.000000 ICntrl=     500 IOpCl=  0 I1Cent=   200000004 NGrid=           0
         NMat0=    1 NMatS0=      1 NMatT0=    0 NMatD0=    1 NMtDS0=    0 NMtDT0=    0
 Petite list used in FoFCou.
 Harris En= -132.846482501823    
 JPrj=0 DoOrth=F DoCkMO=F.
 Leave Link  401 at Wed Aug 26 15:37:43 2020, MaxMem=  2097152000 cpu:         4.5
 (Enter /opt/cluster/programs/g09/g09_d.01/g09/l502.exe)
 Closed shell SCF:
 Using DIIS extrapolation, IDIIS=  1040.
 Integral symmetry usage will be decided dynamically.
 Keep R1 ints in memory in canonical form, NReq=601554820.
 IVT=      332521 IEndB=      332521 NGot=  2097152000 MDV=  1512290144
 LenX=  1512290144 LenY=  1512186662
 Requested convergence on RMS density matrix=1.00D-08 within 128 cycles.
 Requested convergence on MAX density matrix=1.00D-06.
 Requested convergence on             energy=1.00D-06.
 No special actions if energy rises.
 FoFCou: FMM=F IPFlag=           0 FMFlag=           0 FMFlg1=           0
         NFxFlg=           0 DoJE=F BraDBF=F KetDBF=F FulRan=T
         wScrn=  0.000000 ICntrl=     600 IOpCl=  0 I1Cent=           0 NGrid=           0
         NMat0=    1 NMatS0=  34191 NMatT0=    0 NMatD0=    1 NMtDS0=    0 NMtDT0=    0
 Symmetry not used in FoFCou.
 Integral accuracy reduced to 1.0D-05 until final iterations.

 Cycle   1  Pass 0  IDiag  1:
 E= -132.419706100037    
 DIIS: error= 2.59D-02 at cycle   1 NSaved=   1.
 NSaved= 1 IEnMin= 1 EnMin= -132.419706100037     IErMin= 1 ErrMin= 2.59D-02
 ErrMax= 2.59D-02  0.00D+00 EMaxC= 1.00D-01 BMatC= 1.89D-01 BMatP= 1.89D-01
 IDIUse=3 WtCom= 7.41D-01 WtEn= 2.59D-01
 Coeff-Com:  0.100D+01
 Coeff-En:   0.100D+01
 Coeff:      0.100D+01
 Gap=     0.458 Goal=   None    Shift=    0.000
 GapD=    0.458 DampG=2.000 DampE=0.500 DampFc=1.0000 IDamp=-1.
 RMSDP=1.33D-03 MaxDP=7.27D-02              OVMax= 1.68D-01

 Cycle   2  Pass 0  IDiag  1:
 E= -132.447460477146     Delta-E=       -0.027754377109 Rises=F Damp=F
 DIIS: error= 3.28D-02 at cycle   2 NSaved=   2.
 NSaved= 2 IEnMin= 2 EnMin= -132.447460477146     IErMin= 1 ErrMin= 2.59D-02
 ErrMax= 3.28D-02  0.00D+00 EMaxC= 1.00D-01 BMatC= 9.96D-02 BMatP= 1.89D-01
 IDIUse=3 WtCom= 6.72D-01 WtEn= 3.28D-01
 Coeff-Com:  0.405D+00 0.595D+00
 Coeff-En:   0.416D+00 0.584D+00
 Coeff:      0.409D+00 0.591D+00
 Gap=     0.445 Goal=   None    Shift=    0.000
 RMSDP=8.74D-04 MaxDP=3.56D-02 DE=-2.78D-02 OVMax= 1.24D-01

 Cycle   3  Pass 0  IDiag  1:
 E= -132.516895764355     Delta-E=       -0.069435287209 Rises=F Damp=F
 DIIS: error= 1.39D-02 at cycle   3 NSaved=   3.
 NSaved= 3 IEnMin= 3 EnMin= -132.516895764355     IErMin= 3 ErrMin= 1.39D-02
 ErrMax= 1.39D-02  0.00D+00 EMaxC= 1.00D-01 BMatC= 1.85D-02 BMatP= 9.96D-02
 IDIUse=3 WtCom= 8.61D-01 WtEn= 1.39D-01
 Coeff-Com:  0.907D-01 0.312D+00 0.598D+00
 Coeff-En:   0.000D+00 0.104D+00 0.896D+00
 Coeff:      0.781D-01 0.283D+00 0.639D+00
 Gap=     0.430 Goal=   None    Shift=    0.000
 RMSDP=2.58D-04 MaxDP=9.31D-03 DE=-6.94D-02 OVMax= 5.64D-02

 Cycle   4  Pass 0  IDiag  1:
 E= -132.529583203824     Delta-E=       -0.012687439469 Rises=F Damp=F
 DIIS: error= 5.04D-03 at cycle   4 NSaved=   4.
 NSaved= 4 IEnMin= 4 EnMin= -132.529583203824     IErMin= 4 ErrMin= 5.04D-03
 ErrMax= 5.04D-03  0.00D+00 EMaxC= 1.00D-01 BMatC= 2.81D-03 BMatP= 1.85D-02
 IDIUse=3 WtCom= 9.50D-01 WtEn= 5.04D-02
 Coeff-Com: -0.124D-01 0.515D-01 0.331D+00 0.630D+00
 Coeff-En:   0.000D+00 0.000D+00 0.138D+00 0.862D+00
 Coeff:     -0.117D-01 0.489D-01 0.321D+00 0.642D+00
 Gap=     0.429 Goal=   None    Shift=    0.000
 RMSDP=8.77D-05 MaxDP=2.79D-03 DE=-1.27D-02 OVMax= 1.47D-02

 Cycle   5  Pass 0  IDiag  1:
 E= -132.532024984727     Delta-E=       -0.002441780904 Rises=F Damp=F
 DIIS: error= 3.32D-04 at cycle   5 NSaved=   5.
 NSaved= 5 IEnMin= 5 EnMin= -132.532024984727     IErMin= 5 ErrMin= 3.32D-04
 ErrMax= 3.32D-04  0.00D+00 EMaxC= 1.00D-01 BMatC= 1.36D-05 BMatP= 2.81D-03
 IDIUse=3 WtCom= 9.97D-01 WtEn= 3.32D-03
 Coeff-Com: -0.366D-02 0.543D-02 0.525D-01 0.149D+00 0.797D+00
 Coeff-En:   0.000D+00 0.000D+00 0.000D+00 0.000D+00 0.100D+01
 Coeff:     -0.365D-02 0.541D-02 0.524D-01 0.148D+00 0.798D+00
 Gap=     0.428 Goal=   None    Shift=    0.000
 RMSDP=8.72D-06 MaxDP=3.42D-04 DE=-2.44D-03 OVMax= 1.14D-03

 Initial convergence to 1.0D-05 achieved.  Increase integral accuracy.
 Cycle   6  Pass 1  IDiag  1:
 E= -132.532038882977     Delta-E=       -0.000013898249 Rises=F Damp=F
 DIIS: error= 8.60D-05 at cycle   1 NSaved=   1.
 NSaved= 1 IEnMin= 1 EnMin= -132.532038882977     IErMin= 1 ErrMin= 8.60D-05
 ErrMax= 8.60D-05  0.00D+00 EMaxC= 1.00D-01 BMatC= 6.67D-07 BMatP= 6.67D-07
 IDIUse=1 WtCom= 1.00D+00 WtEn= 0.00D+00
 Coeff-Com:  0.100D+01
 Coeff:      0.100D+01
 Gap=     0.429 Goal=   None    Shift=    0.000
 RMSDP=8.72D-06 MaxDP=3.42D-04 DE=-1.39D-05 OVMax= 4.16D-04

 Cycle   7  Pass 1  IDiag  1:
 E= -132.532039285363     Delta-E=       -0.000000402386 Rises=F Damp=F
 DIIS: error= 5.15D-05 at cycle   2 NSaved=   2.
 NSaved= 2 IEnMin= 2 EnMin= -132.532039285363     IErMin= 2 ErrMin= 5.15D-05
 ErrMax= 5.15D-05  0.00D+00 EMaxC= 1.00D-01 BMatC= 3.16D-07 BMatP= 6.67D-07
 IDIUse=1 WtCom= 1.00D+00 WtEn= 0.00D+00
 Coeff-Com:  0.400D+00 0.600D+00
 Coeff:      0.400D+00 0.600D+00
 Gap=     0.429 Goal=   None    Shift=    0.000
 RMSDP=1.03D-06 MaxDP=4.27D-05 DE=-4.02D-07 OVMax= 1.71D-04

 Cycle   8  Pass 1  IDiag  1:
 E= -132.532039562607     Delta-E=       -0.000000277245 Rises=F Damp=F
 DIIS: error= 1.42D-05 at cycle   3 NSaved=   3.
 NSaved= 3 IEnMin= 3 EnMin= -132.532039562607     IErMin= 3 ErrMin= 1.42D-05
 ErrMax= 1.42D-05  0.00D+00 EMaxC= 1.00D-01 BMatC= 1.95D-08 BMatP= 3.16D-07
 IDIUse=1 WtCom= 1.00D+00 WtEn= 0.00D+00
 Coeff-Com:  0.966D-01 0.224D+00 0.680D+00
 Coeff:      0.966D-01 0.224D+00 0.680D+00
 Gap=     0.429 Goal=   None    Shift=    0.000
 RMSDP=5.92D-07 MaxDP=2.65D-05 DE=-2.77D-07 OVMax= 5.86D-05

 Cycle   9  Pass 1  IDiag  1:
 E= -132.532039574112     Delta-E=       -0.000000011504 Rises=F Damp=F
 DIIS: error= 1.15D-05 at cycle   4 NSaved=   4.
 NSaved= 4 IEnMin= 4 EnMin= -132.532039574112     IErMin= 4 ErrMin= 1.15D-05
 ErrMax= 1.15D-05  0.00D+00 EMaxC= 1.00D-01 BMatC= 7.71D-09 BMatP= 1.95D-08
 IDIUse=1 WtCom= 1.00D+00 WtEn= 0.00D+00
 Coeff-Com: -0.606D-01-0.380D-01 0.422D+00 0.676D+00
 Coeff:     -0.606D-01-0.380D-01 0.422D+00 0.676D+00
 Gap=     0.429 Goal=   None    Shift=    0.000
 RMSDP=2.82D-07 MaxDP=1.42D-05 DE=-1.15D-08 OVMax= 3.76D-05

 Cycle  10  Pass 1  IDiag  1:
 E= -132.532039581369     Delta-E=       -0.000000007258 Rises=F Damp=F
 DIIS: error= 1.04D-06 at cycle   5 NSaved=   5.
 NSaved= 5 IEnMin= 5 EnMin= -132.532039581369     IErMin= 5 ErrMin= 1.04D-06
 ErrMax= 1.04D-06  0.00D+00 EMaxC= 1.00D-01 BMatC= 1.17D-10 BMatP= 7.71D-09
 IDIUse=1 WtCom= 1.00D+00 WtEn= 0.00D+00
 Coeff-Com: -0.224D-01-0.212D-01 0.900D-01 0.203D+00 0.751D+00
 Coeff:     -0.224D-01-0.212D-01 0.900D-01 0.203D+00 0.751D+00
 Gap=     0.429 Goal=   None    Shift=    0.000
 RMSDP=4.82D-08 MaxDP=2.39D-06 DE=-7.26D-09 OVMax= 3.68D-06

 Cycle  11  Pass 1  IDiag  1:
 E= -132.532039581500     Delta-E=       -0.000000000131 Rises=F Damp=F
 DIIS: error= 3.85D-07 at cycle   6 NSaved=   6.
 NSaved= 6 IEnMin= 6 EnMin= -132.532039581500     IErMin= 6 ErrMin= 3.85D-07
 ErrMax= 3.85D-07  0.00D+00 EMaxC= 1.00D-01 BMatC= 7.92D-12 BMatP= 1.17D-10
 IDIUse=1 WtCom= 1.00D+00 WtEn= 0.00D+00
 Coeff-Com:  0.490D-02 0.238D-02-0.430D-01-0.488D-01 0.882D-01 0.996D+00
 Coeff:      0.490D-02 0.238D-02-0.430D-01-0.488D-01 0.882D-01 0.996D+00
 Gap=     0.429 Goal=   None    Shift=    0.000
 RMSDP=1.34D-08 MaxDP=4.75D-07 DE=-1.31D-10 OVMax= 2.49D-06

 Cycle  12  Pass 1  IDiag  1:
 E= -132.532039581520     Delta-E=       -0.000000000020 Rises=F Damp=F
 DIIS: error= 1.14D-07 at cycle   7 NSaved=   7.
 NSaved= 7 IEnMin= 7 EnMin= -132.532039581520     IErMin= 7 ErrMin= 1.14D-07
 ErrMax= 1.14D-07  0.00D+00 EMaxC= 1.00D-01 BMatC= 5.18D-13 BMatP= 7.92D-12
 IDIUse=1 WtCom= 1.00D+00 WtEn= 0.00D+00
 Coeff-Com:  0.285D-03 0.939D-03 0.577D-02-0.170D-03-0.781D-01-0.299D+00
 Coeff-Com:  0.137D+01
 Coeff:      0.285D-03 0.939D-03 0.577D-02-0.170D-03-0.781D-01-0.299D+00
 Coeff:      0.137D+01
 Gap=     0.429 Goal=   None    Shift=    0.000
 RMSDP=5.22D-09 MaxDP=1.62D-07 DE=-1.96D-11 OVMax= 1.28D-06

 SCF Done:  E(RB2PLYPD3) =  -132.532039582     A.U. after   12 cycles
            NFock= 12  Conv=0.52D-08     -V/T= 2.0041
 KE= 1.319871721183D+02 PE=-4.251287355031D+02 EE= 1.023318062254D+02
 Leave Link  502 at Wed Aug 26 15:38:07 2020, MaxMem=  2097152000 cpu:       111.8
 (Enter /opt/cluster/programs/g09/g09_d.01/g09/l801.exe)
 DoSCS=T DFT=T ScalE2(SS,OS)=  0.270000  0.270000
 ExpMin= 7.60D-02 ExpMax= 9.07D+04 ExpMxC= 8.76D+02 IAcc=3 IRadAn=         5 AccDes= 0.00D+00
 HarFok:  IExCor=  205 AccDes= 0.00D+00 IRadAn=         5 IDoV=-2 UseB2=F ITyADJ=14
 ICtDFT= 12500011 ScaDFX=  1.000000  1.000000  1.000000  1.000000
 Largest valence mixing into a core orbital is  1.15D-04
 Largest core mixing into a valence orbital is  1.87D-05
 Range of M.O.s used for correlation:     4   261
 NBasis=   261 NAE=    11 NBE=    11 NFC=     3 NFV=     0
 NROrb=    258 NOA=     8 NOB=     8 NVA=   250 NVB=   250

 **** Warning!!: The largest alpha MO coefficient is  0.26582883D+02

 Leave Link  801 at Wed Aug 26 15:38:07 2020, MaxMem=  2097152000 cpu:         0.7
 (Enter /opt/cluster/programs/g09/g09_d.01/g09/l906.exe)
 DoSCS=T DFT=T ScalE2(SS,OS)=  0.270000  0.270000
 FulOut=F Deriv=F AODrv=F NAtomX=     6
   MMem=        2666  MDisk=           8 MDiskD=           8
  W3Min=      642000 MinDsk=     1426009 NBas6D=         321
 NBas2D=       52689    NTT=       51681    LW2=     4508827
    MDV=  2096809965 MDiskM=       14501 NBas2p=       52051
 Fully direct method using O(OVN) memory.
 IMap=   1   2   3   4   5   6   7   8
 JobTyp=1 Pass  1:  I=   1 to   8 NPSUse=  8 ParTrn=T ParDer=T DoDerP=F.
 Spin components of T(2) and E(2):
     alpha-alpha T2 =       0.3521473748D-01 E2=     -0.2125747386D-01
     alpha-beta  T2 =       0.2076264462D+00 E2=     -0.1372542977D+00
     beta-beta   T2 =       0.3521473748D-01 E2=     -0.2125747386D-01
 The integrals were generated   1 times.
 E2(B2PLYPD3) =    -0.1797692455D+00 E(B2PLYPD3) =    -0.13271180882698D+03
 Leave Link  906 at Wed Aug 26 15:38:22 2020, MaxMem=  2097152000 cpu:       117.8
 (Enter /opt/cluster/programs/g09/g09_d.01/g09/l601.exe)
 Copying SCF densities to generalized density rwf, IOpCl= 0 IROHF=0.

 **********************************************************************

            Population analysis using the SCF density.

 **********************************************************************

 Orbital symmetries:
       Occupied  (A) (A) (A) (A) (A) (A) (A) (A) (A) (A) (A)
       Virtual   (A) (A) (A) (A) (A) (A) (A) (A) (A) (A) (A) (A)
                 (A) (A) (A) (A) (A) (A) (A) (A) (A) (A) (A) (A)
                 (A) (A) (A) (A) (A) (A) (A) (A) (A) (A) (A) (A)
                 (A) (A) (A) (A) (A) (A) (A) (A) (A) (A) (A) (A)
                 (A) (A) (A) (A) (A) (A) (A) (A) (A) (A) (A) (A)
                 (A) (A) (A) (A) (A) (A) (A) (A) (A) (A) (A) (A)
                 (A) (A) (A) (A) (A) (A) (A) (A) (A) (A) (A) (A)
                 (A) (A) (A) (A) (A) (A) (A) (A) (A) (A) (A) (A)
                 (A) (A) (A) (A) (A) (A) (A) (A) (A) (A) (A) (A)
                 (A) (A) (A) (A) (A) (A) (A) (A) (A) (A) (A) (A)
                 (A) (A) (A) (A) (A) (A) (A) (A) (A) (A) (A) (A)
                 (A) (A) (A) (A) (A) (A) (A) (A) (A) (A) (A) (A)
                 (A) (A) (A) (A) (A) (A) (A) (A) (A) (A) (A) (A)
                 (A) (A) (A) (A) (A) (A) (A) (A) (A) (A) (A) (A)
                 (A) (A) (A) (A) (A) (A) (A) (A) (A) (A) (A) (A)
                 (A) (A) (A) (A) (A) (A) (A) (A) (A) (A) (A) (A)
                 (A) (A) (A) (A) (A) (A) (A) (A) (A) (A) (A) (A)
                 (A) (A) (A) (A) (A) (A) (A) (A) (A) (A) (A) (A)
                 (A) (A) (A) (A) (A) (A) (A) (A) (A) (A) (A) (A)
                 (A) (A) (A) (A) (A) (A) (A) (A) (A) (A) (A) (A)
                 (A) (A) (A) (A) (A) (A) (A) (A) (A) (A)
 The electronic state is 1-A.
 Alpha  occ. eigenvalues --  -14.83920 -10.67994 -10.66046  -1.04724  -0.88247
 Alpha  occ. eigenvalues --   -0.59565  -0.53573  -0.52259  -0.44823  -0.39587
 Alpha  occ. eigenvalues --   -0.39283
 Alpha virt. eigenvalues --    0.03588   0.07504   0.08097   0.10162   0.11518
 Alpha virt. eigenvalues --    0.11767   0.15344   0.15801   0.17494   0.19974
 Alpha virt. eigenvalues --    0.20103   0.25189   0.32517   0.33619   0.34848
 Alpha virt. eigenvalues --    0.38459   0.39550   0.39747   0.40518   0.46957
 Alpha virt. eigenvalues --    0.49527   0.52156   0.57848   0.59704   0.61501
 Alpha virt. eigenvalues --    0.67306   0.68178   0.69491   0.70265   0.78813
 Alpha virt. eigenvalues --    0.79533   0.81368   0.82039   0.83426   0.86788
 Alpha virt. eigenvalues --    0.90954   0.93652   0.95263   0.95989   0.97844
 Alpha virt. eigenvalues --    1.05994   1.07585   1.08797   1.11448   1.14110
 Alpha virt. eigenvalues --    1.14331   1.21471   1.22460   1.23570   1.34564
 Alpha virt. eigenvalues --    1.35617   1.43761   1.46419   1.48337   1.52954
 Alpha virt. eigenvalues --    1.65089   1.67089   1.70121   1.72056   1.77603
 Alpha virt. eigenvalues --    1.78366   1.79265   1.89353   1.90472   1.92786
 Alpha virt. eigenvalues --    1.95179   1.99087   1.99856   2.00668   2.03975
 Alpha virt. eigenvalues --    2.07273   2.12171   2.14996   2.18631   2.19892
 Alpha virt. eigenvalues --    2.22089   2.24341   2.25568   2.32543   2.34153
 Alpha virt. eigenvalues --    2.41610   2.49817   2.50512   2.55932   2.57895
 Alpha virt. eigenvalues --    2.62021   2.66158   2.69487   2.71368   2.74455
 Alpha virt. eigenvalues --    2.75335   2.76312   2.84590   2.87662   2.90545
 Alpha virt. eigenvalues --    2.91125   2.92926   2.94813   2.96055   3.06240
 Alpha virt. eigenvalues --    3.09001   3.10697   3.20912   3.26235   3.28936
 Alpha virt. eigenvalues --    3.31607   3.32319   3.36769   3.37695   3.45201
 Alpha virt. eigenvalues --    3.50043   3.56370   3.66590   3.74320   3.77958
 Alpha virt. eigenvalues --    3.83196   3.88055   3.88926   3.94301   3.96090
 Alpha virt. eigenvalues --    4.01650   4.04364   4.05171   4.22505   4.25757
 Alpha virt. eigenvalues --    4.55383   4.90801   4.91112   5.05582   5.07505
 Alpha virt. eigenvalues --    5.12468   5.15487   5.16924   5.21224   5.24730
 Alpha virt. eigenvalues --    5.26917   5.42412   5.44521   5.48376   5.60514
 Alpha virt. eigenvalues --    5.65266   5.83064   5.85504   5.90125   5.92592
 Alpha virt. eigenvalues --    5.93939   5.94743   5.95984   5.98457   5.99238
 Alpha virt. eigenvalues --    6.02177   6.02856   6.03889   6.06688   6.12825
 Alpha virt. eigenvalues --    6.15352   6.17097   6.19830   6.24429   6.32323
 Alpha virt. eigenvalues --    6.39201   6.42142   6.43595   6.53050   6.56091
 Alpha virt. eigenvalues --    6.57421   6.59167   6.76984   6.81355   6.91008
 Alpha virt. eigenvalues --    6.92416   7.02845   7.02861   7.06518   7.07635
 Alpha virt. eigenvalues --    7.11905   7.15484   7.21135   7.38732   7.43157
 Alpha virt. eigenvalues --    7.46262   7.52120   7.54108   7.54810   7.58211
 Alpha virt. eigenvalues --    7.66629   7.74331   7.75370   7.79985   7.81208
 Alpha virt. eigenvalues --    7.86148   7.88537   7.95046   7.98632   8.16350
 Alpha virt. eigenvalues --    8.27478   8.30600   8.38031   8.39701   8.41275
 Alpha virt. eigenvalues --    8.42458   8.46093   8.48193   8.48801   8.55537
 Alpha virt. eigenvalues --    8.58455   8.62474   8.65219   8.66793   8.66850
 Alpha virt. eigenvalues --    8.68637   8.78289   8.79768   8.88279   8.94042
 Alpha virt. eigenvalues --    8.97152   9.01141   9.09459   9.13045   9.16972
 Alpha virt. eigenvalues --    9.25604   9.25942   9.64799   9.69619   9.71661
 Alpha virt. eigenvalues --    9.76988   9.80338   9.88013   9.91637   9.97874
 Alpha virt. eigenvalues --   10.02959  10.15457  10.19426  10.23215  10.28937
 Alpha virt. eigenvalues --   10.33027  10.47995  11.39545  11.83420  11.90437
 Alpha virt. eigenvalues --   12.04431  12.12376  13.04783  13.33820  29.13188
 Alpha virt. eigenvalues --   29.46083  38.35852 148.77106 149.09842 198.28834
          Condensed to atoms (all electrons):
               1          2          3          4          5          6
     1  C    4.617902   0.308136  -0.058177   0.410127   0.410649   0.402736
     2  C    0.308136   4.817500   0.996410  -0.034013  -0.041544  -0.046540
     3  N   -0.058177   0.996410   6.260592  -0.001089  -0.000391  -0.000320
     4  H    0.410127  -0.034013  -0.001089   0.590061  -0.030846  -0.030623
     5  H    0.410649  -0.041544  -0.000391  -0.030846   0.588797  -0.026163
     6  H    0.402736  -0.046540  -0.000320  -0.030623  -0.026163   0.608447
 Mulliken charges:
               1
     1  C   -0.091371
     2  C    0.000051
     3  N   -0.197025
     4  H    0.096384
     5  H    0.099498
     6  H    0.092463
 Sum of Mulliken charges =   0.00000
 Mulliken charges with hydrogens summed into heavy atoms:
               1
     1  C    0.196974
     2  C    0.000051
     3  N   -0.197025
 Electronic spatial extent (au):  <R**2>=            163.4023
 Charge=              0.0000 electrons
 Dipole moment (field-independent basis, Debye):
    X=              4.1042    Y=             -0.0170    Z=             -0.0400  Tot=              4.1044
 Quadrupole moment (field-independent basis, Debye-Ang):
   XX=            -20.9217   YY=            -17.7098   ZZ=            -17.8879
   XY=             -0.0274   XZ=              0.1928   YZ=             -0.0312
 Traceless Quadrupole moment (field-independent basis, Debye-Ang):
   XX=             -2.0819   YY=              1.1300   ZZ=              0.9519
   XY=             -0.0274   XZ=              0.1928   YZ=             -0.0312
 Octapole moment (field-independent basis, Debye-Ang**2):
  XXX=             12.9583  YYY=              0.7382  ZZZ=              0.3862  XYY=              2.1930
  XXY=             -0.0234  XXZ=              0.4893  XZZ=              1.9817  YZZ=             -0.7114
  YYZ=             -0.4094  XYZ=             -0.1244
 Hexadecapole moment (field-independent basis, Debye-Ang**3):
 XXXX=           -183.7681 YYYY=            -25.0789 ZZZZ=            -25.3010 XXXY=             -0.0239
 XXXZ=              1.5033 YYYX=              1.2451 YYYZ=             -0.0488 ZZZX=              0.7436
 ZZZY=             -0.0088 XXYY=            -31.3182 XXZZ=            -31.4911 YYZZ=             -8.3007
 XXYZ=             -0.3978 YYXZ=             -0.6791 ZZXY=             -1.2512
 N-N= 5.827771757790D+01 E-N=-4.251287368641D+02  KE= 1.319871721183D+02
 Leave Link  601 at Wed Aug 26 15:38:22 2020, MaxMem=  2097152000 cpu:         0.4
 (Enter /opt/cluster/programs/g09/g09_d.01/g09/l9999.exe)
 1\1\GINC-NODE06\SP\RB2PLYPD3-FC\def2QZVP\C2H3N1\BOITTIER\26-Aug-2020\0
 \\#p B2PLYPD3/Def2QZVP\\cyanomethane\\0,1\C,0,-6.595992,-1.128812,1.17
 5615\C,0,-5.196588,-0.772966,0.880041\N,0,-4.090906,-0.544931,0.718456
 \H,0,-6.872997,-1.214271,2.253244\H,0,-6.887725,-2.053064,0.654052\H,0
 ,-7.217192,-0.271795,0.783807\\Version=ES64L-G09RevD.01\State=1-A\HF=-
 132.5320396\MP2=-132.7118088\RMSD=5.224e-09\PG=C01 [X(C2H3N1)]\\@


          EVOLUTION
 IN THE BEGINNING GOD MADE MAN.
 HE WORKED THE DIRT WITH HIS HANDS.
 THEN GOD DECIDED TO GIVE MAN SCIENCE,
 MAN SHOULD BE USEFUL (LIKE AN APPLIANCE.)
 BUT SOON MAN'S KNOWLEDGE GREW TOO GREAT,
 TO THE HEADING SCIENCE HE COULDN'T RELATE
 SO GOD SAID "LETS HAVE DIFFERENT FIELDS,
 WE'LL DIVIDE THEM UP, SEE WHAT IT YIELDS."
 ENTER PHYSICS, CHEMISTRY, BIO
 THEY SPRANG UP AROUND THE NILE.
 BUT CHEMISTRY SURPASSED THE REST
 FAR AND AWAY IT WAS THE BEST.
 EXPERIMENT WAS GOD'S DECREE
 EXPERIMENT DID CHEMISTS WITH LOTS OF GLEE
 BUT SOON THEIR TESTS BEGAN TO BOG,
 THEY FOUND THEMSELVES DEEP IN A FOG.
 "GIVE US SOME HELP" THEY CRIED TO GOD.
 GOD LOOKED AROUND, THEN GAVE THE NOD.
 ENTER EINSTEIN, HEISENBERG, BOHR,
 REACTION PATHS WERE CLEAR ONCE MORE.
 WITH THEORISTS GOD SEND DIRECTION
 AND THEN HE STOPPED, HE'D MADE PERFECTION.
          -- THOMAS A. HOLME, 1981
 Job cpu time:       0 days  0 hours  3 minutes 59.6 seconds.
 File lengths (MBytes):  RWF=     28 Int=      0 D2E=      0 Chk=      5 Scr=      1
 Normal termination of Gaussian 09 at Wed Aug 26 15:38:22 2020.
