 Entering Gaussian System, Link 0=/opt/cluster/programs/g09/g09_d.01/g09//g09
 Input=/home/boittier/MDCM/nms_sampling/cyanomethane_geom.xyz.dir/energies/cyanomethane_2033_energy.com
 Output=/scratch/boittier/cyanomethane_2033_energy/cyanomethane_2033_energy.out
 Initial command:
 /opt/cluster/programs/g09/g09_d.01/g09/l1.exe "/scratch/boittier/cyanomethane_2033_energy/Gau-82702.inp" -scrdir="/scratch/boittier/cyanomethane_2033_energy/"
 Entering Link 1 = /opt/cluster/programs/g09/g09_d.01/g09/l1.exe PID=     82703.
  
 Copyright (c) 1988,1990,1992,1993,1995,1998,2003,2009,2013,
            Gaussian, Inc.  All Rights Reserved.
  
 This is part of the Gaussian(R) 09 program.  It is based on
 the Gaussian(R) 03 system (copyright 2003, Gaussian, Inc.),
 the Gaussian(R) 98 system (copyright 1998, Gaussian, Inc.),
 the Gaussian(R) 94 system (copyright 1995, Gaussian, Inc.),
 the Gaussian 92(TM) system (copyright 1992, Gaussian, Inc.),
 the Gaussian 90(TM) system (copyright 1990, Gaussian, Inc.),
 the Gaussian 88(TM) system (copyright 1988, Gaussian, Inc.),
 the Gaussian 86(TM) system (copyright 1986, Carnegie Mellon
 University), and the Gaussian 82(TM) system (copyright 1983,
 Carnegie Mellon University). Gaussian is a federally registered
 trademark of Gaussian, Inc.
  
 This software contains proprietary and confidential information,
 including trade secrets, belonging to Gaussian, Inc.
  
 This software is provided under written license and may be
 used, copied, transmitted, or stored only in accord with that
 written license.
  
 The following legend is applicable only to US Government
 contracts under FAR:
  
                    RESTRICTED RIGHTS LEGEND
  
 Use, reproduction and disclosure by the US Government is
 subject to restrictions as set forth in subparagraphs (a)
 and (c) of the Commercial Computer Software - Restricted
 Rights clause in FAR 52.227-19.
  
 Gaussian, Inc.
 340 Quinnipiac St., Bldg. 40, Wallingford CT 06492
  
  
 ---------------------------------------------------------------
 Warning -- This program may not be used in any manner that
 competes with the business of Gaussian, Inc. or will provide
 assistance to any competitor of Gaussian, Inc.  The licensee
 of this program is prohibited from giving any competitor of
 Gaussian, Inc. access to this program.  By using this program,
 the user acknowledges that Gaussian, Inc. is engaged in the
 business of creating and licensing software in the field of
 computational chemistry and represents and warrants to the
 licensee that it is not a competitor of Gaussian, Inc. and that
 it will not use this program in any manner prohibited above.
 ---------------------------------------------------------------
  

 Cite this work as:
 Gaussian 09, Revision D.01,
 M. J. Frisch, G. W. Trucks, H. B. Schlegel, G. E. Scuseria, 
 M. A. Robb, J. R. Cheeseman, G. Scalmani, V. Barone, B. Mennucci, 
 G. A. Petersson, H. Nakatsuji, M. Caricato, X. Li, H. P. Hratchian, 
 A. F. Izmaylov, J. Bloino, G. Zheng, J. L. Sonnenberg, M. Hada, 
 M. Ehara, K. Toyota, R. Fukuda, J. Hasegawa, M. Ishida, T. Nakajima, 
 Y. Honda, O. Kitao, H. Nakai, T. Vreven, J. A. Montgomery, Jr., 
 J. E. Peralta, F. Ogliaro, M. Bearpark, J. J. Heyd, E. Brothers, 
 K. N. Kudin, V. N. Staroverov, T. Keith, R. Kobayashi, J. Normand, 
 K. Raghavachari, A. Rendell, J. C. Burant, S. S. Iyengar, J. Tomasi, 
 M. Cossi, N. Rega, J. M. Millam, M. Klene, J. E. Knox, J. B. Cross, 
 V. Bakken, C. Adamo, J. Jaramillo, R. Gomperts, R. E. Stratmann, 
 O. Yazyev, A. J. Austin, R. Cammi, C. Pomelli, J. W. Ochterski, 
 R. L. Martin, K. Morokuma, V. G. Zakrzewski, G. A. Voth, 
 P. Salvador, J. J. Dannenberg, S. Dapprich, A. D. Daniels, 
 O. Farkas, J. B. Foresman, J. V. Ortiz, J. Cioslowski, 
 and D. J. Fox, Gaussian, Inc., Wallingford CT, 2013.
 
 ******************************************
 Gaussian 09:  ES64L-G09RevD.01 24-Apr-2013
                26-Aug-2020 
 ******************************************
 %chk=/home/boittier/MDCM/nms_sampling/cyanomethane_geom.xyz.dir/cyanomethane_203
 3.chk
 %nproc=8
 Will use up to    8 processors via shared memory.
 %mem=16000MB
 --------------------
 #p B2PLYPD3/Def2QZVP
 --------------------
 1/38=1/1;
 2/12=2,17=6,18=5,40=1/2;
 3/5=45,7=101,11=9,16=1,25=1,30=1,74=-60/1,2,3;
 4//1;
 5/5=2,38=5/2;
 8/10=1/1;
 9/16=-3/6;
 6/7=2,8=2,9=2,10=2/1;
 99/5=1,9=1/99;
 Leave Link    1 at Wed Aug 26 14:37:45 2020, MaxMem=  2097152000 cpu:         0.3
 (Enter /opt/cluster/programs/g09/g09_d.01/g09/l101.exe)
 ------------
 cyanomethane
 ------------
 Symbolic Z-matrix:
 Charge =  0 Multiplicity = 1
 C                    -6.5826   -1.118     1.15701 
 C                    -5.20769  -0.76204   0.90319 
 N                    -4.09883  -0.5546    0.70493 
 H                    -6.77671  -1.24239   2.27671 
 H                    -6.82334  -2.03051   0.70238 
 H                    -7.29701  -0.38762   0.82234 
 
 NAtoms=      6 NQM=        6 NQMF=       0 NMMI=      0 NMMIF=      0
                NMic=       0 NMicF=      0.
                    Isotopes and Nuclear Properties:
 (Nuclear quadrupole moments (NQMom) in fm**2, nuclear magnetic moments (NMagM)
  in nuclear magnetons)

  Atom         1           2           3           4           5           6
 IAtWgt=          12          12          14           1           1           1
 AtmWgt=  12.0000000  12.0000000  14.0030740   1.0078250   1.0078250   1.0078250
 NucSpn=           0           0           2           1           1           1
 AtZEff=   0.0000000   0.0000000   0.0000000   0.0000000   0.0000000   0.0000000
 NQMom=    0.0000000   0.0000000   2.0440000   0.0000000   0.0000000   0.0000000
 NMagM=    0.0000000   0.0000000   0.4037610   2.7928460   2.7928460   2.7928460
 AtZNuc=   6.0000000   6.0000000   7.0000000   1.0000000   1.0000000   1.0000000
 Leave Link  101 at Wed Aug 26 14:37:45 2020, MaxMem=  2097152000 cpu:         0.5
 (Enter /opt/cluster/programs/g09/g09_d.01/g09/l202.exe)
                          Input orientation:                          
 ---------------------------------------------------------------------
 Center     Atomic      Atomic             Coordinates (Angstroms)
 Number     Number       Type             X           Y           Z
 ---------------------------------------------------------------------
      1          6           0       -6.582600   -1.118002    1.157012
      2          6           0       -5.207693   -0.762035    0.903187
      3          7           0       -4.098832   -0.554598    0.704927
      4          1           0       -6.776711   -1.242394    2.276714
      5          1           0       -6.823341   -2.030512    0.702381
      6          1           0       -7.297005   -0.387620    0.822342
 ---------------------------------------------------------------------
                    Distance matrix (angstroms):
                    1          2          3          4          5
     1  C    0.000000
     2  C    1.442744   0.000000
     3  N    2.586679   1.145386   0.000000
     4  H    1.143191   2.139892   3.180348   0.000000
     5  H    1.047530   2.063898   3.098593   1.761201   0.000000
     6  H    1.075098   2.124134   3.204681   1.765373   1.714014
                    6
     6  H    0.000000
 Stoichiometry    C2H3N
 Framework group  C1[X(C2H3N)]
 Deg. of freedom    12
 Full point group                 C1      NOp   1
 Largest Abelian subgroup         C1      NOp   1
 Largest concise Abelian subgroup C1      NOp   1
                         Standard orientation:                         
 ---------------------------------------------------------------------
 Center     Atomic      Atomic             Coordinates (Angstroms)
 Number     Number       Type             X           Y           Z
 ---------------------------------------------------------------------
      1          6           0       -1.160468   -0.011589    0.009521
      2          6           0        0.281674   -0.008853   -0.032030
      3          7           0        1.426149    0.006232    0.011097
      4          1           0       -1.576946    1.051549   -0.046765
      5          1           0       -1.508608   -0.428648    0.905166
      6          1           0       -1.624725   -0.543867   -0.801023
 ---------------------------------------------------------------------
 Rotational constants (GHZ):    163.5572687      9.3571157      9.3379823
 Leave Link  202 at Wed Aug 26 14:37:45 2020, MaxMem=  2097152000 cpu:         0.0
 (Enter /opt/cluster/programs/g09/g09_d.01/g09/l301.exe)
 Standard basis: def2QZVP (5D, 7F)
 Ernie: Thresh=  0.10000D-02 Tol=  0.10000D-05 Strict=F.
 There are   321 symmetry adapted cartesian basis functions of A   symmetry.
 There are   261 symmetry adapted basis functions of A   symmetry.
   261 basis functions,   390 primitive gaussians,   321 cartesian basis functions
    11 alpha electrons       11 beta electrons
       nuclear repulsion energy        58.9044192988 Hartrees.
 IExCor=  419 DFT=T Ex+Corr=B2PLYPD3 ExCW=0 ScaHFX=  0.530000
 ScaDFX=  0.470000  0.470000  0.730000  0.730000 ScalE2=  0.270000  0.270000
 IRadAn=      0 IRanWt=     -1 IRanGd=            0 ICorTp=0 IEmpDi=141
 NAtoms=    6 NActive=    6 NUniq=    6 SFac= 1.00D+00 NAtFMM=   60 NAOKFM=F Big=F
 Integral buffers will be    131072 words long.
 Regular integral format.
 Two-electron integral symmetry is turned on.
 R6Disp:  Grimme-D3(BJ) Dispersion energy=       -0.0021032740 Hartrees.
 Nuclear repulsion after empirical dispersion term =       58.9023160248 Hartrees.
 Leave Link  301 at Wed Aug 26 14:37:45 2020, MaxMem=  2097152000 cpu:         0.4
 (Enter /opt/cluster/programs/g09/g09_d.01/g09/l302.exe)
 NPDir=0 NMtPBC=     1 NCelOv=     1 NCel=       1 NClECP=     1 NCelD=      1
         NCelK=      1 NCelE2=     1 NClLst=     1 CellRange=     0.0.
 One-electron integrals computed using PRISM.
   1 Symmetry operations used in ECPInt.
 ECPInt:  NShTT=    3321 NPrTT=    8136 LenC2=    3293 LenP2D=    7128.
 LDataN:  DoStor=T MaxTD1= 8 Len=  415
 NBasis=   261 RedAO= T EigKep=  7.70D-05  NBF=   261
 NBsUse=   261 1.00D-06 EigRej= -1.00D+00 NBFU=   261
 Precomputing XC quadrature grid using
 IXCGrd= 4 IRadAn=           0 IRanWt=          -1 IRanGd=           0 AccXCQ= 0.00D+00.
 Generated NRdTot=       0 NPtTot=           0 NUsed=           0 NTot=          32
 NSgBfM=   321   321   321   321   321 MxSgAt=     6 MxSgA2=     6.
 Leave Link  302 at Wed Aug 26 14:37:46 2020, MaxMem=  2097152000 cpu:         2.4
 (Enter /opt/cluster/programs/g09/g09_d.01/g09/l303.exe)
 DipDrv:  MaxL=1.
 Leave Link  303 at Wed Aug 26 14:37:46 2020, MaxMem=  2097152000 cpu:         0.2
 (Enter /opt/cluster/programs/g09/g09_d.01/g09/l401.exe)
 ExpMin= 7.60D-02 ExpMax= 9.07D+04 ExpMxC= 8.76D+02 IAcc=2 IRadAn=         4 AccDes= 0.00D+00
 Harris functional with IExCor=  419 and IRadAn=       4 diagonalized for initial guess.
 HarFok:  IExCor=  419 AccDes= 0.00D+00 IRadAn=         4 IDoV= 1 UseB2=F ITyADJ=14
 ICtDFT=  3500011 ScaDFX=  1.000000  1.000000  1.000000  1.000000
 FoFCou: FMM=F IPFlag=           0 FMFlag=      100000 FMFlg1=           0
         NFxFlg=           0 DoJE=T BraDBF=F KetDBF=T FulRan=T
         wScrn=  0.000000 ICntrl=     500 IOpCl=  0 I1Cent=   200000004 NGrid=           0
         NMat0=    1 NMatS0=      1 NMatT0=    0 NMatD0=    1 NMtDS0=    0 NMtDT0=    0
 Petite list used in FoFCou.
 Harris En= -132.852894686248    
 JPrj=0 DoOrth=F DoCkMO=F.
 Leave Link  401 at Wed Aug 26 14:37:46 2020, MaxMem=  2097152000 cpu:         4.4
 (Enter /opt/cluster/programs/g09/g09_d.01/g09/l502.exe)
 Closed shell SCF:
 Using DIIS extrapolation, IDIIS=  1040.
 Integral symmetry usage will be decided dynamically.
 Keep R1 ints in memory in canonical form, NReq=601554820.
 IVT=      332521 IEndB=      332521 NGot=  2097152000 MDV=  1512290144
 LenX=  1512290144 LenY=  1512186662
 Requested convergence on RMS density matrix=1.00D-08 within 128 cycles.
 Requested convergence on MAX density matrix=1.00D-06.
 Requested convergence on             energy=1.00D-06.
 No special actions if energy rises.
 FoFCou: FMM=F IPFlag=           0 FMFlag=           0 FMFlg1=           0
         NFxFlg=           0 DoJE=F BraDBF=F KetDBF=F FulRan=T
         wScrn=  0.000000 ICntrl=     600 IOpCl=  0 I1Cent=           0 NGrid=           0
         NMat0=    1 NMatS0=  34191 NMatT0=    0 NMatD0=    1 NMtDS0=    0 NMtDT0=    0
 Symmetry not used in FoFCou.
 Integral accuracy reduced to 1.0D-05 until final iterations.

 Cycle   1  Pass 0  IDiag  1:
 E= -132.415630117181    
 DIIS: error= 2.82D-02 at cycle   1 NSaved=   1.
 NSaved= 1 IEnMin= 1 EnMin= -132.415630117181     IErMin= 1 ErrMin= 2.82D-02
 ErrMax= 2.82D-02  0.00D+00 EMaxC= 1.00D-01 BMatC= 1.94D-01 BMatP= 1.94D-01
 IDIUse=3 WtCom= 7.18D-01 WtEn= 2.82D-01
 Coeff-Com:  0.100D+01
 Coeff-En:   0.100D+01
 Coeff:      0.100D+01
 Gap=     0.459 Goal=   None    Shift=    0.000
 GapD=    0.459 DampG=2.000 DampE=0.500 DampFc=1.0000 IDamp=-1.
 RMSDP=1.31D-03 MaxDP=6.97D-02              OVMax= 1.65D-01

 Cycle   2  Pass 0  IDiag  1:
 E= -132.453225394555     Delta-E=       -0.037595277374 Rises=F Damp=F
 DIIS: error= 3.10D-02 at cycle   2 NSaved=   2.
 NSaved= 2 IEnMin= 2 EnMin= -132.453225394555     IErMin= 1 ErrMin= 2.82D-02
 ErrMax= 3.10D-02  0.00D+00 EMaxC= 1.00D-01 BMatC= 9.35D-02 BMatP= 1.94D-01
 IDIUse=3 WtCom= 6.90D-01 WtEn= 3.10D-01
 Coeff-Com:  0.393D+00 0.607D+00
 Coeff-En:   0.383D+00 0.617D+00
 Coeff:      0.390D+00 0.610D+00
 Gap=     0.438 Goal=   None    Shift=    0.000
 RMSDP=8.58D-04 MaxDP=3.49D-02 DE=-3.76D-02 OVMax= 1.20D-01

 Cycle   3  Pass 0  IDiag  1:
 E= -132.517381143974     Delta-E=       -0.064155749419 Rises=F Damp=F
 DIIS: error= 1.52D-02 at cycle   3 NSaved=   3.
 NSaved= 3 IEnMin= 3 EnMin= -132.517381143974     IErMin= 3 ErrMin= 1.52D-02
 ErrMax= 1.52D-02  0.00D+00 EMaxC= 1.00D-01 BMatC= 1.89D-02 BMatP= 9.35D-02
 IDIUse=3 WtCom= 8.48D-01 WtEn= 1.52D-01
 Coeff-Com:  0.944D-01 0.323D+00 0.583D+00
 Coeff-En:   0.000D+00 0.109D+00 0.891D+00
 Coeff:      0.800D-01 0.290D+00 0.630D+00
 Gap=     0.429 Goal=   None    Shift=    0.000
 RMSDP=2.67D-04 MaxDP=9.80D-03 DE=-6.42D-02 OVMax= 5.85D-02

 Cycle   4  Pass 0  IDiag  1:
 E= -132.529895479296     Delta-E=       -0.012514335322 Rises=F Damp=F
 DIIS: error= 6.04D-03 at cycle   4 NSaved=   4.
 NSaved= 4 IEnMin= 4 EnMin= -132.529895479296     IErMin= 4 ErrMin= 6.04D-03
 ErrMax= 6.04D-03  0.00D+00 EMaxC= 1.00D-01 BMatC= 3.28D-03 BMatP= 1.89D-02
 IDIUse=3 WtCom= 9.40D-01 WtEn= 6.04D-02
 Coeff-Com: -0.123D-01 0.537D-01 0.341D+00 0.617D+00
 Coeff-En:   0.000D+00 0.000D+00 0.164D+00 0.836D+00
 Coeff:     -0.116D-01 0.505D-01 0.331D+00 0.630D+00
 Gap=     0.429 Goal=   None    Shift=    0.000
 RMSDP=9.45D-05 MaxDP=2.91D-03 DE=-1.25D-02 OVMax= 1.64D-02

 Cycle   5  Pass 0  IDiag  1:
 E= -132.532709901425     Delta-E=       -0.002814422128 Rises=F Damp=F
 DIIS: error= 3.43D-04 at cycle   5 NSaved=   5.
 NSaved= 5 IEnMin= 5 EnMin= -132.532709901425     IErMin= 5 ErrMin= 3.43D-04
 ErrMax= 3.43D-04  0.00D+00 EMaxC= 1.00D-01 BMatC= 1.47D-05 BMatP= 3.28D-03
 IDIUse=3 WtCom= 9.97D-01 WtEn= 3.43D-03
 Coeff-Com: -0.327D-02 0.433D-02 0.450D-01 0.133D+00 0.821D+00
 Coeff-En:   0.000D+00 0.000D+00 0.000D+00 0.000D+00 0.100D+01
 Coeff:     -0.326D-02 0.432D-02 0.449D-01 0.132D+00 0.822D+00
 Gap=     0.428 Goal=   None    Shift=    0.000
 RMSDP=8.74D-06 MaxDP=3.47D-04 DE=-2.81D-03 OVMax= 1.22D-03

 Initial convergence to 1.0D-05 achieved.  Increase integral accuracy.
 Cycle   6  Pass 1  IDiag  1:
 E= -132.532724888759     Delta-E=       -0.000014987334 Rises=F Damp=F
 DIIS: error= 7.83D-05 at cycle   1 NSaved=   1.
 NSaved= 1 IEnMin= 1 EnMin= -132.532724888759     IErMin= 1 ErrMin= 7.83D-05
 ErrMax= 7.83D-05  0.00D+00 EMaxC= 1.00D-01 BMatC= 5.49D-07 BMatP= 5.49D-07
 IDIUse=1 WtCom= 1.00D+00 WtEn= 0.00D+00
 Coeff-Com:  0.100D+01
 Coeff:      0.100D+01
 Gap=     0.429 Goal=   None    Shift=    0.000
 RMSDP=8.74D-06 MaxDP=3.47D-04 DE=-1.50D-05 OVMax= 3.76D-04

 Cycle   7  Pass 1  IDiag  1:
 E= -132.532725223769     Delta-E=       -0.000000335010 Rises=F Damp=F
 DIIS: error= 4.51D-05 at cycle   2 NSaved=   2.
 NSaved= 2 IEnMin= 2 EnMin= -132.532725223769     IErMin= 2 ErrMin= 4.51D-05
 ErrMax= 4.51D-05  0.00D+00 EMaxC= 1.00D-01 BMatC= 2.39D-07 BMatP= 5.49D-07
 IDIUse=1 WtCom= 1.00D+00 WtEn= 0.00D+00
 Coeff-Com:  0.388D+00 0.612D+00
 Coeff:      0.388D+00 0.612D+00
 Gap=     0.429 Goal=   None    Shift=    0.000
 RMSDP=9.21D-07 MaxDP=3.51D-05 DE=-3.35D-07 OVMax= 1.60D-04

 Cycle   8  Pass 1  IDiag  1:
 E= -132.532725428637     Delta-E=       -0.000000204868 Rises=F Damp=F
 DIIS: error= 1.40D-05 at cycle   3 NSaved=   3.
 NSaved= 3 IEnMin= 3 EnMin= -132.532725428637     IErMin= 3 ErrMin= 1.40D-05
 ErrMax= 1.40D-05  0.00D+00 EMaxC= 1.00D-01 BMatC= 1.95D-08 BMatP= 2.39D-07
 IDIUse=1 WtCom= 1.00D+00 WtEn= 0.00D+00
 Coeff-Com:  0.101D+00 0.250D+00 0.649D+00
 Coeff:      0.101D+00 0.250D+00 0.649D+00
 Gap=     0.429 Goal=   None    Shift=    0.000
 RMSDP=5.53D-07 MaxDP=2.52D-05 DE=-2.05D-07 OVMax= 5.54D-05

 Cycle   9  Pass 1  IDiag  1:
 E= -132.532725440605     Delta-E=       -0.000000011968 Rises=F Damp=F
 DIIS: error= 1.07D-05 at cycle   4 NSaved=   4.
 NSaved= 4 IEnMin= 4 EnMin= -132.532725440605     IErMin= 4 ErrMin= 1.07D-05
 ErrMax= 1.07D-05  0.00D+00 EMaxC= 1.00D-01 BMatC= 6.22D-09 BMatP= 1.95D-08
 IDIUse=1 WtCom= 1.00D+00 WtEn= 0.00D+00
 Coeff-Com: -0.568D-01-0.274D-01 0.393D+00 0.692D+00
 Coeff:     -0.568D-01-0.274D-01 0.393D+00 0.692D+00
 Gap=     0.429 Goal=   None    Shift=    0.000
 RMSDP=2.66D-07 MaxDP=1.31D-05 DE=-1.20D-08 OVMax= 3.09D-05

 Cycle  10  Pass 1  IDiag  1:
 E= -132.532725446392     Delta-E=       -0.000000005787 Rises=F Damp=F
 DIIS: error= 8.31D-07 at cycle   5 NSaved=   5.
 NSaved= 5 IEnMin= 5 EnMin= -132.532725446392     IErMin= 5 ErrMin= 8.31D-07
 ErrMax= 8.31D-07  0.00D+00 EMaxC= 1.00D-01 BMatC= 7.09D-11 BMatP= 6.22D-09
 IDIUse=1 WtCom= 1.00D+00 WtEn= 0.00D+00
 Coeff-Com: -0.184D-01-0.167D-01 0.670D-01 0.179D+00 0.789D+00
 Coeff:     -0.184D-01-0.167D-01 0.670D-01 0.179D+00 0.789D+00
 Gap=     0.429 Goal=   None    Shift=    0.000
 RMSDP=4.34D-08 MaxDP=2.27D-06 DE=-5.79D-09 OVMax= 3.15D-06

 Cycle  11  Pass 1  IDiag  1:
 E= -132.532725446457     Delta-E=       -0.000000000065 Rises=F Damp=F
 DIIS: error= 1.80D-07 at cycle   6 NSaved=   6.
 NSaved= 6 IEnMin= 6 EnMin= -132.532725446457     IErMin= 6 ErrMin= 1.80D-07
 ErrMax= 1.80D-07  0.00D+00 EMaxC= 1.00D-01 BMatC= 4.84D-12 BMatP= 7.09D-11
 IDIUse=1 WtCom= 1.00D+00 WtEn= 0.00D+00
 Coeff-Com:  0.153D-02-0.704D-03-0.247D-01-0.183D-01 0.170D+00 0.872D+00
 Coeff:      0.153D-02-0.704D-03-0.247D-01-0.183D-01 0.170D+00 0.872D+00
 Gap=     0.429 Goal=   None    Shift=    0.000
 RMSDP=9.09D-09 MaxDP=4.18D-07 DE=-6.53D-11 OVMax= 9.70D-07

 SCF Done:  E(RB2PLYPD3) =  -132.532725446     A.U. after   11 cycles
            NFock= 11  Conv=0.91D-08     -V/T= 2.0030
 KE= 1.321311710536D+02 PE=-4.264670065698D+02 EE= 1.029007940449D+02
 Leave Link  502 at Wed Aug 26 14:38:09 2020, MaxMem=  2097152000 cpu:       110.7
 (Enter /opt/cluster/programs/g09/g09_d.01/g09/l801.exe)
 DoSCS=T DFT=T ScalE2(SS,OS)=  0.270000  0.270000
 ExpMin= 7.60D-02 ExpMax= 9.07D+04 ExpMxC= 8.76D+02 IAcc=3 IRadAn=         5 AccDes= 0.00D+00
 HarFok:  IExCor=  205 AccDes= 0.00D+00 IRadAn=         5 IDoV=-2 UseB2=F ITyADJ=14
 ICtDFT= 12500011 ScaDFX=  1.000000  1.000000  1.000000  1.000000
 Largest valence mixing into a core orbital is  1.16D-04
 Largest core mixing into a valence orbital is  1.89D-05
 Range of M.O.s used for correlation:     4   261
 NBasis=   261 NAE=    11 NBE=    11 NFC=     3 NFV=     0
 NROrb=    258 NOA=     8 NOB=     8 NVA=   250 NVB=   250

 **** Warning!!: The largest alpha MO coefficient is  0.30686540D+02

 Leave Link  801 at Wed Aug 26 14:38:09 2020, MaxMem=  2097152000 cpu:         0.7
 (Enter /opt/cluster/programs/g09/g09_d.01/g09/l906.exe)
 DoSCS=T DFT=T ScalE2(SS,OS)=  0.270000  0.270000
 FulOut=F Deriv=F AODrv=F NAtomX=     6
   MMem=        2666  MDisk=           8 MDiskD=           8
  W3Min=      642000 MinDsk=     1426009 NBas6D=         321
 NBas2D=       52689    NTT=       51681    LW2=     4508827
    MDV=  2096809329 MDiskM=       14501 NBas2p=       52164
 Fully direct method using O(OVN) memory.
 IMap=   1   2   3   4   5   6   7   8
 JobTyp=1 Pass  1:  I=   1 to   8 NPSUse=  8 ParTrn=T ParDer=T DoDerP=F.
 Spin components of T(2) and E(2):
     alpha-alpha T2 =       0.3521510416D-01 E2=     -0.2133479336D-01
     alpha-beta  T2 =       0.2059256080D+00 E2=     -0.1370941968D+00
     beta-beta   T2 =       0.3521510416D-01 E2=     -0.2133479336D-01
 The integrals were generated   1 times.
 E2(B2PLYPD3) =    -0.1797637835D+00 E(B2PLYPD3) =    -0.13271248922999D+03
 Leave Link  906 at Wed Aug 26 14:38:23 2020, MaxMem=  2097152000 cpu:       112.4
 (Enter /opt/cluster/programs/g09/g09_d.01/g09/l601.exe)
 Copying SCF densities to generalized density rwf, IOpCl= 0 IROHF=0.

 **********************************************************************

            Population analysis using the SCF density.

 **********************************************************************

 Orbital symmetries:
       Occupied  (A) (A) (A) (A) (A) (A) (A) (A) (A) (A) (A)
       Virtual   (A) (A) (A) (A) (A) (A) (A) (A) (A) (A) (A) (A)
                 (A) (A) (A) (A) (A) (A) (A) (A) (A) (A) (A) (A)
                 (A) (A) (A) (A) (A) (A) (A) (A) (A) (A) (A) (A)
                 (A) (A) (A) (A) (A) (A) (A) (A) (A) (A) (A) (A)
                 (A) (A) (A) (A) (A) (A) (A) (A) (A) (A) (A) (A)
                 (A) (A) (A) (A) (A) (A) (A) (A) (A) (A) (A) (A)
                 (A) (A) (A) (A) (A) (A) (A) (A) (A) (A) (A) (A)
                 (A) (A) (A) (A) (A) (A) (A) (A) (A) (A) (A) (A)
                 (A) (A) (A) (A) (A) (A) (A) (A) (A) (A) (A) (A)
                 (A) (A) (A) (A) (A) (A) (A) (A) (A) (A) (A) (A)
                 (A) (A) (A) (A) (A) (A) (A) (A) (A) (A) (A) (A)
                 (A) (A) (A) (A) (A) (A) (A) (A) (A) (A) (A) (A)
                 (A) (A) (A) (A) (A) (A) (A) (A) (A) (A) (A) (A)
                 (A) (A) (A) (A) (A) (A) (A) (A) (A) (A) (A) (A)
                 (A) (A) (A) (A) (A) (A) (A) (A) (A) (A) (A) (A)
                 (A) (A) (A) (A) (A) (A) (A) (A) (A) (A) (A) (A)
                 (A) (A) (A) (A) (A) (A) (A) (A) (A) (A) (A) (A)
                 (A) (A) (A) (A) (A) (A) (A) (A) (A) (A) (A) (A)
                 (A) (A) (A) (A) (A) (A) (A) (A) (A) (A) (A) (A)
                 (A) (A) (A) (A) (A) (A) (A) (A) (A) (A) (A) (A)
                 (A) (A) (A) (A) (A) (A) (A) (A) (A) (A)
 The electronic state is 1-A.
 Alpha  occ. eigenvalues --  -14.84026 -10.66844 -10.66031  -1.04595  -0.89426
 Alpha  occ. eigenvalues --   -0.60660  -0.54482  -0.52722  -0.44886  -0.39397
 Alpha  occ. eigenvalues --   -0.39138
 Alpha virt. eigenvalues --    0.03721   0.07572   0.08177   0.10173   0.11555
 Alpha virt. eigenvalues --    0.11800   0.15585   0.16633   0.16734   0.20011
 Alpha virt. eigenvalues --    0.20077   0.25702   0.32755   0.34080   0.35427
 Alpha virt. eigenvalues --    0.39057   0.39713   0.40448   0.41171   0.47801
 Alpha virt. eigenvalues --    0.50306   0.51411   0.58327   0.59860   0.61643
 Alpha virt. eigenvalues --    0.67797   0.68646   0.69748   0.70001   0.78759
 Alpha virt. eigenvalues --    0.79119   0.82238   0.82477   0.84139   0.86922
 Alpha virt. eigenvalues --    0.91712   0.91991   0.95792   0.96975   0.97682
 Alpha virt. eigenvalues --    1.06567   1.08971   1.09545   1.11848   1.12957
 Alpha virt. eigenvalues --    1.15669   1.21939   1.22911   1.23810   1.35229
 Alpha virt. eigenvalues --    1.35841   1.45509   1.47856   1.51436   1.54842
 Alpha virt. eigenvalues --    1.65000   1.66783   1.69834   1.74446   1.77620
 Alpha virt. eigenvalues --    1.77739   1.79330   1.90413   1.91458   1.92048
 Alpha virt. eigenvalues --    1.93729   1.98634   1.99873   2.01639   2.04177
 Alpha virt. eigenvalues --    2.06980   2.13303   2.15711   2.20059   2.21974
 Alpha virt. eigenvalues --    2.23039   2.24222   2.26094   2.33115   2.36411
 Alpha virt. eigenvalues --    2.43479   2.50106   2.51885   2.55244   2.57686
 Alpha virt. eigenvalues --    2.60779   2.67017   2.70116   2.71645   2.74657
 Alpha virt. eigenvalues --    2.75679   2.78228   2.87497   2.89826   2.92259
 Alpha virt. eigenvalues --    2.92538   2.98004   2.98128   2.99522   3.10111
 Alpha virt. eigenvalues --    3.12097   3.12590   3.21723   3.28657   3.31230
 Alpha virt. eigenvalues --    3.33439   3.37345   3.40040   3.43524   3.51346
 Alpha virt. eigenvalues --    3.54336   3.57640   3.73057   3.74469   3.76832
 Alpha virt. eigenvalues --    3.86886   3.94354   3.95892   4.00203   4.01449
 Alpha virt. eigenvalues --    4.02077   4.05561   4.06756   4.23145   4.24927
 Alpha virt. eigenvalues --    4.58631   4.90786   4.90818   5.09529   5.11471
 Alpha virt. eigenvalues --    5.14412   5.17191   5.20414   5.22200   5.24368
 Alpha virt. eigenvalues --    5.28966   5.42640   5.45018   5.46930   5.63022
 Alpha virt. eigenvalues --    5.65752   5.83886   5.86980   5.89526   5.93084
 Alpha virt. eigenvalues --    5.96005   5.98033   5.98618   6.01309   6.02096
 Alpha virt. eigenvalues --    6.03131   6.07552   6.07772   6.08727   6.13937
 Alpha virt. eigenvalues --    6.17435   6.18841   6.25843   6.30523   6.35830
 Alpha virt. eigenvalues --    6.41470   6.48613   6.51868   6.56833   6.61914
 Alpha virt. eigenvalues --    6.64742   6.66868   6.88694   6.92034   6.93287
 Alpha virt. eigenvalues --    6.96747   7.02769   7.02808   7.07577   7.08765
 Alpha virt. eigenvalues --    7.14168   7.16959   7.25369   7.49176   7.51371
 Alpha virt. eigenvalues --    7.52528   7.58875   7.60915   7.62528   7.65858
 Alpha virt. eigenvalues --    7.67934   7.76045   7.78007   7.79986   7.87031
 Alpha virt. eigenvalues --    7.90083   7.93350   7.99453   8.04953   8.27780
 Alpha virt. eigenvalues --    8.29805   8.34249   8.43740   8.44511   8.46249
 Alpha virt. eigenvalues --    8.48445   8.49437   8.52252   8.57934   8.60422
 Alpha virt. eigenvalues --    8.62317   8.63022   8.66830   8.67043   8.70630
 Alpha virt. eigenvalues --    8.72804   8.78715   8.90730   8.95981   9.02757
 Alpha virt. eigenvalues --    9.04239   9.08745   9.09321   9.16920   9.20579
 Alpha virt. eigenvalues --    9.30485   9.31624   9.70624   9.77466   9.78724
 Alpha virt. eigenvalues --    9.81506   9.93325  10.00968  10.01235  10.19201
 Alpha virt. eigenvalues --   10.21588  10.23506  10.24648  10.37012  10.45200
 Alpha virt. eigenvalues --   10.59496  10.74244  11.38428  11.62530  11.88196
 Alpha virt. eigenvalues --   12.05956  12.09008  13.14880  13.41113  29.22696
 Alpha virt. eigenvalues --   29.60456  38.35513 148.89651 149.25068 198.28194
          Condensed to atoms (all electrons):
               1          2          3          4          5          6
     1  C    4.589804   0.307520  -0.058121   0.409223   0.415309   0.409840
     2  C    0.307520   4.821529   0.997006  -0.042800  -0.046100  -0.038094
     3  N   -0.058121   0.997006   6.264915  -0.001230  -0.001196  -0.000284
     4  H    0.409223  -0.042800  -0.001230   0.608254  -0.029394  -0.031222
     5  H    0.415309  -0.046100  -0.001196  -0.029394   0.599326  -0.034044
     6  H    0.409840  -0.038094  -0.000284  -0.031222  -0.034044   0.603344
 Mulliken charges:
               1
     1  C   -0.073576
     2  C    0.000938
     3  N   -0.201089
     4  H    0.087169
     5  H    0.096098
     6  H    0.090460
 Sum of Mulliken charges =   0.00000
 Mulliken charges with hydrogens summed into heavy atoms:
               1
     1  C    0.200152
     2  C    0.000938
     3  N   -0.201089
 Electronic spatial extent (au):  <R**2>=            160.6295
 Charge=              0.0000 electrons
 Dipole moment (field-independent basis, Debye):
    X=             -4.1122    Y=             -0.0256    Z=             -0.0063  Tot=              4.1123
 Quadrupole moment (field-independent basis, Debye-Ang):
   XX=            -20.7812   YY=            -17.7658   ZZ=            -17.7823
   XY=             -0.0108   XZ=             -0.0070   YZ=             -0.0216
 Traceless Quadrupole moment (field-independent basis, Debye-Ang):
   XX=             -2.0047   YY=              1.0106   ZZ=              0.9941
   XY=             -0.0108   XZ=             -0.0070   YZ=             -0.0216
 Octapole moment (field-independent basis, Debye-Ang**2):
  XXX=            -13.2967  YYY=              0.6653  ZZZ=              0.3496  XYY=             -2.1553
  XXY=             -0.1000  XXZ=             -0.1734  XZZ=             -2.0775  YZZ=             -0.7423
  YYZ=             -0.0747  XYZ=             -0.0172
 Hexadecapole moment (field-independent basis, Debye-Ang**3):
 XXXX=           -179.3460 YYYY=            -24.9076 ZZZZ=            -24.1288 XXXY=              0.2693
 XXXZ=              0.2614 YYYX=             -1.1658 YYYZ=             -0.0529 ZZZX=             -0.3078
 ZZZY=             -0.0965 XXYY=            -30.8405 XXZZ=            -30.8505 YYZZ=             -8.2760
 XXYZ=              0.1227 YYXZ=              0.2280 ZZXY=              1.2904
 N-N= 5.890231602482D+01 E-N=-4.264669890437D+02  KE= 1.321311710536D+02
 Leave Link  601 at Wed Aug 26 14:38:23 2020, MaxMem=  2097152000 cpu:         0.4
 (Enter /opt/cluster/programs/g09/g09_d.01/g09/l9999.exe)
 1\1\GINC-NODE16\SP\RB2PLYPD3-FC\def2QZVP\C2H3N1\BOITTIER\26-Aug-2020\0
 \\#p B2PLYPD3/Def2QZVP\\cyanomethane\\0,1\C,0,-6.5826,-1.118002,1.1570
 12\C,0,-5.207693,-0.762035,0.903187\N,0,-4.098832,-0.554598,0.704927\H
 ,0,-6.776711,-1.242394,2.276714\H,0,-6.823341,-2.030512,0.702381\H,0,-
 7.297005,-0.38762,0.822342\\Version=ES64L-G09RevD.01\State=1-A\HF=-132
 .5327254\MP2=-132.7124892\RMSD=9.085e-09\PG=C01 [X(C2H3N1)]\\@


 YOU WILL NEVER "FIND" TIME FOR ANYTHING.
 IF YOU WANT TIME, YOU MUST MAKE IT.

                        -- CHARLES BIXTON
 Job cpu time:       0 days  0 hours  3 minutes 52.7 seconds.
 File lengths (MBytes):  RWF=     28 Int=      0 D2E=      0 Chk=      5 Scr=      1
 Normal termination of Gaussian 09 at Wed Aug 26 14:38:24 2020.
