 Entering Gaussian System, Link 0=/opt/cluster/programs/g09/g09_d.01/g09//g09
 Input=/home/boittier/MDCM/nms_sampling/cyanomethane_geom.xyz.dir/energies/cyanomethane_1782_energy.com
 Output=/scratch/boittier/cyanomethane_1782_energy/cyanomethane_1782_energy.out
 Initial command:
 /opt/cluster/programs/g09/g09_d.01/g09/l1.exe "/scratch/boittier/cyanomethane_1782_energy/Gau-109955.inp" -scrdir="/scratch/boittier/cyanomethane_1782_energy/"
 Entering Link 1 = /opt/cluster/programs/g09/g09_d.01/g09/l1.exe PID=    109956.
  
 Copyright (c) 1988,1990,1992,1993,1995,1998,2003,2009,2013,
            Gaussian, Inc.  All Rights Reserved.
  
 This is part of the Gaussian(R) 09 program.  It is based on
 the Gaussian(R) 03 system (copyright 2003, Gaussian, Inc.),
 the Gaussian(R) 98 system (copyright 1998, Gaussian, Inc.),
 the Gaussian(R) 94 system (copyright 1995, Gaussian, Inc.),
 the Gaussian 92(TM) system (copyright 1992, Gaussian, Inc.),
 the Gaussian 90(TM) system (copyright 1990, Gaussian, Inc.),
 the Gaussian 88(TM) system (copyright 1988, Gaussian, Inc.),
 the Gaussian 86(TM) system (copyright 1986, Carnegie Mellon
 University), and the Gaussian 82(TM) system (copyright 1983,
 Carnegie Mellon University). Gaussian is a federally registered
 trademark of Gaussian, Inc.
  
 This software contains proprietary and confidential information,
 including trade secrets, belonging to Gaussian, Inc.
  
 This software is provided under written license and may be
 used, copied, transmitted, or stored only in accord with that
 written license.
  
 The following legend is applicable only to US Government
 contracts under FAR:
  
                    RESTRICTED RIGHTS LEGEND
  
 Use, reproduction and disclosure by the US Government is
 subject to restrictions as set forth in subparagraphs (a)
 and (c) of the Commercial Computer Software - Restricted
 Rights clause in FAR 52.227-19.
  
 Gaussian, Inc.
 340 Quinnipiac St., Bldg. 40, Wallingford CT 06492
  
  
 ---------------------------------------------------------------
 Warning -- This program may not be used in any manner that
 competes with the business of Gaussian, Inc. or will provide
 assistance to any competitor of Gaussian, Inc.  The licensee
 of this program is prohibited from giving any competitor of
 Gaussian, Inc. access to this program.  By using this program,
 the user acknowledges that Gaussian, Inc. is engaged in the
 business of creating and licensing software in the field of
 computational chemistry and represents and warrants to the
 licensee that it is not a competitor of Gaussian, Inc. and that
 it will not use this program in any manner prohibited above.
 ---------------------------------------------------------------
  

 Cite this work as:
 Gaussian 09, Revision D.01,
 M. J. Frisch, G. W. Trucks, H. B. Schlegel, G. E. Scuseria, 
 M. A. Robb, J. R. Cheeseman, G. Scalmani, V. Barone, B. Mennucci, 
 G. A. Petersson, H. Nakatsuji, M. Caricato, X. Li, H. P. Hratchian, 
 A. F. Izmaylov, J. Bloino, G. Zheng, J. L. Sonnenberg, M. Hada, 
 M. Ehara, K. Toyota, R. Fukuda, J. Hasegawa, M. Ishida, T. Nakajima, 
 Y. Honda, O. Kitao, H. Nakai, T. Vreven, J. A. Montgomery, Jr., 
 J. E. Peralta, F. Ogliaro, M. Bearpark, J. J. Heyd, E. Brothers, 
 K. N. Kudin, V. N. Staroverov, T. Keith, R. Kobayashi, J. Normand, 
 K. Raghavachari, A. Rendell, J. C. Burant, S. S. Iyengar, J. Tomasi, 
 M. Cossi, N. Rega, J. M. Millam, M. Klene, J. E. Knox, J. B. Cross, 
 V. Bakken, C. Adamo, J. Jaramillo, R. Gomperts, R. E. Stratmann, 
 O. Yazyev, A. J. Austin, R. Cammi, C. Pomelli, J. W. Ochterski, 
 R. L. Martin, K. Morokuma, V. G. Zakrzewski, G. A. Voth, 
 P. Salvador, J. J. Dannenberg, S. Dapprich, A. D. Daniels, 
 O. Farkas, J. B. Foresman, J. V. Ortiz, J. Cioslowski, 
 and D. J. Fox, Gaussian, Inc., Wallingford CT, 2013.
 
 ******************************************
 Gaussian 09:  ES64L-G09RevD.01 24-Apr-2013
                26-Aug-2020 
 ******************************************
 %chk=/home/boittier/MDCM/nms_sampling/cyanomethane_geom.xyz.dir/cyanomethane_178
 2.chk
 %nproc=8
 Will use up to    8 processors via shared memory.
 %mem=16000MB
 --------------------
 #p B2PLYPD3/Def2QZVP
 --------------------
 1/38=1/1;
 2/12=2,17=6,18=5,40=1/2;
 3/5=45,7=101,11=9,16=1,25=1,30=1,74=-60/1,2,3;
 4//1;
 5/5=2,38=5/2;
 8/10=1/1;
 9/16=-3/6;
 6/7=2,8=2,9=2,10=2/1;
 99/5=1,9=1/99;
 Leave Link    1 at Wed Aug 26 13:19:30 2020, MaxMem=  2097152000 cpu:         0.2
 (Enter /opt/cluster/programs/g09/g09_d.01/g09/l101.exe)
 ------------
 cyanomethane
 ------------
 Symbolic Z-matrix:
 Charge =  0 Multiplicity = 1
 C                    -6.59041  -1.10697   1.15954 
 C                    -5.20139  -0.81824   0.91606 
 N                    -4.09997  -0.52339   0.70239 
 H                    -6.85475  -1.2205    2.26551 
 H                    -6.8206   -2.01628   0.63958 
 H                    -7.18931  -0.31135   0.7852 
 
 NAtoms=      6 NQM=        6 NQMF=       0 NMMI=      0 NMMIF=      0
                NMic=       0 NMicF=      0.
                    Isotopes and Nuclear Properties:
 (Nuclear quadrupole moments (NQMom) in fm**2, nuclear magnetic moments (NMagM)
  in nuclear magnetons)

  Atom         1           2           3           4           5           6
 IAtWgt=          12          12          14           1           1           1
 AtmWgt=  12.0000000  12.0000000  14.0030740   1.0078250   1.0078250   1.0078250
 NucSpn=           0           0           2           1           1           1
 AtZEff=   0.0000000   0.0000000   0.0000000   0.0000000   0.0000000   0.0000000
 NQMom=    0.0000000   0.0000000   2.0440000   0.0000000   0.0000000   0.0000000
 NMagM=    0.0000000   0.0000000   0.4037610   2.7928460   2.7928460   2.7928460
 AtZNuc=   6.0000000   6.0000000   7.0000000   1.0000000   1.0000000   1.0000000
 Leave Link  101 at Wed Aug 26 13:19:30 2020, MaxMem=  2097152000 cpu:         0.5
 (Enter /opt/cluster/programs/g09/g09_d.01/g09/l202.exe)
                          Input orientation:                          
 ---------------------------------------------------------------------
 Center     Atomic      Atomic             Coordinates (Angstroms)
 Number     Number       Type             X           Y           Z
 ---------------------------------------------------------------------
      1          6           0       -6.590407   -1.106971    1.159544
      2          6           0       -5.201390   -0.818239    0.916064
      3          7           0       -4.099967   -0.523390    0.702389
      4          1           0       -6.854753   -1.220501    2.265512
      5          1           0       -6.820597   -2.016277    0.639579
      6          1           0       -7.189308   -0.311350    0.785202
 ---------------------------------------------------------------------
                    Distance matrix (angstroms):
                    1          2          3          4          5
     1  C    0.000000
     2  C    1.439450   0.000000
     3  N    2.598432   1.160054   0.000000
     4  H    1.142774   2.171735   3.243172   0.000000
     5  H    1.072468   2.033118   3.103947   1.810548   0.000000
     6  H    1.063874   2.055694   3.097716   1.769124   1.750409
                    6
     6  H    0.000000
 Stoichiometry    C2H3N
 Framework group  C1[X(C2H3N)]
 Deg. of freedom    12
 Full point group                 C1      NOp   1
 Largest Abelian subgroup         C1      NOp   1
 Largest concise Abelian subgroup C1      NOp   1
                         Standard orientation:                         
 ---------------------------------------------------------------------
 Center     Atomic      Atomic             Coordinates (Angstroms)
 Number     Number       Type             X           Y           Z
 ---------------------------------------------------------------------
      1          6           0        1.167560   -0.007157    0.007674
      2          6           0       -0.271446   -0.001414   -0.027609
      3          7           0       -1.430823    0.008413    0.010775
      4          1           0        1.646265    0.950275   -0.392450
      5          1           0        1.495215   -0.844513   -0.576848
      6          1           0        1.497594   -0.113232    1.013483
 ---------------------------------------------------------------------
 Rotational constants (GHZ):    158.9099824      9.3285577      9.3103580
 Leave Link  202 at Wed Aug 26 13:19:30 2020, MaxMem=  2097152000 cpu:         0.0
 (Enter /opt/cluster/programs/g09/g09_d.01/g09/l301.exe)
 Standard basis: def2QZVP (5D, 7F)
 Ernie: Thresh=  0.10000D-02 Tol=  0.10000D-05 Strict=F.
 There are   321 symmetry adapted cartesian basis functions of A   symmetry.
 There are   261 symmetry adapted basis functions of A   symmetry.
   261 basis functions,   390 primitive gaussians,   321 cartesian basis functions
    11 alpha electrons       11 beta electrons
       nuclear repulsion energy        58.6634523981 Hartrees.
 IExCor=  419 DFT=T Ex+Corr=B2PLYPD3 ExCW=0 ScaHFX=  0.530000
 ScaDFX=  0.470000  0.470000  0.730000  0.730000 ScalE2=  0.270000  0.270000
 IRadAn=      0 IRanWt=     -1 IRanGd=            0 ICorTp=0 IEmpDi=141
 NAtoms=    6 NActive=    6 NUniq=    6 SFac= 1.00D+00 NAtFMM=   60 NAOKFM=F Big=F
 Integral buffers will be    131072 words long.
 Regular integral format.
 Two-electron integral symmetry is turned on.
 R6Disp:  Grimme-D3(BJ) Dispersion energy=       -0.0021056480 Hartrees.
 Nuclear repulsion after empirical dispersion term =       58.6613467501 Hartrees.
 Leave Link  301 at Wed Aug 26 13:19:30 2020, MaxMem=  2097152000 cpu:         0.4
 (Enter /opt/cluster/programs/g09/g09_d.01/g09/l302.exe)
 NPDir=0 NMtPBC=     1 NCelOv=     1 NCel=       1 NClECP=     1 NCelD=      1
         NCelK=      1 NCelE2=     1 NClLst=     1 CellRange=     0.0.
 One-electron integrals computed using PRISM.
   1 Symmetry operations used in ECPInt.
 ECPInt:  NShTT=    3321 NPrTT=    8136 LenC2=    3296 LenP2D=    7130.
 LDataN:  DoStor=T MaxTD1= 8 Len=  415
 NBasis=   261 RedAO= T EigKep=  8.01D-05  NBF=   261
 NBsUse=   261 1.00D-06 EigRej= -1.00D+00 NBFU=   261
 Precomputing XC quadrature grid using
 IXCGrd= 4 IRadAn=           0 IRanWt=          -1 IRanGd=           0 AccXCQ= 0.00D+00.
 Generated NRdTot=       0 NPtTot=           0 NUsed=           0 NTot=          32
 NSgBfM=   321   321   321   321   321 MxSgAt=     6 MxSgA2=     6.
 Leave Link  302 at Wed Aug 26 13:19:31 2020, MaxMem=  2097152000 cpu:         2.3
 (Enter /opt/cluster/programs/g09/g09_d.01/g09/l303.exe)
 DipDrv:  MaxL=1.
 Leave Link  303 at Wed Aug 26 13:19:31 2020, MaxMem=  2097152000 cpu:         0.3
 (Enter /opt/cluster/programs/g09/g09_d.01/g09/l401.exe)
 ExpMin= 7.60D-02 ExpMax= 9.07D+04 ExpMxC= 8.76D+02 IAcc=2 IRadAn=         4 AccDes= 0.00D+00
 Harris functional with IExCor=  419 and IRadAn=       4 diagonalized for initial guess.
 HarFok:  IExCor=  419 AccDes= 0.00D+00 IRadAn=         4 IDoV= 1 UseB2=F ITyADJ=14
 ICtDFT=  3500011 ScaDFX=  1.000000  1.000000  1.000000  1.000000
 FoFCou: FMM=F IPFlag=           0 FMFlag=      100000 FMFlg1=           0
         NFxFlg=           0 DoJE=T BraDBF=F KetDBF=T FulRan=T
         wScrn=  0.000000 ICntrl=     500 IOpCl=  0 I1Cent=   200000004 NGrid=           0
         NMat0=    1 NMatS0=      1 NMatT0=    0 NMatD0=    1 NMtDS0=    0 NMtDT0=    0
 Petite list used in FoFCou.
 Harris En= -132.848956822608    
 JPrj=0 DoOrth=F DoCkMO=F.
 Leave Link  401 at Wed Aug 26 13:19:32 2020, MaxMem=  2097152000 cpu:         4.3
 (Enter /opt/cluster/programs/g09/g09_d.01/g09/l502.exe)
 Closed shell SCF:
 Using DIIS extrapolation, IDIIS=  1040.
 Integral symmetry usage will be decided dynamically.
 Keep R1 ints in memory in canonical form, NReq=601554820.
 IVT=      332521 IEndB=      332521 NGot=  2097152000 MDV=  1512290144
 LenX=  1512290144 LenY=  1512186662
 Requested convergence on RMS density matrix=1.00D-08 within 128 cycles.
 Requested convergence on MAX density matrix=1.00D-06.
 Requested convergence on             energy=1.00D-06.
 No special actions if energy rises.
 FoFCou: FMM=F IPFlag=           0 FMFlag=           0 FMFlg1=           0
         NFxFlg=           0 DoJE=F BraDBF=F KetDBF=F FulRan=T
         wScrn=  0.000000 ICntrl=     600 IOpCl=  0 I1Cent=           0 NGrid=           0
         NMat0=    1 NMatS0=  34191 NMatT0=    0 NMatD0=    1 NMtDS0=    0 NMtDT0=    0
 Symmetry not used in FoFCou.
 Integral accuracy reduced to 1.0D-05 until final iterations.

 Cycle   1  Pass 0  IDiag  1:
 E= -132.418857357505    
 DIIS: error= 2.69D-02 at cycle   1 NSaved=   1.
 NSaved= 1 IEnMin= 1 EnMin= -132.418857357505     IErMin= 1 ErrMin= 2.69D-02
 ErrMax= 2.69D-02  0.00D+00 EMaxC= 1.00D-01 BMatC= 1.88D-01 BMatP= 1.88D-01
 IDIUse=3 WtCom= 7.31D-01 WtEn= 2.69D-01
 Coeff-Com:  0.100D+01
 Coeff-En:   0.100D+01
 Coeff:      0.100D+01
 Gap=     0.451 Goal=   None    Shift=    0.000
 GapD=    0.451 DampG=2.000 DampE=0.500 DampFc=1.0000 IDamp=-1.
 RMSDP=1.28D-03 MaxDP=6.60D-02              OVMax= 1.64D-01

 Cycle   2  Pass 0  IDiag  1:
 E= -132.453319070767     Delta-E=       -0.034461713262 Rises=F Damp=F
 DIIS: error= 3.16D-02 at cycle   2 NSaved=   2.
 NSaved= 2 IEnMin= 2 EnMin= -132.453319070767     IErMin= 1 ErrMin= 2.69D-02
 ErrMax= 3.16D-02  0.00D+00 EMaxC= 1.00D-01 BMatC= 9.23D-02 BMatP= 1.88D-01
 IDIUse=3 WtCom= 6.84D-01 WtEn= 3.16D-01
 Coeff-Com:  0.394D+00 0.606D+00
 Coeff-En:   0.391D+00 0.609D+00
 Coeff:      0.393D+00 0.607D+00
 Gap=     0.436 Goal=   None    Shift=    0.000
 RMSDP=8.50D-04 MaxDP=3.46D-02 DE=-3.45D-02 OVMax= 1.21D-01

 Cycle   3  Pass 0  IDiag  1:
 E= -132.515750332073     Delta-E=       -0.062431261306 Rises=F Damp=F
 DIIS: error= 1.43D-02 at cycle   3 NSaved=   3.
 NSaved= 3 IEnMin= 3 EnMin= -132.515750332073     IErMin= 3 ErrMin= 1.43D-02
 ErrMax= 1.43D-02  0.00D+00 EMaxC= 1.00D-01 BMatC= 1.98D-02 BMatP= 9.23D-02
 IDIUse=3 WtCom= 8.57D-01 WtEn= 1.43D-01
 Coeff-Com:  0.964D-01 0.328D+00 0.576D+00
 Coeff-En:   0.000D+00 0.128D+00 0.872D+00
 Coeff:      0.826D-01 0.299D+00 0.618D+00
 Gap=     0.425 Goal=   None    Shift=    0.000
 RMSDP=2.71D-04 MaxDP=9.86D-03 DE=-6.24D-02 OVMax= 5.94D-02

 Cycle   4  Pass 0  IDiag  1:
 E= -132.529195956056     Delta-E=       -0.013445623983 Rises=F Damp=F
 DIIS: error= 5.40D-03 at cycle   4 NSaved=   4.
 NSaved= 4 IEnMin= 4 EnMin= -132.529195956056     IErMin= 4 ErrMin= 5.40D-03
 ErrMax= 5.40D-03  0.00D+00 EMaxC= 1.00D-01 BMatC= 3.18D-03 BMatP= 1.98D-02
 IDIUse=3 WtCom= 9.46D-01 WtEn= 5.40D-02
 Coeff-Com: -0.128D-01 0.558D-01 0.334D+00 0.623D+00
 Coeff-En:   0.000D+00 0.000D+00 0.153D+00 0.847D+00
 Coeff:     -0.121D-01 0.528D-01 0.324D+00 0.635D+00
 Gap=     0.425 Goal=   None    Shift=    0.000
 RMSDP=9.33D-05 MaxDP=2.82D-03 DE=-1.34D-02 OVMax= 1.62D-02

 Cycle   5  Pass 0  IDiag  1:
 E= -132.531950671881     Delta-E=       -0.002754715825 Rises=F Damp=F
 DIIS: error= 3.11D-04 at cycle   5 NSaved=   5.
 NSaved= 5 IEnMin= 5 EnMin= -132.531950671881     IErMin= 5 ErrMin= 3.11D-04
 ErrMax= 3.11D-04  0.00D+00 EMaxC= 1.00D-01 BMatC= 1.36D-05 BMatP= 3.18D-03
 IDIUse=3 WtCom= 9.97D-01 WtEn= 3.11D-03
 Coeff-Com: -0.329D-02 0.499D-02 0.441D-01 0.131D+00 0.823D+00
 Coeff-En:   0.000D+00 0.000D+00 0.000D+00 0.000D+00 0.100D+01
 Coeff:     -0.328D-02 0.498D-02 0.439D-01 0.131D+00 0.824D+00
 Gap=     0.424 Goal=   None    Shift=    0.000
 RMSDP=8.50D-06 MaxDP=3.26D-04 DE=-2.75D-03 OVMax= 1.26D-03

 Initial convergence to 1.0D-05 achieved.  Increase integral accuracy.
 Cycle   6  Pass 1  IDiag  1:
 E= -132.531961211470     Delta-E=       -0.000010539589 Rises=F Damp=F
 DIIS: error= 8.55D-05 at cycle   1 NSaved=   1.
 NSaved= 1 IEnMin= 1 EnMin= -132.531961211470     IErMin= 1 ErrMin= 8.55D-05
 ErrMax= 8.55D-05  0.00D+00 EMaxC= 1.00D-01 BMatC= 6.16D-07 BMatP= 6.16D-07
 IDIUse=1 WtCom= 1.00D+00 WtEn= 0.00D+00
 Coeff-Com:  0.100D+01
 Coeff:      0.100D+01
 Gap=     0.425 Goal=   None    Shift=    0.000
 RMSDP=8.50D-06 MaxDP=3.26D-04 DE=-1.05D-05 OVMax= 3.96D-04

 Cycle   7  Pass 1  IDiag  1:
 E= -132.531961584704     Delta-E=       -0.000000373234 Rises=F Damp=F
 DIIS: error= 4.31D-05 at cycle   2 NSaved=   2.
 NSaved= 2 IEnMin= 2 EnMin= -132.531961584704     IErMin= 2 ErrMin= 4.31D-05
 ErrMax= 4.31D-05  0.00D+00 EMaxC= 1.00D-01 BMatC= 2.75D-07 BMatP= 6.16D-07
 IDIUse=1 WtCom= 1.00D+00 WtEn= 0.00D+00
 Coeff-Com:  0.392D+00 0.608D+00
 Coeff:      0.392D+00 0.608D+00
 Gap=     0.425 Goal=   None    Shift=    0.000
 RMSDP=9.89D-07 MaxDP=3.61D-05 DE=-3.73D-07 OVMax= 1.77D-04

 Cycle   8  Pass 1  IDiag  1:
 E= -132.531961822672     Delta-E=       -0.000000237968 Rises=F Damp=F
 DIIS: error= 1.51D-05 at cycle   3 NSaved=   3.
 NSaved= 3 IEnMin= 3 EnMin= -132.531961822672     IErMin= 3 ErrMin= 1.51D-05
 ErrMax= 1.51D-05  0.00D+00 EMaxC= 1.00D-01 BMatC= 2.18D-08 BMatP= 2.75D-07
 IDIUse=1 WtCom= 1.00D+00 WtEn= 0.00D+00
 Coeff-Com:  0.110D+00 0.255D+00 0.635D+00
 Coeff:      0.110D+00 0.255D+00 0.635D+00
 Gap=     0.425 Goal=   None    Shift=    0.000
 RMSDP=5.61D-07 MaxDP=2.57D-05 DE=-2.38D-07 OVMax= 6.53D-05

 Cycle   9  Pass 1  IDiag  1:
 E= -132.531961836220     Delta-E=       -0.000000013547 Rises=F Damp=F
 DIIS: error= 9.76D-06 at cycle   4 NSaved=   4.
 NSaved= 4 IEnMin= 4 EnMin= -132.531961836220     IErMin= 4 ErrMin= 9.76D-06
 ErrMax= 9.76D-06  0.00D+00 EMaxC= 1.00D-01 BMatC= 6.89D-09 BMatP= 2.18D-08
 IDIUse=1 WtCom= 1.00D+00 WtEn= 0.00D+00
 Coeff-Com: -0.599D-01-0.345D-01 0.390D+00 0.705D+00
 Coeff:     -0.599D-01-0.345D-01 0.390D+00 0.705D+00
 Gap=     0.425 Goal=   None    Shift=    0.000
 RMSDP=2.84D-07 MaxDP=1.33D-05 DE=-1.35D-08 OVMax= 3.93D-05

 Cycle  10  Pass 1  IDiag  1:
 E= -132.531961842848     Delta-E=       -0.000000006628 Rises=F Damp=F
 DIIS: error= 9.28D-07 at cycle   5 NSaved=   5.
 NSaved= 5 IEnMin= 5 EnMin= -132.531961842848     IErMin= 5 ErrMin= 9.28D-07
 ErrMax= 9.28D-07  0.00D+00 EMaxC= 1.00D-01 BMatC= 9.36D-11 BMatP= 6.89D-09
 IDIUse=1 WtCom= 1.00D+00 WtEn= 0.00D+00
 Coeff-Com: -0.201D-01-0.193D-01 0.680D-01 0.187D+00 0.785D+00
 Coeff:     -0.201D-01-0.193D-01 0.680D-01 0.187D+00 0.785D+00
 Gap=     0.425 Goal=   None    Shift=    0.000
 RMSDP=4.48D-08 MaxDP=2.15D-06 DE=-6.63D-09 OVMax= 3.34D-06

 Cycle  11  Pass 1  IDiag  1:
 E= -132.531961842952     Delta-E=       -0.000000000104 Rises=F Damp=F
 DIIS: error= 2.66D-07 at cycle   6 NSaved=   6.
 NSaved= 6 IEnMin= 6 EnMin= -132.531961842952     IErMin= 6 ErrMin= 2.66D-07
 ErrMax= 2.66D-07  0.00D+00 EMaxC= 1.00D-01 BMatC= 7.51D-12 BMatP= 9.36D-11
 IDIUse=1 WtCom= 1.00D+00 WtEn= 0.00D+00
 Coeff-Com:  0.367D-02 0.107D-02-0.357D-01-0.400D-01 0.132D+00 0.939D+00
 Coeff:      0.367D-02 0.107D-02-0.357D-01-0.400D-01 0.132D+00 0.939D+00
 Gap=     0.425 Goal=   None    Shift=    0.000
 RMSDP=1.14D-08 MaxDP=3.80D-07 DE=-1.04D-10 OVMax= 2.19D-06

 Cycle  12  Pass 1  IDiag  1:
 E= -132.531961842967     Delta-E=       -0.000000000015 Rises=F Damp=F
 DIIS: error= 8.08D-08 at cycle   7 NSaved=   7.
 NSaved= 7 IEnMin= 7 EnMin= -132.531961842967     IErMin= 7 ErrMin= 8.08D-08
 ErrMax= 8.08D-08  0.00D+00 EMaxC= 1.00D-01 BMatC= 4.93D-13 BMatP= 7.51D-12
 IDIUse=1 WtCom= 1.00D+00 WtEn= 0.00D+00
 Coeff-Com:  0.767D-03 0.129D-02 0.231D-02-0.421D-02-0.841D-01-0.208D+00
 Coeff-Com:  0.129D+01
 Coeff:      0.767D-03 0.129D-02 0.231D-02-0.421D-02-0.841D-01-0.208D+00
 Coeff:      0.129D+01
 Gap=     0.425 Goal=   None    Shift=    0.000
 RMSDP=4.68D-09 MaxDP=1.37D-07 DE=-1.55D-11 OVMax= 1.20D-06

 SCF Done:  E(RB2PLYPD3) =  -132.531961843     A.U. after   12 cycles
            NFock= 12  Conv=0.47D-08     -V/T= 2.0037
 KE= 1.320479519594D+02 PE=-4.259185557038D+02 EE= 1.026772951513D+02
 Leave Link  502 at Wed Aug 26 13:19:54 2020, MaxMem=  2097152000 cpu:       102.3
 (Enter /opt/cluster/programs/g09/g09_d.01/g09/l801.exe)
 DoSCS=T DFT=T ScalE2(SS,OS)=  0.270000  0.270000
 ExpMin= 7.60D-02 ExpMax= 9.07D+04 ExpMxC= 8.76D+02 IAcc=3 IRadAn=         5 AccDes= 0.00D+00
 HarFok:  IExCor=  205 AccDes= 0.00D+00 IRadAn=         5 IDoV=-2 UseB2=F ITyADJ=14
 ICtDFT= 12500011 ScaDFX=  1.000000  1.000000  1.000000  1.000000
 Largest valence mixing into a core orbital is  1.17D-04
 Largest core mixing into a valence orbital is  1.95D-05
 Range of M.O.s used for correlation:     4   261
 NBasis=   261 NAE=    11 NBE=    11 NFC=     3 NFV=     0
 NROrb=    258 NOA=     8 NOB=     8 NVA=   250 NVB=   250

 **** Warning!!: The largest alpha MO coefficient is  0.32004805D+02

 Leave Link  801 at Wed Aug 26 13:19:54 2020, MaxMem=  2097152000 cpu:         0.7
 (Enter /opt/cluster/programs/g09/g09_d.01/g09/l906.exe)
 DoSCS=T DFT=T ScalE2(SS,OS)=  0.270000  0.270000
 FulOut=F Deriv=F AODrv=F NAtomX=     6
   MMem=        2666  MDisk=           8 MDiskD=           8
  W3Min=      642000 MinDsk=     1426009 NBas6D=         321
 NBas2D=       52689    NTT=       51681    LW2=     4508827
    MDV=  2096809513 MDiskM=       14501 NBas2p=       52111
 Fully direct method using O(OVN) memory.
 IMap=   1   2   3   4   5   6   7   8
 JobTyp=1 Pass  1:  I=   1 to   8 NPSUse=  8 ParTrn=T ParDer=T DoDerP=F.
 Spin components of T(2) and E(2):
     alpha-alpha T2 =       0.3607569441D-01 E2=     -0.2153141844D-01
     alpha-beta  T2 =       0.2102469256D+00 E2=     -0.1379770073D+00
     beta-beta   T2 =       0.3607569441D-01 E2=     -0.2153141844D-01
 The integrals were generated   1 times.
 E2(B2PLYPD3) =    -0.1810398442D+00 E(B2PLYPD3) =    -0.13271300168716D+03
 Leave Link  906 at Wed Aug 26 13:20:09 2020, MaxMem=  2097152000 cpu:       119.6
 (Enter /opt/cluster/programs/g09/g09_d.01/g09/l601.exe)
 Copying SCF densities to generalized density rwf, IOpCl= 0 IROHF=0.

 **********************************************************************

            Population analysis using the SCF density.

 **********************************************************************

 Orbital symmetries:
       Occupied  (A) (A) (A) (A) (A) (A) (A) (A) (A) (A) (A)
       Virtual   (A) (A) (A) (A) (A) (A) (A) (A) (A) (A) (A) (A)
                 (A) (A) (A) (A) (A) (A) (A) (A) (A) (A) (A) (A)
                 (A) (A) (A) (A) (A) (A) (A) (A) (A) (A) (A) (A)
                 (A) (A) (A) (A) (A) (A) (A) (A) (A) (A) (A) (A)
                 (A) (A) (A) (A) (A) (A) (A) (A) (A) (A) (A) (A)
                 (A) (A) (A) (A) (A) (A) (A) (A) (A) (A) (A) (A)
                 (A) (A) (A) (A) (A) (A) (A) (A) (A) (A) (A) (A)
                 (A) (A) (A) (A) (A) (A) (A) (A) (A) (A) (A) (A)
                 (A) (A) (A) (A) (A) (A) (A) (A) (A) (A) (A) (A)
                 (A) (A) (A) (A) (A) (A) (A) (A) (A) (A) (A) (A)
                 (A) (A) (A) (A) (A) (A) (A) (A) (A) (A) (A) (A)
                 (A) (A) (A) (A) (A) (A) (A) (A) (A) (A) (A) (A)
                 (A) (A) (A) (A) (A) (A) (A) (A) (A) (A) (A) (A)
                 (A) (A) (A) (A) (A) (A) (A) (A) (A) (A) (A) (A)
                 (A) (A) (A) (A) (A) (A) (A) (A) (A) (A) (A) (A)
                 (A) (A) (A) (A) (A) (A) (A) (A) (A) (A) (A) (A)
                 (A) (A) (A) (A) (A) (A) (A) (A) (A) (A) (A) (A)
                 (A) (A) (A) (A) (A) (A) (A) (A) (A) (A) (A) (A)
                 (A) (A) (A) (A) (A) (A) (A) (A) (A) (A) (A) (A)
                 (A) (A) (A) (A) (A) (A) (A) (A) (A) (A) (A) (A)
                 (A) (A) (A) (A) (A) (A) (A) (A) (A) (A)
 The electronic state is 1-A.
 Alpha  occ. eigenvalues --  -14.84326 -10.67043 -10.66339  -1.03953  -0.89562
 Alpha  occ. eigenvalues --   -0.60010  -0.54822  -0.53064  -0.44831  -0.38891
 Alpha  occ. eigenvalues --   -0.38767
 Alpha virt. eigenvalues --    0.03708   0.07203   0.08117   0.10134   0.11394
 Alpha virt. eigenvalues --    0.11621   0.15497   0.15947   0.16710   0.20088
 Alpha virt. eigenvalues --    0.20173   0.25703   0.32504   0.34401   0.34877
 Alpha virt. eigenvalues --    0.38712   0.39635   0.40047   0.41036   0.47043
 Alpha virt. eigenvalues --    0.50483   0.52071   0.58566   0.60049   0.61708
 Alpha virt. eigenvalues --    0.66664   0.68162   0.69304   0.69993   0.79045
 Alpha virt. eigenvalues --    0.79508   0.82204   0.82521   0.83936   0.86600
 Alpha virt. eigenvalues --    0.91184   0.93506   0.95672   0.96904   0.98227
 Alpha virt. eigenvalues --    1.05936   1.07823   1.08750   1.11288   1.12902
 Alpha virt. eigenvalues --    1.15093   1.22048   1.23108   1.23696   1.34555
 Alpha virt. eigenvalues --    1.35915   1.43765   1.47552   1.49487   1.54165
 Alpha virt. eigenvalues --    1.64966   1.66759   1.70028   1.74484   1.77999
 Alpha virt. eigenvalues --    1.78238   1.79443   1.89338   1.90731   1.92966
 Alpha virt. eigenvalues --    1.94550   1.98536   2.00118   2.01539   2.04370
 Alpha virt. eigenvalues --    2.06207   2.11338   2.15241   2.19398   2.20973
 Alpha virt. eigenvalues --    2.23272   2.24201   2.25691   2.33623   2.37459
 Alpha virt. eigenvalues --    2.43583   2.50644   2.52268   2.56409   2.58675
 Alpha virt. eigenvalues --    2.59836   2.66743   2.70258   2.72108   2.72451
 Alpha virt. eigenvalues --    2.75915   2.78573   2.86974   2.89158   2.90602
 Alpha virt. eigenvalues --    2.93623   2.94515   2.96588   2.97539   3.07148
 Alpha virt. eigenvalues --    3.09229   3.12780   3.21535   3.27768   3.30648
 Alpha virt. eigenvalues --    3.33048   3.37038   3.40791   3.41249   3.49525
 Alpha virt. eigenvalues --    3.54631   3.58398   3.71542   3.74607   3.75139
 Alpha virt. eigenvalues --    3.87462   3.92059   3.92599   3.97292   3.98919
 Alpha virt. eigenvalues --    4.00967   4.05630   4.06301   4.24156   4.25407
 Alpha virt. eigenvalues --    4.57397   4.91100   4.91160   5.07529   5.09686
 Alpha virt. eigenvalues --    5.11769   5.16223   5.19854   5.21442   5.25495
 Alpha virt. eigenvalues --    5.32754   5.43949   5.45362   5.48753   5.63588
 Alpha virt. eigenvalues --    5.67183   5.83246   5.86851   5.90461   5.92708
 Alpha virt. eigenvalues --    5.93620   5.96022   5.97134   5.99353   6.02911
 Alpha virt. eigenvalues --    6.04688   6.06015   6.06943   6.07891   6.12770
 Alpha virt. eigenvalues --    6.18092   6.20317   6.23402   6.29655   6.32327
 Alpha virt. eigenvalues --    6.39730   6.44611   6.48203   6.55456   6.60922
 Alpha virt. eigenvalues --    6.62910   6.65499   6.88927   6.91368   6.96725
 Alpha virt. eigenvalues --    6.98936   7.02570   7.02634   7.09777   7.11020
 Alpha virt. eigenvalues --    7.12244   7.15309   7.29376   7.43639   7.48762
 Alpha virt. eigenvalues --    7.50046   7.51659   7.56602   7.59895   7.62757
 Alpha virt. eigenvalues --    7.68035   7.73929   7.76036   7.80835   7.85667
 Alpha virt. eigenvalues --    7.87338   7.93608   7.96213   8.00892   8.26712
 Alpha virt. eigenvalues --    8.30032   8.37726   8.40548   8.43864   8.45178
 Alpha virt. eigenvalues --    8.46437   8.50067   8.51042   8.54268   8.57456
 Alpha virt. eigenvalues --    8.60573   8.66306   8.66742   8.66805   8.68510
 Alpha virt. eigenvalues --    8.71342   8.83177   8.85642   8.91786   9.02502
 Alpha virt. eigenvalues --    9.05732   9.07178   9.14710   9.15020   9.18079
 Alpha virt. eigenvalues --    9.25709   9.27880   9.65507   9.74695   9.75281
 Alpha virt. eigenvalues --    9.84431   9.89662   9.96062   9.99044  10.11306
 Alpha virt. eigenvalues --   10.16048  10.17645  10.19505  10.36226  10.45300
 Alpha virt. eigenvalues --   10.50523  10.67832  11.36817  11.65476  11.86878
 Alpha virt. eigenvalues --   11.99656  12.05214  13.11813  13.43701  29.17318
 Alpha virt. eigenvalues --   29.61696  38.30760 148.83007 149.25435 198.22345
          Condensed to atoms (all electrons):
               1          2          3          4          5          6
     1  C    4.609979   0.295956  -0.059637   0.410285   0.412382   0.415003
     2  C    0.295956   4.850768   0.986086  -0.037163  -0.049112  -0.047252
     3  N   -0.059637   0.986086   6.285768  -0.000957  -0.000543  -0.001493
     4  H    0.410285  -0.037163  -0.000957   0.594991  -0.028473  -0.031437
     5  H    0.412382  -0.049112  -0.000543  -0.028473   0.595486  -0.029658
     6  H    0.415003  -0.047252  -0.001493  -0.031437  -0.029658   0.595035
 Mulliken charges:
               1
     1  C   -0.083967
     2  C    0.000717
     3  N   -0.209224
     4  H    0.092754
     5  H    0.099918
     6  H    0.099802
 Sum of Mulliken charges =   0.00000
 Mulliken charges with hydrogens summed into heavy atoms:
               1
     1  C    0.208507
     2  C    0.000717
     3  N   -0.209224
 Electronic spatial extent (au):  <R**2>=            160.9079
 Charge=              0.0000 electrons
 Dipole moment (field-independent basis, Debye):
    X=              4.1245    Y=             -0.0309    Z=              0.0078  Tot=              4.1247
 Quadrupole moment (field-independent basis, Debye-Ang):
   XX=            -21.0040   YY=            -17.7258   ZZ=            -17.7971
   XY=              0.1251   XZ=              0.0622   YZ=              0.0474
 Traceless Quadrupole moment (field-independent basis, Debye-Ang):
   XX=             -2.1617   YY=              1.1165   ZZ=              1.0452
   XY=              0.1251   XZ=              0.0622   YZ=              0.0474
 Octapole moment (field-independent basis, Debye-Ang**2):
  XXX=             12.8022  YYY=              0.0779  ZZZ=              0.9466  XYY=              2.3598
  XXY=              0.3642  XXZ=              0.0243  XZZ=              2.1266  YZZ=             -0.3099
  YYZ=             -0.6961  XYZ=              0.0001
 Hexadecapole moment (field-independent basis, Debye-Ang**3):
 XXXX=           -180.8368 YYYY=            -25.0147 ZZZZ=            -24.3905 XXXY=              0.9135
 XXXZ=              0.1871 YYYX=              0.3756 YYYZ=              0.1359 ZZZX=              1.3829
 ZZZY=              0.1194 XXYY=            -30.7012 XXZZ=            -31.1969 YYZZ=             -8.2764
 XXYZ=             -0.1224 YYXZ=             -1.2396 ZZXY=             -0.4467
 N-N= 5.866134675011D+01 E-N=-4.259185573204D+02  KE= 1.320479519594D+02
 Leave Link  601 at Wed Aug 26 13:20:09 2020, MaxMem=  2097152000 cpu:         0.4
 (Enter /opt/cluster/programs/g09/g09_d.01/g09/l9999.exe)
 1\1\GINC-NODE09\SP\RB2PLYPD3-FC\def2QZVP\C2H3N1\BOITTIER\26-Aug-2020\0
 \\#p B2PLYPD3/Def2QZVP\\cyanomethane\\0,1\C,0,-6.590407,-1.106971,1.15
 9544\C,0,-5.20139,-0.818239,0.916064\N,0,-4.099967,-0.52339,0.702389\H
 ,0,-6.854753,-1.220501,2.265512\H,0,-6.820597,-2.016277,0.639579\H,0,-
 7.189308,-0.31135,0.785202\\Version=ES64L-G09RevD.01\State=1-A\HF=-132
 .5319618\MP2=-132.7130017\RMSD=4.680e-09\PG=C01 [X(C2H3N1)]\\@


 Make no judgements where you have no compassion.
                               -- Anne McCaffrey
 Job cpu time:       0 days  0 hours  3 minutes 51.5 seconds.
 File lengths (MBytes):  RWF=     28 Int=      0 D2E=      0 Chk=      5 Scr=      1
 Normal termination of Gaussian 09 at Wed Aug 26 13:20:09 2020.
