 Entering Gaussian System, Link 0=/opt/cluster/programs/g09/g09_d.01/g09//g09
 Input=/home/boittier/MDCM/nms_sampling/cyanomethane_geom.xyz.dir/energies/cyanomethane_2623_energy.com
 Output=/scratch/boittier/cyanomethane_2623_energy/cyanomethane_2623_energy.out
 Initial command:
 /opt/cluster/programs/g09/g09_d.01/g09/l1.exe "/scratch/boittier/cyanomethane_2623_energy/Gau-73435.inp" -scrdir="/scratch/boittier/cyanomethane_2623_energy/"
 Entering Link 1 = /opt/cluster/programs/g09/g09_d.01/g09/l1.exe PID=     73436.
  
 Copyright (c) 1988,1990,1992,1993,1995,1998,2003,2009,2013,
            Gaussian, Inc.  All Rights Reserved.
  
 This is part of the Gaussian(R) 09 program.  It is based on
 the Gaussian(R) 03 system (copyright 2003, Gaussian, Inc.),
 the Gaussian(R) 98 system (copyright 1998, Gaussian, Inc.),
 the Gaussian(R) 94 system (copyright 1995, Gaussian, Inc.),
 the Gaussian 92(TM) system (copyright 1992, Gaussian, Inc.),
 the Gaussian 90(TM) system (copyright 1990, Gaussian, Inc.),
 the Gaussian 88(TM) system (copyright 1988, Gaussian, Inc.),
 the Gaussian 86(TM) system (copyright 1986, Carnegie Mellon
 University), and the Gaussian 82(TM) system (copyright 1983,
 Carnegie Mellon University). Gaussian is a federally registered
 trademark of Gaussian, Inc.
  
 This software contains proprietary and confidential information,
 including trade secrets, belonging to Gaussian, Inc.
  
 This software is provided under written license and may be
 used, copied, transmitted, or stored only in accord with that
 written license.
  
 The following legend is applicable only to US Government
 contracts under FAR:
  
                    RESTRICTED RIGHTS LEGEND
  
 Use, reproduction and disclosure by the US Government is
 subject to restrictions as set forth in subparagraphs (a)
 and (c) of the Commercial Computer Software - Restricted
 Rights clause in FAR 52.227-19.
  
 Gaussian, Inc.
 340 Quinnipiac St., Bldg. 40, Wallingford CT 06492
  
  
 ---------------------------------------------------------------
 Warning -- This program may not be used in any manner that
 competes with the business of Gaussian, Inc. or will provide
 assistance to any competitor of Gaussian, Inc.  The licensee
 of this program is prohibited from giving any competitor of
 Gaussian, Inc. access to this program.  By using this program,
 the user acknowledges that Gaussian, Inc. is engaged in the
 business of creating and licensing software in the field of
 computational chemistry and represents and warrants to the
 licensee that it is not a competitor of Gaussian, Inc. and that
 it will not use this program in any manner prohibited above.
 ---------------------------------------------------------------
  

 Cite this work as:
 Gaussian 09, Revision D.01,
 M. J. Frisch, G. W. Trucks, H. B. Schlegel, G. E. Scuseria, 
 M. A. Robb, J. R. Cheeseman, G. Scalmani, V. Barone, B. Mennucci, 
 G. A. Petersson, H. Nakatsuji, M. Caricato, X. Li, H. P. Hratchian, 
 A. F. Izmaylov, J. Bloino, G. Zheng, J. L. Sonnenberg, M. Hada, 
 M. Ehara, K. Toyota, R. Fukuda, J. Hasegawa, M. Ishida, T. Nakajima, 
 Y. Honda, O. Kitao, H. Nakai, T. Vreven, J. A. Montgomery, Jr., 
 J. E. Peralta, F. Ogliaro, M. Bearpark, J. J. Heyd, E. Brothers, 
 K. N. Kudin, V. N. Staroverov, T. Keith, R. Kobayashi, J. Normand, 
 K. Raghavachari, A. Rendell, J. C. Burant, S. S. Iyengar, J. Tomasi, 
 M. Cossi, N. Rega, J. M. Millam, M. Klene, J. E. Knox, J. B. Cross, 
 V. Bakken, C. Adamo, J. Jaramillo, R. Gomperts, R. E. Stratmann, 
 O. Yazyev, A. J. Austin, R. Cammi, C. Pomelli, J. W. Ochterski, 
 R. L. Martin, K. Morokuma, V. G. Zakrzewski, G. A. Voth, 
 P. Salvador, J. J. Dannenberg, S. Dapprich, A. D. Daniels, 
 O. Farkas, J. B. Foresman, J. V. Ortiz, J. Cioslowski, 
 and D. J. Fox, Gaussian, Inc., Wallingford CT, 2013.
 
 ******************************************
 Gaussian 09:  ES64L-G09RevD.01 24-Apr-2013
                26-Aug-2020 
 ******************************************
 %chk=/home/boittier/MDCM/nms_sampling/cyanomethane_geom.xyz.dir/cyanomethane_262
 3.chk
 %nproc=8
 Will use up to    8 processors via shared memory.
 %mem=16000MB
 --------------------
 #p B2PLYPD3/Def2QZVP
 --------------------
 1/38=1/1;
 2/12=2,17=6,18=5,40=1/2;
 3/5=45,7=101,11=9,16=1,25=1,30=1,74=-60/1,2,3;
 4//1;
 5/5=2,38=5/2;
 8/10=1/1;
 9/16=-3/6;
 6/7=2,8=2,9=2,10=2/1;
 99/5=1,9=1/99;
 Leave Link    1 at Wed Aug 26 19:24:04 2020, MaxMem=  2097152000 cpu:         1.3
 (Enter /opt/cluster/programs/g09/g09_d.01/g09/l101.exe)
 ------------
 cyanomethane
 ------------
 Symbolic Z-matrix:
 Charge =  0 Multiplicity = 1
 C                    -6.59135  -1.11787   1.19024 
 C                    -5.20234  -0.73894   0.89516 
 N                    -4.08385  -0.56588   0.7054 
 H                    -6.79664  -1.25819   2.24518 
 H                    -6.92435  -2.17932   0.59601 
 H                    -7.3429   -0.33775   0.66918 
 
 NAtoms=      6 NQM=        6 NQMF=       0 NMMI=      0 NMMIF=      0
                NMic=       0 NMicF=      0.
                    Isotopes and Nuclear Properties:
 (Nuclear quadrupole moments (NQMom) in fm**2, nuclear magnetic moments (NMagM)
  in nuclear magnetons)

  Atom         1           2           3           4           5           6
 IAtWgt=          12          12          14           1           1           1
 AtmWgt=  12.0000000  12.0000000  14.0030740   1.0078250   1.0078250   1.0078250
 NucSpn=           0           0           2           1           1           1
 AtZEff=   0.0000000   0.0000000   0.0000000   0.0000000   0.0000000   0.0000000
 NQMom=    0.0000000   0.0000000   2.0440000   0.0000000   0.0000000   0.0000000
 NMagM=    0.0000000   0.0000000   0.4037610   2.7928460   2.7928460   2.7928460
 AtZNuc=   6.0000000   6.0000000   7.0000000   1.0000000   1.0000000   1.0000000
 Leave Link  101 at Wed Aug 26 19:24:06 2020, MaxMem=  2097152000 cpu:         0.5
 (Enter /opt/cluster/programs/g09/g09_d.01/g09/l202.exe)
                          Input orientation:                          
 ---------------------------------------------------------------------
 Center     Atomic      Atomic             Coordinates (Angstroms)
 Number     Number       Type             X           Y           Z
 ---------------------------------------------------------------------
      1          6           0       -6.591353   -1.117872    1.190243
      2          6           0       -5.202338   -0.738942    0.895158
      3          7           0       -4.083848   -0.565882    0.705396
      4          1           0       -6.796636   -1.258189    2.245176
      5          1           0       -6.924351   -2.179323    0.596012
      6          1           0       -7.342899   -0.337748    0.669177
 ---------------------------------------------------------------------
                    Distance matrix (angstroms):
                    1          2          3          4          5
     1  C    0.000000
     2  C    1.469703   0.000000
     3  N    2.612920   1.147597   0.000000
     4  H    1.083842   2.152662   3.195220   0.000000
     5  H    1.261220   2.264843   3.268580   1.893288   0.000000
     6  H    1.202050   2.189526   3.267227   1.905095   1.889956
                    6
     6  H    0.000000
 Stoichiometry    C2H3N
 Framework group  C1[X(C2H3N)]
 Deg. of freedom    12
 Full point group                 C1      NOp   1
 Largest Abelian subgroup         C1      NOp   1
 Largest concise Abelian subgroup C1      NOp   1
                         Standard orientation:                         
 ---------------------------------------------------------------------
 Center     Atomic      Atomic             Coordinates (Angstroms)
 Number     Number       Type             X           Y           Z
 ---------------------------------------------------------------------
      1          6           0        1.171464   -0.034722   -0.019377
      2          6           0       -0.296424    0.034137   -0.043623
      3          7           0       -1.440945   -0.011595    0.026798
      4          1           0        1.578360   -0.944585   -0.445168
      5          1           0        1.626725    0.070822    1.152064
      6          1           0        1.631293    0.958439   -0.516483
 ---------------------------------------------------------------------
 Rotational constants (GHZ):    136.5928814      9.0675882      9.0633832
 Leave Link  202 at Wed Aug 26 19:24:10 2020, MaxMem=  2097152000 cpu:         0.0
 (Enter /opt/cluster/programs/g09/g09_d.01/g09/l301.exe)
 Standard basis: def2QZVP (5D, 7F)
 Ernie: Thresh=  0.10000D-02 Tol=  0.10000D-05 Strict=F.
 There are   321 symmetry adapted cartesian basis functions of A   symmetry.
 There are   261 symmetry adapted basis functions of A   symmetry.
   261 basis functions,   390 primitive gaussians,   321 cartesian basis functions
    11 alpha electrons       11 beta electrons
       nuclear repulsion energy        57.5138291643 Hartrees.
 IExCor=  419 DFT=T Ex+Corr=B2PLYPD3 ExCW=0 ScaHFX=  0.530000
 ScaDFX=  0.470000  0.470000  0.730000  0.730000 ScalE2=  0.270000  0.270000
 IRadAn=      0 IRanWt=     -1 IRanGd=            0 ICorTp=0 IEmpDi=141
 NAtoms=    6 NActive=    6 NUniq=    6 SFac= 1.00D+00 NAtFMM=   60 NAOKFM=F Big=F
 Integral buffers will be    131072 words long.
 Regular integral format.
 Two-electron integral symmetry is turned on.
 R6Disp:  Grimme-D3(BJ) Dispersion energy=       -0.0020892062 Hartrees.
 Nuclear repulsion after empirical dispersion term =       57.5117399581 Hartrees.
 Leave Link  301 at Wed Aug 26 19:24:12 2020, MaxMem=  2097152000 cpu:         0.5
 (Enter /opt/cluster/programs/g09/g09_d.01/g09/l302.exe)
 NPDir=0 NMtPBC=     1 NCelOv=     1 NCel=       1 NClECP=     1 NCelD=      1
         NCelK=      1 NCelE2=     1 NClLst=     1 CellRange=     0.0.
 One-electron integrals computed using PRISM.
   1 Symmetry operations used in ECPInt.
 ECPInt:  NShTT=    3321 NPrTT=    8136 LenC2=    3290 LenP2D=    7111.
 LDataN:  DoStor=T MaxTD1= 8 Len=  415
 NBasis=   261 RedAO= T EigKep=  8.31D-05  NBF=   261
 NBsUse=   261 1.00D-06 EigRej= -1.00D+00 NBFU=   261
 Precomputing XC quadrature grid using
 IXCGrd= 4 IRadAn=           0 IRanWt=          -1 IRanGd=           0 AccXCQ= 0.00D+00.
 Generated NRdTot=       0 NPtTot=           0 NUsed=           0 NTot=          32
 NSgBfM=   321   321   321   321   321 MxSgAt=     6 MxSgA2=     6.
 Leave Link  302 at Wed Aug 26 19:24:13 2020, MaxMem=  2097152000 cpu:         2.0
 (Enter /opt/cluster/programs/g09/g09_d.01/g09/l303.exe)
 DipDrv:  MaxL=1.
 Leave Link  303 at Wed Aug 26 19:24:25 2020, MaxMem=  2097152000 cpu:         0.2
 (Enter /opt/cluster/programs/g09/g09_d.01/g09/l401.exe)
 ExpMin= 7.60D-02 ExpMax= 9.07D+04 ExpMxC= 8.76D+02 IAcc=2 IRadAn=         4 AccDes= 0.00D+00
 Harris functional with IExCor=  419 and IRadAn=       4 diagonalized for initial guess.
 HarFok:  IExCor=  419 AccDes= 0.00D+00 IRadAn=         4 IDoV= 1 UseB2=F ITyADJ=14
 ICtDFT=  3500011 ScaDFX=  1.000000  1.000000  1.000000  1.000000
 FoFCou: FMM=F IPFlag=           0 FMFlag=      100000 FMFlg1=           0
         NFxFlg=           0 DoJE=T BraDBF=F KetDBF=T FulRan=T
         wScrn=  0.000000 ICntrl=     500 IOpCl=  0 I1Cent=   200000004 NGrid=           0
         NMat0=    1 NMatS0=      1 NMatT0=    0 NMatD0=    1 NMtDS0=    0 NMtDT0=    0
 Petite list used in FoFCou.
 Harris En= -132.819036482343    
 JPrj=0 DoOrth=F DoCkMO=F.
 Leave Link  401 at Wed Aug 26 19:24:28 2020, MaxMem=  2097152000 cpu:         3.7
 (Enter /opt/cluster/programs/g09/g09_d.01/g09/l502.exe)
 Closed shell SCF:
 Using DIIS extrapolation, IDIIS=  1040.
 Integral symmetry usage will be decided dynamically.
 Keep R1 ints in memory in canonical form, NReq=601554820.
 IVT=      332521 IEndB=      332521 NGot=  2097152000 MDV=  1512290144
 LenX=  1512290144 LenY=  1512186662
 Requested convergence on RMS density matrix=1.00D-08 within 128 cycles.
 Requested convergence on MAX density matrix=1.00D-06.
 Requested convergence on             energy=1.00D-06.
 No special actions if energy rises.
 FoFCou: FMM=F IPFlag=           0 FMFlag=           0 FMFlg1=           0
         NFxFlg=           0 DoJE=F BraDBF=F KetDBF=F FulRan=T
         wScrn=  0.000000 ICntrl=     600 IOpCl=  0 I1Cent=           0 NGrid=           0
         NMat0=    1 NMatS0=  34191 NMatT0=    0 NMatD0=    1 NMtDS0=    0 NMtDT0=    0
 Symmetry not used in FoFCou.
 Integral accuracy reduced to 1.0D-05 until final iterations.

 Cycle   1  Pass 0  IDiag  1:
 E= -132.405810424671    
 DIIS: error= 2.73D-02 at cycle   1 NSaved=   1.
 NSaved= 1 IEnMin= 1 EnMin= -132.405810424671     IErMin= 1 ErrMin= 2.73D-02
 ErrMax= 2.73D-02  0.00D+00 EMaxC= 1.00D-01 BMatC= 1.79D-01 BMatP= 1.79D-01
 IDIUse=3 WtCom= 7.27D-01 WtEn= 2.73D-01
 Coeff-Com:  0.100D+01
 Coeff-En:   0.100D+01
 Coeff:      0.100D+01
 Gap=     0.437 Goal=   None    Shift=    0.000
 GapD=    0.437 DampG=2.000 DampE=0.500 DampFc=1.0000 IDamp=-1.
 RMSDP=1.35D-03 MaxDP=7.23D-02              OVMax= 1.77D-01

 Cycle   2  Pass 0  IDiag  1:
 E= -132.423044178134     Delta-E=       -0.017233753463 Rises=F Damp=F
 DIIS: error= 2.88D-02 at cycle   2 NSaved=   2.
 NSaved= 2 IEnMin= 2 EnMin= -132.423044178134     IErMin= 1 ErrMin= 2.73D-02
 ErrMax= 2.88D-02  0.00D+00 EMaxC= 1.00D-01 BMatC= 1.02D-01 BMatP= 1.79D-01
 IDIUse=3 WtCom= 7.12D-01 WtEn= 2.88D-01
 Coeff-Com:  0.416D+00 0.584D+00
 Coeff-En:   0.449D+00 0.551D+00
 Coeff:      0.426D+00 0.574D+00
 Gap=     0.431 Goal=   None    Shift=    0.000
 RMSDP=9.08D-04 MaxDP=3.97D-02 DE=-1.72D-02 OVMax= 1.27D-01

 Cycle   3  Pass 0  IDiag  1:
 E= -132.497379534818     Delta-E=       -0.074335356683 Rises=F Damp=F
 DIIS: error= 1.54D-02 at cycle   3 NSaved=   3.
 NSaved= 3 IEnMin= 3 EnMin= -132.497379534818     IErMin= 3 ErrMin= 1.54D-02
 ErrMax= 1.54D-02  0.00D+00 EMaxC= 1.00D-01 BMatC= 1.75D-02 BMatP= 1.02D-01
 IDIUse=3 WtCom= 8.46D-01 WtEn= 1.54D-01
 Coeff-Com:  0.861D-01 0.301D+00 0.613D+00
 Coeff-En:   0.000D+00 0.895D-01 0.911D+00
 Coeff:      0.728D-01 0.268D+00 0.659D+00
 Gap=     0.417 Goal=   None    Shift=    0.000
 RMSDP=2.58D-04 MaxDP=9.18D-03 DE=-7.43D-02 OVMax= 5.62D-02

 Cycle   4  Pass 0  IDiag  1:
 E= -132.508963944055     Delta-E=       -0.011584409237 Rises=F Damp=F
 DIIS: error= 6.26D-03 at cycle   4 NSaved=   4.
 NSaved= 4 IEnMin= 4 EnMin= -132.508963944055     IErMin= 4 ErrMin= 6.26D-03
 ErrMax= 6.26D-03  0.00D+00 EMaxC= 1.00D-01 BMatC= 3.24D-03 BMatP= 1.75D-02
 IDIUse=3 WtCom= 9.37D-01 WtEn= 6.26D-02
 Coeff-Com: -0.132D-01 0.525D-01 0.354D+00 0.607D+00
 Coeff-En:   0.000D+00 0.000D+00 0.175D+00 0.825D+00
 Coeff:     -0.124D-01 0.492D-01 0.342D+00 0.621D+00
 Gap=     0.415 Goal=   None    Shift=    0.000
 RMSDP=9.38D-05 MaxDP=3.28D-03 DE=-1.16D-02 OVMax= 1.57D-02

 Cycle   5  Pass 0  IDiag  1:
 E= -132.511817649646     Delta-E=       -0.002853705591 Rises=F Damp=F
 DIIS: error= 3.87D-04 at cycle   5 NSaved=   5.
 NSaved= 5 IEnMin= 5 EnMin= -132.511817649646     IErMin= 5 ErrMin= 3.87D-04
 ErrMax= 3.87D-04  0.00D+00 EMaxC= 1.00D-01 BMatC= 1.83D-05 BMatP= 3.24D-03
 IDIUse=3 WtCom= 9.96D-01 WtEn= 3.87D-03
 Coeff-Com: -0.421D-02 0.606D-02 0.644D-01 0.162D+00 0.772D+00
 Coeff-En:   0.000D+00 0.000D+00 0.000D+00 0.000D+00 0.100D+01
 Coeff:     -0.420D-02 0.604D-02 0.641D-01 0.161D+00 0.773D+00
 Gap=     0.415 Goal=   None    Shift=    0.000
 RMSDP=9.71D-06 MaxDP=3.91D-04 DE=-2.85D-03 OVMax= 1.25D-03

 Initial convergence to 1.0D-05 achieved.  Increase integral accuracy.
 Cycle   6  Pass 1  IDiag  1:
 E= -132.511837796007     Delta-E=       -0.000020146361 Rises=F Damp=F
 DIIS: error= 7.69D-05 at cycle   1 NSaved=   1.
 NSaved= 1 IEnMin= 1 EnMin= -132.511837796007     IErMin= 1 ErrMin= 7.69D-05
 ErrMax= 7.69D-05  0.00D+00 EMaxC= 1.00D-01 BMatC= 8.43D-07 BMatP= 8.43D-07
 IDIUse=1 WtCom= 1.00D+00 WtEn= 0.00D+00
 Coeff-Com:  0.100D+01
 Coeff:      0.100D+01
 Gap=     0.415 Goal=   None    Shift=    0.000
 RMSDP=9.71D-06 MaxDP=3.91D-04 DE=-2.01D-05 OVMax= 4.56D-04

 Cycle   7  Pass 1  IDiag  1:
 E= -132.511838306135     Delta-E=       -0.000000510128 Rises=F Damp=F
 DIIS: error= 6.13D-05 at cycle   2 NSaved=   2.
 NSaved= 2 IEnMin= 2 EnMin= -132.511838306135     IErMin= 2 ErrMin= 6.13D-05
 ErrMax= 6.13D-05  0.00D+00 EMaxC= 1.00D-01 BMatC= 4.26D-07 BMatP= 8.43D-07
 IDIUse=1 WtCom= 1.00D+00 WtEn= 0.00D+00
 Coeff-Com:  0.408D+00 0.592D+00
 Coeff:      0.408D+00 0.592D+00
 Gap=     0.415 Goal=   None    Shift=    0.000
 RMSDP=1.18D-06 MaxDP=4.93D-05 DE=-5.10D-07 OVMax= 1.93D-04

 Cycle   8  Pass 1  IDiag  1:
 E= -132.511838683740     Delta-E=       -0.000000377605 Rises=F Damp=F
 DIIS: error= 1.64D-05 at cycle   3 NSaved=   3.
 NSaved= 3 IEnMin= 3 EnMin= -132.511838683740     IErMin= 3 ErrMin= 1.64D-05
 ErrMax= 1.64D-05  0.00D+00 EMaxC= 1.00D-01 BMatC= 2.57D-08 BMatP= 4.26D-07
 IDIUse=1 WtCom= 1.00D+00 WtEn= 0.00D+00
 Coeff-Com:  0.108D+00 0.227D+00 0.665D+00
 Coeff:      0.108D+00 0.227D+00 0.665D+00
 Gap=     0.415 Goal=   None    Shift=    0.000
 RMSDP=6.41D-07 MaxDP=2.93D-05 DE=-3.78D-07 OVMax= 6.56D-05

 Cycle   9  Pass 1  IDiag  1:
 E= -132.511838699145     Delta-E=       -0.000000015406 Rises=F Damp=F
 DIIS: error= 1.35D-05 at cycle   4 NSaved=   4.
 NSaved= 4 IEnMin= 4 EnMin= -132.511838699145     IErMin= 4 ErrMin= 1.35D-05
 ErrMax= 1.35D-05  0.00D+00 EMaxC= 1.00D-01 BMatC= 9.90D-09 BMatP= 2.57D-08
 IDIUse=1 WtCom= 1.00D+00 WtEn= 0.00D+00
 Coeff-Com: -0.607D-01-0.406D-01 0.414D+00 0.687D+00
 Coeff:     -0.607D-01-0.406D-01 0.414D+00 0.687D+00
 Gap=     0.415 Goal=   None    Shift=    0.000
 RMSDP=3.15D-07 MaxDP=1.60D-05 DE=-1.54D-08 OVMax= 4.03D-05

 Cycle  10  Pass 1  IDiag  1:
 E= -132.511838708308     Delta-E=       -0.000000009163 Rises=F Damp=F
 DIIS: error= 1.15D-06 at cycle   5 NSaved=   5.
 NSaved= 5 IEnMin= 5 EnMin= -132.511838708308     IErMin= 5 ErrMin= 1.15D-06
 ErrMax= 1.15D-06  0.00D+00 EMaxC= 1.00D-01 BMatC= 1.92D-10 BMatP= 9.90D-09
 IDIUse=1 WtCom= 1.00D+00 WtEn= 0.00D+00
 Coeff-Com: -0.279D-01-0.255D-01 0.123D+00 0.260D+00 0.670D+00
 Coeff:     -0.279D-01-0.255D-01 0.123D+00 0.260D+00 0.670D+00
 Gap=     0.415 Goal=   None    Shift=    0.000
 RMSDP=5.48D-08 MaxDP=2.53D-06 DE=-9.16D-09 OVMax= 4.30D-06

 Cycle  11  Pass 1  IDiag  1:
 E= -132.511838708478     Delta-E=       -0.000000000170 Rises=F Damp=F
 DIIS: error= 2.12D-07 at cycle   6 NSaved=   6.
 NSaved= 6 IEnMin= 6 EnMin= -132.511838708478     IErMin= 6 ErrMin= 2.12D-07
 ErrMax= 2.12D-07  0.00D+00 EMaxC= 1.00D-01 BMatC= 4.80D-12 BMatP= 1.92D-10
 IDIUse=1 WtCom= 1.00D+00 WtEn= 0.00D+00
 Coeff-Com:  0.293D-02 0.148D-02-0.278D-01-0.278D-01 0.512D-01 0.100D+01
 Coeff:      0.293D-02 0.148D-02-0.278D-01-0.278D-01 0.512D-01 0.100D+01
 Gap=     0.415 Goal=   None    Shift=    0.000
 RMSDP=1.16D-08 MaxDP=5.85D-07 DE=-1.70D-10 OVMax= 1.08D-06

 Cycle  12  Pass 1  IDiag  1:
 E= -132.511838708485     Delta-E=       -0.000000000007 Rises=F Damp=F
 DIIS: error= 5.28D-08 at cycle   7 NSaved=   7.
 NSaved= 7 IEnMin= 7 EnMin= -132.511838708485     IErMin= 7 ErrMin= 5.28D-08
 ErrMax= 5.28D-08  0.00D+00 EMaxC= 1.00D-01 BMatC= 1.54D-13 BMatP= 4.80D-12
 IDIUse=1 WtCom= 1.00D+00 WtEn= 0.00D+00
 Coeff-Com:  0.266D-03 0.427D-03 0.895D-03-0.481D-03-0.261D-01-0.163D+00
 Coeff-Com:  0.119D+01
 Coeff:      0.266D-03 0.427D-03 0.895D-03-0.481D-03-0.261D-01-0.163D+00
 Coeff:      0.119D+01
 Gap=     0.415 Goal=   None    Shift=    0.000
 RMSDP=2.11D-09 MaxDP=5.43D-08 DE=-6.93D-12 OVMax= 3.51D-07

 SCF Done:  E(RB2PLYPD3) =  -132.511838708     A.U. after   12 cycles
            NFock= 12  Conv=0.21D-08     -V/T= 2.0059
 KE= 1.317366188284D+02 PE=-4.233756735302D+02 EE= 1.016154760352D+02
 Leave Link  502 at Wed Aug 26 19:25:15 2020, MaxMem=  2097152000 cpu:       263.3
 (Enter /opt/cluster/programs/g09/g09_d.01/g09/l801.exe)
 DoSCS=T DFT=T ScalE2(SS,OS)=  0.270000  0.270000
 ExpMin= 7.60D-02 ExpMax= 9.07D+04 ExpMxC= 8.76D+02 IAcc=3 IRadAn=         5 AccDes= 0.00D+00
 HarFok:  IExCor=  205 AccDes= 0.00D+00 IRadAn=         5 IDoV=-2 UseB2=F ITyADJ=14
 ICtDFT= 12500011 ScaDFX=  1.000000  1.000000  1.000000  1.000000
 Largest valence mixing into a core orbital is  1.18D-04
 Largest core mixing into a valence orbital is  1.91D-05
 Range of M.O.s used for correlation:     4   261
 NBasis=   261 NAE=    11 NBE=    11 NFC=     3 NFV=     0
 NROrb=    258 NOA=     8 NOB=     8 NVA=   250 NVB=   250

 **** Warning!!: The largest alpha MO coefficient is  0.23308932D+02

 Leave Link  801 at Wed Aug 26 19:25:36 2020, MaxMem=  2097152000 cpu:         0.6
 (Enter /opt/cluster/programs/g09/g09_d.01/g09/l906.exe)
 DoSCS=T DFT=T ScalE2(SS,OS)=  0.270000  0.270000
 FulOut=F Deriv=F AODrv=F NAtomX=     6
   MMem=        2666  MDisk=           8 MDiskD=           8
  W3Min=      642000 MinDsk=     1426009 NBas6D=         321
 NBas2D=       52689    NTT=       51681    LW2=     4508827
    MDV=  2096810789 MDiskM=       14501 NBas2p=       51947
 Fully direct method using O(OVN) memory.
 IMap=   1   2   3   4   5   6   7   8
 JobTyp=1 Pass  1:  I=   1 to   8 NPSUse=  8 ParTrn=T ParDer=T DoDerP=F.
 Spin components of T(2) and E(2):
     alpha-alpha T2 =       0.3633009364D-01 E2=     -0.2143811339D-01
     alpha-beta  T2 =       0.2166192081D+00 E2=     -0.1387215972D+00
     beta-beta   T2 =       0.3633009364D-01 E2=     -0.2143811339D-01
 The integrals were generated   1 times.
 E2(B2PLYPD3) =    -0.1815978240D+00 E(B2PLYPD3) =    -0.13269343653247D+03
 Leave Link  906 at Wed Aug 26 19:25:49 2020, MaxMem=  2097152000 cpu:        99.6
 (Enter /opt/cluster/programs/g09/g09_d.01/g09/l601.exe)
 Copying SCF densities to generalized density rwf, IOpCl= 0 IROHF=0.

 **********************************************************************

            Population analysis using the SCF density.

 **********************************************************************

 Orbital symmetries:
       Occupied  (A) (A) (A) (A) (A) (A) (A) (A) (A) (A) (A)
       Virtual   (A) (A) (A) (A) (A) (A) (A) (A) (A) (A) (A) (A)
                 (A) (A) (A) (A) (A) (A) (A) (A) (A) (A) (A) (A)
                 (A) (A) (A) (A) (A) (A) (A) (A) (A) (A) (A) (A)
                 (A) (A) (A) (A) (A) (A) (A) (A) (A) (A) (A) (A)
                 (A) (A) (A) (A) (A) (A) (A) (A) (A) (A) (A) (A)
                 (A) (A) (A) (A) (A) (A) (A) (A) (A) (A) (A) (A)
                 (A) (A) (A) (A) (A) (A) (A) (A) (A) (A) (A) (A)
                 (A) (A) (A) (A) (A) (A) (A) (A) (A) (A) (A) (A)
                 (A) (A) (A) (A) (A) (A) (A) (A) (A) (A) (A) (A)
                 (A) (A) (A) (A) (A) (A) (A) (A) (A) (A) (A) (A)
                 (A) (A) (A) (A) (A) (A) (A) (A) (A) (A) (A) (A)
                 (A) (A) (A) (A) (A) (A) (A) (A) (A) (A) (A) (A)
                 (A) (A) (A) (A) (A) (A) (A) (A) (A) (A) (A) (A)
                 (A) (A) (A) (A) (A) (A) (A) (A) (A) (A) (A) (A)
                 (A) (A) (A) (A) (A) (A) (A) (A) (A) (A) (A) (A)
                 (A) (A) (A) (A) (A) (A) (A) (A) (A) (A) (A) (A)
                 (A) (A) (A) (A) (A) (A) (A) (A) (A) (A) (A) (A)
                 (A) (A) (A) (A) (A) (A) (A) (A) (A) (A) (A) (A)
                 (A) (A) (A) (A) (A) (A) (A) (A) (A) (A) (A) (A)
                 (A) (A) (A) (A) (A) (A) (A) (A) (A) (A) (A) (A)
                 (A) (A) (A) (A) (A) (A) (A) (A) (A) (A)
 The electronic state is 1-A.
 Alpha  occ. eigenvalues --  -14.84312 -10.69849 -10.66433  -1.04576  -0.87103
 Alpha  occ. eigenvalues --   -0.59328  -0.53342  -0.49600  -0.45007  -0.39518
 Alpha  occ. eigenvalues --   -0.38655
 Alpha virt. eigenvalues --    0.02835   0.05973   0.07416   0.10064   0.11372
 Alpha virt. eigenvalues --    0.12077   0.15243   0.16050   0.17337   0.19871
 Alpha virt. eigenvalues --    0.20106   0.25301   0.30853   0.31529   0.34646
 Alpha virt. eigenvalues --    0.37183   0.38895   0.39717   0.40467   0.46879
 Alpha virt. eigenvalues --    0.48612   0.51395   0.56625   0.59837   0.61600
 Alpha virt. eigenvalues --    0.66709   0.68124   0.69214   0.69803   0.78959
 Alpha virt. eigenvalues --    0.79849   0.80711   0.81279   0.83351   0.86639
 Alpha virt. eigenvalues --    0.91669   0.94129   0.95167   0.95703   0.97047
 Alpha virt. eigenvalues --    1.05529   1.05663   1.08032   1.09883   1.11822
 Alpha virt. eigenvalues --    1.15583   1.20749   1.21279   1.23058   1.28717
 Alpha virt. eigenvalues --    1.33151   1.39363   1.44186   1.47391   1.50613
 Alpha virt. eigenvalues --    1.63672   1.66137   1.70940   1.71208   1.76280
 Alpha virt. eigenvalues --    1.78673   1.80006   1.89801   1.90791   1.92876
 Alpha virt. eigenvalues --    1.94607   1.98543   1.99609   2.00419   2.04079
 Alpha virt. eigenvalues --    2.06990   2.11238   2.15673   2.17068   2.19002
 Alpha virt. eigenvalues --    2.20390   2.24082   2.25180   2.28966   2.32501
 Alpha virt. eigenvalues --    2.39370   2.46050   2.49317   2.52401   2.58446
 Alpha virt. eigenvalues --    2.62741   2.65452   2.66162   2.68461   2.70937
 Alpha virt. eigenvalues --    2.72601   2.77506   2.79808   2.82512   2.85285
 Alpha virt. eigenvalues --    2.86387   2.88047   2.90249   2.92147   2.99390
 Alpha virt. eigenvalues --    3.04822   3.07949   3.15388   3.20105   3.20747
 Alpha virt. eigenvalues --    3.23144   3.27081   3.35045   3.39712   3.42772
 Alpha virt. eigenvalues --    3.48681   3.53102   3.58297   3.68352   3.72048
 Alpha virt. eigenvalues --    3.73800   3.79817   3.80211   3.87916   3.94190
 Alpha virt. eigenvalues --    3.99478   4.03806   4.04641   4.13544   4.20510
 Alpha virt. eigenvalues --    4.54986   4.90381   4.90679   5.00539   5.04031
 Alpha virt. eigenvalues --    5.09610   5.12643   5.15540   5.19047   5.20128
 Alpha virt. eigenvalues --    5.26289   5.35807   5.38432   5.46927   5.58664
 Alpha virt. eigenvalues --    5.63635   5.73009   5.77732   5.79447   5.82836
 Alpha virt. eigenvalues --    5.86503   5.89716   5.91705   5.93116   5.93627
 Alpha virt. eigenvalues --    5.96100   5.97539   5.99921   6.00880   6.03913
 Alpha virt. eigenvalues --    6.08918   6.13252   6.14964   6.19621   6.21715
 Alpha virt. eigenvalues --    6.38809   6.39698   6.43709   6.45636   6.46569
 Alpha virt. eigenvalues --    6.52123   6.61300   6.72994   6.74938   6.76430
 Alpha virt. eigenvalues --    6.77544   6.85435   6.95706   6.99815   7.02573
 Alpha virt. eigenvalues --    7.02609   7.04927   7.13644   7.23291   7.25334
 Alpha virt. eigenvalues --    7.32665   7.43191   7.44561   7.48412   7.52016
 Alpha virt. eigenvalues --    7.53062   7.60356   7.64251   7.68007   7.74075
 Alpha virt. eigenvalues --    7.80127   7.83429   7.87988   7.91097   8.01838
 Alpha virt. eigenvalues --    8.17087   8.22504   8.24381   8.27320   8.29317
 Alpha virt. eigenvalues --    8.37026   8.39103   8.43037   8.48424   8.50198
 Alpha virt. eigenvalues --    8.56816   8.58660   8.62199   8.66225   8.66347
 Alpha virt. eigenvalues --    8.68135   8.72191   8.75584   8.77345   8.79261
 Alpha virt. eigenvalues --    8.88511   8.90564   9.00074   9.03495   9.11161
 Alpha virt. eigenvalues --    9.20536   9.22855   9.23024   9.34863   9.42884
 Alpha virt. eigenvalues --    9.51512   9.55355   9.63305   9.70086   9.78863
 Alpha virt. eigenvalues --    9.88010   9.92926  10.12930  10.17274  10.25460
 Alpha virt. eigenvalues --   10.25837  10.35701  11.34303  11.43200  11.75887
 Alpha virt. eigenvalues --   11.87710  11.97275  12.63038  13.22211  28.88089
 Alpha virt. eigenvalues --   29.42244  38.31641 148.48751 149.06075 198.23847
          Condensed to atoms (all electrons):
               1          2          3          4          5          6
     1  C    4.671525   0.300914  -0.058999   0.405817   0.394810   0.395515
     2  C    0.300914   4.816347   0.989603  -0.039138  -0.037572  -0.038707
     3  N   -0.058999   0.989603   6.268686  -0.000343  -0.001974   0.000054
     4  H    0.405817  -0.039138  -0.000343   0.571343  -0.026752  -0.025330
     5  H    0.394810  -0.037572  -0.001974  -0.026752   0.610022  -0.028070
     6  H    0.395515  -0.038707   0.000054  -0.025330  -0.028070   0.602420
 Mulliken charges:
               1
     1  C   -0.109582
     2  C    0.008554
     3  N   -0.197028
     4  H    0.114404
     5  H    0.089535
     6  H    0.094118
 Sum of Mulliken charges =   0.00000
 Mulliken charges with hydrogens summed into heavy atoms:
               1
     1  C    0.188474
     2  C    0.008554
     3  N   -0.197028
 Electronic spatial extent (au):  <R**2>=            166.3420
 Charge=              0.0000 electrons
 Dipole moment (field-independent basis, Debye):
    X=              4.0618    Y=              0.0135    Z=             -0.0488  Tot=              4.0621
 Quadrupole moment (field-independent basis, Debye-Ang):
   XX=            -21.0541   YY=            -17.7455   ZZ=            -18.0924
   XY=             -0.0175   XZ=              0.1903   YZ=              0.1168
 Traceless Quadrupole moment (field-independent basis, Debye-Ang):
   XX=             -2.0901   YY=              1.2185   ZZ=              0.8716
   XY=             -0.0175   XZ=              0.1903   YZ=              0.1168
 Octapole moment (field-independent basis, Debye-Ang**2):
  XXX=             12.1792  YYY=             -0.3318  ZZZ=              0.9747  XYY=              2.2617
  XXY=             -0.0311  XXZ=              0.1352  XZZ=              1.7899  YZZ=              0.0443
  YYZ=             -0.9648  XYZ=              0.1621
 Hexadecapole moment (field-independent basis, Debye-Ang**3):
 XXXX=           -188.1978 YYYY=            -25.8168 ZZZZ=            -27.0968 XXXY=             -0.3549
 XXXZ=              0.5103 YYYX=             -0.2929 YYYZ=              0.1190 ZZZX=              1.7109
 ZZZY=              0.3918 XXYY=            -31.5296 XXZZ=            -32.4207 YYZZ=             -9.0763
 XXYZ=              0.3066 YYXZ=             -1.7354 ZZXY=              0.1711
 N-N= 5.751173995806D+01 E-N=-4.233756739448D+02  KE= 1.317366188284D+02
 Leave Link  601 at Wed Aug 26 19:25:51 2020, MaxMem=  2097152000 cpu:         0.3
 (Enter /opt/cluster/programs/g09/g09_d.01/g09/l9999.exe)
 1\1\GINC-NODE25\SP\RB2PLYPD3-FC\def2QZVP\C2H3N1\BOITTIER\26-Aug-2020\0
 \\#p B2PLYPD3/Def2QZVP\\cyanomethane\\0,1\C,0,-6.591353,-1.117872,1.19
 0243\C,0,-5.202338,-0.738942,0.895158\N,0,-4.083848,-0.565882,0.705396
 \H,0,-6.796636,-1.258189,2.245176\H,0,-6.924351,-2.179323,0.596012\H,0
 ,-7.342899,-0.337748,0.669177\\Version=ES64L-G09RevD.01\State=1-A\HF=-
 132.5118387\MP2=-132.6934365\RMSD=2.106e-09\PG=C01 [X(C2H3N1)]\\@


 BE LIKE A POSTAGE STAMP.  STICK TO ONE THING UNTIL
 YOU GET THERE -- JOSH BILLINGS
 Job cpu time:       0 days  0 hours  6 minutes 12.9 seconds.
 File lengths (MBytes):  RWF=     28 Int=      0 D2E=      0 Chk=      5 Scr=      1
 Normal termination of Gaussian 09 at Wed Aug 26 19:26:03 2020.
