 Entering Gaussian System, Link 0=/opt/cluster/programs/g09/g09_d.01/g09//g09
 Input=/home/boittier/MDCM/nms_sampling/cyanomethane_geom.xyz.dir/energies/cyanomethane_3289_energy.com
 Output=/scratch/boittier/cyanomethane_3289_energy/cyanomethane_3289_energy.out
 Initial command:
 /opt/cluster/programs/g09/g09_d.01/g09/l1.exe "/scratch/boittier/cyanomethane_3289_energy/Gau-109478.inp" -scrdir="/scratch/boittier/cyanomethane_3289_energy/"
 Entering Link 1 = /opt/cluster/programs/g09/g09_d.01/g09/l1.exe PID=    109479.
  
 Copyright (c) 1988,1990,1992,1993,1995,1998,2003,2009,2013,
            Gaussian, Inc.  All Rights Reserved.
  
 This is part of the Gaussian(R) 09 program.  It is based on
 the Gaussian(R) 03 system (copyright 2003, Gaussian, Inc.),
 the Gaussian(R) 98 system (copyright 1998, Gaussian, Inc.),
 the Gaussian(R) 94 system (copyright 1995, Gaussian, Inc.),
 the Gaussian 92(TM) system (copyright 1992, Gaussian, Inc.),
 the Gaussian 90(TM) system (copyright 1990, Gaussian, Inc.),
 the Gaussian 88(TM) system (copyright 1988, Gaussian, Inc.),
 the Gaussian 86(TM) system (copyright 1986, Carnegie Mellon
 University), and the Gaussian 82(TM) system (copyright 1983,
 Carnegie Mellon University). Gaussian is a federally registered
 trademark of Gaussian, Inc.
  
 This software contains proprietary and confidential information,
 including trade secrets, belonging to Gaussian, Inc.
  
 This software is provided under written license and may be
 used, copied, transmitted, or stored only in accord with that
 written license.
  
 The following legend is applicable only to US Government
 contracts under FAR:
  
                    RESTRICTED RIGHTS LEGEND
  
 Use, reproduction and disclosure by the US Government is
 subject to restrictions as set forth in subparagraphs (a)
 and (c) of the Commercial Computer Software - Restricted
 Rights clause in FAR 52.227-19.
  
 Gaussian, Inc.
 340 Quinnipiac St., Bldg. 40, Wallingford CT 06492
  
  
 ---------------------------------------------------------------
 Warning -- This program may not be used in any manner that
 competes with the business of Gaussian, Inc. or will provide
 assistance to any competitor of Gaussian, Inc.  The licensee
 of this program is prohibited from giving any competitor of
 Gaussian, Inc. access to this program.  By using this program,
 the user acknowledges that Gaussian, Inc. is engaged in the
 business of creating and licensing software in the field of
 computational chemistry and represents and warrants to the
 licensee that it is not a competitor of Gaussian, Inc. and that
 it will not use this program in any manner prohibited above.
 ---------------------------------------------------------------
  

 Cite this work as:
 Gaussian 09, Revision D.01,
 M. J. Frisch, G. W. Trucks, H. B. Schlegel, G. E. Scuseria, 
 M. A. Robb, J. R. Cheeseman, G. Scalmani, V. Barone, B. Mennucci, 
 G. A. Petersson, H. Nakatsuji, M. Caricato, X. Li, H. P. Hratchian, 
 A. F. Izmaylov, J. Bloino, G. Zheng, J. L. Sonnenberg, M. Hada, 
 M. Ehara, K. Toyota, R. Fukuda, J. Hasegawa, M. Ishida, T. Nakajima, 
 Y. Honda, O. Kitao, H. Nakai, T. Vreven, J. A. Montgomery, Jr., 
 J. E. Peralta, F. Ogliaro, M. Bearpark, J. J. Heyd, E. Brothers, 
 K. N. Kudin, V. N. Staroverov, T. Keith, R. Kobayashi, J. Normand, 
 K. Raghavachari, A. Rendell, J. C. Burant, S. S. Iyengar, J. Tomasi, 
 M. Cossi, N. Rega, J. M. Millam, M. Klene, J. E. Knox, J. B. Cross, 
 V. Bakken, C. Adamo, J. Jaramillo, R. Gomperts, R. E. Stratmann, 
 O. Yazyev, A. J. Austin, R. Cammi, C. Pomelli, J. W. Ochterski, 
 R. L. Martin, K. Morokuma, V. G. Zakrzewski, G. A. Voth, 
 P. Salvador, J. J. Dannenberg, S. Dapprich, A. D. Daniels, 
 O. Farkas, J. B. Foresman, J. V. Ortiz, J. Cioslowski, 
 and D. J. Fox, Gaussian, Inc., Wallingford CT, 2013.
 
 ******************************************
 Gaussian 09:  ES64L-G09RevD.01 24-Apr-2013
                26-Aug-2020 
 ******************************************
 %chk=/home/boittier/MDCM/nms_sampling/cyanomethane_geom.xyz.dir/cyanomethane_328
 9.chk
 %nproc=8
 Will use up to    8 processors via shared memory.
 %mem=16000MB
 --------------------
 #p B2PLYPD3/Def2QZVP
 --------------------
 1/38=1/1;
 2/12=2,17=6,18=5,40=1/2;
 3/5=45,7=101,11=9,16=1,25=1,30=1,74=-60/1,2,3;
 4//1;
 5/5=2,38=5/2;
 8/10=1/1;
 9/16=-3/6;
 6/7=2,8=2,9=2,10=2/1;
 99/5=1,9=1/99;
 Leave Link    1 at Wed Aug 26 22:35:29 2020, MaxMem=  2097152000 cpu:         0.2
 (Enter /opt/cluster/programs/g09/g09_d.01/g09/l101.exe)
 ------------
 cyanomethane
 ------------
 Symbolic Z-matrix:
 Charge =  0 Multiplicity = 1
 C                    -6.5905   -1.10861   1.15026 
 C                    -5.21213  -0.79445   0.99221 
 N                    -4.10046  -0.537     0.66076 
 H                    -6.73623  -1.22933   2.14648 
 H                    -6.76147  -2.10304   0.60873 
 H                    -7.22786  -0.26492   0.71771 
 
 NAtoms=      6 NQM=        6 NQMF=       0 NMMI=      0 NMMIF=      0
                NMic=       0 NMicF=      0.
                    Isotopes and Nuclear Properties:
 (Nuclear quadrupole moments (NQMom) in fm**2, nuclear magnetic moments (NMagM)
  in nuclear magnetons)

  Atom         1           2           3           4           5           6
 IAtWgt=          12          12          14           1           1           1
 AtmWgt=  12.0000000  12.0000000  14.0030740   1.0078250   1.0078250   1.0078250
 NucSpn=           0           0           2           1           1           1
 AtZEff=   0.0000000   0.0000000   0.0000000   0.0000000   0.0000000   0.0000000
 NQMom=    0.0000000   0.0000000   2.0440000   0.0000000   0.0000000   0.0000000
 NMagM=    0.0000000   0.0000000   0.4037610   2.7928460   2.7928460   2.7928460
 AtZNuc=   6.0000000   6.0000000   7.0000000   1.0000000   1.0000000   1.0000000
 Leave Link  101 at Wed Aug 26 22:35:29 2020, MaxMem=  2097152000 cpu:         0.5
 (Enter /opt/cluster/programs/g09/g09_d.01/g09/l202.exe)
                          Input orientation:                          
 ---------------------------------------------------------------------
 Center     Atomic      Atomic             Coordinates (Angstroms)
 Number     Number       Type             X           Y           Z
 ---------------------------------------------------------------------
      1          6           0       -6.590504   -1.108609    1.150261
      2          6           0       -5.212129   -0.794454    0.992208
      3          7           0       -4.100458   -0.537002    0.660756
      4          1           0       -6.736233   -1.229331    2.146475
      5          1           0       -6.761465   -2.103042    0.608730
      6          1           0       -7.227856   -0.264923    0.717712
 ---------------------------------------------------------------------
                    Distance matrix (angstroms):
                    1          2          3          4          5
     1  C    0.000000
     2  C    1.422530   0.000000
     3  N    2.601284   1.188257   0.000000
     4  H    1.014028   1.960700   3.103867   0.000000
     5  H    1.145155   2.063953   3.088065   1.768804   0.000000
     6  H    1.142419   2.102120   3.139728   1.792523   1.899494
                    6
     6  H    0.000000
 Stoichiometry    C2H3N
 Framework group  C1[X(C2H3N)]
 Deg. of freedom    12
 Full point group                 C1      NOp   1
 Largest Abelian subgroup         C1      NOp   1
 Largest concise Abelian subgroup C1      NOp   1
                         Standard orientation:                         
 ---------------------------------------------------------------------
 Center     Atomic      Atomic             Coordinates (Angstroms)
 Number     Number       Type             X           Y           Z
 ---------------------------------------------------------------------
      1          6           0       -1.170248    0.003795   -0.007362
      2          6           0        0.249283   -0.001586    0.084808
      3          7           0        1.430814    0.003148   -0.041351
      4          1           0       -1.511399   -0.105290    0.941305
      5          1           0       -1.458929   -0.911373   -0.632272
      6          1           0       -1.519575    0.981375   -0.484259
 ---------------------------------------------------------------------
 Rotational constants (GHZ):    146.0487566      9.3973004      9.3662760
 Leave Link  202 at Wed Aug 26 22:35:29 2020, MaxMem=  2097152000 cpu:         0.0
 (Enter /opt/cluster/programs/g09/g09_d.01/g09/l301.exe)
 Standard basis: def2QZVP (5D, 7F)
 Ernie: Thresh=  0.10000D-02 Tol=  0.10000D-05 Strict=F.
 There are   321 symmetry adapted cartesian basis functions of A   symmetry.
 There are   261 symmetry adapted basis functions of A   symmetry.
   261 basis functions,   390 primitive gaussians,   321 cartesian basis functions
    11 alpha electrons       11 beta electrons
       nuclear repulsion energy        58.4369940213 Hartrees.
 IExCor=  419 DFT=T Ex+Corr=B2PLYPD3 ExCW=0 ScaHFX=  0.530000
 ScaDFX=  0.470000  0.470000  0.730000  0.730000 ScalE2=  0.270000  0.270000
 IRadAn=      0 IRanWt=     -1 IRanGd=            0 ICorTp=0 IEmpDi=141
 NAtoms=    6 NActive=    6 NUniq=    6 SFac= 1.00D+00 NAtFMM=   60 NAOKFM=F Big=F
 Integral buffers will be    131072 words long.
 Regular integral format.
 Two-electron integral symmetry is turned on.
 R6Disp:  Grimme-D3(BJ) Dispersion energy=       -0.0021152486 Hartrees.
 Nuclear repulsion after empirical dispersion term =       58.4348787728 Hartrees.
 Leave Link  301 at Wed Aug 26 22:35:30 2020, MaxMem=  2097152000 cpu:         0.4
 (Enter /opt/cluster/programs/g09/g09_d.01/g09/l302.exe)
 NPDir=0 NMtPBC=     1 NCelOv=     1 NCel=       1 NClECP=     1 NCelD=      1
         NCelK=      1 NCelE2=     1 NClLst=     1 CellRange=     0.0.
 One-electron integrals computed using PRISM.
   1 Symmetry operations used in ECPInt.
 ECPInt:  NShTT=    3321 NPrTT=    8136 LenC2=    3297 LenP2D=    7133.
 LDataN:  DoStor=T MaxTD1= 8 Len=  415
 NBasis=   261 RedAO= T EigKep=  7.84D-05  NBF=   261
 NBsUse=   261 1.00D-06 EigRej= -1.00D+00 NBFU=   261
 Precomputing XC quadrature grid using
 IXCGrd= 4 IRadAn=           0 IRanWt=          -1 IRanGd=           0 AccXCQ= 0.00D+00.
 Generated NRdTot=       0 NPtTot=           0 NUsed=           0 NTot=          32
 NSgBfM=   321   321   321   321   321 MxSgAt=     6 MxSgA2=     6.
 Leave Link  302 at Wed Aug 26 22:35:30 2020, MaxMem=  2097152000 cpu:         2.4
 (Enter /opt/cluster/programs/g09/g09_d.01/g09/l303.exe)
 DipDrv:  MaxL=1.
 Leave Link  303 at Wed Aug 26 22:35:30 2020, MaxMem=  2097152000 cpu:         0.2
 (Enter /opt/cluster/programs/g09/g09_d.01/g09/l401.exe)
 ExpMin= 7.60D-02 ExpMax= 9.07D+04 ExpMxC= 8.76D+02 IAcc=2 IRadAn=         4 AccDes= 0.00D+00
 Harris functional with IExCor=  419 and IRadAn=       4 diagonalized for initial guess.
 HarFok:  IExCor=  419 AccDes= 0.00D+00 IRadAn=         4 IDoV= 1 UseB2=F ITyADJ=14
 ICtDFT=  3500011 ScaDFX=  1.000000  1.000000  1.000000  1.000000
 FoFCou: FMM=F IPFlag=           0 FMFlag=      100000 FMFlg1=           0
         NFxFlg=           0 DoJE=T BraDBF=F KetDBF=T FulRan=T
         wScrn=  0.000000 ICntrl=     500 IOpCl=  0 I1Cent=   200000004 NGrid=           0
         NMat0=    1 NMatS0=      1 NMatT0=    0 NMatD0=    1 NMtDS0=    0 NMtDT0=    0
 Petite list used in FoFCou.
 Harris En= -132.834229154815    
 JPrj=0 DoOrth=F DoCkMO=F.
 Leave Link  401 at Wed Aug 26 22:35:31 2020, MaxMem=  2097152000 cpu:         4.4
 (Enter /opt/cluster/programs/g09/g09_d.01/g09/l502.exe)
 Closed shell SCF:
 Using DIIS extrapolation, IDIIS=  1040.
 Integral symmetry usage will be decided dynamically.
 Keep R1 ints in memory in canonical form, NReq=601554820.
 IVT=      332521 IEndB=      332521 NGot=  2097152000 MDV=  1512290144
 LenX=  1512290144 LenY=  1512186662
 Requested convergence on RMS density matrix=1.00D-08 within 128 cycles.
 Requested convergence on MAX density matrix=1.00D-06.
 Requested convergence on             energy=1.00D-06.
 No special actions if energy rises.
 FoFCou: FMM=F IPFlag=           0 FMFlag=           0 FMFlg1=           0
         NFxFlg=           0 DoJE=F BraDBF=F KetDBF=F FulRan=T
         wScrn=  0.000000 ICntrl=     600 IOpCl=  0 I1Cent=           0 NGrid=           0
         NMat0=    1 NMatS0=  34191 NMatT0=    0 NMatD0=    1 NMtDS0=    0 NMtDT0=    0
 Symmetry not used in FoFCou.
 Integral accuracy reduced to 1.0D-05 until final iterations.

 Cycle   1  Pass 0  IDiag  1:
 E= -132.410135020555    
 DIIS: error= 2.76D-02 at cycle   1 NSaved=   1.
 NSaved= 1 IEnMin= 1 EnMin= -132.410135020555     IErMin= 1 ErrMin= 2.76D-02
 ErrMax= 2.76D-02  0.00D+00 EMaxC= 1.00D-01 BMatC= 1.82D-01 BMatP= 1.82D-01
 IDIUse=3 WtCom= 7.24D-01 WtEn= 2.76D-01
 Coeff-Com:  0.100D+01
 Coeff-En:   0.100D+01
 Coeff:      0.100D+01
 Gap=     0.432 Goal=   None    Shift=    0.000
 GapD=    0.432 DampG=2.000 DampE=0.500 DampFc=1.0000 IDamp=-1.
 RMSDP=1.23D-03 MaxDP=5.90D-02              OVMax= 1.60D-01

 Cycle   2  Pass 0  IDiag  1:
 E= -132.442057947560     Delta-E=       -0.031922927005 Rises=F Damp=F
 DIIS: error= 2.86D-02 at cycle   2 NSaved=   2.
 NSaved= 2 IEnMin= 2 EnMin= -132.442057947560     IErMin= 1 ErrMin= 2.76D-02
 ErrMax= 2.86D-02  0.00D+00 EMaxC= 1.00D-01 BMatC= 8.98D-02 BMatP= 1.82D-01
 IDIUse=3 WtCom= 7.14D-01 WtEn= 2.86D-01
 Coeff-Com:  0.395D+00 0.605D+00
 Coeff-En:   0.396D+00 0.604D+00
 Coeff:      0.395D+00 0.605D+00
 Gap=     0.424 Goal=   None    Shift=    0.000
 RMSDP=8.23D-04 MaxDP=3.24D-02 DE=-3.19D-02 OVMax= 1.24D-01

 Cycle   3  Pass 0  IDiag  1:
 E= -132.501336257483     Delta-E=       -0.059278309924 Rises=F Damp=F
 DIIS: error= 1.60D-02 at cycle   3 NSaved=   3.
 NSaved= 3 IEnMin= 3 EnMin= -132.501336257483     IErMin= 3 ErrMin= 1.60D-02
 ErrMax= 1.60D-02  0.00D+00 EMaxC= 1.00D-01 BMatC= 2.17D-02 BMatP= 8.98D-02
 IDIUse=3 WtCom= 8.40D-01 WtEn= 1.60D-01
 Coeff-Com:  0.102D+00 0.338D+00 0.560D+00
 Coeff-En:   0.000D+00 0.158D+00 0.842D+00
 Coeff:      0.854D-01 0.310D+00 0.605D+00
 Gap=     0.409 Goal=   None    Shift=    0.000
 RMSDP=2.86D-04 MaxDP=1.04D-02 DE=-5.93D-02 OVMax= 6.42D-02

 Cycle   4  Pass 0  IDiag  1:
 E= -132.516065400050     Delta-E=       -0.014729142566 Rises=F Damp=F
 DIIS: error= 6.21D-03 at cycle   4 NSaved=   4.
 NSaved= 4 IEnMin= 4 EnMin= -132.516065400050     IErMin= 4 ErrMin= 6.21D-03
 ErrMax= 6.21D-03  0.00D+00 EMaxC= 1.00D-01 BMatC= 3.70D-03 BMatP= 2.17D-02
 IDIUse=3 WtCom= 9.38D-01 WtEn= 6.21D-02
 Coeff-Com: -0.136D-01 0.588D-01 0.337D+00 0.617D+00
 Coeff-En:   0.000D+00 0.000D+00 0.169D+00 0.831D+00
 Coeff:     -0.127D-01 0.552D-01 0.327D+00 0.631D+00
 Gap=     0.411 Goal=   None    Shift=    0.000
 RMSDP=1.00D-04 MaxDP=3.19D-03 DE=-1.47D-02 OVMax= 1.79D-02

 Cycle   5  Pass 0  IDiag  1:
 E= -132.519292098485     Delta-E=       -0.003226698435 Rises=F Damp=F
 DIIS: error= 3.65D-04 at cycle   5 NSaved=   5.
 NSaved= 5 IEnMin= 5 EnMin= -132.519292098485     IErMin= 5 ErrMin= 3.65D-04
 ErrMax= 3.65D-04  0.00D+00 EMaxC= 1.00D-01 BMatC= 1.63D-05 BMatP= 3.70D-03
 IDIUse=3 WtCom= 9.96D-01 WtEn= 3.65D-03
 Coeff-Com: -0.335D-02 0.523D-02 0.431D-01 0.129D+00 0.826D+00
 Coeff-En:   0.000D+00 0.000D+00 0.000D+00 0.000D+00 0.100D+01
 Coeff:     -0.334D-02 0.522D-02 0.430D-01 0.129D+00 0.826D+00
 Gap=     0.410 Goal=   None    Shift=    0.000
 RMSDP=8.58D-06 MaxDP=3.14D-04 DE=-3.23D-03 OVMax= 1.41D-03

 Initial convergence to 1.0D-05 achieved.  Increase integral accuracy.
 Cycle   6  Pass 1  IDiag  1:
 E= -132.519300336208     Delta-E=       -0.000008237723 Rises=F Damp=F
 DIIS: error= 8.93D-05 at cycle   1 NSaved=   1.
 NSaved= 1 IEnMin= 1 EnMin= -132.519300336208     IErMin= 1 ErrMin= 8.93D-05
 ErrMax= 8.93D-05  0.00D+00 EMaxC= 1.00D-01 BMatC= 7.57D-07 BMatP= 7.57D-07
 IDIUse=1 WtCom= 1.00D+00 WtEn= 0.00D+00
 Coeff-Com:  0.100D+01
 Coeff:      0.100D+01
 Gap=     0.411 Goal=   None    Shift=    0.000
 RMSDP=8.58D-06 MaxDP=3.14D-04 DE=-8.24D-06 OVMax= 4.34D-04

 Cycle   7  Pass 1  IDiag  1:
 E= -132.519300773980     Delta-E=       -0.000000437772 Rises=F Damp=F
 DIIS: error= 5.57D-05 at cycle   2 NSaved=   2.
 NSaved= 2 IEnMin= 2 EnMin= -132.519300773980     IErMin= 2 ErrMin= 5.57D-05
 ErrMax= 5.57D-05  0.00D+00 EMaxC= 1.00D-01 BMatC= 3.58D-07 BMatP= 7.57D-07
 IDIUse=1 WtCom= 1.00D+00 WtEn= 0.00D+00
 Coeff-Com:  0.400D+00 0.600D+00
 Coeff:      0.400D+00 0.600D+00
 Gap=     0.411 Goal=   None    Shift=    0.000
 RMSDP=1.14D-06 MaxDP=4.01D-05 DE=-4.38D-07 OVMax= 2.05D-04

 Cycle   8  Pass 1  IDiag  1:
 E= -132.519301080306     Delta-E=       -0.000000306326 Rises=F Damp=F
 DIIS: error= 1.66D-05 at cycle   3 NSaved=   3.
 NSaved= 3 IEnMin= 3 EnMin= -132.519301080306     IErMin= 3 ErrMin= 1.66D-05
 ErrMax= 1.66D-05  0.00D+00 EMaxC= 1.00D-01 BMatC= 3.45D-08 BMatP= 3.58D-07
 IDIUse=1 WtCom= 1.00D+00 WtEn= 0.00D+00
 Coeff-Com:  0.147D+00 0.294D+00 0.560D+00
 Coeff:      0.147D+00 0.294D+00 0.560D+00
 Gap=     0.411 Goal=   None    Shift=    0.000
 RMSDP=5.64D-07 MaxDP=2.42D-05 DE=-3.06D-07 OVMax= 7.35D-05

 Cycle   9  Pass 1  IDiag  1:
 E= -132.519301104333     Delta-E=       -0.000000024027 Rises=F Damp=F
 DIIS: error= 1.08D-05 at cycle   4 NSaved=   4.
 NSaved= 4 IEnMin= 4 EnMin= -132.519301104333     IErMin= 4 ErrMin= 1.08D-05
 ErrMax= 1.08D-05  0.00D+00 EMaxC= 1.00D-01 BMatC= 6.74D-09 BMatP= 3.45D-08
 IDIUse=1 WtCom= 1.00D+00 WtEn= 0.00D+00
 Coeff-Com: -0.631D-01-0.420D-01 0.318D+00 0.787D+00
 Coeff:     -0.631D-01-0.420D-01 0.318D+00 0.787D+00
 Gap=     0.411 Goal=   None    Shift=    0.000
 RMSDP=3.49D-07 MaxDP=1.51D-05 DE=-2.40D-08 OVMax= 3.95D-05

 Cycle  10  Pass 1  IDiag  1:
 E= -132.519301111315     Delta-E=       -0.000000006982 Rises=F Damp=F
 DIIS: error= 9.87D-07 at cycle   5 NSaved=   5.
 NSaved= 5 IEnMin= 5 EnMin= -132.519301111315     IErMin= 5 ErrMin= 9.87D-07
 ErrMax= 9.87D-07  0.00D+00 EMaxC= 1.00D-01 BMatC= 1.32D-10 BMatP= 6.74D-09
 IDIUse=1 WtCom= 1.00D+00 WtEn= 0.00D+00
 Coeff-Com: -0.235D-01-0.233D-01 0.597D-01 0.226D+00 0.761D+00
 Coeff:     -0.235D-01-0.233D-01 0.597D-01 0.226D+00 0.761D+00
 Gap=     0.411 Goal=   None    Shift=    0.000
 RMSDP=4.52D-08 MaxDP=1.85D-06 DE=-6.98D-09 OVMax= 4.25D-06

 Cycle  11  Pass 1  IDiag  1:
 E= -132.519301111452     Delta-E=       -0.000000000137 Rises=F Damp=F
 DIIS: error= 2.42D-07 at cycle   6 NSaved=   6.
 NSaved= 6 IEnMin= 6 EnMin= -132.519301111452     IErMin= 6 ErrMin= 2.42D-07
 ErrMax= 2.42D-07  0.00D+00 EMaxC= 1.00D-01 BMatC= 8.96D-12 BMatP= 1.32D-10
 IDIUse=1 WtCom= 1.00D+00 WtEn= 0.00D+00
 Coeff-Com:  0.403D-02 0.181D-02-0.310D-01-0.471D-01 0.106D+00 0.967D+00
 Coeff:      0.403D-02 0.181D-02-0.310D-01-0.471D-01 0.106D+00 0.967D+00
 Gap=     0.411 Goal=   None    Shift=    0.000
 RMSDP=1.18D-08 MaxDP=2.59D-07 DE=-1.37D-10 OVMax= 1.97D-06

 Cycle  12  Pass 1  IDiag  1:
 E= -132.519301111472     Delta-E=       -0.000000000020 Rises=F Damp=F
 DIIS: error= 7.78D-08 at cycle   7 NSaved=   7.
 NSaved= 7 IEnMin= 7 EnMin= -132.519301111472     IErMin= 7 ErrMin= 7.78D-08
 ErrMax= 7.78D-08  0.00D+00 EMaxC= 1.00D-01 BMatC= 4.80D-13 BMatP= 8.96D-12
 IDIUse=1 WtCom= 1.00D+00 WtEn= 0.00D+00
 Coeff-Com:  0.885D-03 0.115D-02-0.132D-04-0.604D-02-0.545D-01-0.142D+00
 Coeff-Com:  0.120D+01
 Coeff:      0.885D-03 0.115D-02-0.132D-04-0.604D-02-0.545D-01-0.142D+00
 Coeff:      0.120D+01
 Gap=     0.411 Goal=   None    Shift=    0.000
 RMSDP=4.36D-09 MaxDP=1.29D-07 DE=-1.97D-11 OVMax= 1.00D-06

 SCF Done:  E(RB2PLYPD3) =  -132.519301111     A.U. after   12 cycles
            NFock= 12  Conv=0.44D-08     -V/T= 2.0043
 KE= 1.319465702258D+02 PE=-4.253614988949D+02 EE= 1.024607487849D+02
 Leave Link  502 at Wed Aug 26 22:35:58 2020, MaxMem=  2097152000 cpu:       134.5
 (Enter /opt/cluster/programs/g09/g09_d.01/g09/l801.exe)
 DoSCS=T DFT=T ScalE2(SS,OS)=  0.270000  0.270000
 ExpMin= 7.60D-02 ExpMax= 9.07D+04 ExpMxC= 8.76D+02 IAcc=3 IRadAn=         5 AccDes= 0.00D+00
 HarFok:  IExCor=  205 AccDes= 0.00D+00 IRadAn=         5 IDoV=-2 UseB2=F ITyADJ=14
 ICtDFT= 12500011 ScaDFX=  1.000000  1.000000  1.000000  1.000000
 Largest valence mixing into a core orbital is  1.19D-04
 Largest core mixing into a valence orbital is  2.07D-05
 Range of M.O.s used for correlation:     4   261
 NBasis=   261 NAE=    11 NBE=    11 NFC=     3 NFV=     0
 NROrb=    258 NOA=     8 NOB=     8 NVA=   250 NVB=   250

 **** Warning!!: The largest alpha MO coefficient is  0.23436819D+02

 Leave Link  801 at Wed Aug 26 22:35:58 2020, MaxMem=  2097152000 cpu:         0.7
 (Enter /opt/cluster/programs/g09/g09_d.01/g09/l906.exe)
 DoSCS=T DFT=T ScalE2(SS,OS)=  0.270000  0.270000
 FulOut=F Deriv=F AODrv=F NAtomX=     6
   MMem=        2666  MDisk=           8 MDiskD=           8
  W3Min=      642000 MinDsk=     1426009 NBas6D=         321
 NBas2D=       52689    NTT=       51681    LW2=     4508827
    MDV=  2096809051 MDiskM=       14501 NBas2p=       52190
 Fully direct method using O(OVN) memory.
 IMap=   1   2   3   4   5   6   7   8
 JobTyp=1 Pass  1:  I=   1 to   8 NPSUse=  8 ParTrn=T ParDer=T DoDerP=F.
 Spin components of T(2) and E(2):
     alpha-alpha T2 =       0.3790933020D-01 E2=     -0.2196440682D-01
     alpha-beta  T2 =       0.2196874886D+00 E2=     -0.1398775853D+00
     beta-beta   T2 =       0.3790933020D-01 E2=     -0.2196440682D-01
 The integrals were generated   1 times.
 E2(B2PLYPD3) =    -0.1838063990D+00 E(B2PLYPD3) =    -0.13270310751046D+03
 Leave Link  906 at Wed Aug 26 22:36:13 2020, MaxMem=  2097152000 cpu:       118.2
 (Enter /opt/cluster/programs/g09/g09_d.01/g09/l601.exe)
 Copying SCF densities to generalized density rwf, IOpCl= 0 IROHF=0.

 **********************************************************************

            Population analysis using the SCF density.

 **********************************************************************

 Orbital symmetries:
       Occupied  (A) (A) (A) (A) (A) (A) (A) (A) (A) (A) (A)
       Virtual   (A) (A) (A) (A) (A) (A) (A) (A) (A) (A) (A) (A)
                 (A) (A) (A) (A) (A) (A) (A) (A) (A) (A) (A) (A)
                 (A) (A) (A) (A) (A) (A) (A) (A) (A) (A) (A) (A)
                 (A) (A) (A) (A) (A) (A) (A) (A) (A) (A) (A) (A)
                 (A) (A) (A) (A) (A) (A) (A) (A) (A) (A) (A) (A)
                 (A) (A) (A) (A) (A) (A) (A) (A) (A) (A) (A) (A)
                 (A) (A) (A) (A) (A) (A) (A) (A) (A) (A) (A) (A)
                 (A) (A) (A) (A) (A) (A) (A) (A) (A) (A) (A) (A)
                 (A) (A) (A) (A) (A) (A) (A) (A) (A) (A) (A) (A)
                 (A) (A) (A) (A) (A) (A) (A) (A) (A) (A) (A) (A)
                 (A) (A) (A) (A) (A) (A) (A) (A) (A) (A) (A) (A)
                 (A) (A) (A) (A) (A) (A) (A) (A) (A) (A) (A) (A)
                 (A) (A) (A) (A) (A) (A) (A) (A) (A) (A) (A) (A)
                 (A) (A) (A) (A) (A) (A) (A) (A) (A) (A) (A) (A)
                 (A) (A) (A) (A) (A) (A) (A) (A) (A) (A) (A) (A)
                 (A) (A) (A) (A) (A) (A) (A) (A) (A) (A) (A) (A)
                 (A) (A) (A) (A) (A) (A) (A) (A) (A) (A) (A) (A)
                 (A) (A) (A) (A) (A) (A) (A) (A) (A) (A) (A) (A)
                 (A) (A) (A) (A) (A) (A) (A) (A) (A) (A) (A) (A)
                 (A) (A) (A) (A) (A) (A) (A) (A) (A) (A) (A) (A)
                 (A) (A) (A) (A) (A) (A) (A) (A) (A) (A)
 The electronic state is 1-A.
 Alpha  occ. eigenvalues --  -14.84932 -10.67191 -10.66873  -1.02864  -0.90044
 Alpha  occ. eigenvalues --   -0.59462  -0.55290  -0.53547  -0.44785  -0.38065
 Alpha  occ. eigenvalues --   -0.37857
 Alpha virt. eigenvalues --    0.03210   0.06439   0.08129   0.09987   0.10947
 Alpha virt. eigenvalues --    0.11434   0.14981   0.15566   0.16385   0.20160
 Alpha virt. eigenvalues --    0.20324   0.26149   0.32704   0.33388   0.34179
 Alpha virt. eigenvalues --    0.38399   0.39424   0.39723   0.41221   0.46552
 Alpha virt. eigenvalues --    0.49258   0.54082   0.57980   0.61180   0.61807
 Alpha virt. eigenvalues --    0.65791   0.66371   0.68665   0.70329   0.79190
 Alpha virt. eigenvalues --    0.79861   0.81968   0.82742   0.84074   0.86565
 Alpha virt. eigenvalues --    0.90371   0.93149   0.93958   0.98920   0.99478
 Alpha virt. eigenvalues --    1.05225   1.07110   1.07597   1.10334   1.11052
 Alpha virt. eigenvalues --    1.16414   1.22567   1.22756   1.23773   1.34045
 Alpha virt. eigenvalues --    1.34718   1.41497   1.42256   1.46589   1.56965
 Alpha virt. eigenvalues --    1.62011   1.67752   1.70668   1.74724   1.77591
 Alpha virt. eigenvalues --    1.78446   1.80977   1.87436   1.92097   1.93933
 Alpha virt. eigenvalues --    1.94953   1.98579   2.01033   2.02222   2.02652
 Alpha virt. eigenvalues --    2.06400   2.09210   2.14145   2.16094   2.21869
 Alpha virt. eigenvalues --    2.23885   2.24685   2.27674   2.34103   2.36685
 Alpha virt. eigenvalues --    2.44235   2.49514   2.55529   2.56924   2.57952
 Alpha virt. eigenvalues --    2.60715   2.66276   2.67508   2.69451   2.70843
 Alpha virt. eigenvalues --    2.75660   2.78579   2.83090   2.84169   2.90762
 Alpha virt. eigenvalues --    2.91224   2.94160   2.97681   2.99223   3.01295
 Alpha virt. eigenvalues --    3.08612   3.12719   3.21288   3.24450   3.28762
 Alpha virt. eigenvalues --    3.30451   3.33112   3.43181   3.47239   3.50036
 Alpha virt. eigenvalues --    3.52725   3.60322   3.67288   3.71510   3.73454
 Alpha virt. eigenvalues --    3.84752   3.89719   3.91968   3.95644   3.96350
 Alpha virt. eigenvalues --    4.03868   4.04887   4.07685   4.22844   4.23387
 Alpha virt. eigenvalues --    4.54467   4.91749   4.91997   4.99719   5.02870
 Alpha virt. eigenvalues --    5.05579   5.11062   5.17525   5.30888   5.34376
 Alpha virt. eigenvalues --    5.40204   5.44215   5.47065   5.53932   5.63327
 Alpha virt. eigenvalues --    5.69841   5.82262   5.82822   5.86711   5.88449
 Alpha virt. eigenvalues --    5.91350   5.94967   5.96592   5.99292   6.00826
 Alpha virt. eigenvalues --    6.02760   6.04860   6.07075   6.07356   6.11878
 Alpha virt. eigenvalues --    6.16991   6.18136   6.20441   6.24254   6.32514
 Alpha virt. eigenvalues --    6.38640   6.39554   6.52122   6.54260   6.56758
 Alpha virt. eigenvalues --    6.62128   6.73179   6.86309   6.89064   6.96222
 Alpha virt. eigenvalues --    6.98128   7.02174   7.02204   7.07103   7.10555
 Alpha virt. eigenvalues --    7.16985   7.22875   7.29613   7.36417   7.38723
 Alpha virt. eigenvalues --    7.44198   7.47652   7.53058   7.58463   7.60325
 Alpha virt. eigenvalues --    7.67441   7.69641   7.71956   7.78942   7.83666
 Alpha virt. eigenvalues --    7.85005   7.86564   7.96390   7.98889   8.18262
 Alpha virt. eigenvalues --    8.23263   8.32386   8.39416   8.40275   8.41388
 Alpha virt. eigenvalues --    8.44475   8.47283   8.49116   8.57525   8.60143
 Alpha virt. eigenvalues --    8.63664   8.66116   8.66489   8.66673   8.68920
 Alpha virt. eigenvalues --    8.74292   8.76848   8.90180   8.94831   8.97408
 Alpha virt. eigenvalues --    9.04402   9.08197   9.10207   9.17457   9.20399
 Alpha virt. eigenvalues --    9.21942   9.35111   9.55356   9.62643   9.74521
 Alpha virt. eigenvalues --    9.76992   9.79968   9.85520   9.89723   9.98556
 Alpha virt. eigenvalues --   10.07537  10.07621  10.18693  10.35343  10.46854
 Alpha virt. eigenvalues --   10.71812  10.80600  11.32154  11.44337  11.75004
 Alpha virt. eigenvalues --   11.79672  12.04715  13.06344  13.28289  29.07451
 Alpha virt. eigenvalues --   29.64129  38.20212 148.72231 149.26674 198.09980
          Condensed to atoms (all electrons):
               1          2          3          4          5          6
     1  C    4.646006   0.277190  -0.061548   0.407715   0.416476   0.417729
     2  C    0.277190   4.902150   0.958276  -0.046926  -0.051093  -0.046632
     3  N   -0.061548   0.958276   6.330963   0.000540  -0.002674  -0.002240
     4  H    0.407715  -0.046926   0.000540   0.591070  -0.030196  -0.029553
     5  H    0.416476  -0.051093  -0.002674  -0.030196   0.585365  -0.023293
     6  H    0.417729  -0.046632  -0.002240  -0.029553  -0.023293   0.576903
 Mulliken charges:
               1
     1  C   -0.103568
     2  C    0.007036
     3  N   -0.223317
     4  H    0.107350
     5  H    0.105414
     6  H    0.107085
 Sum of Mulliken charges =   0.00000
 Mulliken charges with hydrogens summed into heavy atoms:
               1
     1  C    0.216281
     2  C    0.007036
     3  N   -0.223317
 Electronic spatial extent (au):  <R**2>=            160.1912
 Charge=              0.0000 electrons
 Dipole moment (field-independent basis, Debye):
    X=             -4.1122    Y=             -0.0150    Z=              0.0679  Tot=              4.1128
 Quadrupole moment (field-independent basis, Debye-Ang):
   XX=            -21.3887   YY=            -17.6165   ZZ=            -17.8414
   XY=             -0.0352   XZ=              0.1053   YZ=             -0.0242
 Traceless Quadrupole moment (field-independent basis, Debye-Ang):
   XX=             -2.4399   YY=              1.3324   ZZ=              1.1075
   XY=             -0.0352   XZ=              0.1053   YZ=             -0.0242
 Octapole moment (field-independent basis, Debye-Ang**2):
  XXX=            -11.7511  YYY=              0.1853  ZZZ=              0.6837  XYY=             -2.6455
  XXY=              0.1305  XXZ=              0.0469  XZZ=             -2.2712  YZZ=             -0.2386
  YYZ=             -0.9748  XYZ=              0.0680
 Hexadecapole moment (field-independent basis, Debye-Ang**3):
 XXXX=           -181.2452 YYYY=            -25.6525 ZZZZ=            -25.0081 XXXY=             -0.3192
 XXXZ=             -0.0593 YYYX=             -0.3693 YYYZ=             -0.0358 ZZZX=             -1.5836
 ZZZY=             -0.0224 XXYY=            -30.7364 XXZZ=            -31.0806 YYZZ=             -8.2401
 XXYZ=             -0.2058 YYXZ=              1.3594 ZZXY=              0.3511
 N-N= 5.843487877276D+01 E-N=-4.253615004714D+02  KE= 1.319465702258D+02
 Leave Link  601 at Wed Aug 26 22:36:14 2020, MaxMem=  2097152000 cpu:         0.4
 (Enter /opt/cluster/programs/g09/g09_d.01/g09/l9999.exe)
 1\1\GINC-NODE12\SP\RB2PLYPD3-FC\def2QZVP\C2H3N1\BOITTIER\26-Aug-2020\0
 \\#p B2PLYPD3/Def2QZVP\\cyanomethane\\0,1\C,0,-6.590504,-1.108609,1.15
 0261\C,0,-5.212129,-0.794454,0.992208\N,0,-4.100458,-0.537002,0.660756
 \H,0,-6.736233,-1.229331,2.146475\H,0,-6.761465,-2.103042,0.60873\H,0,
 -7.227856,-0.264923,0.717712\\Version=ES64L-G09RevD.01\State=1-A\HF=-1
 32.5193011\MP2=-132.7031075\RMSD=4.362e-09\PG=C01 [X(C2H3N1)]\\@


 A ROPE OVER THE TOP OF A FENCE HAS THE SAME LENGTH ON EACH SIDE.
 WEIGHS 1/3 POUND PER FOOT.  ON ONE END HANGS A MONKEY HOLDING A
 BANANA, AND ON THE OTHER END A WEIGHT EQUAL TO THE WEIGHT
 OF THE MONKEY.  THE BANANA WEIGHS TWO OUNCES PER INCH.
 THE ROPE IS AS LONG AS THE AGE OF THE MONKEY, 
 AND THE WEIGHT OF THE MONKEY (IN OUNCES) IS AS MUCH
 AS THE AGE OF THE MONKEY'S MOTHER.  THE COMBINED AGES OF MONKEY
 AND MOTHER ARE THIRTY YEARS.  HALF THE WEIGHT OF THE MONKEY,
  PLUS THE WEIGHT OF THE BANANA, IS ONE FOURTH AS MUCH AS THE WEIGHT
 OF THE WEIGHT AND THE ROPE.
 THE MONKEY'S MOTHER IS HALF AS OLD AS THE MONKEY WILL BE
 WHEN IT IS 3 TIMES AS OLD AS ITS MOTHER WAS WHEN
 SHE WAS HALF AS OLD AS THE MONKEY WILL BE WHEN IT IS
 AS OLD AS ITS MOTHER WILL BE WHEN SHE IS 4 TIMES AS
 OLD AS THE MONKEY WAS WHEN IT WAS TWICE AS OLD AS 
 ITS MOTHER WAS WHEN SHE WAS ONE THIRD AS OLD AS THE
 MONKEY WAS WHEN IT WAS AS OLD AS ITS MOTHER WAS WHEN 
 SHE WAS 3 TIMES AS OLD AS THE MONKEY WAS WHEN IT WAS AS OLD AS ITS
 MOTHER WAS WHEN SHE WAS 3 TIMES AS OLD AS THE MONKEY 
 WAS WHEN IT WAS ONE FOURTH WAS OLD AS IT IS NOW.

 HOW LONG IS THE BANANA?
 Job cpu time:       0 days  0 hours  4 minutes 22.7 seconds.
 File lengths (MBytes):  RWF=     28 Int=      0 D2E=      0 Chk=      5 Scr=      1
 Normal termination of Gaussian 09 at Wed Aug 26 22:36:14 2020.
