 Entering Gaussian System, Link 0=/opt/cluster/programs/g09/g09_d.01/g09//g09
 Input=/home/boittier/MDCM/nms_sampling/cyanomethane_geom.xyz.dir/energies/cyanomethane_2561_energy.com
 Output=/scratch/boittier/cyanomethane_2561_energy/cyanomethane_2561_energy.out
 Initial command:
 /opt/cluster/programs/g09/g09_d.01/g09/l1.exe "/scratch/boittier/cyanomethane_2561_energy/Gau-151309.inp" -scrdir="/scratch/boittier/cyanomethane_2561_energy/"
 Entering Link 1 = /opt/cluster/programs/g09/g09_d.01/g09/l1.exe PID=    151310.
  
 Copyright (c) 1988,1990,1992,1993,1995,1998,2003,2009,2013,
            Gaussian, Inc.  All Rights Reserved.
  
 This is part of the Gaussian(R) 09 program.  It is based on
 the Gaussian(R) 03 system (copyright 2003, Gaussian, Inc.),
 the Gaussian(R) 98 system (copyright 1998, Gaussian, Inc.),
 the Gaussian(R) 94 system (copyright 1995, Gaussian, Inc.),
 the Gaussian 92(TM) system (copyright 1992, Gaussian, Inc.),
 the Gaussian 90(TM) system (copyright 1990, Gaussian, Inc.),
 the Gaussian 88(TM) system (copyright 1988, Gaussian, Inc.),
 the Gaussian 86(TM) system (copyright 1986, Carnegie Mellon
 University), and the Gaussian 82(TM) system (copyright 1983,
 Carnegie Mellon University). Gaussian is a federally registered
 trademark of Gaussian, Inc.
  
 This software contains proprietary and confidential information,
 including trade secrets, belonging to Gaussian, Inc.
  
 This software is provided under written license and may be
 used, copied, transmitted, or stored only in accord with that
 written license.
  
 The following legend is applicable only to US Government
 contracts under FAR:
  
                    RESTRICTED RIGHTS LEGEND
  
 Use, reproduction and disclosure by the US Government is
 subject to restrictions as set forth in subparagraphs (a)
 and (c) of the Commercial Computer Software - Restricted
 Rights clause in FAR 52.227-19.
  
 Gaussian, Inc.
 340 Quinnipiac St., Bldg. 40, Wallingford CT 06492
  
  
 ---------------------------------------------------------------
 Warning -- This program may not be used in any manner that
 competes with the business of Gaussian, Inc. or will provide
 assistance to any competitor of Gaussian, Inc.  The licensee
 of this program is prohibited from giving any competitor of
 Gaussian, Inc. access to this program.  By using this program,
 the user acknowledges that Gaussian, Inc. is engaged in the
 business of creating and licensing software in the field of
 computational chemistry and represents and warrants to the
 licensee that it is not a competitor of Gaussian, Inc. and that
 it will not use this program in any manner prohibited above.
 ---------------------------------------------------------------
  

 Cite this work as:
 Gaussian 09, Revision D.01,
 M. J. Frisch, G. W. Trucks, H. B. Schlegel, G. E. Scuseria, 
 M. A. Robb, J. R. Cheeseman, G. Scalmani, V. Barone, B. Mennucci, 
 G. A. Petersson, H. Nakatsuji, M. Caricato, X. Li, H. P. Hratchian, 
 A. F. Izmaylov, J. Bloino, G. Zheng, J. L. Sonnenberg, M. Hada, 
 M. Ehara, K. Toyota, R. Fukuda, J. Hasegawa, M. Ishida, T. Nakajima, 
 Y. Honda, O. Kitao, H. Nakai, T. Vreven, J. A. Montgomery, Jr., 
 J. E. Peralta, F. Ogliaro, M. Bearpark, J. J. Heyd, E. Brothers, 
 K. N. Kudin, V. N. Staroverov, T. Keith, R. Kobayashi, J. Normand, 
 K. Raghavachari, A. Rendell, J. C. Burant, S. S. Iyengar, J. Tomasi, 
 M. Cossi, N. Rega, J. M. Millam, M. Klene, J. E. Knox, J. B. Cross, 
 V. Bakken, C. Adamo, J. Jaramillo, R. Gomperts, R. E. Stratmann, 
 O. Yazyev, A. J. Austin, R. Cammi, C. Pomelli, J. W. Ochterski, 
 R. L. Martin, K. Morokuma, V. G. Zakrzewski, G. A. Voth, 
 P. Salvador, J. J. Dannenberg, S. Dapprich, A. D. Daniels, 
 O. Farkas, J. B. Foresman, J. V. Ortiz, J. Cioslowski, 
 and D. J. Fox, Gaussian, Inc., Wallingford CT, 2013.
 
 ******************************************
 Gaussian 09:  ES64L-G09RevD.01 24-Apr-2013
                26-Aug-2020 
 ******************************************
 %chk=/home/boittier/MDCM/nms_sampling/cyanomethane_geom.xyz.dir/cyanomethane_256
 1.chk
 %nproc=8
 Will use up to    8 processors via shared memory.
 %mem=16000MB
 --------------------
 #p B2PLYPD3/Def2QZVP
 --------------------
 1/38=1/1;
 2/12=2,17=6,18=5,40=1/2;
 3/5=45,7=101,11=9,16=1,25=1,30=1,74=-60/1,2,3;
 4//1;
 5/5=2,38=5/2;
 8/10=1/1;
 9/16=-3/6;
 6/7=2,8=2,9=2,10=2/1;
 99/5=1,9=1/99;
 Leave Link    1 at Wed Aug 26 19:01:02 2020, MaxMem=  2097152000 cpu:         0.2
 (Enter /opt/cluster/programs/g09/g09_d.01/g09/l101.exe)
 ------------
 cyanomethane
 ------------
 Symbolic Z-matrix:
 Charge =  0 Multiplicity = 1
 C                    -6.62556  -1.12586   1.16753 
 C                    -5.19171  -0.72891   0.89728 
 N                    -4.08691  -0.57428   0.70328 
 H                    -6.63267  -1.289     2.22824 
 H                    -6.745    -2.02114   0.67223 
 H                    -7.35896  -0.37433   0.85186 
 
 NAtoms=      6 NQM=        6 NQMF=       0 NMMI=      0 NMMIF=      0
                NMic=       0 NMicF=      0.
                    Isotopes and Nuclear Properties:
 (Nuclear quadrupole moments (NQMom) in fm**2, nuclear magnetic moments (NMagM)
  in nuclear magnetons)

  Atom         1           2           3           4           5           6
 IAtWgt=          12          12          14           1           1           1
 AtmWgt=  12.0000000  12.0000000  14.0030740   1.0078250   1.0078250   1.0078250
 NucSpn=           0           0           2           1           1           1
 AtZEff=   0.0000000   0.0000000   0.0000000   0.0000000   0.0000000   0.0000000
 NQMom=    0.0000000   0.0000000   2.0440000   0.0000000   0.0000000   0.0000000
 NMagM=    0.0000000   0.0000000   0.4037610   2.7928460   2.7928460   2.7928460
 AtZNuc=   6.0000000   6.0000000   7.0000000   1.0000000   1.0000000   1.0000000
 Leave Link  101 at Wed Aug 26 19:01:03 2020, MaxMem=  2097152000 cpu:         0.5
 (Enter /opt/cluster/programs/g09/g09_d.01/g09/l202.exe)
                          Input orientation:                          
 ---------------------------------------------------------------------
 Center     Atomic      Atomic             Coordinates (Angstroms)
 Number     Number       Type             X           Y           Z
 ---------------------------------------------------------------------
      1          6           0       -6.625559   -1.125858    1.167526
      2          6           0       -5.191709   -0.728908    0.897277
      3          7           0       -4.086912   -0.574279    0.703281
      4          1           0       -6.632673   -1.288995    2.228238
      5          1           0       -6.745001   -2.021139    0.672231
      6          1           0       -7.358962   -0.374334    0.851864
 ---------------------------------------------------------------------
                    Distance matrix (angstroms):
                    1          2          3          4          5
     1  C    0.000000
     2  C    1.512128   0.000000
     3  N    2.639032   1.132308   0.000000
     4  H    1.073207   2.039983   3.052411   0.000000
     5  H    1.030103   2.033033   3.026517   1.723314   0.000000
     6  H    1.096499   2.196536   3.281519   1.805133   1.766687
                    6
     6  H    0.000000
 Stoichiometry    C2H3N
 Framework group  C1[X(C2H3N)]
 Deg. of freedom    12
 Full point group                 C1      NOp   1
 Largest Abelian subgroup         C1      NOp   1
 Largest concise Abelian subgroup C1      NOp   1
                         Standard orientation:                         
 ---------------------------------------------------------------------
 Center     Atomic      Atomic             Coordinates (Angstroms)
 Number     Number       Type             X           Y           Z
 ---------------------------------------------------------------------
      1          6           0        1.208981   -0.009054    0.011900
      2          6           0       -0.301041    0.056142   -0.034058
      3          7           0       -1.430042   -0.016008    0.013625
      4          1           0        1.438030   -0.763678   -0.716011
      5          1           0        1.425400   -0.354401    0.957949
      6          1           0        1.699222    0.947609   -0.204365
 ---------------------------------------------------------------------
 Rotational constants (GHZ):    159.7864122      9.1379333      9.1113329
 Leave Link  202 at Wed Aug 26 19:01:03 2020, MaxMem=  2097152000 cpu:         0.0
 (Enter /opt/cluster/programs/g09/g09_d.01/g09/l301.exe)
 Standard basis: def2QZVP (5D, 7F)
 Ernie: Thresh=  0.10000D-02 Tol=  0.10000D-05 Strict=F.
 There are   321 symmetry adapted cartesian basis functions of A   symmetry.
 There are   261 symmetry adapted basis functions of A   symmetry.
   261 basis functions,   390 primitive gaussians,   321 cartesian basis functions
    11 alpha electrons       11 beta electrons
       nuclear repulsion energy        58.6147362758 Hartrees.
 IExCor=  419 DFT=T Ex+Corr=B2PLYPD3 ExCW=0 ScaHFX=  0.530000
 ScaDFX=  0.470000  0.470000  0.730000  0.730000 ScalE2=  0.270000  0.270000
 IRadAn=      0 IRanWt=     -1 IRanGd=            0 ICorTp=0 IEmpDi=141
 NAtoms=    6 NActive=    6 NUniq=    6 SFac= 1.00D+00 NAtFMM=   60 NAOKFM=F Big=F
 Integral buffers will be    131072 words long.
 Regular integral format.
 Two-electron integral symmetry is turned on.
 R6Disp:  Grimme-D3(BJ) Dispersion energy=       -0.0021073580 Hartrees.
 Nuclear repulsion after empirical dispersion term =       58.6126289177 Hartrees.
 Leave Link  301 at Wed Aug 26 19:01:03 2020, MaxMem=  2097152000 cpu:         0.4
 (Enter /opt/cluster/programs/g09/g09_d.01/g09/l302.exe)
 NPDir=0 NMtPBC=     1 NCelOv=     1 NCel=       1 NClECP=     1 NCelD=      1
         NCelK=      1 NCelE2=     1 NClLst=     1 CellRange=     0.0.
 One-electron integrals computed using PRISM.
   1 Symmetry operations used in ECPInt.
 ECPInt:  NShTT=    3321 NPrTT=    8136 LenC2=    3295 LenP2D=    7130.
 LDataN:  DoStor=T MaxTD1= 8 Len=  415
 NBasis=   261 RedAO= T EigKep=  8.01D-05  NBF=   261
 NBsUse=   261 1.00D-06 EigRej= -1.00D+00 NBFU=   261
 Precomputing XC quadrature grid using
 IXCGrd= 4 IRadAn=           0 IRanWt=          -1 IRanGd=           0 AccXCQ= 0.00D+00.
 Generated NRdTot=       0 NPtTot=           0 NUsed=           0 NTot=          32
 NSgBfM=   321   321   321   321   321 MxSgAt=     6 MxSgA2=     6.
 Leave Link  302 at Wed Aug 26 19:01:03 2020, MaxMem=  2097152000 cpu:         2.0
 (Enter /opt/cluster/programs/g09/g09_d.01/g09/l303.exe)
 DipDrv:  MaxL=1.
 Leave Link  303 at Wed Aug 26 19:01:03 2020, MaxMem=  2097152000 cpu:         0.2
 (Enter /opt/cluster/programs/g09/g09_d.01/g09/l401.exe)
 ExpMin= 7.60D-02 ExpMax= 9.07D+04 ExpMxC= 8.76D+02 IAcc=2 IRadAn=         4 AccDes= 0.00D+00
 Harris functional with IExCor=  419 and IRadAn=       4 diagonalized for initial guess.
 HarFok:  IExCor=  419 AccDes= 0.00D+00 IRadAn=         4 IDoV= 1 UseB2=F ITyADJ=14
 ICtDFT=  3500011 ScaDFX=  1.000000  1.000000  1.000000  1.000000
 FoFCou: FMM=F IPFlag=           0 FMFlag=      100000 FMFlg1=           0
         NFxFlg=           0 DoJE=T BraDBF=F KetDBF=T FulRan=T
         wScrn=  0.000000 ICntrl=     500 IOpCl=  0 I1Cent=   200000004 NGrid=           0
         NMat0=    1 NMatS0=      1 NMatT0=    0 NMatD0=    1 NMtDS0=    0 NMtDT0=    0
 Petite list used in FoFCou.
 Harris En= -132.853512215229    
 JPrj=0 DoOrth=F DoCkMO=F.
 Leave Link  401 at Wed Aug 26 19:01:04 2020, MaxMem=  2097152000 cpu:         3.6
 (Enter /opt/cluster/programs/g09/g09_d.01/g09/l502.exe)
 Closed shell SCF:
 Using DIIS extrapolation, IDIIS=  1040.
 Integral symmetry usage will be decided dynamically.
 Keep R1 ints in memory in canonical form, NReq=601554820.
 IVT=      332521 IEndB=      332521 NGot=  2097152000 MDV=  1512290144
 LenX=  1512290144 LenY=  1512186662
 Requested convergence on RMS density matrix=1.00D-08 within 128 cycles.
 Requested convergence on MAX density matrix=1.00D-06.
 Requested convergence on             energy=1.00D-06.
 No special actions if energy rises.
 FoFCou: FMM=F IPFlag=           0 FMFlag=           0 FMFlg1=           0
         NFxFlg=           0 DoJE=F BraDBF=F KetDBF=F FulRan=T
         wScrn=  0.000000 ICntrl=     600 IOpCl=  0 I1Cent=           0 NGrid=           0
         NMat0=    1 NMatS0=  34191 NMatT0=    0 NMatD0=    1 NMtDS0=    0 NMtDT0=    0
 Symmetry not used in FoFCou.
 Integral accuracy reduced to 1.0D-05 until final iterations.

 Cycle   1  Pass 0  IDiag  1:
 E= -132.409387517473    
 DIIS: error= 2.62D-02 at cycle   1 NSaved=   1.
 NSaved= 1 IEnMin= 1 EnMin= -132.409387517473     IErMin= 1 ErrMin= 2.62D-02
 ErrMax= 2.62D-02  0.00D+00 EMaxC= 1.00D-01 BMatC= 2.01D-01 BMatP= 2.01D-01
 IDIUse=3 WtCom= 7.38D-01 WtEn= 2.62D-01
 Coeff-Com:  0.100D+01
 Coeff-En:   0.100D+01
 Coeff:      0.100D+01
 Gap=     0.472 Goal=   None    Shift=    0.000
 GapD=    0.472 DampG=2.000 DampE=0.500 DampFc=1.0000 IDamp=-1.
 RMSDP=1.34D-03 MaxDP=7.55D-02              OVMax= 1.56D-01

 Cycle   2  Pass 0  IDiag  1:
 E= -132.442579685721     Delta-E=       -0.033192168249 Rises=F Damp=F
 DIIS: error= 3.57D-02 at cycle   2 NSaved=   2.
 NSaved= 2 IEnMin= 2 EnMin= -132.442579685721     IErMin= 1 ErrMin= 2.62D-02
 ErrMax= 3.57D-02  0.00D+00 EMaxC= 1.00D-01 BMatC= 1.05D-01 BMatP= 2.01D-01
 IDIUse=3 WtCom= 6.43D-01 WtEn= 3.57D-01
 Coeff-Com:  0.404D+00 0.596D+00
 Coeff-En:   0.404D+00 0.596D+00
 Coeff:      0.404D+00 0.596D+00
 Gap=     0.472 Goal=   None    Shift=    0.000
 RMSDP=8.50D-04 MaxDP=3.62D-02 DE=-3.32D-02 OVMax= 1.25D-01

 Cycle   3  Pass 0  IDiag  1:
 E= -132.514202195241     Delta-E=       -0.071622509520 Rises=F Damp=F
 DIIS: error= 1.49D-02 at cycle   3 NSaved=   3.
 NSaved= 3 IEnMin= 3 EnMin= -132.514202195241     IErMin= 3 ErrMin= 1.49D-02
 ErrMax= 1.49D-02  0.00D+00 EMaxC= 1.00D-01 BMatC= 1.97D-02 BMatP= 1.05D-01
 IDIUse=3 WtCom= 8.51D-01 WtEn= 1.49D-01
 Coeff-Com:  0.942D-01 0.315D+00 0.591D+00
 Coeff-En:   0.000D+00 0.107D+00 0.893D+00
 Coeff:      0.802D-01 0.284D+00 0.636D+00
 Gap=     0.435 Goal=   None    Shift=    0.000
 RMSDP=2.63D-04 MaxDP=9.50D-03 DE=-7.16D-02 OVMax= 5.79D-02

 Cycle   4  Pass 0  IDiag  1:
 E= -132.527856895805     Delta-E=       -0.013654700563 Rises=F Damp=F
 DIIS: error= 5.16D-03 at cycle   4 NSaved=   4.
 NSaved= 4 IEnMin= 4 EnMin= -132.527856895805     IErMin= 4 ErrMin= 5.16D-03
 ErrMax= 5.16D-03  0.00D+00 EMaxC= 1.00D-01 BMatC= 2.73D-03 BMatP= 1.97D-02
 IDIUse=3 WtCom= 9.48D-01 WtEn= 5.16D-02
 Coeff-Com: -0.118D-01 0.458D-01 0.319D+00 0.647D+00
 Coeff-En:   0.000D+00 0.000D+00 0.122D+00 0.878D+00
 Coeff:     -0.112D-01 0.434D-01 0.309D+00 0.659D+00
 Gap=     0.436 Goal=   None    Shift=    0.000
 RMSDP=8.70D-05 MaxDP=2.65D-03 DE=-1.37D-02 OVMax= 1.50D-02

 Cycle   5  Pass 0  IDiag  1:
 E= -132.530194913084     Delta-E=       -0.002338017279 Rises=F Damp=F
 DIIS: error= 3.67D-04 at cycle   5 NSaved=   5.
 NSaved= 5 IEnMin= 5 EnMin= -132.530194913084     IErMin= 5 ErrMin= 3.67D-04
 ErrMax= 3.67D-04  0.00D+00 EMaxC= 1.00D-01 BMatC= 1.41D-05 BMatP= 2.73D-03
 IDIUse=3 WtCom= 9.96D-01 WtEn= 3.67D-03
 Coeff-Com: -0.369D-02 0.514D-02 0.538D-01 0.159D+00 0.786D+00
 Coeff-En:   0.000D+00 0.000D+00 0.000D+00 0.000D+00 0.100D+01
 Coeff:     -0.368D-02 0.513D-02 0.536D-01 0.158D+00 0.787D+00
 Gap=     0.435 Goal=   None    Shift=    0.000
 RMSDP=8.22D-06 MaxDP=3.03D-04 DE=-2.34D-03 OVMax= 1.24D-03

 Initial convergence to 1.0D-05 achieved.  Increase integral accuracy.
 Cycle   6  Pass 1  IDiag  1:
 E= -132.530212932682     Delta-E=       -0.000018019598 Rises=F Damp=F
 DIIS: error= 9.92D-05 at cycle   1 NSaved=   1.
 NSaved= 1 IEnMin= 1 EnMin= -132.530212932682     IErMin= 1 ErrMin= 9.92D-05
 ErrMax= 9.92D-05  0.00D+00 EMaxC= 1.00D-01 BMatC= 6.99D-07 BMatP= 6.99D-07
 IDIUse=1 WtCom= 1.00D+00 WtEn= 0.00D+00
 Coeff-Com:  0.100D+01
 Coeff:      0.100D+01
 Gap=     0.435 Goal=   None    Shift=    0.000
 RMSDP=8.22D-06 MaxDP=3.03D-04 DE=-1.80D-05 OVMax= 4.45D-04

 Cycle   7  Pass 1  IDiag  1:
 E= -132.530213334394     Delta-E=       -0.000000401712 Rises=F Damp=F
 DIIS: error= 5.58D-05 at cycle   2 NSaved=   2.
 NSaved= 2 IEnMin= 2 EnMin= -132.530213334394     IErMin= 2 ErrMin= 5.58D-05
 ErrMax= 5.58D-05  0.00D+00 EMaxC= 1.00D-01 BMatC= 3.42D-07 BMatP= 6.99D-07
 IDIUse=1 WtCom= 1.00D+00 WtEn= 0.00D+00
 Coeff-Com:  0.405D+00 0.595D+00
 Coeff:      0.405D+00 0.595D+00
 Gap=     0.435 Goal=   None    Shift=    0.000
 RMSDP=1.07D-06 MaxDP=4.64D-05 DE=-4.02D-07 OVMax= 1.81D-04

 Cycle   8  Pass 1  IDiag  1:
 E= -132.530213637315     Delta-E=       -0.000000302921 Rises=F Damp=F
 DIIS: error= 1.50D-05 at cycle   3 NSaved=   3.
 NSaved= 3 IEnMin= 3 EnMin= -132.530213637315     IErMin= 3 ErrMin= 1.50D-05
 ErrMax= 1.50D-05  0.00D+00 EMaxC= 1.00D-01 BMatC= 1.84D-08 BMatP= 3.42D-07
 IDIUse=1 WtCom= 1.00D+00 WtEn= 0.00D+00
 Coeff-Com:  0.947D-01 0.214D+00 0.692D+00
 Coeff:      0.947D-01 0.214D+00 0.692D+00
 Gap=     0.435 Goal=   None    Shift=    0.000
 RMSDP=5.66D-07 MaxDP=2.35D-05 DE=-3.03D-07 OVMax= 6.23D-05

 Cycle   9  Pass 1  IDiag  1:
 E= -132.530213648049     Delta-E=       -0.000000010734 Rises=F Damp=F
 DIIS: error= 1.07D-05 at cycle   4 NSaved=   4.
 NSaved= 4 IEnMin= 4 EnMin= -132.530213648049     IErMin= 4 ErrMin= 1.07D-05
 ErrMax= 1.07D-05  0.00D+00 EMaxC= 1.00D-01 BMatC= 7.35D-09 BMatP= 1.84D-08
 IDIUse=1 WtCom= 1.00D+00 WtEn= 0.00D+00
 Coeff-Com: -0.608D-01-0.395D-01 0.425D+00 0.675D+00
 Coeff:     -0.608D-01-0.395D-01 0.425D+00 0.675D+00
 Gap=     0.435 Goal=   None    Shift=    0.000
 RMSDP=2.70D-07 MaxDP=1.38D-05 DE=-1.07D-08 OVMax= 4.05D-05

 Cycle  10  Pass 1  IDiag  1:
 E= -132.530213655010     Delta-E=       -0.000000006961 Rises=F Damp=F
 DIIS: error= 1.11D-06 at cycle   5 NSaved=   5.
 NSaved= 5 IEnMin= 5 EnMin= -132.530213655010     IErMin= 5 ErrMin= 1.11D-06
 ErrMax= 1.11D-06  0.00D+00 EMaxC= 1.00D-01 BMatC= 1.17D-10 BMatP= 7.35D-09
 IDIUse=1 WtCom= 1.00D+00 WtEn= 0.00D+00
 Coeff-Com: -0.219D-01-0.211D-01 0.844D-01 0.197D+00 0.761D+00
 Coeff:     -0.219D-01-0.211D-01 0.844D-01 0.197D+00 0.761D+00
 Gap=     0.435 Goal=   None    Shift=    0.000
 RMSDP=4.71D-08 MaxDP=2.36D-06 DE=-6.96D-09 OVMax= 3.77D-06

 Cycle  11  Pass 1  IDiag  1:
 E= -132.530213655142     Delta-E=       -0.000000000132 Rises=F Damp=F
 DIIS: error= 3.05D-07 at cycle   6 NSaved=   6.
 NSaved= 6 IEnMin= 6 EnMin= -132.530213655142     IErMin= 6 ErrMin= 3.05D-07
 ErrMax= 3.05D-07  0.00D+00 EMaxC= 1.00D-01 BMatC= 7.59D-12 BMatP= 1.17D-10
 IDIUse=1 WtCom= 1.00D+00 WtEn= 0.00D+00
 Coeff-Com:  0.512D-02 0.271D-02-0.444D-01-0.499D-01 0.782D-01 0.101D+01
 Coeff:      0.512D-02 0.271D-02-0.444D-01-0.499D-01 0.782D-01 0.101D+01
 Gap=     0.435 Goal=   None    Shift=    0.000
 RMSDP=1.28D-08 MaxDP=4.26D-07 DE=-1.32D-10 OVMax= 2.55D-06

 Cycle  12  Pass 1  IDiag  1:
 E= -132.530213655164     Delta-E=       -0.000000000022 Rises=F Damp=F
 DIIS: error= 1.00D-07 at cycle   7 NSaved=   7.
 NSaved= 7 IEnMin= 7 EnMin= -132.530213655164     IErMin= 7 ErrMin= 1.00D-07
 ErrMax= 1.00D-07  0.00D+00 EMaxC= 1.00D-01 BMatC= 4.55D-13 BMatP= 7.59D-12
 IDIUse=1 WtCom= 1.00D+00 WtEn= 0.00D+00
 Coeff-Com: -0.494D-03 0.380D-03 0.120D-01 0.716D-02-0.803D-01-0.412D+00
 Coeff-Com:  0.147D+01
 Coeff:     -0.494D-03 0.380D-03 0.120D-01 0.716D-02-0.803D-01-0.412D+00
 Coeff:      0.147D+01
 Gap=     0.435 Goal=   None    Shift=    0.000
 RMSDP=5.48D-09 MaxDP=1.88D-07 DE=-2.17D-11 OVMax= 1.31D-06

 SCF Done:  E(RB2PLYPD3) =  -132.530213655     A.U. after   12 cycles
            NFock= 12  Conv=0.55D-08     -V/T= 2.0026
 KE= 1.321929918326D+02 PE=-4.259649264051D+02 EE= 1.026290919996D+02
 Leave Link  502 at Wed Aug 26 19:01:24 2020, MaxMem=  2097152000 cpu:        91.3
 (Enter /opt/cluster/programs/g09/g09_d.01/g09/l801.exe)
 DoSCS=T DFT=T ScalE2(SS,OS)=  0.270000  0.270000
 ExpMin= 7.60D-02 ExpMax= 9.07D+04 ExpMxC= 8.76D+02 IAcc=3 IRadAn=         5 AccDes= 0.00D+00
 HarFok:  IExCor=  205 AccDes= 0.00D+00 IRadAn=         5 IDoV=-2 UseB2=F ITyADJ=14
 ICtDFT= 12500011 ScaDFX=  1.000000  1.000000  1.000000  1.000000
 Largest valence mixing into a core orbital is  1.14D-04
 Largest core mixing into a valence orbital is  1.83D-05
 Range of M.O.s used for correlation:     4   261
 NBasis=   261 NAE=    11 NBE=    11 NFC=     3 NFV=     0
 NROrb=    258 NOA=     8 NOB=     8 NVA=   250 NVB=   250

 **** Warning!!: The largest alpha MO coefficient is  0.29037185D+02

 Leave Link  801 at Wed Aug 26 19:01:25 2020, MaxMem=  2097152000 cpu:         0.6
 (Enter /opt/cluster/programs/g09/g09_d.01/g09/l906.exe)
 DoSCS=T DFT=T ScalE2(SS,OS)=  0.270000  0.270000
 FulOut=F Deriv=F AODrv=F NAtomX=     6
   MMem=        2666  MDisk=           8 MDiskD=           8
  W3Min=      642000 MinDsk=     1426009 NBas6D=         321
 NBas2D=       52689    NTT=       51681    LW2=     4508827
    MDV=  2096809655 MDiskM=       14501 NBas2p=       52086
 Fully direct method using O(OVN) memory.
 IMap=   1   2   3   4   5   6   7   8
 JobTyp=1 Pass  1:  I=   1 to   8 NPSUse=  8 ParTrn=T ParDer=T DoDerP=F.
 Spin components of T(2) and E(2):
     alpha-alpha T2 =       0.3434898364D-01 E2=     -0.2106420830D-01
     alpha-beta  T2 =       0.2022342308D+00 E2=     -0.1363061547D+00
     beta-beta   T2 =       0.3434898364D-01 E2=     -0.2106420830D-01
 The integrals were generated   1 times.
 E2(B2PLYPD3) =    -0.1784345713D+00 E(B2PLYPD3) =    -0.13270864822643D+03
 Leave Link  906 at Wed Aug 26 19:01:37 2020, MaxMem=  2097152000 cpu:        94.3
 (Enter /opt/cluster/programs/g09/g09_d.01/g09/l601.exe)
 Copying SCF densities to generalized density rwf, IOpCl= 0 IROHF=0.

 **********************************************************************

            Population analysis using the SCF density.

 **********************************************************************

 Orbital symmetries:
       Occupied  (A) (A) (A) (A) (A) (A) (A) (A) (A) (A) (A)
       Virtual   (A) (A) (A) (A) (A) (A) (A) (A) (A) (A) (A) (A)
                 (A) (A) (A) (A) (A) (A) (A) (A) (A) (A) (A) (A)
                 (A) (A) (A) (A) (A) (A) (A) (A) (A) (A) (A) (A)
                 (A) (A) (A) (A) (A) (A) (A) (A) (A) (A) (A) (A)
                 (A) (A) (A) (A) (A) (A) (A) (A) (A) (A) (A) (A)
                 (A) (A) (A) (A) (A) (A) (A) (A) (A) (A) (A) (A)
                 (A) (A) (A) (A) (A) (A) (A) (A) (A) (A) (A) (A)
                 (A) (A) (A) (A) (A) (A) (A) (A) (A) (A) (A) (A)
                 (A) (A) (A) (A) (A) (A) (A) (A) (A) (A) (A) (A)
                 (A) (A) (A) (A) (A) (A) (A) (A) (A) (A) (A) (A)
                 (A) (A) (A) (A) (A) (A) (A) (A) (A) (A) (A) (A)
                 (A) (A) (A) (A) (A) (A) (A) (A) (A) (A) (A) (A)
                 (A) (A) (A) (A) (A) (A) (A) (A) (A) (A) (A) (A)
                 (A) (A) (A) (A) (A) (A) (A) (A) (A) (A) (A) (A)
                 (A) (A) (A) (A) (A) (A) (A) (A) (A) (A) (A) (A)
                 (A) (A) (A) (A) (A) (A) (A) (A) (A) (A) (A) (A)
                 (A) (A) (A) (A) (A) (A) (A) (A) (A) (A) (A) (A)
                 (A) (A) (A) (A) (A) (A) (A) (A) (A) (A) (A) (A)
                 (A) (A) (A) (A) (A) (A) (A) (A) (A) (A) (A) (A)
                 (A) (A) (A) (A) (A) (A) (A) (A) (A) (A) (A) (A)
                 (A) (A) (A) (A) (A) (A) (A) (A) (A) (A)
 The electronic state is 1-A.
 Alpha  occ. eigenvalues --  -14.83433 -10.66958 -10.65606  -1.04828  -0.88981
 Alpha  occ. eigenvalues --   -0.58117  -0.54941  -0.54105  -0.44459  -0.39840
 Alpha  occ. eigenvalues --   -0.39694
 Alpha virt. eigenvalues --    0.03814   0.08570   0.09209   0.10369   0.11335
 Alpha virt. eigenvalues --    0.11549   0.14943   0.15729   0.16638   0.19898
 Alpha virt. eigenvalues --    0.20055   0.24521   0.32266   0.34740   0.35622
 Alpha virt. eigenvalues --    0.38007   0.38781   0.39988   0.41607   0.46687
 Alpha virt. eigenvalues --    0.51256   0.52800   0.57487   0.60589   0.61733
 Alpha virt. eigenvalues --    0.66019   0.67582   0.69160   0.70660   0.78740
 Alpha virt. eigenvalues --    0.79177   0.81890   0.82355   0.84889   0.87157
 Alpha virt. eigenvalues --    0.90346   0.92007   0.94643   0.96875   0.98336
 Alpha virt. eigenvalues --    1.05977   1.07776   1.08291   1.09848   1.12739
 Alpha virt. eigenvalues --    1.17671   1.22199   1.23919   1.24130   1.34249
 Alpha virt. eigenvalues --    1.37108   1.45463   1.48956   1.49771   1.54810
 Alpha virt. eigenvalues --    1.63220   1.65384   1.70750   1.72450   1.77487
 Alpha virt. eigenvalues --    1.79048   1.80799   1.86135   1.90990   1.92859
 Alpha virt. eigenvalues --    1.94083   1.97943   2.00351   2.01001   2.03969
 Alpha virt. eigenvalues --    2.05980   2.10624   2.13395   2.17451   2.21096
 Alpha virt. eigenvalues --    2.24521   2.25151   2.28571   2.32971   2.37429
 Alpha virt. eigenvalues --    2.40731   2.47773   2.51391   2.58480   2.58891
 Alpha virt. eigenvalues --    2.61064   2.68116   2.68887   2.70933   2.72955
 Alpha virt. eigenvalues --    2.76069   2.79023   2.81062   2.88049   2.91022
 Alpha virt. eigenvalues --    2.94262   2.95772   2.97644   2.99820   3.05212
 Alpha virt. eigenvalues --    3.10914   3.14875   3.22007   3.27395   3.33418
 Alpha virt. eigenvalues --    3.36395   3.37236   3.41258   3.47747   3.48722
 Alpha virt. eigenvalues --    3.57039   3.62244   3.68897   3.74217   3.76824
 Alpha virt. eigenvalues --    3.89422   3.90909   3.93932   3.96544   3.98686
 Alpha virt. eigenvalues --    4.01714   4.04108   4.07120   4.26052   4.27794
 Alpha virt. eigenvalues --    4.52363   4.91595   4.92007   5.07250   5.10343
 Alpha virt. eigenvalues --    5.11716   5.20959   5.22298   5.23884   5.26869
 Alpha virt. eigenvalues --    5.28292   5.43308   5.45276   5.49342   5.66386
 Alpha virt. eigenvalues --    5.68950   5.85826   5.87759   5.89607   5.90436
 Alpha virt. eigenvalues --    5.94365   5.97263   5.98553   6.01360   6.03073
 Alpha virt. eigenvalues --    6.05139   6.06201   6.07928   6.08487   6.13423
 Alpha virt. eigenvalues --    6.19601   6.23034   6.24093   6.28625   6.29607
 Alpha virt. eigenvalues --    6.40123   6.47097   6.49200   6.54200   6.63266
 Alpha virt. eigenvalues --    6.65783   6.68523   6.81989   6.91672   6.96527
 Alpha virt. eigenvalues --    6.97914   7.03104   7.03251   7.04331   7.11258
 Alpha virt. eigenvalues --    7.13429   7.22424   7.31054   7.44842   7.49107
 Alpha virt. eigenvalues --    7.53208   7.55013   7.55797   7.56044   7.67051
 Alpha virt. eigenvalues --    7.69635   7.72190   7.73344   7.77440   7.84318
 Alpha virt. eigenvalues --    7.85692   7.95680   7.99822   8.06486   8.21142
 Alpha virt. eigenvalues --    8.26783   8.27499   8.40346   8.45335   8.45701
 Alpha virt. eigenvalues --    8.46769   8.48883   8.52965   8.55625   8.58378
 Alpha virt. eigenvalues --    8.60636   8.67256   8.67785   8.70904   8.75180
 Alpha virt. eigenvalues --    8.77002   8.83156   8.90215   8.94734   9.07516
 Alpha virt. eigenvalues --    9.09386   9.12335   9.14677   9.19719   9.23699
 Alpha virt. eigenvalues --    9.30820   9.40267   9.75670   9.80570   9.84415
 Alpha virt. eigenvalues --    9.89900   9.93593  10.06613  10.09919  10.13575
 Alpha virt. eigenvalues --   10.16445  10.17253  10.25342  10.40090  10.53672
 Alpha virt. eigenvalues --   10.66910  10.87488  11.36681  11.42476  11.83477
 Alpha virt. eigenvalues --   11.93381  11.95729  13.13291  13.65478  29.23068
 Alpha virt. eigenvalues --   29.41057  38.37836 148.90759 149.04555 198.31566
          Condensed to atoms (all electrons):
               1          2          3          4          5          6
     1  C    4.598930   0.310999  -0.055587   0.413459   0.416991   0.413418
     2  C    0.310999   4.830678   0.993820  -0.048059  -0.045912  -0.029525
     3  N   -0.055587   0.993820   6.257696  -0.000562  -0.000995   0.000497
     4  H    0.413459  -0.048059  -0.000562   0.591423  -0.028742  -0.028735
     5  H    0.416991  -0.045912  -0.000995  -0.028742   0.584467  -0.031087
     6  H    0.413418  -0.029525   0.000497  -0.028735  -0.031087   0.576844
 Mulliken charges:
               1
     1  C   -0.098210
     2  C   -0.012002
     3  N   -0.194869
     4  H    0.101215
     5  H    0.105278
     6  H    0.098588
 Sum of Mulliken charges =   0.00000
 Mulliken charges with hydrogens summed into heavy atoms:
               1
     1  C    0.206871
     2  C   -0.012002
     3  N   -0.194869
 Electronic spatial extent (au):  <R**2>=            162.3514
 Charge=              0.0000 electrons
 Dipole moment (field-independent basis, Debye):
    X=              4.1121    Y=             -0.0044    Z=             -0.0082  Tot=              4.1121
 Quadrupole moment (field-independent basis, Debye-Ang):
   XX=            -21.1066   YY=            -17.5786   ZZ=            -17.6953
   XY=              0.0631   XZ=              0.0549   YZ=             -0.0030
 Traceless Quadrupole moment (field-independent basis, Debye-Ang):
   XX=             -2.3131   YY=              1.2149   ZZ=              1.0982
   XY=              0.0631   XZ=              0.0549   YZ=             -0.0030
 Octapole moment (field-independent basis, Debye-Ang**2):
  XXX=             12.8384  YYY=              0.1964  ZZZ=              0.6813  XYY=              2.4025
  XXY=              0.6463  XXZ=             -0.0498  XZZ=              1.9716  YZZ=             -0.7409
  YYZ=             -0.4262  XYZ=             -0.0579
 Hexadecapole moment (field-independent basis, Debye-Ang**3):
 XXXX=           -183.5182 YYYY=            -24.6632 ZZZZ=            -23.8419 XXXY=              1.2414
 XXXZ=              0.1651 YYYX=              0.9473 YYYZ=              0.1142 ZZZX=              0.8625
 ZZZY=             -0.0781 XXYY=            -30.7554 XXZZ=            -31.8068 YYZZ=             -7.9712
 XXYZ=             -0.2276 YYXZ=             -0.7631 ZZXY=             -0.9862
 N-N= 5.861262891773D+01 E-N=-4.259649272010D+02  KE= 1.321929918326D+02
 Leave Link  601 at Wed Aug 26 19:01:37 2020, MaxMem=  2097152000 cpu:         0.4
 (Enter /opt/cluster/programs/g09/g09_d.01/g09/l9999.exe)
 1\1\GINC-NODE31\SP\RB2PLYPD3-FC\def2QZVP\C2H3N1\BOITTIER\26-Aug-2020\0
 \\#p B2PLYPD3/Def2QZVP\\cyanomethane\\0,1\C,0,-6.625559,-1.125858,1.16
 7526\C,0,-5.191709,-0.728908,0.897277\N,0,-4.086912,-0.574279,0.703281
 \H,0,-6.632673,-1.288995,2.228238\H,0,-6.745001,-2.021139,0.672231\H,0
 ,-7.358962,-0.374334,0.851864\\Version=ES64L-G09RevD.01\State=1-A\HF=-
 132.5302137\MP2=-132.7086482\RMSD=5.478e-09\PG=C01 [X(C2H3N1)]\\@


 A people that values its privileges above its principles soon loses both.
 -- Dwight D. Eisenhower
 Job cpu time:       0 days  0 hours  3 minutes 14.0 seconds.
 File lengths (MBytes):  RWF=     28 Int=      0 D2E=      0 Chk=      5 Scr=      1
 Normal termination of Gaussian 09 at Wed Aug 26 19:01:37 2020.
