 Entering Gaussian System, Link 0=/opt/cluster/programs/g09/g09_d.01/g09//g09
 Input=/home/boittier/MDCM/nms_sampling/cyanomethane_geom.xyz.dir/energies/cyanomethane_2011_energy.com
 Output=/scratch/boittier/cyanomethane_2011_energy/cyanomethane_2011_energy.out
 Initial command:
 /opt/cluster/programs/g09/g09_d.01/g09/l1.exe "/scratch/boittier/cyanomethane_2011_energy/Gau-126477.inp" -scrdir="/scratch/boittier/cyanomethane_2011_energy/"
 Entering Link 1 = /opt/cluster/programs/g09/g09_d.01/g09/l1.exe PID=    126478.
  
 Copyright (c) 1988,1990,1992,1993,1995,1998,2003,2009,2013,
            Gaussian, Inc.  All Rights Reserved.
  
 This is part of the Gaussian(R) 09 program.  It is based on
 the Gaussian(R) 03 system (copyright 2003, Gaussian, Inc.),
 the Gaussian(R) 98 system (copyright 1998, Gaussian, Inc.),
 the Gaussian(R) 94 system (copyright 1995, Gaussian, Inc.),
 the Gaussian 92(TM) system (copyright 1992, Gaussian, Inc.),
 the Gaussian 90(TM) system (copyright 1990, Gaussian, Inc.),
 the Gaussian 88(TM) system (copyright 1988, Gaussian, Inc.),
 the Gaussian 86(TM) system (copyright 1986, Carnegie Mellon
 University), and the Gaussian 82(TM) system (copyright 1983,
 Carnegie Mellon University). Gaussian is a federally registered
 trademark of Gaussian, Inc.
  
 This software contains proprietary and confidential information,
 including trade secrets, belonging to Gaussian, Inc.
  
 This software is provided under written license and may be
 used, copied, transmitted, or stored only in accord with that
 written license.
  
 The following legend is applicable only to US Government
 contracts under FAR:
  
                    RESTRICTED RIGHTS LEGEND
  
 Use, reproduction and disclosure by the US Government is
 subject to restrictions as set forth in subparagraphs (a)
 and (c) of the Commercial Computer Software - Restricted
 Rights clause in FAR 52.227-19.
  
 Gaussian, Inc.
 340 Quinnipiac St., Bldg. 40, Wallingford CT 06492
  
  
 ---------------------------------------------------------------
 Warning -- This program may not be used in any manner that
 competes with the business of Gaussian, Inc. or will provide
 assistance to any competitor of Gaussian, Inc.  The licensee
 of this program is prohibited from giving any competitor of
 Gaussian, Inc. access to this program.  By using this program,
 the user acknowledges that Gaussian, Inc. is engaged in the
 business of creating and licensing software in the field of
 computational chemistry and represents and warrants to the
 licensee that it is not a competitor of Gaussian, Inc. and that
 it will not use this program in any manner prohibited above.
 ---------------------------------------------------------------
  

 Cite this work as:
 Gaussian 09, Revision D.01,
 M. J. Frisch, G. W. Trucks, H. B. Schlegel, G. E. Scuseria, 
 M. A. Robb, J. R. Cheeseman, G. Scalmani, V. Barone, B. Mennucci, 
 G. A. Petersson, H. Nakatsuji, M. Caricato, X. Li, H. P. Hratchian, 
 A. F. Izmaylov, J. Bloino, G. Zheng, J. L. Sonnenberg, M. Hada, 
 M. Ehara, K. Toyota, R. Fukuda, J. Hasegawa, M. Ishida, T. Nakajima, 
 Y. Honda, O. Kitao, H. Nakai, T. Vreven, J. A. Montgomery, Jr., 
 J. E. Peralta, F. Ogliaro, M. Bearpark, J. J. Heyd, E. Brothers, 
 K. N. Kudin, V. N. Staroverov, T. Keith, R. Kobayashi, J. Normand, 
 K. Raghavachari, A. Rendell, J. C. Burant, S. S. Iyengar, J. Tomasi, 
 M. Cossi, N. Rega, J. M. Millam, M. Klene, J. E. Knox, J. B. Cross, 
 V. Bakken, C. Adamo, J. Jaramillo, R. Gomperts, R. E. Stratmann, 
 O. Yazyev, A. J. Austin, R. Cammi, C. Pomelli, J. W. Ochterski, 
 R. L. Martin, K. Morokuma, V. G. Zakrzewski, G. A. Voth, 
 P. Salvador, J. J. Dannenberg, S. Dapprich, A. D. Daniels, 
 O. Farkas, J. B. Foresman, J. V. Ortiz, J. Cioslowski, 
 and D. J. Fox, Gaussian, Inc., Wallingford CT, 2013.
 
 ******************************************
 Gaussian 09:  ES64L-G09RevD.01 24-Apr-2013
                26-Aug-2020 
 ******************************************
 %chk=/home/boittier/MDCM/nms_sampling/cyanomethane_geom.xyz.dir/cyanomethane_201
 1.chk
 %nproc=8
 Will use up to    8 processors via shared memory.
 %mem=16000MB
 --------------------
 #p B2PLYPD3/Def2QZVP
 --------------------
 1/38=1/1;
 2/12=2,17=6,18=5,40=1/2;
 3/5=45,7=101,11=9,16=1,25=1,30=1,74=-60/1,2,3;
 4//1;
 5/5=2,38=5/2;
 8/10=1/1;
 9/16=-3/6;
 6/7=2,8=2,9=2,10=2/1;
 99/5=1,9=1/99;
 Leave Link    1 at Wed Aug 26 15:31:13 2020, MaxMem=  2097152000 cpu:         0.2
 (Enter /opt/cluster/programs/g09/g09_d.01/g09/l101.exe)
 ------------
 cyanomethane
 ------------
 Symbolic Z-matrix:
 Charge =  0 Multiplicity = 1
 C                    -6.595    -1.11496   1.16171 
 C                    -5.20564  -0.79593   0.88402 
 N                    -4.09773  -0.53521   0.71672 
 H                    -6.79176  -1.22713   2.226 
 H                    -6.80608  -2.01314   0.7319 
 H                    -7.18745  -0.32718   0.86395 
 
 NAtoms=      6 NQM=        6 NQMF=       0 NMMI=      0 NMMIF=      0
                NMic=       0 NMicF=      0.
                    Isotopes and Nuclear Properties:
 (Nuclear quadrupole moments (NQMom) in fm**2, nuclear magnetic moments (NMagM)
  in nuclear magnetons)

  Atom         1           2           3           4           5           6
 IAtWgt=          12          12          14           1           1           1
 AtmWgt=  12.0000000  12.0000000  14.0030740   1.0078250   1.0078250   1.0078250
 NucSpn=           0           0           2           1           1           1
 AtZEff=   0.0000000   0.0000000   0.0000000   0.0000000   0.0000000   0.0000000
 NQMom=    0.0000000   0.0000000   2.0440000   0.0000000   0.0000000   0.0000000
 NMagM=    0.0000000   0.0000000   0.4037610   2.7928460   2.7928460   2.7928460
 AtZNuc=   6.0000000   6.0000000   7.0000000   1.0000000   1.0000000   1.0000000
 Leave Link  101 at Wed Aug 26 15:31:13 2020, MaxMem=  2097152000 cpu:         0.5
 (Enter /opt/cluster/programs/g09/g09_d.01/g09/l202.exe)
                          Input orientation:                          
 ---------------------------------------------------------------------
 Center     Atomic      Atomic             Coordinates (Angstroms)
 Number     Number       Type             X           Y           Z
 ---------------------------------------------------------------------
      1          6           0       -6.595003   -1.114956    1.161708
      2          6           0       -5.205639   -0.795925    0.884024
      3          7           0       -4.097730   -0.535214    0.716718
      4          1           0       -6.791757   -1.227130    2.225998
      5          1           0       -6.806081   -2.013135    0.731903
      6          1           0       -7.187455   -0.327178    0.863948
 ---------------------------------------------------------------------
                    Distance matrix (angstroms):
                    1          2          3          4          5
     1  C    0.000000
     2  C    1.452316   0.000000
     3  N    2.602016   1.150402   0.000000
     4  H    1.088121   2.121934   3.164562   0.000000
     5  H    1.017847   2.016471   3.085392   1.688292   0.000000
     6  H    1.029687   2.036596   3.100219   1.679783   1.733590
                    6
     6  H    0.000000
 Stoichiometry    C2H3N
 Framework group  C1[X(C2H3N)]
 Deg. of freedom    12
 Full point group                 C1      NOp   1
 Largest Abelian subgroup         C1      NOp   1
 Largest concise Abelian subgroup C1      NOp   1
                         Standard orientation:                         
 ---------------------------------------------------------------------
 Center     Atomic      Atomic             Coordinates (Angstroms)
 Number     Number       Type             X           Y           Z
 ---------------------------------------------------------------------
      1          6           0        1.175333    0.002720   -0.012992
      2          6           0       -0.276931    0.006653   -0.024687
      3          7           0       -1.426491   -0.004763    0.017807
      4          1           0        1.583362   -0.092814    0.991196
      5          1           0        1.497719    0.898694   -0.372587
      6          1           0        1.513941   -0.828778   -0.517183
 ---------------------------------------------------------------------
 Rotational constants (GHZ):    172.6124891      9.3598026      9.3418542
 Leave Link  202 at Wed Aug 26 15:31:13 2020, MaxMem=  2097152000 cpu:         0.0
 (Enter /opt/cluster/programs/g09/g09_d.01/g09/l301.exe)
 Standard basis: def2QZVP (5D, 7F)
 Ernie: Thresh=  0.10000D-02 Tol=  0.10000D-05 Strict=F.
 There are   321 symmetry adapted cartesian basis functions of A   symmetry.
 There are   261 symmetry adapted basis functions of A   symmetry.
   261 basis functions,   390 primitive gaussians,   321 cartesian basis functions
    11 alpha electrons       11 beta electrons
       nuclear repulsion energy        59.2289728169 Hartrees.
 IExCor=  419 DFT=T Ex+Corr=B2PLYPD3 ExCW=0 ScaHFX=  0.530000
 ScaDFX=  0.470000  0.470000  0.730000  0.730000 ScalE2=  0.270000  0.270000
 IRadAn=      0 IRanWt=     -1 IRanGd=            0 ICorTp=0 IEmpDi=141
 NAtoms=    6 NActive=    6 NUniq=    6 SFac= 1.00D+00 NAtFMM=   60 NAOKFM=F Big=F
 Integral buffers will be    131072 words long.
 Regular integral format.
 Two-electron integral symmetry is turned on.
 R6Disp:  Grimme-D3(BJ) Dispersion energy=       -0.0021131430 Hartrees.
 Nuclear repulsion after empirical dispersion term =       59.2268596739 Hartrees.
 Leave Link  301 at Wed Aug 26 15:31:13 2020, MaxMem=  2097152000 cpu:         0.4
 (Enter /opt/cluster/programs/g09/g09_d.01/g09/l302.exe)
 NPDir=0 NMtPBC=     1 NCelOv=     1 NCel=       1 NClECP=     1 NCelD=      1
         NCelK=      1 NCelE2=     1 NClLst=     1 CellRange=     0.0.
 One-electron integrals computed using PRISM.
   1 Symmetry operations used in ECPInt.
 ECPInt:  NShTT=    3321 NPrTT=    8136 LenC2=    3296 LenP2D=    7141.
 LDataN:  DoStor=T MaxTD1= 8 Len=  415
 NBasis=   261 RedAO= T EigKep=  7.52D-05  NBF=   261
 NBsUse=   261 1.00D-06 EigRej= -1.00D+00 NBFU=   261
 Precomputing XC quadrature grid using
 IXCGrd= 4 IRadAn=           0 IRanWt=          -1 IRanGd=           0 AccXCQ= 0.00D+00.
 Generated NRdTot=       0 NPtTot=           0 NUsed=           0 NTot=          32
 NSgBfM=   321   321   321   321   321 MxSgAt=     6 MxSgA2=     6.
 Leave Link  302 at Wed Aug 26 15:31:13 2020, MaxMem=  2097152000 cpu:         2.3
 (Enter /opt/cluster/programs/g09/g09_d.01/g09/l303.exe)
 DipDrv:  MaxL=1.
 Leave Link  303 at Wed Aug 26 15:31:13 2020, MaxMem=  2097152000 cpu:         0.2
 (Enter /opt/cluster/programs/g09/g09_d.01/g09/l401.exe)
 ExpMin= 7.60D-02 ExpMax= 9.07D+04 ExpMxC= 8.76D+02 IAcc=2 IRadAn=         4 AccDes= 0.00D+00
 Harris functional with IExCor=  419 and IRadAn=       4 diagonalized for initial guess.
 HarFok:  IExCor=  419 AccDes= 0.00D+00 IRadAn=         4 IDoV= 1 UseB2=F ITyADJ=14
 ICtDFT=  3500011 ScaDFX=  1.000000  1.000000  1.000000  1.000000
 FoFCou: FMM=F IPFlag=           0 FMFlag=      100000 FMFlg1=           0
         NFxFlg=           0 DoJE=T BraDBF=F KetDBF=T FulRan=T
         wScrn=  0.000000 ICntrl=     500 IOpCl=  0 I1Cent=   200000004 NGrid=           0
         NMat0=    1 NMatS0=      1 NMatT0=    0 NMatD0=    1 NMtDS0=    0 NMtDT0=    0
 Petite list used in FoFCou.
 Harris En= -132.857234000259    
 JPrj=0 DoOrth=F DoCkMO=F.
 Leave Link  401 at Wed Aug 26 15:31:14 2020, MaxMem=  2097152000 cpu:         4.3
 (Enter /opt/cluster/programs/g09/g09_d.01/g09/l502.exe)
 Closed shell SCF:
 Using DIIS extrapolation, IDIIS=  1040.
 Integral symmetry usage will be decided dynamically.
 Keep R1 ints in memory in canonical form, NReq=601554820.
 IVT=      332521 IEndB=      332521 NGot=  2097152000 MDV=  1512290144
 LenX=  1512290144 LenY=  1512186662
 Requested convergence on RMS density matrix=1.00D-08 within 128 cycles.
 Requested convergence on MAX density matrix=1.00D-06.
 Requested convergence on             energy=1.00D-06.
 No special actions if energy rises.
 FoFCou: FMM=F IPFlag=           0 FMFlag=           0 FMFlg1=           0
         NFxFlg=           0 DoJE=F BraDBF=F KetDBF=F FulRan=T
         wScrn=  0.000000 ICntrl=     600 IOpCl=  0 I1Cent=           0 NGrid=           0
         NMat0=    1 NMatS0=  34191 NMatT0=    0 NMatD0=    1 NMtDS0=    0 NMtDT0=    0
 Symmetry not used in FoFCou.
 Integral accuracy reduced to 1.0D-05 until final iterations.

 Cycle   1  Pass 0  IDiag  1:
 E= -132.406458869812    
 DIIS: error= 3.88D-02 at cycle   1 NSaved=   1.
 NSaved= 1 IEnMin= 1 EnMin= -132.406458869812     IErMin= 1 ErrMin= 3.88D-02
 ErrMax= 3.88D-02  0.00D+00 EMaxC= 1.00D-01 BMatC= 2.02D-01 BMatP= 2.02D-01
 IDIUse=3 WtCom= 6.12D-01 WtEn= 3.88D-01
 Coeff-Com:  0.100D+01
 Coeff-En:   0.100D+01
 Coeff:      0.100D+01
 Gap=     0.460 Goal=   None    Shift=    0.000
 GapD=    0.460 DampG=2.000 DampE=0.500 DampFc=1.0000 IDamp=-1.
 RMSDP=1.29D-03 MaxDP=6.75D-02              OVMax= 1.59D-01

 Cycle   2  Pass 0  IDiag  1:
 E= -132.450377143554     Delta-E=       -0.043918273742 Rises=F Damp=F
 DIIS: error= 3.75D-02 at cycle   2 NSaved=   2.
 NSaved= 2 IEnMin= 2 EnMin= -132.450377143554     IErMin= 2 ErrMin= 3.75D-02
 ErrMax= 3.75D-02  0.00D+00 EMaxC= 1.00D-01 BMatC= 9.42D-02 BMatP= 2.02D-01
 IDIUse=3 WtCom= 6.25D-01 WtEn= 3.75D-01
 Coeff-Com:  0.388D+00 0.612D+00
 Coeff-En:   0.365D+00 0.635D+00
 Coeff:      0.379D+00 0.621D+00
 Gap=     0.440 Goal=   None    Shift=    0.000
 RMSDP=8.30D-04 MaxDP=3.29D-02 DE=-4.39D-02 OVMax= 1.19D-01

 Cycle   3  Pass 0  IDiag  1:
 E= -132.512599433427     Delta-E=       -0.062222289873 Rises=F Damp=F
 DIIS: error= 1.52D-02 at cycle   3 NSaved=   3.
 NSaved= 3 IEnMin= 3 EnMin= -132.512599433427     IErMin= 3 ErrMin= 1.52D-02
 ErrMax= 1.52D-02  0.00D+00 EMaxC= 1.00D-01 BMatC= 2.07D-02 BMatP= 9.42D-02
 IDIUse=3 WtCom= 8.48D-01 WtEn= 1.52D-01
 Coeff-Com:  0.996D-01 0.334D+00 0.567D+00
 Coeff-En:   0.000D+00 0.130D+00 0.870D+00
 Coeff:      0.844D-01 0.303D+00 0.613D+00
 Gap=     0.428 Goal=   None    Shift=    0.000
 RMSDP=2.75D-04 MaxDP=1.02D-02 DE=-6.22D-02 OVMax= 6.09D-02

 Cycle   4  Pass 0  IDiag  1:
 E= -132.526644620744     Delta-E=       -0.014045187317 Rises=F Damp=F
 DIIS: error= 5.61D-03 at cycle   4 NSaved=   4.
 NSaved= 4 IEnMin= 4 EnMin= -132.526644620744     IErMin= 4 ErrMin= 5.61D-03
 ErrMax= 5.61D-03  0.00D+00 EMaxC= 1.00D-01 BMatC= 3.24D-03 BMatP= 2.07D-02
 IDIUse=3 WtCom= 9.44D-01 WtEn= 5.61D-02
 Coeff-Com: -0.121D-01 0.535D-01 0.329D+00 0.630D+00
 Coeff-En:   0.000D+00 0.000D+00 0.147D+00 0.853D+00
 Coeff:     -0.114D-01 0.505D-01 0.319D+00 0.642D+00
 Gap=     0.430 Goal=   None    Shift=    0.000
 RMSDP=9.42D-05 MaxDP=2.82D-03 DE=-1.40D-02 OVMax= 1.68D-02

 Cycle   5  Pass 0  IDiag  1:
 E= -132.529412583267     Delta-E=       -0.002767962523 Rises=F Damp=F
 DIIS: error= 3.25D-04 at cycle   5 NSaved=   5.
 NSaved= 5 IEnMin= 5 EnMin= -132.529412583267     IErMin= 5 ErrMin= 3.25D-04
 ErrMax= 3.25D-04  0.00D+00 EMaxC= 1.00D-01 BMatC= 1.46D-05 BMatP= 3.24D-03
 IDIUse=3 WtCom= 9.97D-01 WtEn= 3.25D-03
 Coeff-Com: -0.327D-02 0.476D-02 0.442D-01 0.135D+00 0.819D+00
 Coeff-En:   0.000D+00 0.000D+00 0.000D+00 0.000D+00 0.100D+01
 Coeff:     -0.326D-02 0.475D-02 0.440D-01 0.135D+00 0.820D+00
 Gap=     0.429 Goal=   None    Shift=    0.000
 RMSDP=8.21D-06 MaxDP=3.04D-04 DE=-2.77D-03 OVMax= 1.29D-03

 Initial convergence to 1.0D-05 achieved.  Increase integral accuracy.
 Cycle   6  Pass 1  IDiag  1:
 E= -132.529425523384     Delta-E=       -0.000012940118 Rises=F Damp=F
 DIIS: error= 1.02D-04 at cycle   1 NSaved=   1.
 NSaved= 1 IEnMin= 1 EnMin= -132.529425523384     IErMin= 1 ErrMin= 1.02D-04
 ErrMax= 1.02D-04  0.00D+00 EMaxC= 1.00D-01 BMatC= 5.74D-07 BMatP= 5.74D-07
 IDIUse=3 WtCom= 9.99D-01 WtEn= 1.02D-03
 Coeff-Com:  0.100D+01
 Coeff-En:   0.100D+01
 Coeff:      0.100D+01
 Gap=     0.429 Goal=   None    Shift=    0.000
 RMSDP=8.21D-06 MaxDP=3.04D-04 DE=-1.29D-05 OVMax= 3.90D-04

 Cycle   7  Pass 1  IDiag  1:
 E= -132.529425869836     Delta-E=       -0.000000346452 Rises=F Damp=F
 DIIS: error= 4.23D-05 at cycle   2 NSaved=   2.
 NSaved= 2 IEnMin= 2 EnMin= -132.529425869836     IErMin= 2 ErrMin= 4.23D-05
 ErrMax= 4.23D-05  0.00D+00 EMaxC= 1.00D-01 BMatC= 2.46D-07 BMatP= 5.74D-07
 IDIUse=1 WtCom= 1.00D+00 WtEn= 0.00D+00
 Coeff-Com:  0.386D+00 0.614D+00
 Coeff:      0.386D+00 0.614D+00
 Gap=     0.429 Goal=   None    Shift=    0.000
 RMSDP=9.32D-07 MaxDP=3.54D-05 DE=-3.46D-07 OVMax= 1.67D-04

 Cycle   8  Pass 1  IDiag  1:
 E= -132.529426081814     Delta-E=       -0.000000211978 Rises=F Damp=F
 DIIS: error= 1.76D-05 at cycle   3 NSaved=   3.
 NSaved= 3 IEnMin= 3 EnMin= -132.529426081814     IErMin= 3 ErrMin= 1.76D-05
 ErrMax= 1.76D-05  0.00D+00 EMaxC= 1.00D-01 BMatC= 1.92D-08 BMatP= 2.46D-07
 IDIUse=1 WtCom= 1.00D+00 WtEn= 0.00D+00
 Coeff-Com:  0.993D-01 0.248D+00 0.653D+00
 Coeff:      0.993D-01 0.248D+00 0.653D+00
 Gap=     0.429 Goal=   None    Shift=    0.000
 RMSDP=5.41D-07 MaxDP=2.40D-05 DE=-2.12D-07 OVMax= 5.83D-05

 Cycle   9  Pass 1  IDiag  1:
 E= -132.529426093311     Delta-E=       -0.000000011497 Rises=F Damp=F
 DIIS: error= 9.73D-06 at cycle   4 NSaved=   4.
 NSaved= 4 IEnMin= 4 EnMin= -132.529426093311     IErMin= 4 ErrMin= 9.73D-06
 ErrMax= 9.73D-06  0.00D+00 EMaxC= 1.00D-01 BMatC= 6.36D-09 BMatP= 1.92D-08
 IDIUse=1 WtCom= 1.00D+00 WtEn= 0.00D+00
 Coeff-Com: -0.578D-01-0.291D-01 0.400D+00 0.687D+00
 Coeff:     -0.578D-01-0.291D-01 0.400D+00 0.687D+00
 Gap=     0.429 Goal=   None    Shift=    0.000
 RMSDP=2.60D-07 MaxDP=1.24D-05 DE=-1.15D-08 OVMax= 3.36D-05

 Cycle  10  Pass 1  IDiag  1:
 E= -132.529426099291     Delta-E=       -0.000000005980 Rises=F Damp=F
 DIIS: error= 1.02D-06 at cycle   5 NSaved=   5.
 NSaved= 5 IEnMin= 5 EnMin= -132.529426099291     IErMin= 5 ErrMin= 1.02D-06
 ErrMax= 1.02D-06  0.00D+00 EMaxC= 1.00D-01 BMatC= 7.36D-11 BMatP= 6.36D-09
 IDIUse=1 WtCom= 1.00D+00 WtEn= 0.00D+00
 Coeff-Com: -0.179D-01-0.169D-01 0.614D-01 0.169D+00 0.804D+00
 Coeff:     -0.179D-01-0.169D-01 0.614D-01 0.169D+00 0.804D+00
 Gap=     0.429 Goal=   None    Shift=    0.000
 RMSDP=4.22D-08 MaxDP=2.17D-06 DE=-5.98D-09 OVMax= 3.20D-06

 Cycle  11  Pass 1  IDiag  1:
 E= -132.529426099358     Delta-E=       -0.000000000068 Rises=F Damp=F
 DIIS: error= 2.34D-07 at cycle   6 NSaved=   6.
 NSaved= 6 IEnMin= 6 EnMin= -132.529426099358     IErMin= 6 ErrMin= 2.34D-07
 ErrMax= 2.34D-07  0.00D+00 EMaxC= 1.00D-01 BMatC= 5.01D-12 BMatP= 7.36D-11
 IDIUse=1 WtCom= 1.00D+00 WtEn= 0.00D+00
 Coeff-Com:  0.196D-02-0.449D-03-0.278D-01-0.217D-01 0.167D+00 0.881D+00
 Coeff:      0.196D-02-0.449D-03-0.278D-01-0.217D-01 0.167D+00 0.881D+00
 Gap=     0.429 Goal=   None    Shift=    0.000
 RMSDP=8.51D-09 MaxDP=3.66D-07 DE=-6.75D-11 OVMax= 1.03D-06

 SCF Done:  E(RB2PLYPD3) =  -132.529426099     A.U. after   11 cycles
            NFock= 11  Conv=0.85D-08     -V/T= 2.0018
 KE= 1.322856900034D+02 PE=-4.272183244590D+02 EE= 1.031763486824D+02
 Leave Link  502 at Wed Aug 26 15:31:36 2020, MaxMem=  2097152000 cpu:       106.2
 (Enter /opt/cluster/programs/g09/g09_d.01/g09/l801.exe)
 DoSCS=T DFT=T ScalE2(SS,OS)=  0.270000  0.270000
 ExpMin= 7.60D-02 ExpMax= 9.07D+04 ExpMxC= 8.76D+02 IAcc=3 IRadAn=         5 AccDes= 0.00D+00
 HarFok:  IExCor=  205 AccDes= 0.00D+00 IRadAn=         5 IDoV=-2 UseB2=F ITyADJ=14
 ICtDFT= 12500011 ScaDFX=  1.000000  1.000000  1.000000  1.000000
 Largest valence mixing into a core orbital is  1.16D-04
 Largest core mixing into a valence orbital is  1.91D-05
 Range of M.O.s used for correlation:     4   261
 NBasis=   261 NAE=    11 NBE=    11 NFC=     3 NFV=     0
 NROrb=    258 NOA=     8 NOB=     8 NVA=   250 NVB=   250

 **** Warning!!: The largest alpha MO coefficient is  0.32120228D+02

 Leave Link  801 at Wed Aug 26 15:31:36 2020, MaxMem=  2097152000 cpu:         0.7
 (Enter /opt/cluster/programs/g09/g09_d.01/g09/l906.exe)
 DoSCS=T DFT=T ScalE2(SS,OS)=  0.270000  0.270000
 FulOut=F Deriv=F AODrv=F NAtomX=     6
   MMem=        2666  MDisk=           8 MDiskD=           8
  W3Min=      642000 MinDsk=     1426009 NBas6D=         321
 NBas2D=       52689    NTT=       51681    LW2=     4508827
    MDV=  2096808953 MDiskM=       14501 NBas2p=       52191
 Fully direct method using O(OVN) memory.
 IMap=   1   2   3   4   5   6   7   8
 JobTyp=1 Pass  1:  I=   1 to   8 NPSUse=  8 ParTrn=T ParDer=T DoDerP=F.
 Spin components of T(2) and E(2):
     alpha-alpha T2 =       0.3512544442D-01 E2=     -0.2135566670D-01
     alpha-beta  T2 =       0.2040897630D+00 E2=     -0.1369265666D+00
     beta-beta   T2 =       0.3512544442D-01 E2=     -0.2135566670D-01
 The integrals were generated   1 times.
 E2(B2PLYPD3) =    -0.1796379000D+00 E(B2PLYPD3) =    -0.13270906399934D+03
 Leave Link  906 at Wed Aug 26 15:31:53 2020, MaxMem=  2097152000 cpu:       133.0
 (Enter /opt/cluster/programs/g09/g09_d.01/g09/l601.exe)
 Copying SCF densities to generalized density rwf, IOpCl= 0 IROHF=0.

 **********************************************************************

            Population analysis using the SCF density.

 **********************************************************************

 Orbital symmetries:
       Occupied  (A) (A) (A) (A) (A) (A) (A) (A) (A) (A) (A)
       Virtual   (A) (A) (A) (A) (A) (A) (A) (A) (A) (A) (A) (A)
                 (A) (A) (A) (A) (A) (A) (A) (A) (A) (A) (A) (A)
                 (A) (A) (A) (A) (A) (A) (A) (A) (A) (A) (A) (A)
                 (A) (A) (A) (A) (A) (A) (A) (A) (A) (A) (A) (A)
                 (A) (A) (A) (A) (A) (A) (A) (A) (A) (A) (A) (A)
                 (A) (A) (A) (A) (A) (A) (A) (A) (A) (A) (A) (A)
                 (A) (A) (A) (A) (A) (A) (A) (A) (A) (A) (A) (A)
                 (A) (A) (A) (A) (A) (A) (A) (A) (A) (A) (A) (A)
                 (A) (A) (A) (A) (A) (A) (A) (A) (A) (A) (A) (A)
                 (A) (A) (A) (A) (A) (A) (A) (A) (A) (A) (A) (A)
                 (A) (A) (A) (A) (A) (A) (A) (A) (A) (A) (A) (A)
                 (A) (A) (A) (A) (A) (A) (A) (A) (A) (A) (A) (A)
                 (A) (A) (A) (A) (A) (A) (A) (A) (A) (A) (A) (A)
                 (A) (A) (A) (A) (A) (A) (A) (A) (A) (A) (A) (A)
                 (A) (A) (A) (A) (A) (A) (A) (A) (A) (A) (A) (A)
                 (A) (A) (A) (A) (A) (A) (A) (A) (A) (A) (A) (A)
                 (A) (A) (A) (A) (A) (A) (A) (A) (A) (A) (A) (A)
                 (A) (A) (A) (A) (A) (A) (A) (A) (A) (A) (A) (A)
                 (A) (A) (A) (A) (A) (A) (A) (A) (A) (A) (A) (A)
                 (A) (A) (A) (A) (A) (A) (A) (A) (A) (A) (A) (A)
                 (A) (A) (A) (A) (A) (A) (A) (A) (A) (A)
 The electronic state is 1-A.
 Alpha  occ. eigenvalues --  -14.84021 -10.66028 -10.65661  -1.04285  -0.90413
 Alpha  occ. eigenvalues --   -0.60223  -0.56695  -0.53331  -0.44744  -0.39387
 Alpha  occ. eigenvalues --   -0.39022
 Alpha virt. eigenvalues --    0.03904   0.08047   0.08965   0.10199   0.11143
 Alpha virt. eigenvalues --    0.11685   0.15545   0.16276   0.16549   0.20005
 Alpha virt. eigenvalues --    0.20174   0.25451   0.33108   0.34548   0.36064
 Alpha virt. eigenvalues --    0.39464   0.40147   0.40578   0.40832   0.47652
 Alpha virt. eigenvalues --    0.50991   0.52555   0.58695   0.60585   0.61387
 Alpha virt. eigenvalues --    0.66319   0.68222   0.70262   0.70302   0.78862
 Alpha virt. eigenvalues --    0.79323   0.82510   0.82969   0.84198   0.87150
 Alpha virt. eigenvalues --    0.91422   0.92792   0.95829   0.96238   0.98975
 Alpha virt. eigenvalues --    1.05757   1.07457   1.10933   1.12745   1.13792
 Alpha virt. eigenvalues --    1.14270   1.22749   1.22977   1.25888   1.35222
 Alpha virt. eigenvalues --    1.36479   1.46427   1.50157   1.53408   1.56327
 Alpha virt. eigenvalues --    1.65496   1.66571   1.71347   1.75860   1.77727
 Alpha virt. eigenvalues --    1.78729   1.78749   1.86987   1.90106   1.92168
 Alpha virt. eigenvalues --    1.94973   1.99110   1.99737   2.01208   2.02855
 Alpha virt. eigenvalues --    2.04502   2.10781   2.15018   2.21093   2.23285
 Alpha virt. eigenvalues --    2.24031   2.25729   2.29561   2.36707   2.36937
 Alpha virt. eigenvalues --    2.43850   2.49656   2.53018   2.56549   2.58248
 Alpha virt. eigenvalues --    2.60624   2.67315   2.71059   2.71407   2.73030
 Alpha virt. eigenvalues --    2.78331   2.80885   2.88545   2.92888   2.93484
 Alpha virt. eigenvalues --    2.93852   2.97720   2.99414   3.04039   3.11687
 Alpha virt. eigenvalues --    3.13065   3.15292   3.22267   3.30828   3.36361
 Alpha virt. eigenvalues --    3.38969   3.43850   3.45105   3.50953   3.52804
 Alpha virt. eigenvalues --    3.58632   3.61067   3.76183   3.76419   3.78668
 Alpha virt. eigenvalues --    3.93890   3.97914   4.01358   4.01412   4.03780
 Alpha virt. eigenvalues --    4.05322   4.05628   4.10690   4.24832   4.26275
 Alpha virt. eigenvalues --    4.57693   4.91264   4.91340   5.08799   5.11015
 Alpha virt. eigenvalues --    5.13344   5.18474   5.22372   5.23733   5.27676
 Alpha virt. eigenvalues --    5.32386   5.44744   5.46383   5.48525   5.68129
 Alpha virt. eigenvalues --    5.70063   5.87543   5.87785   5.87960   5.95245
 Alpha virt. eigenvalues --    5.96059   6.00613   6.00822   6.02128   6.06495
 Alpha virt. eigenvalues --    6.07457   6.08520   6.10951   6.14983   6.16478
 Alpha virt. eigenvalues --    6.21090   6.25091   6.26711   6.37338   6.39126
 Alpha virt. eigenvalues --    6.44378   6.46351   6.62405   6.65385   6.67130
 Alpha virt. eigenvalues --    6.68950   6.71970   6.88993   6.96517   6.97259
 Alpha virt. eigenvalues --    7.02698   7.02742   7.03592   7.05014   7.17955
 Alpha virt. eigenvalues --    7.21988   7.26676   7.37381   7.51354   7.51642
 Alpha virt. eigenvalues --    7.58012   7.59817   7.62195   7.66152   7.68177
 Alpha virt. eigenvalues --    7.73068   7.76663   7.81546   7.84594   7.86424
 Alpha virt. eigenvalues --    7.94820   7.95348   8.01973   8.15273   8.25632
 Alpha virt. eigenvalues --    8.34628   8.43963   8.45676   8.47768   8.48513
 Alpha virt. eigenvalues --    8.54251   8.54894   8.59269   8.60771   8.62504
 Alpha virt. eigenvalues --    8.64226   8.65024   8.67171   8.67716   8.75652
 Alpha virt. eigenvalues --    8.80822   8.86599   8.97650   9.00482   9.08715
 Alpha virt. eigenvalues --    9.15619   9.18628   9.22332   9.30751   9.31581
 Alpha virt. eigenvalues --    9.37514   9.47060   9.78951   9.84046   9.95508
 Alpha virt. eigenvalues --    9.98608  10.07267  10.18385  10.19225  10.22824
 Alpha virt. eigenvalues --   10.30153  10.31843  10.32919  10.64100  10.73744
 Alpha virt. eigenvalues --   10.81726  11.01107  11.28170  11.38815  11.69131
 Alpha virt. eigenvalues --   12.02397  12.04341  13.17720  13.72850  29.32605
 Alpha virt. eigenvalues --   29.63551  38.34697 149.01783 149.29340 198.27159
          Condensed to atoms (all electrons):
               1          2          3          4          5          6
     1  C    4.567952   0.305859  -0.058042   0.414264   0.419352   0.418896
     2  C    0.305859   4.838236   0.990573  -0.039169  -0.047056  -0.045630
     3  N   -0.058042   0.990573   6.275549  -0.001770  -0.000231  -0.000485
     4  H    0.414264  -0.039169  -0.001770   0.612412  -0.034471  -0.035263
     5  H    0.419352  -0.047056  -0.000231  -0.034471   0.595324  -0.030150
     6  H    0.418896  -0.045630  -0.000485  -0.035263  -0.030150   0.597173
 Mulliken charges:
               1
     1  C   -0.068282
     2  C   -0.002813
     3  N   -0.205594
     4  H    0.083998
     5  H    0.097232
     6  H    0.095460
 Sum of Mulliken charges =   0.00000
 Mulliken charges with hydrogens summed into heavy atoms:
               1
     1  C    0.208407
     2  C   -0.002813
     3  N   -0.205594
 Electronic spatial extent (au):  <R**2>=            159.4133
 Charge=              0.0000 electrons
 Dipole moment (field-independent basis, Debye):
    X=              4.1312    Y=              0.0014    Z=             -0.0068  Tot=              4.1312
 Quadrupole moment (field-independent basis, Debye-Ang):
   XX=            -20.8676   YY=            -17.5135   ZZ=            -17.8454
   XY=             -0.0575   XZ=              0.2120   YZ=              0.0046
 Traceless Quadrupole moment (field-independent basis, Debye-Ang):
   XX=             -2.1254   YY=              1.2287   ZZ=              0.8968
   XY=             -0.0575   XZ=              0.2120   YZ=              0.0046
 Octapole moment (field-independent basis, Debye-Ang**2):
  XXX=             13.3469  YYY=              0.1689  ZZZ=              0.6519  XYY=              2.4533
  XXY=             -0.1003  XXZ=              0.3609  XZZ=              2.0707  YZZ=             -0.1727
  YYZ=             -0.6508  XYZ=              0.0057
 Hexadecapole moment (field-independent basis, Debye-Ang**3):
 XXXX=           -178.3977 YYYY=            -23.4398 ZZZZ=            -24.0639 XXXY=             -0.2708
 XXXZ=              0.9893 YYYX=              0.2633 YYYZ=              0.0517 ZZZX=              1.1580
 ZZZY=             -0.0331 XXYY=            -30.4066 XXZZ=            -30.8413 YYZZ=             -8.0289
 XXYZ=              0.0079 YYXZ=             -1.0661 ZZXY=             -0.2950
 N-N= 5.922685967390D+01 E-N=-4.272183075078D+02  KE= 1.322856900034D+02
 Leave Link  601 at Wed Aug 26 15:31:54 2020, MaxMem=  2097152000 cpu:         0.4
 (Enter /opt/cluster/programs/g09/g09_d.01/g09/l9999.exe)
 1\1\GINC-NODE05\SP\RB2PLYPD3-FC\def2QZVP\C2H3N1\BOITTIER\26-Aug-2020\0
 \\#p B2PLYPD3/Def2QZVP\\cyanomethane\\0,1\C,0,-6.595003,-1.114956,1.16
 1708\C,0,-5.205639,-0.795925,0.884024\N,0,-4.09773,-0.535214,0.716718\
 H,0,-6.791757,-1.22713,2.225998\H,0,-6.806081,-2.013135,0.731903\H,0,-
 7.187455,-0.327178,0.863948\\Version=ES64L-G09RevD.01\State=1-A\HF=-13
 2.5294261\MP2=-132.709064\RMSD=8.511e-09\PG=C01 [X(C2H3N1)]\\@


 NEVER TEACH A PIG TO SING.
 IT WASTES YOUR TIME AND ANNOYS THE PIG.
     -- SEEN ON A GREETING CARD
 Job cpu time:       0 days  0 hours  4 minutes  9.2 seconds.
 File lengths (MBytes):  RWF=     28 Int=      0 D2E=      0 Chk=      5 Scr=      1
 Normal termination of Gaussian 09 at Wed Aug 26 15:31:56 2020.
