 Entering Gaussian System, Link 0=/opt/cluster/programs/g09/g09_d.01/g09//g09
 Input=/home/boittier/MDCM/nms_sampling/cyanomethane_geom.xyz.dir/energies/cyanomethane_384_energy.com
 Output=/scratch/boittier/cyanomethane_384_energy/cyanomethane_384_energy.out
 Initial command:
 /opt/cluster/programs/g09/g09_d.01/g09/l1.exe "/scratch/boittier/cyanomethane_384_energy/Gau-152387.inp" -scrdir="/scratch/boittier/cyanomethane_384_energy/"
 Entering Link 1 = /opt/cluster/programs/g09/g09_d.01/g09/l1.exe PID=    152398.
  
 Copyright (c) 1988,1990,1992,1993,1995,1998,2003,2009,2013,
            Gaussian, Inc.  All Rights Reserved.
  
 This is part of the Gaussian(R) 09 program.  It is based on
 the Gaussian(R) 03 system (copyright 2003, Gaussian, Inc.),
 the Gaussian(R) 98 system (copyright 1998, Gaussian, Inc.),
 the Gaussian(R) 94 system (copyright 1995, Gaussian, Inc.),
 the Gaussian 92(TM) system (copyright 1992, Gaussian, Inc.),
 the Gaussian 90(TM) system (copyright 1990, Gaussian, Inc.),
 the Gaussian 88(TM) system (copyright 1988, Gaussian, Inc.),
 the Gaussian 86(TM) system (copyright 1986, Carnegie Mellon
 University), and the Gaussian 82(TM) system (copyright 1983,
 Carnegie Mellon University). Gaussian is a federally registered
 trademark of Gaussian, Inc.
  
 This software contains proprietary and confidential information,
 including trade secrets, belonging to Gaussian, Inc.
  
 This software is provided under written license and may be
 used, copied, transmitted, or stored only in accord with that
 written license.
  
 The following legend is applicable only to US Government
 contracts under FAR:
  
                    RESTRICTED RIGHTS LEGEND
  
 Use, reproduction and disclosure by the US Government is
 subject to restrictions as set forth in subparagraphs (a)
 and (c) of the Commercial Computer Software - Restricted
 Rights clause in FAR 52.227-19.
  
 Gaussian, Inc.
 340 Quinnipiac St., Bldg. 40, Wallingford CT 06492
  
  
 ---------------------------------------------------------------
 Warning -- This program may not be used in any manner that
 competes with the business of Gaussian, Inc. or will provide
 assistance to any competitor of Gaussian, Inc.  The licensee
 of this program is prohibited from giving any competitor of
 Gaussian, Inc. access to this program.  By using this program,
 the user acknowledges that Gaussian, Inc. is engaged in the
 business of creating and licensing software in the field of
 computational chemistry and represents and warrants to the
 licensee that it is not a competitor of Gaussian, Inc. and that
 it will not use this program in any manner prohibited above.
 ---------------------------------------------------------------
  

 Cite this work as:
 Gaussian 09, Revision D.01,
 M. J. Frisch, G. W. Trucks, H. B. Schlegel, G. E. Scuseria, 
 M. A. Robb, J. R. Cheeseman, G. Scalmani, V. Barone, B. Mennucci, 
 G. A. Petersson, H. Nakatsuji, M. Caricato, X. Li, H. P. Hratchian, 
 A. F. Izmaylov, J. Bloino, G. Zheng, J. L. Sonnenberg, M. Hada, 
 M. Ehara, K. Toyota, R. Fukuda, J. Hasegawa, M. Ishida, T. Nakajima, 
 Y. Honda, O. Kitao, H. Nakai, T. Vreven, J. A. Montgomery, Jr., 
 J. E. Peralta, F. Ogliaro, M. Bearpark, J. J. Heyd, E. Brothers, 
 K. N. Kudin, V. N. Staroverov, T. Keith, R. Kobayashi, J. Normand, 
 K. Raghavachari, A. Rendell, J. C. Burant, S. S. Iyengar, J. Tomasi, 
 M. Cossi, N. Rega, J. M. Millam, M. Klene, J. E. Knox, J. B. Cross, 
 V. Bakken, C. Adamo, J. Jaramillo, R. Gomperts, R. E. Stratmann, 
 O. Yazyev, A. J. Austin, R. Cammi, C. Pomelli, J. W. Ochterski, 
 R. L. Martin, K. Morokuma, V. G. Zakrzewski, G. A. Voth, 
 P. Salvador, J. J. Dannenberg, S. Dapprich, A. D. Daniels, 
 O. Farkas, J. B. Foresman, J. V. Ortiz, J. Cioslowski, 
 and D. J. Fox, Gaussian, Inc., Wallingford CT, 2013.
 
 ******************************************
 Gaussian 09:  ES64L-G09RevD.01 24-Apr-2013
                26-Aug-2020 
 ******************************************
 %chk=/home/boittier/MDCM/nms_sampling/cyanomethane_geom.xyz.dir/cyanomethane_384
 .chk
 %nproc=8
 Will use up to    8 processors via shared memory.
 %mem=16000MB
 --------------------
 #p B2PLYPD3/Def2QZVP
 --------------------
 1/38=1/1;
 2/12=2,17=6,18=5,40=1/2;
 3/5=45,7=101,11=9,16=1,25=1,30=1,74=-60/1,2,3;
 4//1;
 5/5=2,38=5/2;
 8/10=1/1;
 9/16=-3/6;
 6/7=2,8=2,9=2,10=2/1;
 99/5=1,9=1/99;
 Leave Link    1 at Wed Aug 26 23:54:23 2020, MaxMem=  2097152000 cpu:         0.3
 (Enter /opt/cluster/programs/g09/g09_d.01/g09/l101.exe)
 ------------
 cyanomethane
 ------------
 Symbolic Z-matrix:
 Charge =  0 Multiplicity = 1
 C                    -6.59249  -1.11784   1.17505 
 C                    -5.20239  -0.7748    0.90938 
 N                    -4.09748  -0.54615   0.6999 
 H                    -6.74427  -1.23426   2.23694 
 H                    -6.86152  -2.06271   0.62076 
 H                    -7.25454  -0.32308   0.74502 
 
 NAtoms=      6 NQM=        6 NQMF=       0 NMMI=      0 NMMIF=      0
                NMic=       0 NMicF=      0.
                    Isotopes and Nuclear Properties:
 (Nuclear quadrupole moments (NQMom) in fm**2, nuclear magnetic moments (NMagM)
  in nuclear magnetons)

  Atom         1           2           3           4           5           6
 IAtWgt=          12          12          14           1           1           1
 AtmWgt=  12.0000000  12.0000000  14.0030740   1.0078250   1.0078250   1.0078250
 NucSpn=           0           0           2           1           1           1
 AtZEff=   0.0000000   0.0000000   0.0000000   0.0000000   0.0000000   0.0000000
 NQMom=    0.0000000   0.0000000   2.0440000   0.0000000   0.0000000   0.0000000
 NMagM=    0.0000000   0.0000000   0.4037610   2.7928460   2.7928460   2.7928460
 AtZNuc=   6.0000000   6.0000000   7.0000000   1.0000000   1.0000000   1.0000000
 Leave Link  101 at Wed Aug 26 23:54:25 2020, MaxMem=  2097152000 cpu:         0.4
 (Enter /opt/cluster/programs/g09/g09_d.01/g09/l202.exe)
                          Input orientation:                          
 ---------------------------------------------------------------------
 Center     Atomic      Atomic             Coordinates (Angstroms)
 Number     Number       Type             X           Y           Z
 ---------------------------------------------------------------------
      1          6           0       -6.592487   -1.117840    1.175047
      2          6           0       -5.202394   -0.774795    0.909384
      3          7           0       -4.097475   -0.546147    0.699899
      4          1           0       -6.744270   -1.234261    2.236943
      5          1           0       -6.861516   -2.062712    0.620757
      6          1           0       -7.254540   -0.323080    0.745015
 ---------------------------------------------------------------------
                    Distance matrix (angstroms):
                    1          2          3          4          5
     1  C    0.000000
     2  C    1.456233   0.000000
     3  N    2.603398   1.147611   0.000000
     4  H    1.078988   2.085882   3.137121   0.000000
     5  H    1.128006   2.120076   3.153753   1.819927   0.000000
     6  H    1.120217   2.107692   3.165257   1.821119   1.787800
                    6
     6  H    0.000000
 Stoichiometry    C2H3N
 Framework group  C1[X(C2H3N)]
 Deg. of freedom    12
 Full point group                 C1      NOp   1
 Largest Abelian subgroup         C1      NOp   1
 Largest concise Abelian subgroup C1      NOp   1
                         Standard orientation:                         
 ---------------------------------------------------------------------
 Center     Atomic      Atomic             Coordinates (Angstroms)
 Number     Number       Type             X           Y           Z
 ---------------------------------------------------------------------
      1          6           0       -1.174916    0.014382    0.002575
      2          6           0        0.281125    0.002590   -0.017916
      3          7           0        1.428411   -0.003870    0.008590
      4          1           0       -1.532645    1.032311    0.010678
      5          1           0       -1.545141   -0.552957    0.904494
      6          1           0       -1.558345   -0.554099   -0.883257
 ---------------------------------------------------------------------
 Rotational constants (GHZ):    152.7007334      9.2891551      9.2758489
 Leave Link  202 at Wed Aug 26 23:54:25 2020, MaxMem=  2097152000 cpu:         0.0
 (Enter /opt/cluster/programs/g09/g09_d.01/g09/l301.exe)
 Standard basis: def2QZVP (5D, 7F)
 Ernie: Thresh=  0.10000D-02 Tol=  0.10000D-05 Strict=F.
 There are   321 symmetry adapted cartesian basis functions of A   symmetry.
 There are   261 symmetry adapted basis functions of A   symmetry.
   261 basis functions,   390 primitive gaussians,   321 cartesian basis functions
    11 alpha electrons       11 beta electrons
       nuclear repulsion energy        58.5066267468 Hartrees.
 IExCor=  419 DFT=T Ex+Corr=B2PLYPD3 ExCW=0 ScaHFX=  0.530000
 ScaDFX=  0.470000  0.470000  0.730000  0.730000 ScalE2=  0.270000  0.270000
 IRadAn=      0 IRanWt=     -1 IRanGd=            0 ICorTp=0 IEmpDi=141
 NAtoms=    6 NActive=    6 NUniq=    6 SFac= 1.00D+00 NAtFMM=   60 NAOKFM=F Big=F
 Integral buffers will be    131072 words long.
 Regular integral format.
 Two-electron integral symmetry is turned on.
 R6Disp:  Grimme-D3(BJ) Dispersion energy=       -0.0021038469 Hartrees.
 Nuclear repulsion after empirical dispersion term =       58.5045228998 Hartrees.
 Leave Link  301 at Wed Aug 26 23:54:26 2020, MaxMem=  2097152000 cpu:         0.4
 (Enter /opt/cluster/programs/g09/g09_d.01/g09/l302.exe)
 NPDir=0 NMtPBC=     1 NCelOv=     1 NCel=       1 NClECP=     1 NCelD=      1
         NCelK=      1 NCelE2=     1 NClLst=     1 CellRange=     0.0.
 One-electron integrals computed using PRISM.
   1 Symmetry operations used in ECPInt.
 ECPInt:  NShTT=    3321 NPrTT=    8136 LenC2=    3292 LenP2D=    7124.
 LDataN:  DoStor=T MaxTD1= 8 Len=  415
 NBasis=   261 RedAO= T EigKep=  8.13D-05  NBF=   261
 NBsUse=   261 1.00D-06 EigRej= -1.00D+00 NBFU=   261
 Precomputing XC quadrature grid using
 IXCGrd= 4 IRadAn=           0 IRanWt=          -1 IRanGd=           0 AccXCQ= 0.00D+00.
 Generated NRdTot=       0 NPtTot=           0 NUsed=           0 NTot=          32
 NSgBfM=   321   321   321   321   321 MxSgAt=     6 MxSgA2=     6.
 Leave Link  302 at Wed Aug 26 23:54:27 2020, MaxMem=  2097152000 cpu:         2.2
 (Enter /opt/cluster/programs/g09/g09_d.01/g09/l303.exe)
 DipDrv:  MaxL=1.
 Leave Link  303 at Wed Aug 26 23:54:29 2020, MaxMem=  2097152000 cpu:         0.2
 (Enter /opt/cluster/programs/g09/g09_d.01/g09/l401.exe)
 ExpMin= 7.60D-02 ExpMax= 9.07D+04 ExpMxC= 8.76D+02 IAcc=2 IRadAn=         4 AccDes= 0.00D+00
 Harris functional with IExCor=  419 and IRadAn=       4 diagonalized for initial guess.
 HarFok:  IExCor=  419 AccDes= 0.00D+00 IRadAn=         4 IDoV= 1 UseB2=F ITyADJ=14
 ICtDFT=  3500011 ScaDFX=  1.000000  1.000000  1.000000  1.000000
 FoFCou: FMM=F IPFlag=           0 FMFlag=      100000 FMFlg1=           0
         NFxFlg=           0 DoJE=T BraDBF=F KetDBF=T FulRan=T
         wScrn=  0.000000 ICntrl=     500 IOpCl=  0 I1Cent=   200000004 NGrid=           0
         NMat0=    1 NMatS0=      1 NMatT0=    0 NMatD0=    1 NMtDS0=    0 NMtDT0=    0
 Petite list used in FoFCou.
 Harris En= -132.848723870030    
 JPrj=0 DoOrth=F DoCkMO=F.
 Leave Link  401 at Wed Aug 26 23:54:30 2020, MaxMem=  2097152000 cpu:         4.0
 (Enter /opt/cluster/programs/g09/g09_d.01/g09/l502.exe)
 Closed shell SCF:
 Using DIIS extrapolation, IDIIS=  1040.
 Integral symmetry usage will be decided dynamically.
 Keep R1 ints in memory in canonical form, NReq=601554820.
 IVT=      332521 IEndB=      332521 NGot=  2097152000 MDV=  1512290144
 LenX=  1512290144 LenY=  1512186662
 Requested convergence on RMS density matrix=1.00D-08 within 128 cycles.
 Requested convergence on MAX density matrix=1.00D-06.
 Requested convergence on             energy=1.00D-06.
 No special actions if energy rises.
 FoFCou: FMM=F IPFlag=           0 FMFlag=           0 FMFlg1=           0
         NFxFlg=           0 DoJE=F BraDBF=F KetDBF=F FulRan=T
         wScrn=  0.000000 ICntrl=     600 IOpCl=  0 I1Cent=           0 NGrid=           0
         NMat0=    1 NMatS0=  34191 NMatT0=    0 NMatD0=    1 NMtDS0=    0 NMtDT0=    0
 Symmetry not used in FoFCou.
 Integral accuracy reduced to 1.0D-05 until final iterations.

 Cycle   1  Pass 0  IDiag  1:
 E= -132.421545599432    
 DIIS: error= 2.75D-02 at cycle   1 NSaved=   1.
 NSaved= 1 IEnMin= 1 EnMin= -132.421545599432     IErMin= 1 ErrMin= 2.75D-02
 ErrMax= 2.75D-02  0.00D+00 EMaxC= 1.00D-01 BMatC= 1.88D-01 BMatP= 1.88D-01
 IDIUse=3 WtCom= 7.25D-01 WtEn= 2.75D-01
 Coeff-Com:  0.100D+01
 Coeff-En:   0.100D+01
 Coeff:      0.100D+01
 Gap=     0.458 Goal=   None    Shift=    0.000
 GapD=    0.458 DampG=2.000 DampE=0.500 DampFc=1.0000 IDamp=-1.
 RMSDP=1.32D-03 MaxDP=7.05D-02              OVMax= 1.68D-01

 Cycle   2  Pass 0  IDiag  1:
 E= -132.452232724755     Delta-E=       -0.030687125323 Rises=F Damp=F
 DIIS: error= 3.31D-02 at cycle   2 NSaved=   2.
 NSaved= 2 IEnMin= 2 EnMin= -132.452232724755     IErMin= 1 ErrMin= 2.75D-02
 ErrMax= 3.31D-02  0.00D+00 EMaxC= 1.00D-01 BMatC= 9.60D-02 BMatP= 1.88D-01
 IDIUse=3 WtCom= 6.69D-01 WtEn= 3.31D-01
 Coeff-Com:  0.400D+00 0.600D+00
 Coeff-En:   0.405D+00 0.595D+00
 Coeff:      0.402D+00 0.598D+00
 Gap=     0.435 Goal=   None    Shift=    0.000
 RMSDP=8.70D-04 MaxDP=3.57D-02 DE=-3.07D-02 OVMax= 1.23D-01

 Cycle   3  Pass 0  IDiag  1:
 E= -132.518475325501     Delta-E=       -0.066242600746 Rises=F Damp=F
 DIIS: error= 1.47D-02 at cycle   3 NSaved=   3.
 NSaved= 3 IEnMin= 3 EnMin= -132.518475325501     IErMin= 3 ErrMin= 1.47D-02
 ErrMax= 1.47D-02  0.00D+00 EMaxC= 1.00D-01 BMatC= 1.89D-02 BMatP= 9.60D-02
 IDIUse=3 WtCom= 8.53D-01 WtEn= 1.47D-01
 Coeff-Com:  0.926D-01 0.318D+00 0.589D+00
 Coeff-En:   0.000D+00 0.112D+00 0.888D+00
 Coeff:      0.790D-01 0.288D+00 0.633D+00
 Gap=     0.427 Goal=   None    Shift=    0.000
 RMSDP=2.64D-04 MaxDP=9.54D-03 DE=-6.62D-02 OVMax= 5.78D-02

 Cycle   4  Pass 0  IDiag  1:
 E= -132.531301392349     Delta-E=       -0.012826066848 Rises=F Damp=F
 DIIS: error= 5.54D-03 at cycle   4 NSaved=   4.
 NSaved= 4 IEnMin= 4 EnMin= -132.531301392349     IErMin= 4 ErrMin= 5.54D-03
 ErrMax= 5.54D-03  0.00D+00 EMaxC= 1.00D-01 BMatC= 3.02D-03 BMatP= 1.89D-02
 IDIUse=3 WtCom= 9.45D-01 WtEn= 5.54D-02
 Coeff-Com: -0.127D-01 0.525D-01 0.335D+00 0.626D+00
 Coeff-En:   0.000D+00 0.000D+00 0.149D+00 0.851D+00
 Coeff:     -0.120D-01 0.496D-01 0.324D+00 0.638D+00
 Gap=     0.427 Goal=   None    Shift=    0.000
 RMSDP=9.11D-05 MaxDP=2.84D-03 DE=-1.28D-02 OVMax= 1.56D-02

 Cycle   5  Pass 0  IDiag  1:
 E= -132.533913820189     Delta-E=       -0.002612427840 Rises=F Damp=F
 DIIS: error= 3.43D-04 at cycle   5 NSaved=   5.
 NSaved= 5 IEnMin= 5 EnMin= -132.533913820189     IErMin= 5 ErrMin= 3.43D-04
 ErrMax= 3.43D-04  0.00D+00 EMaxC= 1.00D-01 BMatC= 1.39D-05 BMatP= 3.02D-03
 IDIUse=3 WtCom= 9.97D-01 WtEn= 3.43D-03
 Coeff-Com: -0.343D-02 0.503D-02 0.480D-01 0.140D+00 0.811D+00
 Coeff-En:   0.000D+00 0.000D+00 0.000D+00 0.000D+00 0.100D+01
 Coeff:     -0.342D-02 0.501D-02 0.478D-01 0.139D+00 0.812D+00
 Gap=     0.426 Goal=   None    Shift=    0.000
 RMSDP=8.71D-06 MaxDP=3.39D-04 DE=-2.61D-03 OVMax= 1.18D-03

 Initial convergence to 1.0D-05 achieved.  Increase integral accuracy.
 Cycle   6  Pass 1  IDiag  1:
 E= -132.533923512318     Delta-E=       -0.000009692129 Rises=F Damp=F
 DIIS: error= 8.72D-05 at cycle   1 NSaved=   1.
 NSaved= 1 IEnMin= 1 EnMin= -132.533923512318     IErMin= 1 ErrMin= 8.72D-05
 ErrMax= 8.72D-05  0.00D+00 EMaxC= 1.00D-01 BMatC= 6.55D-07 BMatP= 6.55D-07
 IDIUse=1 WtCom= 1.00D+00 WtEn= 0.00D+00
 Coeff-Com:  0.100D+01
 Coeff:      0.100D+01
 Gap=     0.427 Goal=   None    Shift=    0.000
 RMSDP=8.71D-06 MaxDP=3.39D-04 DE=-9.69D-06 OVMax= 4.07D-04

 Cycle   7  Pass 1  IDiag  1:
 E= -132.533923897237     Delta-E=       -0.000000384919 Rises=F Damp=F
 DIIS: error= 5.31D-05 at cycle   2 NSaved=   2.
 NSaved= 2 IEnMin= 2 EnMin= -132.533923897237     IErMin= 2 ErrMin= 5.31D-05
 ErrMax= 5.31D-05  0.00D+00 EMaxC= 1.00D-01 BMatC= 3.07D-07 BMatP= 6.55D-07
 IDIUse=1 WtCom= 1.00D+00 WtEn= 0.00D+00
 Coeff-Com:  0.399D+00 0.601D+00
 Coeff:      0.399D+00 0.601D+00
 Gap=     0.426 Goal=   None    Shift=    0.000
 RMSDP=1.03D-06 MaxDP=3.98D-05 DE=-3.85D-07 OVMax= 1.70D-04

 Cycle   8  Pass 1  IDiag  1:
 E= -132.533924164464     Delta-E=       -0.000000267227 Rises=F Damp=F
 DIIS: error= 1.48D-05 at cycle   3 NSaved=   3.
 NSaved= 3 IEnMin= 3 EnMin= -132.533924164464     IErMin= 3 ErrMin= 1.48D-05
 ErrMax= 1.48D-05  0.00D+00 EMaxC= 1.00D-01 BMatC= 2.05D-08 BMatP= 3.07D-07
 IDIUse=1 WtCom= 1.00D+00 WtEn= 0.00D+00
 Coeff-Com:  0.108D+00 0.239D+00 0.652D+00
 Coeff:      0.108D+00 0.239D+00 0.652D+00
 Gap=     0.426 Goal=   None    Shift=    0.000
 RMSDP=5.76D-07 MaxDP=2.58D-05 DE=-2.67D-07 OVMax= 5.59D-05

 Cycle   9  Pass 1  IDiag  1:
 E= -132.533924176744     Delta-E=       -0.000000012280 Rises=F Damp=F
 DIIS: error= 1.07D-05 at cycle   4 NSaved=   4.
 NSaved= 4 IEnMin= 4 EnMin= -132.533924176744     IErMin= 4 ErrMin= 1.07D-05
 ErrMax= 1.07D-05  0.00D+00 EMaxC= 1.00D-01 BMatC= 6.99D-09 BMatP= 2.05D-08
 IDIUse=1 WtCom= 1.00D+00 WtEn= 0.00D+00
 Coeff-Com: -0.584D-01-0.356D-01 0.399D+00 0.695D+00
 Coeff:     -0.584D-01-0.356D-01 0.399D+00 0.695D+00
 Gap=     0.426 Goal=   None    Shift=    0.000
 RMSDP=2.87D-07 MaxDP=1.40D-05 DE=-1.23D-08 OVMax= 3.28D-05

 Cycle  10  Pass 1  IDiag  1:
 E= -132.533924183240     Delta-E=       -0.000000006496 Rises=F Damp=F
 DIIS: error= 1.03D-06 at cycle   5 NSaved=   5.
 NSaved= 5 IEnMin= 5 EnMin= -132.533924183240     IErMin= 5 ErrMin= 1.03D-06
 ErrMax= 1.03D-06  0.00D+00 EMaxC= 1.00D-01 BMatC= 9.53D-11 BMatP= 6.99D-09
 IDIUse=1 WtCom= 1.00D+00 WtEn= 0.00D+00
 Coeff-Com: -0.220D-01-0.202D-01 0.894D-01 0.214D+00 0.738D+00
 Coeff:     -0.220D-01-0.202D-01 0.894D-01 0.214D+00 0.738D+00
 Gap=     0.426 Goal=   None    Shift=    0.000
 RMSDP=4.46D-08 MaxDP=2.26D-06 DE=-6.50D-09 OVMax= 3.37D-06

 Cycle  11  Pass 1  IDiag  1:
 E= -132.533924183322     Delta-E=       -0.000000000082 Rises=F Damp=F
 DIIS: error= 1.92D-07 at cycle   6 NSaved=   6.
 NSaved= 6 IEnMin= 6 EnMin= -132.533924183322     IErMin= 6 ErrMin= 1.92D-07
 ErrMax= 1.92D-07  0.00D+00 EMaxC= 1.00D-01 BMatC= 4.31D-12 BMatP= 9.53D-11
 IDIUse=1 WtCom= 1.00D+00 WtEn= 0.00D+00
 Coeff-Com:  0.170D-02 0.327D-05-0.242D-01-0.181D-01 0.122D+00 0.918D+00
 Coeff:      0.170D-02 0.327D-05-0.242D-01-0.181D-01 0.122D+00 0.918D+00
 Gap=     0.426 Goal=   None    Shift=    0.000
 RMSDP=9.55D-09 MaxDP=4.87D-07 DE=-8.16D-11 OVMax= 6.26D-07

 SCF Done:  E(RB2PLYPD3) =  -132.533924183     A.U. after   11 cycles
            NFock= 11  Conv=0.96D-08     -V/T= 2.0039
 KE= 1.320126574165D+02 PE=-4.256039520934D+02 EE= 1.025528475937D+02
 Leave Link  502 at Wed Aug 26 23:55:04 2020, MaxMem=  2097152000 cpu:       184.8
 (Enter /opt/cluster/programs/g09/g09_d.01/g09/l801.exe)
 DoSCS=T DFT=T ScalE2(SS,OS)=  0.270000  0.270000
 ExpMin= 7.60D-02 ExpMax= 9.07D+04 ExpMxC= 8.76D+02 IAcc=3 IRadAn=         5 AccDes= 0.00D+00
 HarFok:  IExCor=  205 AccDes= 0.00D+00 IRadAn=         5 IDoV=-2 UseB2=F ITyADJ=14
 ICtDFT= 12500011 ScaDFX=  1.000000  1.000000  1.000000  1.000000
 Largest valence mixing into a core orbital is  1.16D-04
 Largest core mixing into a valence orbital is  1.90D-05
 Range of M.O.s used for correlation:     4   261
 NBasis=   261 NAE=    11 NBE=    11 NFC=     3 NFV=     0
 NROrb=    258 NOA=     8 NOB=     8 NVA=   250 NVB=   250

 **** Warning!!: The largest alpha MO coefficient is  0.29378116D+02

 Leave Link  801 at Wed Aug 26 23:55:06 2020, MaxMem=  2097152000 cpu:         0.9
 (Enter /opt/cluster/programs/g09/g09_d.01/g09/l906.exe)
 DoSCS=T DFT=T ScalE2(SS,OS)=  0.270000  0.270000
 FulOut=F Deriv=F AODrv=F NAtomX=     6
   MMem=        2666  MDisk=           8 MDiskD=           8
  W3Min=      642000 MinDsk=     1426009 NBas6D=         321
 NBas2D=       52689    NTT=       51681    LW2=     4508827
    MDV=  2096809419 MDiskM=       14501 NBas2p=       52131
 Fully direct method using O(OVN) memory.
 IMap=   1   2   3   4   5   6   7   8
 JobTyp=1 Pass  1:  I=   1 to   8 NPSUse=  8 ParTrn=T ParDer=T DoDerP=F.
 Spin components of T(2) and E(2):
     alpha-alpha T2 =       0.3547410817D-01 E2=     -0.2135009106D-01
     alpha-beta  T2 =       0.2081635694D+00 E2=     -0.1374377634D+00
     beta-beta   T2 =       0.3547410817D-01 E2=     -0.2135009106D-01
 The integrals were generated   1 times.
 E2(B2PLYPD3) =    -0.1801379455D+00 E(B2PLYPD3) =    -0.13271406212881D+03
 Leave Link  906 at Wed Aug 26 23:55:25 2020, MaxMem=  2097152000 cpu:       142.0
 (Enter /opt/cluster/programs/g09/g09_d.01/g09/l601.exe)
 Copying SCF densities to generalized density rwf, IOpCl= 0 IROHF=0.

 **********************************************************************

            Population analysis using the SCF density.

 **********************************************************************

 Orbital symmetries:
       Occupied  (A) (A) (A) (A) (A) (A) (A) (A) (A) (A) (A)
       Virtual   (A) (A) (A) (A) (A) (A) (A) (A) (A) (A) (A) (A)
                 (A) (A) (A) (A) (A) (A) (A) (A) (A) (A) (A) (A)
                 (A) (A) (A) (A) (A) (A) (A) (A) (A) (A) (A) (A)
                 (A) (A) (A) (A) (A) (A) (A) (A) (A) (A) (A) (A)
                 (A) (A) (A) (A) (A) (A) (A) (A) (A) (A) (A) (A)
                 (A) (A) (A) (A) (A) (A) (A) (A) (A) (A) (A) (A)
                 (A) (A) (A) (A) (A) (A) (A) (A) (A) (A) (A) (A)
                 (A) (A) (A) (A) (A) (A) (A) (A) (A) (A) (A) (A)
                 (A) (A) (A) (A) (A) (A) (A) (A) (A) (A) (A) (A)
                 (A) (A) (A) (A) (A) (A) (A) (A) (A) (A) (A) (A)
                 (A) (A) (A) (A) (A) (A) (A) (A) (A) (A) (A) (A)
                 (A) (A) (A) (A) (A) (A) (A) (A) (A) (A) (A) (A)
                 (A) (A) (A) (A) (A) (A) (A) (A) (A) (A) (A) (A)
                 (A) (A) (A) (A) (A) (A) (A) (A) (A) (A) (A) (A)
                 (A) (A) (A) (A) (A) (A) (A) (A) (A) (A) (A) (A)
                 (A) (A) (A) (A) (A) (A) (A) (A) (A) (A) (A) (A)
                 (A) (A) (A) (A) (A) (A) (A) (A) (A) (A) (A) (A)
                 (A) (A) (A) (A) (A) (A) (A) (A) (A) (A) (A) (A)
                 (A) (A) (A) (A) (A) (A) (A) (A) (A) (A) (A) (A)
                 (A) (A) (A) (A) (A) (A) (A) (A) (A) (A) (A) (A)
                 (A) (A) (A) (A) (A) (A) (A) (A) (A) (A)
 The electronic state is 1-A.
 Alpha  occ. eigenvalues --  -14.83958 -10.67686 -10.66006  -1.04372  -0.88828
 Alpha  occ. eigenvalues --   -0.59239  -0.54529  -0.52652  -0.44728  -0.39290
 Alpha  occ. eigenvalues --   -0.38989
 Alpha virt. eigenvalues --    0.03645   0.07580   0.08078   0.10176   0.11418
 Alpha virt. eigenvalues --    0.11782   0.15353   0.16085   0.16500   0.20005
 Alpha virt. eigenvalues --    0.20111   0.25371   0.32631   0.33677   0.34897
 Alpha virt. eigenvalues --    0.38434   0.39713   0.40169   0.40259   0.47062
 Alpha virt. eigenvalues --    0.50539   0.51520   0.58799   0.59873   0.61465
 Alpha virt. eigenvalues --    0.66808   0.67310   0.68929   0.70221   0.79158
 Alpha virt. eigenvalues --    0.79413   0.81969   0.82153   0.83435   0.86678
 Alpha virt. eigenvalues --    0.92605   0.93345   0.96267   0.96530   0.97310
 Alpha virt. eigenvalues --    1.06124   1.06406   1.08225   1.11609   1.13119
 Alpha virt. eigenvalues --    1.14609   1.22306   1.23042   1.23392   1.34922
 Alpha virt. eigenvalues --    1.35174   1.43446   1.46525   1.48070   1.53503
 Alpha virt. eigenvalues --    1.65147   1.66388   1.70201   1.73632   1.78087
 Alpha virt. eigenvalues --    1.78880   1.79228   1.89313   1.92794   1.93361
 Alpha virt. eigenvalues --    1.94226   1.99144   1.99194   2.00915   2.04736
 Alpha virt. eigenvalues --    2.06656   2.11482   2.14721   2.19336   2.20282
 Alpha virt. eigenvalues --    2.21582   2.23718   2.24320   2.34240   2.35736
 Alpha virt. eigenvalues --    2.42464   2.50265   2.51795   2.56206   2.59694
 Alpha virt. eigenvalues --    2.60579   2.67185   2.70130   2.72316   2.74199
 Alpha virt. eigenvalues --    2.76470   2.76613   2.86363   2.87804   2.89381
 Alpha virt. eigenvalues --    2.91325   2.92511   2.94323   2.95726   3.03900
 Alpha virt. eigenvalues --    3.08806   3.11165   3.21317   3.24429   3.31990
 Alpha virt. eigenvalues --    3.32822   3.35322   3.38853   3.40380   3.45794
 Alpha virt. eigenvalues --    3.54167   3.56263   3.69998   3.73644   3.74437
 Alpha virt. eigenvalues --    3.86473   3.87559   3.89666   3.93624   3.96654
 Alpha virt. eigenvalues --    4.02222   4.04843   4.05383   4.24662   4.25425
 Alpha virt. eigenvalues --    4.56783   4.91013   4.91209   5.08834   5.11379
 Alpha virt. eigenvalues --    5.13046   5.16405   5.19627   5.20105   5.21901
 Alpha virt. eigenvalues --    5.29053   5.44002   5.44214   5.47607   5.64930
 Alpha virt. eigenvalues --    5.66382   5.84885   5.85816   5.91208   5.92620
 Alpha virt. eigenvalues --    5.92952   5.96772   5.96842   5.98866   5.98897
 Alpha virt. eigenvalues --    6.01426   6.03716   6.04482   6.06619   6.13137
 Alpha virt. eigenvalues --    6.14601   6.18289   6.18830   6.25763   6.29350
 Alpha virt. eigenvalues --    6.39251   6.40530   6.46357   6.56661   6.57679
 Alpha virt. eigenvalues --    6.59412   6.62426   6.86337   6.90096   6.93707
 Alpha virt. eigenvalues --    6.95637   7.02848   7.02856   7.04760   7.10183
 Alpha virt. eigenvalues --    7.14499   7.18881   7.24373   7.34988   7.43373
 Alpha virt. eigenvalues --    7.46013   7.52154   7.53926   7.55598   7.56414
 Alpha virt. eigenvalues --    7.67004   7.71910   7.72781   7.82209   7.84815
 Alpha virt. eigenvalues --    7.84910   7.91905   7.92811   7.97511   8.25088
 Alpha virt. eigenvalues --    8.29157   8.32093   8.38375   8.39071   8.42164
 Alpha virt. eigenvalues --    8.44961   8.47109   8.50465   8.52837   8.55651
 Alpha virt. eigenvalues --    8.58691   8.62774   8.66501   8.66923   8.67036
 Alpha virt. eigenvalues --    8.69902   8.81845   8.83107   8.84297   8.96178
 Alpha virt. eigenvalues --    9.03252   9.06827   9.11563   9.13276   9.17340
 Alpha virt. eigenvalues --    9.25176   9.26524   9.69184   9.70772   9.74430
 Alpha virt. eigenvalues --    9.77813   9.85664   9.89511   9.90539  10.00149
 Alpha virt. eigenvalues --   10.08354  10.15851  10.18778  10.23128  10.30060
 Alpha virt. eigenvalues --   10.43789  10.52638  11.38992  11.79317  11.88781
 Alpha virt. eigenvalues --   12.05116  12.07774  13.08573  13.39098  29.13566
 Alpha virt. eigenvalues --   29.54739  38.34203 148.77864 149.18675 198.26630
          Condensed to atoms (all electrons):
               1          2          3          4          5          6
     1  C    4.622818   0.298471  -0.058989   0.413895   0.410258   0.408390
     2  C    0.298471   4.840306   0.994081  -0.044439  -0.043331  -0.042811
     3  N   -0.058989   0.994081   6.269700  -0.000480  -0.001288  -0.000701
     4  H    0.413895  -0.044439  -0.000480   0.581019  -0.027581  -0.027498
     5  H    0.410258  -0.043331  -0.001288  -0.027581   0.594548  -0.029933
     6  H    0.408390  -0.042811  -0.000701  -0.027498  -0.029933   0.595519
 Mulliken charges:
               1
     1  C   -0.094843
     2  C   -0.002277
     3  N   -0.202324
     4  H    0.105083
     5  H    0.097328
     6  H    0.097034
 Sum of Mulliken charges =   0.00000
 Mulliken charges with hydrogens summed into heavy atoms:
               1
     1  C    0.204601
     2  C   -0.002277
     3  N   -0.202324
 Electronic spatial extent (au):  <R**2>=            161.6439
 Charge=              0.0000 electrons
 Dipole moment (field-independent basis, Debye):
    X=             -4.1016    Y=             -0.0082    Z=             -0.0113  Tot=              4.1017
 Quadrupole moment (field-independent basis, Debye-Ang):
   XX=            -21.1323   YY=            -17.6084   ZZ=            -17.8412
   XY=              0.0779   XZ=             -0.0437   YZ=              0.0065
 Traceless Quadrupole moment (field-independent basis, Debye-Ang):
   XX=             -2.2717   YY=              1.2523   ZZ=              1.0194
   XY=              0.0779   XZ=             -0.0437   YZ=              0.0065
 Octapole moment (field-independent basis, Debye-Ang**2):
  XXX=            -12.3636  YYY=              0.8825  ZZZ=              0.0596  XYY=             -2.3634
  XXY=             -0.0971  XXZ=              0.0179  XZZ=             -2.0420  YZZ=             -0.8557
  YYZ=              0.0210  XYZ=             -0.0135
 Hexadecapole moment (field-independent basis, Debye-Ang**3):
 XXXX=           -182.5772 YYYY=            -24.8438 ZZZZ=            -25.2462 XXXY=              0.2132
 XXXZ=             -0.1381 YYYX=             -1.4130 YYYZ=              0.0335 ZZZX=             -0.0153
 ZZZY=             -0.0202 XXYY=            -30.7985 XXZZ=            -31.3001 YYZZ=             -8.2426
 XXYZ=              0.0342 YYXZ=             -0.0051 ZZXY=              1.4545
 N-N= 5.850452289984D+01 E-N=-4.256039364484D+02  KE= 1.320126574165D+02
 Leave Link  601 at Wed Aug 26 23:55:27 2020, MaxMem=  2097152000 cpu:         0.4
 (Enter /opt/cluster/programs/g09/g09_d.01/g09/l9999.exe)
 1\1\GINC-NODE14\SP\RB2PLYPD3-FC\def2QZVP\C2H3N1\BOITTIER\26-Aug-2020\0
 \\#p B2PLYPD3/Def2QZVP\\cyanomethane\\0,1\C,0,-6.592487,-1.11784,1.175
 047\C,0,-5.202394,-0.774795,0.909384\N,0,-4.097475,-0.546147,0.699899\
 H,0,-6.74427,-1.234261,2.236943\H,0,-6.861516,-2.062712,0.620757\H,0,-
 7.25454,-0.32308,0.745015\\Version=ES64L-G09RevD.01\State=1-A\HF=-132.
 5339242\MP2=-132.7140621\RMSD=9.554e-09\PG=C01 [X(C2H3N1)]\\@


 MOM AND DAD WENT TO ALPHA CENTAURI AND ALL
 I GOT WAS THIS DUMB T-SHIRT.
 Job cpu time:       0 days  0 hours  5 minutes 40.5 seconds.
 File lengths (MBytes):  RWF=     28 Int=      0 D2E=      0 Chk=      5 Scr=      1
 Normal termination of Gaussian 09 at Wed Aug 26 23:55:39 2020.
