 Entering Gaussian System, Link 0=/opt/cluster/programs/g09/g09_d.01/g09//g09
 Input=/home/boittier/MDCM/nms_sampling/cyanomethane_geom.xyz.dir/energies/cyanomethane_922_energy.com
 Output=/scratch/boittier/cyanomethane_922_energy/cyanomethane_922_energy.out
 Initial command:
 /opt/cluster/programs/g09/g09_d.01/g09/l1.exe "/scratch/boittier/cyanomethane_922_energy/Gau-220783.inp" -scrdir="/scratch/boittier/cyanomethane_922_energy/"
 Entering Link 1 = /opt/cluster/programs/g09/g09_d.01/g09/l1.exe PID=    220784.
  
 Copyright (c) 1988,1990,1992,1993,1995,1998,2003,2009,2013,
            Gaussian, Inc.  All Rights Reserved.
  
 This is part of the Gaussian(R) 09 program.  It is based on
 the Gaussian(R) 03 system (copyright 2003, Gaussian, Inc.),
 the Gaussian(R) 98 system (copyright 1998, Gaussian, Inc.),
 the Gaussian(R) 94 system (copyright 1995, Gaussian, Inc.),
 the Gaussian 92(TM) system (copyright 1992, Gaussian, Inc.),
 the Gaussian 90(TM) system (copyright 1990, Gaussian, Inc.),
 the Gaussian 88(TM) system (copyright 1988, Gaussian, Inc.),
 the Gaussian 86(TM) system (copyright 1986, Carnegie Mellon
 University), and the Gaussian 82(TM) system (copyright 1983,
 Carnegie Mellon University). Gaussian is a federally registered
 trademark of Gaussian, Inc.
  
 This software contains proprietary and confidential information,
 including trade secrets, belonging to Gaussian, Inc.
  
 This software is provided under written license and may be
 used, copied, transmitted, or stored only in accord with that
 written license.
  
 The following legend is applicable only to US Government
 contracts under FAR:
  
                    RESTRICTED RIGHTS LEGEND
  
 Use, reproduction and disclosure by the US Government is
 subject to restrictions as set forth in subparagraphs (a)
 and (c) of the Commercial Computer Software - Restricted
 Rights clause in FAR 52.227-19.
  
 Gaussian, Inc.
 340 Quinnipiac St., Bldg. 40, Wallingford CT 06492
  
  
 ---------------------------------------------------------------
 Warning -- This program may not be used in any manner that
 competes with the business of Gaussian, Inc. or will provide
 assistance to any competitor of Gaussian, Inc.  The licensee
 of this program is prohibited from giving any competitor of
 Gaussian, Inc. access to this program.  By using this program,
 the user acknowledges that Gaussian, Inc. is engaged in the
 business of creating and licensing software in the field of
 computational chemistry and represents and warrants to the
 licensee that it is not a competitor of Gaussian, Inc. and that
 it will not use this program in any manner prohibited above.
 ---------------------------------------------------------------
  

 Cite this work as:
 Gaussian 09, Revision D.01,
 M. J. Frisch, G. W. Trucks, H. B. Schlegel, G. E. Scuseria, 
 M. A. Robb, J. R. Cheeseman, G. Scalmani, V. Barone, B. Mennucci, 
 G. A. Petersson, H. Nakatsuji, M. Caricato, X. Li, H. P. Hratchian, 
 A. F. Izmaylov, J. Bloino, G. Zheng, J. L. Sonnenberg, M. Hada, 
 M. Ehara, K. Toyota, R. Fukuda, J. Hasegawa, M. Ishida, T. Nakajima, 
 Y. Honda, O. Kitao, H. Nakai, T. Vreven, J. A. Montgomery, Jr., 
 J. E. Peralta, F. Ogliaro, M. Bearpark, J. J. Heyd, E. Brothers, 
 K. N. Kudin, V. N. Staroverov, T. Keith, R. Kobayashi, J. Normand, 
 K. Raghavachari, A. Rendell, J. C. Burant, S. S. Iyengar, J. Tomasi, 
 M. Cossi, N. Rega, J. M. Millam, M. Klene, J. E. Knox, J. B. Cross, 
 V. Bakken, C. Adamo, J. Jaramillo, R. Gomperts, R. E. Stratmann, 
 O. Yazyev, A. J. Austin, R. Cammi, C. Pomelli, J. W. Ochterski, 
 R. L. Martin, K. Morokuma, V. G. Zakrzewski, G. A. Voth, 
 P. Salvador, J. J. Dannenberg, S. Dapprich, A. D. Daniels, 
 O. Farkas, J. B. Foresman, J. V. Ortiz, J. Cioslowski, 
 and D. J. Fox, Gaussian, Inc., Wallingford CT, 2013.
 
 ******************************************
 Gaussian 09:  ES64L-G09RevD.01 24-Apr-2013
                27-Aug-2020 
 ******************************************
 %chk=/home/boittier/MDCM/nms_sampling/cyanomethane_geom.xyz.dir/cyanomethane_922
 .chk
 %nproc=8
 Will use up to    8 processors via shared memory.
 %mem=16000MB
 --------------------
 #p B2PLYPD3/Def2QZVP
 --------------------
 1/38=1/1;
 2/12=2,17=6,18=5,40=1/2;
 3/5=45,7=101,11=9,16=1,25=1,30=1,74=-60/1,2,3;
 4//1;
 5/5=2,38=5/2;
 8/10=1/1;
 9/16=-3/6;
 6/7=2,8=2,9=2,10=2/1;
 99/5=1,9=1/99;
 Leave Link    1 at Thu Aug 27 00:12:12 2020, MaxMem=  2097152000 cpu:         0.4
 (Enter /opt/cluster/programs/g09/g09_d.01/g09/l101.exe)
 ------------
 cyanomethane
 ------------
 Symbolic Z-matrix:
 Charge =  0 Multiplicity = 1
 C                    -6.59572  -1.11523   1.16203 
 C                    -5.2037   -0.78787   0.91133 
 N                    -4.09576  -0.54049   0.7016 
 H                    -6.7745   -1.22301   2.24809 
 H                    -6.80643  -2.03612   0.66808 
 H                    -7.24901  -0.31946   0.79449 
 
 NAtoms=      6 NQM=        6 NQMF=       0 NMMI=      0 NMMIF=      0
                NMic=       0 NMicF=      0.
                    Isotopes and Nuclear Properties:
 (Nuclear quadrupole moments (NQMom) in fm**2, nuclear magnetic moments (NMagM)
  in nuclear magnetons)

  Atom         1           2           3           4           5           6
 IAtWgt=          12          12          14           1           1           1
 AtmWgt=  12.0000000  12.0000000  14.0030740   1.0078250   1.0078250   1.0078250
 NucSpn=           0           0           2           1           1           1
 AtZEff=   0.0000000   0.0000000   0.0000000   0.0000000   0.0000000   0.0000000
 NQMom=    0.0000000   0.0000000   2.0440000   0.0000000   0.0000000   0.0000000
 NMagM=    0.0000000   0.0000000   0.4037610   2.7928460   2.7928460   2.7928460
 AtZNuc=   6.0000000   6.0000000   7.0000000   1.0000000   1.0000000   1.0000000
 Leave Link  101 at Thu Aug 27 00:12:14 2020, MaxMem=  2097152000 cpu:         0.5
 (Enter /opt/cluster/programs/g09/g09_d.01/g09/l202.exe)
                          Input orientation:                          
 ---------------------------------------------------------------------
 Center     Atomic      Atomic             Coordinates (Angstroms)
 Number     Number       Type             X           Y           Z
 ---------------------------------------------------------------------
      1          6           0       -6.595718   -1.115228    1.162034
      2          6           0       -5.203697   -0.787867    0.911325
      3          7           0       -4.095756   -0.540487    0.701602
      4          1           0       -6.774499   -1.223013    2.248089
      5          1           0       -6.806431   -2.036116    0.668075
      6          1           0       -7.249015   -0.319457    0.794491
 ---------------------------------------------------------------------
                    Distance matrix (angstroms):
                    1          2          3          4          5
     1  C    0.000000
     2  C    1.451807   0.000000
     3  N    2.606172   1.154432   0.000000
     4  H    1.105937   2.108011   3.167511   0.000000
     5  H    1.066035   2.045984   3.096093   1.777245   0.000000
     6  H    1.093223   2.101519   3.162361   1.776099   1.777296
                    6
     6  H    0.000000
 Stoichiometry    C2H3N
 Framework group  C1[X(C2H3N)]
 Deg. of freedom    12
 Full point group                 C1      NOp   1
 Largest Abelian subgroup         C1      NOp   1
 Largest concise Abelian subgroup C1      NOp   1
                         Standard orientation:                         
 ---------------------------------------------------------------------
 Center     Atomic      Atomic             Coordinates (Angstroms)
 Number     Number       Type             X           Y           Z
 ---------------------------------------------------------------------
      1          6           0        1.175550    0.001335    0.007708
      2          6           0       -0.276188    0.001252   -0.006389
      3          7           0       -1.430607   -0.000256   -0.001056
      4          1           0        1.565440   -0.783091   -0.667390
      5          1           0        1.490251   -0.193321    1.007459
      6          1           0        1.562384    0.962680   -0.340591
 ---------------------------------------------------------------------
 Rotational constants (GHZ):    158.9460211      9.2895649      9.2895491
 Leave Link  202 at Thu Aug 27 00:12:14 2020, MaxMem=  2097152000 cpu:         0.0
 (Enter /opt/cluster/programs/g09/g09_d.01/g09/l301.exe)
 Standard basis: def2QZVP (5D, 7F)
 Ernie: Thresh=  0.10000D-02 Tol=  0.10000D-05 Strict=F.
 There are   321 symmetry adapted cartesian basis functions of A   symmetry.
 There are   261 symmetry adapted basis functions of A   symmetry.
   261 basis functions,   390 primitive gaussians,   321 cartesian basis functions
    11 alpha electrons       11 beta electrons
       nuclear repulsion energy        58.6552889072 Hartrees.
 IExCor=  419 DFT=T Ex+Corr=B2PLYPD3 ExCW=0 ScaHFX=  0.530000
 ScaDFX=  0.470000  0.470000  0.730000  0.730000 ScalE2=  0.270000  0.270000
 IRadAn=      0 IRanWt=     -1 IRanGd=            0 ICorTp=0 IEmpDi=141
 NAtoms=    6 NActive=    6 NUniq=    6 SFac= 1.00D+00 NAtFMM=   60 NAOKFM=F Big=F
 Integral buffers will be    131072 words long.
 Regular integral format.
 Two-electron integral symmetry is turned on.
 R6Disp:  Grimme-D3(BJ) Dispersion energy=       -0.0021063525 Hartrees.
 Nuclear repulsion after empirical dispersion term =       58.6531825547 Hartrees.
 Leave Link  301 at Thu Aug 27 00:12:14 2020, MaxMem=  2097152000 cpu:         0.4
 (Enter /opt/cluster/programs/g09/g09_d.01/g09/l302.exe)
 NPDir=0 NMtPBC=     1 NCelOv=     1 NCel=       1 NClECP=     1 NCelD=      1
         NCelK=      1 NCelE2=     1 NClLst=     1 CellRange=     0.0.
 One-electron integrals computed using PRISM.
   1 Symmetry operations used in ECPInt.
 ECPInt:  NShTT=    3321 NPrTT=    8136 LenC2=    3293 LenP2D=    7127.
 LDataN:  DoStor=T MaxTD1= 8 Len=  415
 NBasis=   261 RedAO= T EigKep=  8.11D-05  NBF=   261
 NBsUse=   261 1.00D-06 EigRej= -1.00D+00 NBFU=   261
 Precomputing XC quadrature grid using
 IXCGrd= 4 IRadAn=           0 IRanWt=          -1 IRanGd=           0 AccXCQ= 0.00D+00.
 Generated NRdTot=       0 NPtTot=           0 NUsed=           0 NTot=          32
 NSgBfM=   321   321   321   321   321 MxSgAt=     6 MxSgA2=     6.
 Leave Link  302 at Thu Aug 27 00:12:15 2020, MaxMem=  2097152000 cpu:         2.3
 (Enter /opt/cluster/programs/g09/g09_d.01/g09/l303.exe)
 DipDrv:  MaxL=1.
 Leave Link  303 at Thu Aug 27 00:12:16 2020, MaxMem=  2097152000 cpu:         0.2
 (Enter /opt/cluster/programs/g09/g09_d.01/g09/l401.exe)
 ExpMin= 7.60D-02 ExpMax= 9.07D+04 ExpMxC= 8.76D+02 IAcc=2 IRadAn=         4 AccDes= 0.00D+00
 Harris functional with IExCor=  419 and IRadAn=       4 diagonalized for initial guess.
 HarFok:  IExCor=  419 AccDes= 0.00D+00 IRadAn=         4 IDoV= 1 UseB2=F ITyADJ=14
 ICtDFT=  3500011 ScaDFX=  1.000000  1.000000  1.000000  1.000000
 FoFCou: FMM=F IPFlag=           0 FMFlag=      100000 FMFlg1=           0
         NFxFlg=           0 DoJE=T BraDBF=F KetDBF=T FulRan=T
         wScrn=  0.000000 ICntrl=     500 IOpCl=  0 I1Cent=   200000004 NGrid=           0
         NMat0=    1 NMatS0=      1 NMatT0=    0 NMatD0=    1 NMtDS0=    0 NMtDT0=    0
 Petite list used in FoFCou.
 Harris En= -132.852537961086    
 JPrj=0 DoOrth=F DoCkMO=F.
 Leave Link  401 at Thu Aug 27 00:12:17 2020, MaxMem=  2097152000 cpu:         4.4
 (Enter /opt/cluster/programs/g09/g09_d.01/g09/l502.exe)
 Closed shell SCF:
 Using DIIS extrapolation, IDIIS=  1040.
 Integral symmetry usage will be decided dynamically.
 Keep R1 ints in memory in canonical form, NReq=601554820.
 IVT=      332521 IEndB=      332521 NGot=  2097152000 MDV=  1512290144
 LenX=  1512290144 LenY=  1512186662
 Requested convergence on RMS density matrix=1.00D-08 within 128 cycles.
 Requested convergence on MAX density matrix=1.00D-06.
 Requested convergence on             energy=1.00D-06.
 No special actions if energy rises.
 FoFCou: FMM=F IPFlag=           0 FMFlag=           0 FMFlg1=           0
         NFxFlg=           0 DoJE=F BraDBF=F KetDBF=F FulRan=T
         wScrn=  0.000000 ICntrl=     600 IOpCl=  0 I1Cent=           0 NGrid=           0
         NMat0=    1 NMatS0=  34191 NMatT0=    0 NMatD0=    1 NMtDS0=    0 NMtDT0=    0
 Symmetry not used in FoFCou.
 Integral accuracy reduced to 1.0D-05 until final iterations.

 Cycle   1  Pass 0  IDiag  1:
 E= -132.421319159897    
 DIIS: error= 2.83D-02 at cycle   1 NSaved=   1.
 NSaved= 1 IEnMin= 1 EnMin= -132.421319159897     IErMin= 1 ErrMin= 2.83D-02
 ErrMax= 2.83D-02  0.00D+00 EMaxC= 1.00D-01 BMatC= 1.90D-01 BMatP= 1.90D-01
 IDIUse=3 WtCom= 7.17D-01 WtEn= 2.83D-01
 Coeff-Com:  0.100D+01
 Coeff-En:   0.100D+01
 Coeff:      0.100D+01
 Gap=     0.460 Goal=   None    Shift=    0.000
 GapD=    0.460 DampG=2.000 DampE=0.500 DampFc=1.0000 IDamp=-1.
 RMSDP=1.29D-03 MaxDP=6.78D-02              OVMax= 1.64D-01

 Cycle   2  Pass 0  IDiag  1:
 E= -132.455198721211     Delta-E=       -0.033879561314 Rises=F Damp=F
 DIIS: error= 3.40D-02 at cycle   2 NSaved=   2.
 NSaved= 2 IEnMin= 2 EnMin= -132.455198721211     IErMin= 1 ErrMin= 2.83D-02
 ErrMax= 3.40D-02  0.00D+00 EMaxC= 1.00D-01 BMatC= 9.43D-02 BMatP= 1.90D-01
 IDIUse=3 WtCom= 6.60D-01 WtEn= 3.40D-01
 Coeff-Com:  0.396D+00 0.604D+00
 Coeff-En:   0.394D+00 0.606D+00
 Coeff:      0.396D+00 0.604D+00
 Gap=     0.436 Goal=   None    Shift=    0.000
 RMSDP=8.52D-04 MaxDP=3.41D-02 DE=-3.39D-02 OVMax= 1.22D-01

 Cycle   3  Pass 0  IDiag  1:
 E= -132.518970202920     Delta-E=       -0.063771481709 Rises=F Damp=F
 DIIS: error= 1.51D-02 at cycle   3 NSaved=   3.
 NSaved= 3 IEnMin= 3 EnMin= -132.518970202920     IErMin= 3 ErrMin= 1.51D-02
 ErrMax= 1.51D-02  0.00D+00 EMaxC= 1.00D-01 BMatC= 1.98D-02 BMatP= 9.43D-02
 IDIUse=3 WtCom= 8.49D-01 WtEn= 1.51D-01
 Coeff-Com:  0.956D-01 0.325D+00 0.579D+00
 Coeff-En:   0.000D+00 0.126D+00 0.874D+00
 Coeff:      0.812D-01 0.295D+00 0.623D+00
 Gap=     0.427 Goal=   None    Shift=    0.000
 RMSDP=2.70D-04 MaxDP=9.81D-03 DE=-6.38D-02 OVMax= 5.93D-02

 Cycle   4  Pass 0  IDiag  1:
 E= -132.532446936401     Delta-E=       -0.013476733481 Rises=F Damp=F
 DIIS: error= 5.63D-03 at cycle   4 NSaved=   4.
 NSaved= 4 IEnMin= 4 EnMin= -132.532446936401     IErMin= 4 ErrMin= 5.63D-03
 ErrMax= 5.63D-03  0.00D+00 EMaxC= 1.00D-01 BMatC= 3.13D-03 BMatP= 1.98D-02
 IDIUse=3 WtCom= 9.44D-01 WtEn= 5.63D-02
 Coeff-Com: -0.126D-01 0.536D-01 0.332D+00 0.627D+00
 Coeff-En:   0.000D+00 0.000D+00 0.149D+00 0.851D+00
 Coeff:     -0.119D-01 0.505D-01 0.322D+00 0.640D+00
 Gap=     0.428 Goal=   None    Shift=    0.000
 RMSDP=9.27D-05 MaxDP=2.80D-03 DE=-1.35D-02 OVMax= 1.61D-02

 Cycle   5  Pass 0  IDiag  1:
 E= -132.535144544854     Delta-E=       -0.002697608453 Rises=F Damp=F
 DIIS: error= 3.09D-04 at cycle   5 NSaved=   5.
 NSaved= 5 IEnMin= 5 EnMin= -132.535144544854     IErMin= 5 ErrMin= 3.09D-04
 ErrMax= 3.09D-04  0.00D+00 EMaxC= 1.00D-01 BMatC= 1.42D-05 BMatP= 3.13D-03
 IDIUse=3 WtCom= 9.97D-01 WtEn= 3.09D-03
 Coeff-Com: -0.335D-02 0.500D-02 0.457D-01 0.136D+00 0.816D+00
 Coeff-En:   0.000D+00 0.000D+00 0.000D+00 0.000D+00 0.100D+01
 Coeff:     -0.334D-02 0.499D-02 0.456D-01 0.136D+00 0.817D+00
 Gap=     0.427 Goal=   None    Shift=    0.000
 RMSDP=8.47D-06 MaxDP=3.20D-04 DE=-2.70D-03 OVMax= 1.24D-03

 Initial convergence to 1.0D-05 achieved.  Increase integral accuracy.
 Cycle   6  Pass 1  IDiag  1:
 E= -132.535159884666     Delta-E=       -0.000015339812 Rises=F Damp=F
 DIIS: error= 9.17D-05 at cycle   1 NSaved=   1.
 NSaved= 1 IEnMin= 1 EnMin= -132.535159884666     IErMin= 1 ErrMin= 9.17D-05
 ErrMax= 9.17D-05  0.00D+00 EMaxC= 1.00D-01 BMatC= 6.27D-07 BMatP= 6.27D-07
 IDIUse=1 WtCom= 1.00D+00 WtEn= 0.00D+00
 Coeff-Com:  0.100D+01
 Coeff:      0.100D+01
 Gap=     0.428 Goal=   None    Shift=    0.000
 RMSDP=8.47D-06 MaxDP=3.20D-04 DE=-1.53D-05 OVMax= 4.03D-04

 Cycle   7  Pass 1  IDiag  1:
 E= -132.535160256216     Delta-E=       -0.000000371550 Rises=F Damp=F
 DIIS: error= 4.05D-05 at cycle   2 NSaved=   2.
 NSaved= 2 IEnMin= 2 EnMin= -132.535160256216     IErMin= 2 ErrMin= 4.05D-05
 ErrMax= 4.05D-05  0.00D+00 EMaxC= 1.00D-01 BMatC= 2.84D-07 BMatP= 6.27D-07
 IDIUse=1 WtCom= 1.00D+00 WtEn= 0.00D+00
 Coeff-Com:  0.394D+00 0.606D+00
 Coeff:      0.394D+00 0.606D+00
 Gap=     0.427 Goal=   None    Shift=    0.000
 RMSDP=1.01D-06 MaxDP=3.89D-05 DE=-3.72D-07 OVMax= 1.72D-04

 Cycle   8  Pass 1  IDiag  1:
 E= -132.535160502806     Delta-E=       -0.000000246590 Rises=F Damp=F
 DIIS: error= 1.57D-05 at cycle   3 NSaved=   3.
 NSaved= 3 IEnMin= 3 EnMin= -132.535160502806     IErMin= 3 ErrMin= 1.57D-05
 ErrMax= 1.57D-05  0.00D+00 EMaxC= 1.00D-01 BMatC= 2.06D-08 BMatP= 2.84D-07
 IDIUse=1 WtCom= 1.00D+00 WtEn= 0.00D+00
 Coeff-Com:  0.108D+00 0.247D+00 0.644D+00
 Coeff:      0.108D+00 0.247D+00 0.644D+00
 Gap=     0.427 Goal=   None    Shift=    0.000
 RMSDP=5.65D-07 MaxDP=2.55D-05 DE=-2.47D-07 OVMax= 5.91D-05

 Cycle   9  Pass 1  IDiag  1:
 E= -132.535160515299     Delta-E=       -0.000000012493 Rises=F Damp=F
 DIIS: error= 1.09D-05 at cycle   4 NSaved=   4.
 NSaved= 4 IEnMin= 4 EnMin= -132.535160515299     IErMin= 4 ErrMin= 1.09D-05
 ErrMax= 1.09D-05  0.00D+00 EMaxC= 1.00D-01 BMatC= 6.77D-09 BMatP= 2.06D-08
 IDIUse=1 WtCom= 1.00D+00 WtEn= 0.00D+00
 Coeff-Com: -0.585D-01-0.338D-01 0.395D+00 0.697D+00
 Coeff:     -0.585D-01-0.338D-01 0.395D+00 0.697D+00
 Gap=     0.427 Goal=   None    Shift=    0.000
 RMSDP=2.84D-07 MaxDP=1.34D-05 DE=-1.25D-08 OVMax= 3.47D-05

 Cycle  10  Pass 1  IDiag  1:
 E= -132.535160521676     Delta-E=       -0.000000006377 Rises=F Damp=F
 DIIS: error= 1.02D-06 at cycle   5 NSaved=   5.
 NSaved= 5 IEnMin= 5 EnMin= -132.535160521676     IErMin= 5 ErrMin= 1.02D-06
 ErrMax= 1.02D-06  0.00D+00 EMaxC= 1.00D-01 BMatC= 8.89D-11 BMatP= 6.77D-09
 IDIUse=1 WtCom= 1.00D+00 WtEn= 0.00D+00
 Coeff-Com: -0.206D-01-0.192D-01 0.769D-01 0.198D+00 0.765D+00
 Coeff:     -0.206D-01-0.192D-01 0.769D-01 0.198D+00 0.765D+00
 Gap=     0.427 Goal=   None    Shift=    0.000
 RMSDP=4.41D-08 MaxDP=2.20D-06 DE=-6.38D-09 OVMax= 3.34D-06

 Cycle  11  Pass 1  IDiag  1:
 E= -132.535160521755     Delta-E=       -0.000000000079 Rises=F Damp=F
 DIIS: error= 1.87D-07 at cycle   6 NSaved=   6.
 NSaved= 6 IEnMin= 6 EnMin= -132.535160521755     IErMin= 6 ErrMin= 1.87D-07
 ErrMax= 1.87D-07  0.00D+00 EMaxC= 1.00D-01 BMatC= 5.13D-12 BMatP= 8.89D-11
 IDIUse=1 WtCom= 1.00D+00 WtEn= 0.00D+00
 Coeff-Com:  0.213D-02 0.621D-04-0.275D-01-0.231D-01 0.138D+00 0.910D+00
 Coeff:      0.213D-02 0.621D-04-0.275D-01-0.231D-01 0.138D+00 0.910D+00
 Gap=     0.427 Goal=   None    Shift=    0.000
 RMSDP=9.88D-09 MaxDP=4.24D-07 DE=-7.88D-11 OVMax= 1.07D-06

 SCF Done:  E(RB2PLYPD3) =  -132.535160522     A.U. after   11 cycles
            NFock= 11  Conv=0.99D-08     -V/T= 2.0035
 KE= 1.320689223954D+02 PE=-4.259318957568D+02 EE= 1.026746302850D+02
 Leave Link  502 at Thu Aug 27 00:12:39 2020, MaxMem=  2097152000 cpu:        99.4
 (Enter /opt/cluster/programs/g09/g09_d.01/g09/l801.exe)
 DoSCS=T DFT=T ScalE2(SS,OS)=  0.270000  0.270000
 ExpMin= 7.60D-02 ExpMax= 9.07D+04 ExpMxC= 8.76D+02 IAcc=3 IRadAn=         5 AccDes= 0.00D+00
 HarFok:  IExCor=  205 AccDes= 0.00D+00 IRadAn=         5 IDoV=-2 UseB2=F ITyADJ=14
 ICtDFT= 12500011 ScaDFX=  1.000000  1.000000  1.000000  1.000000
 Largest valence mixing into a core orbital is  1.16D-04
 Largest core mixing into a valence orbital is  1.93D-05
 Range of M.O.s used for correlation:     4   261
 NBasis=   261 NAE=    11 NBE=    11 NFC=     3 NFV=     0
 NROrb=    258 NOA=     8 NOB=     8 NVA=   250 NVB=   250

 **** Warning!!: The largest alpha MO coefficient is  0.32700749D+02

 Leave Link  801 at Thu Aug 27 00:12:39 2020, MaxMem=  2097152000 cpu:         0.7
 (Enter /opt/cluster/programs/g09/g09_d.01/g09/l906.exe)
 DoSCS=T DFT=T ScalE2(SS,OS)=  0.270000  0.270000
 FulOut=F Deriv=F AODrv=F NAtomX=     6
   MMem=        2666  MDisk=           8 MDiskD=           8
  W3Min=      642000 MinDsk=     1426009 NBas6D=         321
 NBas2D=       52689    NTT=       51681    LW2=     4508827
    MDV=  2096809235 MDiskM=       14501 NBas2p=       52161
 Fully direct method using O(OVN) memory.
 IMap=   1   2   3   4   5   6   7   8
 JobTyp=1 Pass  1:  I=   1 to   8 NPSUse=  8 ParTrn=T ParDer=T DoDerP=F.
 Spin components of T(2) and E(2):
     alpha-alpha T2 =       0.3568038236D-01 E2=     -0.2142615952D-01
     alpha-beta  T2 =       0.2082668324D+00 E2=     -0.1375686427D+00
     beta-beta   T2 =       0.3568038236D-01 E2=     -0.2142615952D-01
 The integrals were generated   1 times.
 E2(B2PLYPD3) =    -0.1804209617D+00 E(B2PLYPD3) =    -0.13271558148348D+03
 Leave Link  906 at Thu Aug 27 00:12:53 2020, MaxMem=  2097152000 cpu:       114.0
 (Enter /opt/cluster/programs/g09/g09_d.01/g09/l601.exe)
 Copying SCF densities to generalized density rwf, IOpCl= 0 IROHF=0.

 **********************************************************************

            Population analysis using the SCF density.

 **********************************************************************

 Orbital symmetries:
       Occupied  (A) (A) (A) (A) (A) (A) (A) (A) (A) (A) (A)
       Virtual   (A) (A) (A) (A) (A) (A) (A) (A) (A) (A) (A) (A)
                 (A) (A) (A) (A) (A) (A) (A) (A) (A) (A) (A) (A)
                 (A) (A) (A) (A) (A) (A) (A) (A) (A) (A) (A) (A)
                 (A) (A) (A) (A) (A) (A) (A) (A) (A) (A) (A) (A)
                 (A) (A) (A) (A) (A) (A) (A) (A) (A) (A) (A) (A)
                 (A) (A) (A) (A) (A) (A) (A) (A) (A) (A) (A) (A)
                 (A) (A) (A) (A) (A) (A) (A) (A) (A) (A) (A) (A)
                 (A) (A) (A) (A) (A) (A) (A) (A) (A) (A) (A) (A)
                 (A) (A) (A) (A) (A) (A) (A) (A) (A) (A) (A) (A)
                 (A) (A) (A) (A) (A) (A) (A) (A) (A) (A) (A) (A)
                 (A) (A) (A) (A) (A) (A) (A) (A) (A) (A) (A) (A)
                 (A) (A) (A) (A) (A) (A) (A) (A) (A) (A) (A) (A)
                 (A) (A) (A) (A) (A) (A) (A) (A) (A) (A) (A) (A)
                 (A) (A) (A) (A) (A) (A) (A) (A) (A) (A) (A) (A)
                 (A) (A) (A) (A) (A) (A) (A) (A) (A) (A) (A) (A)
                 (A) (A) (A) (A) (A) (A) (A) (A) (A) (A) (A) (A)
                 (A) (A) (A) (A) (A) (A) (A) (A) (A) (A) (A) (A)
                 (A) (A) (A) (A) (A) (A) (A) (A) (A) (A) (A) (A)
                 (A) (A) (A) (A) (A) (A) (A) (A) (A) (A) (A) (A)
                 (A) (A) (A) (A) (A) (A) (A) (A) (A) (A) (A) (A)
                 (A) (A) (A) (A) (A) (A) (A) (A) (A) (A)
 The electronic state is 1-A.
 Alpha  occ. eigenvalues --  -14.84131 -10.67042 -10.66172  -1.04105  -0.89394
 Alpha  occ. eigenvalues --   -0.59594  -0.54675  -0.53519  -0.44746  -0.39066
 Alpha  occ. eigenvalues --   -0.38957
 Alpha virt. eigenvalues --    0.03773   0.07737   0.08161   0.10182   0.11415
 Alpha virt. eigenvalues --    0.11552   0.15413   0.16156   0.16361   0.20085
 Alpha virt. eigenvalues --    0.20119   0.25432   0.32746   0.34360   0.34912
 Alpha virt. eigenvalues --    0.38796   0.39847   0.39977   0.40581   0.47167
 Alpha virt. eigenvalues --    0.51103   0.51434   0.59393   0.59515   0.61461
 Alpha virt. eigenvalues --    0.66856   0.67617   0.69001   0.70183   0.79256
 Alpha virt. eigenvalues --    0.79311   0.82412   0.82531   0.83462   0.86666
 Alpha virt. eigenvalues --    0.92135   0.93039   0.96263   0.96443   0.97536
 Alpha virt. eigenvalues --    1.05945   1.07183   1.08399   1.12061   1.13254
 Alpha virt. eigenvalues --    1.14212   1.22760   1.22901   1.23648   1.35377
 Alpha virt. eigenvalues --    1.35812   1.45619   1.46944   1.48732   1.54328
 Alpha virt. eigenvalues --    1.65646   1.66204   1.70005   1.74488   1.78411
 Alpha virt. eigenvalues --    1.78691   1.78843   1.88780   1.92447   1.92733
 Alpha virt. eigenvalues --    1.94115   1.98874   1.99751   2.01077   2.04850
 Alpha virt. eigenvalues --    2.05961   2.12002   2.14184   2.20567   2.20716
 Alpha virt. eigenvalues --    2.22511   2.24041   2.24361   2.34971   2.36581
 Alpha virt. eigenvalues --    2.43185   2.51271   2.51465   2.57301   2.58808
 Alpha virt. eigenvalues --    2.59871   2.67243   2.70480   2.72328   2.72926
 Alpha virt. eigenvalues --    2.76990   2.78116   2.87678   2.89741   2.90133
 Alpha virt. eigenvalues --    2.93361   2.93434   2.95952   2.96876   3.06880
 Alpha virt. eigenvalues --    3.10097   3.12402   3.21517   3.28759   3.31714
 Alpha virt. eigenvalues --    3.34971   3.38245   3.39909   3.41269   3.48297
 Alpha virt. eigenvalues --    3.54606   3.57583   3.73286   3.73719   3.74826
 Alpha virt. eigenvalues --    3.88643   3.91218   3.93155   3.97167   3.97811
 Alpha virt. eigenvalues --    4.01701   4.05472   4.05595   4.25742   4.26269
 Alpha virt. eigenvalues --    4.56624   4.91143   4.91180   5.08414   5.11416
 Alpha virt. eigenvalues --    5.11508   5.19827   5.20470   5.21115   5.21952
 Alpha virt. eigenvalues --    5.30766   5.44608   5.45908   5.46674   5.65896
 Alpha virt. eigenvalues --    5.66804   5.85526   5.86632   5.91639   5.93231
 Alpha virt. eigenvalues --    5.93994   5.98279   5.99201   5.99639   6.02519
 Alpha virt. eigenvalues --    6.03281   6.05623   6.05881   6.08152   6.13485
 Alpha virt. eigenvalues --    6.20009   6.20174   6.21446   6.30495   6.31536
 Alpha virt. eigenvalues --    6.41232   6.42121   6.48500   6.57427   6.60110
 Alpha virt. eigenvalues --    6.63335   6.64282   6.91119   6.93674   6.95764
 Alpha virt. eigenvalues --    6.97672   7.02733   7.02761   7.09444   7.11674
 Alpha virt. eigenvalues --    7.15401   7.19413   7.25319   7.44791   7.49275
 Alpha virt. eigenvalues --    7.49746   7.51700   7.58279   7.58687   7.61010
 Alpha virt. eigenvalues --    7.66985   7.73351   7.74418   7.83194   7.85632
 Alpha virt. eigenvalues --    7.86351   7.94721   7.95528   8.01995   8.29963
 Alpha virt. eigenvalues --    8.30984   8.34475   8.42215   8.43321   8.45601
 Alpha virt. eigenvalues --    8.47515   8.49380   8.51095   8.56276   8.57225
 Alpha virt. eigenvalues --    8.59111   8.65602   8.66503   8.66928   8.66973
 Alpha virt. eigenvalues --    8.71404   8.85088   8.86776   8.87194   9.03074
 Alpha virt. eigenvalues --    9.08538   9.09623   9.14121   9.15006   9.17136
 Alpha virt. eigenvalues --    9.26678   9.27182   9.74056   9.76597   9.84060
 Alpha virt. eigenvalues --    9.85940   9.94019   9.95629   9.98798  10.08946
 Alpha virt. eigenvalues --   10.16759  10.17156  10.17633  10.33004  10.40469
 Alpha virt. eigenvalues --   10.51964  10.66388  11.38126  11.70397  11.83929
 Alpha virt. eigenvalues --   12.01671  12.05257  13.13003  13.53623  29.19544
 Alpha virt. eigenvalues --   29.58304  38.32558 148.85238 149.21849 198.24560
          Condensed to atoms (all electrons):
               1          2          3          4          5          6
     1  C    4.607267   0.298344  -0.059013   0.411995   0.414970   0.413055
     2  C    0.298344   4.847061   0.989341  -0.042271  -0.048002  -0.042402
     3  N   -0.059013   0.989341   6.278936  -0.000929  -0.000830  -0.000842
     4  H    0.411995  -0.042271  -0.000929   0.594781  -0.029048  -0.030535
     5  H    0.414970  -0.048002  -0.000830  -0.029048   0.590226  -0.029040
     6  H    0.413055  -0.042402  -0.000842  -0.030535  -0.029040   0.592145
 Mulliken charges:
               1
     1  C   -0.086617
     2  C   -0.002071
     3  N   -0.206663
     4  H    0.096007
     5  H    0.101725
     6  H    0.097619
 Sum of Mulliken charges =   0.00000
 Mulliken charges with hydrogens summed into heavy atoms:
               1
     1  C    0.208734
     2  C   -0.002071
     3  N   -0.206663
 Electronic spatial extent (au):  <R**2>=            161.0836
 Charge=              0.0000 electrons
 Dipole moment (field-independent basis, Debye):
    X=              4.1222    Y=             -0.0005    Z=              0.0045  Tot=              4.1222
 Quadrupole moment (field-independent basis, Debye-Ang):
   XX=            -21.0646   YY=            -17.7535   ZZ=            -17.6939
   XY=              0.0056   XZ=             -0.0659   YZ=             -0.0248
 Traceless Quadrupole moment (field-independent basis, Debye-Ang):
   XX=             -2.2272   YY=              1.0838   ZZ=              1.1434
   XY=              0.0056   XZ=             -0.0659   YZ=             -0.0248
 Octapole moment (field-independent basis, Debye-Ang**2):
  XXX=             12.6887  YYY=              0.4191  ZZZ=              0.7859  XYY=              2.2519
  XXY=              0.0365  XXZ=             -0.1949  XZZ=              2.2561  YZZ=             -0.4308
  YYZ=             -0.6572  XYZ=             -0.0175
 Hexadecapole moment (field-independent basis, Debye-Ang**3):
 XXXX=           -181.5080 YYYY=            -24.7820 ZZZZ=            -24.4631 XXXY=              0.0901
 XXXZ=             -0.4304 YYYX=              0.7202 YYYZ=             -0.0518 ZZZX=              1.1392
 ZZZY=             -0.0638 XXYY=            -30.9019 XXZZ=            -31.0254 YYZZ=             -8.1887
 XXYZ=             -0.0077 YYXZ=             -1.1527 ZZXY=             -0.7101
 N-N= 5.865318255472D+01 E-N=-4.259318788841D+02  KE= 1.320689223954D+02
 Leave Link  601 at Thu Aug 27 00:12:53 2020, MaxMem=  2097152000 cpu:         0.3
 (Enter /opt/cluster/programs/g09/g09_d.01/g09/l9999.exe)
 1\1\GINC-NODE13\SP\RB2PLYPD3-FC\def2QZVP\C2H3N1\BOITTIER\27-Aug-2020\0
 \\#p B2PLYPD3/Def2QZVP\\cyanomethane\\0,1\C,0,-6.595718,-1.115228,1.16
 2034\C,0,-5.203697,-0.787867,0.911325\N,0,-4.095756,-0.540487,0.701602
 \H,0,-6.774499,-1.223013,2.248089\H,0,-6.806431,-2.036116,0.668075\H,0
 ,-7.249015,-0.319457,0.794491\\Version=ES64L-G09RevD.01\State=1-A\HF=-
 132.5351605\MP2=-132.7155815\RMSD=9.878e-09\PG=C01 [X(C2H3N1)]\\@


 THERE ONCE WAS A GIRL NAMED IRENE,
 WHO LIVED ON DISTILLED KEROSENE,
      BUT SHE STARTED ABSORBIN'
      A NEW HYDROCARBON,
 AND SINCE THEN HAS NEVER BENZENE.
 Job cpu time:       0 days  0 hours  3 minutes 44.8 seconds.
 File lengths (MBytes):  RWF=     28 Int=      0 D2E=      0 Chk=      5 Scr=      1
 Normal termination of Gaussian 09 at Thu Aug 27 00:12:59 2020.
