 Entering Gaussian System, Link 0=/opt/cluster/programs/g09/g09_d.01/g09//g09
 Input=/home/boittier/MDCM/nms_sampling/cyanomethane_geom.xyz.dir/energies/cyanomethane_2496_energy.com
 Output=/scratch/boittier/cyanomethane_2496_energy/cyanomethane_2496_energy.out
 Initial command:
 /opt/cluster/programs/g09/g09_d.01/g09/l1.exe "/scratch/boittier/cyanomethane_2496_energy/Gau-147535.inp" -scrdir="/scratch/boittier/cyanomethane_2496_energy/"
 Entering Link 1 = /opt/cluster/programs/g09/g09_d.01/g09/l1.exe PID=    147536.
  
 Copyright (c) 1988,1990,1992,1993,1995,1998,2003,2009,2013,
            Gaussian, Inc.  All Rights Reserved.
  
 This is part of the Gaussian(R) 09 program.  It is based on
 the Gaussian(R) 03 system (copyright 2003, Gaussian, Inc.),
 the Gaussian(R) 98 system (copyright 1998, Gaussian, Inc.),
 the Gaussian(R) 94 system (copyright 1995, Gaussian, Inc.),
 the Gaussian 92(TM) system (copyright 1992, Gaussian, Inc.),
 the Gaussian 90(TM) system (copyright 1990, Gaussian, Inc.),
 the Gaussian 88(TM) system (copyright 1988, Gaussian, Inc.),
 the Gaussian 86(TM) system (copyright 1986, Carnegie Mellon
 University), and the Gaussian 82(TM) system (copyright 1983,
 Carnegie Mellon University). Gaussian is a federally registered
 trademark of Gaussian, Inc.
  
 This software contains proprietary and confidential information,
 including trade secrets, belonging to Gaussian, Inc.
  
 This software is provided under written license and may be
 used, copied, transmitted, or stored only in accord with that
 written license.
  
 The following legend is applicable only to US Government
 contracts under FAR:
  
                    RESTRICTED RIGHTS LEGEND
  
 Use, reproduction and disclosure by the US Government is
 subject to restrictions as set forth in subparagraphs (a)
 and (c) of the Commercial Computer Software - Restricted
 Rights clause in FAR 52.227-19.
  
 Gaussian, Inc.
 340 Quinnipiac St., Bldg. 40, Wallingford CT 06492
  
  
 ---------------------------------------------------------------
 Warning -- This program may not be used in any manner that
 competes with the business of Gaussian, Inc. or will provide
 assistance to any competitor of Gaussian, Inc.  The licensee
 of this program is prohibited from giving any competitor of
 Gaussian, Inc. access to this program.  By using this program,
 the user acknowledges that Gaussian, Inc. is engaged in the
 business of creating and licensing software in the field of
 computational chemistry and represents and warrants to the
 licensee that it is not a competitor of Gaussian, Inc. and that
 it will not use this program in any manner prohibited above.
 ---------------------------------------------------------------
  

 Cite this work as:
 Gaussian 09, Revision D.01,
 M. J. Frisch, G. W. Trucks, H. B. Schlegel, G. E. Scuseria, 
 M. A. Robb, J. R. Cheeseman, G. Scalmani, V. Barone, B. Mennucci, 
 G. A. Petersson, H. Nakatsuji, M. Caricato, X. Li, H. P. Hratchian, 
 A. F. Izmaylov, J. Bloino, G. Zheng, J. L. Sonnenberg, M. Hada, 
 M. Ehara, K. Toyota, R. Fukuda, J. Hasegawa, M. Ishida, T. Nakajima, 
 Y. Honda, O. Kitao, H. Nakai, T. Vreven, J. A. Montgomery, Jr., 
 J. E. Peralta, F. Ogliaro, M. Bearpark, J. J. Heyd, E. Brothers, 
 K. N. Kudin, V. N. Staroverov, T. Keith, R. Kobayashi, J. Normand, 
 K. Raghavachari, A. Rendell, J. C. Burant, S. S. Iyengar, J. Tomasi, 
 M. Cossi, N. Rega, J. M. Millam, M. Klene, J. E. Knox, J. B. Cross, 
 V. Bakken, C. Adamo, J. Jaramillo, R. Gomperts, R. E. Stratmann, 
 O. Yazyev, A. J. Austin, R. Cammi, C. Pomelli, J. W. Ochterski, 
 R. L. Martin, K. Morokuma, V. G. Zakrzewski, G. A. Voth, 
 P. Salvador, J. J. Dannenberg, S. Dapprich, A. D. Daniels, 
 O. Farkas, J. B. Foresman, J. V. Ortiz, J. Cioslowski, 
 and D. J. Fox, Gaussian, Inc., Wallingford CT, 2013.
 
 ******************************************
 Gaussian 09:  ES64L-G09RevD.01 24-Apr-2013
                26-Aug-2020 
 ******************************************
 %chk=/home/boittier/MDCM/nms_sampling/cyanomethane_geom.xyz.dir/cyanomethane_249
 6.chk
 %nproc=8
 Will use up to    8 processors via shared memory.
 %mem=16000MB
 --------------------
 #p B2PLYPD3/Def2QZVP
 --------------------
 1/38=1/1;
 2/12=2,17=6,18=5,40=1/2;
 3/5=45,7=101,11=9,16=1,25=1,30=1,74=-60/1,2,3;
 4//1;
 5/5=2,38=5/2;
 8/10=1/1;
 9/16=-3/6;
 6/7=2,8=2,9=2,10=2/1;
 99/5=1,9=1/99;
 Leave Link    1 at Wed Aug 26 18:40:34 2020, MaxMem=  2097152000 cpu:         0.3
 (Enter /opt/cluster/programs/g09/g09_d.01/g09/l101.exe)
 ------------
 cyanomethane
 ------------
 Symbolic Z-matrix:
 Charge =  0 Multiplicity = 1
 C                    -6.59883  -1.11566   1.13921 
 C                    -5.19877  -0.73904   0.93468 
 N                    -4.08194  -0.56772   0.69115 
 H                    -6.86947  -1.29223   2.21954 
 H                    -6.81224  -2.049     0.73081 
 H                    -7.36218  -0.42476   0.86553 
 
 NAtoms=      6 NQM=        6 NQMF=       0 NMMI=      0 NMMIF=      0
                NMic=       0 NMicF=      0.
                    Isotopes and Nuclear Properties:
 (Nuclear quadrupole moments (NQMom) in fm**2, nuclear magnetic moments (NMagM)
  in nuclear magnetons)

  Atom         1           2           3           4           5           6
 IAtWgt=          12          12          14           1           1           1
 AtmWgt=  12.0000000  12.0000000  14.0030740   1.0078250   1.0078250   1.0078250
 NucSpn=           0           0           2           1           1           1
 AtZEff=   0.0000000   0.0000000   0.0000000   0.0000000   0.0000000   0.0000000
 NQMom=    0.0000000   0.0000000   2.0440000   0.0000000   0.0000000   0.0000000
 NMagM=    0.0000000   0.0000000   0.4037610   2.7928460   2.7928460   2.7928460
 AtZNuc=   6.0000000   6.0000000   7.0000000   1.0000000   1.0000000   1.0000000
 Leave Link  101 at Wed Aug 26 18:40:35 2020, MaxMem=  2097152000 cpu:         0.5
 (Enter /opt/cluster/programs/g09/g09_d.01/g09/l202.exe)
                          Input orientation:                          
 ---------------------------------------------------------------------
 Center     Atomic      Atomic             Coordinates (Angstroms)
 Number     Number       Type             X           Y           Z
 ---------------------------------------------------------------------
      1          6           0       -6.598834   -1.115662    1.139205
      2          6           0       -5.198769   -0.739036    0.934681
      3          7           0       -4.081941   -0.567718    0.691146
      4          1           0       -6.869467   -1.292230    2.219544
      5          1           0       -6.812242   -2.049004    0.730810
      6          1           0       -7.362180   -0.424763    0.865529
 ---------------------------------------------------------------------
                    Distance matrix (angstroms):
                    1          2          3          4          5
     1  C    0.000000
     2  C    1.464192   0.000000
     3  N    2.614527   1.155839   0.000000
     4  H    1.127631   2.179020   3.260555   0.000000
     5  H    1.040892   2.088271   3.106497   1.671021   0.000000
     6  H    1.065334   2.187212   3.287980   1.681851   1.720099
                    6
     6  H    0.000000
 Stoichiometry    C2H3N
 Framework group  C1[X(C2H3N)]
 Deg. of freedom    12
 Full point group                 C1      NOp   1
 Largest Abelian subgroup         C1      NOp   1
 Largest concise Abelian subgroup C1      NOp   1
                         Standard orientation:                         
 ---------------------------------------------------------------------
 Center     Atomic      Atomic             Coordinates (Angstroms)
 Number     Number       Type             X           Y           Z
 ---------------------------------------------------------------------
      1          6           0        1.168730    0.004502   -0.030137
      2          6           0       -0.292999   -0.054788    0.030630
      3          7           0       -1.445661    0.020989   -0.009258
      4          1           0        1.660374    0.151648    0.973948
      5          1           0        1.501119    0.851992   -0.534848
      6          1           0        1.703748   -0.848845   -0.377258
 ---------------------------------------------------------------------
 Rotational constants (GHZ):    172.3086273      9.1055154      9.0866832
 Leave Link  202 at Wed Aug 26 18:40:35 2020, MaxMem=  2097152000 cpu:         0.0
 (Enter /opt/cluster/programs/g09/g09_d.01/g09/l301.exe)
 Standard basis: def2QZVP (5D, 7F)
 Ernie: Thresh=  0.10000D-02 Tol=  0.10000D-05 Strict=F.
 There are   321 symmetry adapted cartesian basis functions of A   symmetry.
 There are   261 symmetry adapted basis functions of A   symmetry.
   261 basis functions,   390 primitive gaussians,   321 cartesian basis functions
    11 alpha electrons       11 beta electrons
       nuclear repulsion energy        58.4100411366 Hartrees.
 IExCor=  419 DFT=T Ex+Corr=B2PLYPD3 ExCW=0 ScaHFX=  0.530000
 ScaDFX=  0.470000  0.470000  0.730000  0.730000 ScalE2=  0.270000  0.270000
 IRadAn=      0 IRanWt=     -1 IRanGd=            0 ICorTp=0 IEmpDi=141
 NAtoms=    6 NActive=    6 NUniq=    6 SFac= 1.00D+00 NAtFMM=   60 NAOKFM=F Big=F
 Integral buffers will be    131072 words long.
 Regular integral format.
 Two-electron integral symmetry is turned on.
 R6Disp:  Grimme-D3(BJ) Dispersion energy=       -0.0020872150 Hartrees.
 Nuclear repulsion after empirical dispersion term =       58.4079539215 Hartrees.
 Leave Link  301 at Wed Aug 26 18:40:35 2020, MaxMem=  2097152000 cpu:         0.5
 (Enter /opt/cluster/programs/g09/g09_d.01/g09/l302.exe)
 NPDir=0 NMtPBC=     1 NCelOv=     1 NCel=       1 NClECP=     1 NCelD=      1
         NCelK=      1 NCelE2=     1 NClLst=     1 CellRange=     0.0.
 One-electron integrals computed using PRISM.
   1 Symmetry operations used in ECPInt.
 ECPInt:  NShTT=    3321 NPrTT=    8136 LenC2=    3292 LenP2D=    7124.
 LDataN:  DoStor=T MaxTD1= 8 Len=  415
 NBasis=   261 RedAO= T EigKep=  8.04D-05  NBF=   261
 NBsUse=   261 1.00D-06 EigRej= -1.00D+00 NBFU=   261
 Precomputing XC quadrature grid using
 IXCGrd= 4 IRadAn=           0 IRanWt=          -1 IRanGd=           0 AccXCQ= 0.00D+00.
 Generated NRdTot=       0 NPtTot=           0 NUsed=           0 NTot=          32
 NSgBfM=   321   321   321   321   321 MxSgAt=     6 MxSgA2=     6.
 Leave Link  302 at Wed Aug 26 18:40:35 2020, MaxMem=  2097152000 cpu:         2.1
 (Enter /opt/cluster/programs/g09/g09_d.01/g09/l303.exe)
 DipDrv:  MaxL=1.
 Leave Link  303 at Wed Aug 26 18:40:35 2020, MaxMem=  2097152000 cpu:         0.3
 (Enter /opt/cluster/programs/g09/g09_d.01/g09/l401.exe)
 ExpMin= 7.60D-02 ExpMax= 9.07D+04 ExpMxC= 8.76D+02 IAcc=2 IRadAn=         4 AccDes= 0.00D+00
 Harris functional with IExCor=  419 and IRadAn=       4 diagonalized for initial guess.
 HarFok:  IExCor=  419 AccDes= 0.00D+00 IRadAn=         4 IDoV= 1 UseB2=F ITyADJ=14
 ICtDFT=  3500011 ScaDFX=  1.000000  1.000000  1.000000  1.000000
 FoFCou: FMM=F IPFlag=           0 FMFlag=      100000 FMFlg1=           0
         NFxFlg=           0 DoJE=T BraDBF=F KetDBF=T FulRan=T
         wScrn=  0.000000 ICntrl=     500 IOpCl=  0 I1Cent=   200000004 NGrid=           0
         NMat0=    1 NMatS0=      1 NMatT0=    0 NMatD0=    1 NMtDS0=    0 NMtDT0=    0
 Petite list used in FoFCou.
 Harris En= -132.847757032658    
 JPrj=0 DoOrth=F DoCkMO=F.
 Leave Link  401 at Wed Aug 26 18:40:36 2020, MaxMem=  2097152000 cpu:         4.3
 (Enter /opt/cluster/programs/g09/g09_d.01/g09/l502.exe)
 Closed shell SCF:
 Using DIIS extrapolation, IDIIS=  1040.
 Integral symmetry usage will be decided dynamically.
 Keep R1 ints in memory in canonical form, NReq=601554820.
 IVT=      332521 IEndB=      332521 NGot=  2097152000 MDV=  1512290144
 LenX=  1512290144 LenY=  1512186662
 Requested convergence on RMS density matrix=1.00D-08 within 128 cycles.
 Requested convergence on MAX density matrix=1.00D-06.
 Requested convergence on             energy=1.00D-06.
 No special actions if energy rises.
 FoFCou: FMM=F IPFlag=           0 FMFlag=           0 FMFlg1=           0
         NFxFlg=           0 DoJE=F BraDBF=F KetDBF=F FulRan=T
         wScrn=  0.000000 ICntrl=     600 IOpCl=  0 I1Cent=           0 NGrid=           0
         NMat0=    1 NMatS0=  34191 NMatT0=    0 NMatD0=    1 NMtDS0=    0 NMtDT0=    0
 Symmetry not used in FoFCou.
 Integral accuracy reduced to 1.0D-05 until final iterations.

 Cycle   1  Pass 0  IDiag  1:
 E= -132.412075166330    
 DIIS: error= 3.11D-02 at cycle   1 NSaved=   1.
 NSaved= 1 IEnMin= 1 EnMin= -132.412075166330     IErMin= 1 ErrMin= 3.11D-02
 ErrMax= 3.11D-02  0.00D+00 EMaxC= 1.00D-01 BMatC= 1.92D-01 BMatP= 1.92D-01
 IDIUse=3 WtCom= 6.89D-01 WtEn= 3.11D-01
 Coeff-Com:  0.100D+01
 Coeff-En:   0.100D+01
 Coeff:      0.100D+01
 Gap=     0.456 Goal=   None    Shift=    0.000
 GapD=    0.456 DampG=2.000 DampE=0.500 DampFc=1.0000 IDamp=-1.
 RMSDP=1.27D-03 MaxDP=6.63D-02              OVMax= 1.64D-01

 Cycle   2  Pass 0  IDiag  1:
 E= -132.445234458813     Delta-E=       -0.033159292483 Rises=F Damp=F
 DIIS: error= 3.08D-02 at cycle   2 NSaved=   2.
 NSaved= 2 IEnMin= 2 EnMin= -132.445234458813     IErMin= 2 ErrMin= 3.08D-02
 ErrMax= 3.08D-02  0.00D+00 EMaxC= 1.00D-01 BMatC= 9.71D-02 BMatP= 1.92D-01
 IDIUse=3 WtCom= 6.92D-01 WtEn= 3.08D-01
 Coeff-Com:  0.399D+00 0.601D+00
 Coeff-En:   0.399D+00 0.601D+00
 Coeff:      0.399D+00 0.601D+00
 Gap=     0.436 Goal=   None    Shift=    0.000
 RMSDP=8.34D-04 MaxDP=3.30D-02 DE=-3.32D-02 OVMax= 1.23D-01

 Cycle   3  Pass 0  IDiag  1:
 E= -132.510995452922     Delta-E=       -0.065760994108 Rises=F Damp=F
 DIIS: error= 1.57D-02 at cycle   3 NSaved=   3.
 NSaved= 3 IEnMin= 3 EnMin= -132.510995452922     IErMin= 3 ErrMin= 1.57D-02
 ErrMax= 1.57D-02  0.00D+00 EMaxC= 1.00D-01 BMatC= 2.02D-02 BMatP= 9.71D-02
 IDIUse=3 WtCom= 8.43D-01 WtEn= 1.57D-01
 Coeff-Com:  0.970D-01 0.325D+00 0.578D+00
 Coeff-En:   0.000D+00 0.126D+00 0.874D+00
 Coeff:      0.818D-01 0.293D+00 0.625D+00
 Gap=     0.427 Goal=   None    Shift=    0.000
 RMSDP=2.72D-04 MaxDP=9.97D-03 DE=-6.58D-02 OVMax= 6.07D-02

 Cycle   4  Pass 0  IDiag  1:
 E= -132.524703612994     Delta-E=       -0.013708160072 Rises=F Damp=F
 DIIS: error= 5.79D-03 at cycle   4 NSaved=   4.
 NSaved= 4 IEnMin= 4 EnMin= -132.524703612994     IErMin= 4 ErrMin= 5.79D-03
 ErrMax= 5.79D-03  0.00D+00 EMaxC= 1.00D-01 BMatC= 3.32D-03 BMatP= 2.02D-02
 IDIUse=3 WtCom= 9.42D-01 WtEn= 5.79D-02
 Coeff-Com: -0.118D-01 0.546D-01 0.336D+00 0.622D+00
 Coeff-En:   0.000D+00 0.000D+00 0.156D+00 0.844D+00
 Coeff:     -0.111D-01 0.514D-01 0.325D+00 0.635D+00
 Gap=     0.427 Goal=   None    Shift=    0.000
 RMSDP=9.41D-05 MaxDP=2.85D-03 DE=-1.37D-02 OVMax= 1.65D-02

 Cycle   5  Pass 0  IDiag  1:
 E= -132.527568948242     Delta-E=       -0.002865335248 Rises=F Damp=F
 DIIS: error= 3.75D-04 at cycle   5 NSaved=   5.
 NSaved= 5 IEnMin= 5 EnMin= -132.527568948242     IErMin= 5 ErrMin= 3.75D-04
 ErrMax= 3.75D-04  0.00D+00 EMaxC= 1.00D-01 BMatC= 1.62D-05 BMatP= 3.32D-03
 IDIUse=3 WtCom= 9.96D-01 WtEn= 3.75D-03
 Coeff-Com: -0.364D-02 0.520D-02 0.508D-01 0.146D+00 0.802D+00
 Coeff-En:   0.000D+00 0.000D+00 0.000D+00 0.000D+00 0.100D+01
 Coeff:     -0.362D-02 0.518D-02 0.506D-01 0.145D+00 0.803D+00
 Gap=     0.426 Goal=   None    Shift=    0.000
 RMSDP=8.53D-06 MaxDP=3.09D-04 DE=-2.87D-03 OVMax= 1.26D-03

 Initial convergence to 1.0D-05 achieved.  Increase integral accuracy.
 Cycle   6  Pass 1  IDiag  1:
 E= -132.527582901348     Delta-E=       -0.000013953106 Rises=F Damp=F
 DIIS: error= 8.44D-05 at cycle   1 NSaved=   1.
 NSaved= 1 IEnMin= 1 EnMin= -132.527582901348     IErMin= 1 ErrMin= 8.44D-05
 ErrMax= 8.44D-05  0.00D+00 EMaxC= 1.00D-01 BMatC= 5.81D-07 BMatP= 5.81D-07
 IDIUse=1 WtCom= 1.00D+00 WtEn= 0.00D+00
 Coeff-Com:  0.100D+01
 Coeff:      0.100D+01
 Gap=     0.427 Goal=   None    Shift=    0.000
 RMSDP=8.53D-06 MaxDP=3.09D-04 DE=-1.40D-05 OVMax= 3.99D-04

 Cycle   7  Pass 1  IDiag  1:
 E= -132.527583265633     Delta-E=       -0.000000364285 Rises=F Damp=F
 DIIS: error= 4.07D-05 at cycle   2 NSaved=   2.
 NSaved= 2 IEnMin= 2 EnMin= -132.527583265633     IErMin= 2 ErrMin= 4.07D-05
 ErrMax= 4.07D-05  0.00D+00 EMaxC= 1.00D-01 BMatC= 2.52D-07 BMatP= 5.81D-07
 IDIUse=1 WtCom= 1.00D+00 WtEn= 0.00D+00
 Coeff-Com:  0.387D+00 0.613D+00
 Coeff:      0.387D+00 0.613D+00
 Gap=     0.427 Goal=   None    Shift=    0.000
 RMSDP=9.52D-07 MaxDP=3.56D-05 DE=-3.64D-07 OVMax= 1.70D-04

 Cycle   8  Pass 1  IDiag  1:
 E= -132.527583482084     Delta-E=       -0.000000216451 Rises=F Damp=F
 DIIS: error= 1.51D-05 at cycle   3 NSaved=   3.
 NSaved= 3 IEnMin= 3 EnMin= -132.527583482084     IErMin= 3 ErrMin= 1.51D-05
 ErrMax= 1.51D-05  0.00D+00 EMaxC= 1.00D-01 BMatC= 2.25D-08 BMatP= 2.52D-07
 IDIUse=1 WtCom= 1.00D+00 WtEn= 0.00D+00
 Coeff-Com:  0.104D+00 0.258D+00 0.638D+00
 Coeff:      0.104D+00 0.258D+00 0.638D+00
 Gap=     0.427 Goal=   None    Shift=    0.000
 RMSDP=5.54D-07 MaxDP=2.50D-05 DE=-2.16D-07 OVMax= 5.92D-05

 Cycle   9  Pass 1  IDiag  1:
 E= -132.527583496002     Delta-E=       -0.000000013918 Rises=F Damp=F
 DIIS: error= 1.09D-05 at cycle   4 NSaved=   4.
 NSaved= 4 IEnMin= 4 EnMin= -132.527583496002     IErMin= 4 ErrMin= 1.09D-05
 ErrMax= 1.09D-05  0.00D+00 EMaxC= 1.00D-01 BMatC= 6.90D-09 BMatP= 2.25D-08
 IDIUse=1 WtCom= 1.00D+00 WtEn= 0.00D+00
 Coeff-Com: -0.593D-01-0.291D-01 0.389D+00 0.700D+00
 Coeff:     -0.593D-01-0.291D-01 0.389D+00 0.700D+00
 Gap=     0.427 Goal=   None    Shift=    0.000
 RMSDP=2.77D-07 MaxDP=1.34D-05 DE=-1.39D-08 OVMax= 3.52D-05

 Cycle  10  Pass 1  IDiag  1:
 E= -132.527583502552     Delta-E=       -0.000000006550 Rises=F Damp=F
 DIIS: error= 8.77D-07 at cycle   5 NSaved=   5.
 NSaved= 5 IEnMin= 5 EnMin= -132.527583502552     IErMin= 5 ErrMin= 8.77D-07
 ErrMax= 8.77D-07  0.00D+00 EMaxC= 1.00D-01 BMatC= 9.02D-11 BMatP= 6.90D-09
 IDIUse=1 WtCom= 1.00D+00 WtEn= 0.00D+00
 Coeff-Com: -0.202D-01-0.180D-01 0.731D-01 0.194D+00 0.771D+00
 Coeff:     -0.202D-01-0.180D-01 0.731D-01 0.194D+00 0.771D+00
 Gap=     0.427 Goal=   None    Shift=    0.000
 RMSDP=4.20D-08 MaxDP=2.05D-06 DE=-6.55D-09 OVMax= 3.34D-06

 Cycle  11  Pass 1  IDiag  1:
 E= -132.527583502634     Delta-E=       -0.000000000082 Rises=F Damp=F
 DIIS: error= 2.18D-07 at cycle   6 NSaved=   6.
 NSaved= 6 IEnMin= 6 EnMin= -132.527583502634     IErMin= 6 ErrMin= 2.18D-07
 ErrMax= 2.18D-07  0.00D+00 EMaxC= 1.00D-01 BMatC= 5.89D-12 BMatP= 9.02D-11
 IDIUse=1 WtCom= 1.00D+00 WtEn= 0.00D+00
 Coeff-Com:  0.229D-02-0.183D-03-0.279D-01-0.245D-01 0.145D+00 0.905D+00
 Coeff:      0.229D-02-0.183D-03-0.279D-01-0.245D-01 0.145D+00 0.905D+00
 Gap=     0.427 Goal=   None    Shift=    0.000
 RMSDP=9.80D-09 MaxDP=3.65D-07 DE=-8.17D-11 OVMax= 1.24D-06

 SCF Done:  E(RB2PLYPD3) =  -132.527583503     A.U. after   11 cycles
            NFock= 11  Conv=0.98D-08     -V/T= 2.0035
 KE= 1.320679195819D+02 PE=-4.253932400654D+02 EE= 1.023897830593D+02
 Leave Link  502 at Wed Aug 26 18:41:01 2020, MaxMem=  2097152000 cpu:       120.5
 (Enter /opt/cluster/programs/g09/g09_d.01/g09/l801.exe)
 DoSCS=T DFT=T ScalE2(SS,OS)=  0.270000  0.270000
 ExpMin= 7.60D-02 ExpMax= 9.07D+04 ExpMxC= 8.76D+02 IAcc=3 IRadAn=         5 AccDes= 0.00D+00
 HarFok:  IExCor=  205 AccDes= 0.00D+00 IRadAn=         5 IDoV=-2 UseB2=F ITyADJ=14
 ICtDFT= 12500011 ScaDFX=  1.000000  1.000000  1.000000  1.000000
 Largest valence mixing into a core orbital is  1.16D-04
 Largest core mixing into a valence orbital is  1.95D-05
 Range of M.O.s used for correlation:     4   261
 NBasis=   261 NAE=    11 NBE=    11 NFC=     3 NFV=     0
 NROrb=    258 NOA=     8 NOB=     8 NVA=   250 NVB=   250

 **** Warning!!: The largest alpha MO coefficient is  0.26494034D+02

 Leave Link  801 at Wed Aug 26 18:41:01 2020, MaxMem=  2097152000 cpu:         0.6
 (Enter /opt/cluster/programs/g09/g09_d.01/g09/l906.exe)
 DoSCS=T DFT=T ScalE2(SS,OS)=  0.270000  0.270000
 FulOut=F Deriv=F AODrv=F NAtomX=     6
   MMem=        2666  MDisk=           8 MDiskD=           8
  W3Min=      642000 MinDsk=     1426009 NBas6D=         321
 NBas2D=       52689    NTT=       51681    LW2=     4508827
    MDV=  2096810303 MDiskM=       14501 NBas2p=       51983
 Fully direct method using O(OVN) memory.
 IMap=   1   2   3   4   5   6   7   8
 JobTyp=1 Pass  1:  I=   1 to   8 NPSUse=  8 ParTrn=T ParDer=T DoDerP=F.
 Spin components of T(2) and E(2):
     alpha-alpha T2 =       0.3593160819D-01 E2=     -0.2148396683D-01
     alpha-beta  T2 =       0.2097594396D+00 E2=     -0.1378895708D+00
     beta-beta   T2 =       0.3593160819D-01 E2=     -0.2148396683D-01
 The integrals were generated   1 times.
 E2(B2PLYPD3) =    -0.1808575044D+00 E(B2PLYPD3) =    -0.13270844100706D+03
 Leave Link  906 at Wed Aug 26 18:41:17 2020, MaxMem=  2097152000 cpu:       127.7
 (Enter /opt/cluster/programs/g09/g09_d.01/g09/l601.exe)
 Copying SCF densities to generalized density rwf, IOpCl= 0 IROHF=0.

 **********************************************************************

            Population analysis using the SCF density.

 **********************************************************************

 Orbital symmetries:
       Occupied  (A) (A) (A) (A) (A) (A) (A) (A) (A) (A) (A)
       Virtual   (A) (A) (A) (A) (A) (A) (A) (A) (A) (A) (A) (A)
                 (A) (A) (A) (A) (A) (A) (A) (A) (A) (A) (A) (A)
                 (A) (A) (A) (A) (A) (A) (A) (A) (A) (A) (A) (A)
                 (A) (A) (A) (A) (A) (A) (A) (A) (A) (A) (A) (A)
                 (A) (A) (A) (A) (A) (A) (A) (A) (A) (A) (A) (A)
                 (A) (A) (A) (A) (A) (A) (A) (A) (A) (A) (A) (A)
                 (A) (A) (A) (A) (A) (A) (A) (A) (A) (A) (A) (A)
                 (A) (A) (A) (A) (A) (A) (A) (A) (A) (A) (A) (A)
                 (A) (A) (A) (A) (A) (A) (A) (A) (A) (A) (A) (A)
                 (A) (A) (A) (A) (A) (A) (A) (A) (A) (A) (A) (A)
                 (A) (A) (A) (A) (A) (A) (A) (A) (A) (A) (A) (A)
                 (A) (A) (A) (A) (A) (A) (A) (A) (A) (A) (A) (A)
                 (A) (A) (A) (A) (A) (A) (A) (A) (A) (A) (A) (A)
                 (A) (A) (A) (A) (A) (A) (A) (A) (A) (A) (A) (A)
                 (A) (A) (A) (A) (A) (A) (A) (A) (A) (A) (A) (A)
                 (A) (A) (A) (A) (A) (A) (A) (A) (A) (A) (A) (A)
                 (A) (A) (A) (A) (A) (A) (A) (A) (A) (A) (A) (A)
                 (A) (A) (A) (A) (A) (A) (A) (A) (A) (A) (A) (A)
                 (A) (A) (A) (A) (A) (A) (A) (A) (A) (A) (A) (A)
                 (A) (A) (A) (A) (A) (A) (A) (A) (A) (A) (A) (A)
                 (A) (A) (A) (A) (A) (A) (A) (A) (A) (A)
 The electronic state is 1-A.
 Alpha  occ. eigenvalues --  -14.84592 -10.66778 -10.66722  -1.04302  -0.89221
 Alpha  occ. eigenvalues --   -0.61556  -0.54657  -0.51551  -0.45137  -0.39484
 Alpha  occ. eigenvalues --   -0.38994
 Alpha virt. eigenvalues --    0.03690   0.07304   0.07796   0.10207   0.11269
 Alpha virt. eigenvalues --    0.11801   0.15415   0.16582   0.17709   0.20045
 Alpha virt. eigenvalues --    0.20149   0.25494   0.32392   0.34147   0.35886
 Alpha virt. eigenvalues --    0.38666   0.39205   0.39845   0.41665   0.47830
 Alpha virt. eigenvalues --    0.50109   0.51541   0.57018   0.58933   0.62124
 Alpha virt. eigenvalues --    0.67843   0.69108   0.70272   0.71888   0.78452
 Alpha virt. eigenvalues --    0.79114   0.82170   0.82372   0.84941   0.86963
 Alpha virt. eigenvalues --    0.89202   0.90399   0.94457   0.95482   0.96199
 Alpha virt. eigenvalues --    1.06121   1.09355   1.09649   1.13619   1.13847
 Alpha virt. eigenvalues --    1.15465   1.20695   1.22006   1.24690   1.34395
 Alpha virt. eigenvalues --    1.36026   1.46023   1.48428   1.53201   1.54482
 Alpha virt. eigenvalues --    1.63531   1.66751   1.71804   1.73689   1.76614
 Alpha virt. eigenvalues --    1.77500   1.78638   1.87830   1.89988   1.91255
 Alpha virt. eigenvalues --    1.92685   1.99011   2.00262   2.01244   2.02609
 Alpha virt. eigenvalues --    2.07272   2.13392   2.15112   2.19318   2.21672
 Alpha virt. eigenvalues --    2.24434   2.27430   2.30916   2.33826   2.36079
 Alpha virt. eigenvalues --    2.42455   2.47976   2.50218   2.51251   2.55509
 Alpha virt. eigenvalues --    2.62406   2.66246   2.66915   2.69822   2.71320
 Alpha virt. eigenvalues --    2.72578   2.76153   2.82517   2.90293   2.92616
 Alpha virt. eigenvalues --    2.95102   2.98300   2.99814   3.04120   3.09621
 Alpha virt. eigenvalues --    3.15249   3.16832   3.23110   3.25014   3.30047
 Alpha virt. eigenvalues --    3.35075   3.36742   3.42439   3.47738   3.49491
 Alpha virt. eigenvalues --    3.54748   3.58708   3.69517   3.74950   3.76571
 Alpha virt. eigenvalues --    3.86543   3.94487   3.96411   3.98795   4.02031
 Alpha virt. eigenvalues --    4.03484   4.06886   4.09227   4.21328   4.22220
 Alpha virt. eigenvalues --    4.54833   4.90414   4.90813   5.04928   5.06503
 Alpha virt. eigenvalues --    5.10973   5.16109   5.18829   5.20827   5.26582
 Alpha virt. eigenvalues --    5.30485   5.39827   5.43887   5.48868   5.61513
 Alpha virt. eigenvalues --    5.63137   5.83588   5.85737   5.86589   5.94473
 Alpha virt. eigenvalues --    5.96367   5.98914   5.99171   6.02207   6.03250
 Alpha virt. eigenvalues --    6.05063   6.07355   6.10482   6.10875   6.13173
 Alpha virt. eigenvalues --    6.14847   6.19309   6.25084   6.33312   6.39981
 Alpha virt. eigenvalues --    6.43638   6.46004   6.53237   6.58890   6.64093
 Alpha virt. eigenvalues --    6.67002   6.71264   6.81024   6.83084   6.86235
 Alpha virt. eigenvalues --    6.93683   7.02038   7.02378   7.03451   7.05460
 Alpha virt. eigenvalues --    7.08822   7.11441   7.21774   7.48402   7.51925
 Alpha virt. eigenvalues --    7.56874   7.60811   7.63291   7.65309   7.68471
 Alpha virt. eigenvalues --    7.71703   7.76062   7.79815   7.81840   7.87294
 Alpha virt. eigenvalues --    7.93618   8.00267   8.01990   8.05048   8.16813
 Alpha virt. eigenvalues --    8.19002   8.29082   8.40939   8.42420   8.42679
 Alpha virt. eigenvalues --    8.48353   8.50675   8.52471   8.55504   8.57245
 Alpha virt. eigenvalues --    8.66185   8.66611   8.68406   8.68671   8.73392
 Alpha virt. eigenvalues --    8.73637   8.75035   8.83161   8.96301   9.02507
 Alpha virt. eigenvalues --    9.05715   9.07739   9.12764   9.15534   9.23171
 Alpha virt. eigenvalues --    9.31121   9.34841   9.69909   9.71887   9.76249
 Alpha virt. eigenvalues --    9.78931   9.87971  10.05067  10.13034  10.16394
 Alpha virt. eigenvalues --   10.23346  10.28657  10.29386  10.42544  10.54509
 Alpha virt. eigenvalues --   10.64459  10.87895  11.35058  11.67858  11.87759
 Alpha virt. eigenvalues --   11.98704  12.05336  13.11654  13.44278  29.25524
 Alpha virt. eigenvalues --   29.50689  38.31217 148.93127 149.13310 198.23196
          Condensed to atoms (all electrons):
               1          2          3          4          5          6
     1  C    4.569566   0.317292  -0.057314   0.397970   0.418147   0.409349
     2  C    0.317292   4.801916   0.982915  -0.034826  -0.046164  -0.032418
     3  N   -0.057314   0.982915   6.281865  -0.000797  -0.001422   0.000143
     4  H    0.397970  -0.034826  -0.000797   0.637997  -0.034777  -0.037170
     5  H    0.418147  -0.046164  -0.001422  -0.034777   0.606869  -0.033501
     6  H    0.409349  -0.032418   0.000143  -0.037170  -0.033501   0.606936
 Mulliken charges:
               1
     1  C   -0.055010
     2  C    0.011285
     3  N   -0.205390
     4  H    0.071603
     5  H    0.090849
     6  H    0.086662
 Sum of Mulliken charges =   0.00000
 Mulliken charges with hydrogens summed into heavy atoms:
               1
     1  C    0.194104
     2  C    0.011285
     3  N   -0.205390
 Electronic spatial extent (au):  <R**2>=            163.7389
 Charge=              0.0000 electrons
 Dipole moment (field-independent basis, Debye):
    X=              4.1542    Y=             -0.0034    Z=              0.0303  Tot=              4.1543
 Quadrupole moment (field-independent basis, Debye-Ang):
   XX=            -20.3808   YY=            -17.7913   ZZ=            -18.1171
   XY=              0.0576   XZ=              0.0608   YZ=             -0.0331
 Traceless Quadrupole moment (field-independent basis, Debye-Ang):
   XX=             -1.6178   YY=              0.9718   ZZ=              0.6460
   XY=              0.0576   XZ=              0.0608   YZ=             -0.0331
 Octapole moment (field-independent basis, Debye-Ang**2):
  XXX=             14.6568  YYY=              0.1773  ZZZ=              0.3945  XYY=              2.2428
  XXY=             -0.2584  XXZ=              0.1698  XZZ=              1.7878  YZZ=              0.2855
  YYZ=             -0.6528  XYZ=              0.0438
 Hexadecapole moment (field-independent basis, Debye-Ang**3):
 XXXX=           -181.1497 YYYY=            -24.2944 ZZZZ=            -24.9128 XXXY=             -0.4446
 XXXZ=              0.2073 YYYX=             -0.1895 YYYZ=             -0.2518 ZZZX=              1.0625
 ZZZY=             -0.0165 XXYY=            -31.2692 XXZZ=            -32.0230 YYZZ=             -8.2489
 XXYZ=              0.2411 YYXZ=             -1.0888 ZZXY=              0.3793
 N-N= 5.840795392153D+01 E-N=-4.253932221216D+02  KE= 1.320679195819D+02
 Leave Link  601 at Wed Aug 26 18:41:17 2020, MaxMem=  2097152000 cpu:         0.4
 (Enter /opt/cluster/programs/g09/g09_d.01/g09/l9999.exe)
 1\1\GINC-NODE22\SP\RB2PLYPD3-FC\def2QZVP\C2H3N1\BOITTIER\26-Aug-2020\0
 \\#p B2PLYPD3/Def2QZVP\\cyanomethane\\0,1\C,0,-6.598834,-1.115662,1.13
 9205\C,0,-5.198769,-0.739036,0.934681\N,0,-4.081941,-0.567718,0.691146
 \H,0,-6.869467,-1.29223,2.219544\H,0,-6.812242,-2.049004,0.73081\H,0,-
 7.36218,-0.424763,0.865529\\Version=ES64L-G09RevD.01\State=1-A\HF=-132
 .5275835\MP2=-132.708441\RMSD=9.795e-09\PG=C01 [X(C2H3N1)]\\@


 THERE IS AN OLD, OLD RECIPE IN MAINE FOR STEWING COOT. PLACE THE
 BIRD IN A KETTLE OF WATER WITH A RED BUILDING BRICK FREE OF MORTAR AND
 BLEMISHES. PARBOIL THE COOT AND BRICK TOGETHER FOR THREE HOURS.
 POUR OFF THE WATER, REFILL THE KETTLE, AND AGAIN PARBOIL FOR THREE HOURS.
 ONCE AGAIN POUR OFF THE WATER, FOR THE LAST TIME ADD FRESH WATER,
 AND LET THE COOT AND BRICK SIMMER TOGETHER OVERNIGHT. IN THE MORNING,
 THROW AWAY THE COOT AND EAT THE BRICK.
 Job cpu time:       0 days  0 hours  4 minutes 17.7 seconds.
 File lengths (MBytes):  RWF=     28 Int=      0 D2E=      0 Chk=      5 Scr=      1
 Normal termination of Gaussian 09 at Wed Aug 26 18:41:17 2020.
