 Entering Gaussian System, Link 0=/opt/cluster/programs/g09/g09_d.01/g09//g09
 Input=/home/boittier/MDCM/nms_sampling/cyanomethane_geom.xyz.dir/energies/cyanomethane_3267_energy.com
 Output=/scratch/boittier/cyanomethane_3267_energy/cyanomethane_3267_energy.out
 Initial command:
 /opt/cluster/programs/g09/g09_d.01/g09/l1.exe "/scratch/boittier/cyanomethane_3267_energy/Gau-132420.inp" -scrdir="/scratch/boittier/cyanomethane_3267_energy/"
 Entering Link 1 = /opt/cluster/programs/g09/g09_d.01/g09/l1.exe PID=    132421.
  
 Copyright (c) 1988,1990,1992,1993,1995,1998,2003,2009,2013,
            Gaussian, Inc.  All Rights Reserved.
  
 This is part of the Gaussian(R) 09 program.  It is based on
 the Gaussian(R) 03 system (copyright 2003, Gaussian, Inc.),
 the Gaussian(R) 98 system (copyright 1998, Gaussian, Inc.),
 the Gaussian(R) 94 system (copyright 1995, Gaussian, Inc.),
 the Gaussian 92(TM) system (copyright 1992, Gaussian, Inc.),
 the Gaussian 90(TM) system (copyright 1990, Gaussian, Inc.),
 the Gaussian 88(TM) system (copyright 1988, Gaussian, Inc.),
 the Gaussian 86(TM) system (copyright 1986, Carnegie Mellon
 University), and the Gaussian 82(TM) system (copyright 1983,
 Carnegie Mellon University). Gaussian is a federally registered
 trademark of Gaussian, Inc.
  
 This software contains proprietary and confidential information,
 including trade secrets, belonging to Gaussian, Inc.
  
 This software is provided under written license and may be
 used, copied, transmitted, or stored only in accord with that
 written license.
  
 The following legend is applicable only to US Government
 contracts under FAR:
  
                    RESTRICTED RIGHTS LEGEND
  
 Use, reproduction and disclosure by the US Government is
 subject to restrictions as set forth in subparagraphs (a)
 and (c) of the Commercial Computer Software - Restricted
 Rights clause in FAR 52.227-19.
  
 Gaussian, Inc.
 340 Quinnipiac St., Bldg. 40, Wallingford CT 06492
  
  
 ---------------------------------------------------------------
 Warning -- This program may not be used in any manner that
 competes with the business of Gaussian, Inc. or will provide
 assistance to any competitor of Gaussian, Inc.  The licensee
 of this program is prohibited from giving any competitor of
 Gaussian, Inc. access to this program.  By using this program,
 the user acknowledges that Gaussian, Inc. is engaged in the
 business of creating and licensing software in the field of
 computational chemistry and represents and warrants to the
 licensee that it is not a competitor of Gaussian, Inc. and that
 it will not use this program in any manner prohibited above.
 ---------------------------------------------------------------
  

 Cite this work as:
 Gaussian 09, Revision D.01,
 M. J. Frisch, G. W. Trucks, H. B. Schlegel, G. E. Scuseria, 
 M. A. Robb, J. R. Cheeseman, G. Scalmani, V. Barone, B. Mennucci, 
 G. A. Petersson, H. Nakatsuji, M. Caricato, X. Li, H. P. Hratchian, 
 A. F. Izmaylov, J. Bloino, G. Zheng, J. L. Sonnenberg, M. Hada, 
 M. Ehara, K. Toyota, R. Fukuda, J. Hasegawa, M. Ishida, T. Nakajima, 
 Y. Honda, O. Kitao, H. Nakai, T. Vreven, J. A. Montgomery, Jr., 
 J. E. Peralta, F. Ogliaro, M. Bearpark, J. J. Heyd, E. Brothers, 
 K. N. Kudin, V. N. Staroverov, T. Keith, R. Kobayashi, J. Normand, 
 K. Raghavachari, A. Rendell, J. C. Burant, S. S. Iyengar, J. Tomasi, 
 M. Cossi, N. Rega, J. M. Millam, M. Klene, J. E. Knox, J. B. Cross, 
 V. Bakken, C. Adamo, J. Jaramillo, R. Gomperts, R. E. Stratmann, 
 O. Yazyev, A. J. Austin, R. Cammi, C. Pomelli, J. W. Ochterski, 
 R. L. Martin, K. Morokuma, V. G. Zakrzewski, G. A. Voth, 
 P. Salvador, J. J. Dannenberg, S. Dapprich, A. D. Daniels, 
 O. Farkas, J. B. Foresman, J. V. Ortiz, J. Cioslowski, 
 and D. J. Fox, Gaussian, Inc., Wallingford CT, 2013.
 
 ******************************************
 Gaussian 09:  ES64L-G09RevD.01 24-Apr-2013
                26-Aug-2020 
 ******************************************
 %chk=/home/boittier/MDCM/nms_sampling/cyanomethane_geom.xyz.dir/cyanomethane_326
 7.chk
 %nproc=8
 Will use up to    8 processors via shared memory.
 %mem=16000MB
 --------------------
 #p B2PLYPD3/Def2QZVP
 --------------------
 1/38=1/1;
 2/12=2,17=6,18=5,40=1/2;
 3/5=45,7=101,11=9,16=1,25=1,30=1,74=-60/1,2,3;
 4//1;
 5/5=2,38=5/2;
 8/10=1/1;
 9/16=-3/6;
 6/7=2,8=2,9=2,10=2/1;
 99/5=1,9=1/99;
 Leave Link    1 at Wed Aug 26 22:56:12 2020, MaxMem=  2097152000 cpu:         0.4
 (Enter /opt/cluster/programs/g09/g09_d.01/g09/l101.exe)
 ------------
 cyanomethane
 ------------
 Symbolic Z-matrix:
 Charge =  0 Multiplicity = 1
 C                    -6.62429  -1.11411   1.18875 
 C                    -5.19629  -0.80556   0.85424 
 N                    -4.07917  -0.52686   0.7258 
 H                    -6.67568  -1.24786   2.24279 
 H                    -6.96472  -2.0911    0.67293 
 H                    -7.16084  -0.24152   0.82429 
 
 NAtoms=      6 NQM=        6 NQMF=       0 NMMI=      0 NMMIF=      0
                NMic=       0 NMicF=      0.
                    Isotopes and Nuclear Properties:
 (Nuclear quadrupole moments (NQMom) in fm**2, nuclear magnetic moments (NMagM)
  in nuclear magnetons)

  Atom         1           2           3           4           5           6
 IAtWgt=          12          12          14           1           1           1
 AtmWgt=  12.0000000  12.0000000  14.0030740   1.0078250   1.0078250   1.0078250
 NucSpn=           0           0           2           1           1           1
 AtZEff=   0.0000000   0.0000000   0.0000000   0.0000000   0.0000000   0.0000000
 NQMom=    0.0000000   0.0000000   2.0440000   0.0000000   0.0000000   0.0000000
 NMagM=    0.0000000   0.0000000   0.4037610   2.7928460   2.7928460   2.7928460
 AtZNuc=   6.0000000   6.0000000   7.0000000   1.0000000   1.0000000   1.0000000
 Leave Link  101 at Wed Aug 26 22:56:12 2020, MaxMem=  2097152000 cpu:         0.5
 (Enter /opt/cluster/programs/g09/g09_d.01/g09/l202.exe)
                          Input orientation:                          
 ---------------------------------------------------------------------
 Center     Atomic      Atomic             Coordinates (Angstroms)
 Number     Number       Type             X           Y           Z
 ---------------------------------------------------------------------
      1          6           0       -6.624285   -1.114113    1.188751
      2          6           0       -5.196293   -0.805564    0.854243
      3          7           0       -4.079171   -0.526858    0.725801
      4          1           0       -6.675682   -1.247858    2.242788
      5          1           0       -6.964718   -2.091100    0.672926
      6          1           0       -7.160840   -0.241518    0.824293
 ---------------------------------------------------------------------
                    Distance matrix (angstroms):
                    1          2          3          4          5
     1  C    0.000000
     2  C    1.498753   0.000000
     3  N    2.652696   1.158506   0.000000
     4  H    1.063731   2.076601   3.092404   0.000000
     5  H    1.156060   2.193811   3.282686   1.805288   0.000000
     6  H    1.087264   2.044135   3.096418   1.805610   1.866100
                    6
     6  H    0.000000
 Stoichiometry    C2H3N
 Framework group  C1[X(C2H3N)]
 Deg. of freedom    12
 Full point group                 C1      NOp   1
 Largest Abelian subgroup         C1      NOp   1
 Largest concise Abelian subgroup C1      NOp   1
                         Standard orientation:                         
 ---------------------------------------------------------------------
 Center     Atomic      Atomic             Coordinates (Angstroms)
 Number     Number       Type             X           Y           Z
 ---------------------------------------------------------------------
      1          6           0       -1.207941    0.015255    0.017981
      2          6           0        0.288734   -0.020052   -0.052567
      3          7           0        1.444709    0.000047    0.021274
      4          1           0       -1.472262   -0.013602    1.047945
      5          1           0       -1.665468   -0.906233   -0.509279
      6          1           0       -1.459992    0.948291   -0.480073
 ---------------------------------------------------------------------
 Rotational constants (GHZ):    149.2938366      9.0245585      9.0086484
 Leave Link  202 at Wed Aug 26 22:56:13 2020, MaxMem=  2097152000 cpu:         0.0
 (Enter /opt/cluster/programs/g09/g09_d.01/g09/l301.exe)
 Standard basis: def2QZVP (5D, 7F)
 Ernie: Thresh=  0.10000D-02 Tol=  0.10000D-05 Strict=F.
 There are   321 symmetry adapted cartesian basis functions of A   symmetry.
 There are   261 symmetry adapted basis functions of A   symmetry.
   261 basis functions,   390 primitive gaussians,   321 cartesian basis functions
    11 alpha electrons       11 beta electrons
       nuclear repulsion energy        57.8472053161 Hartrees.
 IExCor=  419 DFT=T Ex+Corr=B2PLYPD3 ExCW=0 ScaHFX=  0.530000
 ScaDFX=  0.470000  0.470000  0.730000  0.730000 ScalE2=  0.270000  0.270000
 IRadAn=      0 IRanWt=     -1 IRanGd=            0 ICorTp=0 IEmpDi=141
 NAtoms=    6 NActive=    6 NUniq=    6 SFac= 1.00D+00 NAtFMM=   60 NAOKFM=F Big=F
 Integral buffers will be    131072 words long.
 Regular integral format.
 Two-electron integral symmetry is turned on.
 R6Disp:  Grimme-D3(BJ) Dispersion energy=       -0.0020984729 Hartrees.
 Nuclear repulsion after empirical dispersion term =       57.8451068433 Hartrees.
 Leave Link  301 at Wed Aug 26 22:56:13 2020, MaxMem=  2097152000 cpu:         0.4
 (Enter /opt/cluster/programs/g09/g09_d.01/g09/l302.exe)
 NPDir=0 NMtPBC=     1 NCelOv=     1 NCel=       1 NClECP=     1 NCelD=      1
         NCelK=      1 NCelE2=     1 NClLst=     1 CellRange=     0.0.
 One-electron integrals computed using PRISM.
   1 Symmetry operations used in ECPInt.
 ECPInt:  NShTT=    3321 NPrTT=    8136 LenC2=    3294 LenP2D=    7118.
 LDataN:  DoStor=T MaxTD1= 8 Len=  415
 NBasis=   261 RedAO= T EigKep=  8.85D-05  NBF=   261
 NBsUse=   261 1.00D-06 EigRej= -1.00D+00 NBFU=   261
 Precomputing XC quadrature grid using
 IXCGrd= 4 IRadAn=           0 IRanWt=          -1 IRanGd=           0 AccXCQ= 0.00D+00.
 Generated NRdTot=       0 NPtTot=           0 NUsed=           0 NTot=          32
 NSgBfM=   321   321   321   321   321 MxSgAt=     6 MxSgA2=     6.
 Leave Link  302 at Wed Aug 26 22:56:13 2020, MaxMem=  2097152000 cpu:         2.3
 (Enter /opt/cluster/programs/g09/g09_d.01/g09/l303.exe)
 DipDrv:  MaxL=1.
 Leave Link  303 at Wed Aug 26 22:56:13 2020, MaxMem=  2097152000 cpu:         0.2
 (Enter /opt/cluster/programs/g09/g09_d.01/g09/l401.exe)
 ExpMin= 7.60D-02 ExpMax= 9.07D+04 ExpMxC= 8.76D+02 IAcc=2 IRadAn=         4 AccDes= 0.00D+00
 Harris functional with IExCor=  419 and IRadAn=       4 diagonalized for initial guess.
 HarFok:  IExCor=  419 AccDes= 0.00D+00 IRadAn=         4 IDoV= 1 UseB2=F ITyADJ=14
 ICtDFT=  3500011 ScaDFX=  1.000000  1.000000  1.000000  1.000000
 FoFCou: FMM=F IPFlag=           0 FMFlag=      100000 FMFlg1=           0
         NFxFlg=           0 DoJE=T BraDBF=F KetDBF=T FulRan=T
         wScrn=  0.000000 ICntrl=     500 IOpCl=  0 I1Cent=   200000004 NGrid=           0
         NMat0=    1 NMatS0=      1 NMatT0=    0 NMatD0=    1 NMtDS0=    0 NMtDT0=    0
 Petite list used in FoFCou.
 Harris En= -132.841922892662    
 JPrj=0 DoOrth=F DoCkMO=F.
 Leave Link  401 at Wed Aug 26 22:56:14 2020, MaxMem=  2097152000 cpu:         4.4
 (Enter /opt/cluster/programs/g09/g09_d.01/g09/l502.exe)
 Closed shell SCF:
 Using DIIS extrapolation, IDIIS=  1040.
 Integral symmetry usage will be decided dynamically.
 Keep R1 ints in memory in canonical form, NReq=601554820.
 IVT=      332521 IEndB=      332521 NGot=  2097152000 MDV=  1512290144
 LenX=  1512290144 LenY=  1512186662
 Requested convergence on RMS density matrix=1.00D-08 within 128 cycles.
 Requested convergence on MAX density matrix=1.00D-06.
 Requested convergence on             energy=1.00D-06.
 No special actions if energy rises.
 FoFCou: FMM=F IPFlag=           0 FMFlag=           0 FMFlg1=           0
         NFxFlg=           0 DoJE=F BraDBF=F KetDBF=F FulRan=T
         wScrn=  0.000000 ICntrl=     600 IOpCl=  0 I1Cent=           0 NGrid=           0
         NMat0=    1 NMatS0=  34191 NMatT0=    0 NMatD0=    1 NMtDS0=    0 NMtDT0=    0
 Symmetry not used in FoFCou.
 Integral accuracy reduced to 1.0D-05 until final iterations.

 Cycle   1  Pass 0  IDiag  1:
 E= -132.419198316503    
 DIIS: error= 2.52D-02 at cycle   1 NSaved=   1.
 NSaved= 1 IEnMin= 1 EnMin= -132.419198316503     IErMin= 1 ErrMin= 2.52D-02
 ErrMax= 2.52D-02  0.00D+00 EMaxC= 1.00D-01 BMatC= 1.85D-01 BMatP= 1.85D-01
 IDIUse=3 WtCom= 7.48D-01 WtEn= 2.52D-01
 Coeff-Com:  0.100D+01
 Coeff-En:   0.100D+01
 Coeff:      0.100D+01
 Gap=     0.454 Goal=   None    Shift=    0.000
 GapD=    0.454 DampG=2.000 DampE=0.500 DampFc=1.0000 IDamp=-1.
 RMSDP=1.28D-03 MaxDP=6.86D-02              OVMax= 1.71D-01

 Cycle   2  Pass 0  IDiag  1:
 E= -132.441681642766     Delta-E=       -0.022483326263 Rises=F Damp=F
 DIIS: error= 3.53D-02 at cycle   2 NSaved=   2.
 NSaved= 2 IEnMin= 2 EnMin= -132.441681642766     IErMin= 1 ErrMin= 2.52D-02
 ErrMax= 3.53D-02  0.00D+00 EMaxC= 1.00D-01 BMatC= 1.03D-01 BMatP= 1.85D-01
 IDIUse=3 WtCom= 6.47D-01 WtEn= 3.53D-01
 Coeff-Com:  0.412D+00 0.588D+00
 Coeff-En:   0.433D+00 0.567D+00
 Coeff:      0.420D+00 0.580D+00
 Gap=     0.439 Goal=   None    Shift=    0.000
 RMSDP=8.44D-04 MaxDP=3.37D-02 DE=-2.25D-02 OVMax= 1.28D-01

 Cycle   3  Pass 0  IDiag  1:
 E= -132.512332105107     Delta-E=       -0.070650462341 Rises=F Damp=F
 DIIS: error= 1.55D-02 at cycle   3 NSaved=   3.
 NSaved= 3 IEnMin= 3 EnMin= -132.512332105107     IErMin= 3 ErrMin= 1.55D-02
 ErrMax= 1.55D-02  0.00D+00 EMaxC= 1.00D-01 BMatC= 2.01D-02 BMatP= 1.03D-01
 IDIUse=3 WtCom= 8.45D-01 WtEn= 1.55D-01
 Coeff-Com:  0.940D-01 0.315D+00 0.591D+00
 Coeff-En:   0.000D+00 0.125D+00 0.875D+00
 Coeff:      0.794D-01 0.285D+00 0.635D+00
 Gap=     0.426 Goal=   None    Shift=    0.000
 RMSDP=2.68D-04 MaxDP=9.51D-03 DE=-7.07D-02 OVMax= 5.92D-02

 Cycle   4  Pass 0  IDiag  1:
 E= -132.526401611865     Delta-E=       -0.014069506758 Rises=F Damp=F
 DIIS: error= 5.40D-03 at cycle   4 NSaved=   4.
 NSaved= 4 IEnMin= 4 EnMin= -132.526401611865     IErMin= 4 ErrMin= 5.40D-03
 ErrMax= 5.40D-03  0.00D+00 EMaxC= 1.00D-01 BMatC= 2.92D-03 BMatP= 2.01D-02
 IDIUse=3 WtCom= 9.46D-01 WtEn= 5.40D-02
 Coeff-Com: -0.125D-01 0.493D-01 0.325D+00 0.638D+00
 Coeff-En:   0.000D+00 0.000D+00 0.134D+00 0.866D+00
 Coeff:     -0.119D-01 0.466D-01 0.315D+00 0.651D+00
 Gap=     0.426 Goal=   None    Shift=    0.000
 RMSDP=8.96D-05 MaxDP=2.98D-03 DE=-1.41D-02 OVMax= 1.55D-02

 Cycle   5  Pass 0  IDiag  1:
 E= -132.528947692816     Delta-E=       -0.002546080951 Rises=F Damp=F
 DIIS: error= 3.69D-04 at cycle   5 NSaved=   5.
 NSaved= 5 IEnMin= 5 EnMin= -132.528947692816     IErMin= 5 ErrMin= 3.69D-04
 ErrMax= 3.69D-04  0.00D+00 EMaxC= 1.00D-01 BMatC= 1.54D-05 BMatP= 2.92D-03
 IDIUse=3 WtCom= 9.96D-01 WtEn= 3.69D-03
 Coeff-Com: -0.396D-02 0.615D-02 0.578D-01 0.162D+00 0.778D+00
 Coeff-En:   0.000D+00 0.000D+00 0.000D+00 0.000D+00 0.100D+01
 Coeff:     -0.395D-02 0.613D-02 0.576D-01 0.162D+00 0.779D+00
 Gap=     0.425 Goal=   None    Shift=    0.000
 RMSDP=8.41D-06 MaxDP=3.23D-04 DE=-2.55D-03 OVMax= 1.29D-03

 Initial convergence to 1.0D-05 achieved.  Increase integral accuracy.
 Cycle   6  Pass 1  IDiag  1:
 E= -132.528961198037     Delta-E=       -0.000013505221 Rises=F Damp=F
 DIIS: error= 1.06D-04 at cycle   1 NSaved=   1.
 NSaved= 1 IEnMin= 1 EnMin= -132.528961198037     IErMin= 1 ErrMin= 1.06D-04
 ErrMax= 1.06D-04  0.00D+00 EMaxC= 1.00D-01 BMatC= 7.85D-07 BMatP= 7.85D-07
 IDIUse=3 WtCom= 9.99D-01 WtEn= 1.06D-03
 Coeff-Com:  0.100D+01
 Coeff-En:   0.100D+01
 Coeff:      0.100D+01
 Gap=     0.426 Goal=   None    Shift=    0.000
 RMSDP=8.41D-06 MaxDP=3.23D-04 DE=-1.35D-05 OVMax= 4.72D-04

 Cycle   7  Pass 1  IDiag  1:
 E= -132.528961652493     Delta-E=       -0.000000454457 Rises=F Damp=F
 DIIS: error= 5.77D-05 at cycle   2 NSaved=   2.
 NSaved= 2 IEnMin= 2 EnMin= -132.528961652493     IErMin= 2 ErrMin= 5.77D-05
 ErrMax= 5.77D-05  0.00D+00 EMaxC= 1.00D-01 BMatC= 3.93D-07 BMatP= 7.85D-07
 IDIUse=1 WtCom= 1.00D+00 WtEn= 0.00D+00
 Coeff-Com:  0.407D+00 0.593D+00
 Coeff:      0.407D+00 0.593D+00
 Gap=     0.425 Goal=   None    Shift=    0.000
 RMSDP=1.17D-06 MaxDP=4.65D-05 DE=-4.54D-07 OVMax= 2.01D-04

 Cycle   8  Pass 1  IDiag  1:
 E= -132.528961999430     Delta-E=       -0.000000346937 Rises=F Damp=F
 DIIS: error= 1.71D-05 at cycle   3 NSaved=   3.
 NSaved= 3 IEnMin= 3 EnMin= -132.528961999430     IErMin= 3 ErrMin= 1.71D-05
 ErrMax= 1.71D-05  0.00D+00 EMaxC= 1.00D-01 BMatC= 2.61D-08 BMatP= 3.93D-07
 IDIUse=1 WtCom= 1.00D+00 WtEn= 0.00D+00
 Coeff-Com:  0.118D+00 0.244D+00 0.638D+00
 Coeff:      0.118D+00 0.244D+00 0.638D+00
 Gap=     0.425 Goal=   None    Shift=    0.000
 RMSDP=5.85D-07 MaxDP=2.51D-05 DE=-3.47D-07 OVMax= 6.95D-05

 Cycle   9  Pass 1  IDiag  1:
 E= -132.528962015695     Delta-E=       -0.000000016265 Rises=F Damp=F
 DIIS: error= 1.25D-05 at cycle   4 NSaved=   4.
 NSaved= 4 IEnMin= 4 EnMin= -132.528962015695     IErMin= 4 ErrMin= 1.25D-05
 ErrMax= 1.25D-05  0.00D+00 EMaxC= 1.00D-01 BMatC= 8.33D-09 BMatP= 2.61D-08
 IDIUse=1 WtCom= 1.00D+00 WtEn= 0.00D+00
 Coeff-Com: -0.622D-01-0.406D-01 0.390D+00 0.713D+00
 Coeff:     -0.622D-01-0.406D-01 0.390D+00 0.713D+00
 Gap=     0.425 Goal=   None    Shift=    0.000
 RMSDP=3.07D-07 MaxDP=1.46D-05 DE=-1.63D-08 OVMax= 4.27D-05

 Cycle  10  Pass 1  IDiag  1:
 E= -132.528962023808     Delta-E=       -0.000000008113 Rises=F Damp=F
 DIIS: error= 1.31D-06 at cycle   5 NSaved=   5.
 NSaved= 5 IEnMin= 5 EnMin= -132.528962023808     IErMin= 5 ErrMin= 1.31D-06
 ErrMax= 1.31D-06  0.00D+00 EMaxC= 1.00D-01 BMatC= 1.64D-10 BMatP= 8.33D-09
 IDIUse=1 WtCom= 1.00D+00 WtEn= 0.00D+00
 Coeff-Com: -0.256D-01-0.240D-01 0.917D-01 0.235D+00 0.723D+00
 Coeff:     -0.256D-01-0.240D-01 0.917D-01 0.235D+00 0.723D+00
 Gap=     0.425 Goal=   None    Shift=    0.000
 RMSDP=4.97D-08 MaxDP=2.25D-06 DE=-8.11D-09 OVMax= 4.05D-06

 Cycle  11  Pass 1  IDiag  1:
 E= -132.528962023977     Delta-E=       -0.000000000169 Rises=F Damp=F
 DIIS: error= 3.72D-07 at cycle   6 NSaved=   6.
 NSaved= 6 IEnMin= 6 EnMin= -132.528962023977     IErMin= 6 ErrMin= 3.72D-07
 ErrMax= 3.72D-07  0.00D+00 EMaxC= 1.00D-01 BMatC= 8.04D-12 BMatP= 1.64D-10
 IDIUse=1 WtCom= 1.00D+00 WtEn= 0.00D+00
 Coeff-Com:  0.511D-02 0.295D-02-0.391D-01-0.496D-01 0.456D-01 0.104D+01
 Coeff:      0.511D-02 0.295D-02-0.391D-01-0.496D-01 0.456D-01 0.104D+01
 Gap=     0.425 Goal=   None    Shift=    0.000
 RMSDP=1.33D-08 MaxDP=4.81D-07 DE=-1.69D-10 OVMax= 2.46D-06

 Cycle  12  Pass 1  IDiag  1:
 E= -132.528962023998     Delta-E=       -0.000000000021 Rises=F Damp=F
 DIIS: error= 1.05D-07 at cycle   7 NSaved=   7.
 NSaved= 7 IEnMin= 7 EnMin= -132.528962023998     IErMin= 7 ErrMin= 1.05D-07
 ErrMax= 1.05D-07  0.00D+00 EMaxC= 1.00D-01 BMatC= 4.59D-13 BMatP= 8.04D-12
 IDIUse=1 WtCom= 1.00D+00 WtEn= 0.00D+00
 Coeff-Com: -0.652D-03 0.150D-03 0.112D-01 0.896D-02-0.601D-01-0.453D+00
 Coeff-Com:  0.149D+01
 Coeff:     -0.652D-03 0.150D-03 0.112D-01 0.896D-02-0.601D-01-0.453D+00
 Coeff:      0.149D+01
 Gap=     0.425 Goal=   None    Shift=    0.000
 RMSDP=5.45D-09 MaxDP=1.80D-07 DE=-2.12D-11 OVMax= 1.32D-06

 SCF Done:  E(RB2PLYPD3) =  -132.528962024     A.U. after   12 cycles
            NFock= 12  Conv=0.55D-08     -V/T= 2.0046
 KE= 1.319249022072D+02 PE=-4.242116400322D+02 EE= 1.019126689577D+02
 Leave Link  502 at Wed Aug 26 22:56:40 2020, MaxMem=  2097152000 cpu:       130.2
 (Enter /opt/cluster/programs/g09/g09_d.01/g09/l801.exe)
 DoSCS=T DFT=T ScalE2(SS,OS)=  0.270000  0.270000
 ExpMin= 7.60D-02 ExpMax= 9.07D+04 ExpMxC= 8.76D+02 IAcc=3 IRadAn=         5 AccDes= 0.00D+00
 HarFok:  IExCor=  205 AccDes= 0.00D+00 IRadAn=         5 IDoV=-2 UseB2=F ITyADJ=14
 ICtDFT= 12500011 ScaDFX=  1.000000  1.000000  1.000000  1.000000
 Largest valence mixing into a core orbital is  1.16D-04
 Largest core mixing into a valence orbital is  1.96D-05
 Range of M.O.s used for correlation:     4   261
 NBasis=   261 NAE=    11 NBE=    11 NFC=     3 NFV=     0
 NROrb=    258 NOA=     8 NOB=     8 NVA=   250 NVB=   250

 **** Warning!!: The largest alpha MO coefficient is  0.25968785D+02

 Leave Link  801 at Wed Aug 26 22:56:41 2020, MaxMem=  2097152000 cpu:         0.7
 (Enter /opt/cluster/programs/g09/g09_d.01/g09/l906.exe)
 DoSCS=T DFT=T ScalE2(SS,OS)=  0.270000  0.270000
 FulOut=F Deriv=F AODrv=F NAtomX=     6
   MMem=        2666  MDisk=           8 MDiskD=           8
  W3Min=      642000 MinDsk=     1426009 NBas6D=         321
 NBas2D=       52689    NTT=       51681    LW2=     4508827
    MDV=  2096809865 MDiskM=       14501 NBas2p=       52086
 Fully direct method using O(OVN) memory.
 IMap=   1   2   3   4   5   6   7   8
 JobTyp=1 Pass  1:  I=   1 to   8 NPSUse=  8 ParTrn=T ParDer=T DoDerP=F.
 Spin components of T(2) and E(2):
     alpha-alpha T2 =       0.3613812401D-01 E2=     -0.2144340476D-01
     alpha-beta  T2 =       0.2123204280D+00 E2=     -0.1382272009D+00
     beta-beta   T2 =       0.3613812401D-01 E2=     -0.2144340476D-01
 The integrals were generated   1 times.
 E2(B2PLYPD3) =    -0.1811140104D+00 E(B2PLYPD3) =    -0.13271007603443D+03
 Leave Link  906 at Wed Aug 26 22:56:56 2020, MaxMem=  2097152000 cpu:       120.7
 (Enter /opt/cluster/programs/g09/g09_d.01/g09/l601.exe)
 Copying SCF densities to generalized density rwf, IOpCl= 0 IROHF=0.

 **********************************************************************

            Population analysis using the SCF density.

 **********************************************************************

 Orbital symmetries:
       Occupied  (A) (A) (A) (A) (A) (A) (A) (A) (A) (A) (A)
       Virtual   (A) (A) (A) (A) (A) (A) (A) (A) (A) (A) (A) (A)
                 (A) (A) (A) (A) (A) (A) (A) (A) (A) (A) (A) (A)
                 (A) (A) (A) (A) (A) (A) (A) (A) (A) (A) (A) (A)
                 (A) (A) (A) (A) (A) (A) (A) (A) (A) (A) (A) (A)
                 (A) (A) (A) (A) (A) (A) (A) (A) (A) (A) (A) (A)
                 (A) (A) (A) (A) (A) (A) (A) (A) (A) (A) (A) (A)
                 (A) (A) (A) (A) (A) (A) (A) (A) (A) (A) (A) (A)
                 (A) (A) (A) (A) (A) (A) (A) (A) (A) (A) (A) (A)
                 (A) (A) (A) (A) (A) (A) (A) (A) (A) (A) (A) (A)
                 (A) (A) (A) (A) (A) (A) (A) (A) (A) (A) (A) (A)
                 (A) (A) (A) (A) (A) (A) (A) (A) (A) (A) (A) (A)
                 (A) (A) (A) (A) (A) (A) (A) (A) (A) (A) (A) (A)
                 (A) (A) (A) (A) (A) (A) (A) (A) (A) (A) (A) (A)
                 (A) (A) (A) (A) (A) (A) (A) (A) (A) (A) (A) (A)
                 (A) (A) (A) (A) (A) (A) (A) (A) (A) (A) (A) (A)
                 (A) (A) (A) (A) (A) (A) (A) (A) (A) (A) (A) (A)
                 (A) (A) (A) (A) (A) (A) (A) (A) (A) (A) (A) (A)
                 (A) (A) (A) (A) (A) (A) (A) (A) (A) (A) (A) (A)
                 (A) (A) (A) (A) (A) (A) (A) (A) (A) (A) (A) (A)
                 (A) (A) (A) (A) (A) (A) (A) (A) (A) (A) (A) (A)
                 (A) (A) (A) (A) (A) (A) (A) (A) (A) (A)
 The electronic state is 1-A.
 Alpha  occ. eigenvalues --  -14.84241 -10.68018 -10.66412  -1.03814  -0.88432
 Alpha  occ. eigenvalues --   -0.58212  -0.54848  -0.52793  -0.44605  -0.39085
 Alpha  occ. eigenvalues --   -0.38952
 Alpha virt. eigenvalues --    0.03585   0.07491   0.08422   0.10208   0.11109
 Alpha virt. eigenvalues --    0.11334   0.14872   0.15725   0.16225   0.20061
 Alpha virt. eigenvalues --    0.20080   0.24743   0.31660   0.34153   0.34776
 Alpha virt. eigenvalues --    0.37796   0.38350   0.39632   0.40820   0.46431
 Alpha virt. eigenvalues --    0.50419   0.52699   0.57502   0.60050   0.61702
 Alpha virt. eigenvalues --    0.65838   0.67190   0.68154   0.70549   0.79108
 Alpha virt. eigenvalues --    0.79948   0.81723   0.82060   0.83914   0.86625
 Alpha virt. eigenvalues --    0.91074   0.92803   0.94231   0.95277   0.97618
 Alpha virt. eigenvalues --    1.04463   1.06688   1.07708   1.09669   1.12062
 Alpha virt. eigenvalues --    1.16202   1.21452   1.23136   1.23722   1.33327
 Alpha virt. eigenvalues --    1.35581   1.42283   1.46390   1.47590   1.53473
 Alpha virt. eigenvalues --    1.62984   1.66254   1.70796   1.73112   1.77656
 Alpha virt. eigenvalues --    1.79289   1.80500   1.87647   1.91854   1.92945
 Alpha virt. eigenvalues --    1.94773   1.98163   2.00443   2.00635   2.03504
 Alpha virt. eigenvalues --    2.05825   2.08966   2.14387   2.17403   2.19474
 Alpha virt. eigenvalues --    2.22089   2.23988   2.27586   2.31017   2.36464
 Alpha virt. eigenvalues --    2.40443   2.48320   2.50560   2.57802   2.59230
 Alpha virt. eigenvalues --    2.60708   2.67406   2.69000   2.69924   2.71071
 Alpha virt. eigenvalues --    2.74333   2.76677   2.80278   2.86070   2.87148
 Alpha virt. eigenvalues --    2.88695   2.93590   2.93927   2.95197   3.00710
 Alpha virt. eigenvalues --    3.08271   3.12482   3.20990   3.24045   3.27997
 Alpha virt. eigenvalues --    3.29687   3.36530   3.37820   3.43358   3.47334
 Alpha virt. eigenvalues --    3.54356   3.57210   3.66977   3.70688   3.72596
 Alpha virt. eigenvalues --    3.84815   3.85606   3.88728   3.90675   3.92802
 Alpha virt. eigenvalues --    3.98902   4.04106   4.05568   4.25786   4.26646
 Alpha virt. eigenvalues --    4.50364   4.91621   4.91719   5.02749   5.06801
 Alpha virt. eigenvalues --    5.07345   5.14701   5.17810   5.22651   5.24789
 Alpha virt. eigenvalues --    5.31172   5.42904   5.44759   5.48496   5.66231
 Alpha virt. eigenvalues --    5.68810   5.84034   5.87146   5.88353   5.90439
 Alpha virt. eigenvalues --    5.91504   5.91847   5.95709   5.98144   6.01179
 Alpha virt. eigenvalues --    6.02216   6.03759   6.05799   6.06191   6.09412
 Alpha virt. eigenvalues --    6.10048   6.19659   6.21618   6.22923   6.27021
 Alpha virt. eigenvalues --    6.31647   6.40551   6.46116   6.49931   6.57802
 Alpha virt. eigenvalues --    6.60782   6.63430   6.81791   6.87590   6.92733
 Alpha virt. eigenvalues --    6.96809   6.98560   7.02631   7.02666   7.04451
 Alpha virt. eigenvalues --    7.13633   7.17873   7.23409   7.29830   7.37918
 Alpha virt. eigenvalues --    7.46085   7.48855   7.50452   7.50684   7.55325
 Alpha virt. eigenvalues --    7.66401   7.69392   7.70048   7.78873   7.81418
 Alpha virt. eigenvalues --    7.84456   7.86673   7.92314   7.97016   8.20062
 Alpha virt. eigenvalues --    8.21764   8.28269   8.35226   8.37803   8.40696
 Alpha virt. eigenvalues --    8.43198   8.46203   8.48423   8.50295   8.53443
 Alpha virt. eigenvalues --    8.57072   8.65539   8.66693   8.67174   8.68633
 Alpha virt. eigenvalues --    8.69831   8.74173   8.81811   8.88744   8.96932
 Alpha virt. eigenvalues --    9.03217   9.04322   9.07929   9.12875   9.17410
 Alpha virt. eigenvalues --    9.19719   9.25965   9.60148   9.67173   9.72736
 Alpha virt. eigenvalues --    9.76852   9.79485   9.79918   9.91443   9.98008
 Alpha virt. eigenvalues --   10.08861  10.09408  10.16913  10.25994  10.33968
 Alpha virt. eigenvalues --   10.43804  10.64661  11.34468  11.65581  11.83078
 Alpha virt. eigenvalues --   11.88304  11.96578  13.02845  13.43339  29.10624
 Alpha virt. eigenvalues --   29.38160  38.29127 148.75291 148.99540 198.20831
          Condensed to atoms (all electrons):
               1          2          3          4          5          6
     1  C    4.630778   0.299019  -0.058220   0.414691   0.406263   0.411931
     2  C    0.299019   4.855351   0.974643  -0.044273  -0.032884  -0.048939
     3  N   -0.058220   0.974643   6.293160  -0.001206  -0.000102  -0.000148
     4  H    0.414691  -0.044273  -0.001206   0.577425  -0.030131  -0.025958
     5  H    0.406263  -0.032884  -0.000102  -0.030131   0.585750  -0.025966
     6  H    0.411931  -0.048939  -0.000148  -0.025958  -0.025966   0.580093
 Mulliken charges:
               1
     1  C   -0.104462
     2  C   -0.002917
     3  N   -0.208128
     4  H    0.109451
     5  H    0.097069
     6  H    0.108986
 Sum of Mulliken charges =   0.00000
 Mulliken charges with hydrogens summed into heavy atoms:
               1
     1  C    0.211045
     2  C   -0.002917
     3  N   -0.208128
 Electronic spatial extent (au):  <R**2>=            164.6009
 Charge=              0.0000 electrons
 Dipole moment (field-independent basis, Debye):
    X=             -4.1229    Y=              0.0101    Z=             -0.0052  Tot=              4.1229
 Quadrupole moment (field-independent basis, Debye-Ang):
   XX=            -21.2938   YY=            -17.6971   ZZ=            -17.7858
   XY=              0.1451   XZ=             -0.0893   YZ=             -0.0735
 Traceless Quadrupole moment (field-independent basis, Debye-Ang):
   XX=             -2.3682   YY=              1.2285   ZZ=              1.1397
   XY=              0.1451   XZ=             -0.0893   YZ=             -0.0735
 Octapole moment (field-independent basis, Debye-Ang**2):
  XXX=            -12.2748  YYY=              0.2850  ZZZ=              1.2035  XYY=             -2.4172
  XXY=             -0.5080  XXZ=             -0.0129  XZZ=             -2.1723  YZZ=              0.0267
  YYZ=             -0.8035  XYZ=             -0.0046
 Hexadecapole moment (field-independent basis, Debye-Ang**3):
 XXXX=           -187.4736 YYYY=            -25.2698 ZZZZ=            -24.6913 XXXY=              1.1430
 XXXZ=             -0.2758 YYYX=             -0.0302 YYYZ=             -0.2062 ZZZX=             -1.5809
 ZZZY=             -0.1914 XXYY=            -31.5667 XXZZ=            -32.0028 YYZZ=             -8.3800
 XXYZ=              0.1995 YYXZ=              1.4321 ZZXY=              0.0892
 N-N= 5.784510684327D+01 E-N=-4.242116405928D+02  KE= 1.319249022072D+02
 Leave Link  601 at Wed Aug 26 22:56:57 2020, MaxMem=  2097152000 cpu:         0.4
 (Enter /opt/cluster/programs/g09/g09_d.01/g09/l9999.exe)
 1\1\GINC-NODE18\SP\RB2PLYPD3-FC\def2QZVP\C2H3N1\BOITTIER\26-Aug-2020\0
 \\#p B2PLYPD3/Def2QZVP\\cyanomethane\\0,1\C,0,-6.624285,-1.114113,1.18
 8751\C,0,-5.196293,-0.805564,0.854243\N,0,-4.079171,-0.526858,0.725801
 \H,0,-6.675682,-1.247858,2.242788\H,0,-6.964718,-2.0911,0.672926\H,0,-
 7.16084,-0.241518,0.824293\\Version=ES64L-G09RevD.01\State=1-A\HF=-132
 .528962\MP2=-132.710076\RMSD=5.452e-09\PG=C01 [X(C2H3N1)]\\@


 THE PROBLEM WITH THE LADDER OF SUCCESS IS YOU CAN'T
 CLIMB IT WHILE YOU'RE TWIDDLING YOUR THUMBS.
 Job cpu time:       0 days  0 hours  4 minutes 21.2 seconds.
 File lengths (MBytes):  RWF=     28 Int=      0 D2E=      0 Chk=      5 Scr=      1
 Normal termination of Gaussian 09 at Wed Aug 26 22:56:57 2020.
