 Entering Gaussian System, Link 0=/opt/cluster/programs/g09/g09_d.01/g09//g09
 Input=/home/boittier/MDCM/nms_sampling/cyanomethane_geom.xyz.dir/energies/cyanomethane_2864_energy.com
 Output=/scratch/boittier/cyanomethane_2864_energy/cyanomethane_2864_energy.out
 Initial command:
 /opt/cluster/programs/g09/g09_d.01/g09/l1.exe "/scratch/boittier/cyanomethane_2864_energy/Gau-157104.inp" -scrdir="/scratch/boittier/cyanomethane_2864_energy/"
 Entering Link 1 = /opt/cluster/programs/g09/g09_d.01/g09/l1.exe PID=    157105.
  
 Copyright (c) 1988,1990,1992,1993,1995,1998,2003,2009,2013,
            Gaussian, Inc.  All Rights Reserved.
  
 This is part of the Gaussian(R) 09 program.  It is based on
 the Gaussian(R) 03 system (copyright 2003, Gaussian, Inc.),
 the Gaussian(R) 98 system (copyright 1998, Gaussian, Inc.),
 the Gaussian(R) 94 system (copyright 1995, Gaussian, Inc.),
 the Gaussian 92(TM) system (copyright 1992, Gaussian, Inc.),
 the Gaussian 90(TM) system (copyright 1990, Gaussian, Inc.),
 the Gaussian 88(TM) system (copyright 1988, Gaussian, Inc.),
 the Gaussian 86(TM) system (copyright 1986, Carnegie Mellon
 University), and the Gaussian 82(TM) system (copyright 1983,
 Carnegie Mellon University). Gaussian is a federally registered
 trademark of Gaussian, Inc.
  
 This software contains proprietary and confidential information,
 including trade secrets, belonging to Gaussian, Inc.
  
 This software is provided under written license and may be
 used, copied, transmitted, or stored only in accord with that
 written license.
  
 The following legend is applicable only to US Government
 contracts under FAR:
  
                    RESTRICTED RIGHTS LEGEND
  
 Use, reproduction and disclosure by the US Government is
 subject to restrictions as set forth in subparagraphs (a)
 and (c) of the Commercial Computer Software - Restricted
 Rights clause in FAR 52.227-19.
  
 Gaussian, Inc.
 340 Quinnipiac St., Bldg. 40, Wallingford CT 06492
  
  
 ---------------------------------------------------------------
 Warning -- This program may not be used in any manner that
 competes with the business of Gaussian, Inc. or will provide
 assistance to any competitor of Gaussian, Inc.  The licensee
 of this program is prohibited from giving any competitor of
 Gaussian, Inc. access to this program.  By using this program,
 the user acknowledges that Gaussian, Inc. is engaged in the
 business of creating and licensing software in the field of
 computational chemistry and represents and warrants to the
 licensee that it is not a competitor of Gaussian, Inc. and that
 it will not use this program in any manner prohibited above.
 ---------------------------------------------------------------
  

 Cite this work as:
 Gaussian 09, Revision D.01,
 M. J. Frisch, G. W. Trucks, H. B. Schlegel, G. E. Scuseria, 
 M. A. Robb, J. R. Cheeseman, G. Scalmani, V. Barone, B. Mennucci, 
 G. A. Petersson, H. Nakatsuji, M. Caricato, X. Li, H. P. Hratchian, 
 A. F. Izmaylov, J. Bloino, G. Zheng, J. L. Sonnenberg, M. Hada, 
 M. Ehara, K. Toyota, R. Fukuda, J. Hasegawa, M. Ishida, T. Nakajima, 
 Y. Honda, O. Kitao, H. Nakai, T. Vreven, J. A. Montgomery, Jr., 
 J. E. Peralta, F. Ogliaro, M. Bearpark, J. J. Heyd, E. Brothers, 
 K. N. Kudin, V. N. Staroverov, T. Keith, R. Kobayashi, J. Normand, 
 K. Raghavachari, A. Rendell, J. C. Burant, S. S. Iyengar, J. Tomasi, 
 M. Cossi, N. Rega, J. M. Millam, M. Klene, J. E. Knox, J. B. Cross, 
 V. Bakken, C. Adamo, J. Jaramillo, R. Gomperts, R. E. Stratmann, 
 O. Yazyev, A. J. Austin, R. Cammi, C. Pomelli, J. W. Ochterski, 
 R. L. Martin, K. Morokuma, V. G. Zakrzewski, G. A. Voth, 
 P. Salvador, J. J. Dannenberg, S. Dapprich, A. D. Daniels, 
 O. Farkas, J. B. Foresman, J. V. Ortiz, J. Cioslowski, 
 and D. J. Fox, Gaussian, Inc., Wallingford CT, 2013.
 
 ******************************************
 Gaussian 09:  ES64L-G09RevD.01 24-Apr-2013
                26-Aug-2020 
 ******************************************
 %chk=/home/boittier/MDCM/nms_sampling/cyanomethane_geom.xyz.dir/cyanomethane_286
 4.chk
 %nproc=8
 Will use up to    8 processors via shared memory.
 %mem=16000MB
 --------------------
 #p B2PLYPD3/Def2QZVP
 --------------------
 1/38=1/1;
 2/12=2,17=6,18=5,40=1/2;
 3/5=45,7=101,11=9,16=1,25=1,30=1,74=-60/1,2,3;
 4//1;
 5/5=2,38=5/2;
 8/10=1/1;
 9/16=-3/6;
 6/7=2,8=2,9=2,10=2/1;
 99/5=1,9=1/99;
 Leave Link    1 at Wed Aug 26 21:23:49 2020, MaxMem=  2097152000 cpu:         0.3
 (Enter /opt/cluster/programs/g09/g09_d.01/g09/l101.exe)
 ------------
 cyanomethane
 ------------
 Symbolic Z-matrix:
 Charge =  0 Multiplicity = 1
 C                    -6.6124   -1.13367   1.1667 
 C                    -5.19666  -0.7378    0.90111 
 N                    -4.09232  -0.56219   0.70689 
 H                    -6.77497  -1.24504   2.23687 
 H                    -6.83726  -2.13983   0.67672 
 H                    -7.1449   -0.26652   0.78176 
 
 NAtoms=      6 NQM=        6 NQMF=       0 NMMI=      0 NMMIF=      0
                NMic=       0 NMicF=      0.
                    Isotopes and Nuclear Properties:
 (Nuclear quadrupole moments (NQMom) in fm**2, nuclear magnetic moments (NMagM)
  in nuclear magnetons)

  Atom         1           2           3           4           5           6
 IAtWgt=          12          12          14           1           1           1
 AtmWgt=  12.0000000  12.0000000  14.0030740   1.0078250   1.0078250   1.0078250
 NucSpn=           0           0           2           1           1           1
 AtZEff=   0.0000000   0.0000000   0.0000000   0.0000000   0.0000000   0.0000000
 NQMom=    0.0000000   0.0000000   2.0440000   0.0000000   0.0000000   0.0000000
 NMagM=    0.0000000   0.0000000   0.4037610   2.7928460   2.7928460   2.7928460
 AtZNuc=   6.0000000   6.0000000   7.0000000   1.0000000   1.0000000   1.0000000
 Leave Link  101 at Wed Aug 26 21:23:49 2020, MaxMem=  2097152000 cpu:         0.5
 (Enter /opt/cluster/programs/g09/g09_d.01/g09/l202.exe)
                          Input orientation:                          
 ---------------------------------------------------------------------
 Center     Atomic      Atomic             Coordinates (Angstroms)
 Number     Number       Type             X           Y           Z
 ---------------------------------------------------------------------
      1          6           0       -6.612402   -1.133670    1.166704
      2          6           0       -5.196658   -0.737797    0.901106
      3          7           0       -4.092325   -0.562185    0.706893
      4          1           0       -6.774968   -1.245044    2.236870
      5          1           0       -6.837255   -2.139826    0.676724
      6          1           0       -7.144902   -0.266521    0.781758
 ---------------------------------------------------------------------
                    Distance matrix (angstroms):
                    1          2          3          4          5
     1  C    0.000000
     2  C    1.493850   0.000000
     3  N    2.624654   1.134949   0.000000
     4  H    1.088158   2.128997   3.162863   0.000000
     5  H    1.141486   2.169698   3.166149   1.799603   0.000000
     6  H    1.087974   2.007984   3.067776   1.792124   1.901302
                    6
     6  H    0.000000
 Stoichiometry    C2H3N
 Framework group  C1[X(C2H3N)]
 Deg. of freedom    12
 Full point group                 C1      NOp   1
 Largest Abelian subgroup         C1      NOp   1
 Largest concise Abelian subgroup C1      NOp   1
                         Standard orientation:                         
 ---------------------------------------------------------------------
 Center     Atomic      Atomic             Coordinates (Angstroms)
 Number     Number       Type             X           Y           Z
 ---------------------------------------------------------------------
      1          6           0        1.197974    0.006512   -0.003837
      2          6           0       -0.294745   -0.051469   -0.007986
      3          7           0       -1.426532    0.031614    0.008272
      4          1           0        1.570281   -0.019631    1.018314
      5          1           0        1.554283    0.982655   -0.476255
      6          1           0        1.441789   -0.914583   -0.529026
 ---------------------------------------------------------------------
 Rotational constants (GHZ):    147.7888919      9.2168459      9.1658941
 Leave Link  202 at Wed Aug 26 21:23:49 2020, MaxMem=  2097152000 cpu:         0.0
 (Enter /opt/cluster/programs/g09/g09_d.01/g09/l301.exe)
 Standard basis: def2QZVP (5D, 7F)
 Ernie: Thresh=  0.10000D-02 Tol=  0.10000D-05 Strict=F.
 There are   321 symmetry adapted cartesian basis functions of A   symmetry.
 There are   261 symmetry adapted basis functions of A   symmetry.
   261 basis functions,   390 primitive gaussians,   321 cartesian basis functions
    11 alpha electrons       11 beta electrons
       nuclear repulsion energy        58.3730999162 Hartrees.
 IExCor=  419 DFT=T Ex+Corr=B2PLYPD3 ExCW=0 ScaHFX=  0.530000
 ScaDFX=  0.470000  0.470000  0.730000  0.730000 ScalE2=  0.270000  0.270000
 IRadAn=      0 IRanWt=     -1 IRanGd=            0 ICorTp=0 IEmpDi=141
 NAtoms=    6 NActive=    6 NUniq=    6 SFac= 1.00D+00 NAtFMM=   60 NAOKFM=F Big=F
 Integral buffers will be    131072 words long.
 Regular integral format.
 Two-electron integral symmetry is turned on.
 R6Disp:  Grimme-D3(BJ) Dispersion energy=       -0.0021056842 Hartrees.
 Nuclear repulsion after empirical dispersion term =       58.3709942319 Hartrees.
 Leave Link  301 at Wed Aug 26 21:23:49 2020, MaxMem=  2097152000 cpu:         0.4
 (Enter /opt/cluster/programs/g09/g09_d.01/g09/l302.exe)
 NPDir=0 NMtPBC=     1 NCelOv=     1 NCel=       1 NClECP=     1 NCelD=      1
         NCelK=      1 NCelE2=     1 NClLst=     1 CellRange=     0.0.
 One-electron integrals computed using PRISM.
   1 Symmetry operations used in ECPInt.
 ECPInt:  NShTT=    3321 NPrTT=    8136 LenC2=    3292 LenP2D=    7123.
 LDataN:  DoStor=T MaxTD1= 8 Len=  415
 NBasis=   261 RedAO= T EigKep=  8.19D-05  NBF=   261
 NBsUse=   261 1.00D-06 EigRej= -1.00D+00 NBFU=   261
 Precomputing XC quadrature grid using
 IXCGrd= 4 IRadAn=           0 IRanWt=          -1 IRanGd=           0 AccXCQ= 0.00D+00.
 Generated NRdTot=       0 NPtTot=           0 NUsed=           0 NTot=          32
 NSgBfM=   321   321   321   321   321 MxSgAt=     6 MxSgA2=     6.
 Leave Link  302 at Wed Aug 26 21:23:49 2020, MaxMem=  2097152000 cpu:         1.9
 (Enter /opt/cluster/programs/g09/g09_d.01/g09/l303.exe)
 DipDrv:  MaxL=1.
 Leave Link  303 at Wed Aug 26 21:23:49 2020, MaxMem=  2097152000 cpu:         0.2
 (Enter /opt/cluster/programs/g09/g09_d.01/g09/l401.exe)
 ExpMin= 7.60D-02 ExpMax= 9.07D+04 ExpMxC= 8.76D+02 IAcc=2 IRadAn=         4 AccDes= 0.00D+00
 Harris functional with IExCor=  419 and IRadAn=       4 diagonalized for initial guess.
 HarFok:  IExCor=  419 AccDes= 0.00D+00 IRadAn=         4 IDoV= 1 UseB2=F ITyADJ=14
 ICtDFT=  3500011 ScaDFX=  1.000000  1.000000  1.000000  1.000000
 FoFCou: FMM=F IPFlag=           0 FMFlag=      100000 FMFlg1=           0
         NFxFlg=           0 DoJE=T BraDBF=F KetDBF=T FulRan=T
         wScrn=  0.000000 ICntrl=     500 IOpCl=  0 I1Cent=   200000004 NGrid=           0
         NMat0=    1 NMatS0=      1 NMatT0=    0 NMatD0=    1 NMtDS0=    0 NMtDT0=    0
 Petite list used in FoFCou.
 Harris En= -132.846040574624    
 JPrj=0 DoOrth=F DoCkMO=F.
 Leave Link  401 at Wed Aug 26 21:23:50 2020, MaxMem=  2097152000 cpu:         3.8
 (Enter /opt/cluster/programs/g09/g09_d.01/g09/l502.exe)
 Closed shell SCF:
 Using DIIS extrapolation, IDIIS=  1040.
 Integral symmetry usage will be decided dynamically.
 Keep R1 ints in memory in canonical form, NReq=601554820.
 IVT=      332521 IEndB=      332521 NGot=  2097152000 MDV=  1512290144
 LenX=  1512290144 LenY=  1512186662
 Requested convergence on RMS density matrix=1.00D-08 within 128 cycles.
 Requested convergence on MAX density matrix=1.00D-06.
 Requested convergence on             energy=1.00D-06.
 No special actions if energy rises.
 FoFCou: FMM=F IPFlag=           0 FMFlag=           0 FMFlg1=           0
         NFxFlg=           0 DoJE=F BraDBF=F KetDBF=F FulRan=T
         wScrn=  0.000000 ICntrl=     600 IOpCl=  0 I1Cent=           0 NGrid=           0
         NMat0=    1 NMatS0=  34191 NMatT0=    0 NMatD0=    1 NMtDS0=    0 NMtDT0=    0
 Symmetry not used in FoFCou.
 Integral accuracy reduced to 1.0D-05 until final iterations.

 Cycle   1  Pass 0  IDiag  1:
 E= -132.414904784525    
 DIIS: error= 2.59D-02 at cycle   1 NSaved=   1.
 NSaved= 1 IEnMin= 1 EnMin= -132.414904784525     IErMin= 1 ErrMin= 2.59D-02
 ErrMax= 2.59D-02  0.00D+00 EMaxC= 1.00D-01 BMatC= 1.93D-01 BMatP= 1.93D-01
 IDIUse=3 WtCom= 7.41D-01 WtEn= 2.59D-01
 Coeff-Com:  0.100D+01
 Coeff-En:   0.100D+01
 Coeff:      0.100D+01
 Gap=     0.460 Goal=   None    Shift=    0.000
 GapD=    0.460 DampG=2.000 DampE=0.500 DampFc=1.0000 IDamp=-1.
 RMSDP=1.35D-03 MaxDP=7.55D-02              OVMax= 1.71D-01

 Cycle   2  Pass 0  IDiag  1:
 E= -132.442969600356     Delta-E=       -0.028064815831 Rises=F Damp=F
 DIIS: error= 3.08D-02 at cycle   2 NSaved=   2.
 NSaved= 2 IEnMin= 2 EnMin= -132.442969600356     IErMin= 1 ErrMin= 2.59D-02
 ErrMax= 3.08D-02  0.00D+00 EMaxC= 1.00D-01 BMatC= 1.03D-01 BMatP= 1.93D-01
 IDIUse=3 WtCom= 6.92D-01 WtEn= 3.08D-01
 Coeff-Com:  0.407D+00 0.593D+00
 Coeff-En:   0.417D+00 0.583D+00
 Coeff:      0.410D+00 0.590D+00
 Gap=     0.464 Goal=   None    Shift=    0.000
 RMSDP=8.72D-04 MaxDP=3.66D-02 DE=-2.81D-02 OVMax= 1.25D-01

 Cycle   3  Pass 0  IDiag  1:
 E= -132.514310136497     Delta-E=       -0.071340536141 Rises=F Damp=F
 DIIS: error= 1.43D-02 at cycle   3 NSaved=   3.
 NSaved= 3 IEnMin= 3 EnMin= -132.514310136497     IErMin= 3 ErrMin= 1.43D-02
 ErrMax= 1.43D-02  0.00D+00 EMaxC= 1.00D-01 BMatC= 1.87D-02 BMatP= 1.03D-01
 IDIUse=3 WtCom= 8.57D-01 WtEn= 1.43D-01
 Coeff-Com:  0.910D-01 0.310D+00 0.599D+00
 Coeff-En:   0.000D+00 0.102D+00 0.898D+00
 Coeff:      0.780D-01 0.281D+00 0.641D+00
 Gap=     0.431 Goal=   None    Shift=    0.000
 RMSDP=2.58D-04 MaxDP=9.26D-03 DE=-7.13D-02 OVMax= 5.62D-02

 Cycle   4  Pass 0  IDiag  1:
 E= -132.527256558395     Delta-E=       -0.012946421897 Rises=F Damp=F
 DIIS: error= 5.13D-03 at cycle   4 NSaved=   4.
 NSaved= 4 IEnMin= 4 EnMin= -132.527256558395     IErMin= 4 ErrMin= 5.13D-03
 ErrMax= 5.13D-03  0.00D+00 EMaxC= 1.00D-01 BMatC= 2.71D-03 BMatP= 1.87D-02
 IDIUse=3 WtCom= 9.49D-01 WtEn= 5.13D-02
 Coeff-Com: -0.124D-01 0.479D-01 0.325D+00 0.639D+00
 Coeff-En:   0.000D+00 0.000D+00 0.129D+00 0.871D+00
 Coeff:     -0.118D-01 0.454D-01 0.315D+00 0.651D+00
 Gap=     0.431 Goal=   None    Shift=    0.000
 RMSDP=8.68D-05 MaxDP=2.84D-03 DE=-1.29D-02 OVMax= 1.45D-02

 Cycle   5  Pass 0  IDiag  1:
 E= -132.529595310468     Delta-E=       -0.002338752073 Rises=F Damp=F
 DIIS: error= 3.15D-04 at cycle   5 NSaved=   5.
 NSaved= 5 IEnMin= 5 EnMin= -132.529595310468     IErMin= 5 ErrMin= 3.15D-04
 ErrMax= 3.15D-04  0.00D+00 EMaxC= 1.00D-01 BMatC= 1.35D-05 BMatP= 2.71D-03
 IDIUse=3 WtCom= 9.97D-01 WtEn= 3.15D-03
 Coeff-Com: -0.368D-02 0.529D-02 0.533D-01 0.154D+00 0.791D+00
 Coeff-En:   0.000D+00 0.000D+00 0.000D+00 0.000D+00 0.100D+01
 Coeff:     -0.367D-02 0.527D-02 0.531D-01 0.153D+00 0.792D+00
 Gap=     0.430 Goal=   None    Shift=    0.000
 RMSDP=8.59D-06 MaxDP=3.31D-04 DE=-2.34D-03 OVMax= 1.15D-03

 Initial convergence to 1.0D-05 achieved.  Increase integral accuracy.
 Cycle   6  Pass 1  IDiag  1:
 E= -132.529609609578     Delta-E=       -0.000014299110 Rises=F Damp=F
 DIIS: error= 8.38D-05 at cycle   1 NSaved=   1.
 NSaved= 1 IEnMin= 1 EnMin= -132.529609609578     IErMin= 1 ErrMin= 8.38D-05
 ErrMax= 8.38D-05  0.00D+00 EMaxC= 1.00D-01 BMatC= 7.31D-07 BMatP= 7.31D-07
 IDIUse=1 WtCom= 1.00D+00 WtEn= 0.00D+00
 Coeff-Com:  0.100D+01
 Coeff:      0.100D+01
 Gap=     0.430 Goal=   None    Shift=    0.000
 RMSDP=8.59D-06 MaxDP=3.31D-04 DE=-1.43D-05 OVMax= 4.39D-04

 Cycle   7  Pass 1  IDiag  1:
 E= -132.529610025738     Delta-E=       -0.000000416160 Rises=F Damp=F
 DIIS: error= 5.25D-05 at cycle   2 NSaved=   2.
 NSaved= 2 IEnMin= 2 EnMin= -132.529610025738     IErMin= 2 ErrMin= 5.25D-05
 ErrMax= 5.25D-05  0.00D+00 EMaxC= 1.00D-01 BMatC= 3.68D-07 BMatP= 7.31D-07
 IDIUse=1 WtCom= 1.00D+00 WtEn= 0.00D+00
 Coeff-Com:  0.408D+00 0.592D+00
 Coeff:      0.408D+00 0.592D+00
 Gap=     0.430 Goal=   None    Shift=    0.000
 RMSDP=1.10D-06 MaxDP=4.56D-05 DE=-4.16D-07 OVMax= 1.76D-04

 Cycle   8  Pass 1  IDiag  1:
 E= -132.529610351036     Delta-E=       -0.000000325298 Rises=F Damp=F
 DIIS: error= 1.32D-05 at cycle   3 NSaved=   3.
 NSaved= 3 IEnMin= 3 EnMin= -132.529610351036     IErMin= 3 ErrMin= 1.32D-05
 ErrMax= 1.32D-05  0.00D+00 EMaxC= 1.00D-01 BMatC= 1.96D-08 BMatP= 3.68D-07
 IDIUse=1 WtCom= 1.00D+00 WtEn= 0.00D+00
 Coeff-Com:  0.100D+00 0.216D+00 0.684D+00
 Coeff:      0.100D+00 0.216D+00 0.684D+00
 Gap=     0.430 Goal=   None    Shift=    0.000
 RMSDP=5.91D-07 MaxDP=2.49D-05 DE=-3.25D-07 OVMax= 5.79D-05

 Cycle   9  Pass 1  IDiag  1:
 E= -132.529610362453     Delta-E=       -0.000000011417 Rises=F Damp=F
 DIIS: error= 1.07D-05 at cycle   4 NSaved=   4.
 NSaved= 4 IEnMin= 4 EnMin= -132.529610362453     IErMin= 4 ErrMin= 1.07D-05
 ErrMax= 1.07D-05  0.00D+00 EMaxC= 1.00D-01 BMatC= 7.72D-09 BMatP= 1.96D-08
 IDIUse=1 WtCom= 1.00D+00 WtEn= 0.00D+00
 Coeff-Com: -0.605D-01-0.404D-01 0.421D+00 0.680D+00
 Coeff:     -0.605D-01-0.404D-01 0.421D+00 0.680D+00
 Gap=     0.430 Goal=   None    Shift=    0.000
 RMSDP=2.88D-07 MaxDP=1.47D-05 DE=-1.14D-08 OVMax= 3.67D-05

 Cycle  10  Pass 1  IDiag  1:
 E= -132.529610369686     Delta-E=       -0.000000007233 Rises=F Damp=F
 DIIS: error= 1.04D-06 at cycle   5 NSaved=   5.
 NSaved= 5 IEnMin= 5 EnMin= -132.529610369686     IErMin= 5 ErrMin= 1.04D-06
 ErrMax= 1.04D-06  0.00D+00 EMaxC= 1.00D-01 BMatC= 1.24D-10 BMatP= 7.72D-09
 IDIUse=1 WtCom= 1.00D+00 WtEn= 0.00D+00
 Coeff-Com: -0.233D-01-0.221D-01 0.946D-01 0.213D+00 0.738D+00
 Coeff:     -0.233D-01-0.221D-01 0.946D-01 0.213D+00 0.738D+00
 Gap=     0.430 Goal=   None    Shift=    0.000
 RMSDP=4.88D-08 MaxDP=2.49D-06 DE=-7.23D-09 OVMax= 3.83D-06

 Cycle  11  Pass 1  IDiag  1:
 E= -132.529610369810     Delta-E=       -0.000000000125 Rises=F Damp=F
 DIIS: error= 2.53D-07 at cycle   6 NSaved=   6.
 NSaved= 6 IEnMin= 6 EnMin= -132.529610369810     IErMin= 6 ErrMin= 2.53D-07
 ErrMax= 2.53D-07  0.00D+00 EMaxC= 1.00D-01 BMatC= 6.32D-12 BMatP= 1.24D-10
 IDIUse=1 WtCom= 1.00D+00 WtEn= 0.00D+00
 Coeff-Com:  0.411D-02 0.215D-02-0.376D-01-0.403D-01 0.779D-01 0.994D+00
 Coeff:      0.411D-02 0.215D-02-0.376D-01-0.403D-01 0.779D-01 0.994D+00
 Gap=     0.430 Goal=   None    Shift=    0.000
 RMSDP=1.17D-08 MaxDP=5.08D-07 DE=-1.25D-10 OVMax= 1.89D-06

 Cycle  12  Pass 1  IDiag  1:
 E= -132.529610369823     Delta-E=       -0.000000000013 Rises=F Damp=F
 DIIS: error= 8.01D-08 at cycle   7 NSaved=   7.
 NSaved= 7 IEnMin= 7 EnMin= -132.529610369823     IErMin= 7 ErrMin= 8.01D-08
 ErrMax= 8.01D-08  0.00D+00 EMaxC= 1.00D-01 BMatC= 3.29D-13 BMatP= 6.32D-12
 IDIUse=1 WtCom= 1.00D+00 WtEn= 0.00D+00
 Coeff-Com: -0.887D-04 0.487D-03 0.729D-02 0.317D-02-0.626D-01-0.339D+00
 Coeff-Com:  0.139D+01
 Coeff:     -0.887D-04 0.487D-03 0.729D-02 0.317D-02-0.626D-01-0.339D+00
 Coeff:      0.139D+01
 Gap=     0.430 Goal=   None    Shift=    0.000
 RMSDP=4.10D-09 MaxDP=1.25D-07 DE=-1.27D-11 OVMax= 9.56D-07

 SCF Done:  E(RB2PLYPD3) =  -132.529610370     A.U. after   12 cycles
            NFock= 12  Conv=0.41D-08     -V/T= 2.0037
 KE= 1.320410305394D+02 PE=-4.253785548491D+02 EE= 1.024369197079D+02
 Leave Link  502 at Wed Aug 26 21:24:11 2020, MaxMem=  2097152000 cpu:        97.1
 (Enter /opt/cluster/programs/g09/g09_d.01/g09/l801.exe)
 DoSCS=T DFT=T ScalE2(SS,OS)=  0.270000  0.270000
 ExpMin= 7.60D-02 ExpMax= 9.07D+04 ExpMxC= 8.76D+02 IAcc=3 IRadAn=         5 AccDes= 0.00D+00
 HarFok:  IExCor=  205 AccDes= 0.00D+00 IRadAn=         5 IDoV=-2 UseB2=F ITyADJ=14
 ICtDFT= 12500011 ScaDFX=  1.000000  1.000000  1.000000  1.000000
 Largest valence mixing into a core orbital is  1.15D-04
 Largest core mixing into a valence orbital is  1.84D-05
 Range of M.O.s used for correlation:     4   261
 NBasis=   261 NAE=    11 NBE=    11 NFC=     3 NFV=     0
 NROrb=    258 NOA=     8 NOB=     8 NVA=   250 NVB=   250

 **** Warning!!: The largest alpha MO coefficient is  0.26425863D+02

 Leave Link  801 at Wed Aug 26 21:24:11 2020, MaxMem=  2097152000 cpu:         0.6
 (Enter /opt/cluster/programs/g09/g09_d.01/g09/l906.exe)
 DoSCS=T DFT=T ScalE2(SS,OS)=  0.270000  0.270000
 FulOut=F Deriv=F AODrv=F NAtomX=     6
   MMem=        2666  MDisk=           8 MDiskD=           8
  W3Min=      642000 MinDsk=     1426009 NBas6D=         321
 NBas2D=       52689    NTT=       51681    LW2=     4508827
    MDV=  2096809469 MDiskM=       14501 NBas2p=       52155
 Fully direct method using O(OVN) memory.
 IMap=   1   2   3   4   5   6   7   8
 JobTyp=1 Pass  1:  I=   1 to   8 NPSUse=  8 ParTrn=T ParDer=T DoDerP=F.
 Spin components of T(2) and E(2):
     alpha-alpha T2 =       0.3482360244D-01 E2=     -0.2116040535D-01
     alpha-beta  T2 =       0.2057637739D+00 E2=     -0.1369024394D+00
     beta-beta   T2 =       0.3482360244D-01 E2=     -0.2116040535D-01
 The integrals were generated   1 times.
 E2(B2PLYPD3) =    -0.1792232502D+00 E(B2PLYPD3) =    -0.13270883361998D+03
 Leave Link  906 at Wed Aug 26 21:24:24 2020, MaxMem=  2097152000 cpu:       100.0
 (Enter /opt/cluster/programs/g09/g09_d.01/g09/l601.exe)
 Copying SCF densities to generalized density rwf, IOpCl= 0 IROHF=0.

 **********************************************************************

            Population analysis using the SCF density.

 **********************************************************************

 Orbital symmetries:
       Occupied  (A) (A) (A) (A) (A) (A) (A) (A) (A) (A) (A)
       Virtual   (A) (A) (A) (A) (A) (A) (A) (A) (A) (A) (A) (A)
                 (A) (A) (A) (A) (A) (A) (A) (A) (A) (A) (A) (A)
                 (A) (A) (A) (A) (A) (A) (A) (A) (A) (A) (A) (A)
                 (A) (A) (A) (A) (A) (A) (A) (A) (A) (A) (A) (A)
                 (A) (A) (A) (A) (A) (A) (A) (A) (A) (A) (A) (A)
                 (A) (A) (A) (A) (A) (A) (A) (A) (A) (A) (A) (A)
                 (A) (A) (A) (A) (A) (A) (A) (A) (A) (A) (A) (A)
                 (A) (A) (A) (A) (A) (A) (A) (A) (A) (A) (A) (A)
                 (A) (A) (A) (A) (A) (A) (A) (A) (A) (A) (A) (A)
                 (A) (A) (A) (A) (A) (A) (A) (A) (A) (A) (A) (A)
                 (A) (A) (A) (A) (A) (A) (A) (A) (A) (A) (A) (A)
                 (A) (A) (A) (A) (A) (A) (A) (A) (A) (A) (A) (A)
                 (A) (A) (A) (A) (A) (A) (A) (A) (A) (A) (A) (A)
                 (A) (A) (A) (A) (A) (A) (A) (A) (A) (A) (A) (A)
                 (A) (A) (A) (A) (A) (A) (A) (A) (A) (A) (A) (A)
                 (A) (A) (A) (A) (A) (A) (A) (A) (A) (A) (A) (A)
                 (A) (A) (A) (A) (A) (A) (A) (A) (A) (A) (A) (A)
                 (A) (A) (A) (A) (A) (A) (A) (A) (A) (A) (A) (A)
                 (A) (A) (A) (A) (A) (A) (A) (A) (A) (A) (A) (A)
                 (A) (A) (A) (A) (A) (A) (A) (A) (A) (A) (A) (A)
                 (A) (A) (A) (A) (A) (A) (A) (A) (A) (A)
 The electronic state is 1-A.
 Alpha  occ. eigenvalues --  -14.83526 -10.67953 -10.65621  -1.04749  -0.88341
 Alpha  occ. eigenvalues --   -0.58184  -0.54381  -0.52803  -0.44516  -0.39553
 Alpha  occ. eigenvalues --   -0.39496
 Alpha virt. eigenvalues --    0.03518   0.07883   0.08838   0.10224   0.11352
 Alpha virt. eigenvalues --    0.11676   0.14953   0.15539   0.16817   0.19897
 Alpha virt. eigenvalues --    0.20079   0.24871   0.32477   0.33929   0.34464
 Alpha virt. eigenvalues --    0.37928   0.39533   0.39978   0.40273   0.46617
 Alpha virt. eigenvalues --    0.49375   0.53634   0.57876   0.60500   0.61445
 Alpha virt. eigenvalues --    0.65386   0.67515   0.68376   0.70863   0.78891
 Alpha virt. eigenvalues --    0.79784   0.81408   0.82134   0.83274   0.86830
 Alpha virt. eigenvalues --    0.90785   0.93864   0.95197   0.97011   0.97961
 Alpha virt. eigenvalues --    1.04405   1.06540   1.08712   1.11015   1.13068
 Alpha virt. eigenvalues --    1.15324   1.21776   1.23598   1.24464   1.33860
 Alpha virt. eigenvalues --    1.35560   1.42451   1.45797   1.49958   1.53494
 Alpha virt. eigenvalues --    1.63331   1.67179   1.71325   1.72656   1.78377
 Alpha virt. eigenvalues --    1.78971   1.79662   1.87871   1.91492   1.92701
 Alpha virt. eigenvalues --    1.95896   1.98421   1.99312   2.01902   2.04155
 Alpha virt. eigenvalues --    2.06488   2.07839   2.13486   2.16585   2.18789
 Alpha virt. eigenvalues --    2.22509   2.24954   2.28716   2.33189   2.34391
 Alpha virt. eigenvalues --    2.40340   2.49288   2.51679   2.57458   2.59021
 Alpha virt. eigenvalues --    2.61458   2.66708   2.69253   2.71432   2.73595
 Alpha virt. eigenvalues --    2.75825   2.76765   2.83847   2.86388   2.87679
 Alpha virt. eigenvalues --    2.90063   2.92461   2.94062   2.96784   2.99833
 Alpha virt. eigenvalues --    3.07738   3.13660   3.21687   3.26071   3.29117
 Alpha virt. eigenvalues --    3.33480   3.37335   3.39549   3.42994   3.43308
 Alpha virt. eigenvalues --    3.53470   3.60143   3.66751   3.73447   3.76086
 Alpha virt. eigenvalues --    3.82650   3.85881   3.90779   3.92533   3.94679
 Alpha virt. eigenvalues --    4.02964   4.04646   4.05089   4.24187   4.27413
 Alpha virt. eigenvalues --    4.53965   4.91756   4.91782   5.05230   5.07924
 Alpha virt. eigenvalues --    5.12065   5.13854   5.18701   5.20755   5.28438
 Alpha virt. eigenvalues --    5.29993   5.43137   5.45656   5.48162   5.66333
 Alpha virt. eigenvalues --    5.70996   5.83265   5.86205   5.88743   5.90857
 Alpha virt. eigenvalues --    5.92214   5.93169   5.94970   5.97541   5.98931
 Alpha virt. eigenvalues --    6.03144   6.03719   6.05827   6.06759   6.09035
 Alpha virt. eigenvalues --    6.14043   6.17539   6.19942   6.25302   6.30617
 Alpha virt. eigenvalues --    6.36005   6.38469   6.48994   6.53332   6.55787
 Alpha virt. eigenvalues --    6.59114   6.64047   6.80454   6.86580   6.89889
 Alpha virt. eigenvalues --    6.94302   6.99350   7.03147   7.03155   7.13677
 Alpha virt. eigenvalues --    7.15576   7.22146   7.23260   7.28620   7.38846
 Alpha virt. eigenvalues --    7.47643   7.51203   7.53177   7.54417   7.57428
 Alpha virt. eigenvalues --    7.68436   7.69436   7.70274   7.79852   7.82940
 Alpha virt. eigenvalues --    7.85445   7.90418   7.95229   7.97113   8.17507
 Alpha virt. eigenvalues --    8.23510   8.31723   8.36018   8.38908   8.40130
 Alpha virt. eigenvalues --    8.42991   8.46497   8.48254   8.48648   8.55314
 Alpha virt. eigenvalues --    8.56399   8.64273   8.66382   8.67338   8.67920
 Alpha virt. eigenvalues --    8.71380   8.75278   8.80878   8.91704   8.95035
 Alpha virt. eigenvalues --    9.01703   9.06224   9.13020   9.18804   9.22665
 Alpha virt. eigenvalues --    9.24620   9.27112   9.58121   9.69451   9.76076
 Alpha virt. eigenvalues --    9.82766   9.84628   9.89132   9.98636   9.99479
 Alpha virt. eigenvalues --   10.10120  10.15397  10.17757  10.25566  10.33858
 Alpha virt. eigenvalues --   10.35852  10.56650  11.39565  11.79786  11.87611
 Alpha virt. eigenvalues --   11.96757  12.06695  13.09357  13.38602  29.13833
 Alpha virt. eigenvalues --   29.40642  38.37094 148.78590 149.04101 198.30592
          Condensed to atoms (all electrons):
               1          2          3          4          5          6
     1  C    4.630147   0.302875  -0.058105   0.409686   0.413783   0.409681
     2  C    0.302875   4.840188   0.993573  -0.036889  -0.039540  -0.052139
     3  N   -0.058105   0.993573   6.261299  -0.000893  -0.001139   0.000737
     4  H    0.409686  -0.036889  -0.000893   0.587531  -0.031124  -0.028800
     5  H    0.413783  -0.039540  -0.001139  -0.031124   0.576023  -0.022286
     6  H    0.409681  -0.052139   0.000737  -0.028800  -0.022286   0.585973
 Mulliken charges:
               1
     1  C   -0.108066
     2  C   -0.008068
     3  N   -0.195472
     4  H    0.100489
     5  H    0.104284
     6  H    0.106834
 Sum of Mulliken charges =   0.00000
 Mulliken charges with hydrogens summed into heavy atoms:
               1
     1  C    0.203541
     2  C   -0.008068
     3  N   -0.195472
 Electronic spatial extent (au):  <R**2>=            162.4649
 Charge=              0.0000 electrons
 Dipole moment (field-independent basis, Debye):
    X=              4.0718    Y=             -0.0519    Z=              0.0192  Tot=              4.0722
 Quadrupole moment (field-independent basis, Debye-Ang):
   XX=            -21.3281   YY=            -17.4565   ZZ=            -17.8317
   XY=              0.2698   XZ=              0.1951   YZ=              0.0335
 Traceless Quadrupole moment (field-independent basis, Debye-Ang):
   XX=             -2.4560   YY=              1.4157   ZZ=              1.0404
   XY=              0.2698   XZ=              0.1951   YZ=              0.0335
 Octapole moment (field-independent basis, Debye-Ang**2):
  XXX=             11.9074  YYY=              0.1734  ZZZ=              0.9511  XYY=              2.4251
  XXY=              0.4331  XXZ=              0.4663  XZZ=              1.9601  YZZ=             -0.0657
  YYZ=             -0.8936  XYZ=             -0.0296
 Hexadecapole moment (field-independent basis, Debye-Ang**3):
 XXXX=           -184.7384 YYYY=            -25.0276 ZZZZ=            -24.6981 XXXY=              1.4001
 XXXZ=              1.2278 YYYX=              0.3045 YYYZ=              0.0428 ZZZX=              1.6864
 ZZZY=              0.1284 XXYY=            -31.0751 XXZZ=            -31.4336 YYZZ=             -8.3337
 XXYZ=             -0.1747 YYXZ=             -1.3955 ZZXY=             -0.1057
 N-N= 5.837099423195D+01 E-N=-4.253785556423D+02  KE= 1.320410305394D+02
 Leave Link  601 at Wed Aug 26 21:24:28 2020, MaxMem=  2097152000 cpu:         0.3
 (Enter /opt/cluster/programs/g09/g09_d.01/g09/l9999.exe)
 1\1\GINC-NODE22\SP\RB2PLYPD3-FC\def2QZVP\C2H3N1\BOITTIER\26-Aug-2020\0
 \\#p B2PLYPD3/Def2QZVP\\cyanomethane\\0,1\C,0,-6.612402,-1.13367,1.166
 704\C,0,-5.196658,-0.737797,0.901106\N,0,-4.092325,-0.562185,0.706893\
 H,0,-6.774968,-1.245044,2.23687\H,0,-6.837255,-2.139826,0.676724\H,0,-
 7.144902,-0.266521,0.781758\\Version=ES64L-G09RevD.01\State=1-A\HF=-13
 2.5296104\MP2=-132.7088336\RMSD=4.103e-09\PG=C01 [X(C2H3N1)]\\@


 PATIENCE IS THE ABILITY TO IDLE YOUR MOTOR WHEN
 YOU FEEL LIKE STRIPPING YOUR GEARS.
 Job cpu time:       0 days  0 hours  3 minutes 25.6 seconds.
 File lengths (MBytes):  RWF=     28 Int=      0 D2E=      0 Chk=      5 Scr=      1
 Normal termination of Gaussian 09 at Wed Aug 26 21:24:29 2020.
