 Entering Gaussian System, Link 0=/opt/cluster/programs/g09/g09_d.01/g09//g09
 Input=/home/boittier/MDCM/nms_sampling/cyanomethane_geom.xyz.dir/energies/cyanomethane_1967_energy.com
 Output=/scratch/boittier/cyanomethane_1967_energy/cyanomethane_1967_energy.out
 Initial command:
 /opt/cluster/programs/g09/g09_d.01/g09/l1.exe "/scratch/boittier/cyanomethane_1967_energy/Gau-175261.inp" -scrdir="/scratch/boittier/cyanomethane_1967_energy/"
 Entering Link 1 = /opt/cluster/programs/g09/g09_d.01/g09/l1.exe PID=    175262.
  
 Copyright (c) 1988,1990,1992,1993,1995,1998,2003,2009,2013,
            Gaussian, Inc.  All Rights Reserved.
  
 This is part of the Gaussian(R) 09 program.  It is based on
 the Gaussian(R) 03 system (copyright 2003, Gaussian, Inc.),
 the Gaussian(R) 98 system (copyright 1998, Gaussian, Inc.),
 the Gaussian(R) 94 system (copyright 1995, Gaussian, Inc.),
 the Gaussian 92(TM) system (copyright 1992, Gaussian, Inc.),
 the Gaussian 90(TM) system (copyright 1990, Gaussian, Inc.),
 the Gaussian 88(TM) system (copyright 1988, Gaussian, Inc.),
 the Gaussian 86(TM) system (copyright 1986, Carnegie Mellon
 University), and the Gaussian 82(TM) system (copyright 1983,
 Carnegie Mellon University). Gaussian is a federally registered
 trademark of Gaussian, Inc.
  
 This software contains proprietary and confidential information,
 including trade secrets, belonging to Gaussian, Inc.
  
 This software is provided under written license and may be
 used, copied, transmitted, or stored only in accord with that
 written license.
  
 The following legend is applicable only to US Government
 contracts under FAR:
  
                    RESTRICTED RIGHTS LEGEND
  
 Use, reproduction and disclosure by the US Government is
 subject to restrictions as set forth in subparagraphs (a)
 and (c) of the Commercial Computer Software - Restricted
 Rights clause in FAR 52.227-19.
  
 Gaussian, Inc.
 340 Quinnipiac St., Bldg. 40, Wallingford CT 06492
  
  
 ---------------------------------------------------------------
 Warning -- This program may not be used in any manner that
 competes with the business of Gaussian, Inc. or will provide
 assistance to any competitor of Gaussian, Inc.  The licensee
 of this program is prohibited from giving any competitor of
 Gaussian, Inc. access to this program.  By using this program,
 the user acknowledges that Gaussian, Inc. is engaged in the
 business of creating and licensing software in the field of
 computational chemistry and represents and warrants to the
 licensee that it is not a competitor of Gaussian, Inc. and that
 it will not use this program in any manner prohibited above.
 ---------------------------------------------------------------
  

 Cite this work as:
 Gaussian 09, Revision D.01,
 M. J. Frisch, G. W. Trucks, H. B. Schlegel, G. E. Scuseria, 
 M. A. Robb, J. R. Cheeseman, G. Scalmani, V. Barone, B. Mennucci, 
 G. A. Petersson, H. Nakatsuji, M. Caricato, X. Li, H. P. Hratchian, 
 A. F. Izmaylov, J. Bloino, G. Zheng, J. L. Sonnenberg, M. Hada, 
 M. Ehara, K. Toyota, R. Fukuda, J. Hasegawa, M. Ishida, T. Nakajima, 
 Y. Honda, O. Kitao, H. Nakai, T. Vreven, J. A. Montgomery, Jr., 
 J. E. Peralta, F. Ogliaro, M. Bearpark, J. J. Heyd, E. Brothers, 
 K. N. Kudin, V. N. Staroverov, T. Keith, R. Kobayashi, J. Normand, 
 K. Raghavachari, A. Rendell, J. C. Burant, S. S. Iyengar, J. Tomasi, 
 M. Cossi, N. Rega, J. M. Millam, M. Klene, J. E. Knox, J. B. Cross, 
 V. Bakken, C. Adamo, J. Jaramillo, R. Gomperts, R. E. Stratmann, 
 O. Yazyev, A. J. Austin, R. Cammi, C. Pomelli, J. W. Ochterski, 
 R. L. Martin, K. Morokuma, V. G. Zakrzewski, G. A. Voth, 
 P. Salvador, J. J. Dannenberg, S. Dapprich, A. D. Daniels, 
 O. Farkas, J. B. Foresman, J. V. Ortiz, J. Cioslowski, 
 and D. J. Fox, Gaussian, Inc., Wallingford CT, 2013.
 
 ******************************************
 Gaussian 09:  ES64L-G09RevD.01 24-Apr-2013
                26-Aug-2020 
 ******************************************
 %chk=/home/boittier/MDCM/nms_sampling/cyanomethane_geom.xyz.dir/cyanomethane_196
 7.chk
 %nproc=8
 Will use up to    8 processors via shared memory.
 %mem=16000MB
 --------------------
 #p B2PLYPD3/Def2QZVP
 --------------------
 1/38=1/1;
 2/12=2,17=6,18=5,40=1/2;
 3/5=45,7=101,11=9,16=1,25=1,30=1,74=-60/1,2,3;
 4//1;
 5/5=2,38=5/2;
 8/10=1/1;
 9/16=-3/6;
 6/7=2,8=2,9=2,10=2/1;
 99/5=1,9=1/99;
 Leave Link    1 at Wed Aug 26 14:17:10 2020, MaxMem=  2097152000 cpu:         0.2
 (Enter /opt/cluster/programs/g09/g09_d.01/g09/l101.exe)
 ------------
 cyanomethane
 ------------
 Symbolic Z-matrix:
 Charge =  0 Multiplicity = 1
 C                    -6.59071  -1.11861   1.18252 
 C                    -5.20832  -0.79679   0.85751 
 N                    -4.09814  -0.53443   0.7266 
 H                    -6.73811  -1.19871   2.20098 
 H                    -6.85647  -2.02493   0.72662 
 H                    -7.20305  -0.31122   0.82543 
 
 NAtoms=      6 NQM=        6 NQMF=       0 NMMI=      0 NMMIF=      0
                NMic=       0 NMicF=      0.
                    Isotopes and Nuclear Properties:
 (Nuclear quadrupole moments (NQMom) in fm**2, nuclear magnetic moments (NMagM)
  in nuclear magnetons)

  Atom         1           2           3           4           5           6
 IAtWgt=          12          12          14           1           1           1
 AtmWgt=  12.0000000  12.0000000  14.0030740   1.0078250   1.0078250   1.0078250
 NucSpn=           0           0           2           1           1           1
 AtZEff=   0.0000000   0.0000000   0.0000000   0.0000000   0.0000000   0.0000000
 NQMom=    0.0000000   0.0000000   2.0440000   0.0000000   0.0000000   0.0000000
 NMagM=    0.0000000   0.0000000   0.4037610   2.7928460   2.7928460   2.7928460
 AtZNuc=   6.0000000   6.0000000   7.0000000   1.0000000   1.0000000   1.0000000
 Leave Link  101 at Wed Aug 26 14:17:10 2020, MaxMem=  2097152000 cpu:         0.5
 (Enter /opt/cluster/programs/g09/g09_d.01/g09/l202.exe)
                          Input orientation:                          
 ---------------------------------------------------------------------
 Center     Atomic      Atomic             Coordinates (Angstroms)
 Number     Number       Type             X           Y           Z
 ---------------------------------------------------------------------
      1          6           0       -6.590709   -1.118613    1.182522
      2          6           0       -5.208319   -0.796794    0.857513
      3          7           0       -4.098139   -0.534433    0.726599
      4          1           0       -6.738106   -1.198707    2.200976
      5          1           0       -6.856472   -2.024925    0.726616
      6          1           0       -7.203049   -0.311219    0.825431
 ---------------------------------------------------------------------
                    Distance matrix (angstroms):
                    1          2          3          4          5
     1  C    0.000000
     2  C    1.456091   0.000000
     3  N    2.600392   1.148247   0.000000
     4  H    1.032177   2.075253   3.095880   0.000000
     5  H    1.048752   2.059575   3.135278   1.694221   0.000000
     6  H    1.074411   2.053232   3.114492   1.701744   1.751191
                    6
     6  H    0.000000
 Stoichiometry    C2H3N
 Framework group  C1[X(C2H3N)]
 Deg. of freedom    12
 Full point group                 C1      NOp   1
 Largest Abelian subgroup         C1      NOp   1
 Largest concise Abelian subgroup C1      NOp   1
                         Standard orientation:                         
 ---------------------------------------------------------------------
 Center     Atomic      Atomic             Coordinates (Angstroms)
 Number     Number       Type             X           Y           Z
 ---------------------------------------------------------------------
      1          6           0       -1.175954   -0.004597    0.013401
      2          6           0        0.278697   -0.004543   -0.051338
      3          7           0        1.424405    0.001582    0.024723
      4          1           0       -1.517974   -0.032077    0.986878
      5          1           0       -1.550144   -0.836733   -0.503719
      6          1           0       -1.519173    0.912572   -0.428597
 ---------------------------------------------------------------------
 Rotational constants (GHZ):    167.8465162      9.3646756      9.3504927
 Leave Link  202 at Wed Aug 26 14:17:10 2020, MaxMem=  2097152000 cpu:         0.0
 (Enter /opt/cluster/programs/g09/g09_d.01/g09/l301.exe)
 Standard basis: def2QZVP (5D, 7F)
 Ernie: Thresh=  0.10000D-02 Tol=  0.10000D-05 Strict=F.
 There are   321 symmetry adapted cartesian basis functions of A   symmetry.
 There are   261 symmetry adapted basis functions of A   symmetry.
   261 basis functions,   390 primitive gaussians,   321 cartesian basis functions
    11 alpha electrons       11 beta electrons
       nuclear repulsion energy        59.1556563953 Hartrees.
 IExCor=  419 DFT=T Ex+Corr=B2PLYPD3 ExCW=0 ScaHFX=  0.530000
 ScaDFX=  0.470000  0.470000  0.730000  0.730000 ScalE2=  0.270000  0.270000
 IRadAn=      0 IRanWt=     -1 IRanGd=            0 ICorTp=0 IEmpDi=141
 NAtoms=    6 NActive=    6 NUniq=    6 SFac= 1.00D+00 NAtFMM=   60 NAOKFM=F Big=F
 Integral buffers will be    131072 words long.
 Regular integral format.
 Two-electron integral symmetry is turned on.
 R6Disp:  Grimme-D3(BJ) Dispersion energy=       -0.0021134260 Hartrees.
 Nuclear repulsion after empirical dispersion term =       59.1535429693 Hartrees.
 Leave Link  301 at Wed Aug 26 14:17:10 2020, MaxMem=  2097152000 cpu:         0.4
 (Enter /opt/cluster/programs/g09/g09_d.01/g09/l302.exe)
 NPDir=0 NMtPBC=     1 NCelOv=     1 NCel=       1 NClECP=     1 NCelD=      1
         NCelK=      1 NCelE2=     1 NClLst=     1 CellRange=     0.0.
 One-electron integrals computed using PRISM.
   1 Symmetry operations used in ECPInt.
 ECPInt:  NShTT=    3321 NPrTT=    8136 LenC2=    3299 LenP2D=    7143.
 LDataN:  DoStor=T MaxTD1= 8 Len=  415
 NBasis=   261 RedAO= T EigKep=  7.65D-05  NBF=   261
 NBsUse=   261 1.00D-06 EigRej= -1.00D+00 NBFU=   261
 Precomputing XC quadrature grid using
 IXCGrd= 4 IRadAn=           0 IRanWt=          -1 IRanGd=           0 AccXCQ= 0.00D+00.
 Generated NRdTot=       0 NPtTot=           0 NUsed=           0 NTot=          32
 NSgBfM=   321   321   321   321   321 MxSgAt=     6 MxSgA2=     6.
 Leave Link  302 at Wed Aug 26 14:17:10 2020, MaxMem=  2097152000 cpu:         2.4
 (Enter /opt/cluster/programs/g09/g09_d.01/g09/l303.exe)
 DipDrv:  MaxL=1.
 Leave Link  303 at Wed Aug 26 14:17:10 2020, MaxMem=  2097152000 cpu:         0.2
 (Enter /opt/cluster/programs/g09/g09_d.01/g09/l401.exe)
 ExpMin= 7.60D-02 ExpMax= 9.07D+04 ExpMxC= 8.76D+02 IAcc=2 IRadAn=         4 AccDes= 0.00D+00
 Harris functional with IExCor=  419 and IRadAn=       4 diagonalized for initial guess.
 HarFok:  IExCor=  419 AccDes= 0.00D+00 IRadAn=         4 IDoV= 1 UseB2=F ITyADJ=14
 ICtDFT=  3500011 ScaDFX=  1.000000  1.000000  1.000000  1.000000
 FoFCou: FMM=F IPFlag=           0 FMFlag=      100000 FMFlg1=           0
         NFxFlg=           0 DoJE=T BraDBF=F KetDBF=T FulRan=T
         wScrn=  0.000000 ICntrl=     500 IOpCl=  0 I1Cent=   200000004 NGrid=           0
         NMat0=    1 NMatS0=      1 NMatT0=    0 NMatD0=    1 NMtDS0=    0 NMtDT0=    0
 Petite list used in FoFCou.
 Harris En= -132.858660235736    
 JPrj=0 DoOrth=F DoCkMO=F.
 Leave Link  401 at Wed Aug 26 14:17:11 2020, MaxMem=  2097152000 cpu:         4.3
 (Enter /opt/cluster/programs/g09/g09_d.01/g09/l502.exe)
 Closed shell SCF:
 Using DIIS extrapolation, IDIIS=  1040.
 Integral symmetry usage will be decided dynamically.
 Keep R1 ints in memory in canonical form, NReq=601554820.
 IVT=      332521 IEndB=      332521 NGot=  2097152000 MDV=  1512290144
 LenX=  1512290144 LenY=  1512186662
 Requested convergence on RMS density matrix=1.00D-08 within 128 cycles.
 Requested convergence on MAX density matrix=1.00D-06.
 Requested convergence on             energy=1.00D-06.
 No special actions if energy rises.
 FoFCou: FMM=F IPFlag=           0 FMFlag=           0 FMFlg1=           0
         NFxFlg=           0 DoJE=F BraDBF=F KetDBF=F FulRan=T
         wScrn=  0.000000 ICntrl=     600 IOpCl=  0 I1Cent=           0 NGrid=           0
         NMat0=    1 NMatS0=  34191 NMatT0=    0 NMatD0=    1 NMtDS0=    0 NMtDT0=    0
 Symmetry not used in FoFCou.
 Integral accuracy reduced to 1.0D-05 until final iterations.

 Cycle   1  Pass 0  IDiag  1:
 E= -132.411066444272    
 DIIS: error= 3.64D-02 at cycle   1 NSaved=   1.
 NSaved= 1 IEnMin= 1 EnMin= -132.411066444272     IErMin= 1 ErrMin= 3.64D-02
 ErrMax= 3.64D-02  0.00D+00 EMaxC= 1.00D-01 BMatC= 2.01D-01 BMatP= 2.01D-01
 IDIUse=3 WtCom= 6.36D-01 WtEn= 3.64D-01
 Coeff-Com:  0.100D+01
 Coeff-En:   0.100D+01
 Coeff:      0.100D+01
 Gap=     0.464 Goal=   None    Shift=    0.000
 GapD=    0.464 DampG=2.000 DampE=0.500 DampFc=1.0000 IDamp=-1.
 RMSDP=1.29D-03 MaxDP=6.86D-02              OVMax= 1.58D-01

 Cycle   2  Pass 0  IDiag  1:
 E= -132.452777970458     Delta-E=       -0.041711526186 Rises=F Damp=F
 DIIS: error= 3.15D-02 at cycle   2 NSaved=   2.
 NSaved= 2 IEnMin= 2 EnMin= -132.452777970458     IErMin= 2 ErrMin= 3.15D-02
 ErrMax= 3.15D-02  0.00D+00 EMaxC= 1.00D-01 BMatC= 9.52D-02 BMatP= 2.01D-01
 IDIUse=3 WtCom= 6.85D-01 WtEn= 3.15D-01
 Coeff-Com:  0.391D+00 0.609D+00
 Coeff-En:   0.372D+00 0.628D+00
 Coeff:      0.385D+00 0.615D+00
 Gap=     0.445 Goal=   None    Shift=    0.000
 RMSDP=8.28D-04 MaxDP=3.34D-02 DE=-4.17D-02 OVMax= 1.20D-01

 Cycle   3  Pass 0  IDiag  1:
 E= -132.516136010697     Delta-E=       -0.063358040239 Rises=F Damp=F
 DIIS: error= 1.58D-02 at cycle   3 NSaved=   3.
 NSaved= 3 IEnMin= 3 EnMin= -132.516136010697     IErMin= 3 ErrMin= 1.58D-02
 ErrMax= 1.58D-02  0.00D+00 EMaxC= 1.00D-01 BMatC= 2.04D-02 BMatP= 9.52D-02
 IDIUse=3 WtCom= 8.42D-01 WtEn= 1.58D-01
 Coeff-Com:  0.987D-01 0.330D+00 0.571D+00
 Coeff-En:   0.000D+00 0.126D+00 0.874D+00
 Coeff:      0.831D-01 0.298D+00 0.619D+00
 Gap=     0.430 Goal=   None    Shift=    0.000
 RMSDP=2.73D-04 MaxDP=1.01D-02 DE=-6.34D-02 OVMax= 6.04D-02

 Cycle   4  Pass 0  IDiag  1:
 E= -132.529913364547     Delta-E=       -0.013777353850 Rises=F Damp=F
 DIIS: error= 5.91D-03 at cycle   4 NSaved=   4.
 NSaved= 4 IEnMin= 4 EnMin= -132.529913364547     IErMin= 4 ErrMin= 5.91D-03
 ErrMax= 5.91D-03  0.00D+00 EMaxC= 1.00D-01 BMatC= 3.25D-03 BMatP= 2.04D-02
 IDIUse=3 WtCom= 9.41D-01 WtEn= 5.91D-02
 Coeff-Com: -0.121D-01 0.518D-01 0.331D+00 0.630D+00
 Coeff-En:   0.000D+00 0.000D+00 0.150D+00 0.850D+00
 Coeff:     -0.113D-01 0.487D-01 0.320D+00 0.643D+00
 Gap=     0.432 Goal=   None    Shift=    0.000
 RMSDP=9.40D-05 MaxDP=2.77D-03 DE=-1.38D-02 OVMax= 1.66D-02

 Cycle   5  Pass 0  IDiag  1:
 E= -132.532685138766     Delta-E=       -0.002771774220 Rises=F Damp=F
 DIIS: error= 3.08D-04 at cycle   5 NSaved=   5.
 NSaved= 5 IEnMin= 5 EnMin= -132.532685138766     IErMin= 5 ErrMin= 3.08D-04
 ErrMax= 3.08D-04  0.00D+00 EMaxC= 1.00D-01 BMatC= 1.51D-05 BMatP= 3.25D-03
 IDIUse=3 WtCom= 9.97D-01 WtEn= 3.08D-03
 Coeff-Com: -0.333D-02 0.468D-02 0.460D-01 0.139D+00 0.814D+00
 Coeff-En:   0.000D+00 0.000D+00 0.000D+00 0.000D+00 0.100D+01
 Coeff:     -0.332D-02 0.467D-02 0.458D-01 0.138D+00 0.814D+00
 Gap=     0.431 Goal=   None    Shift=    0.000
 RMSDP=8.23D-06 MaxDP=3.03D-04 DE=-2.77D-03 OVMax= 1.28D-03

 Initial convergence to 1.0D-05 achieved.  Increase integral accuracy.
 Cycle   6  Pass 1  IDiag  1:
 E= -132.532697504697     Delta-E=       -0.000012365931 Rises=F Damp=F
 DIIS: error= 8.71D-05 at cycle   1 NSaved=   1.
 NSaved= 1 IEnMin= 1 EnMin= -132.532697504697     IErMin= 1 ErrMin= 8.71D-05
 ErrMax= 8.71D-05  0.00D+00 EMaxC= 1.00D-01 BMatC= 5.88D-07 BMatP= 5.88D-07
 IDIUse=1 WtCom= 1.00D+00 WtEn= 0.00D+00
 Coeff-Com:  0.100D+01
 Coeff:      0.100D+01
 Gap=     0.431 Goal=   None    Shift=    0.000
 RMSDP=8.23D-06 MaxDP=3.03D-04 DE=-1.24D-05 OVMax= 3.95D-04

 Cycle   7  Pass 1  IDiag  1:
 E= -132.532697860241     Delta-E=       -0.000000355543 Rises=F Damp=F
 DIIS: error= 4.06D-05 at cycle   2 NSaved=   2.
 NSaved= 2 IEnMin= 2 EnMin= -132.532697860241     IErMin= 2 ErrMin= 4.06D-05
 ErrMax= 4.06D-05  0.00D+00 EMaxC= 1.00D-01 BMatC= 2.57D-07 BMatP= 5.88D-07
 IDIUse=1 WtCom= 1.00D+00 WtEn= 0.00D+00
 Coeff-Com:  0.389D+00 0.611D+00
 Coeff:      0.389D+00 0.611D+00
 Gap=     0.431 Goal=   None    Shift=    0.000
 RMSDP=9.48D-07 MaxDP=3.52D-05 DE=-3.56D-07 OVMax= 1.66D-04

 Cycle   8  Pass 1  IDiag  1:
 E= -132.532698082200     Delta-E=       -0.000000221960 Rises=F Damp=F
 DIIS: error= 1.47D-05 at cycle   3 NSaved=   3.
 NSaved= 3 IEnMin= 3 EnMin= -132.532698082200     IErMin= 3 ErrMin= 1.47D-05
 ErrMax= 1.47D-05  0.00D+00 EMaxC= 1.00D-01 BMatC= 1.95D-08 BMatP= 2.57D-07
 IDIUse=1 WtCom= 1.00D+00 WtEn= 0.00D+00
 Coeff-Com:  0.101D+00 0.246D+00 0.653D+00
 Coeff:      0.101D+00 0.246D+00 0.653D+00
 Gap=     0.431 Goal=   None    Shift=    0.000
 RMSDP=5.38D-07 MaxDP=2.34D-05 DE=-2.22D-07 OVMax= 5.63D-05

 Cycle   9  Pass 1  IDiag  1:
 E= -132.532698094029     Delta-E=       -0.000000011829 Rises=F Damp=F
 DIIS: error= 1.00D-05 at cycle   4 NSaved=   4.
 NSaved= 4 IEnMin= 4 EnMin= -132.532698094029     IErMin= 4 ErrMin= 1.00D-05
 ErrMax= 1.00D-05  0.00D+00 EMaxC= 1.00D-01 BMatC= 6.47D-09 BMatP= 1.95D-08
 IDIUse=1 WtCom= 1.00D+00 WtEn= 0.00D+00
 Coeff-Com: -0.592D-01-0.324D-01 0.399D+00 0.693D+00
 Coeff:     -0.592D-01-0.324D-01 0.399D+00 0.693D+00
 Gap=     0.431 Goal=   None    Shift=    0.000
 RMSDP=2.63D-07 MaxDP=1.28D-05 DE=-1.18D-08 OVMax= 3.26D-05

 Cycle  10  Pass 1  IDiag  1:
 E= -132.532698100159     Delta-E=       -0.000000006129 Rises=F Damp=F
 DIIS: error= 8.87D-07 at cycle   5 NSaved=   5.
 NSaved= 5 IEnMin= 5 EnMin= -132.532698100159     IErMin= 5 ErrMin= 8.87D-07
 ErrMax= 8.87D-07  0.00D+00 EMaxC= 1.00D-01 BMatC= 8.04D-11 BMatP= 6.47D-09
 IDIUse=1 WtCom= 1.00D+00 WtEn= 0.00D+00
 Coeff-Com: -0.188D-01-0.179D-01 0.647D-01 0.176D+00 0.796D+00
 Coeff:     -0.188D-01-0.179D-01 0.647D-01 0.176D+00 0.796D+00
 Gap=     0.431 Goal=   None    Shift=    0.000
 RMSDP=4.22D-08 MaxDP=2.15D-06 DE=-6.13D-09 OVMax= 3.31D-06

 Cycle  11  Pass 1  IDiag  1:
 E= -132.532698100243     Delta-E=       -0.000000000084 Rises=F Damp=F
 DIIS: error= 3.04D-07 at cycle   6 NSaved=   6.
 NSaved= 6 IEnMin= 6 EnMin= -132.532698100243     IErMin= 6 ErrMin= 3.04D-07
 ErrMax= 3.04D-07  0.00D+00 EMaxC= 1.00D-01 BMatC= 5.80D-12 BMatP= 8.04D-11
 IDIUse=1 WtCom= 1.00D+00 WtEn= 0.00D+00
 Coeff-Com:  0.285D-02 0.374D-03-0.318D-01-0.305D-01 0.146D+00 0.913D+00
 Coeff:      0.285D-02 0.374D-03-0.318D-01-0.305D-01 0.146D+00 0.913D+00
 Gap=     0.431 Goal=   None    Shift=    0.000
 RMSDP=9.53D-09 MaxDP=3.71D-07 DE=-8.40D-11 OVMax= 1.44D-06

 SCF Done:  E(RB2PLYPD3) =  -132.532698100     A.U. after   11 cycles
            NFock= 11  Conv=0.95D-08     -V/T= 2.0021
 KE= 1.322569221991D+02 PE=-4.270631993567D+02 EE= 1.031200360881D+02
 Leave Link  502 at Wed Aug 26 14:17:32 2020, MaxMem=  2097152000 cpu:       100.0
 (Enter /opt/cluster/programs/g09/g09_d.01/g09/l801.exe)
 DoSCS=T DFT=T ScalE2(SS,OS)=  0.270000  0.270000
 ExpMin= 7.60D-02 ExpMax= 9.07D+04 ExpMxC= 8.76D+02 IAcc=3 IRadAn=         5 AccDes= 0.00D+00
 HarFok:  IExCor=  205 AccDes= 0.00D+00 IRadAn=         5 IDoV=-2 UseB2=F ITyADJ=14
 ICtDFT= 12500011 ScaDFX=  1.000000  1.000000  1.000000  1.000000
 Largest valence mixing into a core orbital is  1.16D-04
 Largest core mixing into a valence orbital is  1.90D-05
 Range of M.O.s used for correlation:     4   261
 NBasis=   261 NAE=    11 NBE=    11 NFC=     3 NFV=     0
 NROrb=    258 NOA=     8 NOB=     8 NVA=   250 NVB=   250

 **** Warning!!: The largest alpha MO coefficient is  0.36576745D+02

 Leave Link  801 at Wed Aug 26 14:17:32 2020, MaxMem=  2097152000 cpu:         0.7
 (Enter /opt/cluster/programs/g09/g09_d.01/g09/l906.exe)
 DoSCS=T DFT=T ScalE2(SS,OS)=  0.270000  0.270000
 FulOut=F Deriv=F AODrv=F NAtomX=     6
   MMem=        2666  MDisk=           8 MDiskD=           8
  W3Min=      642000 MinDsk=     1426009 NBas6D=         321
 NBas2D=       52689    NTT=       51681    LW2=     4508827
    MDV=  2096809165 MDiskM=       14501 NBas2p=       52161
 Fully direct method using O(OVN) memory.
 IMap=   1   2   3   4   5   6   7   8
 JobTyp=1 Pass  1:  I=   1 to   8 NPSUse=  8 ParTrn=T ParDer=T DoDerP=F.
 Spin components of T(2) and E(2):
     alpha-alpha T2 =       0.3504657220D-01 E2=     -0.2131966883D-01
     alpha-beta  T2 =       0.2040733891D+00 E2=     -0.1368723164D+00
     beta-beta   T2 =       0.3504657220D-01 E2=     -0.2131966883D-01
 The integrals were generated   1 times.
 E2(B2PLYPD3) =    -0.1795116541D+00 E(B2PLYPD3) =    -0.13271220975432D+03
 Leave Link  906 at Wed Aug 26 14:17:47 2020, MaxMem=  2097152000 cpu:       118.4
 (Enter /opt/cluster/programs/g09/g09_d.01/g09/l601.exe)
 Copying SCF densities to generalized density rwf, IOpCl= 0 IROHF=0.

 **********************************************************************

            Population analysis using the SCF density.

 **********************************************************************

 Orbital symmetries:
       Occupied  (A) (A) (A) (A) (A) (A) (A) (A) (A) (A) (A)
       Virtual   (A) (A) (A) (A) (A) (A) (A) (A) (A) (A) (A) (A)
                 (A) (A) (A) (A) (A) (A) (A) (A) (A) (A) (A) (A)
                 (A) (A) (A) (A) (A) (A) (A) (A) (A) (A) (A) (A)
                 (A) (A) (A) (A) (A) (A) (A) (A) (A) (A) (A) (A)
                 (A) (A) (A) (A) (A) (A) (A) (A) (A) (A) (A) (A)
                 (A) (A) (A) (A) (A) (A) (A) (A) (A) (A) (A) (A)
                 (A) (A) (A) (A) (A) (A) (A) (A) (A) (A) (A) (A)
                 (A) (A) (A) (A) (A) (A) (A) (A) (A) (A) (A) (A)
                 (A) (A) (A) (A) (A) (A) (A) (A) (A) (A) (A) (A)
                 (A) (A) (A) (A) (A) (A) (A) (A) (A) (A) (A) (A)
                 (A) (A) (A) (A) (A) (A) (A) (A) (A) (A) (A) (A)
                 (A) (A) (A) (A) (A) (A) (A) (A) (A) (A) (A) (A)
                 (A) (A) (A) (A) (A) (A) (A) (A) (A) (A) (A) (A)
                 (A) (A) (A) (A) (A) (A) (A) (A) (A) (A) (A) (A)
                 (A) (A) (A) (A) (A) (A) (A) (A) (A) (A) (A) (A)
                 (A) (A) (A) (A) (A) (A) (A) (A) (A) (A) (A) (A)
                 (A) (A) (A) (A) (A) (A) (A) (A) (A) (A) (A) (A)
                 (A) (A) (A) (A) (A) (A) (A) (A) (A) (A) (A) (A)
                 (A) (A) (A) (A) (A) (A) (A) (A) (A) (A) (A) (A)
                 (A) (A) (A) (A) (A) (A) (A) (A) (A) (A) (A) (A)
                 (A) (A) (A) (A) (A) (A) (A) (A) (A) (A)
 The electronic state is 1-A.
 Alpha  occ. eigenvalues --  -14.83967 -10.65973 -10.65883  -1.04369  -0.90113
 Alpha  occ. eigenvalues --   -0.60094  -0.55142  -0.54433  -0.44737  -0.39321
 Alpha  occ. eigenvalues --   -0.39210
 Alpha virt. eigenvalues --    0.03914   0.08267   0.08643   0.10151   0.11339
 Alpha virt. eigenvalues --    0.11560   0.15573   0.16029   0.16660   0.20036
 Alpha virt. eigenvalues --    0.20096   0.25568   0.33107   0.34933   0.35490
 Alpha virt. eigenvalues --    0.39308   0.39990   0.40236   0.41035   0.47938
 Alpha virt. eigenvalues --    0.50210   0.53006   0.58212   0.60674   0.61723
 Alpha virt. eigenvalues --    0.67080   0.67496   0.69847   0.70421   0.78674
 Alpha virt. eigenvalues --    0.79534   0.82485   0.82650   0.84368   0.87102
 Alpha virt. eigenvalues --    0.90781   0.92740   0.95821   0.96428   0.98925
 Alpha virt. eigenvalues --    1.06422   1.08106   1.09205   1.11078   1.14334
 Alpha virt. eigenvalues --    1.15570   1.22711   1.23438   1.25166   1.35671
 Alpha virt. eigenvalues --    1.36374   1.47866   1.49526   1.51229   1.55242
 Alpha virt. eigenvalues --    1.64041   1.67403   1.70536   1.75040   1.77783
 Alpha virt. eigenvalues --    1.78179   1.80038   1.87670   1.91281   1.92491
 Alpha virt. eigenvalues --    1.95061   1.99710   2.00343   2.01074   2.02253
 Alpha virt. eigenvalues --    2.05775   2.12686   2.14134   2.21489   2.23029
 Alpha virt. eigenvalues --    2.24638   2.24750   2.26092   2.33874   2.38500
 Alpha virt. eigenvalues --    2.43663   2.50227   2.52466   2.57578   2.58131
 Alpha virt. eigenvalues --    2.59819   2.67540   2.70239   2.71519   2.72843
 Alpha virt. eigenvalues --    2.78143   2.80645   2.88187   2.92312   2.93699
 Alpha virt. eigenvalues --    2.94992   2.98426   2.99060   3.01020   3.11882
 Alpha virt. eigenvalues --    3.14051   3.14364   3.22040   3.32419   3.35368
 Alpha virt. eigenvalues --    3.40433   3.41222   3.43452   3.44565   3.54100
 Alpha virt. eigenvalues --    3.58468   3.58895   3.73283   3.75308   3.79540
 Alpha virt. eigenvalues --    3.92076   3.96955   3.98883   4.01037   4.02615
 Alpha virt. eigenvalues --    4.03732   4.06517   4.09023   4.25649   4.27111
 Alpha virt. eigenvalues --    4.57512   4.91360   4.91438   5.07678   5.10061
 Alpha virt. eigenvalues --    5.12466   5.17238   5.22699   5.25064   5.30827
 Alpha virt. eigenvalues --    5.32018   5.44709   5.46281   5.49070   5.66968
 Alpha virt. eigenvalues --    5.69026   5.86751   5.88384   5.90133   5.94690
 Alpha virt. eigenvalues --    5.95802   5.99284   6.03282   6.04031   6.05262
 Alpha virt. eigenvalues --    6.06235   6.09170   6.09773   6.11162   6.15796
 Alpha virt. eigenvalues --    6.21932   6.24992   6.28225   6.33967   6.36121
 Alpha virt. eigenvalues --    6.46179   6.49781   6.56487   6.63849   6.66585
 Alpha virt. eigenvalues --    6.67354   6.71535   6.93809   6.94765   6.96198
 Alpha virt. eigenvalues --    6.98435   7.02750   7.02863   7.06189   7.17033
 Alpha virt. eigenvalues --    7.25937   7.29226   7.29835   7.52969   7.53924
 Alpha virt. eigenvalues --    7.58724   7.59784   7.61282   7.66592   7.67243
 Alpha virt. eigenvalues --    7.72711   7.73468   7.78032   7.83775   7.89190
 Alpha virt. eigenvalues --    7.91699   7.94950   7.97275   8.15162   8.28667
 Alpha virt. eigenvalues --    8.35621   8.39036   8.47445   8.48342   8.49001
 Alpha virt. eigenvalues --    8.50141   8.52587   8.55378   8.58102   8.60246
 Alpha virt. eigenvalues --    8.66623   8.67259   8.67594   8.69931   8.72201
 Alpha virt. eigenvalues --    8.77796   8.88321   8.90357   9.02357   9.11780
 Alpha virt. eigenvalues --    9.12573   9.18720   9.19179   9.24902   9.28538
 Alpha virt. eigenvalues --    9.32371   9.39365   9.80921   9.83795   9.94184
 Alpha virt. eigenvalues --   10.00858  10.04396  10.13448  10.15582  10.18724
 Alpha virt. eigenvalues --   10.24636  10.30029  10.39774  10.48420  10.66021
 Alpha virt. eigenvalues --   10.73456  10.94008  11.35979  11.41778  11.67353
 Alpha virt. eigenvalues --   11.99111  12.00472  13.19824  13.76319  29.29923
 Alpha virt. eigenvalues --   29.61271  38.34845 148.98395 149.26081 198.27445
          Condensed to atoms (all electrons):
               1          2          3          4          5          6
     1  C    4.570948   0.308441  -0.057737   0.420953   0.415851   0.414558
     2  C    0.308441   4.837037   0.989254  -0.042528  -0.043271  -0.046314
     3  N   -0.057737   0.989254   6.275240  -0.001782  -0.000149  -0.000500
     4  H    0.420953  -0.042528  -0.001782   0.596562  -0.034352  -0.032838
     5  H    0.415851  -0.043271  -0.000149  -0.034352   0.597764  -0.029564
     6  H    0.414558  -0.046314  -0.000500  -0.032838  -0.029564   0.602404
 Mulliken charges:
               1
     1  C   -0.073014
     2  C   -0.002619
     3  N   -0.204325
     4  H    0.093984
     5  H    0.093721
     6  H    0.092253
 Sum of Mulliken charges =   0.00000
 Mulliken charges with hydrogens summed into heavy atoms:
               1
     1  C    0.206944
     2  C   -0.002619
     3  N   -0.204325
 Electronic spatial extent (au):  <R**2>=            159.4878
 Charge=              0.0000 electrons
 Dipole moment (field-independent basis, Debye):
    X=             -4.1112    Y=              0.0004    Z=             -0.0202  Tot=              4.1112
 Quadrupole moment (field-independent basis, Debye-Ang):
   XX=            -20.9296   YY=            -17.6023   ZZ=            -17.7307
   XY=              0.0075   XZ=             -0.1619   YZ=              0.0168
 Traceless Quadrupole moment (field-independent basis, Debye-Ang):
   XX=             -2.1754   YY=              1.1519   ZZ=              1.0235
   XY=              0.0075   XZ=             -0.1619   YZ=              0.0168
 Octapole moment (field-independent basis, Debye-Ang**2):
  XXX=            -13.0990  YYY=              0.1158  ZZZ=              0.9107  XYY=             -2.3611
  XXY=             -0.0958  XXZ=              0.1978  XZZ=             -2.1540  YZZ=             -0.0914
  YYZ=             -0.6303  XYZ=             -0.0369
 Hexadecapole moment (field-independent basis, Debye-Ang**3):
 XXXX=           -178.7454 YYYY=            -24.0482 ZZZZ=            -23.7970 XXXY=              0.2380
 XXXZ=             -0.8148 YYYX=             -0.1375 YYYZ=             -0.0063 ZZZX=             -1.2776
 ZZZY=              0.0571 XXYY=            -30.5082 XXZZ=            -30.7274 YYZZ=             -8.0256
 XXYZ=              0.1016 YYXZ=              1.1247 ZZXY=              0.1692
 N-N= 5.915354296931D+01 E-N=-4.270631820456D+02  KE= 1.322569221991D+02
 Leave Link  601 at Wed Aug 26 14:17:50 2020, MaxMem=  2097152000 cpu:         0.4
 (Enter /opt/cluster/programs/g09/g09_d.01/g09/l9999.exe)
 1\1\GINC-NODE19\SP\RB2PLYPD3-FC\def2QZVP\C2H3N1\BOITTIER\26-Aug-2020\0
 \\#p B2PLYPD3/Def2QZVP\\cyanomethane\\0,1\C,0,-6.590709,-1.118613,1.18
 2522\C,0,-5.208319,-0.796794,0.857513\N,0,-4.098139,-0.534433,0.726599
 \H,0,-6.738106,-1.198707,2.200976\H,0,-6.856472,-2.024925,0.726616\H,0
 ,-7.203049,-0.311219,0.825431\\Version=ES64L-G09RevD.01\State=1-A\HF=-
 132.5326981\MP2=-132.7122098\RMSD=9.532e-09\PG=C01 [X(C2H3N1)]\\@


 EDUCATION IS NOT TRAINING BUT RATHER THE PROCESS THAT EQUIPS YOU TO
 ENTERTAIN YOURSELF, A FRIEND, OR AN IDEA.  -- WALLACE STERLING
 Job cpu time:       0 days  0 hours  3 minutes 48.1 seconds.
 File lengths (MBytes):  RWF=     28 Int=      0 D2E=      0 Chk=      5 Scr=      1
 Normal termination of Gaussian 09 at Wed Aug 26 14:17:50 2020.
