 Entering Gaussian System, Link 0=/opt/cluster/programs/g09/g09_d.01/g09//g09
 Input=/home/boittier/MDCM/nms_sampling/cyanomethane_geom.xyz.dir/energies/cyanomethane_1944_energy.com
 Output=/scratch/boittier/cyanomethane_1944_energy/cyanomethane_1944_energy.out
 Initial command:
 /opt/cluster/programs/g09/g09_d.01/g09/l1.exe "/scratch/boittier/cyanomethane_1944_energy/Gau-120414.inp" -scrdir="/scratch/boittier/cyanomethane_1944_energy/"
 Entering Link 1 = /opt/cluster/programs/g09/g09_d.01/g09/l1.exe PID=    120415.
  
 Copyright (c) 1988,1990,1992,1993,1995,1998,2003,2009,2013,
            Gaussian, Inc.  All Rights Reserved.
  
 This is part of the Gaussian(R) 09 program.  It is based on
 the Gaussian(R) 03 system (copyright 2003, Gaussian, Inc.),
 the Gaussian(R) 98 system (copyright 1998, Gaussian, Inc.),
 the Gaussian(R) 94 system (copyright 1995, Gaussian, Inc.),
 the Gaussian 92(TM) system (copyright 1992, Gaussian, Inc.),
 the Gaussian 90(TM) system (copyright 1990, Gaussian, Inc.),
 the Gaussian 88(TM) system (copyright 1988, Gaussian, Inc.),
 the Gaussian 86(TM) system (copyright 1986, Carnegie Mellon
 University), and the Gaussian 82(TM) system (copyright 1983,
 Carnegie Mellon University). Gaussian is a federally registered
 trademark of Gaussian, Inc.
  
 This software contains proprietary and confidential information,
 including trade secrets, belonging to Gaussian, Inc.
  
 This software is provided under written license and may be
 used, copied, transmitted, or stored only in accord with that
 written license.
  
 The following legend is applicable only to US Government
 contracts under FAR:
  
                    RESTRICTED RIGHTS LEGEND
  
 Use, reproduction and disclosure by the US Government is
 subject to restrictions as set forth in subparagraphs (a)
 and (c) of the Commercial Computer Software - Restricted
 Rights clause in FAR 52.227-19.
  
 Gaussian, Inc.
 340 Quinnipiac St., Bldg. 40, Wallingford CT 06492
  
  
 ---------------------------------------------------------------
 Warning -- This program may not be used in any manner that
 competes with the business of Gaussian, Inc. or will provide
 assistance to any competitor of Gaussian, Inc.  The licensee
 of this program is prohibited from giving any competitor of
 Gaussian, Inc. access to this program.  By using this program,
 the user acknowledges that Gaussian, Inc. is engaged in the
 business of creating and licensing software in the field of
 computational chemistry and represents and warrants to the
 licensee that it is not a competitor of Gaussian, Inc. and that
 it will not use this program in any manner prohibited above.
 ---------------------------------------------------------------
  

 Cite this work as:
 Gaussian 09, Revision D.01,
 M. J. Frisch, G. W. Trucks, H. B. Schlegel, G. E. Scuseria, 
 M. A. Robb, J. R. Cheeseman, G. Scalmani, V. Barone, B. Mennucci, 
 G. A. Petersson, H. Nakatsuji, M. Caricato, X. Li, H. P. Hratchian, 
 A. F. Izmaylov, J. Bloino, G. Zheng, J. L. Sonnenberg, M. Hada, 
 M. Ehara, K. Toyota, R. Fukuda, J. Hasegawa, M. Ishida, T. Nakajima, 
 Y. Honda, O. Kitao, H. Nakai, T. Vreven, J. A. Montgomery, Jr., 
 J. E. Peralta, F. Ogliaro, M. Bearpark, J. J. Heyd, E. Brothers, 
 K. N. Kudin, V. N. Staroverov, T. Keith, R. Kobayashi, J. Normand, 
 K. Raghavachari, A. Rendell, J. C. Burant, S. S. Iyengar, J. Tomasi, 
 M. Cossi, N. Rega, J. M. Millam, M. Klene, J. E. Knox, J. B. Cross, 
 V. Bakken, C. Adamo, J. Jaramillo, R. Gomperts, R. E. Stratmann, 
 O. Yazyev, A. J. Austin, R. Cammi, C. Pomelli, J. W. Ochterski, 
 R. L. Martin, K. Morokuma, V. G. Zakrzewski, G. A. Voth, 
 P. Salvador, J. J. Dannenberg, S. Dapprich, A. D. Daniels, 
 O. Farkas, J. B. Foresman, J. V. Ortiz, J. Cioslowski, 
 and D. J. Fox, Gaussian, Inc., Wallingford CT, 2013.
 
 ******************************************
 Gaussian 09:  ES64L-G09RevD.01 24-Apr-2013
                26-Aug-2020 
 ******************************************
 %chk=/home/boittier/MDCM/nms_sampling/cyanomethane_geom.xyz.dir/cyanomethane_194
 4.chk
 %nproc=8
 Will use up to    8 processors via shared memory.
 %mem=16000MB
 --------------------
 #p B2PLYPD3/Def2QZVP
 --------------------
 1/38=1/1;
 2/12=2,17=6,18=5,40=1/2;
 3/5=45,7=101,11=9,16=1,25=1,30=1,74=-60/1,2,3;
 4//1;
 5/5=2,38=5/2;
 8/10=1/1;
 9/16=-3/6;
 6/7=2,8=2,9=2,10=2/1;
 99/5=1,9=1/99;
 Leave Link    1 at Wed Aug 26 14:10:08 2020, MaxMem=  2097152000 cpu:         0.2
 (Enter /opt/cluster/programs/g09/g09_d.01/g09/l101.exe)
 ------------
 cyanomethane
 ------------
 Symbolic Z-matrix:
 Charge =  0 Multiplicity = 1
 C                    -6.61169  -1.11648   1.15571 
 C                    -5.19787  -0.78132   0.94377 
 N                    -4.08661  -0.54403   0.68425 
 H                    -6.75591  -1.20907   2.17292 
 H                    -6.80706  -2.05594   0.68871 
 H                    -7.27141  -0.31986   0.77552 
 
 NAtoms=      6 NQM=        6 NQMF=       0 NMMI=      0 NMMIF=      0
                NMic=       0 NMicF=      0.
                    Isotopes and Nuclear Properties:
 (Nuclear quadrupole moments (NQMom) in fm**2, nuclear magnetic moments (NMagM)
  in nuclear magnetons)

  Atom         1           2           3           4           5           6
 IAtWgt=          12          12          14           1           1           1
 AtmWgt=  12.0000000  12.0000000  14.0030740   1.0078250   1.0078250   1.0078250
 NucSpn=           0           0           2           1           1           1
 AtZEff=   0.0000000   0.0000000   0.0000000   0.0000000   0.0000000   0.0000000
 NQMom=    0.0000000   0.0000000   2.0440000   0.0000000   0.0000000   0.0000000
 NMagM=    0.0000000   0.0000000   0.4037610   2.7928460   2.7928460   2.7928460
 AtZNuc=   6.0000000   6.0000000   7.0000000   1.0000000   1.0000000   1.0000000
 Leave Link  101 at Wed Aug 26 14:10:08 2020, MaxMem=  2097152000 cpu:         0.5
 (Enter /opt/cluster/programs/g09/g09_d.01/g09/l202.exe)
                          Input orientation:                          
 ---------------------------------------------------------------------
 Center     Atomic      Atomic             Coordinates (Angstroms)
 Number     Number       Type             X           Y           Z
 ---------------------------------------------------------------------
      1          6           0       -6.611691   -1.116476    1.155706
      2          6           0       -5.197869   -0.781318    0.943769
      3          7           0       -4.086611   -0.544027    0.684246
      4          1           0       -6.755915   -1.209065    2.172917
      5          1           0       -6.807057   -2.055937    0.688713
      6          1           0       -7.271410   -0.319861    0.775524
 ---------------------------------------------------------------------
                    Distance matrix (angstroms):
                    1          2          3          4          5
     1  C    0.000000
     2  C    1.468380   0.000000
     3  N    2.631730   1.165570   0.000000
     4  H    1.031548   2.030094   3.127875   0.000000
     5  H    1.067163   2.068621   3.112349   1.709582   0.000000
     6  H    1.101981   2.130920   3.193983   1.734683   1.799200
                    6
     6  H    0.000000
 Stoichiometry    C2H3N
 Framework group  C1[X(C2H3N)]
 Deg. of freedom    12
 Full point group                 C1      NOp   1
 Largest Abelian subgroup         C1      NOp   1
 Largest concise Abelian subgroup C1      NOp   1
                         Standard orientation:                         
 ---------------------------------------------------------------------
 Center     Atomic      Atomic             Coordinates (Angstroms)
 Number     Number       Type             X           Y           Z
 ---------------------------------------------------------------------
      1          6           0       -1.190312   -0.004456   -0.008905
      2          6           0        0.277263    0.008464    0.037992
      3          7           0        1.441394   -0.000220   -0.019241
      4          1           0       -1.527059   -0.132359    0.957704
      5          1           0       -1.499431   -0.838026   -0.599196
      6          1           0       -1.584976    0.947879   -0.398340
 ---------------------------------------------------------------------
 Rotational constants (GHZ):    162.9488592      9.1680739      9.1411099
 Leave Link  202 at Wed Aug 26 14:10:08 2020, MaxMem=  2097152000 cpu:         0.1
 (Enter /opt/cluster/programs/g09/g09_d.01/g09/l301.exe)
 Standard basis: def2QZVP (5D, 7F)
 Ernie: Thresh=  0.10000D-02 Tol=  0.10000D-05 Strict=F.
 There are   321 symmetry adapted cartesian basis functions of A   symmetry.
 There are   261 symmetry adapted basis functions of A   symmetry.
   261 basis functions,   390 primitive gaussians,   321 cartesian basis functions
    11 alpha electrons       11 beta electrons
       nuclear repulsion energy        58.4534249676 Hartrees.
 IExCor=  419 DFT=T Ex+Corr=B2PLYPD3 ExCW=0 ScaHFX=  0.530000
 ScaDFX=  0.470000  0.470000  0.730000  0.730000 ScalE2=  0.270000  0.270000
 IRadAn=      0 IRanWt=     -1 IRanGd=            0 ICorTp=0 IEmpDi=141
 NAtoms=    6 NActive=    6 NUniq=    6 SFac= 1.00D+00 NAtFMM=   60 NAOKFM=F Big=F
 Integral buffers will be    131072 words long.
 Regular integral format.
 Two-electron integral symmetry is turned on.
 R6Disp:  Grimme-D3(BJ) Dispersion energy=       -0.0021040972 Hartrees.
 Nuclear repulsion after empirical dispersion term =       58.4513208704 Hartrees.
 Leave Link  301 at Wed Aug 26 14:10:08 2020, MaxMem=  2097152000 cpu:         0.4
 (Enter /opt/cluster/programs/g09/g09_d.01/g09/l302.exe)
 NPDir=0 NMtPBC=     1 NCelOv=     1 NCel=       1 NClECP=     1 NCelD=      1
         NCelK=      1 NCelE2=     1 NClLst=     1 CellRange=     0.0.
 One-electron integrals computed using PRISM.
   1 Symmetry operations used in ECPInt.
 ECPInt:  NShTT=    3321 NPrTT=    8136 LenC2=    3296 LenP2D=    7132.
 LDataN:  DoStor=T MaxTD1= 8 Len=  415
 NBasis=   261 RedAO= T EigKep=  8.21D-05  NBF=   261
 NBsUse=   261 1.00D-06 EigRej= -1.00D+00 NBFU=   261
 Precomputing XC quadrature grid using
 IXCGrd= 4 IRadAn=           0 IRanWt=          -1 IRanGd=           0 AccXCQ= 0.00D+00.
 Generated NRdTot=       0 NPtTot=           0 NUsed=           0 NTot=          32
 NSgBfM=   321   321   321   321   321 MxSgAt=     6 MxSgA2=     6.
 Leave Link  302 at Wed Aug 26 14:10:09 2020, MaxMem=  2097152000 cpu:         2.3
 (Enter /opt/cluster/programs/g09/g09_d.01/g09/l303.exe)
 DipDrv:  MaxL=1.
 Leave Link  303 at Wed Aug 26 14:10:09 2020, MaxMem=  2097152000 cpu:         0.3
 (Enter /opt/cluster/programs/g09/g09_d.01/g09/l401.exe)
 ExpMin= 7.60D-02 ExpMax= 9.07D+04 ExpMxC= 8.76D+02 IAcc=2 IRadAn=         4 AccDes= 0.00D+00
 Harris functional with IExCor=  419 and IRadAn=       4 diagonalized for initial guess.
 HarFok:  IExCor=  419 AccDes= 0.00D+00 IRadAn=         4 IDoV= 1 UseB2=F ITyADJ=14
 ICtDFT=  3500011 ScaDFX=  1.000000  1.000000  1.000000  1.000000
 FoFCou: FMM=F IPFlag=           0 FMFlag=      100000 FMFlg1=           0
         NFxFlg=           0 DoJE=T BraDBF=F KetDBF=T FulRan=T
         wScrn=  0.000000 ICntrl=     500 IOpCl=  0 I1Cent=   200000004 NGrid=           0
         NMat0=    1 NMatS0=      1 NMatT0=    0 NMatD0=    1 NMtDS0=    0 NMtDT0=    0
 Petite list used in FoFCou.
 Harris En= -132.851263862188    
 JPrj=0 DoOrth=F DoCkMO=F.
 Leave Link  401 at Wed Aug 26 14:10:09 2020, MaxMem=  2097152000 cpu:         4.3
 (Enter /opt/cluster/programs/g09/g09_d.01/g09/l502.exe)
 Closed shell SCF:
 Using DIIS extrapolation, IDIIS=  1040.
 Integral symmetry usage will be decided dynamically.
 Keep R1 ints in memory in canonical form, NReq=601554820.
 IVT=      332521 IEndB=      332521 NGot=  2097152000 MDV=  1512290144
 LenX=  1512290144 LenY=  1512186662
 Requested convergence on RMS density matrix=1.00D-08 within 128 cycles.
 Requested convergence on MAX density matrix=1.00D-06.
 Requested convergence on             energy=1.00D-06.
 No special actions if energy rises.
 FoFCou: FMM=F IPFlag=           0 FMFlag=           0 FMFlg1=           0
         NFxFlg=           0 DoJE=F BraDBF=F KetDBF=F FulRan=T
         wScrn=  0.000000 ICntrl=     600 IOpCl=  0 I1Cent=           0 NGrid=           0
         NMat0=    1 NMatS0=  34191 NMatT0=    0 NMatD0=    1 NMtDS0=    0 NMtDT0=    0
 Symmetry not used in FoFCou.
 Integral accuracy reduced to 1.0D-05 until final iterations.

 Cycle   1  Pass 0  IDiag  1:
 E= -132.416834975472    
 DIIS: error= 3.23D-02 at cycle   1 NSaved=   1.
 NSaved= 1 IEnMin= 1 EnMin= -132.416834975472     IErMin= 1 ErrMin= 3.23D-02
 ErrMax= 3.23D-02  0.00D+00 EMaxC= 1.00D-01 BMatC= 1.91D-01 BMatP= 1.91D-01
 IDIUse=3 WtCom= 6.77D-01 WtEn= 3.23D-01
 Coeff-Com:  0.100D+01
 Coeff-En:   0.100D+01
 Coeff:      0.100D+01
 Gap=     0.457 Goal=   None    Shift=    0.000
 GapD=    0.457 DampG=2.000 DampE=0.500 DampFc=1.0000 IDamp=-1.
 RMSDP=1.25D-03 MaxDP=6.44D-02              OVMax= 1.62D-01

 Cycle   2  Pass 0  IDiag  1:
 E= -132.449966408402     Delta-E=       -0.033131432930 Rises=F Damp=F
 DIIS: error= 3.48D-02 at cycle   2 NSaved=   2.
 NSaved= 2 IEnMin= 2 EnMin= -132.449966408402     IErMin= 1 ErrMin= 3.23D-02
 ErrMax= 3.48D-02  0.00D+00 EMaxC= 1.00D-01 BMatC= 9.67D-02 BMatP= 1.91D-01
 IDIUse=3 WtCom= 6.52D-01 WtEn= 3.48D-01
 Coeff-Com:  0.399D+00 0.601D+00
 Coeff-En:   0.398D+00 0.602D+00
 Coeff:      0.399D+00 0.601D+00
 Gap=     0.435 Goal=   None    Shift=    0.000
 RMSDP=8.23D-04 MaxDP=3.19D-02 DE=-3.31D-02 OVMax= 1.24D-01

 Cycle   3  Pass 0  IDiag  1:
 E= -132.513872104159     Delta-E=       -0.063905695757 Rises=F Damp=F
 DIIS: error= 1.44D-02 at cycle   3 NSaved=   3.
 NSaved= 3 IEnMin= 3 EnMin= -132.513872104159     IErMin= 3 ErrMin= 1.44D-02
 ErrMax= 1.44D-02  0.00D+00 EMaxC= 1.00D-01 BMatC= 2.15D-02 BMatP= 9.67D-02
 IDIUse=3 WtCom= 8.56D-01 WtEn= 1.44D-01
 Coeff-Com:  0.996D-01 0.331D+00 0.569D+00
 Coeff-En:   0.000D+00 0.145D+00 0.855D+00
 Coeff:      0.853D-01 0.304D+00 0.611D+00
 Gap=     0.425 Goal=   None    Shift=    0.000
 RMSDP=2.76D-04 MaxDP=1.00D-02 DE=-6.39D-02 OVMax= 6.14D-02

 Cycle   4  Pass 0  IDiag  1:
 E= -132.528929823144     Delta-E=       -0.015057718985 Rises=F Damp=F
 DIIS: error= 4.96D-03 at cycle   4 NSaved=   4.
 NSaved= 4 IEnMin= 4 EnMin= -132.528929823144     IErMin= 4 ErrMin= 4.96D-03
 ErrMax= 4.96D-03  0.00D+00 EMaxC= 1.00D-01 BMatC= 3.03D-03 BMatP= 2.15D-02
 IDIUse=3 WtCom= 9.50D-01 WtEn= 4.96D-02
 Coeff-Com: -0.123D-01 0.539D-01 0.320D+00 0.639D+00
 Coeff-En:   0.000D+00 0.000D+00 0.131D+00 0.869D+00
 Coeff:     -0.117D-01 0.513D-01 0.310D+00 0.650D+00
 Gap=     0.427 Goal=   None    Shift=    0.000
 RMSDP=9.09D-05 MaxDP=2.73D-03 DE=-1.51D-02 OVMax= 1.59D-02

 Cycle   5  Pass 0  IDiag  1:
 E= -132.531553083511     Delta-E=       -0.002623260367 Rises=F Damp=F
 DIIS: error= 3.72D-04 at cycle   5 NSaved=   5.
 NSaved= 5 IEnMin= 5 EnMin= -132.531553083511     IErMin= 5 ErrMin= 3.72D-04
 ErrMax= 3.72D-04  0.00D+00 EMaxC= 1.00D-01 BMatC= 1.41D-05 BMatP= 3.03D-03
 IDIUse=3 WtCom= 9.96D-01 WtEn= 3.72D-03
 Coeff-Com: -0.364D-02 0.603D-02 0.497D-01 0.147D+00 0.801D+00
 Coeff-En:   0.000D+00 0.000D+00 0.000D+00 0.000D+00 0.100D+01
 Coeff:     -0.362D-02 0.601D-02 0.496D-01 0.147D+00 0.801D+00
 Gap=     0.426 Goal=   None    Shift=    0.000
 RMSDP=8.07D-06 MaxDP=2.89D-04 DE=-2.62D-03 OVMax= 1.27D-03

 Initial convergence to 1.0D-05 achieved.  Increase integral accuracy.
 Cycle   6  Pass 1  IDiag  1:
 E= -132.531566785686     Delta-E=       -0.000013702175 Rises=F Damp=F
 DIIS: error= 1.04D-04 at cycle   1 NSaved=   1.
 NSaved= 1 IEnMin= 1 EnMin= -132.531566785686     IErMin= 1 ErrMin= 1.04D-04
 ErrMax= 1.04D-04  0.00D+00 EMaxC= 1.00D-01 BMatC= 6.86D-07 BMatP= 6.86D-07
 IDIUse=3 WtCom= 9.99D-01 WtEn= 1.04D-03
 Coeff-Com:  0.100D+01
 Coeff-En:   0.100D+01
 Coeff:      0.100D+01
 Gap=     0.426 Goal=   None    Shift=    0.000
 RMSDP=8.07D-06 MaxDP=2.89D-04 DE=-1.37D-05 OVMax= 4.34D-04

 Cycle   7  Pass 1  IDiag  1:
 E= -132.531567196432     Delta-E=       -0.000000410746 Rises=F Damp=F
 DIIS: error= 5.36D-05 at cycle   2 NSaved=   2.
 NSaved= 2 IEnMin= 2 EnMin= -132.531567196432     IErMin= 2 ErrMin= 5.36D-05
 ErrMax= 5.36D-05  0.00D+00 EMaxC= 1.00D-01 BMatC= 3.10D-07 BMatP= 6.86D-07
 IDIUse=1 WtCom= 1.00D+00 WtEn= 0.00D+00
 Coeff-Com:  0.394D+00 0.606D+00
 Coeff:      0.394D+00 0.606D+00
 Gap=     0.426 Goal=   None    Shift=    0.000
 RMSDP=1.06D-06 MaxDP=4.00D-05 DE=-4.11D-07 OVMax= 1.82D-04

 Cycle   8  Pass 1  IDiag  1:
 E= -132.531567467503     Delta-E=       -0.000000271071 Rises=F Damp=F
 DIIS: error= 1.72D-05 at cycle   3 NSaved=   3.
 NSaved= 3 IEnMin= 3 EnMin= -132.531567467503     IErMin= 3 ErrMin= 1.72D-05
 ErrMax= 1.72D-05  0.00D+00 EMaxC= 1.00D-01 BMatC= 2.33D-08 BMatP= 3.10D-07
 IDIUse=1 WtCom= 1.00D+00 WtEn= 0.00D+00
 Coeff-Com:  0.113D+00 0.253D+00 0.634D+00
 Coeff:      0.113D+00 0.253D+00 0.634D+00
 Gap=     0.426 Goal=   None    Shift=    0.000
 RMSDP=5.62D-07 MaxDP=2.45D-05 DE=-2.71D-07 OVMax= 6.17D-05

 Cycle   9  Pass 1  IDiag  1:
 E= -132.531567481693     Delta-E=       -0.000000014190 Rises=F Damp=F
 DIIS: error= 1.06D-05 at cycle   4 NSaved=   4.
 NSaved= 4 IEnMin= 4 EnMin= -132.531567481693     IErMin= 4 ErrMin= 1.06D-05
 ErrMax= 1.06D-05  0.00D+00 EMaxC= 1.00D-01 BMatC= 7.44D-09 BMatP= 2.33D-08
 IDIUse=1 WtCom= 1.00D+00 WtEn= 0.00D+00
 Coeff-Com: -0.612D-01-0.374D-01 0.392D+00 0.707D+00
 Coeff:     -0.612D-01-0.374D-01 0.392D+00 0.707D+00
 Gap=     0.426 Goal=   None    Shift=    0.000
 RMSDP=2.95D-07 MaxDP=1.35D-05 DE=-1.42D-08 OVMax= 3.59D-05

 Cycle  10  Pass 1  IDiag  1:
 E= -132.531567488872     Delta-E=       -0.000000007179 Rises=F Damp=F
 DIIS: error= 1.13D-06 at cycle   5 NSaved=   5.
 NSaved= 5 IEnMin= 5 EnMin= -132.531567488872     IErMin= 5 ErrMin= 1.13D-06
 ErrMax= 1.13D-06  0.00D+00 EMaxC= 1.00D-01 BMatC= 1.15D-10 BMatP= 7.44D-09
 IDIUse=1 WtCom= 1.00D+00 WtEn= 0.00D+00
 Coeff-Com: -0.224D-01-0.212D-01 0.797D-01 0.209D+00 0.755D+00
 Coeff:     -0.224D-01-0.212D-01 0.797D-01 0.209D+00 0.755D+00
 Gap=     0.426 Goal=   None    Shift=    0.000
 RMSDP=4.34D-08 MaxDP=2.01D-06 DE=-7.18D-09 OVMax= 3.61D-06

 Cycle  11  Pass 1  IDiag  1:
 E= -132.531567488982     Delta-E=       -0.000000000110 Rises=F Damp=F
 DIIS: error= 2.85D-07 at cycle   6 NSaved=   6.
 NSaved= 6 IEnMin= 6 EnMin= -132.531567488982     IErMin= 6 ErrMin= 2.85D-07
 ErrMax= 2.85D-07  0.00D+00 EMaxC= 1.00D-01 BMatC= 6.37D-12 BMatP= 1.15D-10
 IDIUse=1 WtCom= 1.00D+00 WtEn= 0.00D+00
 Coeff-Com:  0.332D-02 0.108D-02-0.327D-01-0.332D-01 0.105D+00 0.956D+00
 Coeff:      0.332D-02 0.108D-02-0.327D-01-0.332D-01 0.105D+00 0.956D+00
 Gap=     0.426 Goal=   None    Shift=    0.000
 RMSDP=1.07D-08 MaxDP=3.86D-07 DE=-1.10D-10 OVMax= 1.41D-06

 Cycle  12  Pass 1  IDiag  1:
 E= -132.531567488990     Delta-E=       -0.000000000007 Rises=F Damp=F
 DIIS: error= 8.43D-08 at cycle   7 NSaved=   7.
 NSaved= 7 IEnMin= 7 EnMin= -132.531567488990     IErMin= 7 ErrMin= 8.43D-08
 ErrMax= 8.43D-08  0.00D+00 EMaxC= 1.00D-01 BMatC= 2.54D-13 BMatP= 6.37D-12
 IDIUse=1 WtCom= 1.00D+00 WtEn= 0.00D+00
 Coeff-Com:  0.186D-03 0.640D-03 0.380D-02 0.101D-02-0.536D-01-0.225D+00
 Coeff-Com:  0.127D+01
 Coeff:      0.186D-03 0.640D-03 0.380D-02 0.101D-02-0.536D-01-0.225D+00
 Coeff:      0.127D+01
 Gap=     0.426 Goal=   None    Shift=    0.000
 RMSDP=3.26D-09 MaxDP=1.12D-07 DE=-7.33D-12 OVMax= 7.01D-07

 SCF Done:  E(RB2PLYPD3) =  -132.531567489     A.U. after   12 cycles
            NFock= 12  Conv=0.33D-08     -V/T= 2.0034
 KE= 1.320809465342D+02 PE=-4.255165393798D+02 EE= 1.024527044862D+02
 Leave Link  502 at Wed Aug 26 14:10:34 2020, MaxMem=  2097152000 cpu:       120.7
 (Enter /opt/cluster/programs/g09/g09_d.01/g09/l801.exe)
 DoSCS=T DFT=T ScalE2(SS,OS)=  0.270000  0.270000
 ExpMin= 7.60D-02 ExpMax= 9.07D+04 ExpMxC= 8.76D+02 IAcc=3 IRadAn=         5 AccDes= 0.00D+00
 HarFok:  IExCor=  205 AccDes= 0.00D+00 IRadAn=         5 IDoV=-2 UseB2=F ITyADJ=14
 ICtDFT= 12500011 ScaDFX=  1.000000  1.000000  1.000000  1.000000
 Largest valence mixing into a core orbital is  1.17D-04
 Largest core mixing into a valence orbital is  1.99D-05
 Range of M.O.s used for correlation:     4   261
 NBasis=   261 NAE=    11 NBE=    11 NFC=     3 NFV=     0
 NROrb=    258 NOA=     8 NOB=     8 NVA=   250 NVB=   250

 **** Warning!!: The largest alpha MO coefficient is  0.31310116D+02

 Leave Link  801 at Wed Aug 26 14:10:34 2020, MaxMem=  2097152000 cpu:         0.7
 (Enter /opt/cluster/programs/g09/g09_d.01/g09/l906.exe)
 DoSCS=T DFT=T ScalE2(SS,OS)=  0.270000  0.270000
 FulOut=F Deriv=F AODrv=F NAtomX=     6
   MMem=        2666  MDisk=           8 MDiskD=           8
  W3Min=      642000 MinDsk=     1426009 NBas6D=         321
 NBas2D=       52689    NTT=       51681    LW2=     4508827
    MDV=  2096809329 MDiskM=       14501 NBas2p=       52155
 Fully direct method using O(OVN) memory.
 IMap=   1   2   3   4   5   6   7   8
 JobTyp=1 Pass  1:  I=   1 to   8 NPSUse=  8 ParTrn=T ParDer=T DoDerP=F.
 Spin components of T(2) and E(2):
     alpha-alpha T2 =       0.3621194842D-01 E2=     -0.2154120262D-01
     alpha-beta  T2 =       0.2106318238D+00 E2=     -0.1381030156D+00
     beta-beta   T2 =       0.3621194842D-01 E2=     -0.2154120262D-01
 The integrals were generated   1 times.
 E2(B2PLYPD3) =    -0.1811854208D+00 E(B2PLYPD3) =    -0.13271275290982D+03
 Leave Link  906 at Wed Aug 26 14:10:49 2020, MaxMem=  2097152000 cpu:       120.3
 (Enter /opt/cluster/programs/g09/g09_d.01/g09/l601.exe)
 Copying SCF densities to generalized density rwf, IOpCl= 0 IROHF=0.

 **********************************************************************

            Population analysis using the SCF density.

 **********************************************************************

 Orbital symmetries:
       Occupied  (A) (A) (A) (A) (A) (A) (A) (A) (A) (A) (A)
       Virtual   (A) (A) (A) (A) (A) (A) (A) (A) (A) (A) (A) (A)
                 (A) (A) (A) (A) (A) (A) (A) (A) (A) (A) (A) (A)
                 (A) (A) (A) (A) (A) (A) (A) (A) (A) (A) (A) (A)
                 (A) (A) (A) (A) (A) (A) (A) (A) (A) (A) (A) (A)
                 (A) (A) (A) (A) (A) (A) (A) (A) (A) (A) (A) (A)
                 (A) (A) (A) (A) (A) (A) (A) (A) (A) (A) (A) (A)
                 (A) (A) (A) (A) (A) (A) (A) (A) (A) (A) (A) (A)
                 (A) (A) (A) (A) (A) (A) (A) (A) (A) (A) (A) (A)
                 (A) (A) (A) (A) (A) (A) (A) (A) (A) (A) (A) (A)
                 (A) (A) (A) (A) (A) (A) (A) (A) (A) (A) (A) (A)
                 (A) (A) (A) (A) (A) (A) (A) (A) (A) (A) (A) (A)
                 (A) (A) (A) (A) (A) (A) (A) (A) (A) (A) (A) (A)
                 (A) (A) (A) (A) (A) (A) (A) (A) (A) (A) (A) (A)
                 (A) (A) (A) (A) (A) (A) (A) (A) (A) (A) (A) (A)
                 (A) (A) (A) (A) (A) (A) (A) (A) (A) (A) (A) (A)
                 (A) (A) (A) (A) (A) (A) (A) (A) (A) (A) (A) (A)
                 (A) (A) (A) (A) (A) (A) (A) (A) (A) (A) (A) (A)
                 (A) (A) (A) (A) (A) (A) (A) (A) (A) (A) (A) (A)
                 (A) (A) (A) (A) (A) (A) (A) (A) (A) (A) (A) (A)
                 (A) (A) (A) (A) (A) (A) (A) (A) (A) (A) (A) (A)
                 (A) (A) (A) (A) (A) (A) (A) (A) (A) (A)
 The electronic state is 1-A.
 Alpha  occ. eigenvalues --  -14.84472 -10.66606 -10.66546  -1.03637  -0.89689
 Alpha  occ. eigenvalues --   -0.59561  -0.54904  -0.54219  -0.44763  -0.38883
 Alpha  occ. eigenvalues --   -0.38851
 Alpha virt. eigenvalues --    0.03755   0.07727   0.08451   0.10184   0.11189
 Alpha virt. eigenvalues --    0.11235   0.15267   0.15723   0.16686   0.20133
 Alpha virt. eigenvalues --    0.20144   0.25223   0.32606   0.34751   0.35022
 Alpha virt. eigenvalues --    0.38786   0.39767   0.39797   0.40689   0.47281
 Alpha virt. eigenvalues --    0.50269   0.52675   0.58583   0.60003   0.61431
 Alpha virt. eigenvalues --    0.66598   0.67255   0.69604   0.70280   0.79171
 Alpha virt. eigenvalues --    0.79664   0.82491   0.82672   0.83581   0.86648
 Alpha virt. eigenvalues --    0.91055   0.93096   0.94692   0.96478   0.97520
 Alpha virt. eigenvalues --    1.05320   1.07185   1.08641   1.11450   1.13037
 Alpha virt. eigenvalues --    1.14970   1.22528   1.23018   1.24102   1.35080
 Alpha virt. eigenvalues --    1.36059   1.45488   1.47400   1.48982   1.56300
 Alpha virt. eigenvalues --    1.63917   1.67191   1.70447   1.74943   1.77627
 Alpha virt. eigenvalues --    1.78909   1.79138   1.87341   1.91179   1.92336
 Alpha virt. eigenvalues --    1.94665   1.99124   2.00504   2.00984   2.03130
 Alpha virt. eigenvalues --    2.06230   2.11899   2.13558   2.18801   2.21572
 Alpha virt. eigenvalues --    2.24055   2.25202   2.25940   2.34101   2.36696
 Alpha virt. eigenvalues --    2.43131   2.49798   2.51753   2.57289   2.58436
 Alpha virt. eigenvalues --    2.60089   2.66835   2.69353   2.70445   2.71290
 Alpha virt. eigenvalues --    2.77465   2.78958   2.85266   2.88836   2.89810
 Alpha virt. eigenvalues --    2.94141   2.96895   2.97640   2.99046   3.08453
 Alpha virt. eigenvalues --    3.11494   3.12864   3.21451   3.29809   3.32223
 Alpha virt. eigenvalues --    3.35156   3.39547   3.41001   3.44291   3.50612
 Alpha virt. eigenvalues --    3.54781   3.58319   3.71610   3.73901   3.76288
 Alpha virt. eigenvalues --    3.89709   3.91974   3.96369   3.97430   4.00963
 Alpha virt. eigenvalues --    4.03068   4.05203   4.06800   4.25356   4.26462
 Alpha virt. eigenvalues --    4.53441   4.91228   4.91493   5.04015   5.07378
 Alpha virt. eigenvalues --    5.08524   5.14224   5.20979   5.24517   5.28354
 Alpha virt. eigenvalues --    5.33560   5.44918   5.46544   5.48548   5.64585
 Alpha virt. eigenvalues --    5.70226   5.85142   5.86908   5.89280   5.91541
 Alpha virt. eigenvalues --    5.95668   5.99770   6.00520   6.01949   6.03114
 Alpha virt. eigenvalues --    6.04886   6.05622   6.08124   6.09490   6.14808
 Alpha virt. eigenvalues --    6.19689   6.22186   6.25764   6.28805   6.33588
 Alpha virt. eigenvalues --    6.40968   6.46117   6.52623   6.57758   6.60342
 Alpha virt. eigenvalues --    6.66133   6.69889   6.89367   6.92436   6.94761
 Alpha virt. eigenvalues --    6.96837   7.02449   7.02507   7.06706   7.13352
 Alpha virt. eigenvalues --    7.16967   7.21465   7.27080   7.47748   7.49459
 Alpha virt. eigenvalues --    7.51169   7.53610   7.57126   7.62526   7.67227
 Alpha virt. eigenvalues --    7.67817   7.73037   7.74111   7.81834   7.84811
 Alpha virt. eigenvalues --    7.89951   7.90753   7.99577   8.08168   8.25751
 Alpha virt. eigenvalues --    8.30646   8.36099   8.43384   8.44945   8.46968
 Alpha virt. eigenvalues --    8.48373   8.50961   8.52876   8.54218   8.61339
 Alpha virt. eigenvalues --    8.62985   8.65760   8.66525   8.66955   8.68429
 Alpha virt. eigenvalues --    8.72894   8.86047   8.88171   8.91533   9.04501
 Alpha virt. eigenvalues --    9.09322   9.12126   9.15874   9.18100   9.21588
 Alpha virt. eigenvalues --    9.26287   9.34704   9.69811   9.74188   9.86568
 Alpha virt. eigenvalues --    9.90288   9.96937  10.06193  10.08471  10.10731
 Alpha virt. eigenvalues --   10.12755  10.23484  10.30410  10.40202  10.56461
 Alpha virt. eigenvalues --   10.65207  10.85101  11.35997  11.44098  11.74537
 Alpha virt. eigenvalues --   11.89853  11.98064  13.12069  13.63347  29.21823
 Alpha virt. eigenvalues --   29.53651  38.28431 148.88234 149.16752 198.19739
          Condensed to atoms (all electrons):
               1          2          3          4          5          6
     1  C    4.594295   0.300919  -0.058515   0.410471   0.418204   0.415953
     2  C    0.300919   4.854257   0.975126  -0.043359  -0.045991  -0.040170
     3  N   -0.058515   0.975126   6.297797  -0.000182  -0.001161  -0.000894
     4  H    0.410471  -0.043359  -0.000182   0.600312  -0.032306  -0.031861
     5  H    0.418204  -0.045991  -0.001161  -0.032306   0.588926  -0.027860
     6  H    0.415953  -0.040170  -0.000894  -0.031861  -0.027860   0.587659
 Mulliken charges:
               1
     1  C   -0.081328
     2  C   -0.000783
     3  N   -0.212172
     4  H    0.096924
     5  H    0.100187
     6  H    0.097173
 Sum of Mulliken charges =   0.00000
 Mulliken charges with hydrogens summed into heavy atoms:
               1
     1  C    0.212955
     2  C   -0.000783
     3  N   -0.212172
 Electronic spatial extent (au):  <R**2>=            162.2266
 Charge=              0.0000 electrons
 Dipole moment (field-independent basis, Debye):
    X=             -4.1494    Y=             -0.0143    Z=              0.0517  Tot=              4.1497
 Quadrupole moment (field-independent basis, Debye-Ang):
   XX=            -21.0165   YY=            -17.6472   ZZ=            -17.8442
   XY=             -0.0330   XZ=              0.0413   YZ=              0.0153
 Traceless Quadrupole moment (field-independent basis, Debye-Ang):
   XX=             -2.1806   YY=              1.1888   ZZ=              0.9918
   XY=             -0.0330   XZ=              0.0413   YZ=              0.0153
 Octapole moment (field-independent basis, Debye-Ang**2):
  XXX=            -13.0576  YYY=              0.1459  ZZZ=              0.6695  XYY=             -2.5217
  XXY=              0.1461  XXZ=              0.0216  XZZ=             -2.1654  YZZ=             -0.3096
  YYZ=             -0.7392  XYZ=              0.0171
 Hexadecapole moment (field-independent basis, Debye-Ang**3):
 XXXX=           -182.8508 YYYY=            -24.6219 ZZZZ=            -24.1857 XXXY=             -0.3087
 XXXZ=              0.0825 YYYX=             -0.4156 YYYZ=              0.0566 ZZZX=             -1.3001
 ZZZY=              0.0492 XXYY=            -30.9738 XXZZ=            -31.5025 YYZZ=             -8.1024
 XXYZ=             -0.0958 YYXZ=              1.1624 ZZXY=              0.4586
 N-N= 5.845132087037D+01 E-N=-4.255165401259D+02  KE= 1.320809465342D+02
 Leave Link  601 at Wed Aug 26 14:10:49 2020, MaxMem=  2097152000 cpu:         0.4
 (Enter /opt/cluster/programs/g09/g09_d.01/g09/l9999.exe)
 1\1\GINC-NODE15\SP\RB2PLYPD3-FC\def2QZVP\C2H3N1\BOITTIER\26-Aug-2020\0
 \\#p B2PLYPD3/Def2QZVP\\cyanomethane\\0,1\C,0,-6.611691,-1.116476,1.15
 5706\C,0,-5.197869,-0.781318,0.943769\N,0,-4.086611,-0.544027,0.684246
 \H,0,-6.755915,-1.209065,2.172917\H,0,-6.807057,-2.055937,0.688713\H,0
 ,-7.27141,-0.319861,0.775524\\Version=ES64L-G09RevD.01\State=1-A\HF=-1
 32.5315675\MP2=-132.7127529\RMSD=3.256e-09\PG=C01 [X(C2H3N1)]\\@


 IF YOU BELIEVE CERTAIN WORDS, YOU BELIEVE THEIR HIDDEN ARGUMENTS.
 WHEN YOU BELIEVE SOMETHING IS RIGHT OR WRONG, TRUE OR FALSE, 
 YOU BELIEVE THE ASSUMPTIONS IN THE WORDS WHICH EXPRESS THE ARGUMENTS.
 SUCH ASSUMPTIONS ARE OFTEN FULL OF HOLES, BUT REMAIN MOST PRECIOUS 
 TO THE CONVINCED.

                 -- THE OPEN-ENDED PROOF FROM THE PANOPLIA PROPHETICA
                    CHILDREN OF DUNE BY FRANK HERBERT
 Job cpu time:       0 days  0 hours  4 minutes 10.7 seconds.
 File lengths (MBytes):  RWF=     28 Int=      0 D2E=      0 Chk=      5 Scr=      1
 Normal termination of Gaussian 09 at Wed Aug 26 14:10:49 2020.
