 Entering Gaussian System, Link 0=/opt/cluster/programs/g09/g09_d.01/g09//g09
 Input=/home/boittier/MDCM/nms_sampling/cyanomethane_geom.xyz.dir/energies/cyanomethane_2235_energy.com
 Output=/scratch/boittier/cyanomethane_2235_energy/cyanomethane_2235_energy.out
 Initial command:
 /opt/cluster/programs/g09/g09_d.01/g09/l1.exe "/scratch/boittier/cyanomethane_2235_energy/Gau-130102.inp" -scrdir="/scratch/boittier/cyanomethane_2235_energy/"
 Entering Link 1 = /opt/cluster/programs/g09/g09_d.01/g09/l1.exe PID=    130103.
  
 Copyright (c) 1988,1990,1992,1993,1995,1998,2003,2009,2013,
            Gaussian, Inc.  All Rights Reserved.
  
 This is part of the Gaussian(R) 09 program.  It is based on
 the Gaussian(R) 03 system (copyright 2003, Gaussian, Inc.),
 the Gaussian(R) 98 system (copyright 1998, Gaussian, Inc.),
 the Gaussian(R) 94 system (copyright 1995, Gaussian, Inc.),
 the Gaussian 92(TM) system (copyright 1992, Gaussian, Inc.),
 the Gaussian 90(TM) system (copyright 1990, Gaussian, Inc.),
 the Gaussian 88(TM) system (copyright 1988, Gaussian, Inc.),
 the Gaussian 86(TM) system (copyright 1986, Carnegie Mellon
 University), and the Gaussian 82(TM) system (copyright 1983,
 Carnegie Mellon University). Gaussian is a federally registered
 trademark of Gaussian, Inc.
  
 This software contains proprietary and confidential information,
 including trade secrets, belonging to Gaussian, Inc.
  
 This software is provided under written license and may be
 used, copied, transmitted, or stored only in accord with that
 written license.
  
 The following legend is applicable only to US Government
 contracts under FAR:
  
                    RESTRICTED RIGHTS LEGEND
  
 Use, reproduction and disclosure by the US Government is
 subject to restrictions as set forth in subparagraphs (a)
 and (c) of the Commercial Computer Software - Restricted
 Rights clause in FAR 52.227-19.
  
 Gaussian, Inc.
 340 Quinnipiac St., Bldg. 40, Wallingford CT 06492
  
  
 ---------------------------------------------------------------
 Warning -- This program may not be used in any manner that
 competes with the business of Gaussian, Inc. or will provide
 assistance to any competitor of Gaussian, Inc.  The licensee
 of this program is prohibited from giving any competitor of
 Gaussian, Inc. access to this program.  By using this program,
 the user acknowledges that Gaussian, Inc. is engaged in the
 business of creating and licensing software in the field of
 computational chemistry and represents and warrants to the
 licensee that it is not a competitor of Gaussian, Inc. and that
 it will not use this program in any manner prohibited above.
 ---------------------------------------------------------------
  

 Cite this work as:
 Gaussian 09, Revision D.01,
 M. J. Frisch, G. W. Trucks, H. B. Schlegel, G. E. Scuseria, 
 M. A. Robb, J. R. Cheeseman, G. Scalmani, V. Barone, B. Mennucci, 
 G. A. Petersson, H. Nakatsuji, M. Caricato, X. Li, H. P. Hratchian, 
 A. F. Izmaylov, J. Bloino, G. Zheng, J. L. Sonnenberg, M. Hada, 
 M. Ehara, K. Toyota, R. Fukuda, J. Hasegawa, M. Ishida, T. Nakajima, 
 Y. Honda, O. Kitao, H. Nakai, T. Vreven, J. A. Montgomery, Jr., 
 J. E. Peralta, F. Ogliaro, M. Bearpark, J. J. Heyd, E. Brothers, 
 K. N. Kudin, V. N. Staroverov, T. Keith, R. Kobayashi, J. Normand, 
 K. Raghavachari, A. Rendell, J. C. Burant, S. S. Iyengar, J. Tomasi, 
 M. Cossi, N. Rega, J. M. Millam, M. Klene, J. E. Knox, J. B. Cross, 
 V. Bakken, C. Adamo, J. Jaramillo, R. Gomperts, R. E. Stratmann, 
 O. Yazyev, A. J. Austin, R. Cammi, C. Pomelli, J. W. Ochterski, 
 R. L. Martin, K. Morokuma, V. G. Zakrzewski, G. A. Voth, 
 P. Salvador, J. J. Dannenberg, S. Dapprich, A. D. Daniels, 
 O. Farkas, J. B. Foresman, J. V. Ortiz, J. Cioslowski, 
 and D. J. Fox, Gaussian, Inc., Wallingford CT, 2013.
 
 ******************************************
 Gaussian 09:  ES64L-G09RevD.01 24-Apr-2013
                26-Aug-2020 
 ******************************************
 %chk=/home/boittier/MDCM/nms_sampling/cyanomethane_geom.xyz.dir/cyanomethane_223
 5.chk
 %nproc=8
 Will use up to    8 processors via shared memory.
 %mem=16000MB
 --------------------
 #p B2PLYPD3/Def2QZVP
 --------------------
 1/38=1/1;
 2/12=2,17=6,18=5,40=1/2;
 3/5=45,7=101,11=9,16=1,25=1,30=1,74=-60/1,2,3;
 4//1;
 5/5=2,38=5/2;
 8/10=1/1;
 9/16=-3/6;
 6/7=2,8=2,9=2,10=2/1;
 99/5=1,9=1/99;
 Leave Link    1 at Wed Aug 26 15:35:29 2020, MaxMem=  2097152000 cpu:         0.3
 (Enter /opt/cluster/programs/g09/g09_d.01/g09/l101.exe)
 ------------
 cyanomethane
 ------------
 Symbolic Z-matrix:
 Charge =  0 Multiplicity = 1
 C                    -6.58212  -1.10446   1.16381 
 C                    -5.20594  -0.8073    0.93411 
 N                    -4.09959  -0.53262   0.68679 
 H                    -6.71755  -1.19552   2.2152 
 H                    -6.85037  -2.06881   0.67161 
 H                    -7.3456   -0.31955   0.74286 
 
 NAtoms=      6 NQM=        6 NQMF=       0 NMMI=      0 NMMIF=      0
                NMic=       0 NMicF=      0.
                    Isotopes and Nuclear Properties:
 (Nuclear quadrupole moments (NQMom) in fm**2, nuclear magnetic moments (NMagM)
  in nuclear magnetons)

  Atom         1           2           3           4           5           6
 IAtWgt=          12          12          14           1           1           1
 AtmWgt=  12.0000000  12.0000000  14.0030740   1.0078250   1.0078250   1.0078250
 NucSpn=           0           0           2           1           1           1
 AtZEff=   0.0000000   0.0000000   0.0000000   0.0000000   0.0000000   0.0000000
 NQMom=    0.0000000   0.0000000   2.0440000   0.0000000   0.0000000   0.0000000
 NMagM=    0.0000000   0.0000000   0.4037610   2.7928460   2.7928460   2.7928460
 AtZNuc=   6.0000000   6.0000000   7.0000000   1.0000000   1.0000000   1.0000000
 Leave Link  101 at Wed Aug 26 15:35:29 2020, MaxMem=  2097152000 cpu:         0.5
 (Enter /opt/cluster/programs/g09/g09_d.01/g09/l202.exe)
                          Input orientation:                          
 ---------------------------------------------------------------------
 Center     Atomic      Atomic             Coordinates (Angstroms)
 Number     Number       Type             X           Y           Z
 ---------------------------------------------------------------------
      1          6           0       -6.582122   -1.104459    1.163810
      2          6           0       -5.205944   -0.807303    0.934114
      3          7           0       -4.099595   -0.532622    0.686787
      4          1           0       -6.717551   -1.195521    2.215200
      5          1           0       -6.850372   -2.068810    0.671614
      6          1           0       -7.345597   -0.319545    0.742860
 ---------------------------------------------------------------------
                    Distance matrix (angstroms):
                    1          2          3          4          5
     1  C    0.000000
     2  C    1.426509   0.000000
     3  N    2.591812   1.166460   0.000000
     4  H    1.063980   2.019121   3.103091   0.000000
     5  H    1.115432   2.089127   3.150695   1.778464   0.000000
     6  H    1.173108   2.202862   3.253471   1.824708   1.819410
                    6
     6  H    0.000000
 Stoichiometry    C2H3N
 Framework group  C1[X(C2H3N)]
 Deg. of freedom    12
 Full point group                 C1      NOp   1
 Largest Abelian subgroup         C1      NOp   1
 Largest concise Abelian subgroup C1      NOp   1
                         Standard orientation:                         
 ---------------------------------------------------------------------
 Center     Atomic      Atomic             Coordinates (Angstroms)
 Number     Number       Type             X           Y           Z
 ---------------------------------------------------------------------
      1          6           0        1.158898   -0.002822   -0.005082
      2          6           0       -0.267415   -0.024192   -0.015192
      3          7           0       -1.432770    0.019791    0.010108
      4          1           0        1.492352   -0.577044   -0.836426
      5          1           0        1.539559   -0.461644    0.937662
      6          1           0        1.648582    1.062234   -0.050347
 ---------------------------------------------------------------------
 Rotational constants (GHZ):    153.2662228      9.3303424      9.3128419
 Leave Link  202 at Wed Aug 26 15:35:29 2020, MaxMem=  2097152000 cpu:         0.0
 (Enter /opt/cluster/programs/g09/g09_d.01/g09/l301.exe)
 Standard basis: def2QZVP (5D, 7F)
 Ernie: Thresh=  0.10000D-02 Tol=  0.10000D-05 Strict=F.
 There are   321 symmetry adapted cartesian basis functions of A   symmetry.
 There are   261 symmetry adapted basis functions of A   symmetry.
   261 basis functions,   390 primitive gaussians,   321 cartesian basis functions
    11 alpha electrons       11 beta electrons
       nuclear repulsion energy        58.4407302888 Hartrees.
 IExCor=  419 DFT=T Ex+Corr=B2PLYPD3 ExCW=0 ScaHFX=  0.530000
 ScaDFX=  0.470000  0.470000  0.730000  0.730000 ScalE2=  0.270000  0.270000
 IRadAn=      0 IRanWt=     -1 IRanGd=            0 ICorTp=0 IEmpDi=141
 NAtoms=    6 NActive=    6 NUniq=    6 SFac= 1.00D+00 NAtFMM=   60 NAOKFM=F Big=F
 Integral buffers will be    131072 words long.
 Regular integral format.
 Two-electron integral symmetry is turned on.
 R6Disp:  Grimme-D3(BJ) Dispersion energy=       -0.0021016414 Hartrees.
 Nuclear repulsion after empirical dispersion term =       58.4386286474 Hartrees.
 Leave Link  301 at Wed Aug 26 15:35:29 2020, MaxMem=  2097152000 cpu:         0.5
 (Enter /opt/cluster/programs/g09/g09_d.01/g09/l302.exe)
 NPDir=0 NMtPBC=     1 NCelOv=     1 NCel=       1 NClECP=     1 NCelD=      1
         NCelK=      1 NCelE2=     1 NClLst=     1 CellRange=     0.0.
 One-electron integrals computed using PRISM.
   1 Symmetry operations used in ECPInt.
 ECPInt:  NShTT=    3321 NPrTT=    8136 LenC2=    3294 LenP2D=    7123.
 LDataN:  DoStor=T MaxTD1= 8 Len=  415
 NBasis=   261 RedAO= T EigKep=  7.99D-05  NBF=   261
 NBsUse=   261 1.00D-06 EigRej= -1.00D+00 NBFU=   261
 Precomputing XC quadrature grid using
 IXCGrd= 4 IRadAn=           0 IRanWt=          -1 IRanGd=           0 AccXCQ= 0.00D+00.
 Generated NRdTot=       0 NPtTot=           0 NUsed=           0 NTot=          32
 NSgBfM=   321   321   321   321   321 MxSgAt=     6 MxSgA2=     6.
 Leave Link  302 at Wed Aug 26 15:35:29 2020, MaxMem=  2097152000 cpu:         2.0
 (Enter /opt/cluster/programs/g09/g09_d.01/g09/l303.exe)
 DipDrv:  MaxL=1.
 Leave Link  303 at Wed Aug 26 15:35:29 2020, MaxMem=  2097152000 cpu:         0.2
 (Enter /opt/cluster/programs/g09/g09_d.01/g09/l401.exe)
 ExpMin= 7.60D-02 ExpMax= 9.07D+04 ExpMxC= 8.76D+02 IAcc=2 IRadAn=         4 AccDes= 0.00D+00
 Harris functional with IExCor=  419 and IRadAn=       4 diagonalized for initial guess.
 HarFok:  IExCor=  419 AccDes= 0.00D+00 IRadAn=         4 IDoV= 1 UseB2=F ITyADJ=14
 ICtDFT=  3500011 ScaDFX=  1.000000  1.000000  1.000000  1.000000
 FoFCou: FMM=F IPFlag=           0 FMFlag=      100000 FMFlg1=           0
         NFxFlg=           0 DoJE=T BraDBF=F KetDBF=T FulRan=T
         wScrn=  0.000000 ICntrl=     500 IOpCl=  0 I1Cent=   200000004 NGrid=           0
         NMat0=    1 NMatS0=      1 NMatT0=    0 NMatD0=    1 NMtDS0=    0 NMtDT0=    0
 Petite list used in FoFCou.
 Harris En= -132.840723139882    
 JPrj=0 DoOrth=F DoCkMO=F.
 Leave Link  401 at Wed Aug 26 15:35:30 2020, MaxMem=  2097152000 cpu:         3.8
 (Enter /opt/cluster/programs/g09/g09_d.01/g09/l502.exe)
 Closed shell SCF:
 Using DIIS extrapolation, IDIIS=  1040.
 Integral symmetry usage will be decided dynamically.
 Keep R1 ints in memory in canonical form, NReq=601554820.
 IVT=      332521 IEndB=      332521 NGot=  2097152000 MDV=  1512290144
 LenX=  1512290144 LenY=  1512186662
 Requested convergence on RMS density matrix=1.00D-08 within 128 cycles.
 Requested convergence on MAX density matrix=1.00D-06.
 Requested convergence on             energy=1.00D-06.
 No special actions if energy rises.
 FoFCou: FMM=F IPFlag=           0 FMFlag=           0 FMFlg1=           0
         NFxFlg=           0 DoJE=F BraDBF=F KetDBF=F FulRan=T
         wScrn=  0.000000 ICntrl=     600 IOpCl=  0 I1Cent=           0 NGrid=           0
         NMat0=    1 NMatS0=  34191 NMatT0=    0 NMatD0=    1 NMtDS0=    0 NMtDT0=    0
 Symmetry not used in FoFCou.
 Integral accuracy reduced to 1.0D-05 until final iterations.

 Cycle   1  Pass 0  IDiag  1:
 E= -132.417980875231    
 DIIS: error= 2.44D-02 at cycle   1 NSaved=   1.
 NSaved= 1 IEnMin= 1 EnMin= -132.417980875231     IErMin= 1 ErrMin= 2.44D-02
 ErrMax= 2.44D-02  0.00D+00 EMaxC= 1.00D-01 BMatC= 1.83D-01 BMatP= 1.83D-01
 IDIUse=3 WtCom= 7.56D-01 WtEn= 2.44D-01
 Coeff-Com:  0.100D+01
 Coeff-En:   0.100D+01
 Coeff:      0.100D+01
 Gap=     0.436 Goal=   None    Shift=    0.000
 GapD=    0.436 DampG=2.000 DampE=0.500 DampFc=1.0000 IDamp=-1.
 RMSDP=1.28D-03 MaxDP=6.45D-02              OVMax= 1.64D-01

 Cycle   2  Pass 0  IDiag  1:
 E= -132.449300725860     Delta-E=       -0.031319850630 Rises=F Damp=F
 DIIS: error= 3.15D-02 at cycle   2 NSaved=   2.
 NSaved= 2 IEnMin= 2 EnMin= -132.449300725860     IErMin= 1 ErrMin= 2.44D-02
 ErrMax= 3.15D-02  0.00D+00 EMaxC= 1.00D-01 BMatC= 9.07D-02 BMatP= 1.83D-01
 IDIUse=3 WtCom= 6.85D-01 WtEn= 3.15D-01
 Coeff-Com:  0.396D+00 0.604D+00
 Coeff-En:   0.399D+00 0.601D+00
 Coeff:      0.397D+00 0.603D+00
 Gap=     0.430 Goal=   None    Shift=    0.000
 RMSDP=8.63D-04 MaxDP=3.69D-02 DE=-3.13D-02 OVMax= 1.22D-01

 Cycle   3  Pass 0  IDiag  1:
 E= -132.511471585174     Delta-E=       -0.062170859314 Rises=F Damp=F
 DIIS: error= 1.46D-02 at cycle   3 NSaved=   3.
 NSaved= 3 IEnMin= 3 EnMin= -132.511471585174     IErMin= 3 ErrMin= 1.46D-02
 ErrMax= 1.46D-02  0.00D+00 EMaxC= 1.00D-01 BMatC= 1.95D-02 BMatP= 9.07D-02
 IDIUse=3 WtCom= 8.54D-01 WtEn= 1.46D-01
 Coeff-Com:  0.953D-01 0.326D+00 0.578D+00
 Coeff-En:   0.000D+00 0.127D+00 0.873D+00
 Coeff:      0.814D-01 0.297D+00 0.621D+00
 Gap=     0.419 Goal=   None    Shift=    0.000
 RMSDP=2.72D-04 MaxDP=9.89D-03 DE=-6.22D-02 OVMax= 5.96D-02

 Cycle   4  Pass 0  IDiag  1:
 E= -132.524495473738     Delta-E=       -0.013023888564 Rises=F Damp=F
 DIIS: error= 5.80D-03 at cycle   4 NSaved=   4.
 NSaved= 4 IEnMin= 4 EnMin= -132.524495473738     IErMin= 4 ErrMin= 5.80D-03
 ErrMax= 5.80D-03  0.00D+00 EMaxC= 1.00D-01 BMatC= 3.38D-03 BMatP= 1.95D-02
 IDIUse=3 WtCom= 9.42D-01 WtEn= 5.80D-02
 Coeff-Com: -0.132D-01 0.577D-01 0.342D+00 0.613D+00
 Coeff-En:   0.000D+00 0.000D+00 0.168D+00 0.832D+00
 Coeff:     -0.125D-01 0.544D-01 0.332D+00 0.626D+00
 Gap=     0.419 Goal=   None    Shift=    0.000
 RMSDP=9.60D-05 MaxDP=3.01D-03 DE=-1.30D-02 OVMax= 1.67D-02

 Cycle   5  Pass 0  IDiag  1:
 E= -132.527437802267     Delta-E=       -0.002942328529 Rises=F Damp=F
 DIIS: error= 3.33D-04 at cycle   5 NSaved=   5.
 NSaved= 5 IEnMin= 5 EnMin= -132.527437802267     IErMin= 5 ErrMin= 3.33D-04
 ErrMax= 3.33D-04  0.00D+00 EMaxC= 1.00D-01 BMatC= 1.44D-05 BMatP= 3.38D-03
 IDIUse=3 WtCom= 9.97D-01 WtEn= 3.33D-03
 Coeff-Com: -0.326D-02 0.472D-02 0.429D-01 0.127D+00 0.829D+00
 Coeff-En:   0.000D+00 0.000D+00 0.000D+00 0.000D+00 0.100D+01
 Coeff:     -0.325D-02 0.471D-02 0.428D-01 0.126D+00 0.829D+00
 Gap=     0.419 Goal=   None    Shift=    0.000
 RMSDP=8.87D-06 MaxDP=3.43D-04 DE=-2.94D-03 OVMax= 1.30D-03

 Initial convergence to 1.0D-05 achieved.  Increase integral accuracy.
 Cycle   6  Pass 1  IDiag  1:
 E= -132.527452343821     Delta-E=       -0.000014541554 Rises=F Damp=F
 DIIS: error= 8.50D-05 at cycle   1 NSaved=   1.
 NSaved= 1 IEnMin= 1 EnMin= -132.527452343821     IErMin= 1 ErrMin= 8.50D-05
 ErrMax= 8.50D-05  0.00D+00 EMaxC= 1.00D-01 BMatC= 6.41D-07 BMatP= 6.41D-07
 IDIUse=1 WtCom= 1.00D+00 WtEn= 0.00D+00
 Coeff-Com:  0.100D+01
 Coeff:      0.100D+01
 Gap=     0.419 Goal=   None    Shift=    0.000
 RMSDP=8.87D-06 MaxDP=3.43D-04 DE=-1.45D-05 OVMax= 3.96D-04

 Cycle   7  Pass 1  IDiag  1:
 E= -132.527452732858     Delta-E=       -0.000000389037 Rises=F Damp=F
 DIIS: error= 4.29D-05 at cycle   2 NSaved=   2.
 NSaved= 2 IEnMin= 2 EnMin= -132.527452732858     IErMin= 2 ErrMin= 4.29D-05
 ErrMax= 4.29D-05  0.00D+00 EMaxC= 1.00D-01 BMatC= 2.92D-07 BMatP= 6.41D-07
 IDIUse=1 WtCom= 1.00D+00 WtEn= 0.00D+00
 Coeff-Com:  0.394D+00 0.606D+00
 Coeff:      0.394D+00 0.606D+00
 Gap=     0.419 Goal=   None    Shift=    0.000
 RMSDP=1.01D-06 MaxDP=3.59D-05 DE=-3.89D-07 OVMax= 1.88D-04

 Cycle   8  Pass 1  IDiag  1:
 E= -132.527452983964     Delta-E=       -0.000000251107 Rises=F Damp=F
 DIIS: error= 1.59D-05 at cycle   3 NSaved=   3.
 NSaved= 3 IEnMin= 3 EnMin= -132.527452983964     IErMin= 3 ErrMin= 1.59D-05
 ErrMax= 1.59D-05  0.00D+00 EMaxC= 1.00D-01 BMatC= 2.57D-08 BMatP= 2.92D-07
 IDIUse=1 WtCom= 1.00D+00 WtEn= 0.00D+00
 Coeff-Com:  0.121D+00 0.269D+00 0.610D+00
 Coeff:      0.121D+00 0.269D+00 0.610D+00
 Gap=     0.419 Goal=   None    Shift=    0.000
 RMSDP=5.72D-07 MaxDP=2.67D-05 DE=-2.51D-07 OVMax= 7.15D-05

 Cycle   9  Pass 1  IDiag  1:
 E= -132.527453001138     Delta-E=       -0.000000017174 Rises=F Damp=F
 DIIS: error= 1.05D-05 at cycle   4 NSaved=   4.
 NSaved= 4 IEnMin= 4 EnMin= -132.527453001138     IErMin= 4 ErrMin= 1.05D-05
 ErrMax= 1.05D-05  0.00D+00 EMaxC= 1.00D-01 BMatC= 7.02D-09 BMatP= 2.57D-08
 IDIUse=1 WtCom= 1.00D+00 WtEn= 0.00D+00
 Coeff-Com: -0.618D-01-0.369D-01 0.367D+00 0.732D+00
 Coeff:     -0.618D-01-0.369D-01 0.367D+00 0.732D+00
 Gap=     0.419 Goal=   None    Shift=    0.000
 RMSDP=3.02D-07 MaxDP=1.40D-05 DE=-1.72D-08 OVMax= 4.31D-05

 Cycle  10  Pass 1  IDiag  1:
 E= -132.527453008245     Delta-E=       -0.000000007107 Rises=F Damp=F
 DIIS: error= 9.39D-07 at cycle   5 NSaved=   5.
 NSaved= 5 IEnMin= 5 EnMin= -132.527453008245     IErMin= 5 ErrMin= 9.39D-07
 ErrMax= 9.39D-07  0.00D+00 EMaxC= 1.00D-01 BMatC= 1.14D-10 BMatP= 7.02D-09
 IDIUse=1 WtCom= 1.00D+00 WtEn= 0.00D+00
 Coeff-Com: -0.199D-01-0.205D-01 0.533D-01 0.177D+00 0.811D+00
 Coeff:     -0.199D-01-0.205D-01 0.533D-01 0.177D+00 0.811D+00
 Gap=     0.419 Goal=   None    Shift=    0.000
 RMSDP=5.02D-08 MaxDP=2.21D-06 DE=-7.11D-09 OVMax= 5.51D-06

 Cycle  11  Pass 1  IDiag  1:
 E= -132.527453008417     Delta-E=       -0.000000000172 Rises=F Damp=F
 DIIS: error= 4.84D-07 at cycle   6 NSaved=   6.
 NSaved= 6 IEnMin= 6 EnMin= -132.527453008417     IErMin= 6 ErrMin= 4.84D-07
 ErrMax= 4.84D-07  0.00D+00 EMaxC= 1.00D-01 BMatC= 1.32D-11 BMatP= 1.14D-10
 IDIUse=1 WtCom= 1.00D+00 WtEn= 0.00D+00
 Coeff-Com:  0.637D-02 0.289D-02-0.477D-01-0.716D-01 0.123D+00 0.987D+00
 Coeff:      0.637D-02 0.289D-02-0.477D-01-0.716D-01 0.123D+00 0.987D+00
 Gap=     0.419 Goal=   None    Shift=    0.000
 RMSDP=1.67D-08 MaxDP=6.09D-07 DE=-1.72D-10 OVMax= 3.82D-06

 Cycle  12  Pass 1  IDiag  1:
 E= -132.527453008457     Delta-E=       -0.000000000041 Rises=F Damp=F
 DIIS: error= 1.37D-07 at cycle   7 NSaved=   7.
 NSaved= 7 IEnMin= 7 EnMin= -132.527453008457     IErMin= 7 ErrMin= 1.37D-07
 ErrMax= 1.37D-07  0.00D+00 EMaxC= 1.00D-01 BMatC= 1.04D-12 BMatP= 1.32D-11
 IDIUse=1 WtCom= 1.00D+00 WtEn= 0.00D+00
 Coeff-Com:  0.110D-02 0.182D-02 0.306D-02-0.672D-02-0.108D+00-0.194D+00
 Coeff-Com:  0.130D+01
 Coeff:      0.110D-02 0.182D-02 0.306D-02-0.672D-02-0.108D+00-0.194D+00
 Coeff:      0.130D+01
 Gap=     0.419 Goal=   None    Shift=    0.000
 RMSDP=7.70D-09 MaxDP=2.94D-07 DE=-4.08D-11 OVMax= 1.96D-06

 SCF Done:  E(RB2PLYPD3) =  -132.527453008     A.U. after   12 cycles
            NFock= 12  Conv=0.77D-08     -V/T= 2.0044
 KE= 1.319451326480D+02 PE=-4.253863972005D+02 EE= 1.024751828968D+02
 Leave Link  502 at Wed Aug 26 15:35:50 2020, MaxMem=  2097152000 cpu:        96.7
 (Enter /opt/cluster/programs/g09/g09_d.01/g09/l801.exe)
 DoSCS=T DFT=T ScalE2(SS,OS)=  0.270000  0.270000
 ExpMin= 7.60D-02 ExpMax= 9.07D+04 ExpMxC= 8.76D+02 IAcc=3 IRadAn=         5 AccDes= 0.00D+00
 HarFok:  IExCor=  205 AccDes= 0.00D+00 IRadAn=         5 IDoV=-2 UseB2=F ITyADJ=14
 ICtDFT= 12500011 ScaDFX=  1.000000  1.000000  1.000000  1.000000
 Largest valence mixing into a core orbital is  1.17D-04
 Largest core mixing into a valence orbital is  1.98D-05
 Range of M.O.s used for correlation:     4   261
 NBasis=   261 NAE=    11 NBE=    11 NFC=     3 NFV=     0
 NROrb=    258 NOA=     8 NOB=     8 NVA=   250 NVB=   250

 **** Warning!!: The largest alpha MO coefficient is  0.27514419D+02

 Leave Link  801 at Wed Aug 26 15:35:51 2020, MaxMem=  2097152000 cpu:         0.6
 (Enter /opt/cluster/programs/g09/g09_d.01/g09/l906.exe)
 DoSCS=T DFT=T ScalE2(SS,OS)=  0.270000  0.270000
 FulOut=F Deriv=F AODrv=F NAtomX=     6
   MMem=        2666  MDisk=           8 MDiskD=           8
  W3Min=      642000 MinDsk=     1426009 NBas6D=         321
 NBas2D=       52689    NTT=       51681    LW2=     4508827
    MDV=  2096809669 MDiskM=       14501 NBas2p=       52081
 Fully direct method using O(OVN) memory.
 IMap=   1   2   3   4   5   6   7   8
 JobTyp=1 Pass  1:  I=   1 to   8 NPSUse=  8 ParTrn=T ParDer=T DoDerP=F.
 Spin components of T(2) and E(2):
     alpha-alpha T2 =       0.3671581316D-01 E2=     -0.2166869969D-01
     alpha-beta  T2 =       0.2141819308D+00 E2=     -0.1386782469D+00
     beta-beta   T2 =       0.3671581316D-01 E2=     -0.2166869969D-01
 The integrals were generated   1 times.
 E2(B2PLYPD3) =    -0.1820156463D+00 E(B2PLYPD3) =    -0.13270946865471D+03
 Leave Link  906 at Wed Aug 26 15:36:03 2020, MaxMem=  2097152000 cpu:        96.9
 (Enter /opt/cluster/programs/g09/g09_d.01/g09/l601.exe)
 Copying SCF densities to generalized density rwf, IOpCl= 0 IROHF=0.

 **********************************************************************

            Population analysis using the SCF density.

 **********************************************************************

 Orbital symmetries:
       Occupied  (A) (A) (A) (A) (A) (A) (A) (A) (A) (A) (A)
       Virtual   (A) (A) (A) (A) (A) (A) (A) (A) (A) (A) (A) (A)
                 (A) (A) (A) (A) (A) (A) (A) (A) (A) (A) (A) (A)
                 (A) (A) (A) (A) (A) (A) (A) (A) (A) (A) (A) (A)
                 (A) (A) (A) (A) (A) (A) (A) (A) (A) (A) (A) (A)
                 (A) (A) (A) (A) (A) (A) (A) (A) (A) (A) (A) (A)
                 (A) (A) (A) (A) (A) (A) (A) (A) (A) (A) (A) (A)
                 (A) (A) (A) (A) (A) (A) (A) (A) (A) (A) (A) (A)
                 (A) (A) (A) (A) (A) (A) (A) (A) (A) (A) (A) (A)
                 (A) (A) (A) (A) (A) (A) (A) (A) (A) (A) (A) (A)
                 (A) (A) (A) (A) (A) (A) (A) (A) (A) (A) (A) (A)
                 (A) (A) (A) (A) (A) (A) (A) (A) (A) (A) (A) (A)
                 (A) (A) (A) (A) (A) (A) (A) (A) (A) (A) (A) (A)
                 (A) (A) (A) (A) (A) (A) (A) (A) (A) (A) (A) (A)
                 (A) (A) (A) (A) (A) (A) (A) (A) (A) (A) (A) (A)
                 (A) (A) (A) (A) (A) (A) (A) (A) (A) (A) (A) (A)
                 (A) (A) (A) (A) (A) (A) (A) (A) (A) (A) (A) (A)
                 (A) (A) (A) (A) (A) (A) (A) (A) (A) (A) (A) (A)
                 (A) (A) (A) (A) (A) (A) (A) (A) (A) (A) (A) (A)
                 (A) (A) (A) (A) (A) (A) (A) (A) (A) (A) (A) (A)
                 (A) (A) (A) (A) (A) (A) (A) (A) (A) (A) (A) (A)
                 (A) (A) (A) (A) (A) (A) (A) (A) (A) (A)
 The electronic state is 1-A.
 Alpha  occ. eigenvalues --  -14.84561 -10.67633 -10.66536  -1.03768  -0.89325
 Alpha  occ. eigenvalues --   -0.60107  -0.54537  -0.52259  -0.44930  -0.38691
 Alpha  occ. eigenvalues --   -0.38461
 Alpha virt. eigenvalues --    0.03448   0.06507   0.07840   0.10054   0.11369
 Alpha virt. eigenvalues --    0.11749   0.15535   0.15815   0.16935   0.20096
 Alpha virt. eigenvalues --    0.20254   0.25911   0.32439   0.33650   0.34577
 Alpha virt. eigenvalues --    0.38451   0.39787   0.39935   0.40868   0.46722
 Alpha virt. eigenvalues --    0.49737   0.52336   0.58340   0.60085   0.61590
 Alpha virt. eigenvalues --    0.66694   0.68574   0.68973   0.69872   0.79179
 Alpha virt. eigenvalues --    0.79568   0.82075   0.82399   0.83611   0.86358
 Alpha virt. eigenvalues --    0.90888   0.94289   0.95470   0.96891   0.98674
 Alpha virt. eigenvalues --    1.05803   1.07547   1.08854   1.11303   1.13001
 Alpha virt. eigenvalues --    1.14223   1.21644   1.22671   1.23433   1.33725
 Alpha virt. eigenvalues --    1.35312   1.41739   1.45828   1.49181   1.53455
 Alpha virt. eigenvalues --    1.65113   1.67062   1.70084   1.73723   1.77775
 Alpha virt. eigenvalues --    1.78009   1.79552   1.89554   1.90469   1.93264
 Alpha virt. eigenvalues --    1.94955   1.98338   1.99822   2.01852   2.05360
 Alpha virt. eigenvalues --    2.06694   2.10616   2.15916   2.18701   2.20167
 Alpha virt. eigenvalues --    2.22691   2.24325   2.24869   2.33287   2.35483
 Alpha virt. eigenvalues --    2.43379   2.50691   2.52114   2.55860   2.58680
 Alpha virt. eigenvalues --    2.60189   2.65543   2.69683   2.72135   2.73063
 Alpha virt. eigenvalues --    2.75277   2.77563   2.86899   2.88086   2.89699
 Alpha virt. eigenvalues --    2.91224   2.92753   2.95246   2.96969   3.05380
 Alpha virt. eigenvalues --    3.06738   3.11499   3.21079   3.23785   3.28158
 Alpha virt. eigenvalues --    3.32671   3.34229   3.35810   3.40146   3.48724
 Alpha virt. eigenvalues --    3.51691   3.58443   3.69080   3.73766   3.74575
 Alpha virt. eigenvalues --    3.84630   3.86808   3.90817   3.95630   3.98054
 Alpha virt. eigenvalues --    4.00750   4.04964   4.06287   4.20834   4.24672
 Alpha virt. eigenvalues --    4.57691   4.90932   4.91013   5.05889   5.07232
 Alpha virt. eigenvalues --    5.11114   5.12141   5.17769   5.20358   5.26872
 Alpha virt. eigenvalues --    5.33957   5.43253   5.46054   5.48963   5.61150
 Alpha virt. eigenvalues --    5.66741   5.80069   5.85023   5.87011   5.90862
 Alpha virt. eigenvalues --    5.92153   5.93628   5.95951   5.97263   6.00779
 Alpha virt. eigenvalues --    6.01580   6.05306   6.05985   6.07184   6.11492
 Alpha virt. eigenvalues --    6.15277   6.16859   6.20114   6.25376   6.29961
 Alpha virt. eigenvalues --    6.41370   6.42198   6.47389   6.51791   6.57745
 Alpha virt. eigenvalues --    6.59193   6.63380   6.83383   6.88336   6.94408
 Alpha virt. eigenvalues --    6.96139   7.02391   7.02412   7.07825   7.08944
 Alpha virt. eigenvalues --    7.12314   7.14330   7.26264   7.34812   7.44690
 Alpha virt. eigenvalues --    7.46135   7.48744   7.53604   7.55843   7.58923
 Alpha virt. eigenvalues --    7.66655   7.73505   7.75747   7.79341   7.82716
 Alpha virt. eigenvalues --    7.84776   7.87184   7.93387   7.99815   8.19134
 Alpha virt. eigenvalues --    8.29390   8.36850   8.38080   8.39599   8.41845
 Alpha virt. eigenvalues --    8.43911   8.46543   8.51079   8.52085   8.57354
 Alpha virt. eigenvalues --    8.59739   8.62844   8.65346   8.66509   8.66527
 Alpha virt. eigenvalues --    8.71006   8.81528   8.84188   8.87081   8.95490
 Alpha virt. eigenvalues --    9.00306   9.01815   9.07944   9.14383   9.17586
 Alpha virt. eigenvalues --    9.23146   9.24566   9.54559   9.62073   9.65203
 Alpha virt. eigenvalues --    9.74046   9.83670   9.86630   9.93638  10.00528
 Alpha virt. eigenvalues --   10.11598  10.14449  10.17038  10.20761  10.40239
 Alpha virt. eigenvalues --   10.47598  10.53826  11.35967  11.76382  11.85716
 Alpha virt. eigenvalues --   11.99146  12.05429  13.02687  13.27612  29.08815
 Alpha virt. eigenvalues --   29.64297  38.28351 148.72808 149.28091 198.19410
          Condensed to atoms (all electrons):
               1          2          3          4          5          6
     1  C    4.629971   0.289682  -0.060781   0.409543   0.409538   0.409567
     2  C    0.289682   4.857365   0.982995  -0.049632  -0.045950  -0.037888
     3  N   -0.060781   0.982995   6.292116  -0.000426  -0.001322  -0.001697
     4  H    0.409543  -0.049632  -0.000426   0.594749  -0.028858  -0.028329
     5  H    0.409538  -0.045950  -0.001322  -0.028858   0.599047  -0.029956
     6  H    0.409567  -0.037888  -0.001697  -0.028329  -0.029956   0.593779
 Mulliken charges:
               1
     1  C   -0.087520
     2  C    0.003428
     3  N   -0.210886
     4  H    0.102954
     5  H    0.097500
     6  H    0.094523
 Sum of Mulliken charges =   0.00000
 Mulliken charges with hydrogens summed into heavy atoms:
               1
     1  C    0.207458
     2  C    0.003428
     3  N   -0.210886
 Electronic spatial extent (au):  <R**2>=            161.5167
 Charge=              0.0000 electrons
 Dipole moment (field-independent basis, Debye):
    X=              4.1236    Y=             -0.0544    Z=             -0.0090  Tot=              4.1240
 Quadrupole moment (field-independent basis, Debye-Ang):
   XX=            -21.0019   YY=            -17.8186   ZZ=            -17.8218
   XY=              0.1650   XZ=              0.0969   YZ=              0.0512
 Traceless Quadrupole moment (field-independent basis, Debye-Ang):
   XX=             -2.1211   YY=              1.0622   ZZ=              1.0590
   XY=              0.1650   XZ=              0.0969   YZ=              0.0512
 Octapole moment (field-independent basis, Debye-Ang**2):
  XXX=             12.6616  YYY=              0.7049  ZZZ=              0.1700  XYY=              2.3201
  XXY=              0.3836  XXZ=              0.1563  XZZ=              2.1404  YZZ=             -0.8760
  YYZ=             -0.1572  XYZ=              0.0362
 Hexadecapole moment (field-independent basis, Debye-Ang**3):
 XXXX=           -181.4792 YYYY=            -25.6282 ZZZZ=            -24.8021 XXXY=              1.0522
 XXXZ=              0.4051 YYYX=              1.3434 YYYZ=              0.1646 ZZZX=              0.2993
 ZZZY=              0.0733 XXYY=            -30.7956 XXZZ=            -31.3312 YYZZ=             -8.4519
 XXYZ=              0.0164 YYXZ=             -0.2608 ZZXY=             -1.4511
 N-N= 5.843862864736D+01 E-N=-4.253864000619D+02  KE= 1.319451326480D+02
 Leave Link  601 at Wed Aug 26 15:36:03 2020, MaxMem=  2097152000 cpu:         0.3
 (Enter /opt/cluster/programs/g09/g09_d.01/g09/l9999.exe)
 1\1\GINC-NODE21\SP\RB2PLYPD3-FC\def2QZVP\C2H3N1\BOITTIER\26-Aug-2020\0
 \\#p B2PLYPD3/Def2QZVP\\cyanomethane\\0,1\C,0,-6.582122,-1.104459,1.16
 381\C,0,-5.205944,-0.807303,0.934114\N,0,-4.099595,-0.532622,0.686787\
 H,0,-6.717551,-1.195521,2.2152\H,0,-6.850372,-2.06881,0.671614\H,0,-7.
 345597,-0.319545,0.74286\\Version=ES64L-G09RevD.01\State=1-A\HF=-132.5
 27453\MP2=-132.7094687\RMSD=7.698e-09\PG=C01 [X(C2H3N1)]\\@


 TIME GOES, YOU SAY?  AH NO!
 ALAS, TIME STAYS, WE GO.
    -- A. DOBSON (1840-1921)
 Job cpu time:       0 days  0 hours  3 minutes 22.4 seconds.
 File lengths (MBytes):  RWF=     28 Int=      0 D2E=      0 Chk=      5 Scr=      1
 Normal termination of Gaussian 09 at Wed Aug 26 15:36:03 2020.
