 Entering Gaussian System, Link 0=/opt/cluster/programs/g09/g09_d.01/g09//g09
 Input=/home/boittier/MDCM/nms_sampling/cyanomethane_geom.xyz.dir/energies/cyanomethane_2970_energy.com
 Output=/scratch/boittier/cyanomethane_2970_energy/cyanomethane_2970_energy.out
 Initial command:
 /opt/cluster/programs/g09/g09_d.01/g09/l1.exe "/scratch/boittier/cyanomethane_2970_energy/Gau-91878.inp" -scrdir="/scratch/boittier/cyanomethane_2970_energy/"
 Entering Link 1 = /opt/cluster/programs/g09/g09_d.01/g09/l1.exe PID=     91879.
  
 Copyright (c) 1988,1990,1992,1993,1995,1998,2003,2009,2013,
            Gaussian, Inc.  All Rights Reserved.
  
 This is part of the Gaussian(R) 09 program.  It is based on
 the Gaussian(R) 03 system (copyright 2003, Gaussian, Inc.),
 the Gaussian(R) 98 system (copyright 1998, Gaussian, Inc.),
 the Gaussian(R) 94 system (copyright 1995, Gaussian, Inc.),
 the Gaussian 92(TM) system (copyright 1992, Gaussian, Inc.),
 the Gaussian 90(TM) system (copyright 1990, Gaussian, Inc.),
 the Gaussian 88(TM) system (copyright 1988, Gaussian, Inc.),
 the Gaussian 86(TM) system (copyright 1986, Carnegie Mellon
 University), and the Gaussian 82(TM) system (copyright 1983,
 Carnegie Mellon University). Gaussian is a federally registered
 trademark of Gaussian, Inc.
  
 This software contains proprietary and confidential information,
 including trade secrets, belonging to Gaussian, Inc.
  
 This software is provided under written license and may be
 used, copied, transmitted, or stored only in accord with that
 written license.
  
 The following legend is applicable only to US Government
 contracts under FAR:
  
                    RESTRICTED RIGHTS LEGEND
  
 Use, reproduction and disclosure by the US Government is
 subject to restrictions as set forth in subparagraphs (a)
 and (c) of the Commercial Computer Software - Restricted
 Rights clause in FAR 52.227-19.
  
 Gaussian, Inc.
 340 Quinnipiac St., Bldg. 40, Wallingford CT 06492
  
  
 ---------------------------------------------------------------
 Warning -- This program may not be used in any manner that
 competes with the business of Gaussian, Inc. or will provide
 assistance to any competitor of Gaussian, Inc.  The licensee
 of this program is prohibited from giving any competitor of
 Gaussian, Inc. access to this program.  By using this program,
 the user acknowledges that Gaussian, Inc. is engaged in the
 business of creating and licensing software in the field of
 computational chemistry and represents and warrants to the
 licensee that it is not a competitor of Gaussian, Inc. and that
 it will not use this program in any manner prohibited above.
 ---------------------------------------------------------------
  

 Cite this work as:
 Gaussian 09, Revision D.01,
 M. J. Frisch, G. W. Trucks, H. B. Schlegel, G. E. Scuseria, 
 M. A. Robb, J. R. Cheeseman, G. Scalmani, V. Barone, B. Mennucci, 
 G. A. Petersson, H. Nakatsuji, M. Caricato, X. Li, H. P. Hratchian, 
 A. F. Izmaylov, J. Bloino, G. Zheng, J. L. Sonnenberg, M. Hada, 
 M. Ehara, K. Toyota, R. Fukuda, J. Hasegawa, M. Ishida, T. Nakajima, 
 Y. Honda, O. Kitao, H. Nakai, T. Vreven, J. A. Montgomery, Jr., 
 J. E. Peralta, F. Ogliaro, M. Bearpark, J. J. Heyd, E. Brothers, 
 K. N. Kudin, V. N. Staroverov, T. Keith, R. Kobayashi, J. Normand, 
 K. Raghavachari, A. Rendell, J. C. Burant, S. S. Iyengar, J. Tomasi, 
 M. Cossi, N. Rega, J. M. Millam, M. Klene, J. E. Knox, J. B. Cross, 
 V. Bakken, C. Adamo, J. Jaramillo, R. Gomperts, R. E. Stratmann, 
 O. Yazyev, A. J. Austin, R. Cammi, C. Pomelli, J. W. Ochterski, 
 R. L. Martin, K. Morokuma, V. G. Zakrzewski, G. A. Voth, 
 P. Salvador, J. J. Dannenberg, S. Dapprich, A. D. Daniels, 
 O. Farkas, J. B. Foresman, J. V. Ortiz, J. Cioslowski, 
 and D. J. Fox, Gaussian, Inc., Wallingford CT, 2013.
 
 ******************************************
 Gaussian 09:  ES64L-G09RevD.01 24-Apr-2013
                26-Aug-2020 
 ******************************************
 %chk=/home/boittier/MDCM/nms_sampling/cyanomethane_geom.xyz.dir/cyanomethane_297
 0.chk
 %nproc=8
 Will use up to    8 processors via shared memory.
 %mem=16000MB
 --------------------
 #p B2PLYPD3/Def2QZVP
 --------------------
 1/38=1/1;
 2/12=2,17=6,18=5,40=1/2;
 3/5=45,7=101,11=9,16=1,25=1,30=1,74=-60/1,2,3;
 4//1;
 5/5=2,38=5/2;
 8/10=1/1;
 9/16=-3/6;
 6/7=2,8=2,9=2,10=2/1;
 99/5=1,9=1/99;
 Leave Link    1 at Wed Aug 26 21:53:16 2020, MaxMem=  2097152000 cpu:         0.4
 (Enter /opt/cluster/programs/g09/g09_d.01/g09/l101.exe)
 ------------
 cyanomethane
 ------------
 Symbolic Z-matrix:
 Charge =  0 Multiplicity = 1
 C                    -6.61406  -1.09145   1.1589 
 C                    -5.19863  -0.81515   0.96183 
 N                    -4.08405  -0.52905   0.67109 
 H                    -6.65592  -1.27666   2.10029 
 H                    -6.83562  -2.05596   0.66117 
 H                    -7.34041  -0.34011   0.80592 
 
 NAtoms=      6 NQM=        6 NQMF=       0 NMMI=      0 NMMIF=      0
                NMic=       0 NMicF=      0.
                    Isotopes and Nuclear Properties:
 (Nuclear quadrupole moments (NQMom) in fm**2, nuclear magnetic moments (NMagM)
  in nuclear magnetons)

  Atom         1           2           3           4           5           6
 IAtWgt=          12          12          14           1           1           1
 AtmWgt=  12.0000000  12.0000000  14.0030740   1.0078250   1.0078250   1.0078250
 NucSpn=           0           0           2           1           1           1
 AtZEff=   0.0000000   0.0000000   0.0000000   0.0000000   0.0000000   0.0000000
 NQMom=    0.0000000   0.0000000   2.0440000   0.0000000   0.0000000   0.0000000
 NMagM=    0.0000000   0.0000000   0.4037610   2.7928460   2.7928460   2.7928460
 AtZNuc=   6.0000000   6.0000000   7.0000000   1.0000000   1.0000000   1.0000000
 Leave Link  101 at Wed Aug 26 21:53:16 2020, MaxMem=  2097152000 cpu:         0.5
 (Enter /opt/cluster/programs/g09/g09_d.01/g09/l202.exe)
                          Input orientation:                          
 ---------------------------------------------------------------------
 Center     Atomic      Atomic             Coordinates (Angstroms)
 Number     Number       Type             X           Y           Z
 ---------------------------------------------------------------------
      1          6           0       -6.614064   -1.091451    1.158902
      2          6           0       -5.198629   -0.815150    0.961828
      3          7           0       -4.084047   -0.529050    0.671093
      4          1           0       -6.655918   -1.276664    2.100286
      5          1           0       -6.835623   -2.055956    0.661171
      6          1           0       -7.340412   -0.340112    0.805918
 ---------------------------------------------------------------------
                    Distance matrix (angstroms):
                    1          2          3          4          5
     1  C    0.000000
     2  C    1.455554   0.000000
     3  N    2.637279   1.186875   0.000000
     4  H    0.960343   1.905983   3.035793   0.000000
     5  H    1.107743   2.075992   3.146857   1.646403   0.000000
     6  H    1.103036   2.199364   3.264627   1.738117   1.794404
                    6
     6  H    0.000000
 Stoichiometry    C2H3N
 Framework group  C1[X(C2H3N)]
 Deg. of freedom    12
 Full point group                 C1      NOp   1
 Largest Abelian subgroup         C1      NOp   1
 Largest concise Abelian subgroup C1      NOp   1
                         Standard orientation:                         
 ---------------------------------------------------------------------
 Center     Atomic      Atomic             Coordinates (Angstroms)
 Number     Number       Type             X           Y           Z
 ---------------------------------------------------------------------
      1          6           0       -1.187744    0.019824    0.005858
      2          6           0        0.266287   -0.031276    0.048512
      3          7           0        1.449276    0.022423   -0.031038
      4          1           0       -1.429235   -0.347738    0.859578
      5          1           0       -1.523635   -0.727505   -0.739643
      6          1           0       -1.663320    0.986992   -0.228884
 ---------------------------------------------------------------------
 Rotational constants (GHZ):    165.7298555      9.1461180      9.1012238
 Leave Link  202 at Wed Aug 26 21:53:16 2020, MaxMem=  2097152000 cpu:         0.0
 (Enter /opt/cluster/programs/g09/g09_d.01/g09/l301.exe)
 Standard basis: def2QZVP (5D, 7F)
 Ernie: Thresh=  0.10000D-02 Tol=  0.10000D-05 Strict=F.
 There are   321 symmetry adapted cartesian basis functions of A   symmetry.
 There are   261 symmetry adapted basis functions of A   symmetry.
   261 basis functions,   390 primitive gaussians,   321 cartesian basis functions
    11 alpha electrons       11 beta electrons
       nuclear repulsion energy        58.3840195510 Hartrees.
 IExCor=  419 DFT=T Ex+Corr=B2PLYPD3 ExCW=0 ScaHFX=  0.530000
 ScaDFX=  0.470000  0.470000  0.730000  0.730000 ScalE2=  0.270000  0.270000
 IRadAn=      0 IRanWt=     -1 IRanGd=            0 ICorTp=0 IEmpDi=141
 NAtoms=    6 NActive=    6 NUniq=    6 SFac= 1.00D+00 NAtFMM=   60 NAOKFM=F Big=F
 Integral buffers will be    131072 words long.
 Regular integral format.
 Two-electron integral symmetry is turned on.
 R6Disp:  Grimme-D3(BJ) Dispersion energy=       -0.0021026383 Hartrees.
 Nuclear repulsion after empirical dispersion term =       58.3819169127 Hartrees.
 Leave Link  301 at Wed Aug 26 21:53:16 2020, MaxMem=  2097152000 cpu:         0.4
 (Enter /opt/cluster/programs/g09/g09_d.01/g09/l302.exe)
 NPDir=0 NMtPBC=     1 NCelOv=     1 NCel=       1 NClECP=     1 NCelD=      1
         NCelK=      1 NCelE2=     1 NClLst=     1 CellRange=     0.0.
 One-electron integrals computed using PRISM.
   1 Symmetry operations used in ECPInt.
 ECPInt:  NShTT=    3321 NPrTT=    8136 LenC2=    3295 LenP2D=    7126.
 LDataN:  DoStor=T MaxTD1= 8 Len=  415
 NBasis=   261 RedAO= T EigKep=  7.01D-05  NBF=   261
 NBsUse=   261 1.00D-06 EigRej= -1.00D+00 NBFU=   261
 Precomputing XC quadrature grid using
 IXCGrd= 4 IRadAn=           0 IRanWt=          -1 IRanGd=           0 AccXCQ= 0.00D+00.
 Generated NRdTot=       0 NPtTot=           0 NUsed=           0 NTot=          32
 NSgBfM=   321   321   321   321   321 MxSgAt=     6 MxSgA2=     6.
 Leave Link  302 at Wed Aug 26 21:53:16 2020, MaxMem=  2097152000 cpu:         2.3
 (Enter /opt/cluster/programs/g09/g09_d.01/g09/l303.exe)
 DipDrv:  MaxL=1.
 Leave Link  303 at Wed Aug 26 21:53:16 2020, MaxMem=  2097152000 cpu:         0.2
 (Enter /opt/cluster/programs/g09/g09_d.01/g09/l401.exe)
 ExpMin= 7.60D-02 ExpMax= 9.07D+04 ExpMxC= 8.76D+02 IAcc=2 IRadAn=         4 AccDes= 0.00D+00
 Harris functional with IExCor=  419 and IRadAn=       4 diagonalized for initial guess.
 HarFok:  IExCor=  419 AccDes= 0.00D+00 IRadAn=         4 IDoV= 1 UseB2=F ITyADJ=14
 ICtDFT=  3500011 ScaDFX=  1.000000  1.000000  1.000000  1.000000
 FoFCou: FMM=F IPFlag=           0 FMFlag=      100000 FMFlg1=           0
         NFxFlg=           0 DoJE=T BraDBF=F KetDBF=T FulRan=T
         wScrn=  0.000000 ICntrl=     500 IOpCl=  0 I1Cent=   200000004 NGrid=           0
         NMat0=    1 NMatS0=      1 NMatT0=    0 NMatD0=    1 NMtDS0=    0 NMtDT0=    0
 Petite list used in FoFCou.
 Harris En= -132.835879117620    
 JPrj=0 DoOrth=F DoCkMO=F.
 Leave Link  401 at Wed Aug 26 21:53:17 2020, MaxMem=  2097152000 cpu:         4.3
 (Enter /opt/cluster/programs/g09/g09_d.01/g09/l502.exe)
 Closed shell SCF:
 Using DIIS extrapolation, IDIIS=  1040.
 Integral symmetry usage will be decided dynamically.
 Keep R1 ints in memory in canonical form, NReq=601554820.
 IVT=      332521 IEndB=      332521 NGot=  2097152000 MDV=  1512290144
 LenX=  1512290144 LenY=  1512186662
 Requested convergence on RMS density matrix=1.00D-08 within 128 cycles.
 Requested convergence on MAX density matrix=1.00D-06.
 Requested convergence on             energy=1.00D-06.
 No special actions if energy rises.
 FoFCou: FMM=F IPFlag=           0 FMFlag=           0 FMFlg1=           0
         NFxFlg=           0 DoJE=F BraDBF=F KetDBF=F FulRan=T
         wScrn=  0.000000 ICntrl=     600 IOpCl=  0 I1Cent=           0 NGrid=           0
         NMat0=    1 NMatS0=  34191 NMatT0=    0 NMatD0=    1 NMtDS0=    0 NMtDT0=    0
 Symmetry not used in FoFCou.
 Integral accuracy reduced to 1.0D-05 until final iterations.

 Cycle   1  Pass 0  IDiag  1:
 E= -132.396596701093    
 DIIS: error= 2.58D-02 at cycle   1 NSaved=   1.
 NSaved= 1 IEnMin= 1 EnMin= -132.396596701093     IErMin= 1 ErrMin= 2.58D-02
 ErrMax= 2.58D-02  0.00D+00 EMaxC= 1.00D-01 BMatC= 1.92D-01 BMatP= 1.92D-01
 IDIUse=3 WtCom= 7.42D-01 WtEn= 2.58D-01
 Coeff-Com:  0.100D+01
 Coeff-En:   0.100D+01
 Coeff:      0.100D+01
 Gap=     0.434 Goal=   None    Shift=    0.000
 GapD=    0.434 DampG=2.000 DampE=0.500 DampFc=1.0000 IDamp=-1.
 RMSDP=1.21D-03 MaxDP=5.78D-02              OVMax= 1.56D-01

 Cycle   2  Pass 0  IDiag  1:
 E= -132.432178667511     Delta-E=       -0.035581966417 Rises=F Damp=F
 DIIS: error= 3.30D-02 at cycle   2 NSaved=   2.
 NSaved= 2 IEnMin= 2 EnMin= -132.432178667511     IErMin= 1 ErrMin= 2.58D-02
 ErrMax= 3.30D-02  0.00D+00 EMaxC= 1.00D-01 BMatC= 9.48D-02 BMatP= 1.92D-01
 IDIUse=3 WtCom= 6.70D-01 WtEn= 3.30D-01
 Coeff-Com:  0.396D+00 0.604D+00
 Coeff-En:   0.389D+00 0.611D+00
 Coeff:      0.394D+00 0.606D+00
 Gap=     0.427 Goal=   None    Shift=    0.000
 RMSDP=8.02D-04 MaxDP=2.94D-02 DE=-3.56D-02 OVMax= 1.25D-01

 Cycle   3  Pass 0  IDiag  1:
 E= -132.493259297070     Delta-E=       -0.061080629559 Rises=F Damp=F
 DIIS: error= 1.61D-02 at cycle   3 NSaved=   3.
 NSaved= 3 IEnMin= 3 EnMin= -132.493259297070     IErMin= 3 ErrMin= 1.61D-02
 ErrMax= 1.61D-02  0.00D+00 EMaxC= 1.00D-01 BMatC= 2.33D-02 BMatP= 9.48D-02
 IDIUse=3 WtCom= 8.39D-01 WtEn= 1.61D-01
 Coeff-Com:  0.106D+00 0.342D+00 0.553D+00
 Coeff-En:   0.000D+00 0.166D+00 0.834D+00
 Coeff:      0.888D-01 0.313D+00 0.598D+00
 Gap=     0.414 Goal=   None    Shift=    0.000
 RMSDP=2.92D-04 MaxDP=1.07D-02 DE=-6.11D-02 OVMax= 6.62D-02

 Cycle   4  Pass 0  IDiag  1:
 E= -132.509399734802     Delta-E=       -0.016140437732 Rises=F Damp=F
 DIIS: error= 5.80D-03 at cycle   4 NSaved=   4.
 NSaved= 4 IEnMin= 4 EnMin= -132.509399734802     IErMin= 4 ErrMin= 5.80D-03
 ErrMax= 5.80D-03  0.00D+00 EMaxC= 1.00D-01 BMatC= 3.64D-03 BMatP= 2.33D-02
 IDIUse=3 WtCom= 9.42D-01 WtEn= 5.80D-02
 Coeff-Com: -0.124D-01 0.570D-01 0.327D+00 0.628D+00
 Coeff-En:   0.000D+00 0.000D+00 0.154D+00 0.846D+00
 Coeff:     -0.117D-01 0.537D-01 0.317D+00 0.641D+00
 Gap=     0.417 Goal=   None    Shift=    0.000
 RMSDP=9.91D-05 MaxDP=2.89D-03 DE=-1.61D-02 OVMax= 1.78D-02

 Cycle   5  Pass 0  IDiag  1:
 E= -132.512558493996     Delta-E=       -0.003158759194 Rises=F Damp=F
 DIIS: error= 4.05D-04 at cycle   5 NSaved=   5.
 NSaved= 5 IEnMin= 5 EnMin= -132.512558493996     IErMin= 5 ErrMin= 4.05D-04
 ErrMax= 4.05D-04  0.00D+00 EMaxC= 1.00D-01 BMatC= 1.75D-05 BMatP= 3.64D-03
 IDIUse=3 WtCom= 9.96D-01 WtEn= 4.05D-03
 Coeff-Com: -0.375D-02 0.607D-02 0.500D-01 0.146D+00 0.802D+00
 Coeff-En:   0.000D+00 0.000D+00 0.000D+00 0.000D+00 0.100D+01
 Coeff:     -0.373D-02 0.605D-02 0.498D-01 0.145D+00 0.802D+00
 Gap=     0.416 Goal=   None    Shift=    0.000
 RMSDP=8.37D-06 MaxDP=3.09D-04 DE=-3.16D-03 OVMax= 1.51D-03

 Initial convergence to 1.0D-05 achieved.  Increase integral accuracy.
 Cycle   6  Pass 1  IDiag  1:
 E= -132.512573212585     Delta-E=       -0.000014718589 Rises=F Damp=F
 DIIS: error= 1.09D-04 at cycle   1 NSaved=   1.
 NSaved= 1 IEnMin= 1 EnMin= -132.512573212585     IErMin= 1 ErrMin= 1.09D-04
 ErrMax= 1.09D-04  0.00D+00 EMaxC= 1.00D-01 BMatC= 7.59D-07 BMatP= 7.59D-07
 IDIUse=3 WtCom= 9.99D-01 WtEn= 1.09D-03
 Coeff-Com:  0.100D+01
 Coeff-En:   0.100D+01
 Coeff:      0.100D+01
 Gap=     0.417 Goal=   None    Shift=    0.000
 RMSDP=8.37D-06 MaxDP=3.09D-04 DE=-1.47D-05 OVMax= 4.54D-04

 Cycle   7  Pass 1  IDiag  1:
 E= -132.512573705564     Delta-E=       -0.000000492979 Rises=F Damp=F
 DIIS: error= 5.40D-05 at cycle   2 NSaved=   2.
 NSaved= 2 IEnMin= 2 EnMin= -132.512573705564     IErMin= 2 ErrMin= 5.40D-05
 ErrMax= 5.40D-05  0.00D+00 EMaxC= 1.00D-01 BMatC= 3.41D-07 BMatP= 7.59D-07
 IDIUse=1 WtCom= 1.00D+00 WtEn= 0.00D+00
 Coeff-Com:  0.392D+00 0.608D+00
 Coeff:      0.392D+00 0.608D+00
 Gap=     0.416 Goal=   None    Shift=    0.000
 RMSDP=1.14D-06 MaxDP=4.10D-05 DE=-4.93D-07 OVMax= 2.16D-04

 Cycle   8  Pass 1  IDiag  1:
 E= -132.512574004666     Delta-E=       -0.000000299102 Rises=F Damp=F
 DIIS: error= 1.94D-05 at cycle   3 NSaved=   3.
 NSaved= 3 IEnMin= 3 EnMin= -132.512574004666     IErMin= 3 ErrMin= 1.94D-05
 ErrMax= 1.94D-05  0.00D+00 EMaxC= 1.00D-01 BMatC= 3.31D-08 BMatP= 3.41D-07
 IDIUse=1 WtCom= 1.00D+00 WtEn= 0.00D+00
 Coeff-Com:  0.123D+00 0.276D+00 0.601D+00
 Coeff:      0.123D+00 0.276D+00 0.601D+00
 Gap=     0.417 Goal=   None    Shift=    0.000
 RMSDP=5.91D-07 MaxDP=2.45D-05 DE=-2.99D-07 OVMax= 8.76D-05

 Cycle   9  Pass 1  IDiag  1:
 E= -132.512574028202     Delta-E=       -0.000000023536 Rises=F Damp=F
 DIIS: error= 1.44D-05 at cycle   4 NSaved=   4.
 NSaved= 4 IEnMin= 4 EnMin= -132.512574028202     IErMin= 4 ErrMin= 1.44D-05
 ErrMax= 1.44D-05  0.00D+00 EMaxC= 1.00D-01 BMatC= 9.22D-09 BMatP= 3.31D-08
 IDIUse=1 WtCom= 1.00D+00 WtEn= 0.00D+00
 Coeff-Com: -0.738D-01-0.521D-01 0.371D+00 0.754D+00
 Coeff:     -0.738D-01-0.521D-01 0.371D+00 0.754D+00
 Gap=     0.417 Goal=   None    Shift=    0.000
 RMSDP=3.51D-07 MaxDP=1.43D-05 DE=-2.35D-08 OVMax= 6.03D-05

 Cycle  10  Pass 1  IDiag  1:
 E= -132.512574039085     Delta-E=       -0.000000010883 Rises=F Damp=F
 DIIS: error= 1.53D-06 at cycle   5 NSaved=   5.
 NSaved= 5 IEnMin= 5 EnMin= -132.512574039085     IErMin= 5 ErrMin= 1.53D-06
 ErrMax= 1.53D-06  0.00D+00 EMaxC= 1.00D-01 BMatC= 2.24D-10 BMatP= 9.22D-09
 IDIUse=1 WtCom= 1.00D+00 WtEn= 0.00D+00
 Coeff-Com: -0.214D-01-0.257D-01 0.336D-01 0.153D+00 0.860D+00
 Coeff:     -0.214D-01-0.257D-01 0.336D-01 0.153D+00 0.860D+00
 Gap=     0.417 Goal=   None    Shift=    0.000
 RMSDP=6.13D-08 MaxDP=1.78D-06 DE=-1.09D-08 OVMax= 1.17D-05

 Cycle  11  Pass 1  IDiag  1:
 E= -132.512574039608     Delta-E=       -0.000000000523 Rises=F Damp=F
 DIIS: error= 7.48D-07 at cycle   6 NSaved=   6.
 NSaved= 6 IEnMin= 6 EnMin= -132.512574039608     IErMin= 6 ErrMin= 7.48D-07
 ErrMax= 7.48D-07  0.00D+00 EMaxC= 1.00D-01 BMatC= 3.44D-11 BMatP= 2.24D-10
 IDIUse=1 WtCom= 1.00D+00 WtEn= 0.00D+00
 Coeff-Com:  0.136D-01 0.868D-02-0.743D-01-0.131D+00 0.880D-01 0.109D+01
 Coeff:      0.136D-01 0.868D-02-0.743D-01-0.131D+00 0.880D-01 0.109D+01
 Gap=     0.417 Goal=   None    Shift=    0.000
 RMSDP=3.50D-08 MaxDP=1.15D-06 DE=-5.23D-10 OVMax= 8.40D-06

 Cycle  12  Pass 1  IDiag  1:
 E= -132.512574039749     Delta-E=       -0.000000000142 Rises=F Damp=F
 DIIS: error= 1.83D-07 at cycle   7 NSaved=   7.
 NSaved= 7 IEnMin= 7 EnMin= -132.512574039749     IErMin= 7 ErrMin= 1.83D-07
 ErrMax= 1.83D-07  0.00D+00 EMaxC= 1.00D-01 BMatC= 2.08D-12 BMatP= 3.44D-11
 IDIUse=1 WtCom= 1.00D+00 WtEn= 0.00D+00
 Coeff-Com:  0.267D-03 0.134D-02 0.848D-02 0.152D-03-0.947D-01-0.173D+00
 Coeff-Com:  0.126D+01
 Coeff:      0.267D-03 0.134D-02 0.848D-02 0.152D-03-0.947D-01-0.173D+00
 Coeff:      0.126D+01
 Gap=     0.417 Goal=   None    Shift=    0.000
 RMSDP=1.18D-08 MaxDP=4.07D-07 DE=-1.42D-10 OVMax= 2.92D-06

 Cycle  13  Pass 1  IDiag  1:
 E= -132.512574039761     Delta-E=       -0.000000000012 Rises=F Damp=F
 DIIS: error= 3.75D-08 at cycle   8 NSaved=   8.
 NSaved= 8 IEnMin= 8 EnMin= -132.512574039761     IErMin= 8 ErrMin= 3.75D-08
 ErrMax= 3.75D-08  0.00D+00 EMaxC= 1.00D-01 BMatC= 1.49D-13 BMatP= 2.08D-12
 IDIUse=1 WtCom= 1.00D+00 WtEn= 0.00D+00
 Coeff-Com: -0.730D-03-0.240D-03 0.644D-02 0.663D-02-0.229D-01-0.955D-01
 Coeff-Com:  0.264D+00 0.842D+00
 Coeff:     -0.730D-03-0.240D-03 0.644D-02 0.663D-02-0.229D-01-0.955D-01
 Coeff:      0.264D+00 0.842D+00
 Gap=     0.417 Goal=   None    Shift=    0.000
 RMSDP=1.38D-09 MaxDP=3.49D-08 DE=-1.17D-11 OVMax= 2.78D-07

 SCF Done:  E(RB2PLYPD3) =  -132.512574040     A.U. after   13 cycles
            NFock= 13  Conv=0.14D-08     -V/T= 2.0033
 KE= 1.320752781891D+02 PE=-4.253130435295D+02 EE= 1.023432743879D+02
 Leave Link  502 at Wed Aug 26 21:53:40 2020, MaxMem=  2097152000 cpu:       107.9
 (Enter /opt/cluster/programs/g09/g09_d.01/g09/l801.exe)
 DoSCS=T DFT=T ScalE2(SS,OS)=  0.270000  0.270000
 ExpMin= 7.60D-02 ExpMax= 9.07D+04 ExpMxC= 8.76D+02 IAcc=3 IRadAn=         5 AccDes= 0.00D+00
 HarFok:  IExCor=  205 AccDes= 0.00D+00 IRadAn=         5 IDoV=-2 UseB2=F ITyADJ=14
 ICtDFT= 12500011 ScaDFX=  1.000000  1.000000  1.000000  1.000000
 Largest valence mixing into a core orbital is  1.19D-04
 Largest core mixing into a valence orbital is  2.07D-05
 Range of M.O.s used for correlation:     4   261
 NBasis=   261 NAE=    11 NBE=    11 NFC=     3 NFV=     0
 NROrb=    258 NOA=     8 NOB=     8 NVA=   250 NVB=   250

 **** Warning!!: The largest alpha MO coefficient is  0.23855645D+02

 Leave Link  801 at Wed Aug 26 21:53:41 2020, MaxMem=  2097152000 cpu:         0.7
 (Enter /opt/cluster/programs/g09/g09_d.01/g09/l906.exe)
 DoSCS=T DFT=T ScalE2(SS,OS)=  0.270000  0.270000
 FulOut=F Deriv=F AODrv=F NAtomX=     6
   MMem=        2666  MDisk=           8 MDiskD=           8
  W3Min=      642000 MinDsk=     1426009 NBas6D=         321
 NBas2D=       52689    NTT=       51681    LW2=     4508827
    MDV=  2096809643 MDiskM=       14501 NBas2p=       52055
 Fully direct method using O(OVN) memory.
 IMap=   1   2   3   4   5   6   7   8
 JobTyp=1 Pass  1:  I=   1 to   8 NPSUse=  8 ParTrn=T ParDer=T DoDerP=F.
 Spin components of T(2) and E(2):
     alpha-alpha T2 =       0.3759119632D-01 E2=     -0.2189326634D-01
     alpha-beta  T2 =       0.2172943247D+00 E2=     -0.1395357393D+00
     beta-beta   T2 =       0.3759119632D-01 E2=     -0.2189326634D-01
 The integrals were generated   1 times.
 E2(B2PLYPD3) =    -0.1833222720D+00 E(B2PLYPD3) =    -0.13269589631177D+03
 Leave Link  906 at Wed Aug 26 21:53:55 2020, MaxMem=  2097152000 cpu:       118.3
 (Enter /opt/cluster/programs/g09/g09_d.01/g09/l601.exe)
 Copying SCF densities to generalized density rwf, IOpCl= 0 IROHF=0.

 **********************************************************************

            Population analysis using the SCF density.

 **********************************************************************

 Orbital symmetries:
       Occupied  (A) (A) (A) (A) (A) (A) (A) (A) (A) (A) (A)
       Virtual   (A) (A) (A) (A) (A) (A) (A) (A) (A) (A) (A) (A)
                 (A) (A) (A) (A) (A) (A) (A) (A) (A) (A) (A) (A)
                 (A) (A) (A) (A) (A) (A) (A) (A) (A) (A) (A) (A)
                 (A) (A) (A) (A) (A) (A) (A) (A) (A) (A) (A) (A)
                 (A) (A) (A) (A) (A) (A) (A) (A) (A) (A) (A) (A)
                 (A) (A) (A) (A) (A) (A) (A) (A) (A) (A) (A) (A)
                 (A) (A) (A) (A) (A) (A) (A) (A) (A) (A) (A) (A)
                 (A) (A) (A) (A) (A) (A) (A) (A) (A) (A) (A) (A)
                 (A) (A) (A) (A) (A) (A) (A) (A) (A) (A) (A) (A)
                 (A) (A) (A) (A) (A) (A) (A) (A) (A) (A) (A) (A)
                 (A) (A) (A) (A) (A) (A) (A) (A) (A) (A) (A) (A)
                 (A) (A) (A) (A) (A) (A) (A) (A) (A) (A) (A) (A)
                 (A) (A) (A) (A) (A) (A) (A) (A) (A) (A) (A) (A)
                 (A) (A) (A) (A) (A) (A) (A) (A) (A) (A) (A) (A)
                 (A) (A) (A) (A) (A) (A) (A) (A) (A) (A) (A) (A)
                 (A) (A) (A) (A) (A) (A) (A) (A) (A) (A) (A) (A)
                 (A) (A) (A) (A) (A) (A) (A) (A) (A) (A) (A) (A)
                 (A) (A) (A) (A) (A) (A) (A) (A) (A) (A) (A) (A)
                 (A) (A) (A) (A) (A) (A) (A) (A) (A) (A) (A) (A)
                 (A) (A) (A) (A) (A) (A) (A) (A) (A) (A) (A) (A)
                 (A) (A) (A) (A) (A) (A) (A) (A) (A) (A)
 The electronic state is 1-A.
 Alpha  occ. eigenvalues --  -14.85120 -10.67205 -10.66168  -1.02926  -0.90547
 Alpha  occ. eigenvalues --   -0.60101  -0.56371  -0.53215  -0.44912  -0.38492
 Alpha  occ. eigenvalues --   -0.38170
 Alpha virt. eigenvalues --    0.03482   0.06653   0.08684   0.09913   0.10953
 Alpha virt. eigenvalues --    0.11352   0.14996   0.15491   0.17457   0.20200
 Alpha virt. eigenvalues --    0.20433   0.25590   0.32438   0.34078   0.35362
 Alpha virt. eigenvalues --    0.38794   0.39672   0.39821   0.41834   0.46612
 Alpha virt. eigenvalues --    0.49205   0.54148   0.58153   0.60548   0.61312
 Alpha virt. eigenvalues --    0.65642   0.67985   0.70404   0.70511   0.79069
 Alpha virt. eigenvalues --    0.80045   0.82105   0.82734   0.83908   0.86602
 Alpha virt. eigenvalues --    0.89811   0.92456   0.95058   0.96609   0.99597
 Alpha virt. eigenvalues --    1.04893   1.07419   1.10337   1.11826   1.12258
 Alpha virt. eigenvalues --    1.15335   1.22072   1.22634   1.25216   1.34046
 Alpha virt. eigenvalues --    1.35955   1.43145   1.44617   1.50376   1.58483
 Alpha virt. eigenvalues --    1.63703   1.67347   1.71785   1.74075   1.77032
 Alpha virt. eigenvalues --    1.77722   1.79778   1.86438   1.87908   1.92051
 Alpha virt. eigenvalues --    1.94958   1.98209   1.99189   2.02327   2.03122
 Alpha virt. eigenvalues --    2.05788   2.09283   2.14839   2.18025   2.20369
 Alpha virt. eigenvalues --    2.23668   2.27031   2.31850   2.34813   2.36615
 Alpha virt. eigenvalues --    2.43580   2.49133   2.53933   2.56841   2.57539
 Alpha virt. eigenvalues --    2.62177   2.64441   2.66465   2.70181   2.71351
 Alpha virt. eigenvalues --    2.76967   2.78954   2.84821   2.87085   2.89992
 Alpha virt. eigenvalues --    2.93618   2.98500   3.01867   3.03686   3.09157
 Alpha virt. eigenvalues --    3.10881   3.13582   3.21257   3.27086   3.29615
 Alpha virt. eigenvalues --    3.34963   3.36201   3.41243   3.45527   3.50869
 Alpha virt. eigenvalues --    3.53383   3.63559   3.71340   3.75431   3.80696
 Alpha virt. eigenvalues --    3.88715   3.91548   3.96061   3.99719   4.03442
 Alpha virt. eigenvalues --    4.04980   4.05601   4.13861   4.23944   4.25851
 Alpha virt. eigenvalues --    4.52033   4.91620   4.91795   4.99136   5.03665
 Alpha virt. eigenvalues --    5.05834   5.07117   5.15090   5.27129   5.33707
 Alpha virt. eigenvalues --    5.39394   5.42617   5.51770   5.52551   5.61848
 Alpha virt. eigenvalues --    5.72515   5.80699   5.82261   5.85285   5.91222
 Alpha virt. eigenvalues --    5.94278   5.99732   6.01061   6.02123   6.02870
 Alpha virt. eigenvalues --    6.03496   6.07268   6.09858   6.10377   6.18175
 Alpha virt. eigenvalues --    6.20505   6.23567   6.25105   6.33549   6.36255
 Alpha virt. eigenvalues --    6.38036   6.41579   6.51753   6.56918   6.65673
 Alpha virt. eigenvalues --    6.66283   6.72967   6.79123   6.87484   6.90295
 Alpha virt. eigenvalues --    6.99938   7.01953   7.02095   7.04905   7.12841
 Alpha virt. eigenvalues --    7.20512   7.21233   7.34518   7.43044   7.44918
 Alpha virt. eigenvalues --    7.46544   7.51931   7.57883   7.61118   7.66431
 Alpha virt. eigenvalues --    7.71014   7.75542   7.78533   7.80468   7.87964
 Alpha virt. eigenvalues --    7.94836   7.99411   8.05859   8.07391   8.21052
 Alpha virt. eigenvalues --    8.29351   8.36054   8.40313   8.41368   8.47136
 Alpha virt. eigenvalues --    8.47837   8.49137   8.54577   8.55852   8.62042
 Alpha virt. eigenvalues --    8.65139   8.66194   8.66447   8.68168   8.69650
 Alpha virt. eigenvalues --    8.73217   8.83193   8.93732   8.98981   9.02573
 Alpha virt. eigenvalues --    9.11102   9.12309   9.16234   9.21031   9.33651
 Alpha virt. eigenvalues --    9.36089   9.55746   9.58352   9.70318   9.84936
 Alpha virt. eigenvalues --    9.90396   9.95349   9.98791  10.05612  10.08164
 Alpha virt. eigenvalues --   10.17683  10.26887  10.31257  10.51979  10.78119
 Alpha virt. eigenvalues --   10.85547  11.04133  11.16522  11.35045  11.76655
 Alpha virt. eigenvalues --   11.82214  12.09717  13.07287  13.41645  29.16643
 Alpha virt. eigenvalues --   29.56348  38.21501 148.82840 149.20375 198.11563
          Condensed to atoms (all electrons):
               1          2          3          4          5          6
     1  C    4.610843   0.292906  -0.060528   0.412837   0.412250   0.421408
     2  C    0.292906   4.874397   0.956320  -0.049666  -0.045208  -0.035309
     3  N   -0.060528   0.956320   6.327917   0.000318  -0.001714  -0.001373
     4  H    0.412837  -0.049666   0.000318   0.590006  -0.034458  -0.029717
     5  H    0.412250  -0.045208  -0.001714  -0.034458   0.608183  -0.030167
     6  H    0.421408  -0.035309  -0.001373  -0.029717  -0.030167   0.572854
 Mulliken charges:
               1
     1  C   -0.089717
     2  C    0.006559
     3  N   -0.220940
     4  H    0.110680
     5  H    0.091113
     6  H    0.102305
 Sum of Mulliken charges =   0.00000
 Mulliken charges with hydrogens summed into heavy atoms:
               1
     1  C    0.214381
     2  C    0.006559
     3  N   -0.220940
 Electronic spatial extent (au):  <R**2>=            162.4536
 Charge=              0.0000 electrons
 Dipole moment (field-independent basis, Debye):
    X=             -4.1733    Y=             -0.0693    Z=              0.0551  Tot=              4.1742
 Quadrupole moment (field-independent basis, Debye-Ang):
   XX=            -20.9049   YY=            -17.6818   ZZ=            -17.9599
   XY=             -0.1385   XZ=              0.2027   YZ=             -0.0843
 Traceless Quadrupole moment (field-independent basis, Debye-Ang):
   XX=             -2.0560   YY=              1.1671   ZZ=              0.8889
   XY=             -0.1385   XZ=              0.2027   YZ=             -0.0843
 Octapole moment (field-independent basis, Debye-Ang**2):
  XXX=            -13.4537  YYY=              0.4856  ZZZ=              0.4516  XYY=             -2.7463
  XXY=              0.4744  XXZ=             -0.3574  XZZ=             -2.0946  YZZ=             -0.5985
  YYZ=             -0.4365  XYZ=              0.1078
 Hexadecapole moment (field-independent basis, Debye-Ang**3):
 XXXX=           -182.3470 YYYY=            -25.0631 ZZZZ=            -24.0345 XXXY=             -1.3043
 XXXZ=              0.8591 YYYX=             -0.8677 YYYZ=             -0.1892 ZZZX=             -0.8202
 ZZZY=             -0.1291 XXYY=            -30.6869 XXZZ=            -32.0177 YYZZ=             -8.0363
 XXYZ=             -0.2686 YYXZ=              0.7171 ZZXY=              0.9804
 N-N= 5.838191691275D+01 E-N=-4.253130427474D+02  KE= 1.320752781891D+02
 Leave Link  601 at Wed Aug 26 21:53:56 2020, MaxMem=  2097152000 cpu:         0.4
 (Enter /opt/cluster/programs/g09/g09_d.01/g09/l9999.exe)
 1\1\GINC-NODE10\SP\RB2PLYPD3-FC\def2QZVP\C2H3N1\BOITTIER\26-Aug-2020\0
 \\#p B2PLYPD3/Def2QZVP\\cyanomethane\\0,1\C,0,-6.614064,-1.091451,1.15
 8902\C,0,-5.198629,-0.81515,0.961828\N,0,-4.084047,-0.52905,0.671093\H
 ,0,-6.655918,-1.276664,2.100286\H,0,-6.835623,-2.055956,0.661171\H,0,-
 7.340412,-0.340112,0.805918\\Version=ES64L-G09RevD.01\State=1-A\HF=-13
 2.512574\MP2=-132.6958963\RMSD=1.379e-09\PG=C01 [X(C2H3N1)]\\@


 "I COULD HAVE DONE IT IN A MUCH MORE COMPLICATED WAY"
 SAID THE RED QUEEN, IMMENSELY PROUD.

                                      -- LEWIS CARROLL
 Job cpu time:       0 days  0 hours  3 minutes 56.0 seconds.
 File lengths (MBytes):  RWF=     28 Int=      0 D2E=      0 Chk=      5 Scr=      1
 Normal termination of Gaussian 09 at Wed Aug 26 21:53:57 2020.
