 Entering Gaussian System, Link 0=/opt/cluster/programs/g09/g09_d.01/g09//g09
 Input=/home/boittier/MDCM/nms_sampling/cyanomethane_geom.xyz.dir/energies/cyanomethane_810_energy.com
 Output=/scratch/boittier/cyanomethane_810_energy/cyanomethane_810_energy.out
 Initial command:
 /opt/cluster/programs/g09/g09_d.01/g09/l1.exe "/scratch/boittier/cyanomethane_810_energy/Gau-143318.inp" -scrdir="/scratch/boittier/cyanomethane_810_energy/"
 Entering Link 1 = /opt/cluster/programs/g09/g09_d.01/g09/l1.exe PID=    143319.
  
 Copyright (c) 1988,1990,1992,1993,1995,1998,2003,2009,2013,
            Gaussian, Inc.  All Rights Reserved.
  
 This is part of the Gaussian(R) 09 program.  It is based on
 the Gaussian(R) 03 system (copyright 2003, Gaussian, Inc.),
 the Gaussian(R) 98 system (copyright 1998, Gaussian, Inc.),
 the Gaussian(R) 94 system (copyright 1995, Gaussian, Inc.),
 the Gaussian 92(TM) system (copyright 1992, Gaussian, Inc.),
 the Gaussian 90(TM) system (copyright 1990, Gaussian, Inc.),
 the Gaussian 88(TM) system (copyright 1988, Gaussian, Inc.),
 the Gaussian 86(TM) system (copyright 1986, Carnegie Mellon
 University), and the Gaussian 82(TM) system (copyright 1983,
 Carnegie Mellon University). Gaussian is a federally registered
 trademark of Gaussian, Inc.
  
 This software contains proprietary and confidential information,
 including trade secrets, belonging to Gaussian, Inc.
  
 This software is provided under written license and may be
 used, copied, transmitted, or stored only in accord with that
 written license.
  
 The following legend is applicable only to US Government
 contracts under FAR:
  
                    RESTRICTED RIGHTS LEGEND
  
 Use, reproduction and disclosure by the US Government is
 subject to restrictions as set forth in subparagraphs (a)
 and (c) of the Commercial Computer Software - Restricted
 Rights clause in FAR 52.227-19.
  
 Gaussian, Inc.
 340 Quinnipiac St., Bldg. 40, Wallingford CT 06492
  
  
 ---------------------------------------------------------------
 Warning -- This program may not be used in any manner that
 competes with the business of Gaussian, Inc. or will provide
 assistance to any competitor of Gaussian, Inc.  The licensee
 of this program is prohibited from giving any competitor of
 Gaussian, Inc. access to this program.  By using this program,
 the user acknowledges that Gaussian, Inc. is engaged in the
 business of creating and licensing software in the field of
 computational chemistry and represents and warrants to the
 licensee that it is not a competitor of Gaussian, Inc. and that
 it will not use this program in any manner prohibited above.
 ---------------------------------------------------------------
  

 Cite this work as:
 Gaussian 09, Revision D.01,
 M. J. Frisch, G. W. Trucks, H. B. Schlegel, G. E. Scuseria, 
 M. A. Robb, J. R. Cheeseman, G. Scalmani, V. Barone, B. Mennucci, 
 G. A. Petersson, H. Nakatsuji, M. Caricato, X. Li, H. P. Hratchian, 
 A. F. Izmaylov, J. Bloino, G. Zheng, J. L. Sonnenberg, M. Hada, 
 M. Ehara, K. Toyota, R. Fukuda, J. Hasegawa, M. Ishida, T. Nakajima, 
 Y. Honda, O. Kitao, H. Nakai, T. Vreven, J. A. Montgomery, Jr., 
 J. E. Peralta, F. Ogliaro, M. Bearpark, J. J. Heyd, E. Brothers, 
 K. N. Kudin, V. N. Staroverov, T. Keith, R. Kobayashi, J. Normand, 
 K. Raghavachari, A. Rendell, J. C. Burant, S. S. Iyengar, J. Tomasi, 
 M. Cossi, N. Rega, J. M. Millam, M. Klene, J. E. Knox, J. B. Cross, 
 V. Bakken, C. Adamo, J. Jaramillo, R. Gomperts, R. E. Stratmann, 
 O. Yazyev, A. J. Austin, R. Cammi, C. Pomelli, J. W. Ochterski, 
 R. L. Martin, K. Morokuma, V. G. Zakrzewski, G. A. Voth, 
 P. Salvador, J. J. Dannenberg, S. Dapprich, A. D. Daniels, 
 O. Farkas, J. B. Foresman, J. V. Ortiz, J. Cioslowski, 
 and D. J. Fox, Gaussian, Inc., Wallingford CT, 2013.
 
 ******************************************
 Gaussian 09:  ES64L-G09RevD.01 24-Apr-2013
                27-Aug-2020 
 ******************************************
 %chk=/home/boittier/MDCM/nms_sampling/cyanomethane_geom.xyz.dir/cyanomethane_810
 .chk
 %nproc=8
 Will use up to    8 processors via shared memory.
 %mem=16000MB
 --------------------
 #p B2PLYPD3/Def2QZVP
 --------------------
 1/38=1/1;
 2/12=2,17=6,18=5,40=1/2;
 3/5=45,7=101,11=9,16=1,25=1,30=1,74=-60/1,2,3;
 4//1;
 5/5=2,38=5/2;
 8/10=1/1;
 9/16=-3/6;
 6/7=2,8=2,9=2,10=2/1;
 99/5=1,9=1/99;
 Leave Link    1 at Thu Aug 27 00:08:58 2020, MaxMem=  2097152000 cpu:         0.3
 (Enter /opt/cluster/programs/g09/g09_d.01/g09/l101.exe)
 ------------
 cyanomethane
 ------------
 Symbolic Z-matrix:
 Charge =  0 Multiplicity = 1
 C                    -6.60662  -1.11595   1.16021 
 C                    -5.19807  -0.78801   0.92374 
 N                    -4.09025  -0.5405    0.69475 
 H                    -6.76566  -1.21069   2.20795 
 H                    -6.81268  -2.04836   0.68376 
 H                    -7.26391  -0.30745   0.78758 
 
 NAtoms=      6 NQM=        6 NQMF=       0 NMMI=      0 NMMIF=      0
                NMic=       0 NMicF=      0.
                    Isotopes and Nuclear Properties:
 (Nuclear quadrupole moments (NQMom) in fm**2, nuclear magnetic moments (NMagM)
  in nuclear magnetons)

  Atom         1           2           3           4           5           6
 IAtWgt=          12          12          14           1           1           1
 AtmWgt=  12.0000000  12.0000000  14.0030740   1.0078250   1.0078250   1.0078250
 NucSpn=           0           0           2           1           1           1
 AtZEff=   0.0000000   0.0000000   0.0000000   0.0000000   0.0000000   0.0000000
 NQMom=    0.0000000   0.0000000   2.0440000   0.0000000   0.0000000   0.0000000
 NMagM=    0.0000000   0.0000000   0.4037610   2.7928460   2.7928460   2.7928460
 AtZNuc=   6.0000000   6.0000000   7.0000000   1.0000000   1.0000000   1.0000000
 Leave Link  101 at Thu Aug 27 00:08:59 2020, MaxMem=  2097152000 cpu:         0.5
 (Enter /opt/cluster/programs/g09/g09_d.01/g09/l202.exe)
                          Input orientation:                          
 ---------------------------------------------------------------------
 Center     Atomic      Atomic             Coordinates (Angstroms)
 Number     Number       Type             X           Y           Z
 ---------------------------------------------------------------------
      1          6           0       -6.606621   -1.115948    1.160215
      2          6           0       -5.198073   -0.788014    0.923738
      3          7           0       -4.090254   -0.540495    0.694748
      4          1           0       -6.765664   -1.210687    2.207954
      5          1           0       -6.812679   -2.048358    0.683757
      6          1           0       -7.263907   -0.307447    0.787583
 ---------------------------------------------------------------------
                    Distance matrix (angstroms):
                    1          2          3          4          5
     1  C    0.000000
     2  C    1.465425   0.000000
     3  N    2.622958   1.158000   0.000000
     4  H    1.063968   2.070074   3.145913   0.000000
     5  H    1.067174   2.062283   3.112133   1.739850   0.000000
     6  H    1.106595   2.125359   3.183552   1.755432   1.801432
                    6
     6  H    0.000000
 Stoichiometry    C2H3N
 Framework group  C1[X(C2H3N)]
 Deg. of freedom    12
 Full point group                 C1      NOp   1
 Largest Abelian subgroup         C1      NOp   1
 Largest concise Abelian subgroup C1      NOp   1
                         Standard orientation:                         
 ---------------------------------------------------------------------
 Center     Atomic      Atomic             Coordinates (Angstroms)
 Number     Number       Type             X           Y           Z
 ---------------------------------------------------------------------
      1          6           0       -1.185810   -0.004878   -0.006713
      2          6           0        0.279401    0.003073    0.017039
      3          7           0        1.437139    0.002026   -0.007586
      4          1           0       -1.544451   -0.128181    0.987370
      5          1           0       -1.501529   -0.831350   -0.603476
      6          1           0       -1.575540    0.956183   -0.392750
 ---------------------------------------------------------------------
 Rotational constants (GHZ):    160.7037241      9.2043663      9.1834439
 Leave Link  202 at Thu Aug 27 00:08:59 2020, MaxMem=  2097152000 cpu:         0.0
 (Enter /opt/cluster/programs/g09/g09_d.01/g09/l301.exe)
 Standard basis: def2QZVP (5D, 7F)
 Ernie: Thresh=  0.10000D-02 Tol=  0.10000D-05 Strict=F.
 There are   321 symmetry adapted cartesian basis functions of A   symmetry.
 There are   261 symmetry adapted basis functions of A   symmetry.
   261 basis functions,   390 primitive gaussians,   321 cartesian basis functions
    11 alpha electrons       11 beta electrons
       nuclear repulsion energy        58.4927963881 Hartrees.
 IExCor=  419 DFT=T Ex+Corr=B2PLYPD3 ExCW=0 ScaHFX=  0.530000
 ScaDFX=  0.470000  0.470000  0.730000  0.730000 ScalE2=  0.270000  0.270000
 IRadAn=      0 IRanWt=     -1 IRanGd=            0 ICorTp=0 IEmpDi=141
 NAtoms=    6 NActive=    6 NUniq=    6 SFac= 1.00D+00 NAtFMM=   60 NAOKFM=F Big=F
 Integral buffers will be    131072 words long.
 Regular integral format.
 Two-electron integral symmetry is turned on.
 R6Disp:  Grimme-D3(BJ) Dispersion energy=       -0.0021039078 Hartrees.
 Nuclear repulsion after empirical dispersion term =       58.4906924803 Hartrees.
 Leave Link  301 at Thu Aug 27 00:09:01 2020, MaxMem=  2097152000 cpu:         0.4
 (Enter /opt/cluster/programs/g09/g09_d.01/g09/l302.exe)
 NPDir=0 NMtPBC=     1 NCelOv=     1 NCel=       1 NClECP=     1 NCelD=      1
         NCelK=      1 NCelE2=     1 NClLst=     1 CellRange=     0.0.
 One-electron integrals computed using PRISM.
   1 Symmetry operations used in ECPInt.
 ECPInt:  NShTT=    3321 NPrTT=    8136 LenC2=    3294 LenP2D=    7127.
 LDataN:  DoStor=T MaxTD1= 8 Len=  415
 NBasis=   261 RedAO= T EigKep=  8.28D-05  NBF=   261
 NBsUse=   261 1.00D-06 EigRej= -1.00D+00 NBFU=   261
 Precomputing XC quadrature grid using
 IXCGrd= 4 IRadAn=           0 IRanWt=          -1 IRanGd=           0 AccXCQ= 0.00D+00.
 Generated NRdTot=       0 NPtTot=           0 NUsed=           0 NTot=          32
 NSgBfM=   321   321   321   321   321 MxSgAt=     6 MxSgA2=     6.
 Leave Link  302 at Thu Aug 27 00:09:01 2020, MaxMem=  2097152000 cpu:         2.4
 (Enter /opt/cluster/programs/g09/g09_d.01/g09/l303.exe)
 DipDrv:  MaxL=1.
 Leave Link  303 at Thu Aug 27 00:09:07 2020, MaxMem=  2097152000 cpu:         0.2
 (Enter /opt/cluster/programs/g09/g09_d.01/g09/l401.exe)
 ExpMin= 7.60D-02 ExpMax= 9.07D+04 ExpMxC= 8.76D+02 IAcc=2 IRadAn=         4 AccDes= 0.00D+00
 Harris functional with IExCor=  419 and IRadAn=       4 diagonalized for initial guess.
 HarFok:  IExCor=  419 AccDes= 0.00D+00 IRadAn=         4 IDoV= 1 UseB2=F ITyADJ=14
 ICtDFT=  3500011 ScaDFX=  1.000000  1.000000  1.000000  1.000000
 FoFCou: FMM=F IPFlag=           0 FMFlag=      100000 FMFlg1=           0
         NFxFlg=           0 DoJE=T BraDBF=F KetDBF=T FulRan=T
         wScrn=  0.000000 ICntrl=     500 IOpCl=  0 I1Cent=   200000004 NGrid=           0
         NMat0=    1 NMatS0=      1 NMatT0=    0 NMatD0=    1 NMtDS0=    0 NMtDT0=    0
 Petite list used in FoFCou.
 Harris En= -132.852462365907    
 JPrj=0 DoOrth=F DoCkMO=F.
 Leave Link  401 at Thu Aug 27 00:09:08 2020, MaxMem=  2097152000 cpu:         4.2
 (Enter /opt/cluster/programs/g09/g09_d.01/g09/l502.exe)
 Closed shell SCF:
 Using DIIS extrapolation, IDIIS=  1040.
 Integral symmetry usage will be decided dynamically.
 Keep R1 ints in memory in canonical form, NReq=601554820.
 IVT=      332521 IEndB=      332521 NGot=  2097152000 MDV=  1512290144
 LenX=  1512290144 LenY=  1512186662
 Requested convergence on RMS density matrix=1.00D-08 within 128 cycles.
 Requested convergence on MAX density matrix=1.00D-06.
 Requested convergence on             energy=1.00D-06.
 No special actions if energy rises.
 FoFCou: FMM=F IPFlag=           0 FMFlag=           0 FMFlg1=           0
         NFxFlg=           0 DoJE=F BraDBF=F KetDBF=F FulRan=T
         wScrn=  0.000000 ICntrl=     600 IOpCl=  0 I1Cent=           0 NGrid=           0
         NMat0=    1 NMatS0=  34191 NMatT0=    0 NMatD0=    1 NMtDS0=    0 NMtDT0=    0
 Symmetry not used in FoFCou.
 Integral accuracy reduced to 1.0D-05 until final iterations.

 Cycle   1  Pass 0  IDiag  1:
 E= -132.420494091461    
 DIIS: error= 2.97D-02 at cycle   1 NSaved=   1.
 NSaved= 1 IEnMin= 1 EnMin= -132.420494091461     IErMin= 1 ErrMin= 2.97D-02
 ErrMax= 2.97D-02  0.00D+00 EMaxC= 1.00D-01 BMatC= 1.90D-01 BMatP= 1.90D-01
 IDIUse=3 WtCom= 7.03D-01 WtEn= 2.97D-01
 Coeff-Com:  0.100D+01
 Coeff-En:   0.100D+01
 Coeff:      0.100D+01
 Gap=     0.459 Goal=   None    Shift=    0.000
 GapD=    0.459 DampG=2.000 DampE=0.500 DampFc=1.0000 IDamp=-1.
 RMSDP=1.28D-03 MaxDP=6.68D-02              OVMax= 1.63D-01

 Cycle   2  Pass 0  IDiag  1:
 E= -132.453027300104     Delta-E=       -0.032533208643 Rises=F Damp=F
 DIIS: error= 3.54D-02 at cycle   2 NSaved=   2.
 NSaved= 2 IEnMin= 2 EnMin= -132.453027300104     IErMin= 1 ErrMin= 2.97D-02
 ErrMax= 3.54D-02  0.00D+00 EMaxC= 1.00D-01 BMatC= 9.63D-02 BMatP= 1.90D-01
 IDIUse=3 WtCom= 6.46D-01 WtEn= 3.54D-01
 Coeff-Com:  0.399D+00 0.601D+00
 Coeff-En:   0.399D+00 0.601D+00
 Coeff:      0.399D+00 0.601D+00
 Gap=     0.435 Goal=   None    Shift=    0.000
 RMSDP=8.40D-04 MaxDP=3.29D-02 DE=-3.25D-02 OVMax= 1.23D-01

 Cycle   3  Pass 0  IDiag  1:
 E= -132.517633750454     Delta-E=       -0.064606450350 Rises=F Damp=F
 DIIS: error= 1.29D-02 at cycle   3 NSaved=   3.
 NSaved= 3 IEnMin= 3 EnMin= -132.517633750454     IErMin= 3 ErrMin= 1.29D-02
 ErrMax= 1.29D-02  0.00D+00 EMaxC= 1.00D-01 BMatC= 2.05D-02 BMatP= 9.63D-02
 IDIUse=3 WtCom= 8.71D-01 WtEn= 1.29D-01
 Coeff-Com:  0.970D-01 0.326D+00 0.577D+00
 Coeff-En:   0.000D+00 0.133D+00 0.867D+00
 Coeff:      0.845D-01 0.302D+00 0.614D+00
 Gap=     0.428 Goal=   None    Shift=    0.000
 RMSDP=2.68D-04 MaxDP=9.71D-03 DE=-6.46D-02 OVMax= 5.92D-02

 Cycle   4  Pass 0  IDiag  1:
 E= -132.532020957049     Delta-E=       -0.014387206595 Rises=F Damp=F
 DIIS: error= 4.39D-03 at cycle   4 NSaved=   4.
 NSaved= 4 IEnMin= 4 EnMin= -132.532020957049     IErMin= 4 ErrMin= 4.39D-03
 ErrMax= 4.39D-03  0.00D+00 EMaxC= 1.00D-01 BMatC= 2.79D-03 BMatP= 2.05D-02
 IDIUse=3 WtCom= 9.56D-01 WtEn= 4.39D-02
 Coeff-Com: -0.124D-01 0.542D-01 0.318D+00 0.640D+00
 Coeff-En:   0.000D+00 0.000D+00 0.123D+00 0.877D+00
 Coeff:     -0.118D-01 0.518D-01 0.310D+00 0.650D+00
 Gap=     0.428 Goal=   None    Shift=    0.000
 RMSDP=8.76D-05 MaxDP=2.70D-03 DE=-1.44D-02 OVMax= 1.50D-02

 Cycle   5  Pass 0  IDiag  1:
 E= -132.534445853010     Delta-E=       -0.002424895961 Rises=F Damp=F
 DIIS: error= 3.37D-04 at cycle   5 NSaved=   5.
 NSaved= 5 IEnMin= 5 EnMin= -132.534445853010     IErMin= 5 ErrMin= 3.37D-04
 ErrMax= 3.37D-04  0.00D+00 EMaxC= 1.00D-01 BMatC= 1.23D-05 BMatP= 2.79D-03
 IDIUse=3 WtCom= 9.97D-01 WtEn= 3.37D-03
 Coeff-Com: -0.355D-02 0.598D-02 0.485D-01 0.143D+00 0.806D+00
 Coeff-En:   0.000D+00 0.000D+00 0.000D+00 0.000D+00 0.100D+01
 Coeff:     -0.354D-02 0.596D-02 0.483D-01 0.143D+00 0.806D+00
 Gap=     0.427 Goal=   None    Shift=    0.000
 RMSDP=8.10D-06 MaxDP=2.99D-04 DE=-2.42D-03 OVMax= 1.17D-03

 Initial convergence to 1.0D-05 achieved.  Increase integral accuracy.
 Cycle   6  Pass 1  IDiag  1:
 E= -132.534460058259     Delta-E=       -0.000014205248 Rises=F Damp=F
 DIIS: error= 9.98D-05 at cycle   1 NSaved=   1.
 NSaved= 1 IEnMin= 1 EnMin= -132.534460058259     IErMin= 1 ErrMin= 9.98D-05
 ErrMax= 9.98D-05  0.00D+00 EMaxC= 1.00D-01 BMatC= 6.59D-07 BMatP= 6.59D-07
 IDIUse=1 WtCom= 1.00D+00 WtEn= 0.00D+00
 Coeff-Com:  0.100D+01
 Coeff:      0.100D+01
 Gap=     0.428 Goal=   None    Shift=    0.000
 RMSDP=8.10D-06 MaxDP=2.99D-04 DE=-1.42D-05 OVMax= 4.21D-04

 Cycle   7  Pass 1  IDiag  1:
 E= -132.534460453334     Delta-E=       -0.000000395075 Rises=F Damp=F
 DIIS: error= 5.13D-05 at cycle   2 NSaved=   2.
 NSaved= 2 IEnMin= 2 EnMin= -132.534460453334     IErMin= 2 ErrMin= 5.13D-05
 ErrMax= 5.13D-05  0.00D+00 EMaxC= 1.00D-01 BMatC= 2.98D-07 BMatP= 6.59D-07
 IDIUse=1 WtCom= 1.00D+00 WtEn= 0.00D+00
 Coeff-Com:  0.394D+00 0.606D+00
 Coeff:      0.394D+00 0.606D+00
 Gap=     0.427 Goal=   None    Shift=    0.000
 RMSDP=1.02D-06 MaxDP=4.03D-05 DE=-3.95D-07 OVMax= 1.73D-04

 Cycle   8  Pass 1  IDiag  1:
 E= -132.534460713892     Delta-E=       -0.000000260558 Rises=F Damp=F
 DIIS: error= 1.63D-05 at cycle   3 NSaved=   3.
 NSaved= 3 IEnMin= 3 EnMin= -132.534460713892     IErMin= 3 ErrMin= 1.63D-05
 ErrMax= 1.63D-05  0.00D+00 EMaxC= 1.00D-01 BMatC= 2.03D-08 BMatP= 2.98D-07
 IDIUse=1 WtCom= 1.00D+00 WtEn= 0.00D+00
 Coeff-Com:  0.104D+00 0.239D+00 0.657D+00
 Coeff:      0.104D+00 0.239D+00 0.657D+00
 Gap=     0.427 Goal=   None    Shift=    0.000
 RMSDP=5.69D-07 MaxDP=2.54D-05 DE=-2.61D-07 OVMax= 5.80D-05

 Cycle   9  Pass 1  IDiag  1:
 E= -132.534460725680     Delta-E=       -0.000000011788 Rises=F Damp=F
 DIIS: error= 9.28D-06 at cycle   4 NSaved=   4.
 NSaved= 4 IEnMin= 4 EnMin= -132.534460725680     IErMin= 4 ErrMin= 9.28D-06
 ErrMax= 9.28D-06  0.00D+00 EMaxC= 1.00D-01 BMatC= 7.41D-09 BMatP= 2.03D-08
 IDIUse=1 WtCom= 1.00D+00 WtEn= 0.00D+00
 Coeff-Com: -0.598D-01-0.359D-01 0.412D+00 0.684D+00
 Coeff:     -0.598D-01-0.359D-01 0.412D+00 0.684D+00
 Gap=     0.427 Goal=   None    Shift=    0.000
 RMSDP=2.80D-07 MaxDP=1.32D-05 DE=-1.18D-08 OVMax= 3.48D-05

 Cycle  10  Pass 1  IDiag  1:
 E= -132.534460732660     Delta-E=       -0.000000006981 Rises=F Damp=F
 DIIS: error= 1.12D-06 at cycle   5 NSaved=   5.
 NSaved= 5 IEnMin= 5 EnMin= -132.534460732660     IErMin= 5 ErrMin= 1.12D-06
 ErrMax= 1.12D-06  0.00D+00 EMaxC= 1.00D-01 BMatC= 1.04D-10 BMatP= 7.41D-09
 IDIUse=1 WtCom= 1.00D+00 WtEn= 0.00D+00
 Coeff-Com: -0.218D-01-0.204D-01 0.853D-01 0.203D+00 0.753D+00
 Coeff:     -0.218D-01-0.204D-01 0.853D-01 0.203D+00 0.753D+00
 Gap=     0.427 Goal=   None    Shift=    0.000
 RMSDP=4.40D-08 MaxDP=2.13D-06 DE=-6.98D-09 OVMax= 3.48D-06

 Cycle  11  Pass 1  IDiag  1:
 E= -132.534460732754     Delta-E=       -0.000000000094 Rises=F Damp=F
 DIIS: error= 2.48D-07 at cycle   6 NSaved=   6.
 NSaved= 6 IEnMin= 6 EnMin= -132.534460732754     IErMin= 6 ErrMin= 2.48D-07
 ErrMax= 2.48D-07  0.00D+00 EMaxC= 1.00D-01 BMatC= 5.55D-12 BMatP= 1.04D-10
 IDIUse=1 WtCom= 1.00D+00 WtEn= 0.00D+00
 Coeff-Com:  0.275D-02 0.613D-03-0.311D-01-0.269D-01 0.117D+00 0.938D+00
 Coeff:      0.275D-02 0.613D-03-0.311D-01-0.269D-01 0.117D+00 0.938D+00
 Gap=     0.427 Goal=   None    Shift=    0.000
 RMSDP=1.01D-08 MaxDP=4.10D-07 DE=-9.39D-11 OVMax= 1.16D-06

 Cycle  12  Pass 1  IDiag  1:
 E= -132.534460732764     Delta-E=       -0.000000000010 Rises=F Damp=F
 DIIS: error= 7.46D-08 at cycle   7 NSaved=   7.
 NSaved= 7 IEnMin= 7 EnMin= -132.534460732764     IErMin= 7 ErrMin= 7.46D-08
 ErrMax= 7.46D-08  0.00D+00 EMaxC= 1.00D-01 BMatC= 1.92D-13 BMatP= 5.55D-12
 IDIUse=1 WtCom= 1.00D+00 WtEn= 0.00D+00
 Coeff-Com:  0.264D-03 0.618D-03 0.251D-02 0.144D-03-0.468D-01-0.179D+00
 Coeff-Com:  0.122D+01
 Coeff:      0.264D-03 0.618D-03 0.251D-02 0.144D-03-0.468D-01-0.179D+00
 Coeff:      0.122D+01
 Gap=     0.427 Goal=   None    Shift=    0.000
 RMSDP=2.62D-09 MaxDP=8.98D-08 DE=-9.55D-12 OVMax= 5.44D-07

 SCF Done:  E(RB2PLYPD3) =  -132.534460733     A.U. after   12 cycles
            NFock= 12  Conv=0.26D-08     -V/T= 2.0035
 KE= 1.320658202795D+02 PE=-4.255989915851D+02 EE= 1.025080180925D+02
 Leave Link  502 at Thu Aug 27 00:09:40 2020, MaxMem=  2097152000 cpu:       155.7
 (Enter /opt/cluster/programs/g09/g09_d.01/g09/l801.exe)
 DoSCS=T DFT=T ScalE2(SS,OS)=  0.270000  0.270000
 ExpMin= 7.60D-02 ExpMax= 9.07D+04 ExpMxC= 8.76D+02 IAcc=3 IRadAn=         5 AccDes= 0.00D+00
 HarFok:  IExCor=  205 AccDes= 0.00D+00 IRadAn=         5 IDoV=-2 UseB2=F ITyADJ=14
 ICtDFT= 12500011 ScaDFX=  1.000000  1.000000  1.000000  1.000000
 Largest valence mixing into a core orbital is  1.16D-04
 Largest core mixing into a valence orbital is  1.95D-05
 Range of M.O.s used for correlation:     4   261
 NBasis=   261 NAE=    11 NBE=    11 NFC=     3 NFV=     0
 NROrb=    258 NOA=     8 NOB=     8 NVA=   250 NVB=   250

 **** Warning!!: The largest alpha MO coefficient is  0.31180559D+02

 Leave Link  801 at Thu Aug 27 00:09:42 2020, MaxMem=  2097152000 cpu:         0.7
 (Enter /opt/cluster/programs/g09/g09_d.01/g09/l906.exe)
 DoSCS=T DFT=T ScalE2(SS,OS)=  0.270000  0.270000
 FulOut=F Deriv=F AODrv=F NAtomX=     6
   MMem=        2666  MDisk=           8 MDiskD=           8
  W3Min=      642000 MinDsk=     1426009 NBas6D=         321
 NBas2D=       52689    NTT=       51681    LW2=     4508827
    MDV=  2096809371 MDiskM=       14501 NBas2p=       52155
 Fully direct method using O(OVN) memory.
 IMap=   1   2   3   4   5   6   7   8
 JobTyp=1 Pass  1:  I=   1 to   8 NPSUse=  8 ParTrn=T ParDer=T DoDerP=F.
 Spin components of T(2) and E(2):
     alpha-alpha T2 =       0.3583589553D-01 E2=     -0.2144802270D-01
     alpha-beta  T2 =       0.2090345212D+00 E2=     -0.1377324131D+00
     beta-beta   T2 =       0.3583589553D-01 E2=     -0.2144802270D-01
 The integrals were generated   1 times.
 E2(B2PLYPD3) =    -0.1806284585D+00 E(B2PLYPD3) =    -0.13271508919128D+03
 Leave Link  906 at Thu Aug 27 00:09:57 2020, MaxMem=  2097152000 cpu:       110.3
 (Enter /opt/cluster/programs/g09/g09_d.01/g09/l601.exe)
 Copying SCF densities to generalized density rwf, IOpCl= 0 IROHF=0.

 **********************************************************************

            Population analysis using the SCF density.

 **********************************************************************

 Orbital symmetries:
       Occupied  (A) (A) (A) (A) (A) (A) (A) (A) (A) (A) (A)
       Virtual   (A) (A) (A) (A) (A) (A) (A) (A) (A) (A) (A) (A)
                 (A) (A) (A) (A) (A) (A) (A) (A) (A) (A) (A) (A)
                 (A) (A) (A) (A) (A) (A) (A) (A) (A) (A) (A) (A)
                 (A) (A) (A) (A) (A) (A) (A) (A) (A) (A) (A) (A)
                 (A) (A) (A) (A) (A) (A) (A) (A) (A) (A) (A) (A)
                 (A) (A) (A) (A) (A) (A) (A) (A) (A) (A) (A) (A)
                 (A) (A) (A) (A) (A) (A) (A) (A) (A) (A) (A) (A)
                 (A) (A) (A) (A) (A) (A) (A) (A) (A) (A) (A) (A)
                 (A) (A) (A) (A) (A) (A) (A) (A) (A) (A) (A) (A)
                 (A) (A) (A) (A) (A) (A) (A) (A) (A) (A) (A) (A)
                 (A) (A) (A) (A) (A) (A) (A) (A) (A) (A) (A) (A)
                 (A) (A) (A) (A) (A) (A) (A) (A) (A) (A) (A) (A)
                 (A) (A) (A) (A) (A) (A) (A) (A) (A) (A) (A) (A)
                 (A) (A) (A) (A) (A) (A) (A) (A) (A) (A) (A) (A)
                 (A) (A) (A) (A) (A) (A) (A) (A) (A) (A) (A) (A)
                 (A) (A) (A) (A) (A) (A) (A) (A) (A) (A) (A) (A)
                 (A) (A) (A) (A) (A) (A) (A) (A) (A) (A) (A) (A)
                 (A) (A) (A) (A) (A) (A) (A) (A) (A) (A) (A) (A)
                 (A) (A) (A) (A) (A) (A) (A) (A) (A) (A) (A) (A)
                 (A) (A) (A) (A) (A) (A) (A) (A) (A) (A) (A) (A)
                 (A) (A) (A) (A) (A) (A) (A) (A) (A) (A)
 The electronic state is 1-A.
 Alpha  occ. eigenvalues --  -14.84249 -10.66925 -10.66334  -1.03932  -0.89389
 Alpha  occ. eigenvalues --   -0.59466  -0.54719  -0.53794  -0.44739  -0.39050
 Alpha  occ. eigenvalues --   -0.38967
 Alpha virt. eigenvalues --    0.03778   0.07854   0.08288   0.10202   0.11299
 Alpha virt. eigenvalues --    0.11390   0.15300   0.15973   0.16496   0.20091
 Alpha virt. eigenvalues --    0.20126   0.25198   0.32627   0.34533   0.34987
 Alpha virt. eigenvalues --    0.38768   0.39780   0.39877   0.40493   0.47212
 Alpha virt. eigenvalues --    0.50806   0.51859   0.59091   0.59595   0.61384
 Alpha virt. eigenvalues --    0.66725   0.67412   0.69272   0.70236   0.79262
 Alpha virt. eigenvalues --    0.79446   0.82455   0.82531   0.83410   0.86648
 Alpha virt. eigenvalues --    0.91793   0.93090   0.95583   0.96362   0.97093
 Alpha virt. eigenvalues --    1.05541   1.06969   1.08499   1.11944   1.13186
 Alpha virt. eigenvalues --    1.14310   1.22767   1.22863   1.23742   1.35250
 Alpha virt. eigenvalues --    1.35945   1.45654   1.47569   1.48549   1.55055
 Alpha virt. eigenvalues --    1.64902   1.66562   1.70229   1.74697   1.77934
 Alpha virt. eigenvalues --    1.78829   1.78948   1.88089   1.91813   1.92748
 Alpha virt. eigenvalues --    1.94187   1.99108   1.99929   2.00817   2.04141
 Alpha virt. eigenvalues --    2.06066   2.11958   2.13802   2.19493   2.21465
 Alpha virt. eigenvalues --    2.22770   2.24576   2.24984   2.34598   2.36336
 Alpha virt. eigenvalues --    2.42962   2.50636   2.51131   2.57417   2.58418
 Alpha virt. eigenvalues --    2.60157   2.67117   2.70207   2.71429   2.71910
 Alpha virt. eigenvalues --    2.77265   2.78281   2.86046   2.88861   2.89797
 Alpha virt. eigenvalues --    2.94065   2.95215   2.95664   2.97678   3.07306
 Alpha virt. eigenvalues --    3.10631   3.12443   3.21433   3.28992   3.32010
 Alpha virt. eigenvalues --    3.35118   3.39831   3.40301   3.41774   3.48652
 Alpha virt. eigenvalues --    3.54923   3.57099   3.72831   3.73508   3.75033
 Alpha virt. eigenvalues --    3.88958   3.91874   3.93134   3.96816   3.99890
 Alpha virt. eigenvalues --    4.01431   4.05344   4.05848   4.25621   4.26847
 Alpha virt. eigenvalues --    4.54618   4.91152   4.91312   5.06655   5.09667
 Alpha virt. eigenvalues --    5.10287   5.16761   5.21258   5.22040   5.24157
 Alpha virt. eigenvalues --    5.31127   5.45179   5.45523   5.47170   5.65304
 Alpha virt. eigenvalues --    5.68517   5.85447   5.86936   5.90739   5.92118
 Alpha virt. eigenvalues --    5.94852   5.99215   5.99794   6.00403   6.02406
 Alpha virt. eigenvalues --    6.04432   6.05206   6.06542   6.08652   6.13637
 Alpha virt. eigenvalues --    6.19602   6.21010   6.22959   6.30504   6.31543
 Alpha virt. eigenvalues --    6.40618   6.45026   6.49333   6.56366   6.59642
 Alpha virt. eigenvalues --    6.64998   6.66086   6.90231   6.92429   6.95408
 Alpha virt. eigenvalues --    6.96963   7.02644   7.02672   7.08400   7.11144
 Alpha virt. eigenvalues --    7.17524   7.18678   7.24100   7.47058   7.48730
 Alpha virt. eigenvalues --    7.50347   7.51980   7.55995   7.60748   7.64244
 Alpha virt. eigenvalues --    7.66760   7.72946   7.73965   7.83055   7.84665
 Alpha virt. eigenvalues --    7.87552   7.91481   7.97385   8.05435   8.27998
 Alpha virt. eigenvalues --    8.30379   8.34041   8.42396   8.45085   8.46383
 Alpha virt. eigenvalues --    8.47597   8.50498   8.51282   8.54127   8.59358
 Alpha virt. eigenvalues --    8.59914   8.65307   8.66598   8.66906   8.68406
 Alpha virt. eigenvalues --    8.71031   8.84713   8.86555   8.87965   9.05228
 Alpha virt. eigenvalues --    9.06635   9.11857   9.14116   9.15649   9.18199
 Alpha virt. eigenvalues --    9.25419   9.29447   9.71828   9.75695   9.84206
 Alpha virt. eigenvalues --    9.90864   9.94117   9.98764  10.03685  10.13006
 Alpha virt. eigenvalues --   10.14520  10.17045  10.22064  10.32249  10.49142
 Alpha virt. eigenvalues --   10.54181  10.73564  11.37501  11.63355  11.78727
 Alpha virt. eigenvalues --   11.96092  12.01050  13.11832  13.59355  29.21064
 Alpha virt. eigenvalues --   29.53770  38.31159 148.87267 149.16640 198.22952
          Condensed to atoms (all electrons):
               1          2          3          4          5          6
     1  C    4.601199   0.300658  -0.058586   0.411090   0.416058   0.414130
     2  C    0.300658   4.847882   0.983690  -0.042557  -0.046345  -0.041057
     3  N   -0.058586   0.983690   6.285510  -0.000572  -0.000818  -0.000847
     4  H    0.411090  -0.042557  -0.000572   0.597626  -0.030933  -0.031196
     5  H    0.416058  -0.046345  -0.000818  -0.030933   0.588405  -0.027707
     6  H    0.414130  -0.041057  -0.000847  -0.031196  -0.027707   0.589362
 Mulliken charges:
               1
     1  C   -0.084549
     2  C   -0.002271
     3  N   -0.208376
     4  H    0.096541
     5  H    0.101340
     6  H    0.097315
 Sum of Mulliken charges =   0.00000
 Mulliken charges with hydrogens summed into heavy atoms:
               1
     1  C    0.210647
     2  C   -0.002271
     3  N   -0.208376
 Electronic spatial extent (au):  <R**2>=            162.0170
 Charge=              0.0000 electrons
 Dipole moment (field-independent basis, Debye):
    X=             -4.1370    Y=             -0.0125    Z=              0.0290  Tot=              4.1371
 Quadrupole moment (field-independent basis, Debye-Ang):
   XX=            -21.0475   YY=            -17.6554   ZZ=            -17.8139
   XY=             -0.0458   XZ=             -0.0167   YZ=              0.0295
 Traceless Quadrupole moment (field-independent basis, Debye-Ang):
   XX=             -2.2086   YY=              1.1836   ZZ=              1.0250
   XY=             -0.0458   XZ=             -0.0167   YZ=              0.0295
 Octapole moment (field-independent basis, Debye-Ang**2):
  XXX=            -12.8736  YYY=              0.1958  ZZZ=              0.7163  XYY=             -2.4203
  XXY=              0.1397  XXZ=              0.0965  XZZ=             -2.1598  YZZ=             -0.3157
  YYZ=             -0.7512  XYZ=             -0.0047
 Hexadecapole moment (field-independent basis, Debye-Ang**3):
 XXXX=           -182.7508 YYYY=            -24.6295 ZZZZ=            -24.3805 XXXY=             -0.3122
 XXXZ=             -0.1637 YYYX=             -0.4587 YYYZ=              0.0749 ZZZX=             -1.3116
 ZZZY=              0.0797 XXYY=            -30.9915 XXZZ=            -31.3517 YYZZ=             -8.1713
 XXYZ=             -0.0509 YYXZ=              1.2107 ZZXY=              0.4840
 N-N= 5.849069248032D+01 E-N=-4.255989922520D+02  KE= 1.320658202795D+02
 Leave Link  601 at Thu Aug 27 00:09:58 2020, MaxMem=  2097152000 cpu:         0.4
 (Enter /opt/cluster/programs/g09/g09_d.01/g09/l9999.exe)
 1\1\GINC-NODE09\SP\RB2PLYPD3-FC\def2QZVP\C2H3N1\BOITTIER\27-Aug-2020\0
 \\#p B2PLYPD3/Def2QZVP\\cyanomethane\\0,1\C,0,-6.606621,-1.115948,1.16
 0215\C,0,-5.198073,-0.788014,0.923738\N,0,-4.090254,-0.540495,0.694748
 \H,0,-6.765664,-1.210687,2.207954\H,0,-6.812679,-2.048358,0.683757\H,0
 ,-7.263907,-0.307447,0.787583\\Version=ES64L-G09RevD.01\State=1-A\HF=-
 132.5344607\MP2=-132.7150892\RMSD=2.623e-09\PG=C01 [X(C2H3N1)]\\@


 AND THIS OUR LIFE, EXEMPT FROM PUBLIC HAUNT,
 FINDS TONGUES IN TREES, BOOKS IN THE RUNNING BROOKS,
 SERMONS IN STONES, AND GOOD IN EVERYTHING.
 I WOULD NOT CHANGE IT. -- W. SHAKESPEARE
 AS YOU LIKE IT, ACT II, SCENE 1.
 Job cpu time:       0 days  0 hours  4 minutes 35.5 seconds.
 File lengths (MBytes):  RWF=     28 Int=      0 D2E=      0 Chk=      5 Scr=      1
 Normal termination of Gaussian 09 at Thu Aug 27 00:09:59 2020.
