 Entering Gaussian System, Link 0=/opt/cluster/programs/g09/g09_d.01/g09//g09
 Input=/home/boittier/MDCM/nms_sampling/cyanomethane_geom.xyz.dir/energies/cyanomethane_3015_energy.com
 Output=/scratch/boittier/cyanomethane_3015_energy/cyanomethane_3015_energy.out
 Initial command:
 /opt/cluster/programs/g09/g09_d.01/g09/l1.exe "/scratch/boittier/cyanomethane_3015_energy/Gau-176800.inp" -scrdir="/scratch/boittier/cyanomethane_3015_energy/"
 Entering Link 1 = /opt/cluster/programs/g09/g09_d.01/g09/l1.exe PID=    176801.
  
 Copyright (c) 1988,1990,1992,1993,1995,1998,2003,2009,2013,
            Gaussian, Inc.  All Rights Reserved.
  
 This is part of the Gaussian(R) 09 program.  It is based on
 the Gaussian(R) 03 system (copyright 2003, Gaussian, Inc.),
 the Gaussian(R) 98 system (copyright 1998, Gaussian, Inc.),
 the Gaussian(R) 94 system (copyright 1995, Gaussian, Inc.),
 the Gaussian 92(TM) system (copyright 1992, Gaussian, Inc.),
 the Gaussian 90(TM) system (copyright 1990, Gaussian, Inc.),
 the Gaussian 88(TM) system (copyright 1988, Gaussian, Inc.),
 the Gaussian 86(TM) system (copyright 1986, Carnegie Mellon
 University), and the Gaussian 82(TM) system (copyright 1983,
 Carnegie Mellon University). Gaussian is a federally registered
 trademark of Gaussian, Inc.
  
 This software contains proprietary and confidential information,
 including trade secrets, belonging to Gaussian, Inc.
  
 This software is provided under written license and may be
 used, copied, transmitted, or stored only in accord with that
 written license.
  
 The following legend is applicable only to US Government
 contracts under FAR:
  
                    RESTRICTED RIGHTS LEGEND
  
 Use, reproduction and disclosure by the US Government is
 subject to restrictions as set forth in subparagraphs (a)
 and (c) of the Commercial Computer Software - Restricted
 Rights clause in FAR 52.227-19.
  
 Gaussian, Inc.
 340 Quinnipiac St., Bldg. 40, Wallingford CT 06492
  
  
 ---------------------------------------------------------------
 Warning -- This program may not be used in any manner that
 competes with the business of Gaussian, Inc. or will provide
 assistance to any competitor of Gaussian, Inc.  The licensee
 of this program is prohibited from giving any competitor of
 Gaussian, Inc. access to this program.  By using this program,
 the user acknowledges that Gaussian, Inc. is engaged in the
 business of creating and licensing software in the field of
 computational chemistry and represents and warrants to the
 licensee that it is not a competitor of Gaussian, Inc. and that
 it will not use this program in any manner prohibited above.
 ---------------------------------------------------------------
  

 Cite this work as:
 Gaussian 09, Revision D.01,
 M. J. Frisch, G. W. Trucks, H. B. Schlegel, G. E. Scuseria, 
 M. A. Robb, J. R. Cheeseman, G. Scalmani, V. Barone, B. Mennucci, 
 G. A. Petersson, H. Nakatsuji, M. Caricato, X. Li, H. P. Hratchian, 
 A. F. Izmaylov, J. Bloino, G. Zheng, J. L. Sonnenberg, M. Hada, 
 M. Ehara, K. Toyota, R. Fukuda, J. Hasegawa, M. Ishida, T. Nakajima, 
 Y. Honda, O. Kitao, H. Nakai, T. Vreven, J. A. Montgomery, Jr., 
 J. E. Peralta, F. Ogliaro, M. Bearpark, J. J. Heyd, E. Brothers, 
 K. N. Kudin, V. N. Staroverov, T. Keith, R. Kobayashi, J. Normand, 
 K. Raghavachari, A. Rendell, J. C. Burant, S. S. Iyengar, J. Tomasi, 
 M. Cossi, N. Rega, J. M. Millam, M. Klene, J. E. Knox, J. B. Cross, 
 V. Bakken, C. Adamo, J. Jaramillo, R. Gomperts, R. E. Stratmann, 
 O. Yazyev, A. J. Austin, R. Cammi, C. Pomelli, J. W. Ochterski, 
 R. L. Martin, K. Morokuma, V. G. Zakrzewski, G. A. Voth, 
 P. Salvador, J. J. Dannenberg, S. Dapprich, A. D. Daniels, 
 O. Farkas, J. B. Foresman, J. V. Ortiz, J. Cioslowski, 
 and D. J. Fox, Gaussian, Inc., Wallingford CT, 2013.
 
 ******************************************
 Gaussian 09:  ES64L-G09RevD.01 24-Apr-2013
                26-Aug-2020 
 ******************************************
 %chk=/home/boittier/MDCM/nms_sampling/cyanomethane_geom.xyz.dir/cyanomethane_301
 5.chk
 %nproc=8
 Will use up to    8 processors via shared memory.
 %mem=16000MB
 --------------------
 #p B2PLYPD3/Def2QZVP
 --------------------
 1/38=1/1;
 2/12=2,17=6,18=5,40=1/2;
 3/5=45,7=101,11=9,16=1,25=1,30=1,74=-60/1,2,3;
 4//1;
 5/5=2,38=5/2;
 8/10=1/1;
 9/16=-3/6;
 6/7=2,8=2,9=2,10=2/1;
 99/5=1,9=1/99;
 Leave Link    1 at Wed Aug 26 22:06:00 2020, MaxMem=  2097152000 cpu:         0.2
 (Enter /opt/cluster/programs/g09/g09_d.01/g09/l101.exe)
 ------------
 cyanomethane
 ------------
 Symbolic Z-matrix:
 Charge =  0 Multiplicity = 1
 C                    -6.61256  -1.07717   1.16133 
 C                    -5.19327  -0.84291   0.93713 
 N                    -4.09157  -0.51165   0.68515 
 H                    -6.67566  -1.3339    2.15985 
 H                    -6.90764  -2.0883    0.64412 
 H                    -7.22549  -0.32858   0.84429 
 
 NAtoms=      6 NQM=        6 NQMF=       0 NMMI=      0 NMMIF=      0
                NMic=       0 NMicF=      0.
                    Isotopes and Nuclear Properties:
 (Nuclear quadrupole moments (NQMom) in fm**2, nuclear magnetic moments (NMagM)
  in nuclear magnetons)

  Atom         1           2           3           4           5           6
 IAtWgt=          12          12          14           1           1           1
 AtmWgt=  12.0000000  12.0000000  14.0030740   1.0078250   1.0078250   1.0078250
 NucSpn=           0           0           2           1           1           1
 AtZEff=   0.0000000   0.0000000   0.0000000   0.0000000   0.0000000   0.0000000
 NQMom=    0.0000000   0.0000000   2.0440000   0.0000000   0.0000000   0.0000000
 NMagM=    0.0000000   0.0000000   0.4037610   2.7928460   2.7928460   2.7928460
 AtZNuc=   6.0000000   6.0000000   7.0000000   1.0000000   1.0000000   1.0000000
 Leave Link  101 at Wed Aug 26 22:06:00 2020, MaxMem=  2097152000 cpu:         0.5
 (Enter /opt/cluster/programs/g09/g09_d.01/g09/l202.exe)
                          Input orientation:                          
 ---------------------------------------------------------------------
 Center     Atomic      Atomic             Coordinates (Angstroms)
 Number     Number       Type             X           Y           Z
 ---------------------------------------------------------------------
      1          6           0       -6.612564   -1.077173    1.161325
      2          6           0       -5.193273   -0.842905    0.937127
      3          7           0       -4.091570   -0.511647    0.685151
      4          1           0       -6.675656   -1.333899    2.159852
      5          1           0       -6.907643   -2.088304    0.644120
      6          1           0       -7.225491   -0.328575    0.844288
 ---------------------------------------------------------------------
                    Distance matrix (angstroms):
                    1          2          3          4          5
     1  C    0.000000
     2  C    1.455862   0.000000
     3  N    2.627160   1.177698   0.000000
     4  H    1.032930   1.983328   3.086801   0.000000
     5  H    1.173439   2.139144   3.227661   1.708914   0.000000
     6  H    1.018131   2.098348   3.143295   1.744621   1.799372
                    6
     6  H    0.000000
 Stoichiometry    C2H3N
 Framework group  C1[X(C2H3N)]
 Deg. of freedom    12
 Full point group                 C1      NOp   1
 Largest Abelian subgroup         C1      NOp   1
 Largest concise Abelian subgroup C1      NOp   1
                         Standard orientation:                         
 ---------------------------------------------------------------------
 Center     Atomic      Atomic             Coordinates (Angstroms)
 Number     Number       Type             X           Y           Z
 ---------------------------------------------------------------------
      1          6           0       -1.182929    0.049528    0.004512
      2          6           0        0.269245   -0.052424    0.022644
      3          7           0        1.443984    0.020819   -0.017335
      4          1           0       -1.475743   -0.291805    0.934403
      5          1           0       -1.605059   -0.793527   -0.694075
      6          1           0       -1.544980    0.956977   -0.281925
 ---------------------------------------------------------------------
 Rotational constants (GHZ):    159.6304398      9.1889173      9.1464243
 Leave Link  202 at Wed Aug 26 22:06:01 2020, MaxMem=  2097152000 cpu:         0.0
 (Enter /opt/cluster/programs/g09/g09_d.01/g09/l301.exe)
 Standard basis: def2QZVP (5D, 7F)
 Ernie: Thresh=  0.10000D-02 Tol=  0.10000D-05 Strict=F.
 There are   321 symmetry adapted cartesian basis functions of A   symmetry.
 There are   261 symmetry adapted basis functions of A   symmetry.
   261 basis functions,   390 primitive gaussians,   321 cartesian basis functions
    11 alpha electrons       11 beta electrons
       nuclear repulsion energy        58.3467127584 Hartrees.
 IExCor=  419 DFT=T Ex+Corr=B2PLYPD3 ExCW=0 ScaHFX=  0.530000
 ScaDFX=  0.470000  0.470000  0.730000  0.730000 ScalE2=  0.270000  0.270000
 IRadAn=      0 IRanWt=     -1 IRanGd=            0 ICorTp=0 IEmpDi=141
 NAtoms=    6 NActive=    6 NUniq=    6 SFac= 1.00D+00 NAtFMM=   60 NAOKFM=F Big=F
 Integral buffers will be    131072 words long.
 Regular integral format.
 Two-electron integral symmetry is turned on.
 R6Disp:  Grimme-D3(BJ) Dispersion energy=       -0.0021038421 Hartrees.
 Nuclear repulsion after empirical dispersion term =       58.3446089163 Hartrees.
 Leave Link  301 at Wed Aug 26 22:06:01 2020, MaxMem=  2097152000 cpu:         0.4
 (Enter /opt/cluster/programs/g09/g09_d.01/g09/l302.exe)
 NPDir=0 NMtPBC=     1 NCelOv=     1 NCel=       1 NClECP=     1 NCelD=      1
         NCelK=      1 NCelE2=     1 NClLst=     1 CellRange=     0.0.
 One-electron integrals computed using PRISM.
   1 Symmetry operations used in ECPInt.
 ECPInt:  NShTT=    3321 NPrTT=    8136 LenC2=    3294 LenP2D=    7126.
 LDataN:  DoStor=T MaxTD1= 8 Len=  415
 NBasis=   261 RedAO= T EigKep=  7.91D-05  NBF=   261
 NBsUse=   261 1.00D-06 EigRej= -1.00D+00 NBFU=   261
 Precomputing XC quadrature grid using
 IXCGrd= 4 IRadAn=           0 IRanWt=          -1 IRanGd=           0 AccXCQ= 0.00D+00.
 Generated NRdTot=       0 NPtTot=           0 NUsed=           0 NTot=          32
 NSgBfM=   321   321   321   321   321 MxSgAt=     6 MxSgA2=     6.
 Leave Link  302 at Wed Aug 26 22:06:01 2020, MaxMem=  2097152000 cpu:         2.3
 (Enter /opt/cluster/programs/g09/g09_d.01/g09/l303.exe)
 DipDrv:  MaxL=1.
 Leave Link  303 at Wed Aug 26 22:06:01 2020, MaxMem=  2097152000 cpu:         0.2
 (Enter /opt/cluster/programs/g09/g09_d.01/g09/l401.exe)
 ExpMin= 7.60D-02 ExpMax= 9.07D+04 ExpMxC= 8.76D+02 IAcc=2 IRadAn=         4 AccDes= 0.00D+00
 Harris functional with IExCor=  419 and IRadAn=       4 diagonalized for initial guess.
 HarFok:  IExCor=  419 AccDes= 0.00D+00 IRadAn=         4 IDoV= 1 UseB2=F ITyADJ=14
 ICtDFT=  3500011 ScaDFX=  1.000000  1.000000  1.000000  1.000000
 FoFCou: FMM=F IPFlag=           0 FMFlag=      100000 FMFlg1=           0
         NFxFlg=           0 DoJE=T BraDBF=F KetDBF=T FulRan=T
         wScrn=  0.000000 ICntrl=     500 IOpCl=  0 I1Cent=   200000004 NGrid=           0
         NMat0=    1 NMatS0=      1 NMatT0=    0 NMatD0=    1 NMtDS0=    0 NMtDT0=    0
 Petite list used in FoFCou.
 Harris En= -132.839090630747    
 JPrj=0 DoOrth=F DoCkMO=F.
 Leave Link  401 at Wed Aug 26 22:06:02 2020, MaxMem=  2097152000 cpu:         4.3
 (Enter /opt/cluster/programs/g09/g09_d.01/g09/l502.exe)
 Closed shell SCF:
 Using DIIS extrapolation, IDIIS=  1040.
 Integral symmetry usage will be decided dynamically.
 Keep R1 ints in memory in canonical form, NReq=601554820.
 IVT=      332521 IEndB=      332521 NGot=  2097152000 MDV=  1512290144
 LenX=  1512290144 LenY=  1512186662
 Requested convergence on RMS density matrix=1.00D-08 within 128 cycles.
 Requested convergence on MAX density matrix=1.00D-06.
 Requested convergence on             energy=1.00D-06.
 No special actions if energy rises.
 FoFCou: FMM=F IPFlag=           0 FMFlag=           0 FMFlg1=           0
         NFxFlg=           0 DoJE=F BraDBF=F KetDBF=F FulRan=T
         wScrn=  0.000000 ICntrl=     600 IOpCl=  0 I1Cent=           0 NGrid=           0
         NMat0=    1 NMatS0=  34191 NMatT0=    0 NMatD0=    1 NMtDS0=    0 NMtDT0=    0
 Symmetry not used in FoFCou.
 Integral accuracy reduced to 1.0D-05 until final iterations.

 Cycle   1  Pass 0  IDiag  1:
 E= -132.405626248520    
 DIIS: error= 2.64D-02 at cycle   1 NSaved=   1.
 NSaved= 1 IEnMin= 1 EnMin= -132.405626248520     IErMin= 1 ErrMin= 2.64D-02
 ErrMax= 2.64D-02  0.00D+00 EMaxC= 1.00D-01 BMatC= 1.89D-01 BMatP= 1.89D-01
 IDIUse=3 WtCom= 7.36D-01 WtEn= 2.64D-01
 Coeff-Com:  0.100D+01
 Coeff-En:   0.100D+01
 Coeff:      0.100D+01
 Gap=     0.441 Goal=   None    Shift=    0.000
 GapD=    0.441 DampG=2.000 DampE=0.500 DampFc=1.0000 IDamp=-1.
 RMSDP=1.24D-03 MaxDP=6.11D-02              OVMax= 1.63D-01

 Cycle   2  Pass 0  IDiag  1:
 E= -132.437423140045     Delta-E=       -0.031796891525 Rises=F Damp=F
 DIIS: error= 3.70D-02 at cycle   2 NSaved=   2.
 NSaved= 2 IEnMin= 2 EnMin= -132.437423140045     IErMin= 1 ErrMin= 2.64D-02
 ErrMax= 3.70D-02  0.00D+00 EMaxC= 1.00D-01 BMatC= 9.65D-02 BMatP= 1.89D-01
 IDIUse=3 WtCom= 6.30D-01 WtEn= 3.70D-01
 Coeff-Com:  0.400D+00 0.600D+00
 Coeff-En:   0.403D+00 0.597D+00
 Coeff:      0.401D+00 0.599D+00
 Gap=     0.426 Goal=   None    Shift=    0.000
 RMSDP=8.20D-04 MaxDP=3.09D-02 DE=-3.18D-02 OVMax= 1.26D-01

 Cycle   3  Pass 0  IDiag  1:
 E= -132.501604384329     Delta-E=       -0.064181244285 Rises=F Damp=F
 DIIS: error= 1.64D-02 at cycle   3 NSaved=   3.
 NSaved= 3 IEnMin= 3 EnMin= -132.501604384329     IErMin= 3 ErrMin= 1.64D-02
 ErrMax= 1.64D-02  0.00D+00 EMaxC= 1.00D-01 BMatC= 2.19D-02 BMatP= 9.65D-02
 IDIUse=3 WtCom= 8.36D-01 WtEn= 1.64D-01
 Coeff-Com:  0.102D+00 0.332D+00 0.566D+00
 Coeff-En:   0.000D+00 0.148D+00 0.852D+00
 Coeff:      0.853D-01 0.302D+00 0.612D+00
 Gap=     0.416 Goal=   None    Shift=    0.000
 RMSDP=2.85D-04 MaxDP=1.04D-02 DE=-6.42D-02 OVMax= 6.44D-02

 Cycle   4  Pass 0  IDiag  1:
 E= -132.516604610462     Delta-E=       -0.015000226132 Rises=F Damp=F
 DIIS: error= 6.12D-03 at cycle   4 NSaved=   4.
 NSaved= 4 IEnMin= 4 EnMin= -132.516604610462     IErMin= 4 ErrMin= 6.12D-03
 ErrMax= 6.12D-03  0.00D+00 EMaxC= 1.00D-01 BMatC= 3.60D-03 BMatP= 2.19D-02
 IDIUse=3 WtCom= 9.39D-01 WtEn= 6.12D-02
 Coeff-Com: -0.126D-01 0.550D-01 0.334D+00 0.624D+00
 Coeff-En:   0.000D+00 0.000D+00 0.160D+00 0.840D+00
 Coeff:     -0.118D-01 0.517D-01 0.323D+00 0.637D+00
 Gap=     0.418 Goal=   None    Shift=    0.000
 RMSDP=9.84D-05 MaxDP=2.87D-03 DE=-1.50D-02 OVMax= 1.76D-02

 Cycle   5  Pass 0  IDiag  1:
 E= -132.519725000232     Delta-E=       -0.003120389770 Rises=F Damp=F
 DIIS: error= 3.86D-04 at cycle   5 NSaved=   5.
 NSaved= 5 IEnMin= 5 EnMin= -132.519725000232     IErMin= 5 ErrMin= 3.86D-04
 ErrMax= 3.86D-04  0.00D+00 EMaxC= 1.00D-01 BMatC= 1.76D-05 BMatP= 3.60D-03
 IDIUse=3 WtCom= 9.96D-01 WtEn= 3.86D-03
 Coeff-Com: -0.378D-02 0.579D-02 0.521D-01 0.148D+00 0.798D+00
 Coeff-En:   0.000D+00 0.000D+00 0.000D+00 0.000D+00 0.100D+01
 Coeff:     -0.376D-02 0.577D-02 0.519D-01 0.147D+00 0.799D+00
 Gap=     0.417 Goal=   None    Shift=    0.000
 RMSDP=8.52D-06 MaxDP=3.12D-04 DE=-3.12D-03 OVMax= 1.45D-03

 Initial convergence to 1.0D-05 achieved.  Increase integral accuracy.
 Cycle   6  Pass 1  IDiag  1:
 E= -132.519738264122     Delta-E=       -0.000013263890 Rises=F Damp=F
 DIIS: error= 1.17D-04 at cycle   1 NSaved=   1.
 NSaved= 1 IEnMin= 1 EnMin= -132.519738264122     IErMin= 1 ErrMin= 1.17D-04
 ErrMax= 1.17D-04  0.00D+00 EMaxC= 1.00D-01 BMatC= 7.33D-07 BMatP= 7.33D-07
 IDIUse=3 WtCom= 9.99D-01 WtEn= 1.17D-03
 Coeff-Com:  0.100D+01
 Coeff-En:   0.100D+01
 Coeff:      0.100D+01
 Gap=     0.418 Goal=   None    Shift=    0.000
 RMSDP=8.52D-06 MaxDP=3.12D-04 DE=-1.33D-05 OVMax= 4.45D-04

 Cycle   7  Pass 1  IDiag  1:
 E= -132.519738734637     Delta-E=       -0.000000470515 Rises=F Damp=F
 DIIS: error= 5.35D-05 at cycle   2 NSaved=   2.
 NSaved= 2 IEnMin= 2 EnMin= -132.519738734637     IErMin= 2 ErrMin= 5.35D-05
 ErrMax= 5.35D-05  0.00D+00 EMaxC= 1.00D-01 BMatC= 3.29D-07 BMatP= 7.33D-07
 IDIUse=1 WtCom= 1.00D+00 WtEn= 0.00D+00
 Coeff-Com:  0.392D+00 0.608D+00
 Coeff:      0.392D+00 0.608D+00
 Gap=     0.417 Goal=   None    Shift=    0.000
 RMSDP=1.12D-06 MaxDP=4.06D-05 DE=-4.71D-07 OVMax= 2.05D-04

 Cycle   8  Pass 1  IDiag  1:
 E= -132.519739022605     Delta-E=       -0.000000287968 Rises=F Damp=F
 DIIS: error= 2.04D-05 at cycle   3 NSaved=   3.
 NSaved= 3 IEnMin= 3 EnMin= -132.519739022605     IErMin= 3 ErrMin= 2.04D-05
 ErrMax= 2.04D-05  0.00D+00 EMaxC= 1.00D-01 BMatC= 2.97D-08 BMatP= 3.29D-07
 IDIUse=1 WtCom= 1.00D+00 WtEn= 0.00D+00
 Coeff-Com:  0.116D+00 0.266D+00 0.617D+00
 Coeff:      0.116D+00 0.266D+00 0.617D+00
 Gap=     0.417 Goal=   None    Shift=    0.000
 RMSDP=5.91D-07 MaxDP=2.53D-05 DE=-2.88D-07 OVMax= 8.11D-05

 Cycle   9  Pass 1  IDiag  1:
 E= -132.519739042818     Delta-E=       -0.000000020212 Rises=F Damp=F
 DIIS: error= 1.44D-05 at cycle   4 NSaved=   4.
 NSaved= 4 IEnMin= 4 EnMin= -132.519739042818     IErMin= 4 ErrMin= 1.44D-05
 ErrMax= 1.44D-05  0.00D+00 EMaxC= 1.00D-01 BMatC= 8.92D-09 BMatP= 2.97D-08
 IDIUse=1 WtCom= 1.00D+00 WtEn= 0.00D+00
 Coeff-Com: -0.687D-01-0.450D-01 0.383D+00 0.731D+00
 Coeff:     -0.687D-01-0.450D-01 0.383D+00 0.731D+00
 Gap=     0.417 Goal=   None    Shift=    0.000
 RMSDP=3.30D-07 MaxDP=1.40D-05 DE=-2.02D-08 OVMax= 5.55D-05

 Cycle  10  Pass 1  IDiag  1:
 E= -132.519739052587     Delta-E=       -0.000000009769 Rises=F Damp=F
 DIIS: error= 1.26D-06 at cycle   5 NSaved=   5.
 NSaved= 5 IEnMin= 5 EnMin= -132.519739052587     IErMin= 5 ErrMin= 1.26D-06
 ErrMax= 1.26D-06  0.00D+00 EMaxC= 1.00D-01 BMatC= 1.97D-10 BMatP= 8.92D-09
 IDIUse=1 WtCom= 1.00D+00 WtEn= 0.00D+00
 Coeff-Com: -0.220D-01-0.246D-01 0.490D-01 0.173D+00 0.825D+00
 Coeff:     -0.220D-01-0.246D-01 0.490D-01 0.173D+00 0.825D+00
 Gap=     0.417 Goal=   None    Shift=    0.000
 RMSDP=5.69D-08 MaxDP=1.98D-06 DE=-9.77D-09 OVMax= 9.19D-06

 Cycle  11  Pass 1  IDiag  1:
 E= -132.519739052971     Delta-E=       -0.000000000384 Rises=F Damp=F
 DIIS: error= 7.09D-07 at cycle   6 NSaved=   6.
 NSaved= 6 IEnMin= 6 EnMin= -132.519739052971     IErMin= 6 ErrMin= 7.09D-07
 ErrMax= 7.09D-07  0.00D+00 EMaxC= 1.00D-01 BMatC= 2.59D-11 BMatP= 1.97D-10
 IDIUse=1 WtCom= 1.00D+00 WtEn= 0.00D+00
 Coeff-Com:  0.114D-01 0.678D-02-0.685D-01-0.111D+00 0.709D-01 0.109D+01
 Coeff:      0.114D-01 0.678D-02-0.685D-01-0.111D+00 0.709D-01 0.109D+01
 Gap=     0.417 Goal=   None    Shift=    0.000
 RMSDP=2.91D-08 MaxDP=1.01D-06 DE=-3.84D-10 OVMax= 6.84D-06

 Cycle  12  Pass 1  IDiag  1:
 E= -132.519739053074     Delta-E=       -0.000000000103 Rises=F Damp=F
 DIIS: error= 1.64D-07 at cycle   7 NSaved=   7.
 NSaved= 7 IEnMin= 7 EnMin= -132.519739053074     IErMin= 7 ErrMin= 1.64D-07
 ErrMax= 1.64D-07  0.00D+00 EMaxC= 1.00D-01 BMatC= 1.77D-12 BMatP= 2.59D-11
 IDIUse=1 WtCom= 1.00D+00 WtEn= 0.00D+00
 Coeff-Com:  0.876D-03 0.166D-02 0.442D-02-0.582D-02-0.917D-01-0.159D+00
 Coeff-Com:  0.125D+01
 Coeff:      0.876D-03 0.166D-02 0.442D-02-0.582D-02-0.917D-01-0.159D+00
 Coeff:      0.125D+01
 Gap=     0.417 Goal=   None    Shift=    0.000
 RMSDP=1.06D-08 MaxDP=3.86D-07 DE=-1.03D-10 OVMax= 2.63D-06

 Cycle  13  Pass 1  IDiag  1:
 E= -132.519739053081     Delta-E=       -0.000000000007 Rises=F Damp=F
 DIIS: error= 3.73D-08 at cycle   8 NSaved=   8.
 NSaved= 8 IEnMin= 8 EnMin= -132.519739053081     IErMin= 8 ErrMin= 3.73D-08
 ErrMax= 3.73D-08  0.00D+00 EMaxC= 1.00D-01 BMatC= 1.56D-13 BMatP= 1.77D-12
 IDIUse=1 WtCom= 1.00D+00 WtEn= 0.00D+00
 Coeff-Com: -0.679D-03-0.171D-03 0.661D-02 0.633D-02-0.233D-01-0.115D+00
 Coeff-Com:  0.280D+00 0.846D+00
 Coeff:     -0.679D-03-0.171D-03 0.661D-02 0.633D-02-0.233D-01-0.115D+00
 Coeff:      0.280D+00 0.846D+00
 Gap=     0.417 Goal=   None    Shift=    0.000
 RMSDP=1.66D-09 MaxDP=4.42D-08 DE=-7.16D-12 OVMax= 3.26D-07

 SCF Done:  E(RB2PLYPD3) =  -132.519739053     A.U. after   13 cycles
            NFock= 13  Conv=0.17D-08     -V/T= 2.0037
 KE= 1.320344520103D+02 PE=-4.252307368219D+02 EE= 1.023319368422D+02
 Leave Link  502 at Wed Aug 26 22:06:25 2020, MaxMem=  2097152000 cpu:       104.2
 (Enter /opt/cluster/programs/g09/g09_d.01/g09/l801.exe)
 DoSCS=T DFT=T ScalE2(SS,OS)=  0.270000  0.270000
 ExpMin= 7.60D-02 ExpMax= 9.07D+04 ExpMxC= 8.76D+02 IAcc=3 IRadAn=         5 AccDes= 0.00D+00
 HarFok:  IExCor=  205 AccDes= 0.00D+00 IRadAn=         5 IDoV=-2 UseB2=F ITyADJ=14
 ICtDFT= 12500011 ScaDFX=  1.000000  1.000000  1.000000  1.000000
 Largest valence mixing into a core orbital is  1.18D-04
 Largest core mixing into a valence orbital is  2.04D-05
 Range of M.O.s used for correlation:     4   261
 NBasis=   261 NAE=    11 NBE=    11 NFC=     3 NFV=     0
 NROrb=    258 NOA=     8 NOB=     8 NVA=   250 NVB=   250

 **** Warning!!: The largest alpha MO coefficient is  0.26295705D+02

 Leave Link  801 at Wed Aug 26 22:06:25 2020, MaxMem=  2097152000 cpu:         0.7
 (Enter /opt/cluster/programs/g09/g09_d.01/g09/l906.exe)
 DoSCS=T DFT=T ScalE2(SS,OS)=  0.270000  0.270000
 FulOut=F Deriv=F AODrv=F NAtomX=     6
   MMem=        2666  MDisk=           8 MDiskD=           8
  W3Min=      642000 MinDsk=     1426009 NBas6D=         321
 NBas2D=       52689    NTT=       51681    LW2=     4508827
    MDV=  2096809511 MDiskM=       14501 NBas2p=       52074
 Fully direct method using O(OVN) memory.
 IMap=   1   2   3   4   5   6   7   8
 JobTyp=1 Pass  1:  I=   1 to   8 NPSUse=  8 ParTrn=T ParDer=T DoDerP=F.
 Spin components of T(2) and E(2):
     alpha-alpha T2 =       0.3712933227D-01 E2=     -0.2176607495D-01
     alpha-beta  T2 =       0.2157088046D+00 E2=     -0.1391133299D+00
     beta-beta   T2 =       0.3712933227D-01 E2=     -0.2176607495D-01
 The integrals were generated   1 times.
 E2(B2PLYPD3) =    -0.1826454798D+00 E(B2PLYPD3) =    -0.13270238453285D+03
 Leave Link  906 at Wed Aug 26 22:06:40 2020, MaxMem=  2097152000 cpu:       115.3
 (Enter /opt/cluster/programs/g09/g09_d.01/g09/l601.exe)
 Copying SCF densities to generalized density rwf, IOpCl= 0 IROHF=0.

 **********************************************************************

            Population analysis using the SCF density.

 **********************************************************************

 Orbital symmetries:
       Occupied  (A) (A) (A) (A) (A) (A) (A) (A) (A) (A) (A)
       Virtual   (A) (A) (A) (A) (A) (A) (A) (A) (A) (A) (A) (A)
                 (A) (A) (A) (A) (A) (A) (A) (A) (A) (A) (A) (A)
                 (A) (A) (A) (A) (A) (A) (A) (A) (A) (A) (A) (A)
                 (A) (A) (A) (A) (A) (A) (A) (A) (A) (A) (A) (A)
                 (A) (A) (A) (A) (A) (A) (A) (A) (A) (A) (A) (A)
                 (A) (A) (A) (A) (A) (A) (A) (A) (A) (A) (A) (A)
                 (A) (A) (A) (A) (A) (A) (A) (A) (A) (A) (A) (A)
                 (A) (A) (A) (A) (A) (A) (A) (A) (A) (A) (A) (A)
                 (A) (A) (A) (A) (A) (A) (A) (A) (A) (A) (A) (A)
                 (A) (A) (A) (A) (A) (A) (A) (A) (A) (A) (A) (A)
                 (A) (A) (A) (A) (A) (A) (A) (A) (A) (A) (A) (A)
                 (A) (A) (A) (A) (A) (A) (A) (A) (A) (A) (A) (A)
                 (A) (A) (A) (A) (A) (A) (A) (A) (A) (A) (A) (A)
                 (A) (A) (A) (A) (A) (A) (A) (A) (A) (A) (A) (A)
                 (A) (A) (A) (A) (A) (A) (A) (A) (A) (A) (A) (A)
                 (A) (A) (A) (A) (A) (A) (A) (A) (A) (A) (A) (A)
                 (A) (A) (A) (A) (A) (A) (A) (A) (A) (A) (A) (A)
                 (A) (A) (A) (A) (A) (A) (A) (A) (A) (A) (A) (A)
                 (A) (A) (A) (A) (A) (A) (A) (A) (A) (A) (A) (A)
                 (A) (A) (A) (A) (A) (A) (A) (A) (A) (A) (A) (A)
                 (A) (A) (A) (A) (A) (A) (A) (A) (A) (A)
 The electronic state is 1-A.
 Alpha  occ. eigenvalues --  -14.84863 -10.66937 -10.66740  -1.03258  -0.89886
 Alpha  occ. eigenvalues --   -0.60320  -0.56673  -0.51955  -0.44889  -0.38797
 Alpha  occ. eigenvalues --   -0.38157
 Alpha virt. eigenvalues --    0.03588   0.06840   0.08192   0.09911   0.11034
 Alpha virt. eigenvalues --    0.11536   0.15213   0.15438   0.17272   0.20106
 Alpha virt. eigenvalues --    0.20313   0.25700   0.31675   0.33767   0.35945
 Alpha virt. eigenvalues --    0.38602   0.39327   0.40724   0.41087   0.47027
 Alpha virt. eigenvalues --    0.48964   0.53376   0.58300   0.60009   0.61591
 Alpha virt. eigenvalues --    0.66161   0.67217   0.70169   0.70237   0.79012
 Alpha virt. eigenvalues --    0.80120   0.82481   0.82739   0.83644   0.86611
 Alpha virt. eigenvalues --    0.90135   0.93269   0.94783   0.95774   0.98668
 Alpha virt. eigenvalues --    1.04859   1.06782   1.09967   1.10635   1.14229
 Alpha virt. eigenvalues --    1.14855   1.22433   1.22667   1.24582   1.33858
 Alpha virt. eigenvalues --    1.35511   1.41526   1.46406   1.49917   1.55103
 Alpha virt. eigenvalues --    1.63114   1.67131   1.72092   1.73755   1.77551
 Alpha virt. eigenvalues --    1.77910   1.80512   1.86855   1.90809   1.92638
 Alpha virt. eigenvalues --    1.94864   1.98223   1.99367   2.01307   2.01810
 Alpha virt. eigenvalues --    2.07287   2.10863   2.14223   2.19842   2.20304
 Alpha virt. eigenvalues --    2.22051   2.25379   2.30383   2.33175   2.38229
 Alpha virt. eigenvalues --    2.43511   2.49520   2.51846   2.54207   2.58484
 Alpha virt. eigenvalues --    2.62101   2.65619   2.66883   2.70254   2.73161
 Alpha virt. eigenvalues --    2.74963   2.78067   2.85899   2.86866   2.90130
 Alpha virt. eigenvalues --    2.93887   2.95617   2.98342   2.99973   3.07628
 Alpha virt. eigenvalues --    3.10768   3.13925   3.21043   3.21666   3.27151
 Alpha virt. eigenvalues --    3.34691   3.40129   3.43741   3.46718   3.49153
 Alpha virt. eigenvalues --    3.57476   3.59650   3.69516   3.73102   3.78719
 Alpha virt. eigenvalues --    3.91117   3.91817   3.96639   3.96914   4.00704
 Alpha virt. eigenvalues --    4.01544   4.05866   4.07903   4.21975   4.24673
 Alpha virt. eigenvalues --    4.53973   4.91379   4.91419   5.00327   5.04359
 Alpha virt. eigenvalues --    5.06957   5.10555   5.17398   5.24439   5.31396
 Alpha virt. eigenvalues --    5.36920   5.41891   5.50075   5.51896   5.60543
 Alpha virt. eigenvalues --    5.70061   5.82760   5.85398   5.86154   5.91918
 Alpha virt. eigenvalues --    5.94287   5.96623   5.99553   6.00465   6.03244
 Alpha virt. eigenvalues --    6.06208   6.07779   6.08630   6.09559   6.14876
 Alpha virt. eigenvalues --    6.17851   6.20378   6.22424   6.27196   6.29893
 Alpha virt. eigenvalues --    6.37739   6.42596   6.54850   6.58347   6.63027
 Alpha virt. eigenvalues --    6.67966   6.73485   6.82731   6.87691   6.95077
 Alpha virt. eigenvalues --    7.00397   7.02141   7.02295   7.04186   7.06611
 Alpha virt. eigenvalues --    7.10682   7.20892   7.33871   7.43492   7.45778
 Alpha virt. eigenvalues --    7.47865   7.51739   7.55628   7.59816   7.63202
 Alpha virt. eigenvalues --    7.63869   7.70491   7.76374   7.80213   7.83870
 Alpha virt. eigenvalues --    7.86719   7.92394   7.96705   8.09065   8.22119
 Alpha virt. eigenvalues --    8.26719   8.32028   8.36771   8.42084   8.44925
 Alpha virt. eigenvalues --    8.47264   8.50580   8.53910   8.58511   8.61972
 Alpha virt. eigenvalues --    8.65603   8.66194   8.66644   8.67527   8.72198
 Alpha virt. eigenvalues --    8.74258   8.77641   8.84568   8.96893   9.04189
 Alpha virt. eigenvalues --    9.09591   9.11202   9.11791   9.24105   9.24595
 Alpha virt. eigenvalues --    9.33686   9.43412   9.63137   9.65924   9.75096
 Alpha virt. eigenvalues --    9.80417   9.85654   9.90104  10.07461  10.08861
 Alpha virt. eigenvalues --   10.11754  10.22198  10.32837  10.57264  10.65209
 Alpha virt. eigenvalues --   10.77805  11.02417  11.30382  11.34490  11.79652
 Alpha virt. eigenvalues --   11.85528  11.90181  13.07141  13.46591  29.17197
 Alpha virt. eigenvalues --   29.56053  38.24230 148.83463 149.19452 198.14794
          Condensed to atoms (all electrons):
               1          2          3          4          5          6
     1  C    4.605277   0.296363  -0.060211   0.411065   0.403027   0.425677
     2  C    0.296363   4.862968   0.964308  -0.049199  -0.039313  -0.041079
     3  N   -0.060211   0.964308   6.315720  -0.000121  -0.001102  -0.001137
     4  H    0.411065  -0.049199  -0.000121   0.601542  -0.032630  -0.030528
     5  H    0.403027  -0.039313  -0.001102  -0.032630   0.614460  -0.028791
     6  H    0.425677  -0.041079  -0.001137  -0.030528  -0.028791   0.567381
 Mulliken charges:
               1
     1  C   -0.081197
     2  C    0.005954
     3  N   -0.217456
     4  H    0.099872
     5  H    0.084350
     6  H    0.108478
 Sum of Mulliken charges =   0.00000
 Mulliken charges with hydrogens summed into heavy atoms:
               1
     1  C    0.211503
     2  C    0.005954
     3  N   -0.217456
 Electronic spatial extent (au):  <R**2>=            162.3571
 Charge=              0.0000 electrons
 Dipole moment (field-independent basis, Debye):
    X=             -4.1445    Y=             -0.0472    Z=              0.0590  Tot=              4.1451
 Quadrupole moment (field-independent basis, Debye-Ang):
   XX=            -21.0197   YY=            -17.6324   ZZ=            -17.9901
   XY=             -0.0055   XZ=              0.0951   YZ=             -0.1541
 Traceless Quadrupole moment (field-independent basis, Debye-Ang):
   XX=             -2.1389   YY=              1.2483   ZZ=              0.8906
   XY=             -0.0055   XZ=              0.0951   YZ=             -0.1541
 Octapole moment (field-independent basis, Debye-Ang**2):
  XXX=            -12.9583  YYY=              0.7646  ZZZ=              0.6823  XYY=             -2.6430
  XXY=              0.0898  XXZ=             -0.2026  XZZ=             -2.0424  YZZ=             -0.4081
  YYZ=             -0.5357  XYZ=              0.1527
 Hexadecapole moment (field-independent basis, Debye-Ang**3):
 XXXX=           -182.9461 YYYY=            -24.9323 ZZZZ=            -24.7513 XXXY=             -0.5265
 XXXZ=              0.4998 YYYX=             -0.8652 YYYZ=             -0.2554 ZZZX=             -1.0941
 ZZZY=             -0.4138 XXYY=            -30.7890 XXZZ=            -31.8975 YYZZ=             -8.1226
 XXYZ=             -0.2532 YYXZ=              0.9162 ZZXY=              0.8086
 N-N= 5.834460891627D+01 E-N=-4.252307359743D+02  KE= 1.320344520103D+02
 Leave Link  601 at Wed Aug 26 22:06:42 2020, MaxMem=  2097152000 cpu:         0.4
 (Enter /opt/cluster/programs/g09/g09_d.01/g09/l9999.exe)
 1\1\GINC-NODE03\SP\RB2PLYPD3-FC\def2QZVP\C2H3N1\BOITTIER\26-Aug-2020\0
 \\#p B2PLYPD3/Def2QZVP\\cyanomethane\\0,1\C,0,-6.612564,-1.077173,1.16
 1325\C,0,-5.193273,-0.842905,0.937127\N,0,-4.09157,-0.511647,0.685151\
 H,0,-6.675656,-1.333899,2.159852\H,0,-6.907643,-2.088304,0.64412\H,0,-
 7.225491,-0.328575,0.844288\\Version=ES64L-G09RevD.01\State=1-A\HF=-13
 2.5197391\MP2=-132.7023845\RMSD=1.665e-09\PG=C01 [X(C2H3N1)]\\@


 EDUCATION DOESN'T COST 
           ... IT PAYS!

 -- POSTMARK, UNIV. OF MISSISSIPPI, DEC 78
 Job cpu time:       0 days  0 hours  3 minutes 48.9 seconds.
 File lengths (MBytes):  RWF=     28 Int=      0 D2E=      0 Chk=      5 Scr=      1
 Normal termination of Gaussian 09 at Wed Aug 26 22:06:42 2020.
