 Entering Gaussian System, Link 0=/opt/cluster/programs/g09/g09_d.01/g09//g09
 Input=/home/boittier/MDCM/nms_sampling/cyanomethane_geom.xyz.dir/energies/cyanomethane_192_energy.com
 Output=/scratch/boittier/cyanomethane_192_energy/cyanomethane_192_energy.out
 Initial command:
 /opt/cluster/programs/g09/g09_d.01/g09/l1.exe "/scratch/boittier/cyanomethane_192_energy/Gau-119472.inp" -scrdir="/scratch/boittier/cyanomethane_192_energy/"
 Entering Link 1 = /opt/cluster/programs/g09/g09_d.01/g09/l1.exe PID=    119473.
  
 Copyright (c) 1988,1990,1992,1993,1995,1998,2003,2009,2013,
            Gaussian, Inc.  All Rights Reserved.
  
 This is part of the Gaussian(R) 09 program.  It is based on
 the Gaussian(R) 03 system (copyright 2003, Gaussian, Inc.),
 the Gaussian(R) 98 system (copyright 1998, Gaussian, Inc.),
 the Gaussian(R) 94 system (copyright 1995, Gaussian, Inc.),
 the Gaussian 92(TM) system (copyright 1992, Gaussian, Inc.),
 the Gaussian 90(TM) system (copyright 1990, Gaussian, Inc.),
 the Gaussian 88(TM) system (copyright 1988, Gaussian, Inc.),
 the Gaussian 86(TM) system (copyright 1986, Carnegie Mellon
 University), and the Gaussian 82(TM) system (copyright 1983,
 Carnegie Mellon University). Gaussian is a federally registered
 trademark of Gaussian, Inc.
  
 This software contains proprietary and confidential information,
 including trade secrets, belonging to Gaussian, Inc.
  
 This software is provided under written license and may be
 used, copied, transmitted, or stored only in accord with that
 written license.
  
 The following legend is applicable only to US Government
 contracts under FAR:
  
                    RESTRICTED RIGHTS LEGEND
  
 Use, reproduction and disclosure by the US Government is
 subject to restrictions as set forth in subparagraphs (a)
 and (c) of the Commercial Computer Software - Restricted
 Rights clause in FAR 52.227-19.
  
 Gaussian, Inc.
 340 Quinnipiac St., Bldg. 40, Wallingford CT 06492
  
  
 ---------------------------------------------------------------
 Warning -- This program may not be used in any manner that
 competes with the business of Gaussian, Inc. or will provide
 assistance to any competitor of Gaussian, Inc.  The licensee
 of this program is prohibited from giving any competitor of
 Gaussian, Inc. access to this program.  By using this program,
 the user acknowledges that Gaussian, Inc. is engaged in the
 business of creating and licensing software in the field of
 computational chemistry and represents and warrants to the
 licensee that it is not a competitor of Gaussian, Inc. and that
 it will not use this program in any manner prohibited above.
 ---------------------------------------------------------------
  

 Cite this work as:
 Gaussian 09, Revision D.01,
 M. J. Frisch, G. W. Trucks, H. B. Schlegel, G. E. Scuseria, 
 M. A. Robb, J. R. Cheeseman, G. Scalmani, V. Barone, B. Mennucci, 
 G. A. Petersson, H. Nakatsuji, M. Caricato, X. Li, H. P. Hratchian, 
 A. F. Izmaylov, J. Bloino, G. Zheng, J. L. Sonnenberg, M. Hada, 
 M. Ehara, K. Toyota, R. Fukuda, J. Hasegawa, M. Ishida, T. Nakajima, 
 Y. Honda, O. Kitao, H. Nakai, T. Vreven, J. A. Montgomery, Jr., 
 J. E. Peralta, F. Ogliaro, M. Bearpark, J. J. Heyd, E. Brothers, 
 K. N. Kudin, V. N. Staroverov, T. Keith, R. Kobayashi, J. Normand, 
 K. Raghavachari, A. Rendell, J. C. Burant, S. S. Iyengar, J. Tomasi, 
 M. Cossi, N. Rega, J. M. Millam, M. Klene, J. E. Knox, J. B. Cross, 
 V. Bakken, C. Adamo, J. Jaramillo, R. Gomperts, R. E. Stratmann, 
 O. Yazyev, A. J. Austin, R. Cammi, C. Pomelli, J. W. Ochterski, 
 R. L. Martin, K. Morokuma, V. G. Zakrzewski, G. A. Voth, 
 P. Salvador, J. J. Dannenberg, S. Dapprich, A. D. Daniels, 
 O. Farkas, J. B. Foresman, J. V. Ortiz, J. Cioslowski, 
 and D. J. Fox, Gaussian, Inc., Wallingford CT, 2013.
 
 ******************************************
 Gaussian 09:  ES64L-G09RevD.01 24-Apr-2013
                26-Aug-2020 
 ******************************************
 %chk=/home/boittier/MDCM/nms_sampling/cyanomethane_geom.xyz.dir/cyanomethane_192
 .chk
 %nproc=8
 Will use up to    8 processors via shared memory.
 %mem=16000MB
 --------------------
 #p B2PLYPD3/Def2QZVP
 --------------------
 1/38=1/1;
 2/12=2,17=6,18=5,40=1/2;
 3/5=45,7=101,11=9,16=1,25=1,30=1,74=-60/1,2,3;
 4//1;
 5/5=2,38=5/2;
 8/10=1/1;
 9/16=-3/6;
 6/7=2,8=2,9=2,10=2/1;
 99/5=1,9=1/99;
 Leave Link    1 at Wed Aug 26 14:05:34 2020, MaxMem=  2097152000 cpu:         0.2
 (Enter /opt/cluster/programs/g09/g09_d.01/g09/l101.exe)
 ------------
 cyanomethane
 ------------
 Symbolic Z-matrix:
 Charge =  0 Multiplicity = 1
 C                    -6.59461  -1.11515   1.17931 
 C                    -5.20545  -0.79393   0.88992 
 N                    -4.09652  -0.53597   0.71069 
 H                    -6.74959  -1.21508   2.23663 
 H                    -6.85013  -2.05105   0.6437 
 H                    -7.21097  -0.30796   0.75894 
 
 NAtoms=      6 NQM=        6 NQMF=       0 NMMI=      0 NMMIF=      0
                NMic=       0 NMicF=      0.
                    Isotopes and Nuclear Properties:
 (Nuclear quadrupole moments (NQMom) in fm**2, nuclear magnetic moments (NMagM)
  in nuclear magnetons)

  Atom         1           2           3           4           5           6
 IAtWgt=          12          12          14           1           1           1
 AtmWgt=  12.0000000  12.0000000  14.0030740   1.0078250   1.0078250   1.0078250
 NucSpn=           0           0           2           1           1           1
 AtZEff=   0.0000000   0.0000000   0.0000000   0.0000000   0.0000000   0.0000000
 NQMom=    0.0000000   0.0000000   2.0440000   0.0000000   0.0000000   0.0000000
 NMagM=    0.0000000   0.0000000   0.4037610   2.7928460   2.7928460   2.7928460
 AtZNuc=   6.0000000   6.0000000   7.0000000   1.0000000   1.0000000   1.0000000
 Leave Link  101 at Wed Aug 26 14:05:34 2020, MaxMem=  2097152000 cpu:         0.5
 (Enter /opt/cluster/programs/g09/g09_d.01/g09/l202.exe)
                          Input orientation:                          
 ---------------------------------------------------------------------
 Center     Atomic      Atomic             Coordinates (Angstroms)
 Number     Number       Type             X           Y           Z
 ---------------------------------------------------------------------
      1          6           0       -6.594614   -1.115153    1.179308
      2          6           0       -5.205455   -0.793934    0.889920
      3          7           0       -4.096516   -0.535971    0.710688
      4          1           0       -6.749593   -1.215079    2.236631
      5          1           0       -6.850132   -2.051048    0.643699
      6          1           0       -7.210971   -0.307960    0.758944
 ---------------------------------------------------------------------
                    Distance matrix (angstroms):
                    1          2          3          4          5
     1  C    0.000000
     2  C    1.454885   0.000000
     3  N    2.606828   1.152569   0.000000
     4  H    1.073283   2.091735   3.135045   0.000000
     5  H    1.108181   2.084688   3.143620   1.801773   0.000000
     6  H    1.099164   2.067709   3.123163   1.794239   1.783772
                    6
     6  H    0.000000
 Stoichiometry    C2H3N
 Framework group  C1[X(C2H3N)]
 Deg. of freedom    12
 Full point group                 C1      NOp   1
 Largest Abelian subgroup         C1      NOp   1
 Largest concise Abelian subgroup C1      NOp   1
                         Standard orientation:                         
 ---------------------------------------------------------------------
 Center     Atomic      Atomic             Coordinates (Angstroms)
 Number     Number       Type             X           Y           Z
 ---------------------------------------------------------------------
      1          6           0        1.178255    0.014792   -0.002060
      2          6           0       -0.276272   -0.017281    0.001302
      3          7           0       -1.428563    0.007869   -0.001477
      4          1           0        1.536365    1.006752   -0.201326
      5          1           0        1.536508   -0.704533   -0.765140
      6          1           0        1.515165   -0.342368    0.981348
 ---------------------------------------------------------------------
 Rotational constants (GHZ):    155.5786593      9.3037087      9.2959572
 Leave Link  202 at Wed Aug 26 14:05:34 2020, MaxMem=  2097152000 cpu:         0.0
 (Enter /opt/cluster/programs/g09/g09_d.01/g09/l301.exe)
 Standard basis: def2QZVP (5D, 7F)
 Ernie: Thresh=  0.10000D-02 Tol=  0.10000D-05 Strict=F.
 There are   321 symmetry adapted cartesian basis functions of A   symmetry.
 There are   261 symmetry adapted basis functions of A   symmetry.
   261 basis functions,   390 primitive gaussians,   321 cartesian basis functions
    11 alpha electrons       11 beta electrons
       nuclear repulsion energy        58.6230743203 Hartrees.
 IExCor=  419 DFT=T Ex+Corr=B2PLYPD3 ExCW=0 ScaHFX=  0.530000
 ScaDFX=  0.470000  0.470000  0.730000  0.730000 ScalE2=  0.270000  0.270000
 IRadAn=      0 IRanWt=     -1 IRanGd=            0 ICorTp=0 IEmpDi=141
 NAtoms=    6 NActive=    6 NUniq=    6 SFac= 1.00D+00 NAtFMM=   60 NAOKFM=F Big=F
 Integral buffers will be    131072 words long.
 Regular integral format.
 Two-electron integral symmetry is turned on.
 R6Disp:  Grimme-D3(BJ) Dispersion energy=       -0.0021081291 Hartrees.
 Nuclear repulsion after empirical dispersion term =       58.6209661912 Hartrees.
 Leave Link  301 at Wed Aug 26 14:05:34 2020, MaxMem=  2097152000 cpu:         0.4
 (Enter /opt/cluster/programs/g09/g09_d.01/g09/l302.exe)
 NPDir=0 NMtPBC=     1 NCelOv=     1 NCel=       1 NClECP=     1 NCelD=      1
         NCelK=      1 NCelE2=     1 NClLst=     1 CellRange=     0.0.
 One-electron integrals computed using PRISM.
   1 Symmetry operations used in ECPInt.
 ECPInt:  NShTT=    3321 NPrTT=    8136 LenC2=    3297 LenP2D=    7132.
 LDataN:  DoStor=T MaxTD1= 8 Len=  415
 NBasis=   261 RedAO= T EigKep=  8.15D-05  NBF=   261
 NBsUse=   261 1.00D-06 EigRej= -1.00D+00 NBFU=   261
 Precomputing XC quadrature grid using
 IXCGrd= 4 IRadAn=           0 IRanWt=          -1 IRanGd=           0 AccXCQ= 0.00D+00.
 Generated NRdTot=       0 NPtTot=           0 NUsed=           0 NTot=          32
 NSgBfM=   321   321   321   321   321 MxSgAt=     6 MxSgA2=     6.
 Leave Link  302 at Wed Aug 26 14:05:35 2020, MaxMem=  2097152000 cpu:         2.3
 (Enter /opt/cluster/programs/g09/g09_d.01/g09/l303.exe)
 DipDrv:  MaxL=1.
 Leave Link  303 at Wed Aug 26 14:05:35 2020, MaxMem=  2097152000 cpu:         0.2
 (Enter /opt/cluster/programs/g09/g09_d.01/g09/l401.exe)
 ExpMin= 7.60D-02 ExpMax= 9.07D+04 ExpMxC= 8.76D+02 IAcc=2 IRadAn=         4 AccDes= 0.00D+00
 Harris functional with IExCor=  419 and IRadAn=       4 diagonalized for initial guess.
 HarFok:  IExCor=  419 AccDes= 0.00D+00 IRadAn=         4 IDoV= 1 UseB2=F ITyADJ=14
 ICtDFT=  3500011 ScaDFX=  1.000000  1.000000  1.000000  1.000000
 FoFCou: FMM=F IPFlag=           0 FMFlag=      100000 FMFlg1=           0
         NFxFlg=           0 DoJE=T BraDBF=F KetDBF=T FulRan=T
         wScrn=  0.000000 ICntrl=     500 IOpCl=  0 I1Cent=   200000004 NGrid=           0
         NMat0=    1 NMatS0=      1 NMatT0=    0 NMatD0=    1 NMtDS0=    0 NMtDT0=    0
 Petite list used in FoFCou.
 Harris En= -132.851487137209    
 JPrj=0 DoOrth=F DoCkMO=F.
 Leave Link  401 at Wed Aug 26 14:05:35 2020, MaxMem=  2097152000 cpu:         4.3
 (Enter /opt/cluster/programs/g09/g09_d.01/g09/l502.exe)
 Closed shell SCF:
 Using DIIS extrapolation, IDIIS=  1040.
 Integral symmetry usage will be decided dynamically.
 Keep R1 ints in memory in canonical form, NReq=601554820.
 IVT=      332521 IEndB=      332521 NGot=  2097152000 MDV=  1512290144
 LenX=  1512290144 LenY=  1512186662
 Requested convergence on RMS density matrix=1.00D-08 within 128 cycles.
 Requested convergence on MAX density matrix=1.00D-06.
 Requested convergence on             energy=1.00D-06.
 No special actions if energy rises.
 FoFCou: FMM=F IPFlag=           0 FMFlag=           0 FMFlg1=           0
         NFxFlg=           0 DoJE=F BraDBF=F KetDBF=F FulRan=T
         wScrn=  0.000000 ICntrl=     600 IOpCl=  0 I1Cent=           0 NGrid=           0
         NMat0=    1 NMatS0=  34191 NMatT0=    0 NMatD0=    1 NMtDS0=    0 NMtDT0=    0
 Symmetry not used in FoFCou.
 Integral accuracy reduced to 1.0D-05 until final iterations.

 Cycle   1  Pass 0  IDiag  1:
 E= -132.421558660777    
 DIIS: error= 2.56D-02 at cycle   1 NSaved=   1.
 NSaved= 1 IEnMin= 1 EnMin= -132.421558660777     IErMin= 1 ErrMin= 2.56D-02
 ErrMax= 2.56D-02  0.00D+00 EMaxC= 1.00D-01 BMatC= 1.90D-01 BMatP= 1.90D-01
 IDIUse=3 WtCom= 7.44D-01 WtEn= 2.56D-01
 Coeff-Com:  0.100D+01
 Coeff-En:   0.100D+01
 Coeff:      0.100D+01
 Gap=     0.462 Goal=   None    Shift=    0.000
 GapD=    0.462 DampG=2.000 DampE=0.500 DampFc=1.0000 IDamp=-1.
 RMSDP=1.30D-03 MaxDP=6.88D-02              OVMax= 1.65D-01

 Cycle   2  Pass 0  IDiag  1:
 E= -132.454148098175     Delta-E=       -0.032589437397 Rises=F Damp=F
 DIIS: error= 3.47D-02 at cycle   2 NSaved=   2.
 NSaved= 2 IEnMin= 2 EnMin= -132.454148098175     IErMin= 1 ErrMin= 2.56D-02
 ErrMax= 3.47D-02  0.00D+00 EMaxC= 1.00D-01 BMatC= 9.52D-02 BMatP= 1.90D-01
 IDIUse=3 WtCom= 6.53D-01 WtEn= 3.47D-01
 Coeff-Com:  0.398D+00 0.602D+00
 Coeff-En:   0.399D+00 0.601D+00
 Coeff:      0.398D+00 0.602D+00
 Gap=     0.435 Goal=   None    Shift=    0.000
 RMSDP=8.56D-04 MaxDP=3.42D-02 DE=-3.26D-02 OVMax= 1.22D-01

 Cycle   3  Pass 0  IDiag  1:
 E= -132.518895332591     Delta-E=       -0.064747234416 Rises=F Damp=F
 DIIS: error= 1.40D-02 at cycle   3 NSaved=   3.
 NSaved= 3 IEnMin= 3 EnMin= -132.518895332591     IErMin= 3 ErrMin= 1.40D-02
 ErrMax= 1.40D-02  0.00D+00 EMaxC= 1.00D-01 BMatC= 1.96D-02 BMatP= 9.52D-02
 IDIUse=3 WtCom= 8.60D-01 WtEn= 1.40D-01
 Coeff-Com:  0.949D-01 0.323D+00 0.582D+00
 Coeff-En:   0.000D+00 0.123D+00 0.877D+00
 Coeff:      0.816D-01 0.295D+00 0.623D+00
 Gap=     0.427 Goal=   None    Shift=    0.000
 RMSDP=2.67D-04 MaxDP=9.65D-03 DE=-6.47D-02 OVMax= 5.86D-02

 Cycle   4  Pass 0  IDiag  1:
 E= -132.532385679146     Delta-E=       -0.013490346555 Rises=F Damp=F
 DIIS: error= 5.11D-03 at cycle   4 NSaved=   4.
 NSaved= 4 IEnMin= 4 EnMin= -132.532385679146     IErMin= 4 ErrMin= 5.11D-03
 ErrMax= 5.11D-03  0.00D+00 EMaxC= 1.00D-01 BMatC= 2.95D-03 BMatP= 1.96D-02
 IDIUse=3 WtCom= 9.49D-01 WtEn= 5.11D-02
 Coeff-Com: -0.127D-01 0.533D-01 0.328D+00 0.632D+00
 Coeff-En:   0.000D+00 0.000D+00 0.139D+00 0.861D+00
 Coeff:     -0.120D-01 0.506D-01 0.318D+00 0.643D+00
 Gap=     0.427 Goal=   None    Shift=    0.000
 RMSDP=9.01D-05 MaxDP=2.78D-03 DE=-1.35D-02 OVMax= 1.54D-02

 Cycle   5  Pass 0  IDiag  1:
 E= -132.534933916104     Delta-E=       -0.002548236958 Rises=F Damp=F
 DIIS: error= 3.13D-04 at cycle   5 NSaved=   5.
 NSaved= 5 IEnMin= 5 EnMin= -132.534933916104     IErMin= 5 ErrMin= 3.13D-04
 ErrMax= 3.13D-04  0.00D+00 EMaxC= 1.00D-01 BMatC= 1.31D-05 BMatP= 2.95D-03
 IDIUse=3 WtCom= 9.97D-01 WtEn= 3.13D-03
 Coeff-Com: -0.341D-02 0.532D-02 0.469D-01 0.139D+00 0.813D+00
 Coeff-En:   0.000D+00 0.000D+00 0.000D+00 0.000D+00 0.100D+01
 Coeff:     -0.340D-02 0.531D-02 0.467D-01 0.138D+00 0.813D+00
 Gap=     0.426 Goal=   None    Shift=    0.000
 RMSDP=8.42D-06 MaxDP=3.22D-04 DE=-2.55D-03 OVMax= 1.20D-03

 Initial convergence to 1.0D-05 achieved.  Increase integral accuracy.
 Cycle   6  Pass 1  IDiag  1:
 E= -132.534950584892     Delta-E=       -0.000016668787 Rises=F Damp=F
 DIIS: error= 9.41D-05 at cycle   1 NSaved=   1.
 NSaved= 1 IEnMin= 1 EnMin= -132.534950584892     IErMin= 1 ErrMin= 9.41D-05
 ErrMax= 9.41D-05  0.00D+00 EMaxC= 1.00D-01 BMatC= 6.49D-07 BMatP= 6.49D-07
 IDIUse=1 WtCom= 1.00D+00 WtEn= 0.00D+00
 Coeff-Com:  0.100D+01
 Coeff:      0.100D+01
 Gap=     0.427 Goal=   None    Shift=    0.000
 RMSDP=8.42D-06 MaxDP=3.22D-04 DE=-1.67D-05 OVMax= 4.10D-04

 Cycle   7  Pass 1  IDiag  1:
 E= -132.534950969711     Delta-E=       -0.000000384819 Rises=F Damp=F
 DIIS: error= 3.92D-05 at cycle   2 NSaved=   2.
 NSaved= 2 IEnMin= 2 EnMin= -132.534950969711     IErMin= 2 ErrMin= 3.92D-05
 ErrMax= 3.92D-05  0.00D+00 EMaxC= 1.00D-01 BMatC= 2.97D-07 BMatP= 6.49D-07
 IDIUse=1 WtCom= 1.00D+00 WtEn= 0.00D+00
 Coeff-Com:  0.396D+00 0.604D+00
 Coeff:      0.396D+00 0.604D+00
 Gap=     0.427 Goal=   None    Shift=    0.000
 RMSDP=1.02D-06 MaxDP=4.08D-05 DE=-3.85D-07 OVMax= 1.72D-04

 Cycle   8  Pass 1  IDiag  1:
 E= -132.534951229196     Delta-E=       -0.000000259485 Rises=F Damp=F
 DIIS: error= 1.57D-05 at cycle   3 NSaved=   3.
 NSaved= 3 IEnMin= 3 EnMin= -132.534951229196     IErMin= 3 ErrMin= 1.57D-05
 ErrMax= 1.57D-05  0.00D+00 EMaxC= 1.00D-01 BMatC= 1.99D-08 BMatP= 2.97D-07
 IDIUse=1 WtCom= 1.00D+00 WtEn= 0.00D+00
 Coeff-Com:  0.104D+00 0.238D+00 0.658D+00
 Coeff:      0.104D+00 0.238D+00 0.658D+00
 Gap=     0.427 Goal=   None    Shift=    0.000
 RMSDP=5.74D-07 MaxDP=2.58D-05 DE=-2.59D-07 OVMax= 5.92D-05

 Cycle   9  Pass 1  IDiag  1:
 E= -132.534951240882     Delta-E=       -0.000000011687 Rises=F Damp=F
 DIIS: error= 9.59D-06 at cycle   4 NSaved=   4.
 NSaved= 4 IEnMin= 4 EnMin= -132.534951240882     IErMin= 4 ErrMin= 9.59D-06
 ErrMax= 9.59D-06  0.00D+00 EMaxC= 1.00D-01 BMatC= 7.14D-09 BMatP= 1.99D-08
 IDIUse=1 WtCom= 1.00D+00 WtEn= 0.00D+00
 Coeff-Com: -0.589D-01-0.353D-01 0.409D+00 0.686D+00
 Coeff:     -0.589D-01-0.353D-01 0.409D+00 0.686D+00
 Gap=     0.427 Goal=   None    Shift=    0.000
 RMSDP=2.82D-07 MaxDP=1.34D-05 DE=-1.17D-08 OVMax= 3.66D-05

 Cycle  10  Pass 1  IDiag  1:
 E= -132.534951247585     Delta-E=       -0.000000006702 Rises=F Damp=F
 DIIS: error= 1.08D-06 at cycle   5 NSaved=   5.
 NSaved= 5 IEnMin= 5 EnMin= -132.534951247585     IErMin= 5 ErrMin= 1.08D-06
 ErrMax= 1.08D-06  0.00D+00 EMaxC= 1.00D-01 BMatC= 9.71D-11 BMatP= 7.14D-09
 IDIUse=1 WtCom= 1.00D+00 WtEn= 0.00D+00
 Coeff-Com: -0.213D-01-0.200D-01 0.829D-01 0.200D+00 0.758D+00
 Coeff:     -0.213D-01-0.200D-01 0.829D-01 0.200D+00 0.758D+00
 Gap=     0.427 Goal=   None    Shift=    0.000
 RMSDP=4.53D-08 MaxDP=2.25D-06 DE=-6.70D-09 OVMax= 3.46D-06

 Cycle  11  Pass 1  IDiag  1:
 E= -132.534951247674     Delta-E=       -0.000000000089 Rises=F Damp=F
 DIIS: error= 2.70D-07 at cycle   6 NSaved=   6.
 NSaved= 6 IEnMin= 6 EnMin= -132.534951247674     IErMin= 6 ErrMin= 2.70D-07
 ErrMax= 2.70D-07  0.00D+00 EMaxC= 1.00D-01 BMatC= 5.48D-12 BMatP= 9.71D-11
 IDIUse=1 WtCom= 1.00D+00 WtEn= 0.00D+00
 Coeff-Com:  0.262D-02 0.516D-03-0.304D-01-0.269D-01 0.123D+00 0.931D+00
 Coeff:      0.262D-02 0.516D-03-0.304D-01-0.269D-01 0.123D+00 0.931D+00
 Gap=     0.427 Goal=   None    Shift=    0.000
 RMSDP=1.07D-08 MaxDP=4.42D-07 DE=-8.94D-11 OVMax= 1.34D-06

 Cycle  12  Pass 1  IDiag  1:
 E= -132.534951247681     Delta-E=       -0.000000000007 Rises=F Damp=F
 DIIS: error= 8.24D-08 at cycle   7 NSaved=   7.
 NSaved= 7 IEnMin= 7 EnMin= -132.534951247681     IErMin= 7 ErrMin= 8.24D-08
 ErrMax= 8.24D-08  0.00D+00 EMaxC= 1.00D-01 BMatC= 2.26D-13 BMatP= 5.48D-12
 IDIUse=1 WtCom= 1.00D+00 WtEn= 0.00D+00
 Coeff-Com:  0.461D-03 0.756D-03 0.114D-02-0.175D-02-0.484D-01-0.152D+00
 Coeff-Com:  0.120D+01
 Coeff:      0.461D-03 0.756D-03 0.114D-02-0.175D-02-0.484D-01-0.152D+00
 Coeff:      0.120D+01
 Gap=     0.427 Goal=   None    Shift=    0.000
 RMSDP=2.77D-09 MaxDP=9.47D-08 DE=-6.93D-12 OVMax= 6.26D-07

 SCF Done:  E(RB2PLYPD3) =  -132.534951248     A.U. after   12 cycles
            NFock= 12  Conv=0.28D-08     -V/T= 2.0036
 KE= 1.320543608324D+02 PE=-4.258638783409D+02 EE= 1.026536000697D+02
 Leave Link  502 at Wed Aug 26 14:05:59 2020, MaxMem=  2097152000 cpu:       109.9
 (Enter /opt/cluster/programs/g09/g09_d.01/g09/l801.exe)
 DoSCS=T DFT=T ScalE2(SS,OS)=  0.270000  0.270000
 ExpMin= 7.60D-02 ExpMax= 9.07D+04 ExpMxC= 8.76D+02 IAcc=3 IRadAn=         5 AccDes= 0.00D+00
 HarFok:  IExCor=  205 AccDes= 0.00D+00 IRadAn=         5 IDoV=-2 UseB2=F ITyADJ=14
 ICtDFT= 12500011 ScaDFX=  1.000000  1.000000  1.000000  1.000000
 Largest valence mixing into a core orbital is  1.16D-04
 Largest core mixing into a valence orbital is  1.92D-05
 Range of M.O.s used for correlation:     4   261
 NBasis=   261 NAE=    11 NBE=    11 NFC=     3 NFV=     0
 NROrb=    258 NOA=     8 NOB=     8 NVA=   250 NVB=   250

 **** Warning!!: The largest alpha MO coefficient is  0.30012119D+02

 Leave Link  801 at Wed Aug 26 14:05:59 2020, MaxMem=  2097152000 cpu:         0.8
 (Enter /opt/cluster/programs/g09/g09_d.01/g09/l906.exe)
 DoSCS=T DFT=T ScalE2(SS,OS)=  0.270000  0.270000
 FulOut=F Deriv=F AODrv=F NAtomX=     6
   MMem=        2666  MDisk=           8 MDiskD=           8
  W3Min=      642000 MinDsk=     1426009 NBas6D=         321
 NBas2D=       52689    NTT=       51681    LW2=     4508827
    MDV=  2096809321 MDiskM=       14501 NBas2p=       52131
 Fully direct method using O(OVN) memory.
 IMap=   1   2   3   4   5   6   7   8
 JobTyp=1 Pass  1:  I=   1 to   8 NPSUse=  8 ParTrn=T ParDer=T DoDerP=F.
 Spin components of T(2) and E(2):
     alpha-alpha T2 =       0.3561115121D-01 E2=     -0.2140286739D-01
     alpha-beta  T2 =       0.2081890461D+00 E2=     -0.1375292183D+00
     beta-beta   T2 =       0.3561115121D-01 E2=     -0.2140286739D-01
 The integrals were generated   1 times.
 E2(B2PLYPD3) =    -0.1803349531D+00 E(B2PLYPD3) =    -0.13271528620074D+03
 Leave Link  906 at Wed Aug 26 14:06:14 2020, MaxMem=  2097152000 cpu:       119.8
 (Enter /opt/cluster/programs/g09/g09_d.01/g09/l601.exe)
 Copying SCF densities to generalized density rwf, IOpCl= 0 IROHF=0.

 **********************************************************************

            Population analysis using the SCF density.

 **********************************************************************

 Orbital symmetries:
       Occupied  (A) (A) (A) (A) (A) (A) (A) (A) (A) (A) (A)
       Virtual   (A) (A) (A) (A) (A) (A) (A) (A) (A) (A) (A) (A)
                 (A) (A) (A) (A) (A) (A) (A) (A) (A) (A) (A) (A)
                 (A) (A) (A) (A) (A) (A) (A) (A) (A) (A) (A) (A)
                 (A) (A) (A) (A) (A) (A) (A) (A) (A) (A) (A) (A)
                 (A) (A) (A) (A) (A) (A) (A) (A) (A) (A) (A) (A)
                 (A) (A) (A) (A) (A) (A) (A) (A) (A) (A) (A) (A)
                 (A) (A) (A) (A) (A) (A) (A) (A) (A) (A) (A) (A)
                 (A) (A) (A) (A) (A) (A) (A) (A) (A) (A) (A) (A)
                 (A) (A) (A) (A) (A) (A) (A) (A) (A) (A) (A) (A)
                 (A) (A) (A) (A) (A) (A) (A) (A) (A) (A) (A) (A)
                 (A) (A) (A) (A) (A) (A) (A) (A) (A) (A) (A) (A)
                 (A) (A) (A) (A) (A) (A) (A) (A) (A) (A) (A) (A)
                 (A) (A) (A) (A) (A) (A) (A) (A) (A) (A) (A) (A)
                 (A) (A) (A) (A) (A) (A) (A) (A) (A) (A) (A) (A)
                 (A) (A) (A) (A) (A) (A) (A) (A) (A) (A) (A) (A)
                 (A) (A) (A) (A) (A) (A) (A) (A) (A) (A) (A) (A)
                 (A) (A) (A) (A) (A) (A) (A) (A) (A) (A) (A) (A)
                 (A) (A) (A) (A) (A) (A) (A) (A) (A) (A) (A) (A)
                 (A) (A) (A) (A) (A) (A) (A) (A) (A) (A) (A) (A)
                 (A) (A) (A) (A) (A) (A) (A) (A) (A) (A) (A) (A)
                 (A) (A) (A) (A) (A) (A) (A) (A) (A) (A)
 The electronic state is 1-A.
 Alpha  occ. eigenvalues --  -14.84034 -10.67242 -10.66079  -1.04144  -0.89253
 Alpha  occ. eigenvalues --   -0.59250  -0.54628  -0.53545  -0.44689  -0.39123
 Alpha  occ. eigenvalues --   -0.38920
 Alpha virt. eigenvalues --    0.03744   0.07934   0.08038   0.10158   0.11403
 Alpha virt. eigenvalues --    0.11600   0.15372   0.15799   0.16508   0.20069
 Alpha virt. eigenvalues --    0.20127   0.25396   0.32723   0.34028   0.34958
 Alpha virt. eigenvalues --    0.38586   0.39728   0.40192   0.40423   0.47006
 Alpha virt. eigenvalues --    0.50664   0.51955   0.59194   0.59928   0.61389
 Alpha virt. eigenvalues --    0.66869   0.66944   0.68737   0.70360   0.79158
 Alpha virt. eigenvalues --    0.79540   0.82277   0.82549   0.83303   0.86691
 Alpha virt. eigenvalues --    0.91719   0.93582   0.96229   0.96688   0.97633
 Alpha virt. eigenvalues --    1.06088   1.06935   1.07752   1.11652   1.13683
 Alpha virt. eigenvalues --    1.14162   1.23010   1.23212   1.23310   1.35303
 Alpha virt. eigenvalues --    1.35868   1.45198   1.46900   1.47474   1.53868
 Alpha virt. eigenvalues --    1.65042   1.66612   1.70113   1.73991   1.78418
 Alpha virt. eigenvalues --    1.78534   1.79656   1.88334   1.92569   1.93532
 Alpha virt. eigenvalues --    1.94254   1.99283   1.99743   2.00921   2.03908
 Alpha virt. eigenvalues --    2.06590   2.12072   2.13024   2.19587   2.21210
 Alpha virt. eigenvalues --    2.22200   2.23724   2.24432   2.34810   2.36864
 Alpha virt. eigenvalues --    2.42911   2.51374   2.51626   2.57182   2.59385
 Alpha virt. eigenvalues --    2.60180   2.67324   2.70329   2.71924   2.73809
 Alpha virt. eigenvalues --    2.76736   2.77749   2.87734   2.88192   2.90073
 Alpha virt. eigenvalues --    2.91625   2.94240   2.95103   2.96466   3.04709
 Alpha virt. eigenvalues --    3.10958   3.11471   3.21536   3.26014   3.31881
 Alpha virt. eigenvalues --    3.35491   3.37056   3.40934   3.41449   3.46768
 Alpha virt. eigenvalues --    3.55833   3.57019   3.70596   3.73623   3.76151
 Alpha virt. eigenvalues --    3.88873   3.90638   3.91678   3.95106   3.96412
 Alpha virt. eigenvalues --    4.02381   4.05142   4.05480   4.25693   4.26467
 Alpha virt. eigenvalues --    4.56524   4.91204   4.91327   5.07769   5.10795
 Alpha virt. eigenvalues --    5.11854   5.17306   5.20548   5.21212   5.24871
 Alpha virt. eigenvalues --    5.30499   5.44902   5.45968   5.46724   5.65441
 Alpha virt. eigenvalues --    5.67670   5.85805   5.86363   5.91257   5.93042
 Alpha virt. eigenvalues --    5.93706   5.96683   5.99336   6.00548   6.01740
 Alpha virt. eigenvalues --    6.03317   6.04842   6.04995   6.07722   6.13226
 Alpha virt. eigenvalues --    6.16501   6.20111   6.21627   6.27602   6.30450
 Alpha virt. eigenvalues --    6.39887   6.42530   6.47020   6.56379   6.60909
 Alpha virt. eigenvalues --    6.62303   6.63811   6.90026   6.93289   6.96460
 Alpha virt. eigenvalues --    6.97769   7.02811   7.02819   7.06069   7.12573
 Alpha virt. eigenvalues --    7.16157   7.22235   7.25799   7.40338   7.45388
 Alpha virt. eigenvalues --    7.48966   7.51949   7.55477   7.56986   7.58920
 Alpha virt. eigenvalues --    7.67454   7.72359   7.72550   7.84085   7.85242
 Alpha virt. eigenvalues --    7.86591   7.90951   7.97412   7.99184   8.29106
 Alpha virt. eigenvalues --    8.30880   8.34159   8.40975   8.41700   8.43657
 Alpha virt. eigenvalues --    8.47769   8.48744   8.49383   8.53307   8.57867
 Alpha virt. eigenvalues --    8.59250   8.65772   8.66762   8.66964   8.67584
 Alpha virt. eigenvalues --    8.70318   8.81377   8.86039   8.87461   9.01001
 Alpha virt. eigenvalues --    9.07569   9.11915   9.14279   9.14689   9.16726
 Alpha virt. eigenvalues --    9.26022   9.27158   9.73571   9.74936   9.83007
 Alpha virt. eigenvalues --    9.85887   9.90497   9.93025   9.95365  10.05120
 Alpha virt. eigenvalues --   10.14326  10.16317  10.17752  10.32775  10.34346
 Alpha virt. eigenvalues --   10.49059  10.63530  11.38344  11.73335  11.86367
 Alpha virt. eigenvalues --   12.02743  12.03682  13.12744  13.52588  29.17436
 Alpha virt. eigenvalues --   29.56984  38.32923 148.82606 149.20478 198.25033
          Condensed to atoms (all electrons):
               1          2          3          4          5          6
     1  C    4.616178   0.296457  -0.059238   0.416962   0.411394   0.411638
     2  C    0.296457   4.850413   0.989614  -0.043328  -0.044525  -0.046155
     3  N   -0.059238   0.989614   6.278209  -0.000950  -0.000767  -0.000814
     4  H    0.416962  -0.043328  -0.000950   0.580010  -0.028493  -0.028545
     5  H    0.411394  -0.044525  -0.000767  -0.028493   0.592900  -0.028910
     6  H    0.411638  -0.046155  -0.000814  -0.028545  -0.028910   0.593610
 Mulliken charges:
               1
     1  C   -0.093390
     2  C   -0.002476
     3  N   -0.206054
     4  H    0.104343
     5  H    0.098400
     6  H    0.099176
 Sum of Mulliken charges =   0.00000
 Mulliken charges with hydrogens summed into heavy atoms:
               1
     1  C    0.208530
     2  C   -0.002476
     3  N   -0.206054
 Electronic spatial extent (au):  <R**2>=            161.0093
 Charge=              0.0000 electrons
 Dipole moment (field-independent basis, Debye):
    X=              4.1106    Y=             -0.0196    Z=              0.0078  Tot=              4.1107
 Quadrupole moment (field-independent basis, Debye-Ang):
   XX=            -21.1740   YY=            -17.6356   ZZ=            -17.7590
   XY=              0.0264   XZ=             -0.0122   YZ=             -0.0212
 Traceless Quadrupole moment (field-independent basis, Debye-Ang):
   XX=             -2.3178   YY=              1.2206   ZZ=              1.0972
   XY=              0.0264   XZ=             -0.0122   YZ=             -0.0212
 Octapole moment (field-independent basis, Debye-Ang**2):
  XXX=             12.3649  YYY=              0.7572  ZZZ=              0.4991  XYY=              2.3656
  XXY=              0.0757  XXZ=             -0.0503  XZZ=              2.1620  YZZ=             -0.6750
  YYZ=             -0.4763  XYZ=             -0.0226
 Hexadecapole moment (field-independent basis, Debye-Ang**3):
 XXXX=           -181.9578 YYYY=            -24.6242 ZZZZ=            -24.8181 XXXY=              0.3177
 XXXZ=             -0.1352 YYYX=              1.1600 YYYZ=             -0.0079 ZZZX=              0.7968
 ZZZY=             -0.0859 XXYY=            -30.7450 XXZZ=            -31.1580 YYZZ=             -8.1996
 XXYZ=             -0.0388 YYXZ=             -0.7914 ZZXY=             -1.1371
 N-N= 5.862096619117D+01 E-N=-4.258638792625D+02  KE= 1.320543608324D+02
 Leave Link  601 at Wed Aug 26 14:06:14 2020, MaxMem=  2097152000 cpu:         0.4
 (Enter /opt/cluster/programs/g09/g09_d.01/g09/l9999.exe)
 1\1\GINC-NODE15\SP\RB2PLYPD3-FC\def2QZVP\C2H3N1\BOITTIER\26-Aug-2020\0
 \\#p B2PLYPD3/Def2QZVP\\cyanomethane\\0,1\C,0,-6.594614,-1.115153,1.17
 9308\C,0,-5.205455,-0.793934,0.88992\N,0,-4.096516,-0.535971,0.710688\
 H,0,-6.749593,-1.215079,2.236631\H,0,-6.850132,-2.051048,0.643699\H,0,
 -7.210971,-0.30796,0.758944\\Version=ES64L-G09RevD.01\State=1-A\HF=-13
 2.5349512\MP2=-132.7152862\RMSD=2.773e-09\PG=C01 [X(C2H3N1)]\\@


 DEMOCRATS BUY MOST OF THE BOOKS THAT HAVE BEEN
 BANNED; REPUBLICANS FORM CENSORSHIP COMMITTEES AND
 READ THEM AS A GROUP.
 Job cpu time:       0 days  0 hours  3 minutes 59.6 seconds.
 File lengths (MBytes):  RWF=     28 Int=      0 D2E=      0 Chk=      5 Scr=      1
 Normal termination of Gaussian 09 at Wed Aug 26 14:06:14 2020.
