 Entering Gaussian System, Link 0=/opt/cluster/programs/g09/g09_d.01/g09//g09
 Input=/home/boittier/MDCM/nms_sampling/cyanomethane_geom.xyz.dir/energies/cyanomethane_1867_energy.com
 Output=/scratch/boittier/cyanomethane_1867_energy/cyanomethane_1867_energy.out
 Initial command:
 /opt/cluster/programs/g09/g09_d.01/g09/l1.exe "/scratch/boittier/cyanomethane_1867_energy/Gau-79265.inp" -scrdir="/scratch/boittier/cyanomethane_1867_energy/"
 Entering Link 1 = /opt/cluster/programs/g09/g09_d.01/g09/l1.exe PID=     79266.
  
 Copyright (c) 1988,1990,1992,1993,1995,1998,2003,2009,2013,
            Gaussian, Inc.  All Rights Reserved.
  
 This is part of the Gaussian(R) 09 program.  It is based on
 the Gaussian(R) 03 system (copyright 2003, Gaussian, Inc.),
 the Gaussian(R) 98 system (copyright 1998, Gaussian, Inc.),
 the Gaussian(R) 94 system (copyright 1995, Gaussian, Inc.),
 the Gaussian 92(TM) system (copyright 1992, Gaussian, Inc.),
 the Gaussian 90(TM) system (copyright 1990, Gaussian, Inc.),
 the Gaussian 88(TM) system (copyright 1988, Gaussian, Inc.),
 the Gaussian 86(TM) system (copyright 1986, Carnegie Mellon
 University), and the Gaussian 82(TM) system (copyright 1983,
 Carnegie Mellon University). Gaussian is a federally registered
 trademark of Gaussian, Inc.
  
 This software contains proprietary and confidential information,
 including trade secrets, belonging to Gaussian, Inc.
  
 This software is provided under written license and may be
 used, copied, transmitted, or stored only in accord with that
 written license.
  
 The following legend is applicable only to US Government
 contracts under FAR:
  
                    RESTRICTED RIGHTS LEGEND
  
 Use, reproduction and disclosure by the US Government is
 subject to restrictions as set forth in subparagraphs (a)
 and (c) of the Commercial Computer Software - Restricted
 Rights clause in FAR 52.227-19.
  
 Gaussian, Inc.
 340 Quinnipiac St., Bldg. 40, Wallingford CT 06492
  
  
 ---------------------------------------------------------------
 Warning -- This program may not be used in any manner that
 competes with the business of Gaussian, Inc. or will provide
 assistance to any competitor of Gaussian, Inc.  The licensee
 of this program is prohibited from giving any competitor of
 Gaussian, Inc. access to this program.  By using this program,
 the user acknowledges that Gaussian, Inc. is engaged in the
 business of creating and licensing software in the field of
 computational chemistry and represents and warrants to the
 licensee that it is not a competitor of Gaussian, Inc. and that
 it will not use this program in any manner prohibited above.
 ---------------------------------------------------------------
  

 Cite this work as:
 Gaussian 09, Revision D.01,
 M. J. Frisch, G. W. Trucks, H. B. Schlegel, G. E. Scuseria, 
 M. A. Robb, J. R. Cheeseman, G. Scalmani, V. Barone, B. Mennucci, 
 G. A. Petersson, H. Nakatsuji, M. Caricato, X. Li, H. P. Hratchian, 
 A. F. Izmaylov, J. Bloino, G. Zheng, J. L. Sonnenberg, M. Hada, 
 M. Ehara, K. Toyota, R. Fukuda, J. Hasegawa, M. Ishida, T. Nakajima, 
 Y. Honda, O. Kitao, H. Nakai, T. Vreven, J. A. Montgomery, Jr., 
 J. E. Peralta, F. Ogliaro, M. Bearpark, J. J. Heyd, E. Brothers, 
 K. N. Kudin, V. N. Staroverov, T. Keith, R. Kobayashi, J. Normand, 
 K. Raghavachari, A. Rendell, J. C. Burant, S. S. Iyengar, J. Tomasi, 
 M. Cossi, N. Rega, J. M. Millam, M. Klene, J. E. Knox, J. B. Cross, 
 V. Bakken, C. Adamo, J. Jaramillo, R. Gomperts, R. E. Stratmann, 
 O. Yazyev, A. J. Austin, R. Cammi, C. Pomelli, J. W. Ochterski, 
 R. L. Martin, K. Morokuma, V. G. Zakrzewski, G. A. Voth, 
 P. Salvador, J. J. Dannenberg, S. Dapprich, A. D. Daniels, 
 O. Farkas, J. B. Foresman, J. V. Ortiz, J. Cioslowski, 
 and D. J. Fox, Gaussian, Inc., Wallingford CT, 2013.
 
 ******************************************
 Gaussian 09:  ES64L-G09RevD.01 24-Apr-2013
                26-Aug-2020 
 ******************************************
 %chk=/home/boittier/MDCM/nms_sampling/cyanomethane_geom.xyz.dir/cyanomethane_186
 7.chk
 %nproc=8
 Will use up to    8 processors via shared memory.
 %mem=16000MB
 --------------------
 #p B2PLYPD3/Def2QZVP
 --------------------
 1/38=1/1;
 2/12=2,17=6,18=5,40=1/2;
 3/5=45,7=101,11=9,16=1,25=1,30=1,74=-60/1,2,3;
 4//1;
 5/5=2,38=5/2;
 8/10=1/1;
 9/16=-3/6;
 6/7=2,8=2,9=2,10=2/1;
 99/5=1,9=1/99;
 Leave Link    1 at Wed Aug 26 13:20:03 2020, MaxMem=  2097152000 cpu:         0.2
 (Enter /opt/cluster/programs/g09/g09_d.01/g09/l101.exe)
 ------------
 cyanomethane
 ------------
 Symbolic Z-matrix:
 Charge =  0 Multiplicity = 1
 C                    -6.59532  -1.10399   1.16588 
 C                    -5.19735  -0.80193   0.93419 
 N                    -4.09185  -0.53497   0.68684 
 H                    -6.74746  -1.2088    2.20661 
 H                    -6.87154  -2.05931   0.6575 
 H                    -7.34776  -0.34957   0.73654 
 
 NAtoms=      6 NQM=        6 NQMF=       0 NMMI=      0 NMMIF=      0
                NMic=       0 NMicF=      0.
                    Isotopes and Nuclear Properties:
 (Nuclear quadrupole moments (NQMom) in fm**2, nuclear magnetic moments (NMagM)
  in nuclear magnetons)

  Atom         1           2           3           4           5           6
 IAtWgt=          12          12          14           1           1           1
 AtmWgt=  12.0000000  12.0000000  14.0030740   1.0078250   1.0078250   1.0078250
 NucSpn=           0           0           2           1           1           1
 AtZEff=   0.0000000   0.0000000   0.0000000   0.0000000   0.0000000   0.0000000
 NQMom=    0.0000000   0.0000000   2.0440000   0.0000000   0.0000000   0.0000000
 NMagM=    0.0000000   0.0000000   0.4037610   2.7928460   2.7928460   2.7928460
 AtZNuc=   6.0000000   6.0000000   7.0000000   1.0000000   1.0000000   1.0000000
 Leave Link  101 at Wed Aug 26 13:20:03 2020, MaxMem=  2097152000 cpu:         0.5
 (Enter /opt/cluster/programs/g09/g09_d.01/g09/l202.exe)
                          Input orientation:                          
 ---------------------------------------------------------------------
 Center     Atomic      Atomic             Coordinates (Angstroms)
 Number     Number       Type             X           Y           Z
 ---------------------------------------------------------------------
      1          6           0       -6.595321   -1.103987    1.165880
      2          6           0       -5.197348   -0.801931    0.934194
      3          7           0       -4.091849   -0.534965    0.686835
      4          1           0       -6.747463   -1.208795    2.206610
      5          1           0       -6.871541   -2.059310    0.657503
      6          1           0       -7.347757   -0.349567    0.736540
 ---------------------------------------------------------------------
                    Distance matrix (angstroms):
                    1          2          3          4          5
     1  C    0.000000
     2  C    1.448877   0.000000
     3  N    2.611636   1.163867   0.000000
     4  H    1.057001   2.046323   3.133057   0.000000
     5  H    1.116865   2.111985   3.170359   1.771582   0.000000
     6  H    1.148757   2.206345   3.261561   1.805473   1.776584
                    6
     6  H    0.000000
 Stoichiometry    C2H3N
 Framework group  C1[X(C2H3N)]
 Deg. of freedom    12
 Full point group                 C1      NOp   1
 Largest Abelian subgroup         C1      NOp   1
 Largest concise Abelian subgroup C1      NOp   1
                         Standard orientation:                         
 ---------------------------------------------------------------------
 Center     Atomic      Atomic             Coordinates (Angstroms)
 Number     Number       Type             X           Y           Z
 ---------------------------------------------------------------------
      1          6           0        1.170634   -0.005794   -0.007670
      2          6           0       -0.278070   -0.028168   -0.007124
      3          7           0       -1.440839    0.021342    0.002997
      4          1           0        1.519163   -0.886343   -0.477151
      5          1           0        1.554954    0.026907    1.040478
      6          1           0        1.656374    0.913814   -0.495542
 ---------------------------------------------------------------------
 Rotational constants (GHZ):    157.0165212      9.1881896      9.1748011
 Leave Link  202 at Wed Aug 26 13:20:03 2020, MaxMem=  2097152000 cpu:         0.0
 (Enter /opt/cluster/programs/g09/g09_d.01/g09/l301.exe)
 Standard basis: def2QZVP (5D, 7F)
 Ernie: Thresh=  0.10000D-02 Tol=  0.10000D-05 Strict=F.
 There are   321 symmetry adapted cartesian basis functions of A   symmetry.
 There are   261 symmetry adapted basis functions of A   symmetry.
   261 basis functions,   390 primitive gaussians,   321 cartesian basis functions
    11 alpha electrons       11 beta electrons
       nuclear repulsion energy        58.2354425513 Hartrees.
 IExCor=  419 DFT=T Ex+Corr=B2PLYPD3 ExCW=0 ScaHFX=  0.530000
 ScaDFX=  0.470000  0.470000  0.730000  0.730000 ScalE2=  0.270000  0.270000
 IRadAn=      0 IRanWt=     -1 IRanGd=            0 ICorTp=0 IEmpDi=141
 NAtoms=    6 NActive=    6 NUniq=    6 SFac= 1.00D+00 NAtFMM=   60 NAOKFM=F Big=F
 Integral buffers will be    131072 words long.
 Regular integral format.
 Two-electron integral symmetry is turned on.
 R6Disp:  Grimme-D3(BJ) Dispersion energy=       -0.0020950083 Hartrees.
 Nuclear repulsion after empirical dispersion term =       58.2333475430 Hartrees.
 Leave Link  301 at Wed Aug 26 13:20:03 2020, MaxMem=  2097152000 cpu:         0.4
 (Enter /opt/cluster/programs/g09/g09_d.01/g09/l302.exe)
 NPDir=0 NMtPBC=     1 NCelOv=     1 NCel=       1 NClECP=     1 NCelD=      1
         NCelK=      1 NCelE2=     1 NClLst=     1 CellRange=     0.0.
 One-electron integrals computed using PRISM.
   1 Symmetry operations used in ECPInt.
 ECPInt:  NShTT=    3321 NPrTT=    8136 LenC2=    3293 LenP2D=    7121.
 LDataN:  DoStor=T MaxTD1= 8 Len=  415
 NBasis=   261 RedAO= T EigKep=  8.28D-05  NBF=   261
 NBsUse=   261 1.00D-06 EigRej= -1.00D+00 NBFU=   261
 Precomputing XC quadrature grid using
 IXCGrd= 4 IRadAn=           0 IRanWt=          -1 IRanGd=           0 AccXCQ= 0.00D+00.
 Generated NRdTot=       0 NPtTot=           0 NUsed=           0 NTot=          32
 NSgBfM=   321   321   321   321   321 MxSgAt=     6 MxSgA2=     6.
 Leave Link  302 at Wed Aug 26 13:20:03 2020, MaxMem=  2097152000 cpu:         2.3
 (Enter /opt/cluster/programs/g09/g09_d.01/g09/l303.exe)
 DipDrv:  MaxL=1.
 Leave Link  303 at Wed Aug 26 13:20:03 2020, MaxMem=  2097152000 cpu:         0.3
 (Enter /opt/cluster/programs/g09/g09_d.01/g09/l401.exe)
 ExpMin= 7.60D-02 ExpMax= 9.07D+04 ExpMxC= 8.76D+02 IAcc=2 IRadAn=         4 AccDes= 0.00D+00
 Harris functional with IExCor=  419 and IRadAn=       4 diagonalized for initial guess.
 HarFok:  IExCor=  419 AccDes= 0.00D+00 IRadAn=         4 IDoV= 1 UseB2=F ITyADJ=14
 ICtDFT=  3500011 ScaDFX=  1.000000  1.000000  1.000000  1.000000
 FoFCou: FMM=F IPFlag=           0 FMFlag=      100000 FMFlg1=           0
         NFxFlg=           0 DoJE=T BraDBF=F KetDBF=T FulRan=T
         wScrn=  0.000000 ICntrl=     500 IOpCl=  0 I1Cent=   200000004 NGrid=           0
         NMat0=    1 NMatS0=      1 NMatT0=    0 NMatD0=    1 NMtDS0=    0 NMtDT0=    0
 Petite list used in FoFCou.
 Harris En= -132.843398105963    
 JPrj=0 DoOrth=F DoCkMO=F.
 Leave Link  401 at Wed Aug 26 13:20:04 2020, MaxMem=  2097152000 cpu:         4.4
 (Enter /opt/cluster/programs/g09/g09_d.01/g09/l502.exe)
 Closed shell SCF:
 Using DIIS extrapolation, IDIIS=  1040.
 Integral symmetry usage will be decided dynamically.
 Keep R1 ints in memory in canonical form, NReq=601554820.
 IVT=      332521 IEndB=      332521 NGot=  2097152000 MDV=  1512290144
 LenX=  1512290144 LenY=  1512186662
 Requested convergence on RMS density matrix=1.00D-08 within 128 cycles.
 Requested convergence on MAX density matrix=1.00D-06.
 Requested convergence on             energy=1.00D-06.
 No special actions if energy rises.
 FoFCou: FMM=F IPFlag=           0 FMFlag=           0 FMFlg1=           0
         NFxFlg=           0 DoJE=F BraDBF=F KetDBF=F FulRan=T
         wScrn=  0.000000 ICntrl=     600 IOpCl=  0 I1Cent=           0 NGrid=           0
         NMat0=    1 NMatS0=  34191 NMatT0=    0 NMatD0=    1 NMtDS0=    0 NMtDT0=    0
 Symmetry not used in FoFCou.
 Integral accuracy reduced to 1.0D-05 until final iterations.

 Cycle   1  Pass 0  IDiag  1:
 E= -132.419928268202    
 DIIS: error= 2.54D-02 at cycle   1 NSaved=   1.
 NSaved= 1 IEnMin= 1 EnMin= -132.419928268202     IErMin= 1 ErrMin= 2.54D-02
 ErrMax= 2.54D-02  0.00D+00 EMaxC= 1.00D-01 BMatC= 1.84D-01 BMatP= 1.84D-01
 IDIUse=3 WtCom= 7.46D-01 WtEn= 2.54D-01
 Coeff-Com:  0.100D+01
 Coeff-En:   0.100D+01
 Coeff:      0.100D+01
 Gap=     0.442 Goal=   None    Shift=    0.000
 GapD=    0.442 DampG=2.000 DampE=0.500 DampFc=1.0000 IDamp=-1.
 RMSDP=1.27D-03 MaxDP=6.52D-02              OVMax= 1.66D-01

 Cycle   2  Pass 0  IDiag  1:
 E= -132.449185050729     Delta-E=       -0.029256782527 Rises=F Damp=F
 DIIS: error= 3.02D-02 at cycle   2 NSaved=   2.
 NSaved= 2 IEnMin= 2 EnMin= -132.449185050729     IErMin= 1 ErrMin= 2.54D-02
 ErrMax= 3.02D-02  0.00D+00 EMaxC= 1.00D-01 BMatC= 9.41D-02 BMatP= 1.84D-01
 IDIUse=3 WtCom= 6.98D-01 WtEn= 3.02D-01
 Coeff-Com:  0.400D+00 0.600D+00
 Coeff-En:   0.408D+00 0.592D+00
 Coeff:      0.403D+00 0.597D+00
 Gap=     0.430 Goal=   None    Shift=    0.000
 RMSDP=8.53D-04 MaxDP=3.49D-02 DE=-2.93D-02 OVMax= 1.23D-01

 Cycle   3  Pass 0  IDiag  1:
 E= -132.513251921346     Delta-E=       -0.064066870617 Rises=F Damp=F
 DIIS: error= 1.51D-02 at cycle   3 NSaved=   3.
 NSaved= 3 IEnMin= 3 EnMin= -132.513251921346     IErMin= 3 ErrMin= 1.51D-02
 ErrMax= 1.51D-02  0.00D+00 EMaxC= 1.00D-01 BMatC= 1.99D-02 BMatP= 9.41D-02
 IDIUse=3 WtCom= 8.49D-01 WtEn= 1.51D-01
 Coeff-Com:  0.954D-01 0.325D+00 0.580D+00
 Coeff-En:   0.000D+00 0.131D+00 0.869D+00
 Coeff:      0.810D-01 0.295D+00 0.624D+00
 Gap=     0.422 Goal=   None    Shift=    0.000
 RMSDP=2.72D-04 MaxDP=9.83D-03 DE=-6.41D-02 OVMax= 6.00D-02

 Cycle   4  Pass 0  IDiag  1:
 E= -132.526804232396     Delta-E=       -0.013552311050 Rises=F Damp=F
 DIIS: error= 5.74D-03 at cycle   4 NSaved=   4.
 NSaved= 4 IEnMin= 4 EnMin= -132.526804232396     IErMin= 4 ErrMin= 5.74D-03
 ErrMax= 5.74D-03  0.00D+00 EMaxC= 1.00D-01 BMatC= 3.26D-03 BMatP= 1.99D-02
 IDIUse=3 WtCom= 9.43D-01 WtEn= 5.74D-02
 Coeff-Com: -0.128D-01 0.560D-01 0.336D+00 0.620D+00
 Coeff-En:   0.000D+00 0.000D+00 0.157D+00 0.843D+00
 Coeff:     -0.121D-01 0.528D-01 0.326D+00 0.633D+00
 Gap=     0.422 Goal=   None    Shift=    0.000
 RMSDP=9.41D-05 MaxDP=2.92D-03 DE=-1.36D-02 OVMax= 1.63D-02

 Cycle   5  Pass 0  IDiag  1:
 E= -132.529641633221     Delta-E=       -0.002837400825 Rises=F Damp=F
 DIIS: error= 3.07D-04 at cycle   5 NSaved=   5.
 NSaved= 5 IEnMin= 5 EnMin= -132.529641633221     IErMin= 5 ErrMin= 3.07D-04
 ErrMax= 3.07D-04  0.00D+00 EMaxC= 1.00D-01 BMatC= 1.50D-05 BMatP= 3.26D-03
 IDIUse=3 WtCom= 9.97D-01 WtEn= 3.07D-03
 Coeff-Com: -0.348D-02 0.528D-02 0.473D-01 0.138D+00 0.813D+00
 Coeff-En:   0.000D+00 0.000D+00 0.000D+00 0.000D+00 0.100D+01
 Coeff:     -0.347D-02 0.526D-02 0.472D-01 0.137D+00 0.814D+00
 Gap=     0.422 Goal=   None    Shift=    0.000
 RMSDP=8.67D-06 MaxDP=3.21D-04 DE=-2.84D-03 OVMax= 1.27D-03

 Initial convergence to 1.0D-05 achieved.  Increase integral accuracy.
 Cycle   6  Pass 1  IDiag  1:
 E= -132.529652541436     Delta-E=       -0.000010908215 Rises=F Damp=F
 DIIS: error= 8.32D-05 at cycle   1 NSaved=   1.
 NSaved= 1 IEnMin= 1 EnMin= -132.529652541436     IErMin= 1 ErrMin= 8.32D-05
 ErrMax= 8.32D-05  0.00D+00 EMaxC= 1.00D-01 BMatC= 6.59D-07 BMatP= 6.59D-07
 IDIUse=1 WtCom= 1.00D+00 WtEn= 0.00D+00
 Coeff-Com:  0.100D+01
 Coeff:      0.100D+01
 Gap=     0.422 Goal=   None    Shift=    0.000
 RMSDP=8.67D-06 MaxDP=3.21D-04 DE=-1.09D-05 OVMax= 4.11D-04

 Cycle   7  Pass 1  IDiag  1:
 E= -132.529652941116     Delta-E=       -0.000000399680 Rises=F Damp=F
 DIIS: error= 4.36D-05 at cycle   2 NSaved=   2.
 NSaved= 2 IEnMin= 2 EnMin= -132.529652941116     IErMin= 2 ErrMin= 4.36D-05
 ErrMax= 4.36D-05  0.00D+00 EMaxC= 1.00D-01 BMatC= 3.01D-07 BMatP= 6.59D-07
 IDIUse=1 WtCom= 1.00D+00 WtEn= 0.00D+00
 Coeff-Com:  0.395D+00 0.605D+00
 Coeff:      0.395D+00 0.605D+00
 Gap=     0.422 Goal=   None    Shift=    0.000
 RMSDP=1.04D-06 MaxDP=3.79D-05 DE=-4.00D-07 OVMax= 1.84D-04

 Cycle   8  Pass 1  IDiag  1:
 E= -132.529653201497     Delta-E=       -0.000000260380 Rises=F Damp=F
 DIIS: error= 1.50D-05 at cycle   3 NSaved=   3.
 NSaved= 3 IEnMin= 3 EnMin= -132.529653201497     IErMin= 3 ErrMin= 1.50D-05
 ErrMax= 1.50D-05  0.00D+00 EMaxC= 1.00D-01 BMatC= 2.48D-08 BMatP= 3.01D-07
 IDIUse=1 WtCom= 1.00D+00 WtEn= 0.00D+00
 Coeff-Com:  0.117D+00 0.261D+00 0.622D+00
 Coeff:      0.117D+00 0.261D+00 0.622D+00
 Gap=     0.422 Goal=   None    Shift=    0.000
 RMSDP=5.76D-07 MaxDP=2.60D-05 DE=-2.60D-07 OVMax= 6.57D-05

 Cycle   9  Pass 1  IDiag  1:
 E= -132.529653217433     Delta-E=       -0.000000015937 Rises=F Damp=F
 DIIS: error= 1.04D-05 at cycle   4 NSaved=   4.
 NSaved= 4 IEnMin= 4 EnMin= -132.529653217433     IErMin= 4 ErrMin= 1.04D-05
 ErrMax= 1.04D-05  0.00D+00 EMaxC= 1.00D-01 BMatC= 7.32D-09 BMatP= 2.48D-08
 IDIUse=1 WtCom= 1.00D+00 WtEn= 0.00D+00
 Coeff-Com: -0.612D-01-0.365D-01 0.379D+00 0.719D+00
 Coeff:     -0.612D-01-0.365D-01 0.379D+00 0.719D+00
 Gap=     0.422 Goal=   None    Shift=    0.000
 RMSDP=3.04D-07 MaxDP=1.40D-05 DE=-1.59D-08 OVMax= 3.82D-05

 Cycle  10  Pass 1  IDiag  1:
 E= -132.529653224638     Delta-E=       -0.000000007204 Rises=F Damp=F
 DIIS: error= 9.39D-07 at cycle   5 NSaved=   5.
 NSaved= 5 IEnMin= 5 EnMin= -132.529653224638     IErMin= 5 ErrMin= 9.39D-07
 ErrMax= 9.39D-07  0.00D+00 EMaxC= 1.00D-01 BMatC= 1.16D-10 BMatP= 7.32D-09
 IDIUse=1 WtCom= 1.00D+00 WtEn= 0.00D+00
 Coeff-Com: -0.214D-01-0.207D-01 0.689D-01 0.197D+00 0.776D+00
 Coeff:     -0.214D-01-0.207D-01 0.689D-01 0.197D+00 0.776D+00
 Gap=     0.422 Goal=   None    Shift=    0.000
 RMSDP=4.71D-08 MaxDP=2.15D-06 DE=-7.20D-09 OVMax= 4.17D-06

 Cycle  11  Pass 1  IDiag  1:
 E= -132.529653224782     Delta-E=       -0.000000000144 Rises=F Damp=F
 DIIS: error= 3.57D-07 at cycle   6 NSaved=   6.
 NSaved= 6 IEnMin= 6 EnMin= -132.529653224782     IErMin= 6 ErrMin= 3.57D-07
 ErrMax= 3.57D-07  0.00D+00 EMaxC= 1.00D-01 BMatC= 1.01D-11 BMatP= 1.16D-10
 IDIUse=1 WtCom= 1.00D+00 WtEn= 0.00D+00
 Coeff-Com:  0.521D-02 0.225D-02-0.425D-01-0.565D-01 0.109D+00 0.983D+00
 Coeff:      0.521D-02 0.225D-02-0.425D-01-0.565D-01 0.109D+00 0.983D+00
 Gap=     0.422 Goal=   None    Shift=    0.000
 RMSDP=1.39D-08 MaxDP=3.85D-07 DE=-1.44D-10 OVMax= 2.95D-06

 Cycle  12  Pass 1  IDiag  1:
 E= -132.529653224809     Delta-E=       -0.000000000027 Rises=F Damp=F
 DIIS: error= 9.88D-08 at cycle   7 NSaved=   7.
 NSaved= 7 IEnMin= 7 EnMin= -132.529653224809     IErMin= 7 ErrMin= 9.88D-08
 ErrMax= 9.88D-08  0.00D+00 EMaxC= 1.00D-01 BMatC= 7.30D-13 BMatP= 1.01D-11
 IDIUse=1 WtCom= 1.00D+00 WtEn= 0.00D+00
 Coeff-Com:  0.653D-03 0.136D-02 0.457D-02-0.278D-02-0.923D-01-0.258D+00
 Coeff-Com:  0.135D+01
 Coeff:      0.653D-03 0.136D-02 0.457D-02-0.278D-02-0.923D-01-0.258D+00
 Coeff:      0.135D+01
 Gap=     0.422 Goal=   None    Shift=    0.000
 RMSDP=6.29D-09 MaxDP=1.88D-07 DE=-2.70D-11 OVMax= 1.58D-06

 SCF Done:  E(RB2PLYPD3) =  -132.529653225     A.U. after   12 cycles
            NFock= 12  Conv=0.63D-08     -V/T= 2.0044
 KE= 1.319470321242D+02 PE=-4.249777370292D+02 EE= 1.022677041372D+02
 Leave Link  502 at Wed Aug 26 13:20:30 2020, MaxMem=  2097152000 cpu:       110.8
 (Enter /opt/cluster/programs/g09/g09_d.01/g09/l801.exe)
 DoSCS=T DFT=T ScalE2(SS,OS)=  0.270000  0.270000
 ExpMin= 7.60D-02 ExpMax= 9.07D+04 ExpMxC= 8.76D+02 IAcc=3 IRadAn=         5 AccDes= 0.00D+00
 HarFok:  IExCor=  205 AccDes= 0.00D+00 IRadAn=         5 IDoV=-2 UseB2=F ITyADJ=14
 ICtDFT= 12500011 ScaDFX=  1.000000  1.000000  1.000000  1.000000
 Largest valence mixing into a core orbital is  1.17D-04
 Largest core mixing into a valence orbital is  1.98D-05
 Range of M.O.s used for correlation:     4   261
 NBasis=   261 NAE=    11 NBE=    11 NFC=     3 NFV=     0
 NROrb=    258 NOA=     8 NOB=     8 NVA=   250 NVB=   250

 **** Warning!!: The largest alpha MO coefficient is  0.28241952D+02

 Leave Link  801 at Wed Aug 26 13:20:30 2020, MaxMem=  2097152000 cpu:         0.9
 (Enter /opt/cluster/programs/g09/g09_d.01/g09/l906.exe)
 DoSCS=T DFT=T ScalE2(SS,OS)=  0.270000  0.270000
 FulOut=F Deriv=F AODrv=F NAtomX=     6
   MMem=        2666  MDisk=           8 MDiskD=           8
  W3Min=      642000 MinDsk=     1426009 NBas6D=         321
 NBas2D=       52689    NTT=       51681    LW2=     4508827
    MDV=  2096809911 MDiskM=       14501 NBas2p=       52042
 Fully direct method using O(OVN) memory.
 IMap=   1   2   3   4   5   6   7   8
 JobTyp=1 Pass  1:  I=   1 to   8 NPSUse=  8 ParTrn=T ParDer=T DoDerP=F.
 Spin components of T(2) and E(2):
     alpha-alpha T2 =       0.3650898866D-01 E2=     -0.2159364497D-01
     alpha-beta  T2 =       0.2132550975D+00 E2=     -0.1384821171D+00
     beta-beta   T2 =       0.3650898866D-01 E2=     -0.2159364497D-01
 The integrals were generated   1 times.
 E2(B2PLYPD3) =    -0.1816694070D+00 E(B2PLYPD3) =    -0.13271132263184D+03
 Leave Link  906 at Wed Aug 26 13:20:55 2020, MaxMem=  2097152000 cpu:       202.9
 (Enter /opt/cluster/programs/g09/g09_d.01/g09/l601.exe)
 Copying SCF densities to generalized density rwf, IOpCl= 0 IROHF=0.

 **********************************************************************

            Population analysis using the SCF density.

 **********************************************************************

 Orbital symmetries:
       Occupied  (A) (A) (A) (A) (A) (A) (A) (A) (A) (A) (A)
       Virtual   (A) (A) (A) (A) (A) (A) (A) (A) (A) (A) (A) (A)
                 (A) (A) (A) (A) (A) (A) (A) (A) (A) (A) (A) (A)
                 (A) (A) (A) (A) (A) (A) (A) (A) (A) (A) (A) (A)
                 (A) (A) (A) (A) (A) (A) (A) (A) (A) (A) (A) (A)
                 (A) (A) (A) (A) (A) (A) (A) (A) (A) (A) (A) (A)
                 (A) (A) (A) (A) (A) (A) (A) (A) (A) (A) (A) (A)
                 (A) (A) (A) (A) (A) (A) (A) (A) (A) (A) (A) (A)
                 (A) (A) (A) (A) (A) (A) (A) (A) (A) (A) (A) (A)
                 (A) (A) (A) (A) (A) (A) (A) (A) (A) (A) (A) (A)
                 (A) (A) (A) (A) (A) (A) (A) (A) (A) (A) (A) (A)
                 (A) (A) (A) (A) (A) (A) (A) (A) (A) (A) (A) (A)
                 (A) (A) (A) (A) (A) (A) (A) (A) (A) (A) (A) (A)
                 (A) (A) (A) (A) (A) (A) (A) (A) (A) (A) (A) (A)
                 (A) (A) (A) (A) (A) (A) (A) (A) (A) (A) (A) (A)
                 (A) (A) (A) (A) (A) (A) (A) (A) (A) (A) (A) (A)
                 (A) (A) (A) (A) (A) (A) (A) (A) (A) (A) (A) (A)
                 (A) (A) (A) (A) (A) (A) (A) (A) (A) (A) (A) (A)
                 (A) (A) (A) (A) (A) (A) (A) (A) (A) (A) (A) (A)
                 (A) (A) (A) (A) (A) (A) (A) (A) (A) (A) (A) (A)
                 (A) (A) (A) (A) (A) (A) (A) (A) (A) (A) (A) (A)
                 (A) (A) (A) (A) (A) (A) (A) (A) (A) (A)
 The electronic state is 1-A.
 Alpha  occ. eigenvalues --  -14.84580 -10.67570 -10.66638  -1.03847  -0.89015
 Alpha  occ. eigenvalues --   -0.60161  -0.54554  -0.52062  -0.44954  -0.38955
 Alpha  occ. eigenvalues --   -0.38656
 Alpha virt. eigenvalues --    0.03531   0.06767   0.07982   0.10096   0.11214
 Alpha virt. eigenvalues --    0.11714   0.15441   0.16029   0.17019   0.20033
 Alpha virt. eigenvalues --    0.20245   0.25547   0.32468   0.33736   0.34859
 Alpha virt. eigenvalues --    0.38645   0.39635   0.39874   0.40443   0.47060
 Alpha virt. eigenvalues --    0.49738   0.52082   0.57852   0.59890   0.61509
 Alpha virt. eigenvalues --    0.66983   0.68637   0.69491   0.69934   0.79113
 Alpha virt. eigenvalues --    0.79508   0.81859   0.82332   0.83736   0.86391
 Alpha virt. eigenvalues --    0.90916   0.93600   0.95038   0.96342   0.97706
 Alpha virt. eigenvalues --    1.05469   1.07589   1.09458   1.11505   1.12536
 Alpha virt. eigenvalues --    1.14406   1.21393   1.22484   1.23511   1.34214
 Alpha virt. eigenvalues --    1.35065   1.42664   1.45965   1.50364   1.53959
 Alpha virt. eigenvalues --    1.65111   1.66756   1.70348   1.73756   1.77715
 Alpha virt. eigenvalues --    1.77998   1.78835   1.89175   1.90371   1.92518
 Alpha virt. eigenvalues --    1.94599   1.98927   1.99708   2.01220   2.04833
 Alpha virt. eigenvalues --    2.06174   2.11307   2.16044   2.18710   2.21190
 Alpha virt. eigenvalues --    2.22719   2.24717   2.25537   2.33146   2.34218
 Alpha virt. eigenvalues --    2.42738   2.49623   2.51630   2.54873   2.58304
 Alpha virt. eigenvalues --    2.60982   2.65640   2.69266   2.71150   2.72934
 Alpha virt. eigenvalues --    2.75182   2.76965   2.85288   2.88011   2.90302
 Alpha virt. eigenvalues --    2.91616   2.93530   2.95795   2.97563   3.07230
 Alpha virt. eigenvalues --    3.07817   3.11454   3.20888   3.24160   3.28467
 Alpha virt. eigenvalues --    3.34310   3.34520   3.36643   3.40004   3.47898
 Alpha virt. eigenvalues --    3.50765   3.57233   3.70115   3.72791   3.75070
 Alpha virt. eigenvalues --    3.84540   3.89665   3.91544   3.94943   3.97894
 Alpha virt. eigenvalues --    4.00038   4.04811   4.06233   4.21701   4.24822
 Alpha virt. eigenvalues --    4.55479   4.90843   4.90981   5.06027   5.07143
 Alpha virt. eigenvalues --    5.11385   5.11807   5.17498   5.19469   5.24760
 Alpha virt. eigenvalues --    5.32578   5.43413   5.45323   5.48500   5.61688
 Alpha virt. eigenvalues --    5.65886   5.81301   5.85079   5.88993   5.92627
 Alpha virt. eigenvalues --    5.93162   5.94279   5.97184   5.98686   6.00274
 Alpha virt. eigenvalues --    6.02581   6.05114   6.05763   6.07344   6.12571
 Alpha virt. eigenvalues --    6.14968   6.16361   6.22403   6.25172   6.30329
 Alpha virt. eigenvalues --    6.41583   6.41661   6.47609   6.53948   6.58151
 Alpha virt. eigenvalues --    6.59198   6.62695   6.82033   6.86692   6.92654
 Alpha virt. eigenvalues --    6.94383   7.02369   7.02377   7.06908   7.10187
 Alpha virt. eigenvalues --    7.11438   7.12447   7.21742   7.38914   7.46183
 Alpha virt. eigenvalues --    7.48786   7.50096   7.55052   7.57014   7.60834
 Alpha virt. eigenvalues --    7.65357   7.74042   7.74606   7.80499   7.81753
 Alpha virt. eigenvalues --    7.86224   7.91194   7.93488   7.99412   8.18464
 Alpha virt. eigenvalues --    8.25674   8.36649   8.39181   8.40720   8.42621
 Alpha virt. eigenvalues --    8.44939   8.47707   8.49760   8.52325   8.58029
 Alpha virt. eigenvalues --    8.60054   8.62955   8.64035   8.66411   8.66484
 Alpha virt. eigenvalues --    8.71347   8.78855   8.85639   8.88740   8.97552
 Alpha virt. eigenvalues --    8.99370   9.00623   9.08944   9.12433   9.16173
 Alpha virt. eigenvalues --    9.23703   9.24850   9.59388   9.65612   9.70180
 Alpha virt. eigenvalues --    9.74529   9.89164   9.91421   9.95679   9.99583
 Alpha virt. eigenvalues --   10.13270  10.14353  10.16249  10.22656  10.33874
 Alpha virt. eigenvalues --   10.53879  10.57724  11.36437  11.73184  11.84757
 Alpha virt. eigenvalues --   11.97331  12.08236  13.04088  13.31994  29.12882
 Alpha virt. eigenvalues --   29.55168  38.29062 148.77653 149.17943 198.20388
          Condensed to atoms (all electrons):
               1          2          3          4          5          6
     1  C    4.614283   0.298744  -0.059577   0.410106   0.407938   0.409441
     2  C    0.298744   4.843283   0.981651  -0.046599  -0.043778  -0.036198
     3  N   -0.059577   0.981651   6.289601  -0.000076  -0.001228  -0.001381
     4  H    0.410106  -0.046599  -0.000076   0.593798  -0.029143  -0.029196
     5  H    0.407938  -0.043778  -0.001228  -0.029143   0.604920  -0.031886
     6  H    0.409441  -0.036198  -0.001381  -0.029196  -0.031886   0.596477
 Mulliken charges:
               1
     1  C   -0.080935
     2  C    0.002897
     3  N   -0.208991
     4  H    0.101110
     5  H    0.093176
     6  H    0.092743
 Sum of Mulliken charges =   0.00000
 Mulliken charges with hydrogens summed into heavy atoms:
               1
     1  C    0.206094
     2  C    0.002897
     3  N   -0.208991
 Electronic spatial extent (au):  <R**2>=            163.0391
 Charge=              0.0000 electrons
 Dipole moment (field-independent basis, Debye):
    X=              4.1370    Y=             -0.0381    Z=              0.0167  Tot=              4.1372
 Quadrupole moment (field-independent basis, Debye-Ang):
   XX=            -20.8818   YY=            -17.7805   ZZ=            -17.9283
   XY=              0.2034   XZ=              0.0426   YZ=              0.0753
 Traceless Quadrupole moment (field-independent basis, Debye-Ang):
   XX=             -2.0183   YY=              1.0830   ZZ=              0.9352
   XY=              0.2034   XZ=              0.0426   YZ=              0.0753
 Octapole moment (field-independent basis, Debye-Ang**2):
  XXX=             13.1334  YYY=             -0.0964  ZZZ=              0.8704  XYY=              2.3332
  XXY=              0.4232  XXZ=             -0.0093  XZZ=              2.0699  YZZ=             -0.0051
  YYZ=             -0.7756  XYZ=              0.0349
 Hexadecapole moment (field-independent basis, Debye-Ang**3):
 XXXX=           -183.0112 YYYY=            -25.0360 ZZZZ=            -25.0691 XXXY=              1.1741
 XXXZ=             -0.0437 YYYX=             -0.0538 YYYZ=              0.1322 ZZZX=              1.4601
 ZZZY=              0.2427 XXYY=            -31.1211 XXZZ=            -31.6514 YYZZ=             -8.4358
 XXYZ=             -0.0649 YYXZ=             -1.3672 ZZXY=              0.0208
 N-N= 5.823334754300D+01 E-N=-4.249777388478D+02  KE= 1.319470321242D+02
 Leave Link  601 at Wed Aug 26 13:20:55 2020, MaxMem=  2097152000 cpu:         0.5
 (Enter /opt/cluster/programs/g09/g09_d.01/g09/l9999.exe)
 1\1\GINC-NODE12\SP\RB2PLYPD3-FC\def2QZVP\C2H3N1\BOITTIER\26-Aug-2020\0
 \\#p B2PLYPD3/Def2QZVP\\cyanomethane\\0,1\C,0,-6.595321,-1.103987,1.16
 588\C,0,-5.197348,-0.801931,0.934194\N,0,-4.091849,-0.534965,0.686835\
 H,0,-6.747463,-1.208795,2.20661\H,0,-6.871541,-2.05931,0.657503\H,0,-7
 .347757,-0.349567,0.73654\\Version=ES64L-G09RevD.01\State=1-A\HF=-132.
 5296532\MP2=-132.7113226\RMSD=6.293e-09\PG=C01 [X(C2H3N1)]\\@


 Human beings, who are almost unique in having the
 ability to learn from the experience of others, are
 also remarkable for their apparent disinclination to do so.
                               -- Douglas Adams,
                                Last Chance to See
 Job cpu time:       0 days  0 hours  5 minutes 23.9 seconds.
 File lengths (MBytes):  RWF=     28 Int=      0 D2E=      0 Chk=      5 Scr=      1
 Normal termination of Gaussian 09 at Wed Aug 26 13:20:55 2020.
