 Entering Gaussian System, Link 0=/opt/cluster/programs/g09/g09_d.01/g09//g09
 Input=/home/boittier/MDCM/nms_sampling/cyanomethane_geom.xyz.dir/energies/cyanomethane_1613_energy.com
 Output=/scratch/boittier/cyanomethane_1613_energy/cyanomethane_1613_energy.out
 Initial command:
 /opt/cluster/programs/g09/g09_d.01/g09/l1.exe "/scratch/boittier/cyanomethane_1613_energy/Gau-55345.inp" -scrdir="/scratch/boittier/cyanomethane_1613_energy/"
 Entering Link 1 = /opt/cluster/programs/g09/g09_d.01/g09/l1.exe PID=     55346.
  
 Copyright (c) 1988,1990,1992,1993,1995,1998,2003,2009,2013,
            Gaussian, Inc.  All Rights Reserved.
  
 This is part of the Gaussian(R) 09 program.  It is based on
 the Gaussian(R) 03 system (copyright 2003, Gaussian, Inc.),
 the Gaussian(R) 98 system (copyright 1998, Gaussian, Inc.),
 the Gaussian(R) 94 system (copyright 1995, Gaussian, Inc.),
 the Gaussian 92(TM) system (copyright 1992, Gaussian, Inc.),
 the Gaussian 90(TM) system (copyright 1990, Gaussian, Inc.),
 the Gaussian 88(TM) system (copyright 1988, Gaussian, Inc.),
 the Gaussian 86(TM) system (copyright 1986, Carnegie Mellon
 University), and the Gaussian 82(TM) system (copyright 1983,
 Carnegie Mellon University). Gaussian is a federally registered
 trademark of Gaussian, Inc.
  
 This software contains proprietary and confidential information,
 including trade secrets, belonging to Gaussian, Inc.
  
 This software is provided under written license and may be
 used, copied, transmitted, or stored only in accord with that
 written license.
  
 The following legend is applicable only to US Government
 contracts under FAR:
  
                    RESTRICTED RIGHTS LEGEND
  
 Use, reproduction and disclosure by the US Government is
 subject to restrictions as set forth in subparagraphs (a)
 and (c) of the Commercial Computer Software - Restricted
 Rights clause in FAR 52.227-19.
  
 Gaussian, Inc.
 340 Quinnipiac St., Bldg. 40, Wallingford CT 06492
  
  
 ---------------------------------------------------------------
 Warning -- This program may not be used in any manner that
 competes with the business of Gaussian, Inc. or will provide
 assistance to any competitor of Gaussian, Inc.  The licensee
 of this program is prohibited from giving any competitor of
 Gaussian, Inc. access to this program.  By using this program,
 the user acknowledges that Gaussian, Inc. is engaged in the
 business of creating and licensing software in the field of
 computational chemistry and represents and warrants to the
 licensee that it is not a competitor of Gaussian, Inc. and that
 it will not use this program in any manner prohibited above.
 ---------------------------------------------------------------
  

 Cite this work as:
 Gaussian 09, Revision D.01,
 M. J. Frisch, G. W. Trucks, H. B. Schlegel, G. E. Scuseria, 
 M. A. Robb, J. R. Cheeseman, G. Scalmani, V. Barone, B. Mennucci, 
 G. A. Petersson, H. Nakatsuji, M. Caricato, X. Li, H. P. Hratchian, 
 A. F. Izmaylov, J. Bloino, G. Zheng, J. L. Sonnenberg, M. Hada, 
 M. Ehara, K. Toyota, R. Fukuda, J. Hasegawa, M. Ishida, T. Nakajima, 
 Y. Honda, O. Kitao, H. Nakai, T. Vreven, J. A. Montgomery, Jr., 
 J. E. Peralta, F. Ogliaro, M. Bearpark, J. J. Heyd, E. Brothers, 
 K. N. Kudin, V. N. Staroverov, T. Keith, R. Kobayashi, J. Normand, 
 K. Raghavachari, A. Rendell, J. C. Burant, S. S. Iyengar, J. Tomasi, 
 M. Cossi, N. Rega, J. M. Millam, M. Klene, J. E. Knox, J. B. Cross, 
 V. Bakken, C. Adamo, J. Jaramillo, R. Gomperts, R. E. Stratmann, 
 O. Yazyev, A. J. Austin, R. Cammi, C. Pomelli, J. W. Ochterski, 
 R. L. Martin, K. Morokuma, V. G. Zakrzewski, G. A. Voth, 
 P. Salvador, J. J. Dannenberg, S. Dapprich, A. D. Daniels, 
 O. Farkas, J. B. Foresman, J. V. Ortiz, J. Cioslowski, 
 and D. J. Fox, Gaussian, Inc., Wallingford CT, 2013.
 
 ******************************************
 Gaussian 09:  ES64L-G09RevD.01 24-Apr-2013
                26-Aug-2020 
 ******************************************
 %chk=/home/boittier/MDCM/nms_sampling/cyanomethane_geom.xyz.dir/cyanomethane_161
 3.chk
 %nproc=8
 Will use up to    8 processors via shared memory.
 %mem=16000MB
 --------------------
 #p B2PLYPD3/Def2QZVP
 --------------------
 1/38=1/1;
 2/12=2,17=6,18=5,40=1/2;
 3/5=45,7=101,11=9,16=1,25=1,30=1,74=-60/1,2,3;
 4//1;
 5/5=2,38=5/2;
 8/10=1/1;
 9/16=-3/6;
 6/7=2,8=2,9=2,10=2/1;
 99/5=1,9=1/99;
 Leave Link    1 at Wed Aug 26 12:26:19 2020, MaxMem=  2097152000 cpu:         0.2
 (Enter /opt/cluster/programs/g09/g09_d.01/g09/l101.exe)
 ------------
 cyanomethane
 ------------
 Symbolic Z-matrix:
 Charge =  0 Multiplicity = 1
 C                    -6.60812  -1.11276   1.16471 
 C                    -5.19625  -0.82418   0.91702 
 N                    -4.09067  -0.51632   0.69971 
 H                    -6.80572  -1.21945   2.20365 
 H                    -6.91235  -2.03119   0.65004 
 H                    -7.12121  -0.25128   0.8026 
 
 NAtoms=      6 NQM=        6 NQMF=       0 NMMI=      0 NMMIF=      0
                NMic=       0 NMicF=      0.
                    Isotopes and Nuclear Properties:
 (Nuclear quadrupole moments (NQMom) in fm**2, nuclear magnetic moments (NMagM)
  in nuclear magnetons)

  Atom         1           2           3           4           5           6
 IAtWgt=          12          12          14           1           1           1
 AtmWgt=  12.0000000  12.0000000  14.0030740   1.0078250   1.0078250   1.0078250
 NucSpn=           0           0           2           1           1           1
 AtZEff=   0.0000000   0.0000000   0.0000000   0.0000000   0.0000000   0.0000000
 NQMom=    0.0000000   0.0000000   2.0440000   0.0000000   0.0000000   0.0000000
 NMagM=    0.0000000   0.0000000   0.4037610   2.7928460   2.7928460   2.7928460
 AtZNuc=   6.0000000   6.0000000   7.0000000   1.0000000   1.0000000   1.0000000
 Leave Link  101 at Wed Aug 26 12:26:19 2020, MaxMem=  2097152000 cpu:         0.5
 (Enter /opt/cluster/programs/g09/g09_d.01/g09/l202.exe)
                          Input orientation:                          
 ---------------------------------------------------------------------
 Center     Atomic      Atomic             Coordinates (Angstroms)
 Number     Number       Type             X           Y           Z
 ---------------------------------------------------------------------
      1          6           0       -6.608118   -1.112762    1.164712
      2          6           0       -5.196255   -0.824184    0.917023
      3          7           0       -4.090670   -0.516315    0.699713
      4          1           0       -6.805724   -1.219451    2.203651
      5          1           0       -6.912353   -2.031192    0.650041
      6          1           0       -7.121211   -0.251282    0.802600
 ---------------------------------------------------------------------
                    Distance matrix (angstroms):
                    1          2          3          4          5
     1  C    0.000000
     2  C    1.462185   0.000000
     3  N    2.628596   1.168043   0.000000
     4  H    1.062932   2.098103   3.182412   0.000000
     5  H    1.095883   2.114980   3.203001   1.756131   0.000000
     6  H    1.066085   2.011657   3.043847   1.732001   1.798604
                    6
     6  H    0.000000
 Stoichiometry    C2H3N
 Framework group  C1[X(C2H3N)]
 Deg. of freedom    12
 Full point group                 C1      NOp   1
 Largest Abelian subgroup         C1      NOp   1
 Largest concise Abelian subgroup C1      NOp   1
                         Standard orientation:                         
 ---------------------------------------------------------------------
 Center     Atomic      Atomic             Coordinates (Angstroms)
 Number     Number       Type             X           Y           Z
 ---------------------------------------------------------------------
      1          6           0        1.187784   -0.006741   -0.004568
      2          6           0       -0.273710    0.031351    0.019287
      3          7           0       -1.440812   -0.009068   -0.004505
      4          1           0        1.585264   -0.243710    0.952343
      5          1           0        1.595646    0.957355   -0.328802
      6          1           0        1.420332   -0.797832   -0.680315
 ---------------------------------------------------------------------
 Rotational constants (GHZ):    161.3198194      9.1860986      9.1620785
 Leave Link  202 at Wed Aug 26 12:26:19 2020, MaxMem=  2097152000 cpu:         0.0
 (Enter /opt/cluster/programs/g09/g09_d.01/g09/l301.exe)
 Standard basis: def2QZVP (5D, 7F)
 Ernie: Thresh=  0.10000D-02 Tol=  0.10000D-05 Strict=F.
 There are   321 symmetry adapted cartesian basis functions of A   symmetry.
 There are   261 symmetry adapted basis functions of A   symmetry.
   261 basis functions,   390 primitive gaussians,   321 cartesian basis functions
    11 alpha electrons       11 beta electrons
       nuclear repulsion energy        58.4058384378 Hartrees.
 IExCor=  419 DFT=T Ex+Corr=B2PLYPD3 ExCW=0 ScaHFX=  0.530000
 ScaDFX=  0.470000  0.470000  0.730000  0.730000 ScalE2=  0.270000  0.270000
 IRadAn=      0 IRanWt=     -1 IRanGd=            0 ICorTp=0 IEmpDi=141
 NAtoms=    6 NActive=    6 NUniq=    6 SFac= 1.00D+00 NAtFMM=   60 NAOKFM=F Big=F
 Integral buffers will be    131072 words long.
 Regular integral format.
 Two-electron integral symmetry is turned on.
 R6Disp:  Grimme-D3(BJ) Dispersion energy=       -0.0021045575 Hartrees.
 Nuclear repulsion after empirical dispersion term =       58.4037338803 Hartrees.
 Leave Link  301 at Wed Aug 26 12:26:19 2020, MaxMem=  2097152000 cpu:         0.5
 (Enter /opt/cluster/programs/g09/g09_d.01/g09/l302.exe)
 NPDir=0 NMtPBC=     1 NCelOv=     1 NCel=       1 NClECP=     1 NCelD=      1
         NCelK=      1 NCelE2=     1 NClLst=     1 CellRange=     0.0.
 One-electron integrals computed using PRISM.
   1 Symmetry operations used in ECPInt.
 ECPInt:  NShTT=    3321 NPrTT=    8136 LenC2=    3294 LenP2D=    7125.
 LDataN:  DoStor=T MaxTD1= 8 Len=  415
 NBasis=   261 RedAO= T EigKep=  8.39D-05  NBF=   261
 NBsUse=   261 1.00D-06 EigRej= -1.00D+00 NBFU=   261
 Precomputing XC quadrature grid using
 IXCGrd= 4 IRadAn=           0 IRanWt=          -1 IRanGd=           0 AccXCQ= 0.00D+00.
 Generated NRdTot=       0 NPtTot=           0 NUsed=           0 NTot=          32
 NSgBfM=   321   321   321   321   321 MxSgAt=     6 MxSgA2=     6.
 Leave Link  302 at Wed Aug 26 12:26:19 2020, MaxMem=  2097152000 cpu:         2.0
 (Enter /opt/cluster/programs/g09/g09_d.01/g09/l303.exe)
 DipDrv:  MaxL=1.
 Leave Link  303 at Wed Aug 26 12:26:19 2020, MaxMem=  2097152000 cpu:         0.2
 (Enter /opt/cluster/programs/g09/g09_d.01/g09/l401.exe)
 ExpMin= 7.60D-02 ExpMax= 9.07D+04 ExpMxC= 8.76D+02 IAcc=2 IRadAn=         4 AccDes= 0.00D+00
 Harris functional with IExCor=  419 and IRadAn=       4 diagonalized for initial guess.
 HarFok:  IExCor=  419 AccDes= 0.00D+00 IRadAn=         4 IDoV= 1 UseB2=F ITyADJ=14
 ICtDFT=  3500011 ScaDFX=  1.000000  1.000000  1.000000  1.000000
 FoFCou: FMM=F IPFlag=           0 FMFlag=      100000 FMFlg1=           0
         NFxFlg=           0 DoJE=T BraDBF=F KetDBF=T FulRan=T
         wScrn=  0.000000 ICntrl=     500 IOpCl=  0 I1Cent=   200000004 NGrid=           0
         NMat0=    1 NMatS0=      1 NMatT0=    0 NMatD0=    1 NMtDS0=    0 NMtDT0=    0
 Petite list used in FoFCou.
 Harris En= -132.850214596128    
 JPrj=0 DoOrth=F DoCkMO=F.
 Leave Link  401 at Wed Aug 26 12:26:20 2020, MaxMem=  2097152000 cpu:         3.7
 (Enter /opt/cluster/programs/g09/g09_d.01/g09/l502.exe)
 Closed shell SCF:
 Using DIIS extrapolation, IDIIS=  1040.
 Integral symmetry usage will be decided dynamically.
 Keep R1 ints in memory in canonical form, NReq=601554820.
 IVT=      332521 IEndB=      332521 NGot=  2097152000 MDV=  1512290144
 LenX=  1512290144 LenY=  1512186662
 Requested convergence on RMS density matrix=1.00D-08 within 128 cycles.
 Requested convergence on MAX density matrix=1.00D-06.
 Requested convergence on             energy=1.00D-06.
 No special actions if energy rises.
 FoFCou: FMM=F IPFlag=           0 FMFlag=           0 FMFlg1=           0
         NFxFlg=           0 DoJE=F BraDBF=F KetDBF=F FulRan=T
         wScrn=  0.000000 ICntrl=     600 IOpCl=  0 I1Cent=           0 NGrid=           0
         NMat0=    1 NMatS0=  34191 NMatT0=    0 NMatD0=    1 NMtDS0=    0 NMtDT0=    0
 Symmetry not used in FoFCou.
 Integral accuracy reduced to 1.0D-05 until final iterations.

 Cycle   1  Pass 0  IDiag  1:
 E= -132.420008691385    
 DIIS: error= 2.80D-02 at cycle   1 NSaved=   1.
 NSaved= 1 IEnMin= 1 EnMin= -132.420008691385     IErMin= 1 ErrMin= 2.80D-02
 ErrMax= 2.80D-02  0.00D+00 EMaxC= 1.00D-01 BMatC= 1.88D-01 BMatP= 1.88D-01
 IDIUse=3 WtCom= 7.20D-01 WtEn= 2.80D-01
 Coeff-Com:  0.100D+01
 Coeff-En:   0.100D+01
 Coeff:      0.100D+01
 Gap=     0.455 Goal=   None    Shift=    0.000
 GapD=    0.455 DampG=2.000 DampE=0.500 DampFc=1.0000 IDamp=-1.
 RMSDP=1.25D-03 MaxDP=6.40D-02              OVMax= 1.62D-01

 Cycle   2  Pass 0  IDiag  1:
 E= -132.451737235464     Delta-E=       -0.031728544079 Rises=F Damp=F
 DIIS: error= 3.33D-02 at cycle   2 NSaved=   2.
 NSaved= 2 IEnMin= 2 EnMin= -132.451737235464     IErMin= 1 ErrMin= 2.80D-02
 ErrMax= 3.33D-02  0.00D+00 EMaxC= 1.00D-01 BMatC= 9.57D-02 BMatP= 1.88D-01
 IDIUse=3 WtCom= 6.67D-01 WtEn= 3.33D-01
 Coeff-Com:  0.399D+00 0.601D+00
 Coeff-En:   0.401D+00 0.599D+00
 Coeff:      0.400D+00 0.600D+00
 Gap=     0.432 Goal=   None    Shift=    0.000
 RMSDP=8.30D-04 MaxDP=3.19D-02 DE=-3.17D-02 OVMax= 1.25D-01

 Cycle   3  Pass 0  IDiag  1:
 E= -132.515104944635     Delta-E=       -0.063367709171 Rises=F Damp=F
 DIIS: error= 1.42D-02 at cycle   3 NSaved=   3.
 NSaved= 3 IEnMin= 3 EnMin= -132.515104944635     IErMin= 3 ErrMin= 1.42D-02
 ErrMax= 1.42D-02  0.00D+00 EMaxC= 1.00D-01 BMatC= 2.13D-02 BMatP= 9.57D-02
 IDIUse=3 WtCom= 8.58D-01 WtEn= 1.42D-01
 Coeff-Com:  0.990D-01 0.331D+00 0.570D+00
 Coeff-En:   0.000D+00 0.146D+00 0.854D+00
 Coeff:      0.850D-01 0.304D+00 0.611D+00
 Gap=     0.425 Goal=   None    Shift=    0.000
 RMSDP=2.75D-04 MaxDP=9.95D-03 DE=-6.34D-02 OVMax= 6.12D-02

 Cycle   4  Pass 0  IDiag  1:
 E= -132.530051187567     Delta-E=       -0.014946242932 Rises=F Damp=F
 DIIS: error= 4.86D-03 at cycle   4 NSaved=   4.
 NSaved= 4 IEnMin= 4 EnMin= -132.530051187567     IErMin= 4 ErrMin= 4.86D-03
 ErrMax= 4.86D-03  0.00D+00 EMaxC= 1.00D-01 BMatC= 3.00D-03 BMatP= 2.13D-02
 IDIUse=3 WtCom= 9.51D-01 WtEn= 4.86D-02
 Coeff-Com: -0.125D-01 0.547D-01 0.320D+00 0.638D+00
 Coeff-En:   0.000D+00 0.000D+00 0.131D+00 0.869D+00
 Coeff:     -0.119D-01 0.520D-01 0.311D+00 0.649D+00
 Gap=     0.426 Goal=   None    Shift=    0.000
 RMSDP=9.06D-05 MaxDP=2.76D-03 DE=-1.49D-02 OVMax= 1.58D-02

 Cycle   5  Pass 0  IDiag  1:
 E= -132.532655245979     Delta-E=       -0.002604058412 Rises=F Damp=F
 DIIS: error= 3.85D-04 at cycle   5 NSaved=   5.
 NSaved= 5 IEnMin= 5 EnMin= -132.532655245979     IErMin= 5 ErrMin= 3.85D-04
 ErrMax= 3.85D-04  0.00D+00 EMaxC= 1.00D-01 BMatC= 1.36D-05 BMatP= 3.00D-03
 IDIUse=3 WtCom= 9.96D-01 WtEn= 3.85D-03
 Coeff-Com: -0.358D-02 0.607D-02 0.487D-01 0.144D+00 0.805D+00
 Coeff-En:   0.000D+00 0.000D+00 0.000D+00 0.000D+00 0.100D+01
 Coeff:     -0.357D-02 0.605D-02 0.485D-01 0.144D+00 0.805D+00
 Gap=     0.425 Goal=   None    Shift=    0.000
 RMSDP=8.09D-06 MaxDP=2.87D-04 DE=-2.60D-03 OVMax= 1.28D-03

 Initial convergence to 1.0D-05 achieved.  Increase integral accuracy.
 Cycle   6  Pass 1  IDiag  1:
 E= -132.532669049266     Delta-E=       -0.000013803287 Rises=F Damp=F
 DIIS: error= 9.80D-05 at cycle   1 NSaved=   1.
 NSaved= 1 IEnMin= 1 EnMin= -132.532669049266     IErMin= 1 ErrMin= 9.80D-05
 ErrMax= 9.80D-05  0.00D+00 EMaxC= 1.00D-01 BMatC= 6.86D-07 BMatP= 6.86D-07
 IDIUse=1 WtCom= 1.00D+00 WtEn= 0.00D+00
 Coeff-Com:  0.100D+01
 Coeff:      0.100D+01
 Gap=     0.425 Goal=   None    Shift=    0.000
 RMSDP=8.09D-06 MaxDP=2.87D-04 DE=-1.38D-05 OVMax= 4.31D-04

 Cycle   7  Pass 1  IDiag  1:
 E= -132.532669459723     Delta-E=       -0.000000410457 Rises=F Damp=F
 DIIS: error= 5.66D-05 at cycle   2 NSaved=   2.
 NSaved= 2 IEnMin= 2 EnMin= -132.532669459723     IErMin= 2 ErrMin= 5.66D-05
 ErrMax= 5.66D-05  0.00D+00 EMaxC= 1.00D-01 BMatC= 3.12D-07 BMatP= 6.86D-07
 IDIUse=1 WtCom= 1.00D+00 WtEn= 0.00D+00
 Coeff-Com:  0.395D+00 0.605D+00
 Coeff:      0.395D+00 0.605D+00
 Gap=     0.425 Goal=   None    Shift=    0.000
 RMSDP=1.05D-06 MaxDP=4.18D-05 DE=-4.10D-07 OVMax= 1.88D-04

 Cycle   8  Pass 1  IDiag  1:
 E= -132.532669732503     Delta-E=       -0.000000272780 Rises=F Damp=F
 DIIS: error= 1.64D-05 at cycle   3 NSaved=   3.
 NSaved= 3 IEnMin= 3 EnMin= -132.532669732503     IErMin= 3 ErrMin= 1.64D-05
 ErrMax= 1.64D-05  0.00D+00 EMaxC= 1.00D-01 BMatC= 2.36D-08 BMatP= 3.12D-07
 IDIUse=1 WtCom= 1.00D+00 WtEn= 0.00D+00
 Coeff-Com:  0.114D+00 0.255D+00 0.631D+00
 Coeff:      0.114D+00 0.255D+00 0.631D+00
 Gap=     0.425 Goal=   None    Shift=    0.000
 RMSDP=5.62D-07 MaxDP=2.53D-05 DE=-2.73D-07 OVMax= 6.81D-05

 Cycle   9  Pass 1  IDiag  1:
 E= -132.532669747049     Delta-E=       -0.000000014546 Rises=F Damp=F
 DIIS: error= 1.08D-05 at cycle   4 NSaved=   4.
 NSaved= 4 IEnMin= 4 EnMin= -132.532669747049     IErMin= 4 ErrMin= 1.08D-05
 ErrMax= 1.08D-05  0.00D+00 EMaxC= 1.00D-01 BMatC= 7.51D-09 BMatP= 2.36D-08
 IDIUse=1 WtCom= 1.00D+00 WtEn= 0.00D+00
 Coeff-Com: -0.617D-01-0.382D-01 0.391D+00 0.709D+00
 Coeff:     -0.617D-01-0.382D-01 0.391D+00 0.709D+00
 Gap=     0.425 Goal=   None    Shift=    0.000
 RMSDP=2.91D-07 MaxDP=1.34D-05 DE=-1.45D-08 OVMax= 4.23D-05

 Cycle  10  Pass 1  IDiag  1:
 E= -132.532669754397     Delta-E=       -0.000000007347 Rises=F Damp=F
 DIIS: error= 1.08D-06 at cycle   5 NSaved=   5.
 NSaved= 5 IEnMin= 5 EnMin= -132.532669754397     IErMin= 5 ErrMin= 1.08D-06
 ErrMax= 1.08D-06  0.00D+00 EMaxC= 1.00D-01 BMatC= 1.20D-10 BMatP= 7.51D-09
 IDIUse=1 WtCom= 1.00D+00 WtEn= 0.00D+00
 Coeff-Com: -0.221D-01-0.214D-01 0.747D-01 0.202D+00 0.767D+00
 Coeff:     -0.221D-01-0.214D-01 0.747D-01 0.202D+00 0.767D+00
 Gap=     0.425 Goal=   None    Shift=    0.000
 RMSDP=4.55D-08 MaxDP=2.03D-06 DE=-7.35D-09 OVMax= 3.63D-06

 Cycle  11  Pass 1  IDiag  1:
 E= -132.532669754534     Delta-E=       -0.000000000137 Rises=F Damp=F
 DIIS: error= 3.73D-07 at cycle   6 NSaved=   6.
 NSaved= 6 IEnMin= 6 EnMin= -132.532669754534     IErMin= 6 ErrMin= 3.73D-07
 ErrMax= 3.73D-07  0.00D+00 EMaxC= 1.00D-01 BMatC= 8.57D-12 BMatP= 1.20D-10
 IDIUse=1 WtCom= 1.00D+00 WtEn= 0.00D+00
 Coeff-Com:  0.477D-02 0.212D-02-0.404D-01-0.485D-01 0.956D-01 0.986D+00
 Coeff:      0.477D-02 0.212D-02-0.404D-01-0.485D-01 0.956D-01 0.986D+00
 Gap=     0.425 Goal=   None    Shift=    0.000
 RMSDP=1.29D-08 MaxDP=4.10D-07 DE=-1.37D-10 OVMax= 2.57D-06

 Cycle  12  Pass 1  IDiag  1:
 E= -132.532669754552     Delta-E=       -0.000000000019 Rises=F Damp=F
 DIIS: error= 1.15D-07 at cycle   7 NSaved=   7.
 NSaved= 7 IEnMin= 7 EnMin= -132.532669754552     IErMin= 7 ErrMin= 1.15D-07
 ErrMax= 1.15D-07  0.00D+00 EMaxC= 1.00D-01 BMatC= 5.37D-13 BMatP= 8.57D-12
 IDIUse=1 WtCom= 1.00D+00 WtEn= 0.00D+00
 Coeff-Com: -0.880D-04 0.809D-03 0.901D-02 0.443D-02-0.855D-01-0.361D+00
 Coeff-Com:  0.143D+01
 Coeff:     -0.880D-04 0.809D-03 0.901D-02 0.443D-02-0.855D-01-0.361D+00
 Coeff:      0.143D+01
 Gap=     0.425 Goal=   None    Shift=    0.000
 RMSDP=5.76D-09 MaxDP=1.97D-07 DE=-1.85D-11 OVMax= 1.43D-06

 SCF Done:  E(RB2PLYPD3) =  -132.532669755     A.U. after   12 cycles
            NFock= 12  Conv=0.58D-08     -V/T= 2.0037
 KE= 1.320405276307D+02 PE=-4.253929569582D+02 EE= 1.024160256926D+02
 Leave Link  502 at Wed Aug 26 12:26:44 2020, MaxMem=  2097152000 cpu:       115.6
 (Enter /opt/cluster/programs/g09/g09_d.01/g09/l801.exe)
 DoSCS=T DFT=T ScalE2(SS,OS)=  0.270000  0.270000
 ExpMin= 7.60D-02 ExpMax= 9.07D+04 ExpMxC= 8.76D+02 IAcc=3 IRadAn=         5 AccDes= 0.00D+00
 HarFok:  IExCor=  205 AccDes= 0.00D+00 IRadAn=         5 IDoV=-2 UseB2=F ITyADJ=14
 ICtDFT= 12500011 ScaDFX=  1.000000  1.000000  1.000000  1.000000
 Largest valence mixing into a core orbital is  1.17D-04
 Largest core mixing into a valence orbital is  2.00D-05
 Range of M.O.s used for correlation:     4   261
 NBasis=   261 NAE=    11 NBE=    11 NFC=     3 NFV=     0
 NROrb=    258 NOA=     8 NOB=     8 NVA=   250 NVB=   250

 **** Warning!!: The largest alpha MO coefficient is  0.32088847D+02

 Leave Link  801 at Wed Aug 26 12:26:44 2020, MaxMem=  2097152000 cpu:         0.6
 (Enter /opt/cluster/programs/g09/g09_d.01/g09/l906.exe)
 DoSCS=T DFT=T ScalE2(SS,OS)=  0.270000  0.270000
 FulOut=F Deriv=F AODrv=F NAtomX=     6
   MMem=        2666  MDisk=           8 MDiskD=           8
  W3Min=      642000 MinDsk=     1426009 NBas6D=         321
 NBas2D=       52689    NTT=       51681    LW2=     4508827
    MDV=  2096809259 MDiskM=       14501 NBas2p=       52155
 Fully direct method using O(OVN) memory.
 IMap=   1   2   3   4   5   6   7   8
 JobTyp=1 Pass  1:  I=   1 to   8 NPSUse=  8 ParTrn=T ParDer=T DoDerP=F.
 Spin components of T(2) and E(2):
     alpha-alpha T2 =       0.3641263617D-01 E2=     -0.2159009189D-01
     alpha-beta  T2 =       0.2116738714D+00 E2=     -0.1383040903D+00
     beta-beta   T2 =       0.3641263617D-01 E2=     -0.2159009189D-01
 The integrals were generated   1 times.
 E2(B2PLYPD3) =    -0.1814842741D+00 E(B2PLYPD3) =    -0.13271415402865D+03
 Leave Link  906 at Wed Aug 26 12:26:57 2020, MaxMem=  2097152000 cpu:       100.2
 (Enter /opt/cluster/programs/g09/g09_d.01/g09/l601.exe)
 Copying SCF densities to generalized density rwf, IOpCl= 0 IROHF=0.

 **********************************************************************

            Population analysis using the SCF density.

 **********************************************************************

 Orbital symmetries:
       Occupied  (A) (A) (A) (A) (A) (A) (A) (A) (A) (A) (A)
       Virtual   (A) (A) (A) (A) (A) (A) (A) (A) (A) (A) (A) (A)
                 (A) (A) (A) (A) (A) (A) (A) (A) (A) (A) (A) (A)
                 (A) (A) (A) (A) (A) (A) (A) (A) (A) (A) (A) (A)
                 (A) (A) (A) (A) (A) (A) (A) (A) (A) (A) (A) (A)
                 (A) (A) (A) (A) (A) (A) (A) (A) (A) (A) (A) (A)
                 (A) (A) (A) (A) (A) (A) (A) (A) (A) (A) (A) (A)
                 (A) (A) (A) (A) (A) (A) (A) (A) (A) (A) (A) (A)
                 (A) (A) (A) (A) (A) (A) (A) (A) (A) (A) (A) (A)
                 (A) (A) (A) (A) (A) (A) (A) (A) (A) (A) (A) (A)
                 (A) (A) (A) (A) (A) (A) (A) (A) (A) (A) (A) (A)
                 (A) (A) (A) (A) (A) (A) (A) (A) (A) (A) (A) (A)
                 (A) (A) (A) (A) (A) (A) (A) (A) (A) (A) (A) (A)
                 (A) (A) (A) (A) (A) (A) (A) (A) (A) (A) (A) (A)
                 (A) (A) (A) (A) (A) (A) (A) (A) (A) (A) (A) (A)
                 (A) (A) (A) (A) (A) (A) (A) (A) (A) (A) (A) (A)
                 (A) (A) (A) (A) (A) (A) (A) (A) (A) (A) (A) (A)
                 (A) (A) (A) (A) (A) (A) (A) (A) (A) (A) (A) (A)
                 (A) (A) (A) (A) (A) (A) (A) (A) (A) (A) (A) (A)
                 (A) (A) (A) (A) (A) (A) (A) (A) (A) (A) (A) (A)
                 (A) (A) (A) (A) (A) (A) (A) (A) (A) (A) (A) (A)
                 (A) (A) (A) (A) (A) (A) (A) (A) (A) (A)
 The electronic state is 1-A.
 Alpha  occ. eigenvalues --  -14.84505 -10.66822 -10.66615  -1.03544  -0.89600
 Alpha  occ. eigenvalues --   -0.59641  -0.54798  -0.54037  -0.44754  -0.38778
 Alpha  occ. eigenvalues --   -0.38710
 Alpha virt. eigenvalues --    0.03794   0.07742   0.08065   0.10213   0.11182
 Alpha virt. eigenvalues --    0.11333   0.15199   0.15929   0.16402   0.20122
 Alpha virt. eigenvalues --    0.20184   0.25295   0.32489   0.34761   0.34859
 Alpha virt. eigenvalues --    0.38706   0.39162   0.39881   0.40940   0.46882
 Alpha virt. eigenvalues --    0.51529   0.51722   0.58540   0.59721   0.61904
 Alpha virt. eigenvalues --    0.66537   0.67542   0.69165   0.70136   0.79193
 Alpha virt. eigenvalues --    0.79584   0.81957   0.82901   0.84055   0.86576
 Alpha virt. eigenvalues --    0.91248   0.92867   0.95332   0.96205   0.97112
 Alpha virt. eigenvalues --    1.05255   1.06842   1.09162   1.10732   1.13126
 Alpha virt. eigenvalues --    1.15475   1.22157   1.22715   1.24105   1.34696
 Alpha virt. eigenvalues --    1.36281   1.45994   1.46865   1.48516   1.54922
 Alpha virt. eigenvalues --    1.64056   1.66675   1.70223   1.74812   1.77476
 Alpha virt. eigenvalues --    1.78992   1.79268   1.87741   1.91456   1.92582
 Alpha virt. eigenvalues --    1.93907   1.98584   2.00352   2.01136   2.04029
 Alpha virt. eigenvalues --    2.05594   2.11697   2.13327   2.19545   2.21377
 Alpha virt. eigenvalues --    2.22927   2.24773   2.26865   2.34152   2.37576
 Alpha virt. eigenvalues --    2.43268   2.49652   2.51987   2.58033   2.58191
 Alpha virt. eigenvalues --    2.59880   2.67280   2.70101   2.70367   2.70755
 Alpha virt. eigenvalues --    2.76648   2.78823   2.84488   2.88856   2.90458
 Alpha virt. eigenvalues --    2.94645   2.95151   2.95693   2.98805   3.07139
 Alpha virt. eigenvalues --    3.09990   3.13812   3.21086   3.29584   3.31882
 Alpha virt. eigenvalues --    3.35848   3.38868   3.40949   3.43683   3.48861
 Alpha virt. eigenvalues --    3.54205   3.58342   3.70045   3.74171   3.74646
 Alpha virt. eigenvalues --    3.89903   3.91870   3.93550   3.95801   3.98955
 Alpha virt. eigenvalues --    4.00726   4.05722   4.06477   4.25722   4.26928
 Alpha virt. eigenvalues --    4.53380   4.91319   4.91437   5.04892   5.07616
 Alpha virt. eigenvalues --    5.08406   5.19767   5.21132   5.23297   5.23691
 Alpha virt. eigenvalues --    5.34034   5.44205   5.46877   5.47673   5.65824
 Alpha virt. eigenvalues --    5.67441   5.85257   5.86825   5.89680   5.92522
 Alpha virt. eigenvalues --    5.95155   5.97080   6.00173   6.01584   6.03918
 Alpha virt. eigenvalues --    6.04230   6.05717   6.07779   6.09567   6.13497
 Alpha virt. eigenvalues --    6.20517   6.21769   6.23062   6.28670   6.31618
 Alpha virt. eigenvalues --    6.40615   6.46956   6.49269   6.55910   6.61094
 Alpha virt. eigenvalues --    6.64645   6.67837   6.89951   6.93098   6.96046
 Alpha virt. eigenvalues --    6.97516   7.02475   7.02519   7.08479   7.10258
 Alpha virt. eigenvalues --    7.15925   7.21378   7.23782   7.47241   7.48055
 Alpha virt. eigenvalues --    7.50109   7.52467   7.56155   7.59600   7.64804
 Alpha virt. eigenvalues --    7.67205   7.72941   7.73625   7.83401   7.85156
 Alpha virt. eigenvalues --    7.87625   7.92926   7.96423   8.06318   8.28608
 Alpha virt. eigenvalues --    8.31470   8.31952   8.42560   8.44899   8.46104
 Alpha virt. eigenvalues --    8.46583   8.51425   8.51812   8.54609   8.55595
 Alpha virt. eigenvalues --    8.61369   8.66425   8.66716   8.67441   8.69053
 Alpha virt. eigenvalues --    8.72022   8.83619   8.87449   8.91618   9.04954
 Alpha virt. eigenvalues --    9.07697   9.09550   9.12107   9.16763   9.20395
 Alpha virt. eigenvalues --    9.25387   9.31386   9.70454   9.74065   9.85444
 Alpha virt. eigenvalues --    9.89535   9.93634  10.02540  10.05152  10.11455
 Alpha virt. eigenvalues --   10.12836  10.18513  10.23518  10.34271  10.52717
 Alpha virt. eigenvalues --   10.55502  10.76258  11.35679  11.62694  11.77593
 Alpha virt. eigenvalues --   11.91453  11.94712  13.11543  13.64759  29.19901
 Alpha virt. eigenvalues --   29.55274  38.27661 148.85581 149.17763 198.18767
          Condensed to atoms (all electrons):
               1          2          3          4          5          6
     1  C    4.603595   0.296491  -0.058942   0.412520   0.413769   0.417365
     2  C    0.296491   4.859633   0.975851  -0.038757  -0.040117  -0.053083
     3  N   -0.058942   0.975851   6.299212  -0.000766  -0.000400  -0.001300
     4  H    0.412520  -0.038757  -0.000766   0.593891  -0.032437  -0.031036
     5  H    0.413769  -0.040117  -0.000400  -0.032437   0.587666  -0.026729
     6  H    0.417365  -0.053083  -0.001300  -0.031036  -0.026729   0.591150
 Mulliken charges:
               1
     1  C   -0.084797
     2  C   -0.000017
     3  N   -0.213654
     4  H    0.096585
     5  H    0.098249
     6  H    0.103635
 Sum of Mulliken charges =   0.00000
 Mulliken charges with hydrogens summed into heavy atoms:
               1
     1  C    0.213672
     2  C   -0.000017
     3  N   -0.213654
 Electronic spatial extent (au):  <R**2>=            162.1317
 Charge=              0.0000 electrons
 Dipole moment (field-independent basis, Debye):
    X=              4.1518    Y=             -0.0098    Z=              0.0130  Tot=              4.1518
 Quadrupole moment (field-independent basis, Debye-Ang):
   XX=            -21.0604   YY=            -17.6698   ZZ=            -17.8485
   XY=              0.0248   XZ=              0.0897   YZ=              0.0175
 Traceless Quadrupole moment (field-independent basis, Debye-Ang):
   XX=             -2.2008   YY=              1.1898   ZZ=              1.0111
   XY=              0.0248   XZ=              0.0897   YZ=              0.0175
 Octapole moment (field-independent basis, Debye-Ang**2):
  XXX=             12.9519  YYY=              0.2242  ZZZ=              0.5339  XYY=              2.4558
  XXY=              0.2521  XXZ=              0.3565  XZZ=              2.2026  YZZ=             -0.5334
  YYZ=             -0.6767  XYZ=             -0.0776
 Hexadecapole moment (field-independent basis, Debye-Ang**3):
 XXXX=           -182.7753 YYYY=            -24.6923 ZZZZ=            -24.4525 XXXY=              0.4712
 XXXZ=              0.8047 YYYX=              0.7523 YYYZ=              0.1126 ZZZX=              1.1613
 ZZZY=              0.0589 XXYY=            -31.1353 XXZZ=            -31.4043 YYZZ=             -8.1025
 XXYZ=             -0.3241 YYXZ=             -1.0109 ZZXY=             -0.7549
 N-N= 5.840373388032D+01 E-N=-4.253929580135D+02  KE= 1.320405276307D+02
 Leave Link  601 at Wed Aug 26 12:26:57 2020, MaxMem=  2097152000 cpu:         0.4
 (Enter /opt/cluster/programs/g09/g09_d.01/g09/l9999.exe)
 1\1\GINC-NODE28\SP\RB2PLYPD3-FC\def2QZVP\C2H3N1\BOITTIER\26-Aug-2020\0
 \\#p B2PLYPD3/Def2QZVP\\cyanomethane\\0,1\C,0,-6.608118,-1.112762,1.16
 4712\C,0,-5.196255,-0.824184,0.917023\N,0,-4.09067,-0.516315,0.699713\
 H,0,-6.805724,-1.219451,2.203651\H,0,-6.912353,-2.031192,0.650041\H,0,
 -7.121211,-0.251282,0.8026\\Version=ES64L-G09RevD.01\State=1-A\HF=-132
 .5326698\MP2=-132.714154\RMSD=5.756e-09\PG=C01 [X(C2H3N1)]\\@


 THE PROMISED LAND ALWAYS LIES ON THE OTHER SIDE OF A WILDERNESS.

                         -- HAVELOCK ELLIS
 Job cpu time:       0 days  0 hours  3 minutes 44.3 seconds.
 File lengths (MBytes):  RWF=     28 Int=      0 D2E=      0 Chk=      5 Scr=      1
 Normal termination of Gaussian 09 at Wed Aug 26 12:26:57 2020.
