 Entering Gaussian System, Link 0=/opt/cluster/programs/g09/g09_d.01/g09//g09
 Input=/home/boittier/MDCM/nms_sampling/cyanomethane_geom.xyz.dir/energies/cyanomethane_224_energy.com
 Output=/scratch/boittier/cyanomethane_224_energy/cyanomethane_224_energy.out
 Initial command:
 /opt/cluster/programs/g09/g09_d.01/g09/l1.exe "/scratch/boittier/cyanomethane_224_energy/Gau-62129.inp" -scrdir="/scratch/boittier/cyanomethane_224_energy/"
 Entering Link 1 = /opt/cluster/programs/g09/g09_d.01/g09/l1.exe PID=     62130.
  
 Copyright (c) 1988,1990,1992,1993,1995,1998,2003,2009,2013,
            Gaussian, Inc.  All Rights Reserved.
  
 This is part of the Gaussian(R) 09 program.  It is based on
 the Gaussian(R) 03 system (copyright 2003, Gaussian, Inc.),
 the Gaussian(R) 98 system (copyright 1998, Gaussian, Inc.),
 the Gaussian(R) 94 system (copyright 1995, Gaussian, Inc.),
 the Gaussian 92(TM) system (copyright 1992, Gaussian, Inc.),
 the Gaussian 90(TM) system (copyright 1990, Gaussian, Inc.),
 the Gaussian 88(TM) system (copyright 1988, Gaussian, Inc.),
 the Gaussian 86(TM) system (copyright 1986, Carnegie Mellon
 University), and the Gaussian 82(TM) system (copyright 1983,
 Carnegie Mellon University). Gaussian is a federally registered
 trademark of Gaussian, Inc.
  
 This software contains proprietary and confidential information,
 including trade secrets, belonging to Gaussian, Inc.
  
 This software is provided under written license and may be
 used, copied, transmitted, or stored only in accord with that
 written license.
  
 The following legend is applicable only to US Government
 contracts under FAR:
  
                    RESTRICTED RIGHTS LEGEND
  
 Use, reproduction and disclosure by the US Government is
 subject to restrictions as set forth in subparagraphs (a)
 and (c) of the Commercial Computer Software - Restricted
 Rights clause in FAR 52.227-19.
  
 Gaussian, Inc.
 340 Quinnipiac St., Bldg. 40, Wallingford CT 06492
  
  
 ---------------------------------------------------------------
 Warning -- This program may not be used in any manner that
 competes with the business of Gaussian, Inc. or will provide
 assistance to any competitor of Gaussian, Inc.  The licensee
 of this program is prohibited from giving any competitor of
 Gaussian, Inc. access to this program.  By using this program,
 the user acknowledges that Gaussian, Inc. is engaged in the
 business of creating and licensing software in the field of
 computational chemistry and represents and warrants to the
 licensee that it is not a competitor of Gaussian, Inc. and that
 it will not use this program in any manner prohibited above.
 ---------------------------------------------------------------
  

 Cite this work as:
 Gaussian 09, Revision D.01,
 M. J. Frisch, G. W. Trucks, H. B. Schlegel, G. E. Scuseria, 
 M. A. Robb, J. R. Cheeseman, G. Scalmani, V. Barone, B. Mennucci, 
 G. A. Petersson, H. Nakatsuji, M. Caricato, X. Li, H. P. Hratchian, 
 A. F. Izmaylov, J. Bloino, G. Zheng, J. L. Sonnenberg, M. Hada, 
 M. Ehara, K. Toyota, R. Fukuda, J. Hasegawa, M. Ishida, T. Nakajima, 
 Y. Honda, O. Kitao, H. Nakai, T. Vreven, J. A. Montgomery, Jr., 
 J. E. Peralta, F. Ogliaro, M. Bearpark, J. J. Heyd, E. Brothers, 
 K. N. Kudin, V. N. Staroverov, T. Keith, R. Kobayashi, J. Normand, 
 K. Raghavachari, A. Rendell, J. C. Burant, S. S. Iyengar, J. Tomasi, 
 M. Cossi, N. Rega, J. M. Millam, M. Klene, J. E. Knox, J. B. Cross, 
 V. Bakken, C. Adamo, J. Jaramillo, R. Gomperts, R. E. Stratmann, 
 O. Yazyev, A. J. Austin, R. Cammi, C. Pomelli, J. W. Ochterski, 
 R. L. Martin, K. Morokuma, V. G. Zakrzewski, G. A. Voth, 
 P. Salvador, J. J. Dannenberg, S. Dapprich, A. D. Daniels, 
 O. Farkas, J. B. Foresman, J. V. Ortiz, J. Cioslowski, 
 and D. J. Fox, Gaussian, Inc., Wallingford CT, 2013.
 
 ******************************************
 Gaussian 09:  ES64L-G09RevD.01 24-Apr-2013
                26-Aug-2020 
 ******************************************
 %chk=/home/boittier/MDCM/nms_sampling/cyanomethane_geom.xyz.dir/cyanomethane_224
 .chk
 %nproc=8
 Will use up to    8 processors via shared memory.
 %mem=16000MB
 --------------------
 #p B2PLYPD3/Def2QZVP
 --------------------
 1/38=1/1;
 2/12=2,17=6,18=5,40=1/2;
 3/5=45,7=101,11=9,16=1,25=1,30=1,74=-60/1,2,3;
 4//1;
 5/5=2,38=5/2;
 8/10=1/1;
 9/16=-3/6;
 6/7=2,8=2,9=2,10=2/1;
 99/5=1,9=1/99;
 Leave Link    1 at Wed Aug 26 15:39:03 2020, MaxMem=  2097152000 cpu:         0.3
 (Enter /opt/cluster/programs/g09/g09_d.01/g09/l101.exe)
 ------------
 cyanomethane
 ------------
 Symbolic Z-matrix:
 Charge =  0 Multiplicity = 1
 C                    -6.59158  -1.11784   1.1645 
 C                    -5.20388  -0.80053   0.90899 
 N                    -4.09573  -0.52975   0.70216 
 H                    -6.78086  -1.2317    2.25308 
 H                    -6.91314  -2.00555   0.64357 
 H                    -7.18361  -0.30221   0.80977 
 
 NAtoms=      6 NQM=        6 NQMF=       0 NMMI=      0 NMMIF=      0
                NMic=       0 NMicF=      0.
                    Isotopes and Nuclear Properties:
 (Nuclear quadrupole moments (NQMom) in fm**2, nuclear magnetic moments (NMagM)
  in nuclear magnetons)

  Atom         1           2           3           4           5           6
 IAtWgt=          12          12          14           1           1           1
 AtmWgt=  12.0000000  12.0000000  14.0030740   1.0078250   1.0078250   1.0078250
 NucSpn=           0           0           2           1           1           1
 AtZEff=   0.0000000   0.0000000   0.0000000   0.0000000   0.0000000   0.0000000
 NQMom=    0.0000000   0.0000000   2.0440000   0.0000000   0.0000000   0.0000000
 NMagM=    0.0000000   0.0000000   0.4037610   2.7928460   2.7928460   2.7928460
 AtZNuc=   6.0000000   6.0000000   7.0000000   1.0000000   1.0000000   1.0000000
 Leave Link  101 at Wed Aug 26 15:39:03 2020, MaxMem=  2097152000 cpu:         0.6
 (Enter /opt/cluster/programs/g09/g09_d.01/g09/l202.exe)
                          Input orientation:                          
 ---------------------------------------------------------------------
 Center     Atomic      Atomic             Coordinates (Angstroms)
 Number     Number       Type             X           Y           Z
 ---------------------------------------------------------------------
      1          6           0       -6.591576   -1.117844    1.164504
      2          6           0       -5.203875   -0.800533    0.908988
      3          7           0       -4.095728   -0.529745    0.702159
      4          1           0       -6.780855   -1.231703    2.253083
      5          1           0       -6.913143   -2.005552    0.643570
      6          1           0       -7.183606   -0.302211    0.809771
 ---------------------------------------------------------------------
                    Distance matrix (angstroms):
                    1          2          3          4          5
     1  C    0.000000
     2  C    1.446267   0.000000
     3  N    2.605548   1.159351   0.000000
     4  H    1.110763   2.116451   3.179311   0.000000
     5  H    1.078333   2.108107   3.181079   1.790775   0.000000
     6  H    1.068453   2.043894   3.098119   1.763324   1.732669
                    6
     6  H    0.000000
 Stoichiometry    C2H3N
 Framework group  C1[X(C2H3N)]
 Deg. of freedom    12
 Full point group                 C1      NOp   1
 Largest Abelian subgroup         C1      NOp   1
 Largest concise Abelian subgroup C1      NOp   1
                         Standard orientation:                         
 ---------------------------------------------------------------------
 Center     Atomic      Atomic             Coordinates (Angstroms)
 Number     Number       Type             X           Y           Z
 ---------------------------------------------------------------------
      1          6           0        1.171816   -0.002821   -0.001978
      2          6           0       -0.274429   -0.000866   -0.009708
      3          7           0       -1.433726    0.001380    0.001169
      4          1           0        1.573339    1.006728   -0.233031
      5          1           0        1.585780   -0.725529   -0.686908
      6          1           0        1.492638   -0.268741    0.981868
 ---------------------------------------------------------------------
 Rotational constants (GHZ):    161.5761281      9.2860898      9.2653427
 Leave Link  202 at Wed Aug 26 15:39:03 2020, MaxMem=  2097152000 cpu:         0.0
 (Enter /opt/cluster/programs/g09/g09_d.01/g09/l301.exe)
 Standard basis: def2QZVP (5D, 7F)
 Ernie: Thresh=  0.10000D-02 Tol=  0.10000D-05 Strict=F.
 There are   321 symmetry adapted cartesian basis functions of A   symmetry.
 There are   261 symmetry adapted basis functions of A   symmetry.
   261 basis functions,   390 primitive gaussians,   321 cartesian basis functions
    11 alpha electrons       11 beta electrons
       nuclear repulsion energy        58.6332225717 Hartrees.
 IExCor=  419 DFT=T Ex+Corr=B2PLYPD3 ExCW=0 ScaHFX=  0.530000
 ScaDFX=  0.470000  0.470000  0.730000  0.730000 ScalE2=  0.270000  0.270000
 IRadAn=      0 IRanWt=     -1 IRanGd=            0 ICorTp=0 IEmpDi=141
 NAtoms=    6 NActive=    6 NUniq=    6 SFac= 1.00D+00 NAtFMM=   60 NAOKFM=F Big=F
 Integral buffers will be    131072 words long.
 Regular integral format.
 Two-electron integral symmetry is turned on.
 R6Disp:  Grimme-D3(BJ) Dispersion energy=       -0.0021040377 Hartrees.
 Nuclear repulsion after empirical dispersion term =       58.6311185340 Hartrees.
 Leave Link  301 at Wed Aug 26 15:39:03 2020, MaxMem=  2097152000 cpu:         0.5
 (Enter /opt/cluster/programs/g09/g09_d.01/g09/l302.exe)
 NPDir=0 NMtPBC=     1 NCelOv=     1 NCel=       1 NClECP=     1 NCelD=      1
         NCelK=      1 NCelE2=     1 NClLst=     1 CellRange=     0.0.
 One-electron integrals computed using PRISM.
   1 Symmetry operations used in ECPInt.
 ECPInt:  NShTT=    3321 NPrTT=    8136 LenC2=    3293 LenP2D=    7127.
 LDataN:  DoStor=T MaxTD1= 8 Len=  415
 NBasis=   261 RedAO= T EigKep=  8.09D-05  NBF=   261
 NBsUse=   261 1.00D-06 EigRej= -1.00D+00 NBFU=   261
 Precomputing XC quadrature grid using
 IXCGrd= 4 IRadAn=           0 IRanWt=          -1 IRanGd=           0 AccXCQ= 0.00D+00.
 Generated NRdTot=       0 NPtTot=           0 NUsed=           0 NTot=          32
 NSgBfM=   321   321   321   321   321 MxSgAt=     6 MxSgA2=     6.
 Leave Link  302 at Wed Aug 26 15:39:03 2020, MaxMem=  2097152000 cpu:         2.1
 (Enter /opt/cluster/programs/g09/g09_d.01/g09/l303.exe)
 DipDrv:  MaxL=1.
 Leave Link  303 at Wed Aug 26 15:39:03 2020, MaxMem=  2097152000 cpu:         0.3
 (Enter /opt/cluster/programs/g09/g09_d.01/g09/l401.exe)
 ExpMin= 7.60D-02 ExpMax= 9.07D+04 ExpMxC= 8.76D+02 IAcc=2 IRadAn=         4 AccDes= 0.00D+00
 Harris functional with IExCor=  419 and IRadAn=       4 diagonalized for initial guess.
 HarFok:  IExCor=  419 AccDes= 0.00D+00 IRadAn=         4 IDoV= 1 UseB2=F ITyADJ=14
 ICtDFT=  3500011 ScaDFX=  1.000000  1.000000  1.000000  1.000000
 FoFCou: FMM=F IPFlag=           0 FMFlag=      100000 FMFlg1=           0
         NFxFlg=           0 DoJE=T BraDBF=F KetDBF=T FulRan=T
         wScrn=  0.000000 ICntrl=     500 IOpCl=  0 I1Cent=   200000004 NGrid=           0
         NMat0=    1 NMatS0=      1 NMatT0=    0 NMatD0=    1 NMtDS0=    0 NMtDT0=    0
 Petite list used in FoFCou.
 Harris En= -132.852009691316    
 JPrj=0 DoOrth=F DoCkMO=F.
 Leave Link  401 at Wed Aug 26 15:39:04 2020, MaxMem=  2097152000 cpu:         4.1
 (Enter /opt/cluster/programs/g09/g09_d.01/g09/l502.exe)
 Closed shell SCF:
 Using DIIS extrapolation, IDIIS=  1040.
 Integral symmetry usage will be decided dynamically.
 Keep R1 ints in memory in canonical form, NReq=601554820.
 IVT=      332521 IEndB=      332521 NGot=  2097152000 MDV=  1512290144
 LenX=  1512290144 LenY=  1512186662
 Requested convergence on RMS density matrix=1.00D-08 within 128 cycles.
 Requested convergence on MAX density matrix=1.00D-06.
 Requested convergence on             energy=1.00D-06.
 No special actions if energy rises.
 FoFCou: FMM=F IPFlag=           0 FMFlag=           0 FMFlg1=           0
         NFxFlg=           0 DoJE=F BraDBF=F KetDBF=F FulRan=T
         wScrn=  0.000000 ICntrl=     600 IOpCl=  0 I1Cent=           0 NGrid=           0
         NMat0=    1 NMatS0=  34191 NMatT0=    0 NMatD0=    1 NMtDS0=    0 NMtDT0=    0
 Symmetry not used in FoFCou.
 Integral accuracy reduced to 1.0D-05 until final iterations.

 Cycle   1  Pass 0  IDiag  1:
 E= -132.421059001786    
 DIIS: error= 3.07D-02 at cycle   1 NSaved=   1.
 NSaved= 1 IEnMin= 1 EnMin= -132.421059001786     IErMin= 1 ErrMin= 3.07D-02
 ErrMax= 3.07D-02  0.00D+00 EMaxC= 1.00D-01 BMatC= 1.89D-01 BMatP= 1.89D-01
 IDIUse=3 WtCom= 6.93D-01 WtEn= 3.07D-01
 Coeff-Com:  0.100D+01
 Coeff-En:   0.100D+01
 Coeff:      0.100D+01
 Gap=     0.457 Goal=   None    Shift=    0.000
 GapD=    0.457 DampG=2.000 DampE=0.500 DampFc=1.0000 IDamp=-1.
 RMSDP=1.28D-03 MaxDP=6.60D-02              OVMax= 1.62D-01

 Cycle   2  Pass 0  IDiag  1:
 E= -132.455440096030     Delta-E=       -0.034381094244 Rises=F Damp=F
 DIIS: error= 3.15D-02 at cycle   2 NSaved=   2.
 NSaved= 2 IEnMin= 2 EnMin= -132.455440096030     IErMin= 1 ErrMin= 3.07D-02
 ErrMax= 3.15D-02  0.00D+00 EMaxC= 1.00D-01 BMatC= 9.31D-02 BMatP= 1.89D-01
 IDIUse=3 WtCom= 6.85D-01 WtEn= 3.15D-01
 Coeff-Com:  0.395D+00 0.605D+00
 Coeff-En:   0.391D+00 0.609D+00
 Coeff:      0.394D+00 0.606D+00
 Gap=     0.435 Goal=   None    Shift=    0.000
 RMSDP=8.45D-04 MaxDP=3.39D-02 DE=-3.44D-02 OVMax= 1.22D-01

 Cycle   3  Pass 0  IDiag  1:
 E= -132.518029907207     Delta-E=       -0.062589811178 Rises=F Damp=F
 DIIS: error= 1.37D-02 at cycle   3 NSaved=   3.
 NSaved= 3 IEnMin= 3 EnMin= -132.518029907207     IErMin= 3 ErrMin= 1.37D-02
 ErrMax= 1.37D-02  0.00D+00 EMaxC= 1.00D-01 BMatC= 2.01D-02 BMatP= 9.31D-02
 IDIUse=3 WtCom= 8.63D-01 WtEn= 1.37D-01
 Coeff-Com:  0.967D-01 0.328D+00 0.575D+00
 Coeff-En:   0.000D+00 0.131D+00 0.869D+00
 Coeff:      0.834D-01 0.301D+00 0.615D+00
 Gap=     0.426 Goal=   None    Shift=    0.000
 RMSDP=2.70D-04 MaxDP=9.83D-03 DE=-6.26D-02 OVMax= 5.95D-02

 Cycle   4  Pass 0  IDiag  1:
 E= -132.531824034197     Delta-E=       -0.013794126989 Rises=F Damp=F
 DIIS: error= 4.99D-03 at cycle   4 NSaved=   4.
 NSaved= 4 IEnMin= 4 EnMin= -132.531824034197     IErMin= 4 ErrMin= 4.99D-03
 ErrMax= 4.99D-03  0.00D+00 EMaxC= 1.00D-01 BMatC= 3.03D-03 BMatP= 2.01D-02
 IDIUse=3 WtCom= 9.50D-01 WtEn= 4.99D-02
 Coeff-Com: -0.126D-01 0.557D-01 0.328D+00 0.629D+00
 Coeff-En:   0.000D+00 0.000D+00 0.142D+00 0.858D+00
 Coeff:     -0.119D-01 0.529D-01 0.318D+00 0.641D+00
 Gap=     0.427 Goal=   None    Shift=    0.000
 RMSDP=9.11D-05 MaxDP=2.75D-03 DE=-1.38D-02 OVMax= 1.57D-02

 Cycle   5  Pass 0  IDiag  1:
 E= -132.534451162173     Delta-E=       -0.002627127976 Rises=F Damp=F
 DIIS: error= 3.08D-04 at cycle   5 NSaved=   5.
 NSaved= 5 IEnMin= 5 EnMin= -132.534451162173     IErMin= 5 ErrMin= 3.08D-04
 ErrMax= 3.08D-04  0.00D+00 EMaxC= 1.00D-01 BMatC= 1.29D-05 BMatP= 3.03D-03
 IDIUse=3 WtCom= 9.97D-01 WtEn= 3.08D-03
 Coeff-Com: -0.335D-02 0.534D-02 0.450D-01 0.134D+00 0.819D+00
 Coeff-En:   0.000D+00 0.000D+00 0.000D+00 0.000D+00 0.100D+01
 Coeff:     -0.334D-02 0.533D-02 0.449D-01 0.134D+00 0.819D+00
 Gap=     0.426 Goal=   None    Shift=    0.000
 RMSDP=8.32D-06 MaxDP=3.18D-04 DE=-2.63D-03 OVMax= 1.21D-03

 Initial convergence to 1.0D-05 achieved.  Increase integral accuracy.
 Cycle   6  Pass 1  IDiag  1:
 E= -132.534463905450     Delta-E=       -0.000012743278 Rises=F Damp=F
 DIIS: error= 8.52D-05 at cycle   1 NSaved=   1.
 NSaved= 1 IEnMin= 1 EnMin= -132.534463905450     IErMin= 1 ErrMin= 8.52D-05
 ErrMax= 8.52D-05  0.00D+00 EMaxC= 1.00D-01 BMatC= 6.12D-07 BMatP= 6.12D-07
 IDIUse=1 WtCom= 1.00D+00 WtEn= 0.00D+00
 Coeff-Com:  0.100D+01
 Coeff:      0.100D+01
 Gap=     0.427 Goal=   None    Shift=    0.000
 RMSDP=8.32D-06 MaxDP=3.18D-04 DE=-1.27D-05 OVMax= 3.98D-04

 Cycle   7  Pass 1  IDiag  1:
 E= -132.534464276412     Delta-E=       -0.000000370962 Rises=F Damp=F
 DIIS: error= 4.57D-05 at cycle   2 NSaved=   2.
 NSaved= 2 IEnMin= 2 EnMin= -132.534464276412     IErMin= 2 ErrMin= 4.57D-05
 ErrMax= 4.57D-05  0.00D+00 EMaxC= 1.00D-01 BMatC= 2.69D-07 BMatP= 6.12D-07
 IDIUse=1 WtCom= 1.00D+00 WtEn= 0.00D+00
 Coeff-Com:  0.390D+00 0.610D+00
 Coeff:      0.390D+00 0.610D+00
 Gap=     0.426 Goal=   None    Shift=    0.000
 RMSDP=9.93D-07 MaxDP=3.78D-05 DE=-3.71D-07 OVMax= 1.72D-04

 Cycle   8  Pass 1  IDiag  1:
 E= -132.534464510019     Delta-E=       -0.000000233607 Rises=F Damp=F
 DIIS: error= 1.48D-05 at cycle   3 NSaved=   3.
 NSaved= 3 IEnMin= 3 EnMin= -132.534464510019     IErMin= 3 ErrMin= 1.48D-05
 ErrMax= 1.48D-05  0.00D+00 EMaxC= 1.00D-01 BMatC= 2.06D-08 BMatP= 2.69D-07
 IDIUse=1 WtCom= 1.00D+00 WtEn= 0.00D+00
 Coeff-Com:  0.105D+00 0.249D+00 0.647D+00
 Coeff:      0.105D+00 0.249D+00 0.647D+00
 Gap=     0.426 Goal=   None    Shift=    0.000
 RMSDP=5.69D-07 MaxDP=2.58D-05 DE=-2.34D-07 OVMax= 6.13D-05

 Cycle   9  Pass 1  IDiag  1:
 E= -132.534464522379     Delta-E=       -0.000000012360 Rises=F Damp=F
 DIIS: error= 9.67D-06 at cycle   4 NSaved=   4.
 NSaved= 4 IEnMin= 4 EnMin= -132.534464522379     IErMin= 4 ErrMin= 9.67D-06
 ErrMax= 9.67D-06  0.00D+00 EMaxC= 1.00D-01 BMatC= 7.01D-09 BMatP= 2.06D-08
 IDIUse=1 WtCom= 1.00D+00 WtEn= 0.00D+00
 Coeff-Com: -0.591D-01-0.327D-01 0.402D+00 0.690D+00
 Coeff:     -0.591D-01-0.327D-01 0.402D+00 0.690D+00
 Gap=     0.426 Goal=   None    Shift=    0.000
 RMSDP=2.82D-07 MaxDP=1.29D-05 DE=-1.24D-08 OVMax= 3.75D-05

 Cycle  10  Pass 1  IDiag  1:
 E= -132.534464529039     Delta-E=       -0.000000006660 Rises=F Damp=F
 DIIS: error= 9.31D-07 at cycle   5 NSaved=   5.
 NSaved= 5 IEnMin= 5 EnMin= -132.534464529039     IErMin= 5 ErrMin= 9.31D-07
 ErrMax= 9.31D-07  0.00D+00 EMaxC= 1.00D-01 BMatC= 9.14D-11 BMatP= 7.01D-09
 IDIUse=1 WtCom= 1.00D+00 WtEn= 0.00D+00
 Coeff-Com: -0.198D-01-0.188D-01 0.707D-01 0.184D+00 0.784D+00
 Coeff:     -0.198D-01-0.188D-01 0.707D-01 0.184D+00 0.784D+00
 Gap=     0.426 Goal=   None    Shift=    0.000
 RMSDP=4.49D-08 MaxDP=2.17D-06 DE=-6.66D-09 OVMax= 3.35D-06

 Cycle  11  Pass 1  IDiag  1:
 E= -132.534464529132     Delta-E=       -0.000000000093 Rises=F Damp=F
 DIIS: error= 2.51D-07 at cycle   6 NSaved=   6.
 NSaved= 6 IEnMin= 6 EnMin= -132.534464529132     IErMin= 6 ErrMin= 2.51D-07
 ErrMax= 2.51D-07  0.00D+00 EMaxC= 1.00D-01 BMatC= 6.84D-12 BMatP= 9.14D-11
 IDIUse=1 WtCom= 1.00D+00 WtEn= 0.00D+00
 Coeff-Com:  0.324D-02 0.632D-03-0.345D-01-0.343D-01 0.138D+00 0.927D+00
 Coeff:      0.324D-02 0.632D-03-0.345D-01-0.343D-01 0.138D+00 0.927D+00
 Gap=     0.426 Goal=   None    Shift=    0.000
 RMSDP=1.15D-08 MaxDP=3.90D-07 DE=-9.32D-11 OVMax= 1.87D-06

 Cycle  12  Pass 1  IDiag  1:
 E= -132.534464529151     Delta-E=       -0.000000000019 Rises=F Damp=F
 DIIS: error= 8.93D-08 at cycle   7 NSaved=   7.
 NSaved= 7 IEnMin= 7 EnMin= -132.534464529151     IErMin= 7 ErrMin= 8.93D-08
 ErrMax= 8.93D-08  0.00D+00 EMaxC= 1.00D-01 BMatC= 3.90D-13 BMatP= 6.84D-12
 IDIUse=1 WtCom= 1.00D+00 WtEn= 0.00D+00
 Coeff-Com:  0.554D-03 0.110D-02 0.294D-02-0.212D-02-0.768D-01-0.210D+00
 Coeff-Com:  0.128D+01
 Coeff:      0.554D-03 0.110D-02 0.294D-02-0.212D-02-0.768D-01-0.210D+00
 Coeff:      0.128D+01
 Gap=     0.426 Goal=   None    Shift=    0.000
 RMSDP=4.08D-09 MaxDP=1.35D-07 DE=-1.92D-11 OVMax= 1.01D-06

 SCF Done:  E(RB2PLYPD3) =  -132.534464529     A.U. after   12 cycles
            NFock= 12  Conv=0.41D-08     -V/T= 2.0036
 KE= 1.320613574615D+02 PE=-4.258705376811D+02 EE= 1.026435971564D+02
 Leave Link  502 at Wed Aug 26 15:39:28 2020, MaxMem=  2097152000 cpu:       112.2
 (Enter /opt/cluster/programs/g09/g09_d.01/g09/l801.exe)
 DoSCS=T DFT=T ScalE2(SS,OS)=  0.270000  0.270000
 ExpMin= 7.60D-02 ExpMax= 9.07D+04 ExpMxC= 8.76D+02 IAcc=3 IRadAn=         5 AccDes= 0.00D+00
 HarFok:  IExCor=  205 AccDes= 0.00D+00 IRadAn=         5 IDoV=-2 UseB2=F ITyADJ=14
 ICtDFT= 12500011 ScaDFX=  1.000000  1.000000  1.000000  1.000000
 Largest valence mixing into a core orbital is  1.17D-04
 Largest core mixing into a valence orbital is  1.95D-05
 Range of M.O.s used for correlation:     4   261
 NBasis=   261 NAE=    11 NBE=    11 NFC=     3 NFV=     0
 NROrb=    258 NOA=     8 NOB=     8 NVA=   250 NVB=   250

 **** Warning!!: The largest alpha MO coefficient is  0.31359514D+02

 Leave Link  801 at Wed Aug 26 15:39:28 2020, MaxMem=  2097152000 cpu:         0.6
 (Enter /opt/cluster/programs/g09/g09_d.01/g09/l906.exe)
 DoSCS=T DFT=T ScalE2(SS,OS)=  0.270000  0.270000
 FulOut=F Deriv=F AODrv=F NAtomX=     6
   MMem=        2666  MDisk=           8 MDiskD=           8
  W3Min=      642000 MinDsk=     1426009 NBas6D=         321
 NBas2D=       52689    NTT=       51681    LW2=     4508827
    MDV=  2096809249 MDiskM=       14501 NBas2p=       52161
 Fully direct method using O(OVN) memory.
 IMap=   1   2   3   4   5   6   7   8
 JobTyp=1 Pass  1:  I=   1 to   8 NPSUse=  8 ParTrn=T ParDer=T DoDerP=F.
 Spin components of T(2) and E(2):
     alpha-alpha T2 =       0.3596815133D-01 E2=     -0.2150199702D-01
     alpha-beta  T2 =       0.2095043718D+00 E2=     -0.1378411700D+00
     beta-beta   T2 =       0.3596815133D-01 E2=     -0.2150199702D-01
 The integrals were generated   1 times.
 E2(B2PLYPD3) =    -0.1808451640D+00 E(B2PLYPD3) =    -0.13271530969316D+03
 Leave Link  906 at Wed Aug 26 15:39:41 2020, MaxMem=  2097152000 cpu:       103.1
 (Enter /opt/cluster/programs/g09/g09_d.01/g09/l601.exe)
 Copying SCF densities to generalized density rwf, IOpCl= 0 IROHF=0.

 **********************************************************************

            Population analysis using the SCF density.

 **********************************************************************

 Orbital symmetries:
       Occupied  (A) (A) (A) (A) (A) (A) (A) (A) (A) (A) (A)
       Virtual   (A) (A) (A) (A) (A) (A) (A) (A) (A) (A) (A) (A)
                 (A) (A) (A) (A) (A) (A) (A) (A) (A) (A) (A) (A)
                 (A) (A) (A) (A) (A) (A) (A) (A) (A) (A) (A) (A)
                 (A) (A) (A) (A) (A) (A) (A) (A) (A) (A) (A) (A)
                 (A) (A) (A) (A) (A) (A) (A) (A) (A) (A) (A) (A)
                 (A) (A) (A) (A) (A) (A) (A) (A) (A) (A) (A) (A)
                 (A) (A) (A) (A) (A) (A) (A) (A) (A) (A) (A) (A)
                 (A) (A) (A) (A) (A) (A) (A) (A) (A) (A) (A) (A)
                 (A) (A) (A) (A) (A) (A) (A) (A) (A) (A) (A) (A)
                 (A) (A) (A) (A) (A) (A) (A) (A) (A) (A) (A) (A)
                 (A) (A) (A) (A) (A) (A) (A) (A) (A) (A) (A) (A)
                 (A) (A) (A) (A) (A) (A) (A) (A) (A) (A) (A) (A)
                 (A) (A) (A) (A) (A) (A) (A) (A) (A) (A) (A) (A)
                 (A) (A) (A) (A) (A) (A) (A) (A) (A) (A) (A) (A)
                 (A) (A) (A) (A) (A) (A) (A) (A) (A) (A) (A) (A)
                 (A) (A) (A) (A) (A) (A) (A) (A) (A) (A) (A) (A)
                 (A) (A) (A) (A) (A) (A) (A) (A) (A) (A) (A) (A)
                 (A) (A) (A) (A) (A) (A) (A) (A) (A) (A) (A) (A)
                 (A) (A) (A) (A) (A) (A) (A) (A) (A) (A) (A) (A)
                 (A) (A) (A) (A) (A) (A) (A) (A) (A) (A) (A) (A)
                 (A) (A) (A) (A) (A) (A) (A) (A) (A) (A)
 The electronic state is 1-A.
 Alpha  occ. eigenvalues --  -14.84320 -10.66908 -10.66364  -1.03958  -0.89529
 Alpha  occ. eigenvalues --   -0.60104  -0.54187  -0.53817  -0.44828  -0.38955
 Alpha  occ. eigenvalues --   -0.38858
 Alpha virt. eigenvalues --    0.03775   0.07611   0.07987   0.10161   0.11405
 Alpha virt. eigenvalues --    0.11525   0.15487   0.16026   0.16710   0.20109
 Alpha virt. eigenvalues --    0.20144   0.25541   0.32733   0.34499   0.34888
 Alpha virt. eigenvalues --    0.38929   0.39777   0.40121   0.40661   0.47407
 Alpha virt. eigenvalues --    0.50843   0.51380   0.59062   0.59629   0.61507
 Alpha virt. eigenvalues --    0.67318   0.67571   0.69632   0.69944   0.79182
 Alpha virt. eigenvalues --    0.79269   0.82167   0.82649   0.83821   0.86608
 Alpha virt. eigenvalues --    0.91685   0.93023   0.95936   0.96482   0.97640
 Alpha virt. eigenvalues --    1.05900   1.07963   1.08638   1.12196   1.12734
 Alpha virt. eigenvalues --    1.14621   1.22368   1.22931   1.23615   1.34971
 Alpha virt. eigenvalues --    1.36143   1.46136   1.47156   1.48759   1.54649
 Alpha virt. eigenvalues --    1.65770   1.66161   1.69838   1.74626   1.78102
 Alpha virt. eigenvalues --    1.78586   1.78771   1.89204   1.91609   1.92285
 Alpha virt. eigenvalues --    1.93948   1.98835   1.99962   2.01451   2.05094
 Alpha virt. eigenvalues --    2.05436   2.13265   2.13823   2.20281   2.20867
 Alpha virt. eigenvalues --    2.23441   2.23912   2.24902   2.35044   2.36407
 Alpha virt. eigenvalues --    2.43723   2.50815   2.51871   2.57113   2.57628
 Alpha virt. eigenvalues --    2.60273   2.66886   2.70363   2.71566   2.72714
 Alpha virt. eigenvalues --    2.77075   2.78341   2.86794   2.89380   2.90711
 Alpha virt. eigenvalues --    2.93477   2.95882   2.97242   2.97549   3.08791
 Alpha virt. eigenvalues --    3.10727   3.11864   3.21277   3.30103   3.32440
 Alpha virt. eigenvalues --    3.33851   3.37702   3.38800   3.41735   3.49860
 Alpha virt. eigenvalues --    3.54165   3.57050   3.72674   3.74082   3.75762
 Alpha virt. eigenvalues --    3.88335   3.92501   3.93315   3.98017   4.00120
 Alpha virt. eigenvalues --    4.00748   4.05743   4.06077   4.24995   4.25605
 Alpha virt. eigenvalues --    4.56521   4.90955   4.91095   5.08046   5.10609
 Alpha virt. eigenvalues --    5.11102   5.18837   5.19687   5.21134   5.22860
 Alpha virt. eigenvalues --    5.31655   5.43982   5.45982   5.47297   5.63997
 Alpha virt. eigenvalues --    5.67044   5.84727   5.86713   5.90125   5.93340
 Alpha virt. eigenvalues --    5.95016   5.98199   5.99785   6.00920   6.01887
 Alpha virt. eigenvalues --    6.04296   6.06292   6.06748   6.08299   6.13747
 Alpha virt. eigenvalues --    6.19076   6.19808   6.25983   6.31199   6.33769
 Alpha virt. eigenvalues --    6.42145   6.45855   6.46195   6.57588   6.59967
 Alpha virt. eigenvalues --    6.63781   6.65224   6.89522   6.91456   6.95763
 Alpha virt. eigenvalues --    6.97443   7.02598   7.02624   7.10160   7.11500
 Alpha virt. eigenvalues --    7.14507   7.19172   7.23450   7.48444   7.49052
 Alpha virt. eigenvalues --    7.50849   7.52444   7.57986   7.61423   7.64772
 Alpha virt. eigenvalues --    7.67424   7.74588   7.75856   7.81457   7.86302
 Alpha virt. eigenvalues --    7.89912   7.92634   7.98915   8.04479   8.29135
 Alpha virt. eigenvalues --    8.31580   8.33774   8.43295   8.44943   8.46683
 Alpha virt. eigenvalues --    8.47089   8.48926   8.50259   8.56215   8.58439
 Alpha virt. eigenvalues --    8.60569   8.65914   8.66419   8.66805   8.67928
 Alpha virt. eigenvalues --    8.69651   8.81188   8.87459   8.90776   9.04919
 Alpha virt. eigenvalues --    9.05276   9.10902   9.11715   9.14301   9.16789
 Alpha virt. eigenvalues --    9.26326   9.28892   9.72570   9.75788   9.81138
 Alpha virt. eigenvalues --    9.89349   9.93655   9.96472  10.01481  10.14125
 Alpha virt. eigenvalues --   10.15943  10.17733  10.20672  10.34466  10.47503
 Alpha virt. eigenvalues --   10.51805  10.67205  11.37373  11.70226  11.82301
 Alpha virt. eigenvalues --   12.00783  12.05194  13.12637  13.52851  29.20109
 Alpha virt. eigenvalues --   29.60126  38.31092 148.85953 149.23517 198.22758
          Condensed to atoms (all electrons):
               1          2          3          4          5          6
     1  C    4.601219   0.298955  -0.059174   0.413205   0.413410   0.412334
     2  C    0.298955   4.845789   0.986640  -0.042743  -0.040753  -0.048089
     3  N   -0.059174   0.986640   6.284111  -0.000887  -0.000741  -0.001155
     4  H    0.413205  -0.042743  -0.000887   0.594212  -0.029719  -0.029469
     5  H    0.413410  -0.040753  -0.000741  -0.029719   0.593333  -0.031910
     6  H    0.412334  -0.048089  -0.001155  -0.029469  -0.031910   0.601527
 Mulliken charges:
               1
     1  C   -0.079949
     2  C    0.000200
     3  N   -0.208794
     4  H    0.095401
     5  H    0.096380
     6  H    0.096762
 Sum of Mulliken charges =   0.00000
 Mulliken charges with hydrogens summed into heavy atoms:
               1
     1  C    0.208594
     2  C    0.000200
     3  N   -0.208794
 Electronic spatial extent (au):  <R**2>=            161.2724
 Charge=              0.0000 electrons
 Dipole moment (field-independent basis, Debye):
    X=              4.1368    Y=             -0.0153    Z=              0.0217  Tot=              4.1369
 Quadrupole moment (field-independent basis, Debye-Ang):
   XX=            -20.9567   YY=            -17.7017   ZZ=            -17.8274
   XY=             -0.0124   XZ=             -0.0103   YZ=              0.0093
 Traceless Quadrupole moment (field-independent basis, Debye-Ang):
   XX=             -2.1281   YY=              1.1269   ZZ=              1.0012
   XY=             -0.0124   XZ=             -0.0103   YZ=              0.0093
 Octapole moment (field-independent basis, Debye-Ang**2):
  XXX=             13.0044  YYY=              0.5148  ZZZ=              0.6718  XYY=              2.3931
  XXY=             -0.0495  XXZ=             -0.1488  XZZ=              2.1117  YZZ=             -0.5733
  YYZ=             -0.4971  XYZ=              0.0435
 Hexadecapole moment (field-independent basis, Debye-Ang**3):
 XXXX=           -181.1578 YYYY=            -24.7725 ZZZZ=            -24.3460 XXXY=             -0.1472
 XXXZ=             -0.3313 YYYX=              0.8874 YYYZ=              0.0309 ZZZX=              0.9676
 ZZZY=             -0.0264 XXYY=            -30.7433 XXZZ=            -31.2760 YYZZ=             -8.2485
 XXYZ=              0.1467 YYXZ=             -0.8981 ZZXY=             -0.9636
 N-N= 5.863111853401D+01 E-N=-4.258705390130D+02  KE= 1.320613574615D+02
 Leave Link  601 at Wed Aug 26 15:39:41 2020, MaxMem=  2097152000 cpu:         0.3
 (Enter /opt/cluster/programs/g09/g09_d.01/g09/l9999.exe)
 1\1\GINC-NODE25\SP\RB2PLYPD3-FC\def2QZVP\C2H3N1\BOITTIER\26-Aug-2020\0
 \\#p B2PLYPD3/Def2QZVP\\cyanomethane\\0,1\C,0,-6.591576,-1.117844,1.16
 4504\C,0,-5.203875,-0.800533,0.908988\N,0,-4.095728,-0.529745,0.702159
 \H,0,-6.780855,-1.231703,2.253083\H,0,-6.913143,-2.005552,0.64357\H,0,
 -7.183606,-0.302211,0.809771\\Version=ES64L-G09RevD.01\State=1-A\HF=-1
 32.5344645\MP2=-132.7153097\RMSD=4.076e-09\PG=C01 [X(C2H3N1)]\\@


 THE SOLUTION TO A PROBLEM CHANGES THE PROBLEM.

                                 -- JOHN PEERS
           PAUL DICKSON'S "THE OFFICIAL RULES"
 Job cpu time:       0 days  0 hours  3 minutes 44.6 seconds.
 File lengths (MBytes):  RWF=     28 Int=      0 D2E=      0 Chk=      5 Scr=      1
 Normal termination of Gaussian 09 at Wed Aug 26 15:39:41 2020.
