 Entering Gaussian System, Link 0=/opt/cluster/programs/g09/g09_d.01/g09//g09
 Input=/home/boittier/MDCM/nms_sampling/cyanomethane_geom.xyz.dir/energies/cyanomethane_3287_energy.com
 Output=/scratch/boittier/cyanomethane_3287_energy/cyanomethane_3287_energy.out
 Initial command:
 /opt/cluster/programs/g09/g09_d.01/g09/l1.exe "/scratch/boittier/cyanomethane_3287_energy/Gau-168298.inp" -scrdir="/scratch/boittier/cyanomethane_3287_energy/"
 Entering Link 1 = /opt/cluster/programs/g09/g09_d.01/g09/l1.exe PID=    168299.
  
 Copyright (c) 1988,1990,1992,1993,1995,1998,2003,2009,2013,
            Gaussian, Inc.  All Rights Reserved.
  
 This is part of the Gaussian(R) 09 program.  It is based on
 the Gaussian(R) 03 system (copyright 2003, Gaussian, Inc.),
 the Gaussian(R) 98 system (copyright 1998, Gaussian, Inc.),
 the Gaussian(R) 94 system (copyright 1995, Gaussian, Inc.),
 the Gaussian 92(TM) system (copyright 1992, Gaussian, Inc.),
 the Gaussian 90(TM) system (copyright 1990, Gaussian, Inc.),
 the Gaussian 88(TM) system (copyright 1988, Gaussian, Inc.),
 the Gaussian 86(TM) system (copyright 1986, Carnegie Mellon
 University), and the Gaussian 82(TM) system (copyright 1983,
 Carnegie Mellon University). Gaussian is a federally registered
 trademark of Gaussian, Inc.
  
 This software contains proprietary and confidential information,
 including trade secrets, belonging to Gaussian, Inc.
  
 This software is provided under written license and may be
 used, copied, transmitted, or stored only in accord with that
 written license.
  
 The following legend is applicable only to US Government
 contracts under FAR:
  
                    RESTRICTED RIGHTS LEGEND
  
 Use, reproduction and disclosure by the US Government is
 subject to restrictions as set forth in subparagraphs (a)
 and (c) of the Commercial Computer Software - Restricted
 Rights clause in FAR 52.227-19.
  
 Gaussian, Inc.
 340 Quinnipiac St., Bldg. 40, Wallingford CT 06492
  
  
 ---------------------------------------------------------------
 Warning -- This program may not be used in any manner that
 competes with the business of Gaussian, Inc. or will provide
 assistance to any competitor of Gaussian, Inc.  The licensee
 of this program is prohibited from giving any competitor of
 Gaussian, Inc. access to this program.  By using this program,
 the user acknowledges that Gaussian, Inc. is engaged in the
 business of creating and licensing software in the field of
 computational chemistry and represents and warrants to the
 licensee that it is not a competitor of Gaussian, Inc. and that
 it will not use this program in any manner prohibited above.
 ---------------------------------------------------------------
  

 Cite this work as:
 Gaussian 09, Revision D.01,
 M. J. Frisch, G. W. Trucks, H. B. Schlegel, G. E. Scuseria, 
 M. A. Robb, J. R. Cheeseman, G. Scalmani, V. Barone, B. Mennucci, 
 G. A. Petersson, H. Nakatsuji, M. Caricato, X. Li, H. P. Hratchian, 
 A. F. Izmaylov, J. Bloino, G. Zheng, J. L. Sonnenberg, M. Hada, 
 M. Ehara, K. Toyota, R. Fukuda, J. Hasegawa, M. Ishida, T. Nakajima, 
 Y. Honda, O. Kitao, H. Nakai, T. Vreven, J. A. Montgomery, Jr., 
 J. E. Peralta, F. Ogliaro, M. Bearpark, J. J. Heyd, E. Brothers, 
 K. N. Kudin, V. N. Staroverov, T. Keith, R. Kobayashi, J. Normand, 
 K. Raghavachari, A. Rendell, J. C. Burant, S. S. Iyengar, J. Tomasi, 
 M. Cossi, N. Rega, J. M. Millam, M. Klene, J. E. Knox, J. B. Cross, 
 V. Bakken, C. Adamo, J. Jaramillo, R. Gomperts, R. E. Stratmann, 
 O. Yazyev, A. J. Austin, R. Cammi, C. Pomelli, J. W. Ochterski, 
 R. L. Martin, K. Morokuma, V. G. Zakrzewski, G. A. Voth, 
 P. Salvador, J. J. Dannenberg, S. Dapprich, A. D. Daniels, 
 O. Farkas, J. B. Foresman, J. V. Ortiz, J. Cioslowski, 
 and D. J. Fox, Gaussian, Inc., Wallingford CT, 2013.
 
 ******************************************
 Gaussian 09:  ES64L-G09RevD.01 24-Apr-2013
                26-Aug-2020 
 ******************************************
 %chk=/home/boittier/MDCM/nms_sampling/cyanomethane_geom.xyz.dir/cyanomethane_328
 7.chk
 %nproc=8
 Will use up to    8 processors via shared memory.
 %mem=16000MB
 --------------------
 #p B2PLYPD3/Def2QZVP
 --------------------
 1/38=1/1;
 2/12=2,17=6,18=5,40=1/2;
 3/5=45,7=101,11=9,16=1,25=1,30=1,74=-60/1,2,3;
 4//1;
 5/5=2,38=5/2;
 8/10=1/1;
 9/16=-3/6;
 6/7=2,8=2,9=2,10=2/1;
 99/5=1,9=1/99;
 Leave Link    1 at Wed Aug 26 23:01:08 2020, MaxMem=  2097152000 cpu:         0.2
 (Enter /opt/cluster/programs/g09/g09_d.01/g09/l101.exe)
 ------------
 cyanomethane
 ------------
 Symbolic Z-matrix:
 Charge =  0 Multiplicity = 1
 C                    -6.60067  -1.11407   1.16555 
 C                    -5.19159  -0.80202   0.85334 
 N                    -4.08392  -0.53102   0.73845 
 H                    -7.02282  -1.21676   2.37085 
 H                    -6.86754  -2.10569   0.68994 
 H                    -7.19024  -0.25321   0.80728 
 
 NAtoms=      6 NQM=        6 NQMF=       0 NMMI=      0 NMMIF=      0
                NMic=       0 NMicF=      0.
                    Isotopes and Nuclear Properties:
 (Nuclear quadrupole moments (NQMom) in fm**2, nuclear magnetic moments (NMagM)
  in nuclear magnetons)

  Atom         1           2           3           4           5           6
 IAtWgt=          12          12          14           1           1           1
 AtmWgt=  12.0000000  12.0000000  14.0030740   1.0078250   1.0078250   1.0078250
 NucSpn=           0           0           2           1           1           1
 AtZEff=   0.0000000   0.0000000   0.0000000   0.0000000   0.0000000   0.0000000
 NQMom=    0.0000000   0.0000000   2.0440000   0.0000000   0.0000000   0.0000000
 NMagM=    0.0000000   0.0000000   0.4037610   2.7928460   2.7928460   2.7928460
 AtZNuc=   6.0000000   6.0000000   7.0000000   1.0000000   1.0000000   1.0000000
 Leave Link  101 at Wed Aug 26 23:01:08 2020, MaxMem=  2097152000 cpu:         0.5
 (Enter /opt/cluster/programs/g09/g09_d.01/g09/l202.exe)
                          Input orientation:                          
 ---------------------------------------------------------------------
 Center     Atomic      Atomic             Coordinates (Angstroms)
 Number     Number       Type             X           Y           Z
 ---------------------------------------------------------------------
      1          6           0       -6.600674   -1.114074    1.165546
      2          6           0       -5.191587   -0.802016    0.853337
      3          7           0       -4.083924   -0.531021    0.738445
      4          1           0       -7.022817   -1.216763    2.370852
      5          1           0       -6.867544   -2.105692    0.689943
      6          1           0       -7.190236   -0.253210    0.807277
 ---------------------------------------------------------------------
                    Distance matrix (angstroms):
                    1          2          3          4          5
     1  C    0.000000
     2  C    1.476611   0.000000
     3  N    2.618472   1.146105   0.000000
     4  H    1.281215   2.414181   3.431047   0.000000
     5  H    1.131691   2.129578   3.198512   1.907815   0.000000
     6  H    1.103189   2.073139   3.119470   1.844242   1.884035
                    6
     6  H    0.000000
 Stoichiometry    C2H3N
 Framework group  C1[X(C2H3N)]
 Deg. of freedom    12
 Full point group                 C1      NOp   1
 Largest Abelian subgroup         C1      NOp   1
 Largest concise Abelian subgroup C1      NOp   1
                         Standard orientation:                         
 ---------------------------------------------------------------------
 Center     Atomic      Atomic             Coordinates (Angstroms)
 Number     Number       Type             X           Y           Z
 ---------------------------------------------------------------------
      1          6           0       -1.174374    0.009204    0.009814
      2          6           0        0.301656    0.044085    0.032208
      3          7           0        1.443443   -0.031604   -0.032194
      4          1           0       -1.824381   -0.704450   -0.832624
      5          1           0       -1.560493    1.059909   -0.156486
      6          1           0       -1.482921   -0.453961    0.962339
 ---------------------------------------------------------------------
 Rotational constants (GHZ):    142.0047064      9.0313095      8.9998520
 Leave Link  202 at Wed Aug 26 23:01:08 2020, MaxMem=  2097152000 cpu:         0.0
 (Enter /opt/cluster/programs/g09/g09_d.01/g09/l301.exe)
 Standard basis: def2QZVP (5D, 7F)
 Ernie: Thresh=  0.10000D-02 Tol=  0.10000D-05 Strict=F.
 There are   321 symmetry adapted cartesian basis functions of A   symmetry.
 There are   261 symmetry adapted basis functions of A   symmetry.
   261 basis functions,   390 primitive gaussians,   321 cartesian basis functions
    11 alpha electrons       11 beta electrons
       nuclear repulsion energy        57.5513646057 Hartrees.
 IExCor=  419 DFT=T Ex+Corr=B2PLYPD3 ExCW=0 ScaHFX=  0.530000
 ScaDFX=  0.470000  0.470000  0.730000  0.730000 ScalE2=  0.270000  0.270000
 IRadAn=      0 IRanWt=     -1 IRanGd=            0 ICorTp=0 IEmpDi=141
 NAtoms=    6 NActive=    6 NUniq=    6 SFac= 1.00D+00 NAtFMM=   60 NAOKFM=F Big=F
 Integral buffers will be    131072 words long.
 Regular integral format.
 Two-electron integral symmetry is turned on.
 R6Disp:  Grimme-D3(BJ) Dispersion energy=       -0.0020871001 Hartrees.
 Nuclear repulsion after empirical dispersion term =       57.5492775056 Hartrees.
 Leave Link  301 at Wed Aug 26 23:01:08 2020, MaxMem=  2097152000 cpu:         0.5
 (Enter /opt/cluster/programs/g09/g09_d.01/g09/l302.exe)
 NPDir=0 NMtPBC=     1 NCelOv=     1 NCel=       1 NClECP=     1 NCelD=      1
         NCelK=      1 NCelE2=     1 NClLst=     1 CellRange=     0.0.
 One-electron integrals computed using PRISM.
   1 Symmetry operations used in ECPInt.
 ECPInt:  NShTT=    3321 NPrTT=    8136 LenC2=    3291 LenP2D=    7107.
 LDataN:  DoStor=T MaxTD1= 8 Len=  415
 NBasis=   261 RedAO= T EigKep=  8.42D-05  NBF=   261
 NBsUse=   261 1.00D-06 EigRej= -1.00D+00 NBFU=   261
 Precomputing XC quadrature grid using
 IXCGrd= 4 IRadAn=           0 IRanWt=          -1 IRanGd=           0 AccXCQ= 0.00D+00.
 Generated NRdTot=       0 NPtTot=           0 NUsed=           0 NTot=          32
 NSgBfM=   321   321   321   321   321 MxSgAt=     6 MxSgA2=     6.
 Leave Link  302 at Wed Aug 26 23:01:09 2020, MaxMem=  2097152000 cpu:         1.9
 (Enter /opt/cluster/programs/g09/g09_d.01/g09/l303.exe)
 DipDrv:  MaxL=1.
 Leave Link  303 at Wed Aug 26 23:01:09 2020, MaxMem=  2097152000 cpu:         0.2
 (Enter /opt/cluster/programs/g09/g09_d.01/g09/l401.exe)
 ExpMin= 7.60D-02 ExpMax= 9.07D+04 ExpMxC= 8.76D+02 IAcc=2 IRadAn=         4 AccDes= 0.00D+00
 Harris functional with IExCor=  419 and IRadAn=       4 diagonalized for initial guess.
 HarFok:  IExCor=  419 AccDes= 0.00D+00 IRadAn=         4 IDoV= 1 UseB2=F ITyADJ=14
 ICtDFT=  3500011 ScaDFX=  1.000000  1.000000  1.000000  1.000000
 FoFCou: FMM=F IPFlag=           0 FMFlag=      100000 FMFlg1=           0
         NFxFlg=           0 DoJE=T BraDBF=F KetDBF=T FulRan=T
         wScrn=  0.000000 ICntrl=     500 IOpCl=  0 I1Cent=   200000004 NGrid=           0
         NMat0=    1 NMatS0=      1 NMatT0=    0 NMatD0=    1 NMtDS0=    0 NMtDT0=    0
 Petite list used in FoFCou.
 Harris En= -132.818553324932    
 JPrj=0 DoOrth=F DoCkMO=F.
 Leave Link  401 at Wed Aug 26 23:01:09 2020, MaxMem=  2097152000 cpu:         3.7
 (Enter /opt/cluster/programs/g09/g09_d.01/g09/l502.exe)
 Closed shell SCF:
 Using DIIS extrapolation, IDIIS=  1040.
 Integral symmetry usage will be decided dynamically.
 Keep R1 ints in memory in canonical form, NReq=601554820.
 IVT=      332521 IEndB=      332521 NGot=  2097152000 MDV=  1512290144
 LenX=  1512290144 LenY=  1512186662
 Requested convergence on RMS density matrix=1.00D-08 within 128 cycles.
 Requested convergence on MAX density matrix=1.00D-06.
 Requested convergence on             energy=1.00D-06.
 No special actions if energy rises.
 FoFCou: FMM=F IPFlag=           0 FMFlag=           0 FMFlg1=           0
         NFxFlg=           0 DoJE=F BraDBF=F KetDBF=F FulRan=T
         wScrn=  0.000000 ICntrl=     600 IOpCl=  0 I1Cent=           0 NGrid=           0
         NMat0=    1 NMatS0=  34191 NMatT0=    0 NMatD0=    1 NMtDS0=    0 NMtDT0=    0
 Symmetry not used in FoFCou.
 Integral accuracy reduced to 1.0D-05 until final iterations.

 Cycle   1  Pass 0  IDiag  1:
 E= -132.401889331938    
 DIIS: error= 2.85D-02 at cycle   1 NSaved=   1.
 NSaved= 1 IEnMin= 1 EnMin= -132.401889331938     IErMin= 1 ErrMin= 2.85D-02
 ErrMax= 2.85D-02  0.00D+00 EMaxC= 1.00D-01 BMatC= 1.81D-01 BMatP= 1.81D-01
 IDIUse=3 WtCom= 7.15D-01 WtEn= 2.85D-01
 Coeff-Com:  0.100D+01
 Coeff-En:   0.100D+01
 Coeff:      0.100D+01
 Gap=     0.422 Goal=   None    Shift=    0.000
 GapD=    0.422 DampG=2.000 DampE=0.500 DampFc=1.0000 IDamp=-1.
 RMSDP=1.35D-03 MaxDP=7.24D-02              OVMax= 1.69D-01

 Cycle   2  Pass 0  IDiag  1:
 E= -132.420727467383     Delta-E=       -0.018838135446 Rises=F Damp=F
 DIIS: error= 3.03D-02 at cycle   2 NSaved=   2.
 NSaved= 2 IEnMin= 2 EnMin= -132.420727467383     IErMin= 1 ErrMin= 2.85D-02
 ErrMax= 3.03D-02  0.00D+00 EMaxC= 1.00D-01 BMatC= 1.02D-01 BMatP= 1.81D-01
 IDIUse=3 WtCom= 6.97D-01 WtEn= 3.03D-01
 Coeff-Com:  0.415D+00 0.585D+00
 Coeff-En:   0.445D+00 0.555D+00
 Coeff:      0.424D+00 0.576D+00
 Gap=     0.437 Goal=   None    Shift=    0.000
 RMSDP=9.04D-04 MaxDP=3.81D-02 DE=-1.88D-02 OVMax= 1.26D-01

 Cycle   3  Pass 0  IDiag  1:
 E= -132.494903125472     Delta-E=       -0.074175658088 Rises=F Damp=F
 DIIS: error= 1.43D-02 at cycle   3 NSaved=   3.
 NSaved= 3 IEnMin= 3 EnMin= -132.494903125472     IErMin= 3 ErrMin= 1.43D-02
 ErrMax= 1.43D-02  0.00D+00 EMaxC= 1.00D-01 BMatC= 1.76D-02 BMatP= 1.02D-01
 IDIUse=3 WtCom= 8.57D-01 WtEn= 1.43D-01
 Coeff-Com:  0.871D-01 0.301D+00 0.612D+00
 Coeff-En:   0.000D+00 0.894D-01 0.911D+00
 Coeff:      0.747D-01 0.271D+00 0.654D+00
 Gap=     0.413 Goal=   None    Shift=    0.000
 RMSDP=2.57D-04 MaxDP=9.14D-03 DE=-7.42D-02 OVMax= 5.56D-02

 Cycle   4  Pass 0  IDiag  1:
 E= -132.506666322875     Delta-E=       -0.011763197403 Rises=F Damp=F
 DIIS: error= 5.65D-03 at cycle   4 NSaved=   4.
 NSaved= 4 IEnMin= 4 EnMin= -132.506666322875     IErMin= 4 ErrMin= 5.65D-03
 ErrMax= 5.65D-03  0.00D+00 EMaxC= 1.00D-01 BMatC= 3.11D-03 BMatP= 1.76D-02
 IDIUse=3 WtCom= 9.43D-01 WtEn= 5.65D-02
 Coeff-Com: -0.131D-01 0.525D-01 0.349D+00 0.612D+00
 Coeff-En:   0.000D+00 0.000D+00 0.167D+00 0.833D+00
 Coeff:     -0.123D-01 0.496D-01 0.338D+00 0.624D+00
 Gap=     0.412 Goal=   None    Shift=    0.000
 RMSDP=9.22D-05 MaxDP=3.31D-03 DE=-1.18D-02 OVMax= 1.55D-02

 Cycle   5  Pass 0  IDiag  1:
 E= -132.509414010361     Delta-E=       -0.002747687486 Rises=F Damp=F
 DIIS: error= 3.31D-04 at cycle   5 NSaved=   5.
 NSaved= 5 IEnMin= 5 EnMin= -132.509414010361     IErMin= 5 ErrMin= 3.31D-04
 ErrMax= 3.31D-04  0.00D+00 EMaxC= 1.00D-01 BMatC= 1.66D-05 BMatP= 3.11D-03
 IDIUse=3 WtCom= 9.97D-01 WtEn= 3.31D-03
 Coeff-Com: -0.410D-02 0.576D-02 0.610D-01 0.157D+00 0.780D+00
 Coeff-En:   0.000D+00 0.000D+00 0.000D+00 0.000D+00 0.100D+01
 Coeff:     -0.408D-02 0.574D-02 0.608D-01 0.156D+00 0.781D+00
 Gap=     0.412 Goal=   None    Shift=    0.000
 RMSDP=9.61D-06 MaxDP=3.76D-04 DE=-2.75D-03 OVMax= 1.30D-03

 Initial convergence to 1.0D-05 achieved.  Increase integral accuracy.
 Cycle   6  Pass 1  IDiag  1:
 E= -132.509431243600     Delta-E=       -0.000017233239 Rises=F Damp=F
 DIIS: error= 8.51D-05 at cycle   1 NSaved=   1.
 NSaved= 1 IEnMin= 1 EnMin= -132.509431243600     IErMin= 1 ErrMin= 8.51D-05
 ErrMax= 8.51D-05  0.00D+00 EMaxC= 1.00D-01 BMatC= 8.50D-07 BMatP= 8.50D-07
 IDIUse=1 WtCom= 1.00D+00 WtEn= 0.00D+00
 Coeff-Com:  0.100D+01
 Coeff:      0.100D+01
 Gap=     0.412 Goal=   None    Shift=    0.000
 RMSDP=9.61D-06 MaxDP=3.76D-04 DE=-1.72D-05 OVMax= 4.58D-04

 Cycle   7  Pass 1  IDiag  1:
 E= -132.509431787957     Delta-E=       -0.000000544357 Rises=F Damp=F
 DIIS: error= 5.53D-05 at cycle   2 NSaved=   2.
 NSaved= 2 IEnMin= 2 EnMin= -132.509431787957     IErMin= 2 ErrMin= 5.53D-05
 ErrMax= 5.53D-05  0.00D+00 EMaxC= 1.00D-01 BMatC= 4.32D-07 BMatP= 8.50D-07
 IDIUse=1 WtCom= 1.00D+00 WtEn= 0.00D+00
 Coeff-Com:  0.409D+00 0.591D+00
 Coeff:      0.409D+00 0.591D+00
 Gap=     0.412 Goal=   None    Shift=    0.000
 RMSDP=1.24D-06 MaxDP=4.85D-05 DE=-5.44D-07 OVMax= 2.17D-04

 Cycle   8  Pass 1  IDiag  1:
 E= -132.509432174618     Delta-E=       -0.000000386662 Rises=F Damp=F
 DIIS: error= 1.61D-05 at cycle   3 NSaved=   3.
 NSaved= 3 IEnMin= 3 EnMin= -132.509432174618     IErMin= 3 ErrMin= 1.61D-05
 ErrMax= 1.61D-05  0.00D+00 EMaxC= 1.00D-01 BMatC= 2.74D-08 BMatP= 4.32D-07
 IDIUse=1 WtCom= 1.00D+00 WtEn= 0.00D+00
 Coeff-Com:  0.102D+00 0.223D+00 0.675D+00
 Coeff:      0.102D+00 0.223D+00 0.675D+00
 Gap=     0.412 Goal=   None    Shift=    0.000
 RMSDP=6.90D-07 MaxDP=2.84D-05 DE=-3.87D-07 OVMax= 8.96D-05

 Cycle   9  Pass 1  IDiag  1:
 E= -132.509432193326     Delta-E=       -0.000000018707 Rises=F Damp=F
 DIIS: error= 1.55D-05 at cycle   4 NSaved=   4.
 NSaved= 4 IEnMin= 4 EnMin= -132.509432193326     IErMin= 4 ErrMin= 1.55D-05
 ErrMax= 1.55D-05  0.00D+00 EMaxC= 1.00D-01 BMatC= 1.12D-08 BMatP= 2.74D-08
 IDIUse=1 WtCom= 1.00D+00 WtEn= 0.00D+00
 Coeff-Com: -0.711D-01-0.530D-01 0.425D+00 0.699D+00
 Coeff:     -0.711D-01-0.530D-01 0.425D+00 0.699D+00
 Gap=     0.412 Goal=   None    Shift=    0.000
 RMSDP=3.76D-07 MaxDP=1.74D-05 DE=-1.87D-08 OVMax= 6.20D-05

 Cycle  10  Pass 1  IDiag  1:
 E= -132.509432205080     Delta-E=       -0.000000011755 Rises=F Damp=F
 DIIS: error= 1.48D-06 at cycle   5 NSaved=   5.
 NSaved= 5 IEnMin= 5 EnMin= -132.509432205080     IErMin= 5 ErrMin= 1.48D-06
 ErrMax= 1.48D-06  0.00D+00 EMaxC= 1.00D-01 BMatC= 2.67D-10 BMatP= 1.12D-08
 IDIUse=1 WtCom= 1.00D+00 WtEn= 0.00D+00
 Coeff-Com: -0.264D-01-0.280D-01 0.799D-01 0.198D+00 0.776D+00
 Coeff:     -0.264D-01-0.280D-01 0.799D-01 0.198D+00 0.776D+00
 Gap=     0.412 Goal=   None    Shift=    0.000
 RMSDP=6.56D-08 MaxDP=2.51D-06 DE=-1.18D-08 OVMax= 1.07D-05

 Cycle  11  Pass 1  IDiag  1:
 E= -132.509432205570     Delta-E=       -0.000000000490 Rises=F Damp=F
 DIIS: error= 7.85D-07 at cycle   6 NSaved=   6.
 NSaved= 6 IEnMin= 6 EnMin= -132.509432205570     IErMin= 6 ErrMin= 7.85D-07
 ErrMax= 7.85D-07  0.00D+00 EMaxC= 1.00D-01 BMatC= 3.30D-11 BMatP= 2.67D-10
 IDIUse=1 WtCom= 1.00D+00 WtEn= 0.00D+00
 Coeff-Com:  0.145D-01 0.107D-01-0.890D-01-0.133D+00 0.516D-01 0.114D+01
 Coeff:      0.145D-01 0.107D-01-0.890D-01-0.133D+00 0.516D-01 0.114D+01
 Gap=     0.412 Goal=   None    Shift=    0.000
 RMSDP=3.33D-08 MaxDP=1.17D-06 DE=-4.90D-10 OVMax= 8.03D-06

 Cycle  12  Pass 1  IDiag  1:
 E= -132.509432205700     Delta-E=       -0.000000000129 Rises=F Damp=F
 DIIS: error= 1.33D-07 at cycle   7 NSaved=   7.
 NSaved= 7 IEnMin= 7 EnMin= -132.509432205700     IErMin= 7 ErrMin= 1.33D-07
 ErrMax= 1.33D-07  0.00D+00 EMaxC= 1.00D-01 BMatC= 1.37D-12 BMatP= 3.30D-11
 IDIUse=1 WtCom= 1.00D+00 WtEn= 0.00D+00
 Coeff-Com: -0.595D-03 0.314D-03 0.120D-01 0.741D-02-0.667D-01-0.248D+00
 Coeff-Com:  0.130D+01
 Coeff:     -0.595D-03 0.314D-03 0.120D-01 0.741D-02-0.667D-01-0.248D+00
 Coeff:      0.130D+01
 Gap=     0.412 Goal=   None    Shift=    0.000
 RMSDP=1.11D-08 MaxDP=4.43D-07 DE=-1.29D-10 OVMax= 2.34D-06

 Cycle  13  Pass 1  IDiag  1:
 E= -132.509432205707     Delta-E=       -0.000000000007 Rises=F Damp=F
 DIIS: error= 2.28D-08 at cycle   8 NSaved=   8.
 NSaved= 8 IEnMin= 8 EnMin= -132.509432205707     IErMin= 8 ErrMin= 2.28D-08
 ErrMax= 2.28D-08  0.00D+00 EMaxC= 1.00D-01 BMatC= 3.84D-14 BMatP= 1.37D-12
 IDIUse=1 WtCom= 1.00D+00 WtEn= 0.00D+00
 Coeff-Com: -0.438D-03-0.261D-03 0.366D-02 0.337D-02-0.761D-02-0.558D-01
 Coeff-Com:  0.159D+00 0.898D+00
 Coeff:     -0.438D-03-0.261D-03 0.366D-02 0.337D-02-0.761D-02-0.558D-01
 Coeff:      0.159D+00 0.898D+00
 Gap=     0.412 Goal=   None    Shift=    0.000
 RMSDP=9.37D-10 MaxDP=2.96D-08 DE=-7.36D-12 OVMax= 1.20D-07

 SCF Done:  E(RB2PLYPD3) =  -132.509432206     A.U. after   13 cycles
            NFock= 13  Conv=0.94D-09     -V/T= 2.0056
 KE= 1.317708554394D+02 PE=-4.234720575880D+02 EE= 1.016424924372D+02
 Leave Link  502 at Wed Aug 26 23:01:31 2020, MaxMem=  2097152000 cpu:        95.6
 (Enter /opt/cluster/programs/g09/g09_d.01/g09/l801.exe)
 DoSCS=T DFT=T ScalE2(SS,OS)=  0.270000  0.270000
 ExpMin= 7.60D-02 ExpMax= 9.07D+04 ExpMxC= 8.76D+02 IAcc=3 IRadAn=         5 AccDes= 0.00D+00
 HarFok:  IExCor=  205 AccDes= 0.00D+00 IRadAn=         5 IDoV=-2 UseB2=F ITyADJ=14
 ICtDFT= 12500011 ScaDFX=  1.000000  1.000000  1.000000  1.000000
 Largest valence mixing into a core orbital is  1.17D-04
 Largest core mixing into a valence orbital is  1.91D-05
 Range of M.O.s used for correlation:     4   261
 NBasis=   261 NAE=    11 NBE=    11 NFC=     3 NFV=     0
 NROrb=    258 NOA=     8 NOB=     8 NVA=   250 NVB=   250

 **** Warning!!: The largest alpha MO coefficient is  0.22839733D+02

 Leave Link  801 at Wed Aug 26 23:01:31 2020, MaxMem=  2097152000 cpu:         0.7
 (Enter /opt/cluster/programs/g09/g09_d.01/g09/l906.exe)
 DoSCS=T DFT=T ScalE2(SS,OS)=  0.270000  0.270000
 FulOut=F Deriv=F AODrv=F NAtomX=     6
   MMem=        2666  MDisk=           8 MDiskD=           8
  W3Min=      642000 MinDsk=     1426009 NBas6D=         321
 NBas2D=       52689    NTT=       51681    LW2=     4508827
    MDV=  2096810949 MDiskM=       14501 NBas2p=       51891
 Fully direct method using O(OVN) memory.
 IMap=   1   2   3   4   5   6   7   8
 JobTyp=1 Pass  1:  I=   1 to   8 NPSUse=  8 ParTrn=T ParDer=T DoDerP=F.
 Spin components of T(2) and E(2):
     alpha-alpha T2 =       0.3623747981D-01 E2=     -0.2142822056D-01
     alpha-beta  T2 =       0.2160484974D+00 E2=     -0.1386635644D+00
     beta-beta   T2 =       0.3623747981D-01 E2=     -0.2142822056D-01
 The integrals were generated   1 times.
 E2(B2PLYPD3) =    -0.1815200055D+00 E(B2PLYPD3) =    -0.13269095221126D+03
 Leave Link  906 at Wed Aug 26 23:01:49 2020, MaxMem=  2097152000 cpu:        99.9
 (Enter /opt/cluster/programs/g09/g09_d.01/g09/l601.exe)
 Copying SCF densities to generalized density rwf, IOpCl= 0 IROHF=0.

 **********************************************************************

            Population analysis using the SCF density.

 **********************************************************************

 Orbital symmetries:
       Occupied  (A) (A) (A) (A) (A) (A) (A) (A) (A) (A) (A)
       Virtual   (A) (A) (A) (A) (A) (A) (A) (A) (A) (A) (A) (A)
                 (A) (A) (A) (A) (A) (A) (A) (A) (A) (A) (A) (A)
                 (A) (A) (A) (A) (A) (A) (A) (A) (A) (A) (A) (A)
                 (A) (A) (A) (A) (A) (A) (A) (A) (A) (A) (A) (A)
                 (A) (A) (A) (A) (A) (A) (A) (A) (A) (A) (A) (A)
                 (A) (A) (A) (A) (A) (A) (A) (A) (A) (A) (A) (A)
                 (A) (A) (A) (A) (A) (A) (A) (A) (A) (A) (A) (A)
                 (A) (A) (A) (A) (A) (A) (A) (A) (A) (A) (A) (A)
                 (A) (A) (A) (A) (A) (A) (A) (A) (A) (A) (A) (A)
                 (A) (A) (A) (A) (A) (A) (A) (A) (A) (A) (A) (A)
                 (A) (A) (A) (A) (A) (A) (A) (A) (A) (A) (A) (A)
                 (A) (A) (A) (A) (A) (A) (A) (A) (A) (A) (A) (A)
                 (A) (A) (A) (A) (A) (A) (A) (A) (A) (A) (A) (A)
                 (A) (A) (A) (A) (A) (A) (A) (A) (A) (A) (A) (A)
                 (A) (A) (A) (A) (A) (A) (A) (A) (A) (A) (A) (A)
                 (A) (A) (A) (A) (A) (A) (A) (A) (A) (A) (A) (A)
                 (A) (A) (A) (A) (A) (A) (A) (A) (A) (A) (A) (A)
                 (A) (A) (A) (A) (A) (A) (A) (A) (A) (A) (A) (A)
                 (A) (A) (A) (A) (A) (A) (A) (A) (A) (A) (A) (A)
                 (A) (A) (A) (A) (A) (A) (A) (A) (A) (A) (A) (A)
                 (A) (A) (A) (A) (A) (A) (A) (A) (A) (A)
 The electronic state is 1-A.
 Alpha  occ. eigenvalues --  -14.84324 -10.69557 -10.66445  -1.04666  -0.87299
 Alpha  occ. eigenvalues --   -0.58947  -0.54107  -0.49245  -0.45027  -0.39572
 Alpha  occ. eigenvalues --   -0.38793
 Alpha virt. eigenvalues --    0.02429   0.05875   0.08137   0.10119   0.11277
 Alpha virt. eigenvalues --    0.12015   0.15285   0.15835   0.17607   0.19858
 Alpha virt. eigenvalues --    0.20450   0.25234   0.30097   0.32759   0.34571
 Alpha virt. eigenvalues --    0.37367   0.38748   0.39493   0.40136   0.44758
 Alpha virt. eigenvalues --    0.50774   0.52633   0.55712   0.59630   0.61823
 Alpha virt. eigenvalues --    0.66295   0.68374   0.69417   0.70922   0.79216
 Alpha virt. eigenvalues --    0.79701   0.80328   0.80855   0.83527   0.86494
 Alpha virt. eigenvalues --    0.89982   0.91561   0.95695   0.96041   0.98902
 Alpha virt. eigenvalues --    1.04468   1.07633   1.08045   1.10416   1.12786
 Alpha virt. eigenvalues --    1.15215   1.19242   1.21589   1.24268   1.30220
 Alpha virt. eigenvalues --    1.33709   1.38556   1.46386   1.48398   1.51794
 Alpha virt. eigenvalues --    1.64515   1.66676   1.70328   1.72417   1.76411
 Alpha virt. eigenvalues --    1.77603   1.79141   1.85983   1.90706   1.95201
 Alpha virt. eigenvalues --    1.95452   1.97183   1.98391   1.99586   2.04063
 Alpha virt. eigenvalues --    2.06391   2.09132   2.15301   2.18036   2.19627
 Alpha virt. eigenvalues --    2.21070   2.24393   2.27522   2.27845   2.31892
 Alpha virt. eigenvalues --    2.40244   2.47414   2.49177   2.50899   2.54652
 Alpha virt. eigenvalues --    2.62057   2.62680   2.67351   2.69945   2.72708
 Alpha virt. eigenvalues --    2.73690   2.74847   2.80199   2.83330   2.84218
 Alpha virt. eigenvalues --    2.87906   2.89029   2.91978   2.94143   3.00375
 Alpha virt. eigenvalues --    3.06113   3.09520   3.14886   3.17250   3.20397
 Alpha virt. eigenvalues --    3.23344   3.31337   3.33908   3.41533   3.42828
 Alpha virt. eigenvalues --    3.46546   3.57634   3.63911   3.69507   3.70958
 Alpha virt. eigenvalues --    3.74590   3.77445   3.84055   3.92682   3.93168
 Alpha virt. eigenvalues --    3.99000   4.03323   4.05070   4.10669   4.25226
 Alpha virt. eigenvalues --    4.54556   4.90803   4.90924   4.96390   5.02802
 Alpha virt. eigenvalues --    5.08898   5.11236   5.17060   5.20799   5.25704
 Alpha virt. eigenvalues --    5.27543   5.37813   5.39939   5.49181   5.56687
 Alpha virt. eigenvalues --    5.66153   5.71460   5.74694   5.76899   5.82319
 Alpha virt. eigenvalues --    5.84664   5.91186   5.91921   5.93773   5.95623
 Alpha virt. eigenvalues --    5.97988   5.98473   6.01505   6.02850   6.06974
 Alpha virt. eigenvalues --    6.09545   6.11421   6.16603   6.18838   6.27153
 Alpha virt. eigenvalues --    6.34683   6.36141   6.39532   6.41642   6.49190
 Alpha virt. eigenvalues --    6.55743   6.59436   6.72018   6.75602   6.82437
 Alpha virt. eigenvalues --    6.82825   6.86443   6.96132   6.98946   7.02464
 Alpha virt. eigenvalues --    7.02669   7.03434   7.20155   7.27967   7.34176
 Alpha virt. eigenvalues --    7.35400   7.41988   7.46147   7.48672   7.52964
 Alpha virt. eigenvalues --    7.53769   7.59350   7.65677   7.70578   7.78212
 Alpha virt. eigenvalues --    7.80124   7.84032   7.85669   7.87539   8.05278
 Alpha virt. eigenvalues --    8.22546   8.24494   8.24645   8.27763   8.32966
 Alpha virt. eigenvalues --    8.35701   8.36635   8.43652   8.46833   8.48012
 Alpha virt. eigenvalues --    8.53482   8.61533   8.66186   8.66403   8.66604
 Alpha virt. eigenvalues --    8.68737   8.70629   8.71699   8.78724   8.81868
 Alpha virt. eigenvalues --    8.91047   8.94966   9.01246   9.06529   9.09397
 Alpha virt. eigenvalues --    9.19320   9.24129   9.26278   9.32675   9.40243
 Alpha virt. eigenvalues --    9.64345   9.69073   9.77222   9.79667   9.89669
 Alpha virt. eigenvalues --    9.97419   9.99862  10.08013  10.14422  10.18191
 Alpha virt. eigenvalues --   10.26809  10.29072  11.25833  11.39511  11.88777
 Alpha virt. eigenvalues --   11.89480  12.02215  12.75183  13.22155  28.91735
 Alpha virt. eigenvalues --   29.40583  38.32717 148.52931 149.04453 198.25098
          Condensed to atoms (all electrons):
               1          2          3          4          5          6
     1  C    4.665410   0.303662  -0.058995   0.391599   0.402944   0.401609
     2  C    0.303662   4.818709   0.987485  -0.024911  -0.043271  -0.047787
     3  N   -0.058995   0.987485   6.268691  -0.002002   0.000360  -0.000106
     4  H    0.391599  -0.024911  -0.002002   0.608509  -0.029601  -0.031684
     5  H    0.402944  -0.043271   0.000360  -0.029601   0.588941  -0.022563
     6  H    0.401609  -0.047787  -0.000106  -0.031684  -0.022563   0.596263
 Mulliken charges:
               1
     1  C   -0.106229
     2  C    0.006113
     3  N   -0.195433
     4  H    0.088089
     5  H    0.103191
     6  H    0.104268
 Sum of Mulliken charges =   0.00000
 Mulliken charges with hydrogens summed into heavy atoms:
               1
     1  C    0.189320
     2  C    0.006113
     3  N   -0.195433
 Electronic spatial extent (au):  <R**2>=            166.7526
 Charge=              0.0000 electrons
 Dipole moment (field-independent basis, Debye):
    X=             -4.0735    Y=              0.0565    Z=              0.1066  Tot=              4.0752
 Quadrupole moment (field-independent basis, Debye-Ang):
   XX=            -20.8721   YY=            -17.8044   ZZ=            -18.1191
   XY=              0.2937   XZ=              0.3008   YZ=             -0.1994
 Traceless Quadrupole moment (field-independent basis, Debye-Ang):
   XX=             -1.9402   YY=              1.1275   ZZ=              0.8128
   XY=              0.2937   XZ=              0.3008   YZ=             -0.1994
 Octapole moment (field-independent basis, Debye-Ang**2):
  XXX=            -12.8803  YYY=              0.9434  ZZZ=              0.7188  XYY=             -2.1817
  XXY=             -0.5667  XXZ=             -0.7560  XZZ=             -1.6940  YZZ=             -0.7921
  YYZ=             -0.2469  XYZ=              0.0819
 Hexadecapole moment (field-independent basis, Debye-Ang**3):
 XXXX=           -187.5414 YYYY=            -26.5134 ZZZZ=            -26.5071 XXXY=              1.8738
 XXXZ=              2.2864 YYYX=             -1.5997 YYYZ=             -0.5258 ZZZX=             -0.9391
 ZZZY=             -0.5319 XXYY=            -31.8472 XXZZ=            -32.5220 YYZZ=             -8.6987
 XXYZ=              0.2698 YYXZ=              0.5947 ZZXY=              1.4524
 N-N= 5.754927750561D+01 E-N=-4.234720573306D+02  KE= 1.317708554394D+02
 Leave Link  601 at Wed Aug 26 23:01:50 2020, MaxMem=  2097152000 cpu:         0.3
 (Enter /opt/cluster/programs/g09/g09_d.01/g09/l9999.exe)
 1\1\GINC-NODE31\SP\RB2PLYPD3-FC\def2QZVP\C2H3N1\BOITTIER\26-Aug-2020\0
 \\#p B2PLYPD3/Def2QZVP\\cyanomethane\\0,1\C,0,-6.600674,-1.114074,1.16
 5546\C,0,-5.191587,-0.802016,0.853337\N,0,-4.083924,-0.531021,0.738445
 \H,0,-7.022817,-1.216763,2.370852\H,0,-6.867544,-2.105692,0.689943\H,0
 ,-7.190236,-0.25321,0.807277\\Version=ES64L-G09RevD.01\State=1-A\HF=-1
 32.5094322\MP2=-132.6909522\RMSD=9.367e-10\PG=C01 [X(C2H3N1)]\\@


 QED = W**5 (WHICH WAS WHAT WE WANTED)
 Job cpu time:       0 days  0 hours  3 minutes 25.2 seconds.
 File lengths (MBytes):  RWF=     28 Int=      0 D2E=      0 Chk=      5 Scr=      1
 Normal termination of Gaussian 09 at Wed Aug 26 23:01:51 2020.
