 Entering Gaussian System, Link 0=/opt/cluster/programs/g09/g09_d.01/g09//g09
 Input=/home/boittier/MDCM/nms_sampling/cyanomethane_geom.xyz.dir/energies/cyanomethane_2797_energy.com
 Output=/scratch/boittier/cyanomethane_2797_energy/cyanomethane_2797_energy.out
 Initial command:
 /opt/cluster/programs/g09/g09_d.01/g09/l1.exe "/scratch/boittier/cyanomethane_2797_energy/Gau-83029.inp" -scrdir="/scratch/boittier/cyanomethane_2797_energy/"
 Entering Link 1 = /opt/cluster/programs/g09/g09_d.01/g09/l1.exe PID=     83030.
  
 Copyright (c) 1988,1990,1992,1993,1995,1998,2003,2009,2013,
            Gaussian, Inc.  All Rights Reserved.
  
 This is part of the Gaussian(R) 09 program.  It is based on
 the Gaussian(R) 03 system (copyright 2003, Gaussian, Inc.),
 the Gaussian(R) 98 system (copyright 1998, Gaussian, Inc.),
 the Gaussian(R) 94 system (copyright 1995, Gaussian, Inc.),
 the Gaussian 92(TM) system (copyright 1992, Gaussian, Inc.),
 the Gaussian 90(TM) system (copyright 1990, Gaussian, Inc.),
 the Gaussian 88(TM) system (copyright 1988, Gaussian, Inc.),
 the Gaussian 86(TM) system (copyright 1986, Carnegie Mellon
 University), and the Gaussian 82(TM) system (copyright 1983,
 Carnegie Mellon University). Gaussian is a federally registered
 trademark of Gaussian, Inc.
  
 This software contains proprietary and confidential information,
 including trade secrets, belonging to Gaussian, Inc.
  
 This software is provided under written license and may be
 used, copied, transmitted, or stored only in accord with that
 written license.
  
 The following legend is applicable only to US Government
 contracts under FAR:
  
                    RESTRICTED RIGHTS LEGEND
  
 Use, reproduction and disclosure by the US Government is
 subject to restrictions as set forth in subparagraphs (a)
 and (c) of the Commercial Computer Software - Restricted
 Rights clause in FAR 52.227-19.
  
 Gaussian, Inc.
 340 Quinnipiac St., Bldg. 40, Wallingford CT 06492
  
  
 ---------------------------------------------------------------
 Warning -- This program may not be used in any manner that
 competes with the business of Gaussian, Inc. or will provide
 assistance to any competitor of Gaussian, Inc.  The licensee
 of this program is prohibited from giving any competitor of
 Gaussian, Inc. access to this program.  By using this program,
 the user acknowledges that Gaussian, Inc. is engaged in the
 business of creating and licensing software in the field of
 computational chemistry and represents and warrants to the
 licensee that it is not a competitor of Gaussian, Inc. and that
 it will not use this program in any manner prohibited above.
 ---------------------------------------------------------------
  

 Cite this work as:
 Gaussian 09, Revision D.01,
 M. J. Frisch, G. W. Trucks, H. B. Schlegel, G. E. Scuseria, 
 M. A. Robb, J. R. Cheeseman, G. Scalmani, V. Barone, B. Mennucci, 
 G. A. Petersson, H. Nakatsuji, M. Caricato, X. Li, H. P. Hratchian, 
 A. F. Izmaylov, J. Bloino, G. Zheng, J. L. Sonnenberg, M. Hada, 
 M. Ehara, K. Toyota, R. Fukuda, J. Hasegawa, M. Ishida, T. Nakajima, 
 Y. Honda, O. Kitao, H. Nakai, T. Vreven, J. A. Montgomery, Jr., 
 J. E. Peralta, F. Ogliaro, M. Bearpark, J. J. Heyd, E. Brothers, 
 K. N. Kudin, V. N. Staroverov, T. Keith, R. Kobayashi, J. Normand, 
 K. Raghavachari, A. Rendell, J. C. Burant, S. S. Iyengar, J. Tomasi, 
 M. Cossi, N. Rega, J. M. Millam, M. Klene, J. E. Knox, J. B. Cross, 
 V. Bakken, C. Adamo, J. Jaramillo, R. Gomperts, R. E. Stratmann, 
 O. Yazyev, A. J. Austin, R. Cammi, C. Pomelli, J. W. Ochterski, 
 R. L. Martin, K. Morokuma, V. G. Zakrzewski, G. A. Voth, 
 P. Salvador, J. J. Dannenberg, S. Dapprich, A. D. Daniels, 
 O. Farkas, J. B. Foresman, J. V. Ortiz, J. Cioslowski, 
 and D. J. Fox, Gaussian, Inc., Wallingford CT, 2013.
 
 ******************************************
 Gaussian 09:  ES64L-G09RevD.01 24-Apr-2013
                26-Aug-2020 
 ******************************************
 %chk=/home/boittier/MDCM/nms_sampling/cyanomethane_geom.xyz.dir/cyanomethane_279
 7.chk
 %nproc=8
 Will use up to    8 processors via shared memory.
 %mem=16000MB
 --------------------
 #p B2PLYPD3/Def2QZVP
 --------------------
 1/38=1/1;
 2/12=2,17=6,18=5,40=1/2;
 3/5=45,7=101,11=9,16=1,25=1,30=1,74=-60/1,2,3;
 4//1;
 5/5=2,38=5/2;
 8/10=1/1;
 9/16=-3/6;
 6/7=2,8=2,9=2,10=2/1;
 99/5=1,9=1/99;
 Leave Link    1 at Wed Aug 26 21:00:35 2020, MaxMem=  2097152000 cpu:         0.2
 (Enter /opt/cluster/programs/g09/g09_d.01/g09/l101.exe)
 ------------
 cyanomethane
 ------------
 Symbolic Z-matrix:
 Charge =  0 Multiplicity = 1
 C                    -6.57378  -1.13682   1.1684 
 C                    -5.20399  -0.72417   0.89299 
 N                    -4.10784  -0.57305   0.71135 
 H                    -6.83511  -1.21768   2.27187 
 H                    -6.80339  -2.13244   0.67953 
 H                    -7.2806   -0.28604   0.75516 
 
 NAtoms=      6 NQM=        6 NQMF=       0 NMMI=      0 NMMIF=      0
                NMic=       0 NMicF=      0.
                    Isotopes and Nuclear Properties:
 (Nuclear quadrupole moments (NQMom) in fm**2, nuclear magnetic moments (NMagM)
  in nuclear magnetons)

  Atom         1           2           3           4           5           6
 IAtWgt=          12          12          14           1           1           1
 AtmWgt=  12.0000000  12.0000000  14.0030740   1.0078250   1.0078250   1.0078250
 NucSpn=           0           0           2           1           1           1
 AtZEff=   0.0000000   0.0000000   0.0000000   0.0000000   0.0000000   0.0000000
 NQMom=    0.0000000   0.0000000   2.0440000   0.0000000   0.0000000   0.0000000
 NMagM=    0.0000000   0.0000000   0.4037610   2.7928460   2.7928460   2.7928460
 AtZNuc=   6.0000000   6.0000000   7.0000000   1.0000000   1.0000000   1.0000000
 Leave Link  101 at Wed Aug 26 21:00:36 2020, MaxMem=  2097152000 cpu:         0.4
 (Enter /opt/cluster/programs/g09/g09_d.01/g09/l202.exe)
                          Input orientation:                          
 ---------------------------------------------------------------------
 Center     Atomic      Atomic             Coordinates (Angstroms)
 Number     Number       Type             X           Y           Z
 ---------------------------------------------------------------------
      1          6           0       -6.573783   -1.136815    1.168400
      2          6           0       -5.203993   -0.724171    0.892986
      3          7           0       -4.107844   -0.573050    0.711352
      4          1           0       -6.835111   -1.217684    2.271870
      5          1           0       -6.803393   -2.132435    0.679534
      6          1           0       -7.280604   -0.286036    0.755156
 ---------------------------------------------------------------------
                    Distance matrix (angstroms):
                    1          2          3          4          5
     1  C    0.000000
     2  C    1.456864   0.000000
     3  N    2.570521   1.121326   0.000000
     4  H    1.136872   2.192127   3.207609   0.000000
     5  H    1.132683   2.141693   3.114270   1.836657   0.000000
     6  H    1.180759   2.126799   3.186017   1.834899   1.908570
                    6
     6  H    0.000000
 Stoichiometry    C2H3N
 Framework group  C1[X(C2H3N)]
 Deg. of freedom    12
 Full point group                 C1      NOp   1
 Largest Abelian subgroup         C1      NOp   1
 Largest concise Abelian subgroup C1      NOp   1
                         Standard orientation:                         
 ---------------------------------------------------------------------
 Center     Atomic      Atomic             Coordinates (Angstroms)
 Number     Number       Type             X           Y           Z
 ---------------------------------------------------------------------
      1          6           0       -1.158253   -0.027031    0.001780
      2          6           0        0.295453    0.068075   -0.010305
      3          7           0        1.412253   -0.030559    0.009666
      4          1           0       -1.626104   -0.054480    1.037560
      5          1           0       -1.509474   -0.941879   -0.566257
      6          1           0       -1.573389    0.964006   -0.487812
 ---------------------------------------------------------------------
 Rotational constants (GHZ):    141.8986006      9.4202454      9.3746483
 Leave Link  202 at Wed Aug 26 21:00:38 2020, MaxMem=  2097152000 cpu:         0.0
 (Enter /opt/cluster/programs/g09/g09_d.01/g09/l301.exe)
 Standard basis: def2QZVP (5D, 7F)
 Ernie: Thresh=  0.10000D-02 Tol=  0.10000D-05 Strict=F.
 There are   321 symmetry adapted cartesian basis functions of A   symmetry.
 There are   261 symmetry adapted basis functions of A   symmetry.
   261 basis functions,   390 primitive gaussians,   321 cartesian basis functions
    11 alpha electrons       11 beta electrons
       nuclear repulsion energy        58.6126861381 Hartrees.
 IExCor=  419 DFT=T Ex+Corr=B2PLYPD3 ExCW=0 ScaHFX=  0.530000
 ScaDFX=  0.470000  0.470000  0.730000  0.730000 ScalE2=  0.270000  0.270000
 IRadAn=      0 IRanWt=     -1 IRanGd=            0 ICorTp=0 IEmpDi=141
 NAtoms=    6 NActive=    6 NUniq=    6 SFac= 1.00D+00 NAtFMM=   60 NAOKFM=F Big=F
 Integral buffers will be    131072 words long.
 Regular integral format.
 Two-electron integral symmetry is turned on.
 R6Disp:  Grimme-D3(BJ) Dispersion energy=       -0.0021015054 Hartrees.
 Nuclear repulsion after empirical dispersion term =       58.6105846327 Hartrees.
 Leave Link  301 at Wed Aug 26 21:00:39 2020, MaxMem=  2097152000 cpu:         0.4
 (Enter /opt/cluster/programs/g09/g09_d.01/g09/l302.exe)
 NPDir=0 NMtPBC=     1 NCelOv=     1 NCel=       1 NClECP=     1 NCelD=      1
         NCelK=      1 NCelE2=     1 NClLst=     1 CellRange=     0.0.
 One-electron integrals computed using PRISM.
   1 Symmetry operations used in ECPInt.
 ECPInt:  NShTT=    3321 NPrTT=    8136 LenC2=    3294 LenP2D=    7130.
 LDataN:  DoStor=T MaxTD1= 8 Len=  415
 NBasis=   261 RedAO= T EigKep=  7.54D-05  NBF=   261
 NBsUse=   261 1.00D-06 EigRej= -1.00D+00 NBFU=   261
 Precomputing XC quadrature grid using
 IXCGrd= 4 IRadAn=           0 IRanWt=          -1 IRanGd=           0 AccXCQ= 0.00D+00.
 Generated NRdTot=       0 NPtTot=           0 NUsed=           0 NTot=          32
 NSgBfM=   321   321   321   321   321 MxSgAt=     6 MxSgA2=     6.
 Leave Link  302 at Wed Aug 26 21:00:40 2020, MaxMem=  2097152000 cpu:         1.9
 (Enter /opt/cluster/programs/g09/g09_d.01/g09/l303.exe)
 DipDrv:  MaxL=1.
 Leave Link  303 at Wed Aug 26 21:00:42 2020, MaxMem=  2097152000 cpu:         0.2
 (Enter /opt/cluster/programs/g09/g09_d.01/g09/l401.exe)
 ExpMin= 7.60D-02 ExpMax= 9.07D+04 ExpMxC= 8.76D+02 IAcc=2 IRadAn=         4 AccDes= 0.00D+00
 Harris functional with IExCor=  419 and IRadAn=       4 diagonalized for initial guess.
 HarFok:  IExCor=  419 AccDes= 0.00D+00 IRadAn=         4 IDoV= 1 UseB2=F ITyADJ=14
 ICtDFT=  3500011 ScaDFX=  1.000000  1.000000  1.000000  1.000000
 FoFCou: FMM=F IPFlag=           0 FMFlag=      100000 FMFlg1=           0
         NFxFlg=           0 DoJE=T BraDBF=F KetDBF=T FulRan=T
         wScrn=  0.000000 ICntrl=     500 IOpCl=  0 I1Cent=   200000004 NGrid=           0
         NMat0=    1 NMatS0=      1 NMatT0=    0 NMatD0=    1 NMtDS0=    0 NMtDT0=    0
 Petite list used in FoFCou.
 Harris En= -132.839665662240    
 JPrj=0 DoOrth=F DoCkMO=F.
 Leave Link  401 at Wed Aug 26 21:00:44 2020, MaxMem=  2097152000 cpu:         3.5
 (Enter /opt/cluster/programs/g09/g09_d.01/g09/l502.exe)
 Closed shell SCF:
 Using DIIS extrapolation, IDIIS=  1040.
 Integral symmetry usage will be decided dynamically.
 Keep R1 ints in memory in canonical form, NReq=601554820.
 IVT=      332521 IEndB=      332521 NGot=  2097152000 MDV=  1512290144
 LenX=  1512290144 LenY=  1512186662
 Requested convergence on RMS density matrix=1.00D-08 within 128 cycles.
 Requested convergence on MAX density matrix=1.00D-06.
 Requested convergence on             energy=1.00D-06.
 No special actions if energy rises.
 FoFCou: FMM=F IPFlag=           0 FMFlag=           0 FMFlg1=           0
         NFxFlg=           0 DoJE=F BraDBF=F KetDBF=F FulRan=T
         wScrn=  0.000000 ICntrl=     600 IOpCl=  0 I1Cent=           0 NGrid=           0
         NMat0=    1 NMatS0=  34191 NMatT0=    0 NMatD0=    1 NMtDS0=    0 NMtDT0=    0
 Symmetry not used in FoFCou.
 Integral accuracy reduced to 1.0D-05 until final iterations.

 Cycle   1  Pass 0  IDiag  1:
 E= -132.410561248094    
 DIIS: error= 2.68D-02 at cycle   1 NSaved=   1.
 NSaved= 1 IEnMin= 1 EnMin= -132.410561248094     IErMin= 1 ErrMin= 2.68D-02
 ErrMax= 2.68D-02  0.00D+00 EMaxC= 1.00D-01 BMatC= 1.92D-01 BMatP= 1.92D-01
 IDIUse=3 WtCom= 7.32D-01 WtEn= 2.68D-01
 Coeff-Com:  0.100D+01
 Coeff-En:   0.100D+01
 Coeff:      0.100D+01
 Gap=     0.469 Goal=   None    Shift=    0.000
 GapD=    0.469 DampG=2.000 DampE=0.500 DampFc=1.0000 IDamp=-1.
 RMSDP=1.41D-03 MaxDP=7.94D-02              OVMax= 1.74D-01

 Cycle   2  Pass 0  IDiag  1:
 E= -132.439556083936     Delta-E=       -0.028994835842 Rises=F Damp=F
 DIIS: error= 3.12D-02 at cycle   2 NSaved=   2.
 NSaved= 2 IEnMin= 2 EnMin= -132.439556083936     IErMin= 1 ErrMin= 2.68D-02
 ErrMax= 3.12D-02  0.00D+00 EMaxC= 1.00D-01 BMatC= 1.00D-01 BMatP= 1.92D-01
 IDIUse=3 WtCom= 6.88D-01 WtEn= 3.12D-01
 Coeff-Com:  0.404D+00 0.596D+00
 Coeff-En:   0.414D+00 0.586D+00
 Coeff:      0.407D+00 0.593D+00
 Gap=     0.466 Goal=   None    Shift=    0.000
 RMSDP=9.18D-04 MaxDP=3.88D-02 DE=-2.90D-02 OVMax= 1.22D-01

 Cycle   3  Pass 0  IDiag  1:
 E= -132.511867459721     Delta-E=       -0.072311375785 Rises=F Damp=F
 DIIS: error= 1.11D-02 at cycle   3 NSaved=   3.
 NSaved= 3 IEnMin= 3 EnMin= -132.511867459721     IErMin= 3 ErrMin= 1.11D-02
 ErrMax= 1.11D-02  0.00D+00 EMaxC= 1.00D-01 BMatC= 1.66D-02 BMatP= 1.00D-01
 IDIUse=3 WtCom= 8.89D-01 WtEn= 1.11D-01
 Coeff-Com:  0.859D-01 0.301D+00 0.613D+00
 Coeff-En:   0.000D+00 0.691D-01 0.931D+00
 Coeff:      0.763D-01 0.275D+00 0.649D+00
 Gap=     0.432 Goal=   None    Shift=    0.000
 RMSDP=2.44D-04 MaxDP=8.83D-03 DE=-7.23D-02 OVMax= 5.21D-02

 Cycle   4  Pass 0  IDiag  1:
 E= -132.523055533316     Delta-E=       -0.011188073595 Rises=F Damp=F
 DIIS: error= 4.28D-03 at cycle   4 NSaved=   4.
 NSaved= 4 IEnMin= 4 EnMin= -132.523055533316     IErMin= 4 ErrMin= 4.28D-03
 ErrMax= 4.28D-03  0.00D+00 EMaxC= 1.00D-01 BMatC= 2.57D-03 BMatP= 1.66D-02
 IDIUse=3 WtCom= 9.57D-01 WtEn= 4.28D-02
 Coeff-Com: -0.127D-01 0.518D-01 0.336D+00 0.625D+00
 Coeff-En:   0.000D+00 0.000D+00 0.137D+00 0.863D+00
 Coeff:     -0.122D-01 0.496D-01 0.327D+00 0.635D+00
 Gap=     0.429 Goal=   None    Shift=    0.000
 RMSDP=8.40D-05 MaxDP=2.85D-03 DE=-1.12D-02 OVMax= 1.35D-02

 Cycle   5  Pass 0  IDiag  1:
 E= -132.525289170043     Delta-E=       -0.002233636727 Rises=F Damp=F
 DIIS: error= 3.12D-04 at cycle   5 NSaved=   5.
 NSaved= 5 IEnMin= 5 EnMin= -132.525289170043     IErMin= 5 ErrMin= 3.12D-04
 ErrMax= 3.12D-04  0.00D+00 EMaxC= 1.00D-01 BMatC= 1.21D-05 BMatP= 2.57D-03
 IDIUse=3 WtCom= 9.97D-01 WtEn= 3.12D-03
 Coeff-Com: -0.369D-02 0.544D-02 0.537D-01 0.146D+00 0.798D+00
 Coeff-En:   0.000D+00 0.000D+00 0.000D+00 0.000D+00 0.100D+01
 Coeff:     -0.368D-02 0.543D-02 0.536D-01 0.146D+00 0.799D+00
 Gap=     0.429 Goal=   None    Shift=    0.000
 RMSDP=9.32D-06 MaxDP=4.17D-04 DE=-2.23D-03 OVMax= 9.93D-04

 Initial convergence to 1.0D-05 achieved.  Increase integral accuracy.
 Cycle   6  Pass 1  IDiag  1:
 E= -132.525303108805     Delta-E=       -0.000013938763 Rises=F Damp=F
 DIIS: error= 7.62D-05 at cycle   1 NSaved=   1.
 NSaved= 1 IEnMin= 1 EnMin= -132.525303108805     IErMin= 1 ErrMin= 7.62D-05
 ErrMax= 7.62D-05  0.00D+00 EMaxC= 1.00D-01 BMatC= 6.80D-07 BMatP= 6.80D-07
 IDIUse=1 WtCom= 1.00D+00 WtEn= 0.00D+00
 Coeff-Com:  0.100D+01
 Coeff:      0.100D+01
 Gap=     0.429 Goal=   None    Shift=    0.000
 RMSDP=9.32D-06 MaxDP=4.17D-04 DE=-1.39D-05 OVMax= 4.01D-04

 Cycle   7  Pass 1  IDiag  1:
 E= -132.525303523051     Delta-E=       -0.000000414246 Rises=F Damp=F
 DIIS: error= 5.02D-05 at cycle   2 NSaved=   2.
 NSaved= 2 IEnMin= 2 EnMin= -132.525303523051     IErMin= 2 ErrMin= 5.02D-05
 ErrMax= 5.02D-05  0.00D+00 EMaxC= 1.00D-01 BMatC= 3.28D-07 BMatP= 6.80D-07
 IDIUse=1 WtCom= 1.00D+00 WtEn= 0.00D+00
 Coeff-Com:  0.402D+00 0.598D+00
 Coeff:      0.402D+00 0.598D+00
 Gap=     0.429 Goal=   None    Shift=    0.000
 RMSDP=1.02D-06 MaxDP=4.35D-05 DE=-4.14D-07 OVMax= 1.54D-04

 Cycle   8  Pass 1  IDiag  1:
 E= -132.525303811847     Delta-E=       -0.000000288795 Rises=F Damp=F
 DIIS: error= 1.19D-05 at cycle   3 NSaved=   3.
 NSaved= 3 IEnMin= 3 EnMin= -132.525303811847     IErMin= 3 ErrMin= 1.19D-05
 ErrMax= 1.19D-05  0.00D+00 EMaxC= 1.00D-01 BMatC= 1.52D-08 BMatP= 3.28D-07
 IDIUse=1 WtCom= 1.00D+00 WtEn= 0.00D+00
 Coeff-Com:  0.764D-01 0.186D+00 0.737D+00
 Coeff:      0.764D-01 0.186D+00 0.737D+00
 Gap=     0.429 Goal=   None    Shift=    0.000
 RMSDP=6.26D-07 MaxDP=2.74D-05 DE=-2.89D-07 OVMax= 4.93D-05

 Cycle   9  Pass 1  IDiag  1:
 E= -132.525303819812     Delta-E=       -0.000000007965 Rises=F Damp=F
 DIIS: error= 9.15D-06 at cycle   4 NSaved=   4.
 NSaved= 4 IEnMin= 4 EnMin= -132.525303819812     IErMin= 4 ErrMin= 9.15D-06
 ErrMax= 9.15D-06  0.00D+00 EMaxC= 1.00D-01 BMatC= 7.95D-09 BMatP= 1.52D-08
 IDIUse=1 WtCom= 1.00D+00 WtEn= 0.00D+00
 Coeff-Com: -0.589D-01-0.397D-01 0.464D+00 0.635D+00
 Coeff:     -0.589D-01-0.397D-01 0.464D+00 0.635D+00
 Gap=     0.429 Goal=   None    Shift=    0.000
 RMSDP=2.66D-07 MaxDP=1.41D-05 DE=-7.97D-09 OVMax= 3.28D-05

 Cycle  10  Pass 1  IDiag  1:
 E= -132.525303826906     Delta-E=       -0.000000007094 Rises=F Damp=F
 DIIS: error= 1.03D-06 at cycle   5 NSaved=   5.
 NSaved= 5 IEnMin= 5 EnMin= -132.525303826906     IErMin= 5 ErrMin= 1.03D-06
 ErrMax= 1.03D-06  0.00D+00 EMaxC= 1.00D-01 BMatC= 1.09D-10 BMatP= 7.95D-09
 IDIUse=1 WtCom= 1.00D+00 WtEn= 0.00D+00
 Coeff-Com: -0.233D-01-0.219D-01 0.118D+00 0.212D+00 0.715D+00
 Coeff:     -0.233D-01-0.219D-01 0.118D+00 0.212D+00 0.715D+00
 Gap=     0.429 Goal=   None    Shift=    0.000
 RMSDP=4.85D-08 MaxDP=2.58D-06 DE=-7.09D-09 OVMax= 3.77D-06

 Cycle  11  Pass 1  IDiag  1:
 E= -132.525303827004     Delta-E=       -0.000000000098 Rises=F Damp=F
 DIIS: error= 1.84D-07 at cycle   6 NSaved=   6.
 NSaved= 6 IEnMin= 6 EnMin= -132.525303827004     IErMin= 6 ErrMin= 1.84D-07
 ErrMax= 1.84D-07  0.00D+00 EMaxC= 1.00D-01 BMatC= 4.05D-12 BMatP= 1.09D-10
 IDIUse=1 WtCom= 1.00D+00 WtEn= 0.00D+00
 Coeff-Com:  0.222D-02 0.678D-03-0.279D-01-0.204D-01 0.104D+00 0.941D+00
 Coeff:      0.222D-02 0.678D-03-0.279D-01-0.204D-01 0.104D+00 0.941D+00
 Gap=     0.429 Goal=   None    Shift=    0.000
 RMSDP=1.05D-08 MaxDP=5.63D-07 DE=-9.77D-11 OVMax= 9.47D-07

 Cycle  12  Pass 1  IDiag  1:
 E= -132.525303827009     Delta-E=       -0.000000000006 Rises=F Damp=F
 DIIS: error= 4.06D-08 at cycle   7 NSaved=   7.
 NSaved= 7 IEnMin= 7 EnMin= -132.525303827009     IErMin= 7 ErrMin= 4.06D-08
 ErrMax= 4.06D-08  0.00D+00 EMaxC= 1.00D-01 BMatC= 1.31D-13 BMatP= 4.05D-12
 IDIUse=1 WtCom= 1.00D+00 WtEn= 0.00D+00
 Coeff-Com:  0.622D-03 0.643D-03-0.276D-02-0.426D-02-0.240D-01-0.400D-01
 Coeff-Com:  0.107D+01
 Coeff:      0.622D-03 0.643D-03-0.276D-02-0.426D-02-0.240D-01-0.400D-01
 Coeff:      0.107D+01
 Gap=     0.429 Goal=   None    Shift=    0.000
 RMSDP=1.57D-09 MaxDP=3.83D-08 DE=-5.85D-12 OVMax= 2.44D-07

 SCF Done:  E(RB2PLYPD3) =  -132.525303827     A.U. after   12 cycles
            NFock= 12  Conv=0.16D-08     -V/T= 2.0040
 KE= 1.320010238974D+02 PE=-4.258248401065D+02 EE= 1.026879277493D+02
 Leave Link  502 at Wed Aug 26 21:01:23 2020, MaxMem=  2097152000 cpu:       123.4
 (Enter /opt/cluster/programs/g09/g09_d.01/g09/l801.exe)
 DoSCS=T DFT=T ScalE2(SS,OS)=  0.270000  0.270000
 ExpMin= 7.60D-02 ExpMax= 9.07D+04 ExpMxC= 8.76D+02 IAcc=3 IRadAn=         5 AccDes= 0.00D+00
 HarFok:  IExCor=  205 AccDes= 0.00D+00 IRadAn=         5 IDoV=-2 UseB2=F ITyADJ=14
 ICtDFT= 12500011 ScaDFX=  1.000000  1.000000  1.000000  1.000000
 Largest valence mixing into a core orbital is  1.15D-04
 Largest core mixing into a valence orbital is  1.76D-05
 Range of M.O.s used for correlation:     4   261
 NBasis=   261 NAE=    11 NBE=    11 NFC=     3 NFV=     0
 NROrb=    258 NOA=     8 NOB=     8 NVA=   250 NVB=   250

 **** Warning!!: The largest alpha MO coefficient is  0.25867529D+02

 Leave Link  801 at Wed Aug 26 21:01:25 2020, MaxMem=  2097152000 cpu:         0.6
 (Enter /opt/cluster/programs/g09/g09_d.01/g09/l906.exe)
 DoSCS=T DFT=T ScalE2(SS,OS)=  0.270000  0.270000
 FulOut=F Deriv=F AODrv=F NAtomX=     6
   MMem=        2666  MDisk=           8 MDiskD=           8
  W3Min=      642000 MinDsk=     1426009 NBas6D=         321
 NBas2D=       52689    NTT=       51681    LW2=     4508827
    MDV=  2096809653 MDiskM=       14501 NBas2p=       52128
 Fully direct method using O(OVN) memory.
 IMap=   1   2   3   4   5   6   7   8
 JobTyp=1 Pass  1:  I=   1 to   8 NPSUse=  8 ParTrn=T ParDer=T DoDerP=F.
 Spin components of T(2) and E(2):
     alpha-alpha T2 =       0.3445642100D-01 E2=     -0.2107383114D-01
     alpha-beta  T2 =       0.2051367840D+00 E2=     -0.1365962677D+00
     beta-beta   T2 =       0.3445642100D-01 E2=     -0.2107383114D-01
 The integrals were generated   1 times.
 E2(B2PLYPD3) =    -0.1787439300D+00 E(B2PLYPD3) =    -0.13270404775703D+03
 Leave Link  906 at Wed Aug 26 21:01:38 2020, MaxMem=  2097152000 cpu:       100.2
 (Enter /opt/cluster/programs/g09/g09_d.01/g09/l601.exe)
 Copying SCF densities to generalized density rwf, IOpCl= 0 IROHF=0.

 **********************************************************************

            Population analysis using the SCF density.

 **********************************************************************

 Orbital symmetries:
       Occupied  (A) (A) (A) (A) (A) (A) (A) (A) (A) (A) (A)
       Virtual   (A) (A) (A) (A) (A) (A) (A) (A) (A) (A) (A) (A)
                 (A) (A) (A) (A) (A) (A) (A) (A) (A) (A) (A) (A)
                 (A) (A) (A) (A) (A) (A) (A) (A) (A) (A) (A) (A)
                 (A) (A) (A) (A) (A) (A) (A) (A) (A) (A) (A) (A)
                 (A) (A) (A) (A) (A) (A) (A) (A) (A) (A) (A) (A)
                 (A) (A) (A) (A) (A) (A) (A) (A) (A) (A) (A) (A)
                 (A) (A) (A) (A) (A) (A) (A) (A) (A) (A) (A) (A)
                 (A) (A) (A) (A) (A) (A) (A) (A) (A) (A) (A) (A)
                 (A) (A) (A) (A) (A) (A) (A) (A) (A) (A) (A) (A)
                 (A) (A) (A) (A) (A) (A) (A) (A) (A) (A) (A) (A)
                 (A) (A) (A) (A) (A) (A) (A) (A) (A) (A) (A) (A)
                 (A) (A) (A) (A) (A) (A) (A) (A) (A) (A) (A) (A)
                 (A) (A) (A) (A) (A) (A) (A) (A) (A) (A) (A) (A)
                 (A) (A) (A) (A) (A) (A) (A) (A) (A) (A) (A) (A)
                 (A) (A) (A) (A) (A) (A) (A) (A) (A) (A) (A) (A)
                 (A) (A) (A) (A) (A) (A) (A) (A) (A) (A) (A) (A)
                 (A) (A) (A) (A) (A) (A) (A) (A) (A) (A) (A) (A)
                 (A) (A) (A) (A) (A) (A) (A) (A) (A) (A) (A) (A)
                 (A) (A) (A) (A) (A) (A) (A) (A) (A) (A) (A) (A)
                 (A) (A) (A) (A) (A) (A) (A) (A) (A) (A) (A) (A)
                 (A) (A) (A) (A) (A) (A) (A) (A) (A) (A)
 The electronic state is 1-A.
 Alpha  occ. eigenvalues --  -14.83350 -10.68731 -10.65334  -1.05558  -0.87724
 Alpha  occ. eigenvalues --   -0.59075  -0.53056  -0.51634  -0.44774  -0.39859
 Alpha  occ. eigenvalues --   -0.39523
 Alpha virt. eigenvalues --    0.03391   0.07440   0.07616   0.10106   0.11966
 Alpha virt. eigenvalues --    0.12084   0.15459   0.15889   0.17412   0.19791
 Alpha virt. eigenvalues --    0.20007   0.25793   0.32041   0.33568   0.34261
 Alpha virt. eigenvalues --    0.37646   0.39350   0.40059   0.41148   0.46914
 Alpha virt. eigenvalues --    0.48777   0.52599   0.57059   0.60502   0.62094
 Alpha virt. eigenvalues --    0.66817   0.68185   0.68791   0.70219   0.78428
 Alpha virt. eigenvalues --    0.79551   0.81223   0.81687   0.83570   0.86954
 Alpha virt. eigenvalues --    0.91203   0.94356   0.95997   0.97052   0.98005
 Alpha virt. eigenvalues --    1.05974   1.06915   1.08088   1.11057   1.13796
 Alpha virt. eigenvalues --    1.16919   1.21362   1.23062   1.23549   1.33769
 Alpha virt. eigenvalues --    1.34716   1.42060   1.43047   1.48341   1.51557
 Alpha virt. eigenvalues --    1.63436   1.67114   1.70299   1.71583   1.77407
 Alpha virt. eigenvalues --    1.78244   1.80974   1.91072   1.92356   1.93184
 Alpha virt. eigenvalues --    1.96152   1.99347   1.99745   2.01488   2.04107
 Alpha virt. eigenvalues --    2.08202   2.12543   2.15454   2.18065   2.18514
 Alpha virt. eigenvalues --    2.20395   2.23551   2.26248   2.30878   2.34397
 Alpha virt. eigenvalues --    2.40585   2.48473   2.51235   2.55601   2.59281
 Alpha virt. eigenvalues --    2.61271   2.66486   2.68668   2.72042   2.74248
 Alpha virt. eigenvalues --    2.75589   2.77037   2.82985   2.87065   2.88436
 Alpha virt. eigenvalues --    2.90631   2.91405   2.92331   2.95626   3.01211
 Alpha virt. eigenvalues --    3.08831   3.10051   3.21268   3.23466   3.26530
 Alpha virt. eigenvalues --    3.29504   3.30552   3.34207   3.37274   3.45419
 Alpha virt. eigenvalues --    3.50042   3.56693   3.62291   3.72742   3.76148
 Alpha virt. eigenvalues --    3.80001   3.80713   3.85394   3.93641   3.96098
 Alpha virt. eigenvalues --    4.02064   4.04002   4.05327   4.20867   4.23175
 Alpha virt. eigenvalues --    4.59950   4.90864   4.91202   5.01642   5.06331
 Alpha virt. eigenvalues --    5.14219   5.15706   5.20130   5.24268   5.25945
 Alpha virt. eigenvalues --    5.28738   5.41868   5.43412   5.49750   5.60501
 Alpha virt. eigenvalues --    5.63878   5.82512   5.83262   5.86599   5.88861
 Alpha virt. eigenvalues --    5.90576   5.92627   5.93587   5.95324   5.96894
 Alpha virt. eigenvalues --    5.98017   6.01804   6.02784   6.04232   6.11890
 Alpha virt. eigenvalues --    6.12733   6.15477   6.16923   6.17149   6.27986
 Alpha virt. eigenvalues --    6.37278   6.41815   6.46383   6.47753   6.51603
 Alpha virt. eigenvalues --    6.56047   6.62252   6.77072   6.80821   6.84499
 Alpha virt. eigenvalues --    6.87647   6.97959   7.02912   7.03407   7.03547
 Alpha virt. eigenvalues --    7.14539   7.18581   7.25257   7.27077   7.33525
 Alpha virt. eigenvalues --    7.36042   7.50163   7.54611   7.55708   7.57046
 Alpha virt. eigenvalues --    7.65641   7.69774   7.73198   7.76535   7.78770
 Alpha virt. eigenvalues --    7.81557   7.84793   7.94956   7.95190   8.15336
 Alpha virt. eigenvalues --    8.16922   8.26129   8.30264   8.34762   8.36048
 Alpha virt. eigenvalues --    8.41050   8.43342   8.47158   8.49425   8.54202
 Alpha virt. eigenvalues --    8.57636   8.58486   8.64906   8.67222   8.67681
 Alpha virt. eigenvalues --    8.70209   8.73923   8.80558   8.85688   8.88333
 Alpha virt. eigenvalues --    8.90140   9.01392   9.05981   9.12561   9.26486
 Alpha virt. eigenvalues --    9.28218   9.28833   9.51870   9.52247   9.60644
 Alpha virt. eigenvalues --    9.67993   9.70500   9.77148   9.83418   9.86216
 Alpha virt. eigenvalues --   10.00284  10.08658  10.10225  10.16630  10.26825
 Alpha virt. eigenvalues --   10.27931  10.35363  11.41825  11.86422  11.90294
 Alpha virt. eigenvalues --   12.01692  12.16101  12.85614  13.25280  29.01558
 Alpha virt. eigenvalues --   29.50661  38.40603 148.63412 149.16798 198.35049
          Condensed to atoms (all electrons):
               1          2          3          4          5          6
     1  C    4.643519   0.307623  -0.058065   0.405230   0.411917   0.398321
     2  C    0.307623   4.805521   1.012364  -0.036226  -0.044988  -0.043099
     3  N   -0.058065   1.012364   6.232496  -0.001152  -0.001373   0.000198
     4  H    0.405230  -0.036226  -0.001152   0.593605  -0.029454  -0.029464
     5  H    0.411917  -0.044988  -0.001373  -0.029454   0.581836  -0.023082
     6  H    0.398321  -0.043099   0.000198  -0.029464  -0.023082   0.605524
 Mulliken charges:
               1
     1  C   -0.108545
     2  C   -0.001196
     3  N   -0.184467
     4  H    0.097461
     5  H    0.105144
     6  H    0.091603
 Sum of Mulliken charges =   0.00000
 Mulliken charges with hydrogens summed into heavy atoms:
               1
     1  C    0.185663
     2  C   -0.001196
     3  N   -0.184467
 Electronic spatial extent (au):  <R**2>=            161.4100
 Charge=              0.0000 electrons
 Dipole moment (field-independent basis, Debye):
    X=             -4.0136    Y=              0.0422    Z=              0.0053  Tot=              4.0138
 Quadrupole moment (field-independent basis, Debye-Ang):
   XX=            -21.0966   YY=            -17.5986   ZZ=            -17.8495
   XY=              0.1617   XZ=             -0.1866   YZ=              0.0696
 Traceless Quadrupole moment (field-independent basis, Debye-Ang):
   XX=             -2.2483   YY=              1.2496   ZZ=              0.9988
   XY=              0.1617   XZ=             -0.1866   YZ=              0.0696
 Octapole moment (field-independent basis, Debye-Ang**2):
  XXX=            -11.9083  YYY=             -0.1705  ZZZ=              0.9170  XYY=             -2.0996
  XXY=             -0.0712  XXZ=              0.4668  XZZ=             -1.8398  YZZ=             -0.2096
  YYZ=             -0.9230  XYZ=             -0.0763
 Hexadecapole moment (field-independent basis, Debye-Ang**3):
 XXXX=           -181.7687 YYYY=            -25.8684 ZZZZ=            -25.4851 XXXY=              0.7409
 XXXZ=             -1.3205 YYYX=             -0.0433 YYYZ=              0.1817 ZZZX=             -1.7202
 ZZZY=              0.1584 XXYY=            -30.9056 XXZZ=            -30.9072 YYZZ=             -8.5463
 XXYZ=              0.1109 YYXZ=              1.5378 ZZXY=              0.2508
 N-N= 5.861058463271D+01 E-N=-4.258248409275D+02  KE= 1.320010238974D+02
 Leave Link  601 at Wed Aug 26 21:01:41 2020, MaxMem=  2097152000 cpu:         0.3
 (Enter /opt/cluster/programs/g09/g09_d.01/g09/l9999.exe)
 1\1\GINC-NODE29\SP\RB2PLYPD3-FC\def2QZVP\C2H3N1\BOITTIER\26-Aug-2020\0
 \\#p B2PLYPD3/Def2QZVP\\cyanomethane\\0,1\C,0,-6.573783,-1.136815,1.16
 84\C,0,-5.203993,-0.724171,0.892986\N,0,-4.107844,-0.57305,0.711352\H,
 0,-6.835111,-1.217684,2.27187\H,0,-6.803393,-2.132435,0.679534\H,0,-7.
 280604,-0.286036,0.755156\\Version=ES64L-G09RevD.01\State=1-A\HF=-132.
 5253038\MP2=-132.7040478\RMSD=1.575e-09\PG=C01 [X(C2H3N1)]\\@


 GOD GAVE US TWO ENDS... ONE TO SIT ON...    
 AND THE OTHER TO THINK WITH...              
 YOUR SUCCESS DEPENDS UPON WHICH END YOU     
 USE THE MOST...                             
                                             
 IT'S A CASE OF HEADS YOU WIN TAILS YOU LOSE.
          SOURCE UNKNOWN(IT'S JUST AS WELL.) 
 Job cpu time:       0 days  0 hours  3 minutes 52.3 seconds.
 File lengths (MBytes):  RWF=     28 Int=      0 D2E=      0 Chk=      5 Scr=      1
 Normal termination of Gaussian 09 at Wed Aug 26 21:01:43 2020.
