 Entering Gaussian System, Link 0=/opt/cluster/programs/g09/g09_d.01/g09//g09
 Input=/home/boittier/MDCM/nms_sampling/cyanomethane_geom.xyz.dir/energies/cyanomethane_1946_energy.com
 Output=/scratch/boittier/cyanomethane_1946_energy/cyanomethane_1946_energy.out
 Initial command:
 /opt/cluster/programs/g09/g09_d.01/g09/l1.exe "/scratch/boittier/cyanomethane_1946_energy/Gau-126703.inp" -scrdir="/scratch/boittier/cyanomethane_1946_energy/"
 Entering Link 1 = /opt/cluster/programs/g09/g09_d.01/g09/l1.exe PID=    126704.
  
 Copyright (c) 1988,1990,1992,1993,1995,1998,2003,2009,2013,
            Gaussian, Inc.  All Rights Reserved.
  
 This is part of the Gaussian(R) 09 program.  It is based on
 the Gaussian(R) 03 system (copyright 2003, Gaussian, Inc.),
 the Gaussian(R) 98 system (copyright 1998, Gaussian, Inc.),
 the Gaussian(R) 94 system (copyright 1995, Gaussian, Inc.),
 the Gaussian 92(TM) system (copyright 1992, Gaussian, Inc.),
 the Gaussian 90(TM) system (copyright 1990, Gaussian, Inc.),
 the Gaussian 88(TM) system (copyright 1988, Gaussian, Inc.),
 the Gaussian 86(TM) system (copyright 1986, Carnegie Mellon
 University), and the Gaussian 82(TM) system (copyright 1983,
 Carnegie Mellon University). Gaussian is a federally registered
 trademark of Gaussian, Inc.
  
 This software contains proprietary and confidential information,
 including trade secrets, belonging to Gaussian, Inc.
  
 This software is provided under written license and may be
 used, copied, transmitted, or stored only in accord with that
 written license.
  
 The following legend is applicable only to US Government
 contracts under FAR:
  
                    RESTRICTED RIGHTS LEGEND
  
 Use, reproduction and disclosure by the US Government is
 subject to restrictions as set forth in subparagraphs (a)
 and (c) of the Commercial Computer Software - Restricted
 Rights clause in FAR 52.227-19.
  
 Gaussian, Inc.
 340 Quinnipiac St., Bldg. 40, Wallingford CT 06492
  
  
 ---------------------------------------------------------------
 Warning -- This program may not be used in any manner that
 competes with the business of Gaussian, Inc. or will provide
 assistance to any competitor of Gaussian, Inc.  The licensee
 of this program is prohibited from giving any competitor of
 Gaussian, Inc. access to this program.  By using this program,
 the user acknowledges that Gaussian, Inc. is engaged in the
 business of creating and licensing software in the field of
 computational chemistry and represents and warrants to the
 licensee that it is not a competitor of Gaussian, Inc. and that
 it will not use this program in any manner prohibited above.
 ---------------------------------------------------------------
  

 Cite this work as:
 Gaussian 09, Revision D.01,
 M. J. Frisch, G. W. Trucks, H. B. Schlegel, G. E. Scuseria, 
 M. A. Robb, J. R. Cheeseman, G. Scalmani, V. Barone, B. Mennucci, 
 G. A. Petersson, H. Nakatsuji, M. Caricato, X. Li, H. P. Hratchian, 
 A. F. Izmaylov, J. Bloino, G. Zheng, J. L. Sonnenberg, M. Hada, 
 M. Ehara, K. Toyota, R. Fukuda, J. Hasegawa, M. Ishida, T. Nakajima, 
 Y. Honda, O. Kitao, H. Nakai, T. Vreven, J. A. Montgomery, Jr., 
 J. E. Peralta, F. Ogliaro, M. Bearpark, J. J. Heyd, E. Brothers, 
 K. N. Kudin, V. N. Staroverov, T. Keith, R. Kobayashi, J. Normand, 
 K. Raghavachari, A. Rendell, J. C. Burant, S. S. Iyengar, J. Tomasi, 
 M. Cossi, N. Rega, J. M. Millam, M. Klene, J. E. Knox, J. B. Cross, 
 V. Bakken, C. Adamo, J. Jaramillo, R. Gomperts, R. E. Stratmann, 
 O. Yazyev, A. J. Austin, R. Cammi, C. Pomelli, J. W. Ochterski, 
 R. L. Martin, K. Morokuma, V. G. Zakrzewski, G. A. Voth, 
 P. Salvador, J. J. Dannenberg, S. Dapprich, A. D. Daniels, 
 O. Farkas, J. B. Foresman, J. V. Ortiz, J. Cioslowski, 
 and D. J. Fox, Gaussian, Inc., Wallingford CT, 2013.
 
 ******************************************
 Gaussian 09:  ES64L-G09RevD.01 24-Apr-2013
                26-Aug-2020 
 ******************************************
 %chk=/home/boittier/MDCM/nms_sampling/cyanomethane_geom.xyz.dir/cyanomethane_194
 6.chk
 %nproc=8
 Will use up to    8 processors via shared memory.
 %mem=16000MB
 --------------------
 #p B2PLYPD3/Def2QZVP
 --------------------
 1/38=1/1;
 2/12=2,17=6,18=5,40=1/2;
 3/5=45,7=101,11=9,16=1,25=1,30=1,74=-60/1,2,3;
 4//1;
 5/5=2,38=5/2;
 8/10=1/1;
 9/16=-3/6;
 6/7=2,8=2,9=2,10=2/1;
 99/5=1,9=1/99;
 Leave Link    1 at Wed Aug 26 14:10:47 2020, MaxMem=  2097152000 cpu:         0.2
 (Enter /opt/cluster/programs/g09/g09_d.01/g09/l101.exe)
 ------------
 cyanomethane
 ------------
 Symbolic Z-matrix:
 Charge =  0 Multiplicity = 1
 C                    -6.58792  -1.10899   1.16973 
 C                    -5.20405  -0.76629   0.89943 
 N                    -4.09484  -0.55184   0.70591 
 H                    -6.78609  -1.30567   2.22692 
 H                    -6.85925  -2.07881   0.64516 
 H                    -7.2855   -0.35884   0.81598 
 
 NAtoms=      6 NQM=        6 NQMF=       0 NMMI=      0 NMMIF=      0
                NMic=       0 NMicF=      0.
                    Isotopes and Nuclear Properties:
 (Nuclear quadrupole moments (NQMom) in fm**2, nuclear magnetic moments (NMagM)
  in nuclear magnetons)

  Atom         1           2           3           4           5           6
 IAtWgt=          12          12          14           1           1           1
 AtmWgt=  12.0000000  12.0000000  14.0030740   1.0078250   1.0078250   1.0078250
 NucSpn=           0           0           2           1           1           1
 AtZEff=   0.0000000   0.0000000   0.0000000   0.0000000   0.0000000   0.0000000
 NQMom=    0.0000000   0.0000000   2.0440000   0.0000000   0.0000000   0.0000000
 NMagM=    0.0000000   0.0000000   0.4037610   2.7928460   2.7928460   2.7928460
 AtZNuc=   6.0000000   6.0000000   7.0000000   1.0000000   1.0000000   1.0000000
 Leave Link  101 at Wed Aug 26 14:10:47 2020, MaxMem=  2097152000 cpu:         0.5
 (Enter /opt/cluster/programs/g09/g09_d.01/g09/l202.exe)
                          Input orientation:                          
 ---------------------------------------------------------------------
 Center     Atomic      Atomic             Coordinates (Angstroms)
 Number     Number       Type             X           Y           Z
 ---------------------------------------------------------------------
      1          6           0       -6.587916   -1.108985    1.169733
      2          6           0       -5.204048   -0.766294    0.899434
      3          7           0       -4.094836   -0.551838    0.705906
      4          1           0       -6.786092   -1.305673    2.226922
      5          1           0       -6.859254   -2.078810    0.645164
      6          1           0       -7.285502   -0.358844    0.815982
 ---------------------------------------------------------------------
                    Distance matrix (angstroms):
                    1          2          3          4          5
     1  C    0.000000
     2  C    1.451065   0.000000
     3  N    2.596343   1.146209   0.000000
     4  H    1.093439   2.134483   3.181920   0.000000
     5  H    1.135499   2.127689   3.158693   1.762116   0.000000
     6  H    1.083733   2.122600   3.198392   1.771058   1.780210
                    6
     6  H    0.000000
 Stoichiometry    C2H3N
 Framework group  C1[X(C2H3N)]
 Deg. of freedom    12
 Full point group                 C1      NOp   1
 Largest Abelian subgroup         C1      NOp   1
 Largest concise Abelian subgroup C1      NOp   1
                         Standard orientation:                         
 ---------------------------------------------------------------------
 Center     Atomic      Atomic             Coordinates (Angstroms)
 Number     Number       Type             X           Y           Z
 ---------------------------------------------------------------------
      1          6           0       -1.165260    0.006434    0.007418
      2          6           0        0.285597    0.028969   -0.002352
      3          7           0        1.430996   -0.013961    0.001426
      4          1           0       -1.586686   -0.283695    0.973768
      5          1           0       -1.548070   -0.780154   -0.716525
      6          1           0       -1.604246    0.949155   -0.297616
 ---------------------------------------------------------------------
 Rotational constants (GHZ):    159.0226138      9.2700445      9.2612082
 Leave Link  202 at Wed Aug 26 14:10:47 2020, MaxMem=  2097152000 cpu:         0.0
 (Enter /opt/cluster/programs/g09/g09_d.01/g09/l301.exe)
 Standard basis: def2QZVP (5D, 7F)
 Ernie: Thresh=  0.10000D-02 Tol=  0.10000D-05 Strict=F.
 There are   321 symmetry adapted cartesian basis functions of A   symmetry.
 There are   261 symmetry adapted basis functions of A   symmetry.
   261 basis functions,   390 primitive gaussians,   321 cartesian basis functions
    11 alpha electrons       11 beta electrons
       nuclear repulsion energy        58.5758816021 Hartrees.
 IExCor=  419 DFT=T Ex+Corr=B2PLYPD3 ExCW=0 ScaHFX=  0.530000
 ScaDFX=  0.470000  0.470000  0.730000  0.730000 ScalE2=  0.270000  0.270000
 IRadAn=      0 IRanWt=     -1 IRanGd=            0 ICorTp=0 IEmpDi=141
 NAtoms=    6 NActive=    6 NUniq=    6 SFac= 1.00D+00 NAtFMM=   60 NAOKFM=F Big=F
 Integral buffers will be    131072 words long.
 Regular integral format.
 Two-electron integral symmetry is turned on.
 R6Disp:  Grimme-D3(BJ) Dispersion energy=       -0.0020977714 Hartrees.
 Nuclear repulsion after empirical dispersion term =       58.5737838307 Hartrees.
 Leave Link  301 at Wed Aug 26 14:10:47 2020, MaxMem=  2097152000 cpu:         0.4
 (Enter /opt/cluster/programs/g09/g09_d.01/g09/l302.exe)
 NPDir=0 NMtPBC=     1 NCelOv=     1 NCel=       1 NClECP=     1 NCelD=      1
         NCelK=      1 NCelE2=     1 NClLst=     1 CellRange=     0.0.
 One-electron integrals computed using PRISM.
   1 Symmetry operations used in ECPInt.
 ECPInt:  NShTT=    3321 NPrTT=    8136 LenC2=    3290 LenP2D=    7122.
 LDataN:  DoStor=T MaxTD1= 8 Len=  415
 NBasis=   261 RedAO= T EigKep=  7.98D-05  NBF=   261
 NBsUse=   261 1.00D-06 EigRej= -1.00D+00 NBFU=   261
 Precomputing XC quadrature grid using
 IXCGrd= 4 IRadAn=           0 IRanWt=          -1 IRanGd=           0 AccXCQ= 0.00D+00.
 Generated NRdTot=       0 NPtTot=           0 NUsed=           0 NTot=          32
 NSgBfM=   321   321   321   321   321 MxSgAt=     6 MxSgA2=     6.
 Leave Link  302 at Wed Aug 26 14:10:48 2020, MaxMem=  2097152000 cpu:         2.2
 (Enter /opt/cluster/programs/g09/g09_d.01/g09/l303.exe)
 DipDrv:  MaxL=1.
 Leave Link  303 at Wed Aug 26 14:10:48 2020, MaxMem=  2097152000 cpu:         0.2
 (Enter /opt/cluster/programs/g09/g09_d.01/g09/l401.exe)
 ExpMin= 7.60D-02 ExpMax= 9.07D+04 ExpMxC= 8.76D+02 IAcc=2 IRadAn=         4 AccDes= 0.00D+00
 Harris functional with IExCor=  419 and IRadAn=       4 diagonalized for initial guess.
 HarFok:  IExCor=  419 AccDes= 0.00D+00 IRadAn=         4 IDoV= 1 UseB2=F ITyADJ=14
 ICtDFT=  3500011 ScaDFX=  1.000000  1.000000  1.000000  1.000000
 FoFCou: FMM=F IPFlag=           0 FMFlag=      100000 FMFlg1=           0
         NFxFlg=           0 DoJE=T BraDBF=F KetDBF=T FulRan=T
         wScrn=  0.000000 ICntrl=     500 IOpCl=  0 I1Cent=   200000004 NGrid=           0
         NMat0=    1 NMatS0=      1 NMatT0=    0 NMatD0=    1 NMtDS0=    0 NMtDT0=    0
 Petite list used in FoFCou.
 Harris En= -132.850211385635    
 JPrj=0 DoOrth=F DoCkMO=F.
 Leave Link  401 at Wed Aug 26 14:10:48 2020, MaxMem=  2097152000 cpu:         4.1
 (Enter /opt/cluster/programs/g09/g09_d.01/g09/l502.exe)
 Closed shell SCF:
 Using DIIS extrapolation, IDIIS=  1040.
 Integral symmetry usage will be decided dynamically.
 Keep R1 ints in memory in canonical form, NReq=601554820.
 IVT=      332521 IEndB=      332521 NGot=  2097152000 MDV=  1512290144
 LenX=  1512290144 LenY=  1512186662
 Requested convergence on RMS density matrix=1.00D-08 within 128 cycles.
 Requested convergence on MAX density matrix=1.00D-06.
 Requested convergence on             energy=1.00D-06.
 No special actions if energy rises.
 FoFCou: FMM=F IPFlag=           0 FMFlag=           0 FMFlg1=           0
         NFxFlg=           0 DoJE=F BraDBF=F KetDBF=F FulRan=T
         wScrn=  0.000000 ICntrl=     600 IOpCl=  0 I1Cent=           0 NGrid=           0
         NMat0=    1 NMatS0=  34191 NMatT0=    0 NMatD0=    1 NMtDS0=    0 NMtDT0=    0
 Symmetry not used in FoFCou.
 Integral accuracy reduced to 1.0D-05 until final iterations.

 Cycle   1  Pass 0  IDiag  1:
 E= -132.420482408972    
 DIIS: error= 2.79D-02 at cycle   1 NSaved=   1.
 NSaved= 1 IEnMin= 1 EnMin= -132.420482408972     IErMin= 1 ErrMin= 2.79D-02
 ErrMax= 2.79D-02  0.00D+00 EMaxC= 1.00D-01 BMatC= 1.90D-01 BMatP= 1.90D-01
 IDIUse=3 WtCom= 7.21D-01 WtEn= 2.79D-01
 Coeff-Com:  0.100D+01
 Coeff-En:   0.100D+01
 Coeff:      0.100D+01
 Gap=     0.463 Goal=   None    Shift=    0.000
 GapD=    0.463 DampG=2.000 DampE=0.500 DampFc=1.0000 IDamp=-1.
 RMSDP=1.31D-03 MaxDP=7.00D-02              OVMax= 1.67D-01

 Cycle   2  Pass 0  IDiag  1:
 E= -132.453074028538     Delta-E=       -0.032591619567 Rises=F Damp=F
 DIIS: error= 2.96D-02 at cycle   2 NSaved=   2.
 NSaved= 2 IEnMin= 2 EnMin= -132.453074028538     IErMin= 1 ErrMin= 2.79D-02
 ErrMax= 2.96D-02  0.00D+00 EMaxC= 1.00D-01 BMatC= 9.50D-02 BMatP= 1.90D-01
 IDIUse=3 WtCom= 7.04D-01 WtEn= 2.96D-01
 Coeff-Com:  0.398D+00 0.602D+00
 Coeff-En:   0.399D+00 0.601D+00
 Coeff:      0.398D+00 0.602D+00
 Gap=     0.436 Goal=   None    Shift=    0.000
 RMSDP=8.66D-04 MaxDP=3.57D-02 DE=-3.26D-02 OVMax= 1.21D-01

 Cycle   3  Pass 0  IDiag  1:
 E= -132.518615325658     Delta-E=       -0.065541297120 Rises=F Damp=F
 DIIS: error= 1.42D-02 at cycle   3 NSaved=   3.
 NSaved= 3 IEnMin= 3 EnMin= -132.518615325658     IErMin= 3 ErrMin= 1.42D-02
 ErrMax= 1.42D-02  0.00D+00 EMaxC= 1.00D-01 BMatC= 1.88D-02 BMatP= 9.50D-02
 IDIUse=3 WtCom= 8.58D-01 WtEn= 1.42D-01
 Coeff-Com:  0.928D-01 0.319D+00 0.588D+00
 Coeff-En:   0.000D+00 0.111D+00 0.889D+00
 Coeff:      0.796D-01 0.290D+00 0.631D+00
 Gap=     0.428 Goal=   None    Shift=    0.000
 RMSDP=2.63D-04 MaxDP=9.57D-03 DE=-6.55D-02 OVMax= 5.76D-02

 Cycle   4  Pass 0  IDiag  1:
 E= -132.531309863079     Delta-E=       -0.012694537421 Rises=F Damp=F
 DIIS: error= 5.39D-03 at cycle   4 NSaved=   4.
 NSaved= 4 IEnMin= 4 EnMin= -132.531309863079     IErMin= 4 ErrMin= 5.39D-03
 ErrMax= 5.39D-03  0.00D+00 EMaxC= 1.00D-01 BMatC= 3.04D-03 BMatP= 1.88D-02
 IDIUse=3 WtCom= 9.46D-01 WtEn= 5.39D-02
 Coeff-Com: -0.124D-01 0.541D-01 0.336D+00 0.622D+00
 Coeff-En:   0.000D+00 0.000D+00 0.151D+00 0.849D+00
 Coeff:     -0.118D-01 0.511D-01 0.326D+00 0.635D+00
 Gap=     0.428 Goal=   None    Shift=    0.000
 RMSDP=9.10D-05 MaxDP=2.78D-03 DE=-1.27D-02 OVMax= 1.55D-02

 Cycle   5  Pass 0  IDiag  1:
 E= -132.533940893716     Delta-E=       -0.002631030637 Rises=F Damp=F
 DIIS: error= 3.55D-04 at cycle   5 NSaved=   5.
 NSaved= 5 IEnMin= 5 EnMin= -132.533940893716     IErMin= 5 ErrMin= 3.55D-04
 ErrMax= 3.55D-04  0.00D+00 EMaxC= 1.00D-01 BMatC= 1.37D-05 BMatP= 3.04D-03
 IDIUse=3 WtCom= 9.96D-01 WtEn= 3.55D-03
 Coeff-Com: -0.340D-02 0.494D-02 0.472D-01 0.137D+00 0.814D+00
 Coeff-En:   0.000D+00 0.000D+00 0.000D+00 0.000D+00 0.100D+01
 Coeff:     -0.339D-02 0.492D-02 0.470D-01 0.137D+00 0.815D+00
 Gap=     0.427 Goal=   None    Shift=    0.000
 RMSDP=8.73D-06 MaxDP=3.48D-04 DE=-2.63D-03 OVMax= 1.16D-03

 Initial convergence to 1.0D-05 achieved.  Increase integral accuracy.
 Cycle   6  Pass 1  IDiag  1:
 E= -132.533953471153     Delta-E=       -0.000012577437 Rises=F Damp=F
 DIIS: error= 7.58D-05 at cycle   1 NSaved=   1.
 NSaved= 1 IEnMin= 1 EnMin= -132.533953471153     IErMin= 1 ErrMin= 7.58D-05
 ErrMax= 7.58D-05  0.00D+00 EMaxC= 1.00D-01 BMatC= 5.92D-07 BMatP= 5.92D-07
 IDIUse=1 WtCom= 1.00D+00 WtEn= 0.00D+00
 Coeff-Com:  0.100D+01
 Coeff:      0.100D+01
 Gap=     0.428 Goal=   None    Shift=    0.000
 RMSDP=8.73D-06 MaxDP=3.48D-04 DE=-1.26D-05 OVMax= 3.90D-04

 Cycle   7  Pass 1  IDiag  1:
 E= -132.533953831686     Delta-E=       -0.000000360533 Rises=F Damp=F
 DIIS: error= 4.89D-05 at cycle   2 NSaved=   2.
 NSaved= 2 IEnMin= 2 EnMin= -132.533953831686     IErMin= 2 ErrMin= 4.89D-05
 ErrMax= 4.89D-05  0.00D+00 EMaxC= 1.00D-01 BMatC= 2.66D-07 BMatP= 5.92D-07
 IDIUse=1 WtCom= 1.00D+00 WtEn= 0.00D+00
 Coeff-Com:  0.392D+00 0.608D+00
 Coeff:      0.392D+00 0.608D+00
 Gap=     0.428 Goal=   None    Shift=    0.000
 RMSDP=9.66D-07 MaxDP=3.80D-05 DE=-3.61D-07 OVMax= 1.63D-04

 Cycle   8  Pass 1  IDiag  1:
 E= -132.533954061163     Delta-E=       -0.000000229478 Rises=F Damp=F
 DIIS: error= 1.31D-05 at cycle   3 NSaved=   3.
 NSaved= 3 IEnMin= 3 EnMin= -132.533954061163     IErMin= 3 ErrMin= 1.31D-05
 ErrMax= 1.31D-05  0.00D+00 EMaxC= 1.00D-01 BMatC= 1.95D-08 BMatP= 2.66D-07
 IDIUse=1 WtCom= 1.00D+00 WtEn= 0.00D+00
 Coeff-Com:  0.100D+00 0.241D+00 0.659D+00
 Coeff:      0.100D+00 0.241D+00 0.659D+00
 Gap=     0.428 Goal=   None    Shift=    0.000
 RMSDP=5.73D-07 MaxDP=2.61D-05 DE=-2.29D-07 OVMax= 5.62D-05

 Cycle   9  Pass 1  IDiag  1:
 E= -132.533954072795     Delta-E=       -0.000000011632 Rises=F Damp=F
 DIIS: error= 1.06D-05 at cycle   4 NSaved=   4.
 NSaved= 4 IEnMin= 4 EnMin= -132.533954072795     IErMin= 4 ErrMin= 1.06D-05
 ErrMax= 1.06D-05  0.00D+00 EMaxC= 1.00D-01 BMatC= 6.82D-09 BMatP= 1.95D-08
 IDIUse=1 WtCom= 1.00D+00 WtEn= 0.00D+00
 Coeff-Com: -0.580D-01-0.316D-01 0.405D+00 0.684D+00
 Coeff:     -0.580D-01-0.316D-01 0.405D+00 0.684D+00
 Gap=     0.428 Goal=   None    Shift=    0.000
 RMSDP=2.76D-07 MaxDP=1.36D-05 DE=-1.16D-08 OVMax= 3.41D-05

 Cycle  10  Pass 1  IDiag  1:
 E= -132.533954079124     Delta-E=       -0.000000006330 Rises=F Damp=F
 DIIS: error= 8.48D-07 at cycle   5 NSaved=   5.
 NSaved= 5 IEnMin= 5 EnMin= -132.533954079124     IErMin= 5 ErrMin= 8.48D-07
 ErrMax= 8.48D-07  0.00D+00 EMaxC= 1.00D-01 BMatC= 8.25D-11 BMatP= 6.82D-09
 IDIUse=1 WtCom= 1.00D+00 WtEn= 0.00D+00
 Coeff-Com: -0.203D-01-0.184D-01 0.810D-01 0.194D+00 0.763D+00
 Coeff:     -0.203D-01-0.184D-01 0.810D-01 0.194D+00 0.763D+00
 Gap=     0.428 Goal=   None    Shift=    0.000
 RMSDP=4.40D-08 MaxDP=2.26D-06 DE=-6.33D-09 OVMax= 3.26D-06

 Cycle  11  Pass 1  IDiag  1:
 E= -132.533954079194     Delta-E=       -0.000000000070 Rises=F Damp=F
 DIIS: error= 2.23D-07 at cycle   6 NSaved=   6.
 NSaved= 6 IEnMin= 6 EnMin= -132.533954079194     IErMin= 6 ErrMin= 2.23D-07
 ErrMax= 2.23D-07  0.00D+00 EMaxC= 1.00D-01 BMatC= 4.83D-12 BMatP= 8.25D-11
 IDIUse=1 WtCom= 1.00D+00 WtEn= 0.00D+00
 Coeff-Com:  0.177D-02-0.290D-03-0.257D-01-0.193D-01 0.149D+00 0.894D+00
 Coeff:      0.177D-02-0.290D-03-0.257D-01-0.193D-01 0.149D+00 0.894D+00
 Gap=     0.428 Goal=   None    Shift=    0.000
 RMSDP=9.59D-09 MaxDP=4.39D-07 DE=-6.98D-11 OVMax= 9.85D-07

 SCF Done:  E(RB2PLYPD3) =  -132.533954079     A.U. after   11 cycles
            NFock= 11  Conv=0.96D-08     -V/T= 2.0037
 KE= 1.320392183369D+02 PE=-4.257481780960D+02 EE= 1.026012218493D+02
 Leave Link  502 at Wed Aug 26 14:11:08 2020, MaxMem=  2097152000 cpu:        99.1
 (Enter /opt/cluster/programs/g09/g09_d.01/g09/l801.exe)
 DoSCS=T DFT=T ScalE2(SS,OS)=  0.270000  0.270000
 ExpMin= 7.60D-02 ExpMax= 9.07D+04 ExpMxC= 8.76D+02 IAcc=3 IRadAn=         5 AccDes= 0.00D+00
 HarFok:  IExCor=  205 AccDes= 0.00D+00 IRadAn=         5 IDoV=-2 UseB2=F ITyADJ=14
 ICtDFT= 12500011 ScaDFX=  1.000000  1.000000  1.000000  1.000000
 Largest valence mixing into a core orbital is  1.16D-04
 Largest core mixing into a valence orbital is  1.89D-05
 Range of M.O.s used for correlation:     4   261
 NBasis=   261 NAE=    11 NBE=    11 NFC=     3 NFV=     0
 NROrb=    258 NOA=     8 NOB=     8 NVA=   250 NVB=   250

 **** Warning!!: The largest alpha MO coefficient is  0.28578384D+02

 Leave Link  801 at Wed Aug 26 14:11:08 2020, MaxMem=  2097152000 cpu:         0.7
 (Enter /opt/cluster/programs/g09/g09_d.01/g09/l906.exe)
 DoSCS=T DFT=T ScalE2(SS,OS)=  0.270000  0.270000
 FulOut=F Deriv=F AODrv=F NAtomX=     6
   MMem=        2666  MDisk=           8 MDiskD=           8
  W3Min=      642000 MinDsk=     1426009 NBas6D=         321
 NBas2D=       52689    NTT=       51681    LW2=     4508827
    MDV=  2096809531 MDiskM=       14501 NBas2p=       52131
 Fully direct method using O(OVN) memory.
 IMap=   1   2   3   4   5   6   7   8
 JobTyp=1 Pass  1:  I=   1 to   8 NPSUse=  8 ParTrn=T ParDer=T DoDerP=F.
 Spin components of T(2) and E(2):
     alpha-alpha T2 =       0.3541352323D-01 E2=     -0.2134742569D-01
     alpha-beta  T2 =       0.2076235590D+00 E2=     -0.1373469065D+00
     beta-beta   T2 =       0.3541352323D-01 E2=     -0.2134742569D-01
 The integrals were generated   1 times.
 E2(B2PLYPD3) =    -0.1800417579D+00 E(B2PLYPD3) =    -0.13271399583708D+03
 Leave Link  906 at Wed Aug 26 14:11:22 2020, MaxMem=  2097152000 cpu:       112.3
 (Enter /opt/cluster/programs/g09/g09_d.01/g09/l601.exe)
 Copying SCF densities to generalized density rwf, IOpCl= 0 IROHF=0.

 **********************************************************************

            Population analysis using the SCF density.

 **********************************************************************

 Orbital symmetries:
       Occupied  (A) (A) (A) (A) (A) (A) (A) (A) (A) (A) (A)
       Virtual   (A) (A) (A) (A) (A) (A) (A) (A) (A) (A) (A) (A)
                 (A) (A) (A) (A) (A) (A) (A) (A) (A) (A) (A) (A)
                 (A) (A) (A) (A) (A) (A) (A) (A) (A) (A) (A) (A)
                 (A) (A) (A) (A) (A) (A) (A) (A) (A) (A) (A) (A)
                 (A) (A) (A) (A) (A) (A) (A) (A) (A) (A) (A) (A)
                 (A) (A) (A) (A) (A) (A) (A) (A) (A) (A) (A) (A)
                 (A) (A) (A) (A) (A) (A) (A) (A) (A) (A) (A) (A)
                 (A) (A) (A) (A) (A) (A) (A) (A) (A) (A) (A) (A)
                 (A) (A) (A) (A) (A) (A) (A) (A) (A) (A) (A) (A)
                 (A) (A) (A) (A) (A) (A) (A) (A) (A) (A) (A) (A)
                 (A) (A) (A) (A) (A) (A) (A) (A) (A) (A) (A) (A)
                 (A) (A) (A) (A) (A) (A) (A) (A) (A) (A) (A) (A)
                 (A) (A) (A) (A) (A) (A) (A) (A) (A) (A) (A) (A)
                 (A) (A) (A) (A) (A) (A) (A) (A) (A) (A) (A) (A)
                 (A) (A) (A) (A) (A) (A) (A) (A) (A) (A) (A) (A)
                 (A) (A) (A) (A) (A) (A) (A) (A) (A) (A) (A) (A)
                 (A) (A) (A) (A) (A) (A) (A) (A) (A) (A) (A) (A)
                 (A) (A) (A) (A) (A) (A) (A) (A) (A) (A) (A) (A)
                 (A) (A) (A) (A) (A) (A) (A) (A) (A) (A) (A) (A)
                 (A) (A) (A) (A) (A) (A) (A) (A) (A) (A) (A) (A)
                 (A) (A) (A) (A) (A) (A) (A) (A) (A) (A)
 The electronic state is 1-A.
 Alpha  occ. eigenvalues --  -14.84084 -10.67428 -10.66134  -1.04550  -0.88876
 Alpha  occ. eigenvalues --   -0.60312  -0.53924  -0.52486  -0.44899  -0.39400
 Alpha  occ. eigenvalues --   -0.39109
 Alpha virt. eigenvalues --    0.03650   0.07502   0.07929   0.10159   0.11479
 Alpha virt. eigenvalues --    0.11843   0.15509   0.16454   0.16927   0.19983
 Alpha virt. eigenvalues --    0.20098   0.25517   0.32792   0.33836   0.35068
 Alpha virt. eigenvalues --    0.38834   0.39630   0.40317   0.40528   0.47809
 Alpha virt. eigenvalues --    0.49980   0.51194   0.58052   0.59792   0.61551
 Alpha virt. eigenvalues --    0.68049   0.68289   0.69655   0.69869   0.78892
 Alpha virt. eigenvalues --    0.79116   0.81802   0.82273   0.84017   0.86757
 Alpha virt. eigenvalues --    0.91761   0.92669   0.95664   0.96708   0.97020
 Alpha virt. eigenvalues --    1.06389   1.08295   1.09384   1.12015   1.12479
 Alpha virt. eigenvalues --    1.15292   1.21815   1.22852   1.23076   1.34893
 Alpha virt. eigenvalues --    1.35695   1.45231   1.47431   1.48753   1.54058
 Alpha virt. eigenvalues --    1.65245   1.66553   1.69892   1.73713   1.77501
 Alpha virt. eigenvalues --    1.78072   1.78966   1.90836   1.91085   1.92202
 Alpha virt. eigenvalues --    1.93677   1.99090   1.99557   2.01332   2.04964
 Alpha virt. eigenvalues --    2.06382   2.13696   2.15509   2.20020   2.20997
 Alpha virt. eigenvalues --    2.23097   2.23748   2.24760   2.33415   2.34606
 Alpha virt. eigenvalues --    2.42587   2.49487   2.51726   2.55599   2.57457
 Alpha virt. eigenvalues --    2.61552   2.66758   2.69692   2.71800   2.74639
 Alpha virt. eigenvalues --    2.75772   2.76682   2.85861   2.90294   2.90991
 Alpha virt. eigenvalues --    2.91418   2.94779   2.97047   2.97794   3.09477
 Alpha virt. eigenvalues --    3.09973   3.10884   3.21104   3.27238   3.29315
 Alpha virt. eigenvalues --    3.32918   3.34284   3.39299   3.41278   3.48528
 Alpha virt. eigenvalues --    3.52890   3.54494   3.71340   3.73323   3.75968
 Alpha virt. eigenvalues --    3.84790   3.91668   3.92256   3.96891   3.99543
 Alpha virt. eigenvalues --    4.00899   4.04667   4.06109   4.23141   4.24210
 Alpha virt. eigenvalues --    4.57335   4.90678   4.90792   5.08819   5.10882
 Alpha virt. eigenvalues --    5.14004   5.16062   5.19182   5.20594   5.21631
 Alpha virt. eigenvalues --    5.28470   5.43217   5.43470   5.47916   5.63166
 Alpha virt. eigenvalues --    5.63377   5.84312   5.84766   5.90497   5.93812
 Alpha virt. eigenvalues --    5.95306   5.96181   5.98408   5.99142   6.01212
 Alpha virt. eigenvalues --    6.02325   6.03950   6.04761   6.07404   6.14490
 Alpha virt. eigenvalues --    6.16024   6.17471   6.23868   6.26429   6.33937
 Alpha virt. eigenvalues --    6.41289   6.44427   6.48007   6.58104   6.58776
 Alpha virt. eigenvalues --    6.60673   6.61535   6.83210   6.86893   6.92233
 Alpha virt. eigenvalues --    6.94370   7.02619   7.02749   7.04071   7.11322
 Alpha virt. eigenvalues --    7.12285   7.18438   7.19059   7.45354   7.47805
 Alpha virt. eigenvalues --    7.50476   7.53564   7.58435   7.60801   7.61375
 Alpha virt. eigenvalues --    7.65146   7.73995   7.78096   7.80809   7.82681
 Alpha virt. eigenvalues --    7.89939   7.93808   7.96295   8.00070   8.24696
 Alpha virt. eigenvalues --    8.25488   8.32639   8.42029   8.42999   8.43565
 Alpha virt. eigenvalues --    8.45408   8.47906   8.49707   8.54766   8.58415
 Alpha virt. eigenvalues --    8.60751   8.63441   8.63841   8.66849   8.66860
 Alpha virt. eigenvalues --    8.70034   8.77861   8.86516   8.89235   8.97703
 Alpha virt. eigenvalues --    9.01060   9.05315   9.06231   9.11858   9.18164
 Alpha virt. eigenvalues --    9.27964   9.28327   9.70052   9.71638   9.74707
 Alpha virt. eigenvalues --    9.75967   9.89574   9.95999   9.97434  10.04088
 Alpha virt. eigenvalues --   10.10995  10.19587  10.20973  10.30533  10.36351
 Alpha virt. eigenvalues --   10.42243  10.57366  11.38939  11.81484  11.87155
 Alpha virt. eigenvalues --   12.06760  12.10483  13.10966  13.37484  29.17531
 Alpha virt. eigenvalues --   29.55827  38.34909 148.82502 149.19874 198.27496
          Condensed to atoms (all electrons):
               1          2          3          4          5          6
     1  C    4.602364   0.306704  -0.058250   0.410860   0.407802   0.409496
     2  C    0.306704   4.821100   0.996028  -0.040627  -0.044157  -0.039933
     3  N   -0.058250   0.996028   6.265292  -0.000973  -0.001410  -0.000162
     4  H    0.410860  -0.040627  -0.000973   0.598702  -0.030707  -0.031351
     5  H    0.407802  -0.044157  -0.001410  -0.030707   0.608675  -0.029713
     6  H    0.409496  -0.039933  -0.000162  -0.031351  -0.029713   0.596655
 Mulliken charges:
               1
     1  C   -0.078975
     2  C    0.000885
     3  N   -0.200525
     4  H    0.094095
     5  H    0.089512
     6  H    0.095009
 Sum of Mulliken charges =   0.00000
 Mulliken charges with hydrogens summed into heavy atoms:
               1
     1  C    0.199640
     2  C    0.000885
     3  N   -0.200525
 Electronic spatial extent (au):  <R**2>=            161.9642
 Charge=              0.0000 electrons
 Dipole moment (field-independent basis, Debye):
    X=             -4.1142    Y=              0.0094    Z=             -0.0016  Tot=              4.1142
 Quadrupole moment (field-independent basis, Debye-Ang):
   XX=            -20.8196   YY=            -17.7691   ZZ=            -17.8443
   XY=              0.0796   XZ=             -0.0216   YZ=             -0.0527
 Traceless Quadrupole moment (field-independent basis, Debye-Ang):
   XX=             -2.0086   YY=              1.0419   ZZ=              0.9667
   XY=              0.0796   XZ=             -0.0216   YZ=             -0.0527
 Octapole moment (field-independent basis, Debye-Ang**2):
  XXX=            -13.1847  YYY=              0.4065  ZZZ=              0.5935  XYY=             -2.1678
  XXY=              0.0408  XXZ=              0.1004  XZZ=             -2.0473  YZZ=             -0.5448
  YYZ=             -0.5761  XYZ=              0.1030
 Hexadecapole moment (field-independent basis, Debye-Ang**3):
 XXXX=           -181.3035 YYYY=            -25.0309 ZZZZ=            -24.9906 XXXY=              0.0080
 XXXZ=             -0.2989 YYYX=             -0.8658 YYYZ=             -0.0374 ZZZX=             -1.0474
 ZZZY=             -0.1362 XXYY=            -31.0139 XXZZ=            -31.2031 YYZZ=             -8.2106
 XXYZ=             -0.2693 YYXZ=              1.0063 ZZXY=              0.9038
 N-N= 5.857378383068D+01 E-N=-4.257481609059D+02  KE= 1.320392183369D+02
 Leave Link  601 at Wed Aug 26 14:11:23 2020, MaxMem=  2097152000 cpu:         0.4
 (Enter /opt/cluster/programs/g09/g09_d.01/g09/l9999.exe)
 1\1\GINC-NODE07\SP\RB2PLYPD3-FC\def2QZVP\C2H3N1\BOITTIER\26-Aug-2020\0
 \\#p B2PLYPD3/Def2QZVP\\cyanomethane\\0,1\C,0,-6.587916,-1.108985,1.16
 9733\C,0,-5.204048,-0.766294,0.899434\N,0,-4.094836,-0.551838,0.705906
 \H,0,-6.786092,-1.305673,2.226922\H,0,-6.859254,-2.07881,0.645164\H,0,
 -7.285502,-0.358844,0.815982\\Version=ES64L-G09RevD.01\State=1-A\HF=-1
 32.5339541\MP2=-132.7139958\RMSD=9.587e-09\PG=C01 [X(C2H3N1)]\\@


 EDUCATION IS NOT TRAINING BUT RATHER THE PROCESS THAT EQUIPS YOU TO
 ENTERTAIN YOURSELF, A FRIEND, OR AN IDEA.  -- WALLACE STERLING
 Job cpu time:       0 days  0 hours  3 minutes 40.4 seconds.
 File lengths (MBytes):  RWF=     28 Int=      0 D2E=      0 Chk=      5 Scr=      1
 Normal termination of Gaussian 09 at Wed Aug 26 14:11:23 2020.
