 Entering Gaussian System, Link 0=/opt/cluster/programs/g09/g09_d.01/g09//g09
 Input=/home/boittier/MDCM/nms_sampling/cyanomethane_geom.xyz.dir/energies/cyanomethane_602_energy.com
 Output=/scratch/boittier/cyanomethane_602_energy/cyanomethane_602_energy.out
 Initial command:
 /opt/cluster/programs/g09/g09_d.01/g09/l1.exe "/scratch/boittier/cyanomethane_602_energy/Gau-24505.inp" -scrdir="/scratch/boittier/cyanomethane_602_energy/"
 Entering Link 1 = /opt/cluster/programs/g09/g09_d.01/g09/l1.exe PID=     24506.
  
 Copyright (c) 1988,1990,1992,1993,1995,1998,2003,2009,2013,
            Gaussian, Inc.  All Rights Reserved.
  
 This is part of the Gaussian(R) 09 program.  It is based on
 the Gaussian(R) 03 system (copyright 2003, Gaussian, Inc.),
 the Gaussian(R) 98 system (copyright 1998, Gaussian, Inc.),
 the Gaussian(R) 94 system (copyright 1995, Gaussian, Inc.),
 the Gaussian 92(TM) system (copyright 1992, Gaussian, Inc.),
 the Gaussian 90(TM) system (copyright 1990, Gaussian, Inc.),
 the Gaussian 88(TM) system (copyright 1988, Gaussian, Inc.),
 the Gaussian 86(TM) system (copyright 1986, Carnegie Mellon
 University), and the Gaussian 82(TM) system (copyright 1983,
 Carnegie Mellon University). Gaussian is a federally registered
 trademark of Gaussian, Inc.
  
 This software contains proprietary and confidential information,
 including trade secrets, belonging to Gaussian, Inc.
  
 This software is provided under written license and may be
 used, copied, transmitted, or stored only in accord with that
 written license.
  
 The following legend is applicable only to US Government
 contracts under FAR:
  
                    RESTRICTED RIGHTS LEGEND
  
 Use, reproduction and disclosure by the US Government is
 subject to restrictions as set forth in subparagraphs (a)
 and (c) of the Commercial Computer Software - Restricted
 Rights clause in FAR 52.227-19.
  
 Gaussian, Inc.
 340 Quinnipiac St., Bldg. 40, Wallingford CT 06492
  
  
 ---------------------------------------------------------------
 Warning -- This program may not be used in any manner that
 competes with the business of Gaussian, Inc. or will provide
 assistance to any competitor of Gaussian, Inc.  The licensee
 of this program is prohibited from giving any competitor of
 Gaussian, Inc. access to this program.  By using this program,
 the user acknowledges that Gaussian, Inc. is engaged in the
 business of creating and licensing software in the field of
 computational chemistry and represents and warrants to the
 licensee that it is not a competitor of Gaussian, Inc. and that
 it will not use this program in any manner prohibited above.
 ---------------------------------------------------------------
  

 Cite this work as:
 Gaussian 09, Revision D.01,
 M. J. Frisch, G. W. Trucks, H. B. Schlegel, G. E. Scuseria, 
 M. A. Robb, J. R. Cheeseman, G. Scalmani, V. Barone, B. Mennucci, 
 G. A. Petersson, H. Nakatsuji, M. Caricato, X. Li, H. P. Hratchian, 
 A. F. Izmaylov, J. Bloino, G. Zheng, J. L. Sonnenberg, M. Hada, 
 M. Ehara, K. Toyota, R. Fukuda, J. Hasegawa, M. Ishida, T. Nakajima, 
 Y. Honda, O. Kitao, H. Nakai, T. Vreven, J. A. Montgomery, Jr., 
 J. E. Peralta, F. Ogliaro, M. Bearpark, J. J. Heyd, E. Brothers, 
 K. N. Kudin, V. N. Staroverov, T. Keith, R. Kobayashi, J. Normand, 
 K. Raghavachari, A. Rendell, J. C. Burant, S. S. Iyengar, J. Tomasi, 
 M. Cossi, N. Rega, J. M. Millam, M. Klene, J. E. Knox, J. B. Cross, 
 V. Bakken, C. Adamo, J. Jaramillo, R. Gomperts, R. E. Stratmann, 
 O. Yazyev, A. J. Austin, R. Cammi, C. Pomelli, J. W. Ochterski, 
 R. L. Martin, K. Morokuma, V. G. Zakrzewski, G. A. Voth, 
 P. Salvador, J. J. Dannenberg, S. Dapprich, A. D. Daniels, 
 O. Farkas, J. B. Foresman, J. V. Ortiz, J. Cioslowski, 
 and D. J. Fox, Gaussian, Inc., Wallingford CT, 2013.
 
 ******************************************
 Gaussian 09:  ES64L-G09RevD.01 24-Apr-2013
                27-Aug-2020 
 ******************************************
 %chk=/home/boittier/MDCM/nms_sampling/cyanomethane_geom.xyz.dir/cyanomethane_602
 .chk
 %nproc=8
 Will use up to    8 processors via shared memory.
 %mem=16000MB
 --------------------
 #p B2PLYPD3/Def2QZVP
 --------------------
 1/38=1/1;
 2/12=2,17=6,18=5,40=1/2;
 3/5=45,7=101,11=9,16=1,25=1,30=1,74=-60/1,2,3;
 4//1;
 5/5=2,38=5/2;
 8/10=1/1;
 9/16=-3/6;
 6/7=2,8=2,9=2,10=2/1;
 99/5=1,9=1/99;
 Leave Link    1 at Thu Aug 27 00:02:27 2020, MaxMem=  2097152000 cpu:         1.8
 (Enter /opt/cluster/programs/g09/g09_d.01/g09/l101.exe)
 ------------
 cyanomethane
 ------------
 Symbolic Z-matrix:
 Charge =  0 Multiplicity = 1
 C                    -6.59719  -1.11882   1.16631 
 C                    -5.20102  -0.78963   0.9259 
 N                    -4.09096  -0.53794   0.69069 
 H                    -6.72528  -1.20279   2.23658 
 H                    -6.90442  -2.02311   0.64405 
 H                    -7.2823   -0.32005   0.75784 
 
 NAtoms=      6 NQM=        6 NQMF=       0 NMMI=      0 NMMIF=      0
                NMic=       0 NMicF=      0.
                    Isotopes and Nuclear Properties:
 (Nuclear quadrupole moments (NQMom) in fm**2, nuclear magnetic moments (NMagM)
  in nuclear magnetons)

  Atom         1           2           3           4           5           6
 IAtWgt=          12          12          14           1           1           1
 AtmWgt=  12.0000000  12.0000000  14.0030740   1.0078250   1.0078250   1.0078250
 NucSpn=           0           0           2           1           1           1
 AtZEff=   0.0000000   0.0000000   0.0000000   0.0000000   0.0000000   0.0000000
 NQMom=    0.0000000   0.0000000   2.0440000   0.0000000   0.0000000   0.0000000
 NMagM=    0.0000000   0.0000000   0.4037610   2.7928460   2.7928460   2.7928460
 AtZNuc=   6.0000000   6.0000000   7.0000000   1.0000000   1.0000000   1.0000000
 Leave Link  101 at Thu Aug 27 00:02:29 2020, MaxMem=  2097152000 cpu:         0.5
 (Enter /opt/cluster/programs/g09/g09_d.01/g09/l202.exe)
                          Input orientation:                          
 ---------------------------------------------------------------------
 Center     Atomic      Atomic             Coordinates (Angstroms)
 Number     Number       Type             X           Y           Z
 ---------------------------------------------------------------------
      1          6           0       -6.597188   -1.118822    1.166315
      2          6           0       -5.201016   -0.789634    0.925900
      3          7           0       -4.090955   -0.537935    0.690686
      4          1           0       -6.725280   -1.202788    2.236582
      5          1           0       -6.904416   -2.023105    0.644046
      6          1           0       -7.282295   -0.320052    0.757844
 ---------------------------------------------------------------------
                    Distance matrix (angstroms):
                    1          2          3          4          5
     1  C    0.000000
     2  C    1.454462   0.000000
     3  N    2.616268   1.162288   0.000000
     4  H    1.081170   2.052307   3.125939   0.000000
     5  H    1.088523   2.121901   3.181740   1.800328   0.000000
     6  H    1.128828   2.140204   3.199474   1.810015   1.748180
                    6
     6  H    0.000000
 Stoichiometry    C2H3N
 Framework group  C1[X(C2H3N)]
 Deg. of freedom    12
 Full point group                 C1      NOp   1
 Largest Abelian subgroup         C1      NOp   1
 Largest concise Abelian subgroup C1      NOp   1
                         Standard orientation:                         
 ---------------------------------------------------------------------
 Center     Atomic      Atomic             Coordinates (Angstroms)
 Number     Number       Type             X           Y           Z
 ---------------------------------------------------------------------
      1          6           0       -1.177178    0.006575    0.008062
      2          6           0        0.277182    0.018313   -0.004531
      3          7           0        1.438998   -0.014298    0.001364
      4          1           0       -1.505163    1.032547   -0.085406
      5          1           0       -1.578876   -0.473147    0.898785
      6          1           0       -1.588967   -0.608643   -0.844107
 ---------------------------------------------------------------------
 Rotational constants (GHZ):    156.9091474      9.2048369      9.1814687
 Leave Link  202 at Thu Aug 27 00:02:31 2020, MaxMem=  2097152000 cpu:         0.0
 (Enter /opt/cluster/programs/g09/g09_d.01/g09/l301.exe)
 Standard basis: def2QZVP (5D, 7F)
 Ernie: Thresh=  0.10000D-02 Tol=  0.10000D-05 Strict=F.
 There are   321 symmetry adapted cartesian basis functions of A   symmetry.
 There are   261 symmetry adapted basis functions of A   symmetry.
   261 basis functions,   390 primitive gaussians,   321 cartesian basis functions
    11 alpha electrons       11 beta electrons
       nuclear repulsion energy        58.3042951450 Hartrees.
 IExCor=  419 DFT=T Ex+Corr=B2PLYPD3 ExCW=0 ScaHFX=  0.530000
 ScaDFX=  0.470000  0.470000  0.730000  0.730000 ScalE2=  0.270000  0.270000
 IRadAn=      0 IRanWt=     -1 IRanGd=            0 ICorTp=0 IEmpDi=141
 NAtoms=    6 NActive=    6 NUniq=    6 SFac= 1.00D+00 NAtFMM=   60 NAOKFM=F Big=F
 Integral buffers will be    131072 words long.
 Regular integral format.
 Two-electron integral symmetry is turned on.
 R6Disp:  Grimme-D3(BJ) Dispersion energy=       -0.0020991976 Hartrees.
 Nuclear repulsion after empirical dispersion term =       58.3021959474 Hartrees.
 Leave Link  301 at Thu Aug 27 00:02:32 2020, MaxMem=  2097152000 cpu:         0.6
 (Enter /opt/cluster/programs/g09/g09_d.01/g09/l302.exe)
 NPDir=0 NMtPBC=     1 NCelOv=     1 NCel=       1 NClECP=     1 NCelD=      1
         NCelK=      1 NCelE2=     1 NClLst=     1 CellRange=     0.0.
 One-electron integrals computed using PRISM.
   1 Symmetry operations used in ECPInt.
 ECPInt:  NShTT=    3321 NPrTT=    8136 LenC2=    3293 LenP2D=    7124.
 LDataN:  DoStor=T MaxTD1= 8 Len=  415
 NBasis=   261 RedAO= T EigKep=  8.37D-05  NBF=   261
 NBsUse=   261 1.00D-06 EigRej= -1.00D+00 NBFU=   261
 Precomputing XC quadrature grid using
 IXCGrd= 4 IRadAn=           0 IRanWt=          -1 IRanGd=           0 AccXCQ= 0.00D+00.
 Generated NRdTot=       0 NPtTot=           0 NUsed=           0 NTot=          32
 NSgBfM=   321   321   321   321   321 MxSgAt=     6 MxSgA2=     6.
 Leave Link  302 at Thu Aug 27 00:02:33 2020, MaxMem=  2097152000 cpu:         2.7
 (Enter /opt/cluster/programs/g09/g09_d.01/g09/l303.exe)
 DipDrv:  MaxL=1.
 Leave Link  303 at Thu Aug 27 00:02:33 2020, MaxMem=  2097152000 cpu:         0.3
 (Enter /opt/cluster/programs/g09/g09_d.01/g09/l401.exe)
 ExpMin= 7.60D-02 ExpMax= 9.07D+04 ExpMxC= 8.76D+02 IAcc=2 IRadAn=         4 AccDes= 0.00D+00
 Harris functional with IExCor=  419 and IRadAn=       4 diagonalized for initial guess.
 HarFok:  IExCor=  419 AccDes= 0.00D+00 IRadAn=         4 IDoV= 1 UseB2=F ITyADJ=14
 ICtDFT=  3500011 ScaDFX=  1.000000  1.000000  1.000000  1.000000
 FoFCou: FMM=F IPFlag=           0 FMFlag=      100000 FMFlg1=           0
         NFxFlg=           0 DoJE=T BraDBF=F KetDBF=T FulRan=T
         wScrn=  0.000000 ICntrl=     500 IOpCl=  0 I1Cent=   200000004 NGrid=           0
         NMat0=    1 NMatS0=      1 NMatT0=    0 NMatD0=    1 NMtDS0=    0 NMtDT0=    0
 Petite list used in FoFCou.
 Harris En= -132.847119609746    
 JPrj=0 DoOrth=F DoCkMO=F.
 Leave Link  401 at Thu Aug 27 00:02:34 2020, MaxMem=  2097152000 cpu:         4.7
 (Enter /opt/cluster/programs/g09/g09_d.01/g09/l502.exe)
 Closed shell SCF:
 Using DIIS extrapolation, IDIIS=  1040.
 Integral symmetry usage will be decided dynamically.
 Keep R1 ints in memory in canonical form, NReq=601554820.
 IVT=      332521 IEndB=      332521 NGot=  2097152000 MDV=  1512290144
 LenX=  1512290144 LenY=  1512186662
 Requested convergence on RMS density matrix=1.00D-08 within 128 cycles.
 Requested convergence on MAX density matrix=1.00D-06.
 Requested convergence on             energy=1.00D-06.
 No special actions if energy rises.
 FoFCou: FMM=F IPFlag=           0 FMFlag=           0 FMFlg1=           0
         NFxFlg=           0 DoJE=F BraDBF=F KetDBF=F FulRan=T
         wScrn=  0.000000 ICntrl=     600 IOpCl=  0 I1Cent=           0 NGrid=           0
         NMat0=    1 NMatS0=  34191 NMatT0=    0 NMatD0=    1 NMtDS0=    0 NMtDT0=    0
 Symmetry not used in FoFCou.
 Integral accuracy reduced to 1.0D-05 until final iterations.

 Cycle   1  Pass 0  IDiag  1:
 E= -132.422380880350    
 DIIS: error= 2.65D-02 at cycle   1 NSaved=   1.
 NSaved= 1 IEnMin= 1 EnMin= -132.422380880350     IErMin= 1 ErrMin= 2.65D-02
 ErrMax= 2.65D-02  0.00D+00 EMaxC= 1.00D-01 BMatC= 1.85D-01 BMatP= 1.85D-01
 IDIUse=3 WtCom= 7.35D-01 WtEn= 2.65D-01
 Coeff-Com:  0.100D+01
 Coeff-En:   0.100D+01
 Coeff:      0.100D+01
 Gap=     0.451 Goal=   None    Shift=    0.000
 GapD=    0.451 DampG=2.000 DampE=0.500 DampFc=1.0000 IDamp=-1.
 RMSDP=1.27D-03 MaxDP=6.58D-02              OVMax= 1.66D-01

 Cycle   2  Pass 0  IDiag  1:
 E= -132.452001366606     Delta-E=       -0.029620486256 Rises=F Damp=F
 DIIS: error= 3.15D-02 at cycle   2 NSaved=   2.
 NSaved= 2 IEnMin= 2 EnMin= -132.452001366606     IErMin= 1 ErrMin= 2.65D-02
 ErrMax= 3.15D-02  0.00D+00 EMaxC= 1.00D-01 BMatC= 9.49D-02 BMatP= 1.85D-01
 IDIUse=3 WtCom= 6.85D-01 WtEn= 3.15D-01
 Coeff-Com:  0.401D+00 0.599D+00
 Coeff-En:   0.407D+00 0.593D+00
 Coeff:      0.403D+00 0.597D+00
 Gap=     0.431 Goal=   None    Shift=    0.000
 RMSDP=8.50D-04 MaxDP=3.43D-02 DE=-2.96D-02 OVMax= 1.24D-01

 Cycle   3  Pass 0  IDiag  1:
 E= -132.516246322410     Delta-E=       -0.064244955804 Rises=F Damp=F
 DIIS: error= 1.52D-02 at cycle   3 NSaved=   3.
 NSaved= 3 IEnMin= 3 EnMin= -132.516246322410     IErMin= 3 ErrMin= 1.52D-02
 ErrMax= 1.52D-02  0.00D+00 EMaxC= 1.00D-01 BMatC= 2.01D-02 BMatP= 9.49D-02
 IDIUse=3 WtCom= 8.48D-01 WtEn= 1.52D-01
 Coeff-Com:  0.957D-01 0.325D+00 0.579D+00
 Coeff-En:   0.000D+00 0.132D+00 0.868D+00
 Coeff:      0.811D-01 0.296D+00 0.623D+00
 Gap=     0.424 Goal=   None    Shift=    0.000
 RMSDP=2.72D-04 MaxDP=9.82D-03 DE=-6.42D-02 OVMax= 6.00D-02

 Cycle   4  Pass 0  IDiag  1:
 E= -132.530026587552     Delta-E=       -0.013780265142 Rises=F Damp=F
 DIIS: error= 5.64D-03 at cycle   4 NSaved=   4.
 NSaved= 4 IEnMin= 4 EnMin= -132.530026587552     IErMin= 4 ErrMin= 5.64D-03
 ErrMax= 5.64D-03  0.00D+00 EMaxC= 1.00D-01 BMatC= 3.17D-03 BMatP= 2.01D-02
 IDIUse=3 WtCom= 9.44D-01 WtEn= 5.64D-02
 Coeff-Com: -0.127D-01 0.546D-01 0.332D+00 0.626D+00
 Coeff-En:   0.000D+00 0.000D+00 0.150D+00 0.850D+00
 Coeff:     -0.120D-01 0.516D-01 0.322D+00 0.639D+00
 Gap=     0.424 Goal=   None    Shift=    0.000
 RMSDP=9.30D-05 MaxDP=2.86D-03 DE=-1.38D-02 OVMax= 1.61D-02

 Cycle   5  Pass 0  IDiag  1:
 E= -132.532777708763     Delta-E=       -0.002751121211 Rises=F Damp=F
 DIIS: error= 3.30D-04 at cycle   5 NSaved=   5.
 NSaved= 5 IEnMin= 5 EnMin= -132.532777708763     IErMin= 5 ErrMin= 3.30D-04
 ErrMax= 3.30D-04  0.00D+00 EMaxC= 1.00D-01 BMatC= 1.47D-05 BMatP= 3.17D-03
 IDIUse=3 WtCom= 9.97D-01 WtEn= 3.30D-03
 Coeff-Com: -0.349D-02 0.539D-02 0.477D-01 0.140D+00 0.811D+00
 Coeff-En:   0.000D+00 0.000D+00 0.000D+00 0.000D+00 0.100D+01
 Coeff:     -0.348D-02 0.538D-02 0.475D-01 0.139D+00 0.811D+00
 Gap=     0.423 Goal=   None    Shift=    0.000
 RMSDP=8.52D-06 MaxDP=3.11D-04 DE=-2.75D-03 OVMax= 1.26D-03

 Initial convergence to 1.0D-05 achieved.  Increase integral accuracy.
 Cycle   6  Pass 1  IDiag  1:
 E= -132.532788787451     Delta-E=       -0.000011078688 Rises=F Damp=F
 DIIS: error= 8.77D-05 at cycle   1 NSaved=   1.
 NSaved= 1 IEnMin= 1 EnMin= -132.532788787451     IErMin= 1 ErrMin= 8.77D-05
 ErrMax= 8.77D-05  0.00D+00 EMaxC= 1.00D-01 BMatC= 6.66D-07 BMatP= 6.66D-07
 IDIUse=1 WtCom= 1.00D+00 WtEn= 0.00D+00
 Coeff-Com:  0.100D+01
 Coeff:      0.100D+01
 Gap=     0.424 Goal=   None    Shift=    0.000
 RMSDP=8.52D-06 MaxDP=3.11D-04 DE=-1.11D-05 OVMax= 4.16D-04

 Cycle   7  Pass 1  IDiag  1:
 E= -132.532789182759     Delta-E=       -0.000000395307 Rises=F Damp=F
 DIIS: error= 4.77D-05 at cycle   2 NSaved=   2.
 NSaved= 2 IEnMin= 2 EnMin= -132.532789182759     IErMin= 2 ErrMin= 4.77D-05
 ErrMax= 4.77D-05  0.00D+00 EMaxC= 1.00D-01 BMatC= 3.08D-07 BMatP= 6.66D-07
 IDIUse=1 WtCom= 1.00D+00 WtEn= 0.00D+00
 Coeff-Com:  0.396D+00 0.604D+00
 Coeff:      0.396D+00 0.604D+00
 Gap=     0.424 Goal=   None    Shift=    0.000
 RMSDP=1.05D-06 MaxDP=3.89D-05 DE=-3.95D-07 OVMax= 1.82D-04

 Cycle   8  Pass 1  IDiag  1:
 E= -132.532789449347     Delta-E=       -0.000000266588 Rises=F Damp=F
 DIIS: error= 1.54D-05 at cycle   3 NSaved=   3.
 NSaved= 3 IEnMin= 3 EnMin= -132.532789449347     IErMin= 3 ErrMin= 1.54D-05
 ErrMax= 1.54D-05  0.00D+00 EMaxC= 1.00D-01 BMatC= 2.40D-08 BMatP= 3.08D-07
 IDIUse=1 WtCom= 1.00D+00 WtEn= 0.00D+00
 Coeff-Com:  0.118D+00 0.258D+00 0.624D+00
 Coeff:      0.118D+00 0.258D+00 0.624D+00
 Gap=     0.424 Goal=   None    Shift=    0.000
 RMSDP=5.72D-07 MaxDP=2.56D-05 DE=-2.67D-07 OVMax= 6.26D-05

 Cycle   9  Pass 1  IDiag  1:
 E= -132.532789464368     Delta-E=       -0.000000015021 Rises=F Damp=F
 DIIS: error= 1.12D-05 at cycle   4 NSaved=   4.
 NSaved= 4 IEnMin= 4 EnMin= -132.532789464368     IErMin= 4 ErrMin= 1.12D-05
 ErrMax= 1.12D-05  0.00D+00 EMaxC= 1.00D-01 BMatC= 7.05D-09 BMatP= 2.40D-08
 IDIUse=1 WtCom= 1.00D+00 WtEn= 0.00D+00
 Coeff-Com: -0.597D-01-0.358D-01 0.378D+00 0.717D+00
 Coeff:     -0.597D-01-0.358D-01 0.378D+00 0.717D+00
 Gap=     0.424 Goal=   None    Shift=    0.000
 RMSDP=3.03D-07 MaxDP=1.40D-05 DE=-1.50D-08 OVMax= 3.54D-05

 Cycle  10  Pass 1  IDiag  1:
 E= -132.532789471111     Delta-E=       -0.000000006744 Rises=F Damp=F
 DIIS: error= 1.00D-06 at cycle   5 NSaved=   5.
 NSaved= 5 IEnMin= 5 EnMin= -132.532789471111     IErMin= 5 ErrMin= 1.00D-06
 ErrMax= 1.00D-06  0.00D+00 EMaxC= 1.00D-01 BMatC= 1.04D-10 BMatP= 7.05D-09
 IDIUse=1 WtCom= 1.00D+00 WtEn= 0.00D+00
 Coeff-Com: -0.223D-01-0.206D-01 0.805D-01 0.217D+00 0.746D+00
 Coeff:     -0.223D-01-0.206D-01 0.805D-01 0.217D+00 0.746D+00
 Gap=     0.424 Goal=   None    Shift=    0.000
 RMSDP=4.40D-08 MaxDP=2.10D-06 DE=-6.74D-09 OVMax= 3.44D-06

 Cycle  11  Pass 1  IDiag  1:
 E= -132.532789471204     Delta-E=       -0.000000000092 Rises=F Damp=F
 DIIS: error= 2.03D-07 at cycle   6 NSaved=   6.
 NSaved= 6 IEnMin= 6 EnMin= -132.532789471204     IErMin= 6 ErrMin= 2.03D-07
 ErrMax= 2.03D-07  0.00D+00 EMaxC= 1.00D-01 BMatC= 5.55D-12 BMatP= 1.04D-10
 IDIUse=1 WtCom= 1.00D+00 WtEn= 0.00D+00
 Coeff-Com:  0.239D-02 0.410D-03-0.275D-01-0.258D-01 0.119D+00 0.932D+00
 Coeff:      0.239D-02 0.410D-03-0.275D-01-0.258D-01 0.119D+00 0.932D+00
 Gap=     0.424 Goal=   None    Shift=    0.000
 RMSDP=1.03D-08 MaxDP=4.18D-07 DE=-9.24D-11 OVMax= 1.07D-06

 Cycle  12  Pass 1  IDiag  1:
 E= -132.532789471212     Delta-E=       -0.000000000009 Rises=F Damp=F
 DIIS: error= 5.85D-08 at cycle   7 NSaved=   7.
 NSaved= 7 IEnMin= 7 EnMin= -132.532789471212     IErMin= 7 ErrMin= 5.85D-08
 ErrMax= 5.85D-08  0.00D+00 EMaxC= 1.00D-01 BMatC= 1.78D-13 BMatP= 5.55D-12
 IDIUse=1 WtCom= 1.00D+00 WtEn= 0.00D+00
 Coeff-Com:  0.532D-03 0.683D-03-0.503D-03-0.268D-02-0.343D-01-0.891D-01
 Coeff-Com:  0.113D+01
 Coeff:      0.532D-03 0.683D-03-0.503D-03-0.268D-02-0.343D-01-0.891D-01
 Coeff:      0.113D+01
 Gap=     0.424 Goal=   None    Shift=    0.000
 RMSDP=2.22D-09 MaxDP=7.12D-08 DE=-8.64D-12 OVMax= 4.49D-07

 SCF Done:  E(RB2PLYPD3) =  -132.532789471     A.U. after   12 cycles
            NFock= 12  Conv=0.22D-08     -V/T= 2.0042
 KE= 1.319753990718D+02 PE=-4.251479518957D+02 EE= 1.023375674054D+02
 Leave Link  502 at Thu Aug 27 00:03:14 2020, MaxMem=  2097152000 cpu:       210.5
 (Enter /opt/cluster/programs/g09/g09_d.01/g09/l801.exe)
 DoSCS=T DFT=T ScalE2(SS,OS)=  0.270000  0.270000
 ExpMin= 7.60D-02 ExpMax= 9.07D+04 ExpMxC= 8.76D+02 IAcc=3 IRadAn=         5 AccDes= 0.00D+00
 HarFok:  IExCor=  205 AccDes= 0.00D+00 IRadAn=         5 IDoV=-2 UseB2=F ITyADJ=14
 ICtDFT= 12500011 ScaDFX=  1.000000  1.000000  1.000000  1.000000
 Largest valence mixing into a core orbital is  1.17D-04
 Largest core mixing into a valence orbital is  1.97D-05
 Range of M.O.s used for correlation:     4   261
 NBasis=   261 NAE=    11 NBE=    11 NFC=     3 NFV=     0
 NROrb=    258 NOA=     8 NOB=     8 NVA=   250 NVB=   250

 **** Warning!!: The largest alpha MO coefficient is  0.28874358D+02

 Leave Link  801 at Thu Aug 27 00:03:15 2020, MaxMem=  2097152000 cpu:         0.7
 (Enter /opt/cluster/programs/g09/g09_d.01/g09/l906.exe)
 DoSCS=T DFT=T ScalE2(SS,OS)=  0.270000  0.270000
 FulOut=F Deriv=F AODrv=F NAtomX=     6
   MMem=        2666  MDisk=           8 MDiskD=           8
  W3Min=      642000 MinDsk=     1426009 NBas6D=         321
 NBas2D=       52689    NTT=       51681    LW2=     4508827
    MDV=  2096809541 MDiskM=       14501 NBas2p=       52125
 Fully direct method using O(OVN) memory.
 IMap=   1   2   3   4   5   6   7   8
 JobTyp=1 Pass  1:  I=   1 to   8 NPSUse=  8 ParTrn=T ParDer=T DoDerP=F.
 Spin components of T(2) and E(2):
     alpha-alpha T2 =       0.3629519855D-01 E2=     -0.2154606253D-01
     alpha-beta  T2 =       0.2118846544D+00 E2=     -0.1382384767D+00
     beta-beta   T2 =       0.3629519855D-01 E2=     -0.2154606253D-01
 The integrals were generated   1 times.
 E2(B2PLYPD3) =    -0.1813306018D+00 E(B2PLYPD3) =    -0.13271412007298D+03
 Leave Link  906 at Thu Aug 27 00:03:29 2020, MaxMem=  2097152000 cpu:       113.2
 (Enter /opt/cluster/programs/g09/g09_d.01/g09/l601.exe)
 Copying SCF densities to generalized density rwf, IOpCl= 0 IROHF=0.

 **********************************************************************

            Population analysis using the SCF density.

 **********************************************************************

 Orbital symmetries:
       Occupied  (A) (A) (A) (A) (A) (A) (A) (A) (A) (A) (A)
       Virtual   (A) (A) (A) (A) (A) (A) (A) (A) (A) (A) (A) (A)
                 (A) (A) (A) (A) (A) (A) (A) (A) (A) (A) (A) (A)
                 (A) (A) (A) (A) (A) (A) (A) (A) (A) (A) (A) (A)
                 (A) (A) (A) (A) (A) (A) (A) (A) (A) (A) (A) (A)
                 (A) (A) (A) (A) (A) (A) (A) (A) (A) (A) (A) (A)
                 (A) (A) (A) (A) (A) (A) (A) (A) (A) (A) (A) (A)
                 (A) (A) (A) (A) (A) (A) (A) (A) (A) (A) (A) (A)
                 (A) (A) (A) (A) (A) (A) (A) (A) (A) (A) (A) (A)
                 (A) (A) (A) (A) (A) (A) (A) (A) (A) (A) (A) (A)
                 (A) (A) (A) (A) (A) (A) (A) (A) (A) (A) (A) (A)
                 (A) (A) (A) (A) (A) (A) (A) (A) (A) (A) (A) (A)
                 (A) (A) (A) (A) (A) (A) (A) (A) (A) (A) (A) (A)
                 (A) (A) (A) (A) (A) (A) (A) (A) (A) (A) (A) (A)
                 (A) (A) (A) (A) (A) (A) (A) (A) (A) (A) (A) (A)
                 (A) (A) (A) (A) (A) (A) (A) (A) (A) (A) (A) (A)
                 (A) (A) (A) (A) (A) (A) (A) (A) (A) (A) (A) (A)
                 (A) (A) (A) (A) (A) (A) (A) (A) (A) (A) (A) (A)
                 (A) (A) (A) (A) (A) (A) (A) (A) (A) (A) (A) (A)
                 (A) (A) (A) (A) (A) (A) (A) (A) (A) (A) (A) (A)
                 (A) (A) (A) (A) (A) (A) (A) (A) (A) (A) (A) (A)
                 (A) (A) (A) (A) (A) (A) (A) (A) (A) (A)
 The electronic state is 1-A.
 Alpha  occ. eigenvalues --  -14.84441 -10.67428 -10.66512  -1.03832  -0.89085
 Alpha  occ. eigenvalues --   -0.59845  -0.54675  -0.52622  -0.44846  -0.38958
 Alpha  occ. eigenvalues --   -0.38723
 Alpha virt. eigenvalues --    0.03665   0.07255   0.07951   0.10133   0.11214
 Alpha virt. eigenvalues --    0.11626   0.15336   0.16180   0.16544   0.20043
 Alpha virt. eigenvalues --    0.20201   0.25403   0.32536   0.33983   0.34917
 Alpha virt. eigenvalues --    0.38603   0.39647   0.40008   0.40252   0.47182
 Alpha virt. eigenvalues --    0.50127   0.51898   0.58337   0.59952   0.61440
 Alpha virt. eigenvalues --    0.66754   0.67842   0.69393   0.69980   0.79154
 Alpha virt. eigenvalues --    0.79552   0.81967   0.82497   0.83476   0.86430
 Alpha virt. eigenvalues --    0.91698   0.93826   0.95122   0.96188   0.97460
 Alpha virt. eigenvalues --    1.05445   1.06523   1.09202   1.11653   1.12972
 Alpha virt. eigenvalues --    1.14000   1.21817   1.22701   1.23704   1.34938
 Alpha virt. eigenvalues --    1.35023   1.44124   1.46213   1.48836   1.54074
 Alpha virt. eigenvalues --    1.65305   1.66326   1.70421   1.74189   1.78059
 Alpha virt. eigenvalues --    1.78397   1.78953   1.89531   1.91347   1.91952
 Alpha virt. eigenvalues --    1.94416   1.99098   1.99653   2.01088   2.04492
 Alpha virt. eigenvalues --    2.05753   2.11339   2.15336   2.18549   2.21311
 Alpha virt. eigenvalues --    2.22410   2.24417   2.25746   2.33966   2.35402
 Alpha virt. eigenvalues --    2.42734   2.49914   2.51713   2.55859   2.58661
 Alpha virt. eigenvalues --    2.60820   2.66502   2.69436   2.71443   2.72660
 Alpha virt. eigenvalues --    2.76042   2.77271   2.85978   2.88172   2.89588
 Alpha virt. eigenvalues --    2.91245   2.93761   2.95572   2.96795   3.06128
 Alpha virt. eigenvalues --    3.08117   3.12126   3.21035   3.25834   3.31859
 Alpha virt. eigenvalues --    3.33601   3.36971   3.38169   3.39970   3.47200
 Alpha virt. eigenvalues --    3.52418   3.56815   3.70751   3.72622   3.74663
 Alpha virt. eigenvalues --    3.86352   3.88783   3.91857   3.94459   3.97936
 Alpha virt. eigenvalues --    4.00056   4.05046   4.06001   4.24749   4.25183
 Alpha virt. eigenvalues --    4.55115   4.90983   4.91168   5.06991   5.08669
 Alpha virt. eigenvalues --    5.11064   5.16097   5.17077   5.19961   5.22659
 Alpha virt. eigenvalues --    5.32136   5.44266   5.45794   5.47621   5.64532
 Alpha virt. eigenvalues --    5.65471   5.84283   5.85217   5.91506   5.91731
 Alpha virt. eigenvalues --    5.94422   5.96198   5.97803   5.99926   6.00398
 Alpha virt. eigenvalues --    6.03086   6.04304   6.06212   6.07381   6.12959
 Alpha virt. eigenvalues --    6.17373   6.18937   6.19169   6.27068   6.30972
 Alpha virt. eigenvalues --    6.39468   6.41022   6.48176   6.57463   6.58936
 Alpha virt. eigenvalues --    6.60242   6.62293   6.85623   6.89553   6.92779
 Alpha virt. eigenvalues --    6.95871   7.02496   7.02516   7.07926   7.11460
 Alpha virt. eigenvalues --    7.12715   7.15195   7.21937   7.40755   7.46532
 Alpha virt. eigenvalues --    7.47975   7.50300   7.54956   7.56687   7.58979
 Alpha virt. eigenvalues --    7.66624   7.72383   7.74757   7.81785   7.82284
 Alpha virt. eigenvalues --    7.88272   7.92870   7.94853   7.98879   8.23960
 Alpha virt. eigenvalues --    8.25575   8.36507   8.39536   8.41379   8.44444
 Alpha virt. eigenvalues --    8.45311   8.47939   8.50085   8.53206   8.58043
 Alpha virt. eigenvalues --    8.59937   8.62806   8.64406   8.66555   8.66626
 Alpha virt. eigenvalues --    8.70020   8.79907   8.83505   8.88432   8.98404
 Alpha virt. eigenvalues --    9.00187   9.04600   9.11604   9.15075   9.18012
 Alpha virt. eigenvalues --    9.23398   9.26242   9.67524   9.71737   9.74004
 Alpha virt. eigenvalues --    9.78909   9.86257   9.91566   9.96124  10.04779
 Alpha virt. eigenvalues --   10.13131  10.14640  10.15316  10.31720  10.36390
 Alpha virt. eigenvalues --   10.44383  10.59526  11.36933  11.76898  11.84144
 Alpha virt. eigenvalues --   11.99071  12.05573  13.08581  13.44571  29.15354
 Alpha virt. eigenvalues --   29.55009  38.29730 148.80144 149.17616 198.21192
          Condensed to atoms (all electrons):
               1          2          3          4          5          6
     1  C    4.613400   0.297460  -0.059454   0.412682   0.412005   0.408660
     2  C    0.297460   4.848318   0.982765  -0.048372  -0.040556  -0.040461
     3  N   -0.059454   0.982765   6.288561  -0.000220  -0.001098  -0.001222
     4  H    0.412682  -0.048372  -0.000220   0.589214  -0.028083  -0.027524
     5  H    0.412005  -0.040556  -0.001098  -0.028083   0.592918  -0.033150
     6  H    0.408660  -0.040461  -0.001222  -0.027524  -0.033150   0.600730
 Mulliken charges:
               1
     1  C   -0.084752
     2  C    0.000847
     3  N   -0.209331
     4  H    0.102304
     5  H    0.097964
     6  H    0.092968
 Sum of Mulliken charges =   0.00000
 Mulliken charges with hydrogens summed into heavy atoms:
               1
     1  C    0.208484
     2  C    0.000847
     3  N   -0.209331
 Electronic spatial extent (au):  <R**2>=            162.5930
 Charge=              0.0000 electrons
 Dipole moment (field-independent basis, Debye):
    X=             -4.1355    Y=              0.0042    Z=              0.0022  Tot=              4.1355
 Quadrupole moment (field-independent basis, Debye-Ang):
   XX=            -21.0078   YY=            -17.6635   ZZ=            -17.9330
   XY=              0.1921   XZ=             -0.0105   YZ=             -0.0432
 Traceless Quadrupole moment (field-independent basis, Debye-Ang):
   XX=             -2.1397   YY=              1.2046   ZZ=              0.9351
   XY=              0.1921   XZ=             -0.0105   YZ=             -0.0432
 Octapole moment (field-independent basis, Debye-Ang**2):
  XXX=            -12.8606  YYY=              0.7985  ZZZ=              0.2285  XYY=             -2.4041
  XXY=             -0.4044  XXZ=              0.0530  XZZ=             -2.0950  YZZ=             -0.7939
  YYZ=             -0.1677  XYZ=              0.0479
 Hexadecapole moment (field-independent basis, Debye-Ang**3):
 XXXX=           -183.1608 YYYY=            -24.8739 ZZZZ=            -25.0848 XXXY=              1.0748
 XXXZ=             -0.1802 YYYX=             -1.2533 YYYZ=             -0.1137 ZZZX=             -0.3493
 ZZZY=             -0.0713 XXYY=            -31.1736 XXZZ=            -31.4244 YYZZ=             -8.2540
 XXYZ=             -0.0807 YYXZ=              0.2959 ZZXY=              1.3804
 N-N= 5.830219594737D+01 E-N=-4.251479526398D+02  KE= 1.319753990718D+02
 Leave Link  601 at Thu Aug 27 00:03:30 2020, MaxMem=  2097152000 cpu:         0.4
 (Enter /opt/cluster/programs/g09/g09_d.01/g09/l9999.exe)
 1\1\GINC-NODE07\SP\RB2PLYPD3-FC\def2QZVP\C2H3N1\BOITTIER\27-Aug-2020\0
 \\#p B2PLYPD3/Def2QZVP\\cyanomethane\\0,1\C,0,-6.597188,-1.118822,1.16
 6315\C,0,-5.201016,-0.789634,0.9259\N,0,-4.090955,-0.537935,0.690686\H
 ,0,-6.72528,-1.202788,2.236582\H,0,-6.904416,-2.023105,0.644046\H,0,-7
 .282295,-0.320052,0.757844\\Version=ES64L-G09RevD.01\State=1-A\HF=-132
 .5327895\MP2=-132.7141201\RMSD=2.216e-09\PG=C01 [X(C2H3N1)]\\@


 AND THIS OUR LIFE, EXEMPT FROM PUBLIC HAUNT,
 FINDS TONGUES IN TREES, BOOKS IN THE RUNNING BROOKS,
 SERMONS IN STONES, AND GOOD IN EVERYTHING.
 I WOULD NOT CHANGE IT. -- W. SHAKESPEARE
 AS YOU LIKE IT, ACT II, SCENE 1.
 Job cpu time:       0 days  0 hours  5 minutes 37.7 seconds.
 File lengths (MBytes):  RWF=     28 Int=      0 D2E=      0 Chk=      5 Scr=      1
 Normal termination of Gaussian 09 at Thu Aug 27 00:03:32 2020.
