 Entering Gaussian System, Link 0=/opt/cluster/programs/g09/g09_d.01/g09//g09
 Input=/home/boittier/MDCM/big_basis_set/acrolein/acrolein_opt_freq.com
 Output=/scratch/boittier/acrolein_opt_freq/acrolein_opt_freq.out
 Initial command:
 /opt/cluster/programs/g09/g09_d.01/g09/l1.exe "/scratch/boittier/acrolein_opt_freq/Gau-182979.inp" -scrdir="/scratch/boittier/acrolein_opt_freq/"
 Entering Link 1 = /opt/cluster/programs/g09/g09_d.01/g09/l1.exe PID=    182980.
  
 Copyright (c) 1988,1990,1992,1993,1995,1998,2003,2009,2013,
            Gaussian, Inc.  All Rights Reserved.
  
 This is part of the Gaussian(R) 09 program.  It is based on
 the Gaussian(R) 03 system (copyright 2003, Gaussian, Inc.),
 the Gaussian(R) 98 system (copyright 1998, Gaussian, Inc.),
 the Gaussian(R) 94 system (copyright 1995, Gaussian, Inc.),
 the Gaussian 92(TM) system (copyright 1992, Gaussian, Inc.),
 the Gaussian 90(TM) system (copyright 1990, Gaussian, Inc.),
 the Gaussian 88(TM) system (copyright 1988, Gaussian, Inc.),
 the Gaussian 86(TM) system (copyright 1986, Carnegie Mellon
 University), and the Gaussian 82(TM) system (copyright 1983,
 Carnegie Mellon University). Gaussian is a federally registered
 trademark of Gaussian, Inc.
  
 This software contains proprietary and confidential information,
 including trade secrets, belonging to Gaussian, Inc.
  
 This software is provided under written license and may be
 used, copied, transmitted, or stored only in accord with that
 written license.
  
 The following legend is applicable only to US Government
 contracts under FAR:
  
                    RESTRICTED RIGHTS LEGEND
  
 Use, reproduction and disclosure by the US Government is
 subject to restrictions as set forth in subparagraphs (a)
 and (c) of the Commercial Computer Software - Restricted
 Rights clause in FAR 52.227-19.
  
 Gaussian, Inc.
 340 Quinnipiac St., Bldg. 40, Wallingford CT 06492
  
  
 ---------------------------------------------------------------
 Warning -- This program may not be used in any manner that
 competes with the business of Gaussian, Inc. or will provide
 assistance to any competitor of Gaussian, Inc.  The licensee
 of this program is prohibited from giving any competitor of
 Gaussian, Inc. access to this program.  By using this program,
 the user acknowledges that Gaussian, Inc. is engaged in the
 business of creating and licensing software in the field of
 computational chemistry and represents and warrants to the
 licensee that it is not a competitor of Gaussian, Inc. and that
 it will not use this program in any manner prohibited above.
 ---------------------------------------------------------------
  

 Cite this work as:
 Gaussian 09, Revision D.01,
 M. J. Frisch, G. W. Trucks, H. B. Schlegel, G. E. Scuseria, 
 M. A. Robb, J. R. Cheeseman, G. Scalmani, V. Barone, B. Mennucci, 
 G. A. Petersson, H. Nakatsuji, M. Caricato, X. Li, H. P. Hratchian, 
 A. F. Izmaylov, J. Bloino, G. Zheng, J. L. Sonnenberg, M. Hada, 
 M. Ehara, K. Toyota, R. Fukuda, J. Hasegawa, M. Ishida, T. Nakajima, 
 Y. Honda, O. Kitao, H. Nakai, T. Vreven, J. A. Montgomery, Jr., 
 J. E. Peralta, F. Ogliaro, M. Bearpark, J. J. Heyd, E. Brothers, 
 K. N. Kudin, V. N. Staroverov, T. Keith, R. Kobayashi, J. Normand, 
 K. Raghavachari, A. Rendell, J. C. Burant, S. S. Iyengar, J. Tomasi, 
 M. Cossi, N. Rega, J. M. Millam, M. Klene, J. E. Knox, J. B. Cross, 
 V. Bakken, C. Adamo, J. Jaramillo, R. Gomperts, R. E. Stratmann, 
 O. Yazyev, A. J. Austin, R. Cammi, C. Pomelli, J. W. Ochterski, 
 R. L. Martin, K. Morokuma, V. G. Zakrzewski, G. A. Voth, 
 P. Salvador, J. J. Dannenberg, S. Dapprich, A. D. Daniels, 
 O. Farkas, J. B. Foresman, J. V. Ortiz, J. Cioslowski, 
 and D. J. Fox, Gaussian, Inc., Wallingford CT, 2013.
 
 ******************************************
 Gaussian 09:  ES64L-G09RevD.01 24-Apr-2013
                20-Aug-2020 
 ******************************************
 %chk=acrolein_opt.chk
 %nproc=8
 Will use up to    8 processors via shared memory.
 %mem=16GB
 -------------------------------------
 #p B2PLYPD3/Def2QZVP opt freq=NoRaman
 -------------------------------------
 1/18=20,19=15,38=1/1,3;
 2/9=110,12=2,17=6,18=5,40=1/2;
 3/5=45,7=101,11=9,16=1,25=1,30=1,71=1,74=-60/1,2,3;
 4//1;
 5/5=2,38=5/2;
 8/6=4,10=1/1;
 9/15=2,16=-3/6;
 10/5=1/2;
 6/7=2,8=2,9=2,10=2/1;
 7/12=2/1,2,3,16;
 1/18=20,19=15/3(2);
 2/9=110/2;
 99//99;
 2/9=110/2;
 3/5=45,7=101,11=9,16=1,25=1,30=1,71=1,74=-60/1,2,3;
 4/5=5,16=3,69=1/1;
 5/5=2,38=5/2;
 8/6=4,10=1/1;
 9/15=2,16=-3/6;
 10/5=1/2;
 7/12=2/1,2,3,16;
 1/18=20,19=15/3(-8);
 2/9=110/2;
 6/7=2,8=2,9=2,10=2/1;
 99//99;
 Leave Link    1 at Thu Aug 20 12:33:32 2020, MaxMem=  2147483648 cpu:         0.8
 (Enter /opt/cluster/programs/g09/g09_d.01/g09/l101.exe)
 ------------
 acrolein_opt
 ------------
 Symbolic Z-matrix:
 Charge =  0 Multiplicity = 1
 C                    -5.01401  -1.36892   0.89287 
 O                    -3.90623  -0.90292   0.65876 
 C                    -5.20148  -2.81095   1.14619 
 C                    -6.41592  -3.30951   1.40097 
 H                    -4.31151  -3.4284    1.11354 
 H                    -7.30688  -2.69021   1.43347 
 H                    -6.54262  -4.37225   1.58598 
 H                    -5.92127  -0.7433    0.92671 
 
 NAtoms=      8 NQM=        8 NQMF=       0 NMMI=      0 NMMIF=      0
                NMic=       0 NMicF=      0.
                    Isotopes and Nuclear Properties:
 (Nuclear quadrupole moments (NQMom) in fm**2, nuclear magnetic moments (NMagM)
  in nuclear magnetons)

  Atom         1           2           3           4           5           6           7           8
 IAtWgt=          12          16          12          12           1           1           1           1
 AtmWgt=  12.0000000  15.9949146  12.0000000  12.0000000   1.0078250   1.0078250   1.0078250   1.0078250
 NucSpn=           0           0           0           0           1           1           1           1
 AtZEff=   0.0000000   0.0000000   0.0000000   0.0000000   0.0000000   0.0000000   0.0000000   0.0000000
 NQMom=    0.0000000   0.0000000   0.0000000   0.0000000   0.0000000   0.0000000   0.0000000   0.0000000
 NMagM=    0.0000000   0.0000000   0.0000000   0.0000000   2.7928460   2.7928460   2.7928460   2.7928460
 AtZNuc=   6.0000000   8.0000000   6.0000000   6.0000000   1.0000000   1.0000000   1.0000000   1.0000000
 Leave Link  101 at Thu Aug 20 12:33:32 2020, MaxMem=  2147483648 cpu:         2.6
 (Enter /opt/cluster/programs/g09/g09_d.01/g09/l103.exe)

 GradGradGradGradGradGradGradGradGradGradGradGradGradGradGradGradGradGrad
 Berny optimization.
 Initialization pass.
                           ----------------------------
                           !    Initial Parameters    !
                           ! (Angstroms and Degrees)  !
 --------------------------                            --------------------------
 ! Name  Definition              Value          Derivative Info.                !
 --------------------------------------------------------------------------------
 ! R1    R(1,2)                  1.2244         estimate D2E/DX2                !
 ! R2    R(1,3)                  1.4761         estimate D2E/DX2                !
 ! R3    R(1,8)                  1.1026         estimate D2E/DX2                !
 ! R4    R(3,4)                  1.3373         estimate D2E/DX2                !
 ! R5    R(3,5)                  1.0837         estimate D2E/DX2                !
 ! R6    R(4,6)                  1.0855         estimate D2E/DX2                !
 ! R7    R(4,7)                  1.0861         estimate D2E/DX2                !
 ! A1    A(2,1,3)              121.3018         estimate D2E/DX2                !
 ! A2    A(2,1,8)              122.3031         estimate D2E/DX2                !
 ! A3    A(3,1,8)              116.3952         estimate D2E/DX2                !
 ! A4    A(1,3,4)              120.8141         estimate D2E/DX2                !
 ! A5    A(1,3,5)              116.5616         estimate D2E/DX2                !
 ! A6    A(4,3,5)              122.6243         estimate D2E/DX2                !
 ! A7    A(3,4,6)              122.5727         estimate D2E/DX2                !
 ! A8    A(3,4,7)              120.21           estimate D2E/DX2                !
 ! A9    A(6,4,7)              117.2173         estimate D2E/DX2                !
 ! D1    D(2,1,3,4)            179.9971         estimate D2E/DX2                !
 ! D2    D(2,1,3,5)             -0.0033         estimate D2E/DX2                !
 ! D3    D(8,1,3,4)             -0.0021         estimate D2E/DX2                !
 ! D4    D(8,1,3,5)            179.9975         estimate D2E/DX2                !
 ! D5    D(1,3,4,6)             -0.0002         estimate D2E/DX2                !
 ! D6    D(1,3,4,7)            179.9992         estimate D2E/DX2                !
 ! D7    D(5,3,4,6)           -179.9998         estimate D2E/DX2                !
 ! D8    D(5,3,4,7)             -0.0004         estimate D2E/DX2                !
 --------------------------------------------------------------------------------
 Trust Radius=3.00D-01 FncErr=1.00D-07 GrdErr=1.00D-07
 Number of steps in this run=     34 maximum allowed number of steps=    100.
 GradGradGradGradGradGradGradGradGradGradGradGradGradGradGradGradGradGrad

 Leave Link  103 at Thu Aug 20 12:33:33 2020, MaxMem=  2147483648 cpu:         0.1
 (Enter /opt/cluster/programs/g09/g09_d.01/g09/l202.exe)
                          Input orientation:                          
 ---------------------------------------------------------------------
 Center     Atomic      Atomic             Coordinates (Angstroms)
 Number     Number       Type             X           Y           Z
 ---------------------------------------------------------------------
      1          6           0       -5.014010   -1.368920    0.892870
      2          8           0       -3.906230   -0.902920    0.658760
      3          6           0       -5.201480   -2.810950    1.146190
      4          6           0       -6.415920   -3.309510    1.400970
      5          1           0       -4.311510   -3.428400    1.113540
      6          1           0       -7.306880   -2.690210    1.433470
      7          1           0       -6.542620   -4.372250    1.585980
      8          1           0       -5.921270   -0.743300    0.926710
 ---------------------------------------------------------------------
                    Distance matrix (angstroms):
                    1          2          3          4          5
     1  C    0.000000
     2  O    1.224394   0.000000
     3  C    1.476065   2.357083   0.000000
     4  C    2.447326   3.555432   1.337288   0.000000
     5  H    2.187158   2.597908   1.083678   2.127273   0.000000
     6  H    2.700983   3.919056   2.128337   1.085541   3.101535
     7  H    3.440500   4.454946   2.104692   1.086139   2.468178
     8  H    1.102573   2.039035   2.200329   2.656132   3.136239
                    6          7          8
     6  H    0.000000
     7  H    1.853810   0.000000
     8  H    2.442781   3.740320   0.000000
 Stoichiometry    C3H4O
 Framework group  C1[X(C3H4O)]
 Deg. of freedom    18
 Full point group                 C1      NOp   1
 Largest Abelian subgroup         C1      NOp   1
 Largest concise Abelian subgroup C1      NOp   1
                         Standard orientation:                         
 ---------------------------------------------------------------------
 Center     Atomic      Atomic             Coordinates (Angstroms)
 Number     Number       Type             X           Y           Z
 ---------------------------------------------------------------------
      1          6           0       -0.674405    0.378178    0.000017
      2          8           0       -1.784304   -0.138797   -0.000016
      3          6           0        0.553287   -0.441296    0.000010
      4          6           0        1.760674    0.133644   -0.000012
      5          1           0        0.418195   -1.516521    0.000030
      6          1           0        1.895028    1.210838   -0.000028
      7          1           0        2.657645   -0.478845   -0.000003
      8          1           0       -0.533779    1.471746    0.000039
 ---------------------------------------------------------------------
 Rotational constants (GHZ):     46.9001532      4.6745702      4.2508819
 Leave Link  202 at Thu Aug 20 12:33:34 2020, MaxMem=  2147483648 cpu:         0.0
 (Enter /opt/cluster/programs/g09/g09_d.01/g09/l301.exe)
 Standard basis: def2QZVP (5D, 7F)
 Ernie: Thresh=  0.10000D-02 Tol=  0.10000D-05 Strict=F.
 There are   428 symmetry adapted cartesian basis functions of A   symmetry.
 There are   348 symmetry adapted basis functions of A   symmetry.
   348 basis functions,   520 primitive gaussians,   428 cartesian basis functions
    15 alpha electrons       15 beta electrons
       nuclear repulsion energy       102.8742322189 Hartrees.
 IExCor=  419 DFT=T Ex+Corr=B2PLYPD3 ExCW=0 ScaHFX=  0.530000
 ScaDFX=  0.470000  0.470000  0.730000  0.730000 ScalE2=  0.270000  0.270000
 IRadAn=      0 IRanWt=     -1 IRanGd=            0 ICorTp=0 IEmpDi=141
 NAtoms=    8 NActive=    8 NUniq=    8 SFac= 1.00D+00 NAtFMM=   60 NAOKFM=F Big=F
 Integral buffers will be    131072 words long.
 Regular integral format.
 Two-electron integral symmetry is turned on.
 R6Disp:  Grimme-D3(BJ) Dispersion energy=       -0.0035787710 Hartrees.
 Nuclear repulsion after empirical dispersion term =      102.8706534479 Hartrees.
 Leave Link  301 at Thu Aug 20 12:33:34 2020, MaxMem=  2147483648 cpu:         0.4
 (Enter /opt/cluster/programs/g09/g09_d.01/g09/l302.exe)
 NPDir=0 NMtPBC=     1 NCelOv=     1 NCel=       1 NClECP=     1 NCelD=      1
         NCelK=      1 NCelE2=     1 NClLst=     1 CellRange=     0.0.
 One-electron integrals computed using PRISM.
   1 Symmetry operations used in ECPInt.
 ECPInt:  NShTT=    5886 NPrTT=   14376 LenC2=    5780 LenP2D=   12175.
 LDataN:  DoStor=T MaxTD1= 8 Len=  415
 NBasis=   348 RedAO= T EigKep=  6.02D-05  NBF=   348
 NBsUse=   348 1.00D-06 EigRej= -1.00D+00 NBFU=   348
 Precomputing XC quadrature grid using
 IXCGrd= 4 IRadAn=           0 IRanWt=          -1 IRanGd=           0 AccXCQ= 0.00D+00.
 Generated NRdTot=       0 NPtTot=           0 NUsed=           0 NTot=          32
 NSgBfM=   428   428   428   428   428 MxSgAt=     8 MxSgA2=     8.
 Leave Link  302 at Thu Aug 20 12:33:35 2020, MaxMem=  2147483648 cpu:         2.5
 (Enter /opt/cluster/programs/g09/g09_d.01/g09/l303.exe)
 DipDrv:  MaxL=1.
 Leave Link  303 at Thu Aug 20 12:33:36 2020, MaxMem=  2147483648 cpu:         0.3
 (Enter /opt/cluster/programs/g09/g09_d.01/g09/l401.exe)
 ExpMin= 7.60D-02 ExpMax= 1.17D+05 ExpMxC= 1.13D+03 IAcc=2 IRadAn=         4 AccDes= 0.00D+00
 Harris functional with IExCor=  419 and IRadAn=       4 diagonalized for initial guess.
 HarFok:  IExCor=  419 AccDes= 0.00D+00 IRadAn=         4 IDoV= 1 UseB2=F ITyADJ=14
 ICtDFT=  3500011 ScaDFX=  1.000000  1.000000  1.000000  1.000000
 FoFCou: FMM=F IPFlag=           0 FMFlag=      100000 FMFlg1=           0
         NFxFlg=           0 DoJE=T BraDBF=F KetDBF=T FulRan=T
         wScrn=  0.000000 ICntrl=     500 IOpCl=  0 I1Cent=   200000004 NGrid=           0
         NMat0=    1 NMatS0=      1 NMatT0=    0 NMatD0=    1 NMtDS0=    0 NMtDT0=    0
 Petite list used in FoFCou.
 Harris En= -192.045483625280    
 JPrj=0 DoOrth=F DoCkMO=F.
 Leave Link  401 at Thu Aug 20 12:33:38 2020, MaxMem=  2147483648 cpu:         5.7
 (Enter /opt/cluster/programs/g09/g09_d.01/g09/l502.exe)
 Closed shell SCF:
 Using DIIS extrapolation, IDIIS=  1040.
 Integral symmetry usage will be decided dynamically.
 Keep R1 ints in memory in canonical form, NReq=1883905047.
 IVT=      574566 IEndB=      574566 NGot=  2147483648 MDV=   303055182
 LenX=   303055182 LenY=   302871557
 Requested convergence on RMS density matrix=1.00D-08 within 128 cycles.
 Requested convergence on MAX density matrix=1.00D-06.
 Requested convergence on             energy=1.00D-06.
 No special actions if energy rises.
 FoFCou: FMM=F IPFlag=           0 FMFlag=           0 FMFlg1=           0
         NFxFlg=           0 DoJE=F BraDBF=F KetDBF=F FulRan=T
         wScrn=  0.000000 ICntrl=     600 IOpCl=  0 I1Cent=           0 NGrid=           0
         NMat0=    1 NMatS0=  60726 NMatT0=    0 NMatD0=    1 NMtDS0=    0 NMtDT0=    0
 Symmetry not used in FoFCou.
 Integral accuracy reduced to 1.0D-05 until final iterations.

 Cycle   1  Pass 0  IDiag  1:
 E= -191.474601165788    
 DIIS: error= 2.76D-02 at cycle   1 NSaved=   1.
 NSaved= 1 IEnMin= 1 EnMin= -191.474601165788     IErMin= 1 ErrMin= 2.76D-02
 ErrMax= 2.76D-02  0.00D+00 EMaxC= 1.00D-01 BMatC= 2.54D-01 BMatP= 2.54D-01
 IDIUse=3 WtCom= 7.24D-01 WtEn= 2.76D-01
 Coeff-Com:  0.100D+01
 Coeff-En:   0.100D+01
 Coeff:      0.100D+01
 Gap=     0.283 Goal=   None    Shift=    0.000
 GapD=    0.283 DampG=1.000 DampE=0.500 DampFc=0.5000 IDamp=-1.
 Damping current iteration by 5.00D-01
 RMSDP=1.82D-03 MaxDP=2.27D-01              OVMax= 1.74D-01

 Cycle   2  Pass 0  IDiag  1:
 E= -191.542476843204     Delta-E=       -0.067875677415 Rises=F Damp=T
 DIIS: error= 1.09D-02 at cycle   2 NSaved=   2.
 NSaved= 2 IEnMin= 2 EnMin= -191.542476843204     IErMin= 2 ErrMin= 1.09D-02
 ErrMax= 1.09D-02  0.00D+00 EMaxC= 1.00D-01 BMatC= 3.40D-02 BMatP= 2.54D-01
 IDIUse=3 WtCom= 8.91D-01 WtEn= 1.09D-01
 Coeff-Com: -0.141D+00 0.114D+01
 Coeff-En:   0.000D+00 0.100D+01
 Coeff:     -0.125D+00 0.113D+01
 Gap=     0.351 Goal=   None    Shift=    0.000
 RMSDP=6.30D-04 MaxDP=7.97D-02 DE=-6.79D-02 OVMax= 1.39D-01

 Cycle   3  Pass 0  IDiag  1:
 E= -191.602988833167     Delta-E=       -0.060511989963 Rises=F Damp=F
 DIIS: error= 1.16D-02 at cycle   3 NSaved=   3.
 NSaved= 3 IEnMin= 3 EnMin= -191.602988833167     IErMin= 2 ErrMin= 1.09D-02
 ErrMax= 1.16D-02  0.00D+00 EMaxC= 1.00D-01 BMatC= 1.82D-02 BMatP= 3.40D-02
 IDIUse=3 WtCom= 8.84D-01 WtEn= 1.16D-01
 Coeff-Com: -0.191D+00 0.529D+00 0.662D+00
 Coeff-En:   0.000D+00 0.000D+00 0.100D+01
 Coeff:     -0.169D+00 0.467D+00 0.701D+00
 Gap=     0.332 Goal=   None    Shift=    0.000
 RMSDP=2.52D-04 MaxDP=1.85D-02 DE=-6.05D-02 OVMax= 4.99D-02

 Cycle   4  Pass 0  IDiag  1:
 E= -191.613054152755     Delta-E=       -0.010065319589 Rises=F Damp=F
 DIIS: error= 5.02D-03 at cycle   4 NSaved=   4.
 NSaved= 4 IEnMin= 4 EnMin= -191.613054152755     IErMin= 4 ErrMin= 5.02D-03
 ErrMax= 5.02D-03  0.00D+00 EMaxC= 1.00D-01 BMatC= 3.45D-03 BMatP= 1.82D-02
 IDIUse=3 WtCom= 9.50D-01 WtEn= 5.02D-02
 Coeff-Com: -0.581D-01 0.950D-01 0.366D+00 0.597D+00
 Coeff-En:   0.000D+00 0.000D+00 0.175D+00 0.825D+00
 Coeff:     -0.552D-01 0.903D-01 0.356D+00 0.609D+00
 Gap=     0.321 Goal=   None    Shift=    0.000
 RMSDP=1.05D-04 MaxDP=8.72D-03 DE=-1.01D-02 OVMax= 1.56D-02

 Cycle   5  Pass 0  IDiag  1:
 E= -191.615822113365     Delta-E=       -0.002767960610 Rises=F Damp=F
 DIIS: error= 3.54D-04 at cycle   5 NSaved=   5.
 NSaved= 5 IEnMin= 5 EnMin= -191.615822113365     IErMin= 5 ErrMin= 3.54D-04
 ErrMax= 3.54D-04  0.00D+00 EMaxC= 1.00D-01 BMatC= 1.34D-05 BMatP= 3.45D-03
 IDIUse=3 WtCom= 9.96D-01 WtEn= 3.54D-03
 Coeff-Com: -0.769D-02 0.938D-02 0.564D-01 0.130D+00 0.812D+00
 Coeff-En:   0.000D+00 0.000D+00 0.000D+00 0.000D+00 0.100D+01
 Coeff:     -0.766D-02 0.935D-02 0.562D-01 0.130D+00 0.812D+00
 Gap=     0.320 Goal=   None    Shift=    0.000
 RMSDP=8.64D-06 MaxDP=5.69D-04 DE=-2.77D-03 OVMax= 2.44D-03

 Initial convergence to 1.0D-05 achieved.  Increase integral accuracy.
 Cycle   6  Pass 1  IDiag  1:
 E= -191.615834596588     Delta-E=       -0.000012483223 Rises=F Damp=F
 DIIS: error= 1.12D-04 at cycle   1 NSaved=   1.
 NSaved= 1 IEnMin= 1 EnMin= -191.615834596588     IErMin= 1 ErrMin= 1.12D-04
 ErrMax= 1.12D-04  0.00D+00 EMaxC= 1.00D-01 BMatC= 1.77D-06 BMatP= 1.77D-06
 IDIUse=3 WtCom= 9.99D-01 WtEn= 1.12D-03
 Coeff-Com:  0.100D+01
 Coeff-En:   0.100D+01
 Coeff:      0.100D+01
 Gap=     0.321 Goal=   None    Shift=    0.000
 RMSDP=8.64D-06 MaxDP=5.69D-04 DE=-1.25D-05 OVMax= 7.89D-04

 Cycle   7  Pass 1  IDiag  1:
 E= -191.615835844339     Delta-E=       -0.000001247752 Rises=F Damp=F
 DIIS: error= 8.14D-05 at cycle   2 NSaved=   2.
 NSaved= 2 IEnMin= 2 EnMin= -191.615835844339     IErMin= 2 ErrMin= 8.14D-05
 ErrMax= 8.14D-05  0.00D+00 EMaxC= 1.00D-01 BMatC= 1.05D-06 BMatP= 1.77D-06
 IDIUse=1 WtCom= 1.00D+00 WtEn= 0.00D+00
 Coeff-Com:  0.428D+00 0.572D+00
 Coeff:      0.428D+00 0.572D+00
 Gap=     0.321 Goal=   None    Shift=    0.000
 RMSDP=1.90D-06 MaxDP=1.38D-04 DE=-1.25D-06 OVMax= 5.47D-04

 Cycle   8  Pass 1  IDiag  1:
 E= -191.615836828523     Delta-E=       -0.000000984184 Rises=F Damp=F
 DIIS: error= 1.69D-05 at cycle   3 NSaved=   3.
 NSaved= 3 IEnMin= 3 EnMin= -191.615836828523     IErMin= 3 ErrMin= 1.69D-05
 ErrMax= 1.69D-05  0.00D+00 EMaxC= 1.00D-01 BMatC= 8.00D-08 BMatP= 1.05D-06
 IDIUse=1 WtCom= 1.00D+00 WtEn= 0.00D+00
 Coeff-Com:  0.685D-01 0.201D+00 0.731D+00
 Coeff:      0.685D-01 0.201D+00 0.731D+00
 Gap=     0.321 Goal=   None    Shift=    0.000
 RMSDP=1.43D-06 MaxDP=1.62D-04 DE=-9.84D-07 OVMax= 1.16D-04

 Cycle   9  Pass 1  IDiag  1:
 E= -191.615836904413     Delta-E=       -0.000000075890 Rises=F Damp=F
 DIIS: error= 1.69D-05 at cycle   4 NSaved=   4.
 NSaved= 4 IEnMin= 4 EnMin= -191.615836904413     IErMin= 3 ErrMin= 1.69D-05
 ErrMax= 1.69D-05  0.00D+00 EMaxC= 1.00D-01 BMatC= 1.80D-08 BMatP= 8.00D-08
 IDIUse=1 WtCom= 1.00D+00 WtEn= 0.00D+00
 Coeff-Com: -0.112D+00-0.788D-01 0.363D+00 0.828D+00
 Coeff:     -0.112D+00-0.788D-01 0.363D+00 0.828D+00
 Gap=     0.321 Goal=   None    Shift=    0.000
 RMSDP=7.48D-07 MaxDP=7.95D-05 DE=-7.59D-08 OVMax= 1.18D-04

 Cycle  10  Pass 1  IDiag  1:
 E= -191.615836933060     Delta-E=       -0.000000028647 Rises=F Damp=F
 DIIS: error= 2.85D-06 at cycle   5 NSaved=   5.
 NSaved= 5 IEnMin= 5 EnMin= -191.615836933060     IErMin= 5 ErrMin= 2.85D-06
 ErrMax= 2.85D-06  0.00D+00 EMaxC= 1.00D-01 BMatC= 2.20D-09 BMatP= 1.80D-08
 IDIUse=1 WtCom= 1.00D+00 WtEn= 0.00D+00
 Coeff-Com: -0.476D-01-0.416D-01 0.789D-01 0.370D+00 0.640D+00
 Coeff:     -0.476D-01-0.416D-01 0.789D-01 0.370D+00 0.640D+00
 Gap=     0.321 Goal=   None    Shift=    0.000
 RMSDP=1.56D-07 MaxDP=1.66D-05 DE=-2.86D-08 OVMax= 2.17D-05

 Cycle  11  Pass 1  IDiag  1:
 E= -191.615836934767     Delta-E=       -0.000000001707 Rises=F Damp=F
 DIIS: error= 1.25D-06 at cycle   6 NSaved=   6.
 NSaved= 6 IEnMin= 6 EnMin= -191.615836934767     IErMin= 6 ErrMin= 1.25D-06
 ErrMax= 1.25D-06  0.00D+00 EMaxC= 1.00D-01 BMatC= 2.49D-10 BMatP= 2.20D-09
 IDIUse=1 WtCom= 1.00D+00 WtEn= 0.00D+00
 Coeff-Com:  0.638D-02 0.148D-02-0.633D-01-0.664D-02 0.224D+00 0.838D+00
 Coeff:      0.638D-02 0.148D-02-0.633D-01-0.664D-02 0.224D+00 0.838D+00
 Gap=     0.321 Goal=   None    Shift=    0.000
 RMSDP=6.04D-08 MaxDP=6.61D-06 DE=-1.71D-09 OVMax= 6.80D-06

 Cycle  12  Pass 1  IDiag  1:
 E= -191.615836935037     Delta-E=       -0.000000000270 Rises=F Damp=F
 DIIS: error= 2.96D-07 at cycle   7 NSaved=   7.
 NSaved= 7 IEnMin= 7 EnMin= -191.615836935037     IErMin= 7 ErrMin= 2.96D-07
 ErrMax= 2.96D-07  0.00D+00 EMaxC= 1.00D-01 BMatC= 1.88D-11 BMatP= 2.49D-10
 IDIUse=1 WtCom= 1.00D+00 WtEn= 0.00D+00
 Coeff-Com:  0.600D-02 0.374D-02-0.327D-01-0.248D-01 0.335D-01 0.313D+00
 Coeff-Com:  0.701D+00
 Coeff:      0.600D-02 0.374D-02-0.327D-01-0.248D-01 0.335D-01 0.313D+00
 Coeff:      0.701D+00
 Gap=     0.321 Goal=   None    Shift=    0.000
 RMSDP=8.97D-09 MaxDP=5.34D-07 DE=-2.70D-10 OVMax= 1.94D-06

 SCF Done:  E(RB2PLYPD3) =  -191.615836935     A.U. after   12 cycles
            NFock= 12  Conv=0.90D-08     -V/T= 2.0037
 KE= 1.909001006593D+02 PE=-6.537526611288D+02 EE= 1.683660700866D+02
 Leave Link  502 at Thu Aug 20 12:34:41 2020, MaxMem=  2147483648 cpu:       272.1
 (Enter /opt/cluster/programs/g09/g09_d.01/g09/l801.exe)
 DoSCS=T DFT=T ScalE2(SS,OS)=  0.270000  0.270000
 ExpMin= 7.60D-02 ExpMax= 1.17D+05 ExpMxC= 1.13D+03 IAcc=3 IRadAn=         5 AccDes= 0.00D+00
 HarFok:  IExCor=  205 AccDes= 0.00D+00 IRadAn=         5 IDoV=-2 UseB2=F ITyADJ=14
 ICtDFT= 12500011 ScaDFX=  1.000000  1.000000  1.000000  1.000000
 Largest valence mixing into a core orbital is  1.16D-04
 Largest core mixing into a valence orbital is  1.91D-05
 Range of M.O.s used for correlation:     5   348
 NBasis=   348 NAE=    15 NBE=    15 NFC=     4 NFV=     0
 NROrb=    344 NOA=    11 NOB=    11 NVA=   333 NVB=   333

 **** Warning!!: The largest alpha MO coefficient is  0.30529996D+02

 Leave Link  801 at Thu Aug 20 12:34:43 2020, MaxMem=  2147483648 cpu:         0.7
 (Enter /opt/cluster/programs/g09/g09_d.01/g09/l906.exe)
 DoSCS=T DFT=T ScalE2(SS,OS)=  0.270000  0.270000
 Frozen-core derivative calculation, NFC=   4 NFV=   0.
 FulOut=F Deriv=T AODrv=T NAtomX=     8
   MMem=          54  MDisk=          11 MDiskD=          11
  W3Min=     2234160 MinDsk=     4361458 NBas6D=         428
 NBas2D=       93150    NTT=       91806    LW2=     9246618
    MDV=  2146178094 MDiskM=       11132 NBas2p=       90052
 Fully direct method using O(ONN) memory.
 IMap=   1   2   3   4   5   6   7   8   9  10  11  12  13  14  15
 JobTyp=1 Pass  1:  I=   5 to   9 NPSUse=  8 ParTrn=T ParDer=T DoDerP=T.
 JobTyp=1 Pass  2:  I=  10 to  14 NPSUse=  8 ParTrn=T ParDer=T DoDerP=T.
 JobTyp=1 Pass  3:  I=  15 to  15 NPSUse=  8 ParTrn=T ParDer=T DoDerP=T.
 Spin components of T(2) and E(2):
     alpha-alpha T2 =       0.4414574298D-01 E2=     -0.2954929594D-01
     alpha-beta  T2 =       0.2695855808D+00 E2=     -0.1887498449D+00
     beta-beta   T2 =       0.4414574298D-01 E2=     -0.2954929594D-01
 The integrals were generated   3 times.
 E2(B2PLYPD3) =    -0.2478484368D+00 E(B2PLYPD3) =    -0.19186368537179D+03
 Leave Link  906 at Thu Aug 20 12:40:31 2020, MaxMem=  2147483648 cpu:      2775.4
 (Enter /opt/cluster/programs/g09/g09_d.01/g09/l1002.exe)
 Minotr:  Closed shell wavefunction.
          Computing MP2/KS-MP2 derivatives.
          Using Z-Vector for PSCF gradient.
          Skipping F1 and S1 gradient terms here.
          IDoAtm=11111111
          Frozen-core window.
          Direct CPHF calculation.
          Differentiating once with respect to electric field.
                with respect to dipole field.
          Differentiating once with respect to nuclear coordinates.
          Requested convergence is 1.0D-10 RMS, and 1.0D-09 maximum.
          NewPWx=F KeepS1=T KeepF1=T KeepIn=T MapXYZ=F SortEE=F KeepMc=T.
          MDV=    2147483220 using IRadAn=       0.
 Using stored XC quadrature information.
 Keep R1 ints in memory in canonical form, NReq=1883332920.
 FoFCou: FMM=F IPFlag=           0 FMFlag=           0 FMFlg1=           0
         NFxFlg=           0 DoJE=F BraDBF=F KetDBF=F FulRan=T
         wScrn=  0.000000 ICntrl=     600 IOpCl=  0 I1Cent=           0 NGrid=           0
         NMat0=    1 NMatS0=  60726 NMatT0=    0 NMatD0=    1 NMtDS0=    0 NMtDT0=    0
 Symmetry not used in FoFCou.
          Solving linear equations separately, MaxMat=       0.
          There are     1 degrees of freedom in the 1st order CPHF.  IDoFFX=0 NUNeed=     1.
 LinEq1:  Iter=  0 NonCon=     1 RMS=1.48D-03 Max=5.04D-02 NDo=     1
 AX will form     1 AO Fock derivatives at one time.
 LinEq1:  Iter=  1 NonCon=     1 RMS=6.90D-04 Max=1.74D-02 NDo=     1
 LinEq1:  Iter=  2 NonCon=     1 RMS=2.90D-04 Max=5.52D-03 NDo=     1
 LinEq1:  Iter=  3 NonCon=     1 RMS=1.55D-04 Max=3.97D-03 NDo=     1
 LinEq1:  Iter=  4 NonCon=     1 RMS=2.76D-05 Max=7.76D-04 NDo=     1
 LinEq1:  Iter=  5 NonCon=     1 RMS=8.25D-06 Max=1.45D-04 NDo=     1
 LinEq1:  Iter=  6 NonCon=     1 RMS=3.24D-06 Max=9.80D-05 NDo=     1
 LinEq1:  Iter=  7 NonCon=     1 RMS=1.45D-06 Max=6.28D-05 NDo=     1
 LinEq1:  Iter=  8 NonCon=     1 RMS=5.16D-07 Max=7.55D-06 NDo=     1
 LinEq1:  Iter=  9 NonCon=     1 RMS=1.12D-07 Max=1.73D-06 NDo=     1
 LinEq1:  Iter= 10 NonCon=     1 RMS=2.68D-08 Max=3.80D-07 NDo=     1
 LinEq1:  Iter= 11 NonCon=     1 RMS=6.13D-09 Max=1.05D-07 NDo=     1
 LinEq1:  Iter= 12 NonCon=     1 RMS=1.16D-09 Max=1.93D-08 NDo=     1
 LinEq1:  Iter= 13 NonCon=     1 RMS=1.72D-10 Max=2.20D-09 NDo=     1
 LinEq1:  Iter= 14 NonCon=     0 RMS=3.67D-11 Max=5.85D-10 NDo=     1
 Linear equations converged to 1.000D-10 1.000D-09 after    14 iterations.
 End of Minotr F.D. properties file   721 does not exist.
 End of Minotr F.D. properties file   722 does not exist.
 End of Minotr F.D. properties file   788 does not exist.
 Leave Link 1002 at Thu Aug 20 12:41:53 2020, MaxMem=  2147483648 cpu:       360.2
 (Enter /opt/cluster/programs/g09/g09_d.01/g09/l601.exe)
 Copying SCF densities to generalized density rwf, IOpCl= 0 IROHF=0.

 **********************************************************************

            Population analysis using the SCF density.

 **********************************************************************

 Orbital symmetries:
       Occupied  (A) (A) (A) (A) (A) (A) (A) (A) (A) (A) (A) (A)
                 (A) (A) (A)
       Virtual   (A) (A) (A) (A) (A) (A) (A) (A) (A) (A) (A) (A)
                 (A) (A) (A) (A) (A) (A) (A) (A) (A) (A) (A) (A)
                 (A) (A) (A) (A) (A) (A) (A) (A) (A) (A) (A) (A)
                 (A) (A) (A) (A) (A) (A) (A) (A) (A) (A) (A) (A)
                 (A) (A) (A) (A) (A) (A) (A) (A) (A) (A) (A) (A)
                 (A) (A) (A) (A) (A) (A) (A) (A) (A) (A) (A) (A)
                 (A) (A) (A) (A) (A) (A) (A) (A) (A) (A) (A) (A)
                 (A) (A) (A) (A) (A) (A) (A) (A) (A) (A) (A) (A)
                 (A) (A) (A) (A) (A) (A) (A) (A) (A) (A) (A) (A)
                 (A) (A) (A) (A) (A) (A) (A) (A) (A) (A) (A) (A)
                 (A) (A) (A) (A) (A) (A) (A) (A) (A) (A) (A) (A)
                 (A) (A) (A) (A) (A) (A) (A) (A) (A) (A) (A) (A)
                 (A) (A) (A) (A) (A) (A) (A) (A) (A) (A) (A) (A)
                 (A) (A) (A) (A) (A) (A) (A) (A) (A) (A) (A) (A)
                 (A) (A) (A) (A) (A) (A) (A) (A) (A) (A) (A) (A)
                 (A) (A) (A) (A) (A) (A) (A) (A) (A) (A) (A) (A)
                 (A) (A) (A) (A) (A) (A) (A) (A) (A) (A) (A) (A)
                 (A) (A) (A) (A) (A) (A) (A) (A) (A) (A) (A) (A)
                 (A) (A) (A) (A) (A) (A) (A) (A) (A) (A) (A) (A)
                 (A) (A) (A) (A) (A) (A) (A) (A) (A) (A) (A) (A)
                 (A) (A) (A) (A) (A) (A) (A) (A) (A) (A) (A) (A)
                 (A) (A) (A) (A) (A) (A) (A) (A) (A) (A) (A) (A)
                 (A) (A) (A) (A) (A) (A) (A) (A) (A) (A) (A) (A)
                 (A) (A) (A) (A) (A) (A) (A) (A) (A) (A) (A) (A)
                 (A) (A) (A) (A) (A) (A) (A) (A) (A) (A) (A) (A)
                 (A) (A) (A) (A) (A) (A) (A) (A) (A) (A) (A) (A)
                 (A) (A) (A) (A) (A) (A) (A) (A) (A) (A) (A) (A)
                 (A) (A) (A) (A) (A) (A) (A) (A) (A)
 The electronic state is 1-A.
 Alpha  occ. eigenvalues --  -19.72816 -10.71803 -10.65497 -10.64487  -1.18744
 Alpha  occ. eigenvalues --   -0.92667  -0.75339  -0.67083  -0.56506  -0.56103
 Alpha  occ. eigenvalues --   -0.50300  -0.46872  -0.46323  -0.34458  -0.33935
 Alpha virt. eigenvalues --   -0.01839   0.05681   0.07165   0.07900   0.09744
 Alpha virt. eigenvalues --    0.12417   0.13851   0.15388   0.17527   0.19631
 Alpha virt. eigenvalues --    0.19969   0.21733   0.25506   0.26382   0.28622
 Alpha virt. eigenvalues --    0.31931   0.33058   0.36043   0.37325   0.38966
 Alpha virt. eigenvalues --    0.39480   0.41394   0.43075   0.44757   0.45522
 Alpha virt. eigenvalues --    0.46304   0.49263   0.53665   0.54325   0.56937
 Alpha virt. eigenvalues --    0.57544   0.64721   0.66022   0.67457   0.70274
 Alpha virt. eigenvalues --    0.74636   0.76489   0.77567   0.79625   0.80815
 Alpha virt. eigenvalues --    0.81671   0.82265   0.82585   0.84044   0.86236
 Alpha virt. eigenvalues --    0.87615   0.91473   0.91723   0.93898   0.95953
 Alpha virt. eigenvalues --    0.96697   0.97273   1.01191   1.02338   1.08653
 Alpha virt. eigenvalues --    1.09314   1.10683   1.16289   1.16721   1.18012
 Alpha virt. eigenvalues --    1.19196   1.25817   1.27878   1.34546   1.39852
 Alpha virt. eigenvalues --    1.40878   1.47039   1.49698   1.54964   1.57178
 Alpha virt. eigenvalues --    1.62372   1.63441   1.65425   1.66959   1.67268
 Alpha virt. eigenvalues --    1.74402   1.76486   1.76978   1.82640   1.82689
 Alpha virt. eigenvalues --    1.85870   1.89584   1.90699   1.93951   1.94069
 Alpha virt. eigenvalues --    1.95798   1.97352   1.99250   2.01766   2.02703
 Alpha virt. eigenvalues --    2.05662   2.10549   2.12111   2.12374   2.14408
 Alpha virt. eigenvalues --    2.16106   2.17965   2.19574   2.23177   2.27411
 Alpha virt. eigenvalues --    2.29084   2.34035   2.37082   2.38940   2.42654
 Alpha virt. eigenvalues --    2.45312   2.46396   2.48195   2.49828   2.53526
 Alpha virt. eigenvalues --    2.55102   2.57422   2.59065   2.60829   2.63893
 Alpha virt. eigenvalues --    2.64866   2.65278   2.66872   2.69613   2.73817
 Alpha virt. eigenvalues --    2.75733   2.78733   2.85293   2.86935   2.87227
 Alpha virt. eigenvalues --    2.88663   2.96748   2.98323   3.00900   3.05533
 Alpha virt. eigenvalues --    3.16015   3.17911   3.28745   3.29518   3.31612
 Alpha virt. eigenvalues --    3.35198   3.39617   3.42436   3.44136   3.48199
 Alpha virt. eigenvalues --    3.49297   3.53604   3.59945   3.61611   3.65539
 Alpha virt. eigenvalues --    3.67287   3.72131   3.76426   3.79717   3.88065
 Alpha virt. eigenvalues --    3.92702   3.98577   4.00217   4.03207   4.06570
 Alpha virt. eigenvalues --    4.08898   4.17951   4.20824   4.24725   4.32728
 Alpha virt. eigenvalues --    4.39499   4.44095   4.53691   4.61617   4.61689
 Alpha virt. eigenvalues --    4.66146   4.80517   4.88755   4.90196   4.97085
 Alpha virt. eigenvalues --    5.02308   5.03104   5.10312   5.10920   5.11016
 Alpha virt. eigenvalues --    5.19293   5.26895   5.30313   5.34150   5.43541
 Alpha virt. eigenvalues --    5.44551   5.53318   5.54718   5.58890   5.59007
 Alpha virt. eigenvalues --    5.66724   5.67680   5.72493   5.73864   5.78211
 Alpha virt. eigenvalues --    5.79119   5.81712   5.85217   5.89638   5.94470
 Alpha virt. eigenvalues --    5.95895   5.97075   5.99936   6.05031   6.07469
 Alpha virt. eigenvalues --    6.07600   6.13859   6.15530   6.18503   6.19094
 Alpha virt. eigenvalues --    6.21635   6.23241   6.27035   6.28029   6.29081
 Alpha virt. eigenvalues --    6.33012   6.33845   6.37816   6.40727   6.43705
 Alpha virt. eigenvalues --    6.48548   6.51245   6.53378   6.53951   6.59080
 Alpha virt. eigenvalues --    6.59609   6.66466   6.67099   6.71852   6.76350
 Alpha virt. eigenvalues --    6.82704   6.82988   6.95376   6.96637   7.02120
 Alpha virt. eigenvalues --    7.03239   7.09013   7.09789   7.16013   7.25273
 Alpha virt. eigenvalues --    7.30645   7.39118   7.44381   7.48959   7.49831
 Alpha virt. eigenvalues --    7.53608   7.56647   7.58052   7.64530   7.64745
 Alpha virt. eigenvalues --    7.67118   7.69441   7.71139   7.72865   7.79902
 Alpha virt. eigenvalues --    7.84323   7.85818   7.89704   8.02098   8.06614
 Alpha virt. eigenvalues --    8.07849   8.08726   8.12985   8.15998   8.16779
 Alpha virt. eigenvalues --    8.21087   8.24645   8.27253   8.32301   8.33826
 Alpha virt. eigenvalues --    8.36361   8.39289   8.45074   8.49231   8.53233
 Alpha virt. eigenvalues --    8.56328   8.58277   8.61702   8.63941   8.69472
 Alpha virt. eigenvalues --    8.81932   8.89023   8.89071   8.96307   9.07449
 Alpha virt. eigenvalues --    9.08386   9.08778   9.16997   9.24925   9.31592
 Alpha virt. eigenvalues --    9.33319   9.38817   9.57932   9.65995   9.75448
 Alpha virt. eigenvalues --    9.84778   9.87419   9.87548   9.93542   9.95484
 Alpha virt. eigenvalues --    9.96608  10.01600  10.18656  10.21828  10.24825
 Alpha virt. eigenvalues --   10.26942  10.29956  10.49332  10.67706  10.95661
 Alpha virt. eigenvalues --   11.00393  11.24973  11.26168  11.31503  11.49982
 Alpha virt. eigenvalues --   11.65216  11.74660  11.83612  12.03133  12.06089
 Alpha virt. eigenvalues --   12.32723  12.35064  12.48063  12.59032  12.98780
 Alpha virt. eigenvalues --   13.12302  13.30629  13.71809  14.35777  14.61068
 Alpha virt. eigenvalues --   28.60455  28.85039  29.50756  48.62659 148.18940
 Alpha virt. eigenvalues --  148.40459 149.10230 254.38357
          Condensed to atoms (all electrons):
               1          2          3          4          5          6
     1  C    4.501101   0.610445   0.381284  -0.056025  -0.031276  -0.003861
     2  O    0.610445   7.898250  -0.096133   0.008211   0.005138   0.000402
     3  C    0.381284  -0.096133   5.154901   0.471636   0.373725  -0.048905
     4  C   -0.056025   0.008211   0.471636   4.883900  -0.037492   0.425295
     5  H   -0.031276   0.005138   0.373725  -0.037492   0.572166   0.005007
     6  H   -0.003861   0.000402  -0.048905   0.425295   0.005007   0.570751
     7  H    0.002754  -0.000649  -0.032978   0.412892  -0.005208  -0.040763
     8  H    0.437639  -0.069448  -0.155265   0.024878   0.007319   0.005517
               7          8
     1  C    0.002754   0.437639
     2  O   -0.000649  -0.069448
     3  C   -0.032978  -0.155265
     4  C    0.412892   0.024878
     5  H   -0.005208   0.007319
     6  H   -0.040763   0.005517
     7  H    0.564468  -0.000805
     8  H   -0.000805   0.667791
 Mulliken charges:
               1
     1  C    0.157939
     2  O   -0.356217
     3  C   -0.048265
     4  C   -0.133296
     5  H    0.110621
     6  H    0.086556
     7  H    0.100289
     8  H    0.082373
 Sum of Mulliken charges =   0.00000
 Mulliken charges with hydrogens summed into heavy atoms:
               1
     1  C    0.240312
     2  O   -0.356217
     3  C    0.062356
     4  C    0.053549
 Electronic spatial extent (au):  <R**2>=            298.8841
 Charge=              0.0000 electrons
 Dipole moment (field-independent basis, Debye):
    X=              3.4702    Y=              0.8749    Z=              0.0001  Tot=              3.5788
 Quadrupole moment (field-independent basis, Debye-Ang):
   XX=            -27.6209   YY=            -21.5198   ZZ=            -25.2969
   XY=             -1.0111   XZ=             -0.0001   YZ=             -0.0001
 Traceless Quadrupole moment (field-independent basis, Debye-Ang):
   XX=             -2.8084   YY=              3.2927   ZZ=             -0.4844
   XY=             -1.0111   XZ=             -0.0001   YZ=             -0.0001
 Octapole moment (field-independent basis, Debye-Ang**2):
  XXX=             14.8576  YYY=              0.1978  ZZZ=              0.0000  XYY=             -0.1430
  XXY=              0.8587  XXZ=              0.0001  XZZ=             -4.3370  YZZ=              0.1626
  YYZ=              0.0001  XYZ=             -0.0001
 Hexadecapole moment (field-independent basis, Debye-Ang**3):
 XXXX=           -305.3249 YYYY=            -55.3220 ZZZZ=            -27.5201 XXXY=             -2.7702
 XXXZ=             -0.0001 YYYX=              0.3361 YYYZ=             -0.0001 ZZZX=              0.0001
 ZZZY=              0.0000 XXYY=            -57.8371 XXZZ=            -57.6144 YYZZ=            -15.6419
 XXYZ=             -0.0001 YYXZ=              0.0000 ZZXY=              0.4006
 N-N= 1.028706534479D+02 E-N=-6.537526261543D+02  KE= 1.909001006593D+02
 No NMR shielding tensors so no spin-rotation constants.
 Leave Link  601 at Thu Aug 20 12:41:54 2020, MaxMem=  2147483648 cpu:         1.9
 (Enter /opt/cluster/programs/g09/g09_d.01/g09/l701.exe)
 Compute integral first derivatives.
 ... and contract with generalized density number  2.
 R6Disp: Adding Grimme-D3(BJ) dispersion energy 1st derivatives to the gradient.
   1 Symmetry operations used in ECPInt.
 ECPInt:  NShTT=    5886 NPrTT=   14376 LenC2=    5780 LenP2D=   12175.
 LDataN:  DoStor=T MaxTD1= 9 Len=  602
 Leave Link  701 at Thu Aug 20 12:41:55 2020, MaxMem=  2147483648 cpu:         2.1
 (Enter /opt/cluster/programs/g09/g09_d.01/g09/l702.exe)
 L702 exits ... SP integral derivatives will be done elsewhere.
 Leave Link  702 at Thu Aug 20 12:41:55 2020, MaxMem=  2147483648 cpu:         0.1
 (Enter /opt/cluster/programs/g09/g09_d.01/g09/l703.exe)
 Compute integral first derivatives, UseDBF=F ICtDFT=           0.
 Integral derivatives from FoFJK, PRISM(SPDF).
 Calling FoFJK, ICntrl=  10002127 FMM=F ISym2X=0 I1Cent= 0 IOpClX= 0 NMat=1 NMatS=1 NMatT=0.
 FoFJK:  IHMeth= 1 ICntrl=10002127 DoSepK=F KAlg= 0 I1Cent=   0 FoldK=F
 IRaf=         0 NMat=   1 IRICut=       1 DoRegI=T DoRafI=F ISym2E= 0.
 FoFCou: FMM=F IPFlag=           0 FMFlag=      100000 FMFlg1=         800
         NFxFlg=           0 DoJE=F BraDBF=F KetDBF=F FulRan=T
         wScrn=  0.000000 ICntrl=10002127 IOpCl=  0 I1Cent=           0 NGrid=           0
         NMat0=    1 NMatS0=      1 NMatT0=    0 NMatD0=    1 NMtDS0=    0 NMtDT0=    0
 Symmetry not used in FoFCou.
 Leave Link  703 at Thu Aug 20 12:42:38 2020, MaxMem=  2147483648 cpu:       339.0
 (Enter /opt/cluster/programs/g09/g09_d.01/g09/l716.exe)
 Dipole        = 1.27500610D+00 2.97342134D-01 2.50225369D-05
 ***** Axes restored to original set *****
 -------------------------------------------------------------------
 Center     Atomic                   Forces (Hartrees/Bohr)
 Number     Number              X              Y              Z
 -------------------------------------------------------------------
      1        6           0.023574258   -0.005851093   -0.002507927
      2        8          -0.018929547   -0.000447549    0.002821330
      3        6          -0.008983258    0.006086687    0.000350766
      4        6           0.003782684   -0.006274498    0.000432414
      5        1          -0.002104462    0.001506701    0.000070364
      6        1           0.003779830   -0.000382823   -0.000489771
      7        1          -0.001637092    0.004595483   -0.000481470
      8        1           0.000517588    0.000767091   -0.000195707
 -------------------------------------------------------------------
 Cartesian Forces:  Max     0.023574258 RMS     0.007014258
 Leave Link  716 at Thu Aug 20 12:42:38 2020, MaxMem=  2147483648 cpu:         0.3
 (Enter /opt/cluster/programs/g09/g09_d.01/g09/l103.exe)

 GradGradGradGradGradGradGradGradGradGradGradGradGradGradGradGradGradGrad
 Berny optimization.
 FormGI is forming the generalized inverse of G from B-inverse, IUseBI=4.
 Internal  Forces:  Max     0.017836365 RMS     0.004968480
 Search for a local minimum.
 Step number   1 out of a maximum of   34
 All quantities printed in internal units (Hartrees-Bohrs-Radians)
 RMS Force = .49685D-02 SwitMx=.10000D-02 MixMth= 1
 Mixed Optimization -- RFO/linear search
 Second derivative matrix not updated -- first step.
 ITU=  0
     Eigenvalues ---    0.01083   0.01083   0.02056   0.02918   0.02918
     Eigenvalues ---    0.16000   0.16000   0.16000   0.16000   0.22000
     Eigenvalues ---    0.22000   0.33399   0.35024   0.35263   0.35333
     Eigenvalues ---    0.35554   0.57817   0.93463
 RFO step:  Lambda=-1.47739111D-03 EMin= 1.08256761D-02
 Linear search not attempted -- first point.
 Iteration  1 RMS(Cart)=  0.02227002 RMS(Int)=  0.00043202
 Iteration  2 RMS(Cart)=  0.00044762 RMS(Int)=  0.00000008
 Iteration  3 RMS(Cart)=  0.00000011 RMS(Int)=  0.00000000
 ITry= 1 IFail=0 DXMaxC= 5.12D-02 DCOld= 1.00D+10 DXMaxT= 3.00D-01 DXLimC= 3.00D+00 Rises=F
 Variable       Old X    -DE/DX   Delta X   Delta X   Delta X     New X
                                 (Linear)    (Quad)   (Total)
    R1        2.31377  -0.01784   0.00000  -0.01905  -0.01905   2.29472
    R2        2.78936  -0.00477   0.00000  -0.01356  -0.01356   2.77580
    R3        2.08356   0.00000   0.00000   0.00001   0.00001   2.08357
    R4        2.52711  -0.00471   0.00000  -0.00813  -0.00813   2.51897
    R5        2.04785  -0.00259   0.00000  -0.00725  -0.00725   2.04060
    R6        2.05137  -0.00334   0.00000  -0.00940  -0.00940   2.04197
    R7        2.05251  -0.00439   0.00000  -0.01239  -0.01239   2.04011
    A1        2.11712   0.01007   0.00000   0.04546   0.04546   2.16257
    A2        2.13459  -0.00602   0.00000  -0.02883  -0.02883   2.10576
    A3        2.03148  -0.00405   0.00000  -0.01663  -0.01663   2.01485
    A4        2.10860   0.00149   0.00000   0.00672   0.00672   2.11533
    A5        2.03438  -0.00078   0.00000  -0.00361  -0.00361   2.03078
    A6        2.14020  -0.00070   0.00000  -0.00311  -0.00311   2.13708
    A7        2.13930  -0.00407   0.00000  -0.02522  -0.02522   2.11408
    A8        2.09806   0.00428   0.00000   0.02651   0.02651   2.12457
    A9        2.04583  -0.00021   0.00000  -0.00129  -0.00129   2.04454
    D1        3.14154   0.00000   0.00000   0.00007   0.00007  -3.14158
    D2       -0.00006   0.00000   0.00000   0.00008   0.00008   0.00003
    D3       -0.00004   0.00000   0.00000  -0.00003  -0.00003  -0.00006
    D4        3.14155   0.00000   0.00000  -0.00001  -0.00001   3.14154
    D5        0.00000   0.00000   0.00000   0.00001   0.00001   0.00001
    D6        3.14158   0.00000   0.00000   0.00003   0.00003  -3.14158
    D7       -3.14159   0.00000   0.00000  -0.00001  -0.00001   3.14159
    D8       -0.00001   0.00000   0.00000   0.00001   0.00001   0.00001
         Item               Value     Threshold  Converged?
 Maximum Force            0.017836     0.000450     NO 
 RMS     Force            0.004968     0.000300     NO 
 Maximum Displacement     0.051216     0.001800     NO 
 RMS     Displacement     0.022225     0.001200     NO 
 Predicted change in Energy=-7.427509D-04
 Lowest energy point so far.  Saving SCF results.
 GradGradGradGradGradGradGradGradGradGradGradGradGradGradGradGradGradGrad

 Leave Link  103 at Thu Aug 20 12:42:38 2020, MaxMem=  2147483648 cpu:         1.2
 (Enter /opt/cluster/programs/g09/g09_d.01/g09/l202.exe)
                          Input orientation:                          
 ---------------------------------------------------------------------
 Center     Atomic      Atomic             Coordinates (Angstroms)
 Number     Number       Type             X           Y           Z
 ---------------------------------------------------------------------
      1          6           0       -5.005122   -1.381610    0.893595
      2          8           0       -3.926713   -0.875818    0.657460
      3          6           0       -5.199919   -2.815364    1.146656
      4          6           0       -6.409921   -3.313553    1.400721
      5          1           0       -4.314357   -3.432460    1.114600
      6          1           0       -7.282066   -2.676166    1.427649
      7          1           0       -6.562866   -4.365727    1.587902
      8          1           0       -5.918955   -0.765762    0.929906
 ---------------------------------------------------------------------
                    Distance matrix (angstroms):
                    1          2          3          4          5
     1  C    0.000000
     2  O    1.214311   0.000000
     3  C    1.468890   2.371119   0.000000
     4  C    2.441934   3.558274   1.332984   0.000000
     5  H    2.175313   2.625960   1.079840   2.118346   0.000000
     6  H    2.673118   3.884950   2.105627   1.080566   3.078518
     7  H    3.437089   4.471520   2.110911   1.079582   2.480079
     8  H    1.102578   2.013794   2.182856   2.637035   3.117711
                    6          7          8
     6  H    0.000000
     7  H    1.843243   0.000000
     8  H    2.399055   3.715821   0.000000
 Stoichiometry    C3H4O
 Framework group  C1[X(C3H4O)]
 Deg. of freedom    18
 Full point group                 C1      NOp   1
 RotChk:  IX=0 Diff= 1.31D-02
 Largest Abelian subgroup         C1      NOp   1
 Largest concise Abelian subgroup C1      NOp   1
                         Standard orientation:                         
 ---------------------------------------------------------------------
 Center     Atomic      Atomic             Coordinates (Angstroms)
 Number     Number       Type             X           Y           Z
 ---------------------------------------------------------------------
      1          6           0       -0.673317    0.353514   -0.000014
      2          8           0       -1.789205   -0.125385    0.000003
      3          6           0        0.560461   -0.443626    0.000003
      4          6           0        1.759207    0.139342    0.000001
      5          1           0        0.438004   -1.516500    0.000005
      6          1           0        1.857017    1.215473   -0.000005
      7          1           0        2.671365   -0.438124   -0.000003
      8          1           0       -0.530854    1.446849    0.000035
 ---------------------------------------------------------------------
 Rotational constants (GHZ):     48.3799168      4.6642047      4.2540781
 Leave Link  202 at Thu Aug 20 12:42:38 2020, MaxMem=  2147483648 cpu:         0.0
 (Enter /opt/cluster/programs/g09/g09_d.01/g09/l301.exe)
 Standard basis: def2QZVP (5D, 7F)
 Ernie: Thresh=  0.10000D-02 Tol=  0.10000D-05 Strict=F.
 There are   428 symmetry adapted cartesian basis functions of A   symmetry.
 There are   348 symmetry adapted basis functions of A   symmetry.
   348 basis functions,   520 primitive gaussians,   428 cartesian basis functions
    15 alpha electrons       15 beta electrons
       nuclear repulsion energy       103.2263945521 Hartrees.
 IExCor=  419 DFT=T Ex+Corr=B2PLYPD3 ExCW=0 ScaHFX=  0.530000
 ScaDFX=  0.470000  0.470000  0.730000  0.730000 ScalE2=  0.270000  0.270000
 IRadAn=      0 IRanWt=     -1 IRanGd=            0 ICorTp=0 IEmpDi=141
 NAtoms=    8 NActive=    8 NUniq=    8 SFac= 1.00D+00 NAtFMM=   60 NAOKFM=F Big=F
 Integral buffers will be    131072 words long.
 Regular integral format.
 Two-electron integral symmetry is turned on.
 R6Disp:  Grimme-D3(BJ) Dispersion energy=       -0.0035837759 Hartrees.
 Nuclear repulsion after empirical dispersion term =      103.2228107762 Hartrees.
 Leave Link  301 at Thu Aug 20 12:42:38 2020, MaxMem=  2147483648 cpu:         0.4
 (Enter /opt/cluster/programs/g09/g09_d.01/g09/l302.exe)
 NPDir=0 NMtPBC=     1 NCelOv=     1 NCel=       1 NClECP=     1 NCelD=      1
         NCelK=      1 NCelE2=     1 NClLst=     1 CellRange=     0.0.
 One-electron integrals computed using PRISM.
   1 Symmetry operations used in ECPInt.
 ECPInt:  NShTT=    5886 NPrTT=   14376 LenC2=    5780 LenP2D=   12178.
 LDataN:  DoStor=T MaxTD1= 8 Len=  415
 NBasis=   348 RedAO= T EigKep=  5.79D-05  NBF=   348
 NBsUse=   348 1.00D-06 EigRej= -1.00D+00 NBFU=   348
 Precomputing XC quadrature grid using
 IXCGrd= 4 IRadAn=           0 IRanWt=          -1 IRanGd=           0 AccXCQ= 0.00D+00.
 Generated NRdTot=       0 NPtTot=           0 NUsed=           0 NTot=          32
 NSgBfM=   428   428   428   428   428 MxSgAt=     8 MxSgA2=     8.
 Leave Link  302 at Thu Aug 20 12:42:39 2020, MaxMem=  2147483648 cpu:         3.1
 (Enter /opt/cluster/programs/g09/g09_d.01/g09/l303.exe)
 DipDrv:  MaxL=1.
 Leave Link  303 at Thu Aug 20 12:42:39 2020, MaxMem=  2147483648 cpu:         0.3
 (Enter /opt/cluster/programs/g09/g09_d.01/g09/l401.exe)
 Initial guess from the checkpoint file:  "acrolein_opt.chk"
 B after Tr=     0.000000    0.000000    0.000000
         Rot=    0.999999    0.000000    0.000000   -0.001333 Ang=  -0.15 deg.
 Guess basis will be translated and rotated to current coordinates.
 JPrj=2 DoOrth=T DoCkMO=T.
 Generating alternative initial guess.
 ExpMin= 7.60D-02 ExpMax= 1.17D+05 ExpMxC= 1.13D+03 IAcc=2 IRadAn=         4 AccDes= 0.00D+00
 Harris functional with IExCor=  419 and IRadAn=       4 diagonalized for initial guess.
 HarFok:  IExCor=  419 AccDes= 0.00D+00 IRadAn=         4 IDoV= 1 UseB2=F ITyADJ=14
 ICtDFT=  3500011 ScaDFX=  1.000000  1.000000  1.000000  1.000000
 FoFCou: FMM=F IPFlag=           0 FMFlag=      100000 FMFlg1=           0
         NFxFlg=           0 DoJE=T BraDBF=F KetDBF=T FulRan=T
         wScrn=  0.000000 ICntrl=     500 IOpCl=  0 I1Cent=   200000004 NGrid=           0
         NMat0=    1 NMatS0=      1 NMatT0=    0 NMatD0=    1 NMtDS0=    0 NMtDT0=    0
 Petite list used in FoFCou.
 Harris En= -192.048118005058    
 Leave Link  401 at Thu Aug 20 12:42:40 2020, MaxMem=  2147483648 cpu:         7.9
 (Enter /opt/cluster/programs/g09/g09_d.01/g09/l502.exe)
 Closed shell SCF:
 Using DIIS extrapolation, IDIIS=  1040.
 Integral symmetry usage will be decided dynamically.
 Keep R1 ints in memory in canonical form, NReq=1883905047.
 IVT=      574566 IEndB=      574566 NGot=  2147483648 MDV=   303055182
 LenX=   303055182 LenY=   302871557
 Requested convergence on RMS density matrix=1.00D-08 within 128 cycles.
 Requested convergence on MAX density matrix=1.00D-06.
 Requested convergence on             energy=1.00D-06.
 No special actions if energy rises.
 FoFCou: FMM=F IPFlag=           0 FMFlag=           0 FMFlg1=           0
         NFxFlg=           0 DoJE=F BraDBF=F KetDBF=F FulRan=T
         wScrn=  0.000000 ICntrl=     600 IOpCl=  0 I1Cent=           0 NGrid=           0
         NMat0=    1 NMatS0=  60726 NMatT0=    0 NMatD0=    1 NMtDS0=    0 NMtDT0=    0
 Symmetry not used in FoFCou.
 Integral accuracy reduced to 1.0D-05 until final iterations.

 Cycle   1  Pass 0  IDiag  1:
 E= -191.616578436334    
 DIIS: error= 1.29D-03 at cycle   1 NSaved=   1.
 NSaved= 1 IEnMin= 1 EnMin= -191.616578436334     IErMin= 1 ErrMin= 1.29D-03
 ErrMax= 1.29D-03  0.00D+00 EMaxC= 1.00D-01 BMatC= 8.63D-04 BMatP= 8.63D-04
 IDIUse=3 WtCom= 9.87D-01 WtEn= 1.29D-02
 Coeff-Com:  0.100D+01
 Coeff-En:   0.100D+01
 Coeff:      0.100D+01
 Gap=     1.504 Goal=   None    Shift=    0.000
 GapD=    1.504 DampG=2.000 DampE=1.000 DampFc=2.0000 IDamp=-1.
 RMSDP=7.68D-05 MaxDP=2.93D-03              OVMax= 8.38D-03

 Cycle   2  Pass 0  IDiag  1:
 E= -191.617318904441     Delta-E=       -0.000740468107 Rises=F Damp=F
 DIIS: error= 2.87D-04 at cycle   2 NSaved=   2.
 NSaved= 2 IEnMin= 2 EnMin= -191.617318904441     IErMin= 2 ErrMin= 2.87D-04
 ErrMax= 2.87D-04  0.00D+00 EMaxC= 1.00D-01 BMatC= 2.84D-05 BMatP= 8.63D-04
 IDIUse=3 WtCom= 9.97D-01 WtEn= 2.87D-03
 Coeff-Com: -0.542D-01 0.105D+01
 Coeff-En:   0.000D+00 0.100D+01
 Coeff:     -0.540D-01 0.105D+01
 Gap=     0.320 Goal=   None    Shift=    0.000
 RMSDP=2.43D-05 MaxDP=2.12D-03 DE=-7.40D-04 OVMax= 2.54D-03

 Cycle   3  Pass 0  IDiag  1:
 E= -191.617342313511     Delta-E=       -0.000023409070 Rises=F Damp=F
 DIIS: error= 3.09D-04 at cycle   3 NSaved=   3.
 NSaved= 3 IEnMin= 3 EnMin= -191.617342313511     IErMin= 2 ErrMin= 2.87D-04
 ErrMax= 3.09D-04  0.00D+00 EMaxC= 1.00D-01 BMatC= 1.39D-05 BMatP= 2.84D-05
 IDIUse=3 WtCom= 9.97D-01 WtEn= 3.09D-03
 Coeff-Com: -0.498D-01 0.438D+00 0.612D+00
 Coeff-En:   0.000D+00 0.000D+00 0.100D+01
 Coeff:     -0.496D-01 0.437D+00 0.613D+00
 Gap=     0.321 Goal=   None    Shift=    0.000
 RMSDP=9.95D-06 MaxDP=1.03D-03 DE=-2.34D-05 OVMax= 1.23D-03

 Cycle   4  Pass 0  IDiag  1:
 E= -191.617351046529     Delta-E=       -0.000008733018 Rises=F Damp=F
 DIIS: error= 1.21D-04 at cycle   4 NSaved=   4.
 NSaved= 4 IEnMin= 4 EnMin= -191.617351046529     IErMin= 4 ErrMin= 1.21D-04
 ErrMax= 1.21D-04  0.00D+00 EMaxC= 1.00D-01 BMatC= 2.11D-06 BMatP= 1.39D-05
 IDIUse=3 WtCom= 9.99D-01 WtEn= 1.21D-03
 Coeff-Com: -0.161D-01 0.778D-01 0.301D+00 0.637D+00
 Coeff-En:   0.000D+00 0.000D+00 0.267D-01 0.973D+00
 Coeff:     -0.161D-01 0.777D-01 0.300D+00 0.638D+00
 Gap=     0.321 Goal=   None    Shift=    0.000
 RMSDP=3.10D-06 MaxDP=2.54D-04 DE=-8.73D-06 OVMax= 4.70D-04

 Initial convergence to 1.0D-05 achieved.  Increase integral accuracy.
 Cycle   5  Pass 1  IDiag  1:
 E= -191.617344975434     Delta-E=        0.000006071095 Rises=F Damp=F
 DIIS: error= 3.51D-05 at cycle   1 NSaved=   1.
 NSaved= 1 IEnMin= 1 EnMin= -191.617344975434     IErMin= 1 ErrMin= 3.51D-05
 ErrMax= 3.51D-05  0.00D+00 EMaxC= 1.00D-01 BMatC= 1.97D-07 BMatP= 1.97D-07
 IDIUse=1 WtCom= 1.00D+00 WtEn= 0.00D+00
 Coeff-Com:  0.100D+01
 Coeff:      0.100D+01
 Gap=     0.321 Goal=   None    Shift=    0.000
 RMSDP=3.10D-06 MaxDP=2.54D-04 DE= 6.07D-06 OVMax= 2.37D-04

 Cycle   6  Pass 1  IDiag  1:
 E= -191.617344951704     Delta-E=        0.000000023730 Rises=F Damp=F
 DIIS: error= 4.49D-05 at cycle   2 NSaved=   2.
 NSaved= 2 IEnMin= 1 EnMin= -191.617344975434     IErMin= 1 ErrMin= 3.51D-05
 ErrMax= 4.49D-05  0.00D+00 EMaxC= 1.00D-01 BMatC= 2.36D-07 BMatP= 1.97D-07
 IDIUse=1 WtCom= 1.00D+00 WtEn= 0.00D+00
 Coeff-Com:  0.525D+00 0.475D+00
 Coeff:      0.525D+00 0.475D+00
 Gap=     0.321 Goal=   None    Shift=    0.000
 RMSDP=8.62D-07 MaxDP=6.70D-05 DE= 2.37D-08 OVMax= 1.63D-04

 Cycle   7  Pass 1  IDiag  1:
 E= -191.617345127881     Delta-E=       -0.000000176177 Rises=F Damp=F
 DIIS: error= 8.66D-06 at cycle   3 NSaved=   3.
 NSaved= 3 IEnMin= 3 EnMin= -191.617345127881     IErMin= 3 ErrMin= 8.66D-06
 ErrMax= 8.66D-06  0.00D+00 EMaxC= 1.00D-01 BMatC= 1.05D-08 BMatP= 1.97D-07
 IDIUse=1 WtCom= 1.00D+00 WtEn= 0.00D+00
 Coeff-Com:  0.960D-01 0.191D+00 0.713D+00
 Coeff:      0.960D-01 0.191D+00 0.713D+00
 Gap=     0.321 Goal=   None    Shift=    0.000
 RMSDP=2.28D-07 MaxDP=1.40D-05 DE=-1.76D-07 OVMax= 3.07D-05

 Cycle   8  Pass 1  IDiag  1:
 E= -191.617345134726     Delta-E=       -0.000000006845 Rises=F Damp=F
 DIIS: error= 1.69D-06 at cycle   4 NSaved=   4.
 NSaved= 4 IEnMin= 4 EnMin= -191.617345134726     IErMin= 4 ErrMin= 1.69D-06
 ErrMax= 1.69D-06  0.00D+00 EMaxC= 1.00D-01 BMatC= 7.13D-10 BMatP= 1.05D-08
 IDIUse=1 WtCom= 1.00D+00 WtEn= 0.00D+00
 Coeff-Com: -0.208D-01 0.197D-01 0.246D+00 0.755D+00
 Coeff:     -0.208D-01 0.197D-01 0.246D+00 0.755D+00
 Gap=     0.321 Goal=   None    Shift=    0.000
 RMSDP=1.07D-07 MaxDP=1.08D-05 DE=-6.84D-09 OVMax= 7.66D-06

 Cycle   9  Pass 1  IDiag  1:
 E= -191.617345135366     Delta-E=       -0.000000000640 Rises=F Damp=F
 DIIS: error= 3.85D-07 at cycle   5 NSaved=   5.
 NSaved= 5 IEnMin= 5 EnMin= -191.617345135366     IErMin= 5 ErrMin= 3.85D-07
 ErrMax= 3.85D-07  0.00D+00 EMaxC= 1.00D-01 BMatC= 1.31D-11 BMatP= 7.13D-10
 IDIUse=1 WtCom= 1.00D+00 WtEn= 0.00D+00
 Coeff-Com: -0.521D-02-0.234D-02 0.248D-01 0.110D+00 0.873D+00
 Coeff:     -0.521D-02-0.234D-02 0.248D-01 0.110D+00 0.873D+00
 Gap=     0.321 Goal=   None    Shift=    0.000
 RMSDP=1.43D-08 MaxDP=6.60D-07 DE=-6.40D-10 OVMax= 3.85D-06

 Cycle  10  Pass 1  IDiag  1:
 E= -191.617345135381     Delta-E=       -0.000000000015 Rises=F Damp=F
 DIIS: error= 2.28D-07 at cycle   6 NSaved=   6.
 NSaved= 6 IEnMin= 6 EnMin= -191.617345135381     IErMin= 6 ErrMin= 2.28D-07
 ErrMax= 2.28D-07  0.00D+00 EMaxC= 1.00D-01 BMatC= 7.83D-12 BMatP= 1.31D-11
 IDIUse=1 WtCom= 1.00D+00 WtEn= 0.00D+00
 Coeff-Com:  0.177D-02-0.599D-02-0.396D-01-0.108D+00 0.440D+00 0.713D+00
 Coeff:      0.177D-02-0.599D-02-0.396D-01-0.108D+00 0.440D+00 0.713D+00
 Gap=     0.321 Goal=   None    Shift=    0.000
 RMSDP=8.88D-09 MaxDP=7.79D-07 DE=-1.52D-11 OVMax= 8.49D-07

 SCF Done:  E(RB2PLYPD3) =  -191.617345135     A.U. after   10 cycles
            NFock= 10  Conv=0.89D-08     -V/T= 2.0033
 KE= 1.909833542386D+02 PE=-6.544992000901D+02 EE= 1.686756899399D+02
 Leave Link  502 at Thu Aug 20 12:43:35 2020, MaxMem=  2147483648 cpu:       252.7
 (Enter /opt/cluster/programs/g09/g09_d.01/g09/l801.exe)
 DoSCS=T DFT=T ScalE2(SS,OS)=  0.270000  0.270000
 ExpMin= 7.60D-02 ExpMax= 1.17D+05 ExpMxC= 1.13D+03 IAcc=3 IRadAn=         5 AccDes= 0.00D+00
 HarFok:  IExCor=  205 AccDes= 0.00D+00 IRadAn=         5 IDoV=-2 UseB2=F ITyADJ=14
 ICtDFT= 12500011 ScaDFX=  1.000000  1.000000  1.000000  1.000000
 Largest valence mixing into a core orbital is  1.15D-04
 Largest core mixing into a valence orbital is  1.89D-05
 Range of M.O.s used for correlation:     5   348
 NBasis=   348 NAE=    15 NBE=    15 NFC=     4 NFV=     0
 NROrb=    344 NOA=    11 NOB=    11 NVA=   333 NVB=   333

 **** Warning!!: The largest alpha MO coefficient is  0.31099570D+02

 Leave Link  801 at Thu Aug 20 12:43:36 2020, MaxMem=  2147483648 cpu:         0.8
 (Enter /opt/cluster/programs/g09/g09_d.01/g09/l906.exe)
 DoSCS=T DFT=T ScalE2(SS,OS)=  0.270000  0.270000
 Frozen-core derivative calculation, NFC=   4 NFV=   0.
 FulOut=F Deriv=T AODrv=T NAtomX=     8
   MMem=          54  MDisk=          11 MDiskD=          11
  W3Min=     2234160 MinDsk=     4361458 NBas6D=         428
 NBas2D=       93150    NTT=       91806    LW2=     9246618
    MDV=  2146178204 MDiskM=       11132 NBas2p=       89946
 Fully direct method using O(ONN) memory.
 IMap=   1   2   3   4   5   6   7   8   9  10  11  12  13  14  15
 JobTyp=1 Pass  1:  I=   5 to   9 NPSUse=  8 ParTrn=T ParDer=T DoDerP=T.
 JobTyp=1 Pass  2:  I=  10 to  14 NPSUse=  8 ParTrn=T ParDer=T DoDerP=T.
 JobTyp=1 Pass  3:  I=  15 to  15 NPSUse=  8 ParTrn=T ParDer=T DoDerP=T.
 Spin components of T(2) and E(2):
     alpha-alpha T2 =       0.4373856917D-01 E2=     -0.2947243681D-01
     alpha-beta  T2 =       0.2666876553D+00 E2=     -0.1882094147D+00
     beta-beta   T2 =       0.4373856917D-01 E2=     -0.2947243681D-01
 The integrals were generated   3 times.
 E2(B2PLYPD3) =    -0.2471542883D+00 E(B2PLYPD3) =    -0.19186449942368D+03
 Leave Link  906 at Thu Aug 20 12:49:40 2020, MaxMem=  2147483648 cpu:      2905.2
 (Enter /opt/cluster/programs/g09/g09_d.01/g09/l1002.exe)
 Minotr:  Closed shell wavefunction.
          Computing MP2/KS-MP2 derivatives.
          Using Z-Vector for PSCF gradient.
          Skipping F1 and S1 gradient terms here.
          IDoAtm=11111111
          Frozen-core window.
          Direct CPHF calculation.
          Differentiating once with respect to electric field.
                with respect to dipole field.
          Differentiating once with respect to nuclear coordinates.
          Requested convergence is 1.0D-10 RMS, and 1.0D-09 maximum.
          NewPWx=F KeepS1=T KeepF1=T KeepIn=T MapXYZ=F SortEE=F KeepMc=T.
          MDV=    2147483220 using IRadAn=       0.
 Using stored XC quadrature information.
 Keep R1 ints in memory in canonical form, NReq=1883332920.
 FoFCou: FMM=F IPFlag=           0 FMFlag=           0 FMFlg1=           0
         NFxFlg=           0 DoJE=F BraDBF=F KetDBF=F FulRan=T
         wScrn=  0.000000 ICntrl=     600 IOpCl=  0 I1Cent=           0 NGrid=           0
         NMat0=    1 NMatS0=  60726 NMatT0=    0 NMatD0=    1 NMtDS0=    0 NMtDT0=    0
 Symmetry not used in FoFCou.
          Solving linear equations separately, MaxMat=       0.
          There are     1 degrees of freedom in the 1st order CPHF.  IDoFFX=0 NUNeed=     1.
 LinEq1:  Iter=  0 NonCon=     1 RMS=1.46D-03 Max=4.89D-02 NDo=     1
 AX will form     1 AO Fock derivatives at one time.
 LinEq1:  Iter=  1 NonCon=     1 RMS=6.74D-04 Max=1.66D-02 NDo=     1
 LinEq1:  Iter=  2 NonCon=     1 RMS=2.78D-04 Max=5.24D-03 NDo=     1
 LinEq1:  Iter=  3 NonCon=     1 RMS=1.50D-04 Max=3.78D-03 NDo=     1
 LinEq1:  Iter=  4 NonCon=     1 RMS=2.61D-05 Max=7.09D-04 NDo=     1
 LinEq1:  Iter=  5 NonCon=     1 RMS=7.42D-06 Max=9.70D-05 NDo=     1
 LinEq1:  Iter=  6 NonCon=     1 RMS=2.89D-06 Max=7.64D-05 NDo=     1
 LinEq1:  Iter=  7 NonCon=     1 RMS=6.74D-07 Max=2.65D-05 NDo=     1
 LinEq1:  Iter=  8 NonCon=     1 RMS=3.49D-07 Max=7.74D-06 NDo=     1
 LinEq1:  Iter=  9 NonCon=     1 RMS=1.21D-07 Max=2.64D-06 NDo=     1
 LinEq1:  Iter= 10 NonCon=     1 RMS=3.08D-08 Max=5.63D-07 NDo=     1
 LinEq1:  Iter= 11 NonCon=     1 RMS=6.65D-09 Max=1.06D-07 NDo=     1
 LinEq1:  Iter= 12 NonCon=     1 RMS=1.15D-09 Max=1.70D-08 NDo=     1
 LinEq1:  Iter= 13 NonCon=     1 RMS=1.50D-10 Max=1.97D-09 NDo=     1
 LinEq1:  Iter= 14 NonCon=     0 RMS=2.64D-11 Max=3.15D-10 NDo=     1
 Linear equations converged to 1.000D-10 1.000D-09 after    14 iterations.
 End of Minotr F.D. properties file   721 does not exist.
 End of Minotr F.D. properties file   722 does not exist.
 End of Minotr F.D. properties file   788 does not exist.
 Leave Link 1002 at Thu Aug 20 12:51:03 2020, MaxMem=  2147483648 cpu:       363.5
 (Enter /opt/cluster/programs/g09/g09_d.01/g09/l701.exe)
 Compute integral first derivatives.
 ... and contract with generalized density number  2.
 R6Disp: Adding Grimme-D3(BJ) dispersion energy 1st derivatives to the gradient.
   1 Symmetry operations used in ECPInt.
 ECPInt:  NShTT=    5886 NPrTT=   14376 LenC2=    5780 LenP2D=   12178.
 LDataN:  DoStor=T MaxTD1= 9 Len=  602
 Leave Link  701 at Thu Aug 20 12:51:04 2020, MaxMem=  2147483648 cpu:         2.1
 (Enter /opt/cluster/programs/g09/g09_d.01/g09/l702.exe)
 L702 exits ... SP integral derivatives will be done elsewhere.
 Leave Link  702 at Thu Aug 20 12:51:05 2020, MaxMem=  2147483648 cpu:         0.1
 (Enter /opt/cluster/programs/g09/g09_d.01/g09/l703.exe)
 Compute integral first derivatives, UseDBF=F ICtDFT=           0.
 Integral derivatives from FoFJK, PRISM(SPDF).
 Calling FoFJK, ICntrl=  10002127 FMM=F ISym2X=0 I1Cent= 0 IOpClX= 0 NMat=1 NMatS=1 NMatT=0.
 FoFJK:  IHMeth= 1 ICntrl=10002127 DoSepK=F KAlg= 0 I1Cent=   0 FoldK=F
 IRaf=         0 NMat=   1 IRICut=       1 DoRegI=T DoRafI=F ISym2E= 0.
 FoFCou: FMM=F IPFlag=           0 FMFlag=      100000 FMFlg1=         800
         NFxFlg=           0 DoJE=F BraDBF=F KetDBF=F FulRan=T
         wScrn=  0.000000 ICntrl=10002127 IOpCl=  0 I1Cent=           0 NGrid=           0
         NMat0=    1 NMatS0=      1 NMatT0=    0 NMatD0=    1 NMtDS0=    0 NMtDT0=    0
 Symmetry not used in FoFCou.
 Leave Link  703 at Thu Aug 20 12:51:46 2020, MaxMem=  2147483648 cpu:       323.6
 (Enter /opt/cluster/programs/g09/g09_d.01/g09/l716.exe)
 Dipole        = 1.28710455D+00 2.64767999D-01-3.92212194D-06
 ***** Axes restored to original set *****
 -------------------------------------------------------------------
 Center     Atomic                   Forces (Hartrees/Bohr)
 Number     Number              X              Y              Z
 -------------------------------------------------------------------
      1        6           0.005231754    0.000973750   -0.000923048
      2        8          -0.003838179   -0.001846179    0.000850744
      3        6          -0.000478429    0.001175999   -0.000111488
      4        6           0.001054637   -0.001097932    0.000019258
      5        1           0.000353350   -0.000740253    0.000064699
      6        1          -0.000223154    0.000770844   -0.000088308
      7        1          -0.000295682    0.000486551   -0.000034050
      8        1          -0.001804296    0.000277220    0.000222193
 -------------------------------------------------------------------
 Cartesian Forces:  Max     0.005231754 RMS     0.001541285
 Leave Link  716 at Thu Aug 20 12:51:46 2020, MaxMem=  2147483648 cpu:         0.3
 (Enter /opt/cluster/programs/g09/g09_d.01/g09/l103.exe)

 GradGradGradGradGradGradGradGradGradGradGradGradGradGradGradGradGradGrad
 Berny optimization.
 Using GEDIIS/GDIIS optimizer.
 FormGI is forming the generalized inverse of G from B-inverse, IUseBI=4.
 Internal  Forces:  Max     0.004342969 RMS     0.001116873
 Search for a local minimum.
 Step number   2 out of a maximum of   34
 All quantities printed in internal units (Hartrees-Bohrs-Radians)
 RMS Force = .11169D-02 SwitMx=.10000D-02 MixMth= 1
 Mixed Optimization -- RFO/linear search
 Update second derivatives using D2CorX and points    1    2
 DE= -8.14D-04 DEPred=-7.43D-04 R= 1.10D+00
 TightC=F SS=  1.41D+00  RLast= 7.41D-02 DXNew= 5.0454D-01 2.2229D-01
 Trust test= 1.10D+00 RLast= 7.41D-02 DXMaxT set to 3.00D-01
 ITU=  1  0
 Use linear search instead of GDIIS.
     Eigenvalues ---    0.01083   0.01083   0.02055   0.02918   0.02918
     Eigenvalues ---    0.14699   0.16000   0.16000   0.16349   0.20823
     Eigenvalues ---    0.23862   0.33292   0.34785   0.35200   0.35444
     Eigenvalues ---    0.36819   0.57574   0.86002
 RFO step:  Lambda=-6.63792207D-05 EMin= 1.08256751D-02
 Quartic linear search produced a step of  0.10776.
 Iteration  1 RMS(Cart)=  0.01020266 RMS(Int)=  0.00004597
 Iteration  2 RMS(Cart)=  0.00004731 RMS(Int)=  0.00000002
 Iteration  3 RMS(Cart)=  0.00000000 RMS(Int)=  0.00000002
 ITry= 1 IFail=0 DXMaxC= 2.18D-02 DCOld= 1.00D+10 DXMaxT= 3.00D-01 DXLimC= 3.00D+00 Rises=F
 Variable       Old X    -DE/DX   Delta X   Delta X   Delta X     New X
                                 (Linear)    (Quad)   (Total)
    R1        2.29472  -0.00434  -0.00205  -0.00394  -0.00600   2.28872
    R2        2.77580  -0.00066  -0.00146  -0.00122  -0.00268   2.77312
    R3        2.08357   0.00166   0.00000   0.00550   0.00550   2.08907
    R4        2.51897  -0.00057  -0.00088  -0.00057  -0.00144   2.51753
    R5        2.04060   0.00071  -0.00078   0.00268   0.00190   2.04250
    R6        2.04197   0.00063  -0.00101   0.00259   0.00157   2.04355
    R7        2.04011  -0.00044  -0.00134  -0.00058  -0.00192   2.03820
    A1        2.16257   0.00049   0.00490  -0.00049   0.00441   2.16698
    A2        2.10576   0.00059  -0.00311   0.00639   0.00328   2.10904
    A3        2.01485  -0.00107  -0.00179  -0.00589  -0.00769   2.00717
    A4        2.11533  -0.00137   0.00072  -0.00732  -0.00659   2.10873
    A5        2.03078   0.00111  -0.00039   0.00660   0.00621   2.03699
    A6        2.13708   0.00026  -0.00034   0.00072   0.00038   2.13746
    A7        2.11408  -0.00093  -0.00272  -0.00479  -0.00750   2.10657
    A8        2.12457   0.00084   0.00286   0.00406   0.00691   2.13148
    A9        2.04454   0.00009  -0.00014   0.00073   0.00059   2.04513
    D1       -3.14158   0.00000   0.00001  -0.00029  -0.00028   3.14133
    D2        0.00003   0.00000   0.00001  -0.00031  -0.00030  -0.00028
    D3       -0.00006   0.00000   0.00000   0.00033   0.00032   0.00026
    D4        3.14154   0.00000   0.00000   0.00030   0.00030  -3.14134
    D5        0.00001   0.00000   0.00000  -0.00001  -0.00001  -0.00001
    D6       -3.14158   0.00000   0.00000  -0.00004  -0.00004   3.14157
    D7        3.14159   0.00000   0.00000   0.00001   0.00001  -3.14159
    D8        0.00001   0.00000   0.00000  -0.00001  -0.00001  -0.00001
         Item               Value     Threshold  Converged?
 Maximum Force            0.004343     0.000450     NO 
 RMS     Force            0.001117     0.000300     NO 
 Maximum Displacement     0.021837     0.001800     NO 
 RMS     Displacement     0.010214     0.001200     NO 
 Predicted change in Energy=-4.117266D-05
 Lowest energy point so far.  Saving SCF results.
 GradGradGradGradGradGradGradGradGradGradGradGradGradGradGradGradGradGrad

 Leave Link  103 at Thu Aug 20 12:51:46 2020, MaxMem=  2147483648 cpu:         0.1
 (Enter /opt/cluster/programs/g09/g09_d.01/g09/l202.exe)
                          Input orientation:                          
 ---------------------------------------------------------------------
 Center     Atomic      Atomic             Coordinates (Angstroms)
 Number     Number       Type             X           Y           Z
 ---------------------------------------------------------------------
      1          6           0       -5.005217   -1.384651    0.893917
      2          8           0       -3.933722   -0.871757    0.657920
      3          6           0       -5.195004   -2.817746    1.146278
      4          6           0       -6.406013   -3.311671    1.399862
      5          1           0       -4.310340   -3.437914    1.114875
      6          1           0       -7.272117   -2.664610    1.424344
      7          1           0       -6.569546   -4.361001    1.588200
      8          1           0       -5.927961   -0.777109    0.933095
 ---------------------------------------------------------------------
                    Distance matrix (angstroms):
                    1          2          3          4          5
     1  C    0.000000
     2  O    1.211138   0.000000
     3  C    1.467470   2.369852   0.000000
     4  C    2.435491   3.551884   1.332220   0.000000
     5  H    2.178891   2.633593   1.080844   2.118726   0.000000
     6  H    2.656781   3.866085   2.101231   1.081399   3.076670
     7  H    3.433338   4.470773   2.113361   1.078567   2.485988
     8  H    1.105486   2.015358   2.178732   2.621147   3.119235
                    6          7          8
     6  H    0.000000
     7  H    1.843420   0.000000
     8  H    2.368701   3.699334   0.000000
 Stoichiometry    C3H4O
 Framework group  C1[X(C3H4O)]
 Deg. of freedom    18
 Full point group                 C1      NOp   1
 RotChk:  IX=2 Diff= 3.26D-03
 Largest Abelian subgroup         C1      NOp   1
 Largest concise Abelian subgroup C1      NOp   1
                         Standard orientation:                         
 ---------------------------------------------------------------------
 Center     Atomic      Atomic             Coordinates (Angstroms)
 Number     Number       Type             X           Y           Z
 ---------------------------------------------------------------------
      1          6           0       -0.671601    0.349665    0.000130
      2          8           0       -1.787154   -0.121923   -0.000070
      3          6           0        0.560161   -0.447977    0.000034
      4          6           0        1.754962    0.141311   -0.000036
      5          1           0        0.443155   -1.522469    0.000032
      6          1           0        1.838768    1.219457   -0.000028
      7          1           0        2.673388   -0.424199   -0.000090
      8          1           0       -0.519209    1.444597   -0.000122
 ---------------------------------------------------------------------
 Rotational constants (GHZ):     48.3044230      4.6811902      4.2676149
 Leave Link  202 at Thu Aug 20 12:51:46 2020, MaxMem=  2147483648 cpu:         0.0
 (Enter /opt/cluster/programs/g09/g09_d.01/g09/l301.exe)
 Standard basis: def2QZVP (5D, 7F)
 Ernie: Thresh=  0.10000D-02 Tol=  0.10000D-05 Strict=F.
 There are   428 symmetry adapted cartesian basis functions of A   symmetry.
 There are   348 symmetry adapted basis functions of A   symmetry.
   348 basis functions,   520 primitive gaussians,   428 cartesian basis functions
    15 alpha electrons       15 beta electrons
       nuclear repulsion energy       103.3505732859 Hartrees.
 IExCor=  419 DFT=T Ex+Corr=B2PLYPD3 ExCW=0 ScaHFX=  0.530000
 ScaDFX=  0.470000  0.470000  0.730000  0.730000 ScalE2=  0.270000  0.270000
 IRadAn=      0 IRanWt=     -1 IRanGd=            0 ICorTp=0 IEmpDi=141
 NAtoms=    8 NActive=    8 NUniq=    8 SFac= 1.00D+00 NAtFMM=   60 NAOKFM=F Big=F
 Integral buffers will be    131072 words long.
 Regular integral format.
 Two-electron integral symmetry is turned on.
 R6Disp:  Grimme-D3(BJ) Dispersion energy=       -0.0035877216 Hartrees.
 Nuclear repulsion after empirical dispersion term =      103.3469855643 Hartrees.
 Leave Link  301 at Thu Aug 20 12:51:46 2020, MaxMem=  2147483648 cpu:         0.4
 (Enter /opt/cluster/programs/g09/g09_d.01/g09/l302.exe)
 NPDir=0 NMtPBC=     1 NCelOv=     1 NCel=       1 NClECP=     1 NCelD=      1
         NCelK=      1 NCelE2=     1 NClLst=     1 CellRange=     0.0.
 One-electron integrals computed using PRISM.
   1 Symmetry operations used in ECPInt.
 ECPInt:  NShTT=    5886 NPrTT=   14376 LenC2=    5780 LenP2D=   12182.
 LDataN:  DoStor=T MaxTD1= 8 Len=  415
 NBasis=   348 RedAO= T EigKep=  5.77D-05  NBF=   348
 NBsUse=   348 1.00D-06 EigRej= -1.00D+00 NBFU=   348
 Precomputing XC quadrature grid using
 IXCGrd= 4 IRadAn=           0 IRanWt=          -1 IRanGd=           0 AccXCQ= 0.00D+00.
 Generated NRdTot=       0 NPtTot=           0 NUsed=           0 NTot=          32
 NSgBfM=   428   428   428   428   428 MxSgAt=     8 MxSgA2=     8.
 Leave Link  302 at Thu Aug 20 12:51:46 2020, MaxMem=  2147483648 cpu:         2.5
 (Enter /opt/cluster/programs/g09/g09_d.01/g09/l303.exe)
 DipDrv:  MaxL=1.
 Leave Link  303 at Thu Aug 20 12:51:46 2020, MaxMem=  2147483648 cpu:         0.4
 (Enter /opt/cluster/programs/g09/g09_d.01/g09/l401.exe)
 Initial guess from the checkpoint file:  "acrolein_opt.chk"
 B after Tr=     0.000000    0.000000    0.000000
         Rot=    1.000000    0.000000    0.000000   -0.000225 Ang=  -0.03 deg.
 Guess basis will be translated and rotated to current coordinates.
 JPrj=2 DoOrth=T DoCkMO=T.
 Generating alternative initial guess.
 ExpMin= 7.60D-02 ExpMax= 1.17D+05 ExpMxC= 1.13D+03 IAcc=2 IRadAn=         4 AccDes= 0.00D+00
 Harris functional with IExCor=  419 and IRadAn=       4 diagonalized for initial guess.
 HarFok:  IExCor=  419 AccDes= 0.00D+00 IRadAn=         4 IDoV= 1 UseB2=F ITyADJ=14
 ICtDFT=  3500011 ScaDFX=  1.000000  1.000000  1.000000  1.000000
 FoFCou: FMM=F IPFlag=           0 FMFlag=      100000 FMFlg1=           0
         NFxFlg=           0 DoJE=T BraDBF=F KetDBF=T FulRan=T
         wScrn=  0.000000 ICntrl=     500 IOpCl=  0 I1Cent=   200000004 NGrid=           0
         NMat0=    1 NMatS0=      1 NMatT0=    0 NMatD0=    1 NMtDS0=    0 NMtDT0=    0
 Petite list used in FoFCou.
 Harris En= -192.048327160883    
 Leave Link  401 at Thu Aug 20 12:51:47 2020, MaxMem=  2147483648 cpu:         7.4
 (Enter /opt/cluster/programs/g09/g09_d.01/g09/l502.exe)
 Closed shell SCF:
 Using DIIS extrapolation, IDIIS=  1040.
 Integral symmetry usage will be decided dynamically.
 Keep R1 ints in memory in canonical form, NReq=1883905047.
 IVT=      574566 IEndB=      574566 NGot=  2147483648 MDV=   303055182
 LenX=   303055182 LenY=   302871557
 Requested convergence on RMS density matrix=1.00D-08 within 128 cycles.
 Requested convergence on MAX density matrix=1.00D-06.
 Requested convergence on             energy=1.00D-06.
 No special actions if energy rises.
 FoFCou: FMM=F IPFlag=           0 FMFlag=           0 FMFlg1=           0
         NFxFlg=           0 DoJE=F BraDBF=F KetDBF=F FulRan=T
         wScrn=  0.000000 ICntrl=     600 IOpCl=  0 I1Cent=           0 NGrid=           0
         NMat0=    1 NMatS0=  60726 NMatT0=    0 NMatD0=    1 NMtDS0=    0 NMtDT0=    0
 Symmetry not used in FoFCou.
 Integral accuracy reduced to 1.0D-05 until final iterations.

 Cycle   1  Pass 0  IDiag  1:
 E= -191.617468246649    
 DIIS: error= 3.68D-04 at cycle   1 NSaved=   1.
 NSaved= 1 IEnMin= 1 EnMin= -191.617468246649     IErMin= 1 ErrMin= 3.68D-04
 ErrMax= 3.68D-04  0.00D+00 EMaxC= 1.00D-01 BMatC= 6.57D-05 BMatP= 6.57D-05
 IDIUse=3 WtCom= 9.96D-01 WtEn= 3.68D-03
 Coeff-Com:  0.100D+01
 Coeff-En:   0.100D+01
 Coeff:      0.100D+01
 Gap=     1.490 Goal=   None    Shift=    0.000
 RMSDP=1.77D-05 MaxDP=6.49D-04              OVMax= 1.81D-03

 Cycle   2  Pass 0  IDiag  1:
 E= -191.617527517201     Delta-E=       -0.000059270552 Rises=F Damp=F
 DIIS: error= 1.26D-04 at cycle   2 NSaved=   2.
 NSaved= 2 IEnMin= 2 EnMin= -191.617527517201     IErMin= 2 ErrMin= 1.26D-04
 ErrMax= 1.26D-04  0.00D+00 EMaxC= 1.00D-01 BMatC= 3.28D-06 BMatP= 6.57D-05
 IDIUse=3 WtCom= 9.99D-01 WtEn= 1.26D-03
 Coeff-Com: -0.299D-01 0.103D+01
 Coeff-En:   0.000D+00 0.100D+01
 Coeff:     -0.299D-01 0.103D+01
 Gap=     0.321 Goal=   None    Shift=    0.000
 RMSDP=7.18D-06 MaxDP=6.75D-04 DE=-5.93D-05 OVMax= 8.75D-04

 Initial convergence to 1.0D-05 achieved.  Increase integral accuracy.
 Cycle   3  Pass 1  IDiag  1:
 E= -191.617518268552     Delta-E=        0.000009248649 Rises=F Damp=F
 DIIS: error= 1.62D-04 at cycle   1 NSaved=   1.
 NSaved= 1 IEnMin= 1 EnMin= -191.617518268552     IErMin= 1 ErrMin= 1.62D-04
 ErrMax= 1.62D-04  0.00D+00 EMaxC= 1.00D-01 BMatC= 4.12D-06 BMatP= 4.12D-06
 IDIUse=3 WtCom= 9.98D-01 WtEn= 1.62D-03
 Coeff-Com:  0.100D+01
 Coeff-En:   0.100D+01
 Coeff:      0.100D+01
 Gap=     0.322 Goal=   None    Shift=    0.000
 RMSDP=7.18D-06 MaxDP=6.75D-04 DE= 9.25D-06 OVMax= 1.31D-03

 Cycle   4  Pass 1  IDiag  1:
 E= -191.617515019632     Delta-E=        0.000003248920 Rises=F Damp=F
 DIIS: error= 2.37D-04 at cycle   2 NSaved=   2.
 NSaved= 2 IEnMin= 1 EnMin= -191.617518268552     IErMin= 1 ErrMin= 1.62D-04
 ErrMax= 2.37D-04  0.00D+00 EMaxC= 1.00D-01 BMatC= 8.91D-06 BMatP= 4.12D-06
 IDIUse=3 WtCom= 3.94D-01 WtEn= 6.06D-01
 Coeff-Com:  0.596D+00 0.404D+00
 Coeff-En:   0.660D+00 0.340D+00
 Coeff:      0.635D+00 0.365D+00
[...]
     11  0.164834D-02 -0.133761D+00 -0.170500D+00  0.384428D-01  0.594124D-01
     12  0.221386D-02  0.811233D-01  0.371722D-01 -0.670324D-01 -0.105628D+00
     13 -0.639840D-03 -0.243669D+00  0.134806D+00  0.837488D-02 -0.182974D-01
     14 -0.589173D-03  0.135916D+00 -0.154454D+00 -0.193559D-02 -0.140841D-01
     15 -0.174123D-02  0.820112D-02 -0.177495D-02 -0.416567D-01  0.566107D-02
     16  0.222038D-03 -0.220263D-01  0.196286D-01  0.952251D-03 -0.232723D+00
     17  0.805327D-05 -0.892478D-02  0.119772D-01  0.311075D-03  0.137022D+00
     18  0.168799D-02  0.542867D-02 -0.384207D-02  0.549802D-02  0.678669D-02
     19  0.000000D+00  0.249125D-03 -0.320236D-01  0.630942D-02 -0.631373D-01
     20 -0.454618D-03  0.197459D-02 -0.568216D-02  0.203081D-02 -0.413317D-01
     21 -0.354170D-02  0.977801D-03  0.697604D-02  0.786472D-02  0.982212D-02
     22  0.977011D-02  0.145230D-02 -0.240105D-02  0.255764D-02  0.129900D-02
     23  0.142102D-02  0.270577D-01 -0.161747D-01  0.117397D-02  0.157628D-02
     24  0.170528D-01 -0.206175D-02  0.546432D-02  0.158843D-01 -0.603024D-03
               11            12            13            14            15 
     11  0.675472D+00
     12 -0.959477D-01  0.149065D+00
     13  0.181262D-01  0.610664D-03  0.257770D+00
     14  0.116698D-01  0.107207D-02 -0.145432D+00  0.156960D+00
     15 -0.361233D-02  0.518695D-02 -0.107432D-01  0.788279D-03  0.285409D-01
     16  0.133207D+00  0.738398D-02 -0.268230D-02 -0.261260D-02  0.247335D-02
     17 -0.163872D+00 -0.241267D-03 -0.198416D-02 -0.373671D-03  0.215156D-02
     18  0.313831D-03 -0.393610D-01  0.237477D-02  0.224317D-02  0.108106D-01
     19 -0.364554D-01  0.905747D-02  0.108567D-02  0.441273D-03 -0.129895D-02
     20 -0.333329D+00  0.519789D-01 -0.346608D-03  0.757151D-03 -0.122394D-02
     21  0.512689D-01 -0.496237D-01 -0.117549D-02 -0.133882D-02 -0.698981D-02
     22 -0.143580D-03 -0.333925D-03  0.222932D-03 -0.639056D-03  0.425602D-03
     23  0.593871D-03 -0.502460D-03 -0.119799D-02 -0.512141D-02  0.136294D-02
     24 -0.252569D-03 -0.102304D-02  0.512949D-03  0.128164D-02  0.218473D-02
               16            17            18            19            20 
     16  0.249275D+00
     17 -0.146813D+00  0.163307D+00
     18 -0.961417D-02 -0.355647D-03  0.263260D-01
     19  0.652178D-02  0.224298D-01 -0.391349D-02  0.599642D-01
     20 -0.472226D-02 -0.113782D-01  0.306605D-02  0.459895D-01  0.348513D+00
     21  0.344104D-03 -0.882414D-03  0.388412D-02 -0.124110D-01 -0.575378D-01
     22  0.459404D-03  0.897957D-03 -0.159515D-03  0.513536D-03  0.124911D-03
     23 -0.142550D-02  0.240561D-03  0.221243D-03 -0.735586D-03  0.368525D-03
     24  0.204445D-03 -0.116621D-03  0.318837D-03 -0.124640D-03 -0.253823D-03
               21            22            23            24 
     21  0.350339D-01
     22 -0.259341D-03  0.227282D+00
     23 -0.128499D-03 -0.109588D+00  0.141291D+00
     24 -0.107675D-02 -0.125507D-01 -0.259427D-02  0.252121D-01
 FormGI is forming the generalized inverse of G from B-inverse, IUseBI=4.
 Force constants in internal coordinates: 
                1             2             3             4             5 
      1  0.805392D+00
      2  0.615901D-01  0.310205D+00
      3  0.374313D-01  0.736548D-02  0.302193D+00
      4 -0.864944D-02  0.252193D-01  0.213869D-02  0.602003D+00
      5  0.169420D-02  0.253864D-02  0.585680D-03  0.425093D-02  0.361531D+00
      6  0.567469D-03 -0.124731D-02  0.546603D-03  0.730447D-02 -0.267736D-03
      7  0.591590D-03 -0.355777D-03  0.662129D-04  0.474371D-02  0.562255D-03
      8  0.249139D-01  0.109448D-01 -0.140556D-01  0.105143D-01 -0.537373D-02
      9  0.174108D-01 -0.216424D-01  0.187268D-02 -0.379118D-02  0.646563D-03
     10 -0.423247D-01  0.106976D-01  0.121829D-01 -0.672316D-02  0.472716D-02
     11  0.678902D-02  0.169980D-01 -0.230004D-02  0.166020D-01 -0.116504D-01
     12 -0.386381D-02  0.335535D-02  0.352796D-02 -0.250419D-01  0.735261D-02
     13 -0.292521D-02 -0.203533D-01 -0.122792D-02  0.843991D-02  0.429774D-02
     14 -0.319583D-02 -0.275889D-02  0.109029D-02  0.968916D-02  0.279746D-02
     15  0.334718D-02  0.284786D-02  0.313291D-03  0.112918D-01 -0.218837D-02
     16 -0.151342D-03 -0.889733D-04 -0.140358D-02 -0.209809D-01 -0.609091D-03
     17  0.679918D-05  0.367494D-05  0.154197D-05  0.000000D+00  0.000000D+00
     18  0.758192D-05  0.357427D-05  0.171151D-05  0.000000D+00  0.000000D+00
     19 -0.781486D-05 -0.363443D-05 -0.159814D-05 -0.117861D-05  0.000000D+00
     20 -0.703212D-05 -0.373510D-05 -0.142861D-05  0.000000D+00  0.000000D+00
     21  0.000000D+00  0.000000D+00  0.000000D+00  0.111361D-05  0.000000D+00
     22  0.000000D+00  0.000000D+00  0.000000D+00  0.100858D-05  0.000000D+00
     23  0.000000D+00  0.000000D+00  0.000000D+00  0.000000D+00  0.000000D+00
     24  0.000000D+00  0.000000D+00  0.000000D+00  0.000000D+00  0.000000D+00
                6             7             8             9            10 
      6  0.359440D+00
      7  0.151713D-02  0.366096D+00
      8 -0.328983D-03  0.152911D-02  0.143177D+00
      9 -0.108929D-02 -0.382127D-03 -0.807320D-01  0.119887D+00
     10  0.141828D-02 -0.114698D-02 -0.624455D-01 -0.391554D-01  0.101601D+00
     11 -0.445381D-02  0.393595D-02  0.239794D-01 -0.619377D-02 -0.177856D-01
     12 -0.466332D-05 -0.105887D-02 -0.231857D-01  0.378363D-02  0.194021D-01
     13  0.445847D-02 -0.287709D-02 -0.793696D-03  0.241014D-02 -0.161644D-02
     14  0.694877D-02 -0.108685D-01  0.150900D-03  0.139037D-03 -0.289937D-03
     15 -0.122529D-01  0.476344D-02  0.280630D-02 -0.190663D-02 -0.899666D-03
     16  0.530413D-02  0.610502D-02 -0.295720D-02  0.176760D-02  0.118960D-02
     17  0.000000D+00  0.000000D+00  0.875874D-05 -0.572148D-05  0.628439D-05
     18  0.000000D+00  0.000000D+00  0.100096D-04 -0.614953D-05  0.614673D-05
     19  0.000000D+00  0.000000D+00 -0.958196D-05  0.635213D-05 -0.693279D-05
     20  0.000000D+00  0.000000D+00 -0.833111D-05  0.592409D-05 -0.707046D-05
     21  0.000000D+00  0.000000D+00  0.110920D-05  0.000000D+00  0.000000D+00
     22  0.000000D+00  0.000000D+00  0.190733D-05  0.000000D+00  0.000000D+00
     23  0.000000D+00  0.000000D+00  0.000000D+00  0.000000D+00  0.000000D+00
     24  0.000000D+00  0.000000D+00  0.000000D+00  0.000000D+00  0.000000D+00
               11            12            13            14            15 
     11  0.110885D+00
     12 -0.536477D-01  0.828942D-01
     13 -0.572378D-01 -0.292464D-01  0.864842D-01
     14 -0.930443D-02 -0.173486D-02  0.110393D-01  0.814111D-01
     15  0.112745D-01 -0.128628D-02 -0.998827D-02 -0.441506D-01  0.790760D-01
     16 -0.197012D-02  0.302113D-02 -0.105102D-02 -0.372605D-01 -0.349254D-01
     17  0.000000D+00  0.000000D+00  0.000000D+00  0.000000D+00  0.000000D+00
     18  0.000000D+00  0.000000D+00  0.000000D+00  0.000000D+00  0.000000D+00
     19 -0.152393D-05  0.000000D+00  0.000000D+00  0.000000D+00  0.000000D+00
     20  0.000000D+00  0.000000D+00  0.000000D+00  0.000000D+00  0.000000D+00
     21  0.000000D+00  0.000000D+00  0.000000D+00  0.000000D+00  0.000000D+00
     22  0.000000D+00  0.000000D+00  0.000000D+00  0.000000D+00  0.100152D-05
     23  0.000000D+00  0.000000D+00  0.000000D+00  0.000000D+00  0.000000D+00
     24  0.000000D+00  0.000000D+00  0.000000D+00  0.000000D+00  0.000000D+00
               16            17            18            19            20 
     16  0.721859D-01
     17  0.000000D+00  0.205212D-01
     18  0.000000D+00  0.174921D-01  0.248916D-01
     19  0.000000D+00 -0.150485D-01 -0.206919D-01  0.237301D-01
     20  0.000000D+00 -0.180775D-01 -0.132924D-01  0.180867D-01  0.228718D-01
     21  0.000000D+00  0.403683D-03  0.478213D-02 -0.267459D-02  0.170386D-02
     22  0.000000D+00  0.785798D-03  0.742769D-02 -0.447805D-02  0.216384D-02
     23  0.000000D+00  0.360591D-02 -0.304039D-02  0.329148D-02 -0.335482D-02
     24  0.000000D+00  0.398802D-02 -0.394836D-03  0.148802D-02 -0.289485D-02
               21            22            23            24 
     21  0.209154D-01
     22  0.279444D-04  0.221220D-01
     23  0.162867D-01 -0.699366D-02  0.233129D-01
     24 -0.460082D-02  0.151004D-01  0.326087D-04  0.197338D-01
 Leave Link  716 at Thu Aug 20 16:03:35 2020, MaxMem=  2147483648 cpu:         0.2
 (Enter /opt/cluster/programs/g09/g09_d.01/g09/l103.exe)

 GradGradGradGradGradGradGradGradGradGradGradGradGradGradGradGradGradGrad
 Berny optimization.
 Red2BG is reusing G-inverse.
 Internal  Forces:  Max     0.000098543 RMS     0.000026359
 Search for a local minimum.
 Step number   1 out of a maximum of    2
 All quantities printed in internal units (Hartrees-Bohrs-Radians)
 Second derivative matrix not updated -- analytic derivatives used.
 ITU=  0
     Eigenvalues ---    0.00635   0.02175   0.03103   0.04348   0.07549
     Eigenvalues ---    0.09964   0.10577   0.11350   0.13960   0.16505
     Eigenvalues ---    0.22516   0.30474   0.31146   0.36056   0.36349
     Eigenvalues ---    0.36704   0.60864   0.81981
 Angle between quadratic step and forces=  41.96 degrees.
 Linear search not attempted -- first point.
 Iteration  1 RMS(Cart)=  0.00037974 RMS(Int)=  0.00000007
 Iteration  2 RMS(Cart)=  0.00000008 RMS(Int)=  0.00000000
 ITry= 1 IFail=0 DXMaxC= 9.09D-04 DCOld= 1.00D+10 DXMaxT= 3.00D-01 DXLimC= 3.00D+00 Rises=F
 Variable       Old X    -DE/DX   Delta X   Delta X   Delta X     New X
                                 (Linear)    (Quad)   (Total)
    R1        2.28819  -0.00010   0.00000  -0.00015  -0.00015   2.28805
    R2        2.77572  -0.00001   0.00000   0.00002   0.00002   2.77574
    R3        2.09037  -0.00001   0.00000   0.00002   0.00002   2.09039
    R4        2.51837  -0.00001   0.00000  -0.00001  -0.00001   2.51836
    R5        2.04243  -0.00001   0.00000  -0.00004  -0.00004   2.04239
    R6        2.04416  -0.00001   0.00000  -0.00003  -0.00003   2.04413
    R7        2.03867  -0.00001   0.00000  -0.00003  -0.00003   2.03864
    A1        2.16886   0.00005   0.00000   0.00031   0.00031   2.16917
    A2        2.11128  -0.00001   0.00000   0.00000   0.00000   2.11128
    A3        2.00305  -0.00003   0.00000  -0.00031  -0.00031   2.00274
    A4        2.10465  -0.00004   0.00000  -0.00030  -0.00030   2.10434
    A5        2.04060   0.00003   0.00000   0.00030   0.00030   2.04090
    A6        2.13794   0.00001   0.00000   0.00000   0.00000   2.13794
    A7        2.10541  -0.00001   0.00000  -0.00011  -0.00011   2.10530
    A8        2.13278   0.00001   0.00000   0.00014   0.00014   2.13292
    A9        2.04500   0.00000   0.00000  -0.00003  -0.00003   2.04496
    D1        3.14144   0.00001   0.00000   0.00015   0.00015  -3.14159
    D2       -0.00016   0.00001   0.00000   0.00016   0.00016   0.00000
    D3        0.00015  -0.00001   0.00000  -0.00015  -0.00015   0.00000
    D4       -3.14145  -0.00001   0.00000  -0.00014  -0.00014  -3.14159
    D5       -0.00001   0.00000   0.00000   0.00001   0.00001   0.00000
    D6        3.14158   0.00000   0.00000   0.00001   0.00001   3.14159
    D7       -3.14159   0.00000   0.00000   0.00000   0.00000  -3.14159
    D8       -0.00001   0.00000   0.00000   0.00001   0.00001   0.00000
         Item               Value     Threshold  Converged?
 Maximum Force            0.000099     0.000450     YES
 RMS     Force            0.000026     0.000300     YES
 Maximum Displacement     0.000909     0.001800     YES
 RMS     Displacement     0.000380     0.001200     YES
 Predicted change in Energy=-3.476114D-08
 Optimization completed.
    -- Stationary point found.
                           ----------------------------
                           !   Optimized Parameters   !
                           ! (Angstroms and Degrees)  !
 --------------------------                            --------------------------
 ! Name  Definition              Value          Derivative Info.                !
 --------------------------------------------------------------------------------
 ! R1    R(1,2)                  1.2109         -DE/DX =   -0.0001              !
 ! R2    R(1,3)                  1.4688         -DE/DX =    0.0                 !
 ! R3    R(1,8)                  1.1062         -DE/DX =    0.0                 !
 ! R4    R(3,4)                  1.3327         -DE/DX =    0.0                 !
 ! R5    R(3,5)                  1.0808         -DE/DX =    0.0                 !
 ! R6    R(4,6)                  1.0817         -DE/DX =    0.0                 !
 ! R7    R(4,7)                  1.0788         -DE/DX =    0.0                 !
 ! A1    A(2,1,3)              124.2667         -DE/DX =    0.0                 !
 ! A2    A(2,1,8)              120.9672         -DE/DX =    0.0                 !
 ! A3    A(3,1,8)              114.7661         -DE/DX =    0.0                 !
 ! A4    A(1,3,4)              120.5874         -DE/DX =    0.0                 !
 ! A5    A(1,3,5)              116.9177         -DE/DX =    0.0                 !
 ! A6    A(4,3,5)              122.4949         -DE/DX =    0.0                 !
 ! A7    A(3,4,6)              120.6312         -DE/DX =    0.0                 !
 ! A8    A(3,4,7)              122.1991         -DE/DX =    0.0                 !
 ! A9    A(6,4,7)              117.1697         -DE/DX =    0.0                 !
 ! D1    D(2,1,3,4)           -180.0086         -DE/DX =    0.0                 !
 ! D2    D(2,1,3,5)             -0.009          -DE/DX =    0.0                 !
 ! D3    D(8,1,3,4)              0.0086         -DE/DX =    0.0                 !
 ! D4    D(8,1,3,5)           -179.9919         -DE/DX =    0.0                 !
 ! D5    D(1,3,4,6)             -0.0003         -DE/DX =    0.0                 !
 ! D6    D(1,3,4,7)            179.9992         -DE/DX =    0.0                 !
 ! D7    D(5,3,4,6)           -179.9998         -DE/DX =    0.0                 !
 ! D8    D(5,3,4,7)             -0.0003         -DE/DX =    0.0                 !
 --------------------------------------------------------------------------------
 GradGradGradGradGradGradGradGradGradGradGradGradGradGradGradGradGradGrad

 Leave Link  103 at Thu Aug 20 16:03:36 2020, MaxMem=  2147483648 cpu:         1.2
 (Enter /opt/cluster/programs/g09/g09_d.01/g09/l9999.exe)
 1\1\GINC-NODE37\Freq\RB2PLYPD3-FC\def2QZVP\C3H4O1\BOITTIER\20-Aug-2020
 \0\\#P Geom=AllCheck Guess=TCheck SCRF=Check GenChk RB2PLYPD3(FC)/def2
 QZVP Freq\\acrolein_opt\\0,1\C,-5.0048341032,-1.3847123551,0.893934299
 6\O,-3.9355237641,-0.8680970072,0.6575728184\C,-5.1923761982,-2.819532
 1627,1.1461944756\C,-6.4050412075,-3.3106933383,1.3995653812\H,-4.3089
 037768,-3.4413521933,1.1152101112\H,-7.2691560651,-2.6604124667,1.4232
 6927\H,-6.5725152154,-4.3595736633,1.5883773093\H,-5.9315696698,-0.782
 0868134,0.9343663346\\Version=ES64L-G09RevD.01\State=1-A\HF=-191.61750
 5\MP2=-191.8645521\RMSD=1.871e-09\RMSF=3.182e-05\ZeroPoint=0.0615036\T
 hermal=0.0658629\Dipole=-1.0146853,-0.7832126,0.2702905\DipoleDeriv=0.
 987492,0.1942642,-0.1454525,0.4786762,1.1388437,-0.2172878,-0.190058,-
 0.1759152,0.2521367,-0.8963492,-0.3160611,0.1292918,-0.3039719,-0.6886
 552,0.0975945,0.1273323,0.0993182,-0.3822688,-0.0828843,-0.1570715,0.0
 173754,-0.3235705,-0.430643,0.0937428,0.0434826,0.0695502,-0.1500578,0
 .1078984,0.0501527,-0.0534805,-0.0462029,0.0723268,-0.0368908,-0.03834
 95,-0.0508765,-0.1921877,-0.004408,0.0498934,0.0148759,0.0324213,0.000
 6255,0.0189641,0.0176187,0.0164337,0.1465307,0.0055364,0.0328376,0.014
 684,0.098262,0.0006055,0.0078668,0.0044284,0.0173852,0.1385459,0.06606
 91,0.0057728,0.0076394,-0.0262232,-0.0357251,0.0289926,0.0126518,0.024
 3283,0.1191897,-0.1833545,0.1402119,0.0150665,0.0906091,-0.0573782,0.0
 070178,0.0228937,-0.0002239,0.0681114\Polar=51.0809919,10.8832317,45.8
 289812,-5.3241131,-4.6595596,27.7054859\PG=C01 [X(C3H4O1)]\NImag=0\\0.
 86723396,0.09985382,0.59988292,-0.11462962,-0.07929941,0.21553952,-0.5
 8119290,-0.21323248,0.10897707,0.64216739,-0.21856810,-0.20760995,0.05
 468899,0.27357088,0.21408794,0.10980811,0.05391145,-0.08575131,-0.1329
 3813,-0.06978305,0.05278613,-0.09158640,0.02621867,-0.00218015,-0.0206
 8745,-0.06115026,0.01575366,0.83926257,0.03657371,-0.22341922,0.017427
 43,-0.04422016,-0.02551233,0.01383798,0.01266953,0.58376547,-0.0038053
 9,0.01894234,-0.08075830,0.01309924,0.01629549,0.01729343,-0.10724265,
 -0.07526092,0.14290687,-0.01554000,-0.02248159,0.00618229,0.01047933,0
 .00491952,-0.00197608,-0.46299525,-0.12503253,0.07975461,0.78091458,-0
 .04019251,-0.01188009,0.00813879,-0.00019307,-0.00815423,0.00164834,-0
 .13376111,-0.17050002,0.03844283,0.05941241,0.67547240,0.00896213,0.00
 556249,0.00057396,-0.00117594,0.00090588,0.00221386,0.08112330,0.03717
 216,-0.06703235,-0.10562768,-0.09594774,0.14906529,0.00446839,-0.00524
 482,0.00068527,0.00110135,0.00127360,-0.00063984,-0.24366855,0.1348055
 3,0.00837488,-0.01829739,0.01812617,0.00061066,0.25776990,0.02949228,-
 0.01412664,-0.00152157,-0.00308172,0.00468908,-0.00058917,0.13591563,-
 0.15445424,-0.00193559,-0.01408408,0.01166980,0.00107207,-0.14543172,0
 .15695993,-0.00476235,0.00353063,0.00366451,0.00004336,-0.00122219,-0.
 00174123,0.00820112,-0.00177495,-0.04165665,0.00566107,-0.00361233,0.0
 0518695,-0.01074320,0.00078828,0.02854094,0.00038337,0.00329189,-0.001
 96600,0.00079185,-0.00055405,0.00022204,-0.02202634,0.01962859,0.00095
 225,-0.23272300,0.13320707,0.00738398,-0.00268230,-0.00261260,0.002473
 35,0.24927524,-0.00426184,-0.00005602,-0.00087474,0.00163453,0.0001554
 8,0.00000805,-0.00892478,0.01197717,0.00031108,0.13702167,-0.16387230,
 -0.00024127,-0.00198416,-0.00037367,0.00215156,-0.14681314,0.16330697,
 -0.00078153,-0.00197236,-0.00916456,-0.00012143,0.00032579,0.00168799,
 0.00542867,-0.00384207,0.00549802,0.00678669,0.00031383,-0.03936101,0.
 00237477,0.00224317,0.01081056,-0.00961417,-0.00035565,0.02632604,-0.0
 0450400,0.00306568,0.00238103,-0.00069301,-0.00271165,0.00000013,0.000
 24913,-0.03202363,0.00630942,-0.06313727,-0.03645537,0.00905747,0.0010
 8567,0.00044127,-0.00129895,0.00652178,0.02242976,-0.00391349,0.059964
 16,-0.00157100,0.00135564,0.00239446,-0.00011747,-0.00060442,-0.000454
 62,0.00197459,-0.00568216,0.00203081,-0.04133169,-0.33332943,0.0519788
 7,-0.00034661,0.00075715,-0.00122394,-0.00472226,-0.01137820,0.0030660
 5,0.04598952,0.34851289,0.00310727,0.00171908,0.01444921,-0.00040549,-
 0.00007645,-0.00354170,0.00097780,0.00697604,0.00786472,0.00982212,0.0
 5126886,-0.04962366,-0.00117549,-0.00133882,-0.00698981,0.00034410,-0.
 00088241,0.00388412,-0.01241097,-0.05753780,0.03503386,-0.17926242,0.1
 0852883,0.00055011,-0.05196658,0.00322004,0.00977011,0.00145230,-0.002
 40105,0.00255764,0.00129900,-0.00014358,-0.00033392,0.00022293,-0.0006
 3906,0.00042560,0.00045940,0.00089796,-0.00015952,0.00051354,0.0001249
 1,-0.00025934,0.22728184,0.09867364,-0.14414664,-0.00095396,-0.0143605
 1,0.02294842,0.00142102,0.02705773,-0.01617467,0.00117397,0.00157628,0
 .00059387,-0.00050246,-0.00119799,-0.00512141,0.00136294,-0.00142550,0
 .00024056,0.00022124,-0.00073559,0.00036853,-0.00012850,-0.10958806,0.
 14129135,0.00210138,-0.00239422,-0.05855301,0.01252133,-0.00113446,0.0
 1705283,-0.00206175,0.00546432,0.01588427,-0.00060302,-0.00025257,-0.0
 0102304,0.00051295,0.00128164,0.00218473,0.00020445,-0.00011662,0.0003
 1884,-0.00012464,-0.00025382,-0.00107675,-0.01255068,-0.00259427,0.025
 21213\\-0.00010798,-0.00002786,-0.00001524,0.00010049,0.00002055,-0.00
 000573,-0.00000327,0.00000191,0.00001169,0.00000005,-0.00000146,0.0000
 0104,0.00001583,0.00000170,-0.00000251,-0.00001282,0.00000525,0.000001
 62,0.00000589,-0.00001309,-0.00000062,0.00000181,0.00001299,0.00000976
 \\\@


 ABALONE: AN EXPRESSION OF DISBELIEF.
 Job cpu time:       0 days 19 hours 59 minutes 24.4 seconds.
 File lengths (MBytes):  RWF=  31864 Int=      0 D2E=      0 Chk=     13 Scr=      1
 Normal termination of Gaussian 09 at Thu Aug 20 16:03:39 2020.
