 Entering Gaussian System, Link 0=/opt/cluster/programs/g09/g09_d.01/g09//g09
 Input=/home/boittier/MDCM/cyanomethane/cyanomethane_opt_freq.com
 Output=/scratch/boittier/cyanomethane_opt_freq/cyanomethane_opt_freq.out
 Initial command:
 /opt/cluster/programs/g09/g09_d.01/g09/l1.exe "/scratch/boittier/cyanomethane_opt_freq/Gau-126204.inp" -scrdir="/scratch/boittier/cyanomethane_opt_freq/"
 Entering Link 1 = /opt/cluster/programs/g09/g09_d.01/g09/l1.exe PID=    126205.
  
 Copyright (c) 1988,1990,1992,1993,1995,1998,2003,2009,2013,
            Gaussian, Inc.  All Rights Reserved.
  
 This is part of the Gaussian(R) 09 program.  It is based on
 the Gaussian(R) 03 system (copyright 2003, Gaussian, Inc.),
 the Gaussian(R) 98 system (copyright 1998, Gaussian, Inc.),
 the Gaussian(R) 94 system (copyright 1995, Gaussian, Inc.),
 the Gaussian 92(TM) system (copyright 1992, Gaussian, Inc.),
 the Gaussian 90(TM) system (copyright 1990, Gaussian, Inc.),
 the Gaussian 88(TM) system (copyright 1988, Gaussian, Inc.),
 the Gaussian 86(TM) system (copyright 1986, Carnegie Mellon
 University), and the Gaussian 82(TM) system (copyright 1983,
 Carnegie Mellon University). Gaussian is a federally registered
 trademark of Gaussian, Inc.
  
 This software contains proprietary and confidential information,
 including trade secrets, belonging to Gaussian, Inc.
  
 This software is provided under written license and may be
 used, copied, transmitted, or stored only in accord with that
 written license.
  
 The following legend is applicable only to US Government
 contracts under FAR:
  
                    RESTRICTED RIGHTS LEGEND
  
 Use, reproduction and disclosure by the US Government is
 subject to restrictions as set forth in subparagraphs (a)
 and (c) of the Commercial Computer Software - Restricted
 Rights clause in FAR 52.227-19.
  
 Gaussian, Inc.
 340 Quinnipiac St., Bldg. 40, Wallingford CT 06492
  
  
 ---------------------------------------------------------------
 Warning -- This program may not be used in any manner that
 competes with the business of Gaussian, Inc. or will provide
 assistance to any competitor of Gaussian, Inc.  The licensee
 of this program is prohibited from giving any competitor of
 Gaussian, Inc. access to this program.  By using this program,
 the user acknowledges that Gaussian, Inc. is engaged in the
 business of creating and licensing software in the field of
 computational chemistry and represents and warrants to the
 licensee that it is not a competitor of Gaussian, Inc. and that
 it will not use this program in any manner prohibited above.
 ---------------------------------------------------------------
  

 Cite this work as:
 Gaussian 09, Revision D.01,
 M. J. Frisch, G. W. Trucks, H. B. Schlegel, G. E. Scuseria, 
 M. A. Robb, J. R. Cheeseman, G. Scalmani, V. Barone, B. Mennucci, 
 G. A. Petersson, H. Nakatsuji, M. Caricato, X. Li, H. P. Hratchian, 
 A. F. Izmaylov, J. Bloino, G. Zheng, J. L. Sonnenberg, M. Hada, 
 M. Ehara, K. Toyota, R. Fukuda, J. Hasegawa, M. Ishida, T. Nakajima, 
 Y. Honda, O. Kitao, H. Nakai, T. Vreven, J. A. Montgomery, Jr., 
 J. E. Peralta, F. Ogliaro, M. Bearpark, J. J. Heyd, E. Brothers, 
 K. N. Kudin, V. N. Staroverov, T. Keith, R. Kobayashi, J. Normand, 
 K. Raghavachari, A. Rendell, J. C. Burant, S. S. Iyengar, J. Tomasi, 
 M. Cossi, N. Rega, J. M. Millam, M. Klene, J. E. Knox, J. B. Cross, 
 V. Bakken, C. Adamo, J. Jaramillo, R. Gomperts, R. E. Stratmann, 
 O. Yazyev, A. J. Austin, R. Cammi, C. Pomelli, J. W. Ochterski, 
 R. L. Martin, K. Morokuma, V. G. Zakrzewski, G. A. Voth, 
 P. Salvador, J. J. Dannenberg, S. Dapprich, A. D. Daniels, 
 O. Farkas, J. B. Foresman, J. V. Ortiz, J. Cioslowski, 
 and D. J. Fox, Gaussian, Inc., Wallingford CT, 2013.
 
 ******************************************
 Gaussian 09:  ES64L-G09RevD.01 24-Apr-2013
                19-Aug-2020 
 ******************************************
 %chk=cyanomethane_opt.chk
 %nproc=8
 Will use up to    8 processors via shared memory.
 %mem=500MB
 ------------------------------------
 #p B2PLYPD3/6-31G** opt freq=NoRaman
 ------------------------------------
 1/18=20,19=15,38=1/1,3;
 2/9=110,12=2,17=6,18=5,40=1/2;
 3/5=1,6=6,7=101,11=9,16=1,25=1,30=1,71=1,74=-60/1,2,3;
 4//1;
 5/5=2,38=5/2;
 8/6=4,10=2/1;
 9/15=2,16=-3/6;
 10/5=1/2;
 6/7=2,8=2,9=2,10=2/1;
 7/12=2/1,2,3,16;
 1/18=20,19=15/3(2);
 2/9=110/2;
 99//99;
 2/9=110/2;
 3/5=1,6=6,7=101,11=9,16=1,25=1,30=1,71=1,74=-60/1,2,3;
 4/5=5,16=3,69=1/1;
 5/5=2,38=5/2;
 8/6=4,10=2/1;
 9/15=2,16=-3/6;
 10/5=1/2;
 7/12=2/1,2,3,16;
 1/18=20,19=15/3(-8);
 2/9=110/2;
 6/7=2,8=2,9=2,10=2/1;
 99//99;
 Leave Link    1 at Wed Aug 19 17:57:50 2020, MaxMem=    65536000 cpu:         0.2
 (Enter /opt/cluster/programs/g09/g09_d.01/g09/l101.exe)
 ----------------
 cyanomethane_opt
 ----------------
 Symbolic Z-matrix:
 Charge =  0 Multiplicity = 1
 C                     1.18354   0.00011  -0.00007 
 C                    -0.27755  -0.00063  -0.0003 
 N                    -1.44457   0.00024   0.00014 
 H                     1.55816   0.20834   1.00214 
 H                     1.55813   0.76452  -0.68037 
 H                     1.55977  -0.97145  -0.32052 
 
 NAtoms=      6 NQM=        6 NQMF=       0 NMMI=      0 NMMIF=      0
                NMic=       0 NMicF=      0.
                    Isotopes and Nuclear Properties:
 (Nuclear quadrupole moments (NQMom) in fm**2, nuclear magnetic moments (NMagM)
  in nuclear magnetons)

  Atom         1           2           3           4           5           6
 IAtWgt=          12          12          14           1           1           1
 AtmWgt=  12.0000000  12.0000000  14.0030740   1.0078250   1.0078250   1.0078250
 NucSpn=           0           0           2           1           1           1
 AtZEff=   0.0000000   0.0000000   0.0000000   0.0000000   0.0000000   0.0000000
 NQMom=    0.0000000   0.0000000   2.0440000   0.0000000   0.0000000   0.0000000
 NMagM=    0.0000000   0.0000000   0.4037610   2.7928460   2.7928460   2.7928460
 AtZNuc=   6.0000000   6.0000000   7.0000000   1.0000000   1.0000000   1.0000000
 Leave Link  101 at Wed Aug 19 17:57:51 2020, MaxMem=    65536000 cpu:         0.6
 (Enter /opt/cluster/programs/g09/g09_d.01/g09/l103.exe)

 GradGradGradGradGradGradGradGradGradGradGradGradGradGradGradGradGradGrad
 Berny optimization.
 Initialization pass.
                           ----------------------------
                           !    Initial Parameters    !
                           ! (Angstroms and Degrees)  !
 --------------------------                            --------------------------
 ! Name  Definition              Value          Derivative Info.                !
 --------------------------------------------------------------------------------
 ! R1    R(1,2)                  1.4611         estimate D2E/DX2                !
 ! R2    R(1,4)                  1.09           estimate D2E/DX2                !
 ! R3    R(1,5)                  1.0897         estimate D2E/DX2                !
 ! R4    R(1,6)                  1.09           estimate D2E/DX2                !
 ! R5    R(2,3)                  1.167          estimate D2E/DX2                !
 ! A1    A(2,1,4)              110.1162         estimate D2E/DX2                !
 ! A2    A(2,1,5)              110.1215         estimate D2E/DX2                !
 ! A3    A(2,1,6)              110.1609         estimate D2E/DX2                !
 ! A4    A(4,1,5)              108.7755         estimate D2E/DX2                !
 ! A5    A(4,1,6)              108.7809         estimate D2E/DX2                !
 ! A6    A(5,1,6)              108.8482         estimate D2E/DX2                !
 ! A7    L(1,2,3,4,-1)         179.9554         estimate D2E/DX2                !
 ! A8    L(1,2,3,4,-2)         179.8687         estimate D2E/DX2                !
 ! D1    D(2,1,5,4)            120.7583         estimate D2E/DX2                !
 ! D2    D(2,1,6,4)           -120.7859         estimate D2E/DX2                !
 ! D3    D(2,1,6,5)            120.8348         estimate D2E/DX2                !
 ! D4    D(4,1,6,5)           -118.3794         estimate D2E/DX2                !
 --------------------------------------------------------------------------------
 Trust Radius=3.00D-01 FncErr=1.00D-07 GrdErr=1.00D-07
 Number of steps in this run=     27 maximum allowed number of steps=    100.
 GradGradGradGradGradGradGradGradGradGradGradGradGradGradGradGradGradGrad

 Leave Link  103 at Wed Aug 19 17:57:51 2020, MaxMem=    65536000 cpu:         0.1
 (Enter /opt/cluster/programs/g09/g09_d.01/g09/l202.exe)
                          Input orientation:                          
 ---------------------------------------------------------------------
 Center     Atomic      Atomic             Coordinates (Angstroms)
 Number     Number       Type             X           Y           Z
 ---------------------------------------------------------------------
      1          6           0        1.183540    0.000110   -0.000070
      2          6           0       -0.277550   -0.000630   -0.000300
      3          7           0       -1.444570    0.000240    0.000140
      4          1           0        1.558160    0.208340    1.002140
      5          1           0        1.558130    0.764520   -0.680370
      6          1           0        1.559770   -0.971450   -0.320520
 ---------------------------------------------------------------------
                    Distance matrix (angstroms):
                    1          2          3          4          5
     1  C    0.000000
     2  C    1.461090   0.000000
     3  N    2.628110   1.167020   0.000000
     4  H    1.090011   2.101996   3.172333   0.000000
     5  H    1.089701   2.101826   3.172290   1.772054   0.000000
     6  H    1.090030   2.102564   3.173809   1.772382   1.772875
                    6
     6  H    0.000000
 Stoichiometry    C2H3N
 Framework group  C1[X(C2H3N)]
 Deg. of freedom    12
 Full point group                 C1      NOp   1
 Largest Abelian subgroup         C1      NOp   1
 Largest concise Abelian subgroup C1      NOp   1
                         Standard orientation:                         
 ---------------------------------------------------------------------
 Center     Atomic      Atomic             Coordinates (Angstroms)
 Number     Number       Type             X           Y           Z
 ---------------------------------------------------------------------
      1          6           0       -1.183540   -0.000111   -0.000070
      2          6           0        0.277550    0.000629   -0.000300
      3          7           0        1.444570   -0.000242    0.000140
      4          1           0       -1.558160   -0.208341    1.002140
      5          1           0       -1.558130   -0.764521   -0.680370
      6          1           0       -1.559769    0.971449   -0.320520
 ---------------------------------------------------------------------
 Rotational constants (GHZ):    159.6208213      9.1294372      9.1291555
 Leave Link  202 at Wed Aug 19 17:57:51 2020, MaxMem=    65536000 cpu:         0.0
 (Enter /opt/cluster/programs/g09/g09_d.01/g09/l301.exe)
 Standard basis: 6-31G(d,p) (6D, 7F)
 Ernie: Thresh=  0.10000D-02 Tol=  0.10000D-05 Strict=F.
 There are    60 symmetry adapted cartesian basis functions of A   symmetry.
 There are    60 symmetry adapted basis functions of A   symmetry.
    60 basis functions,   105 primitive gaussians,    60 cartesian basis functions
    11 alpha electrons       11 beta electrons
       nuclear repulsion energy        58.2086584226 Hartrees.
 IExCor=  419 DFT=T Ex+Corr=B2PLYPD3 ExCW=0 ScaHFX=  0.530000
 ScaDFX=  0.470000  0.470000  0.730000  0.730000 ScalE2=  0.270000  0.270000
 IRadAn=      0 IRanWt=     -1 IRanGd=            0 ICorTp=0 IEmpDi=141
 NAtoms=    6 NActive=    6 NUniq=    6 SFac= 1.00D+00 NAtFMM=   60 NAOKFM=F Big=F
 Integral buffers will be    131072 words long.
 Regular integral format.
 Two-electron integral symmetry is turned on.
 R6Disp:  Grimme-D3(BJ) Dispersion energy=       -0.0020975732 Hartrees.
 Nuclear repulsion after empirical dispersion term =       58.2065608494 Hartrees.
 Leave Link  301 at Wed Aug 19 17:57:51 2020, MaxMem=    65536000 cpu:         0.4
 (Enter /opt/cluster/programs/g09/g09_d.01/g09/l302.exe)
 NPDir=0 NMtPBC=     1 NCelOv=     1 NCel=       1 NClECP=     1 NCelD=      1
         NCelK=      1 NCelE2=     1 NClLst=     1 CellRange=     0.0.
 One-electron integrals computed using PRISM.
 NBasis=    60 RedAO= T EigKep=  1.56D-03  NBF=    60
 NBsUse=    60 1.00D-06 EigRej= -1.00D+00 NBFU=    60
 Precomputing XC quadrature grid using
 IXCGrd= 4 IRadAn=           0 IRanWt=          -1 IRanGd=           0 AccXCQ= 0.00D+00.
 Generated NRdTot=       0 NPtTot=           0 NUsed=           0 NTot=          32
 NSgBfM=    60    60    60    60    60 MxSgAt=     6 MxSgA2=     6.
 Leave Link  302 at Wed Aug 19 17:57:52 2020, MaxMem=    65536000 cpu:         0.9
 (Enter /opt/cluster/programs/g09/g09_d.01/g09/l303.exe)
 DipDrv:  MaxL=1.
 Leave Link  303 at Wed Aug 19 17:57:52 2020, MaxMem=    65536000 cpu:         0.1
 (Enter /opt/cluster/programs/g09/g09_d.01/g09/l401.exe)
 ExpMin= 1.61D-01 ExpMax= 4.17D+03 ExpMxC= 6.27D+02 IAcc=1 IRadAn=         1 AccDes= 0.00D+00
 Harris functional with IExCor=  419 and IRadAn=       1 diagonalized for initial guess.
 HarFok:  IExCor=  419 AccDes= 0.00D+00 IRadAn=         1 IDoV= 1 UseB2=F ITyADJ=14
 ICtDFT=  3500011 ScaDFX=  1.000000  1.000000  1.000000  1.000000
 FoFCou: FMM=F IPFlag=           0 FMFlag=      100000 FMFlg1=           0
         NFxFlg=           0 DoJE=T BraDBF=F KetDBF=T FulRan=T
         wScrn=  0.000000 ICntrl=     500 IOpCl=  0 I1Cent=   200000004 NGrid=           0
         NMat0=    1 NMatS0=      1 NMatT0=    0 NMatD0=    1 NMtDS0=    0 NMtDT0=    0
 Petite list used in FoFCou.
 Harris En= -132.777849980628    
 JPrj=0 DoOrth=F DoCkMO=F.
 Leave Link  401 at Wed Aug 19 17:57:52 2020, MaxMem=    65536000 cpu:         0.8
 (Enter /opt/cluster/programs/g09/g09_d.01/g09/l502.exe)
 Closed shell SCF:
 Using DIIS extrapolation, IDIIS=  1040.
 Integral symmetry usage will be decided dynamically.
 Keep R1 ints in memory in canonical form, NReq=2587004.
 IVT=       30283 IEndB=       30283 NGot=    65536000 MDV=    63830353
 LenX=    63830353 LenY=    63826312
 Requested convergence on RMS density matrix=1.00D-08 within 128 cycles.
 Requested convergence on MAX density matrix=1.00D-06.
 Requested convergence on             energy=1.00D-06.
 No special actions if energy rises.
 FoFCou: FMM=F IPFlag=           0 FMFlag=           0 FMFlg1=           0
         NFxFlg=           0 DoJE=F BraDBF=F KetDBF=F FulRan=T
         wScrn=  0.000000 ICntrl=     600 IOpCl=  0 I1Cent=           0 NGrid=           0
         NMat0=    1 NMatS0=   1830 NMatT0=    0 NMatD0=    1 NMtDS0=    0 NMtDT0=    0
 Symmetry not used in FoFCou.
 Integral accuracy reduced to 1.0D-05 until final iterations.

 Cycle   1  Pass 0  IDiag  1:
 E= -132.385323906126    
 DIIS: error= 3.39D-02 at cycle   1 NSaved=   1.
 NSaved= 1 IEnMin= 1 EnMin= -132.385323906126     IErMin= 1 ErrMin= 3.39D-02
 ErrMax= 3.39D-02  0.00D+00 EMaxC= 1.00D-01 BMatC= 1.04D-01 BMatP= 1.04D-01
 IDIUse=3 WtCom= 6.61D-01 WtEn= 3.39D-01
 Coeff-Com:  0.100D+01
 Coeff-En:   0.100D+01
 Coeff:      0.100D+01
 Gap=     0.466 Goal=   None    Shift=    0.000
 GapD=    0.466 DampG=2.000 DampE=0.500 DampFc=1.0000 IDamp=-1.
 RMSDP=9.22D-03 MaxDP=1.77D-01              OVMax= 1.54D-01

 Cycle   2  Pass 0  IDiag  1:
 E= -132.411404219384     Delta-E=       -0.026080313258 Rises=F Damp=F
 DIIS: error= 3.35D-02 at cycle   2 NSaved=   2.
 NSaved= 2 IEnMin= 2 EnMin= -132.411404219384     IErMin= 2 ErrMin= 3.35D-02
 ErrMax= 3.35D-02  0.00D+00 EMaxC= 1.00D-01 BMatC= 7.82D-02 BMatP= 1.04D-01
 IDIUse=3 WtCom= 6.65D-01 WtEn= 3.35D-01
 Coeff-Com:  0.460D+00 0.540D+00
 Coeff-En:   0.403D+00 0.597D+00
 Coeff:      0.441D+00 0.559D+00
 Gap=     0.483 Goal=   None    Shift=    0.000
 RMSDP=5.50D-03 MaxDP=8.99D-02 DE=-2.61D-02 OVMax= 1.10D-01

 Cycle   3  Pass 0  IDiag  1:
 E= -132.469212992712     Delta-E=       -0.057808773328 Rises=F Damp=F
 DIIS: error= 1.32D-02 at cycle   3 NSaved=   3.
 NSaved= 3 IEnMin= 3 EnMin= -132.469212992712     IErMin= 3 ErrMin= 1.32D-02
 ErrMax= 1.32D-02  0.00D+00 EMaxC= 1.00D-01 BMatC= 1.18D-02 BMatP= 7.82D-02
 IDIUse=3 WtCom= 8.68D-01 WtEn= 1.32D-01
 Coeff-Com:  0.151D+00 0.304D+00 0.545D+00
 Coeff-En:   0.000D+00 0.658D-01 0.934D+00
 Coeff:      0.131D+00 0.272D+00 0.596D+00
 Gap=     0.478 Goal=   None    Shift=    0.000
 RMSDP=1.81D-03 MaxDP=2.55D-02 DE=-5.78D-02 OVMax= 4.66D-02

 Cycle   4  Pass 0  IDiag  1:
 E= -132.478140075205     Delta-E=       -0.008927082493 Rises=F Damp=F
 DIIS: error= 5.05D-03 at cycle   4 NSaved=   4.
 NSaved= 4 IEnMin= 4 EnMin= -132.478140075205     IErMin= 4 ErrMin= 5.05D-03
 ErrMax= 5.05D-03  0.00D+00 EMaxC= 1.00D-01 BMatC= 1.57D-03 BMatP= 1.18D-02
 IDIUse=3 WtCom= 9.49D-01 WtEn= 5.05D-02
 Coeff-Com: -0.786D-02 0.158D-01 0.288D+00 0.704D+00
 Coeff-En:   0.000D+00 0.000D+00 0.120D+00 0.880D+00
 Coeff:     -0.747D-02 0.150D-01 0.280D+00 0.713D+00
 Gap=     0.483 Goal=   None    Shift=    0.000
 RMSDP=5.74D-04 MaxDP=6.93D-03 DE=-8.93D-03 OVMax= 1.17D-02

 Cycle   5  Pass 0  IDiag  1:
 E= -132.479526142433     Delta-E=       -0.001386067228 Rises=F Damp=F
 DIIS: error= 3.53D-04 at cycle   5 NSaved=   5.
 NSaved= 5 IEnMin= 5 EnMin= -132.479526142433     IErMin= 5 ErrMin= 3.53D-04
 ErrMax= 3.53D-04  0.00D+00 EMaxC= 1.00D-01 BMatC= 9.55D-06 BMatP= 1.57D-03
 IDIUse=3 WtCom= 9.96D-01 WtEn= 3.53D-03
 Coeff-Com: -0.443D-02-0.997D-03 0.669D-01 0.211D+00 0.728D+00
 Coeff-En:   0.000D+00 0.000D+00 0.000D+00 0.000D+00 0.100D+01
 Coeff:     -0.442D-02-0.993D-03 0.666D-01 0.210D+00 0.729D+00
 Gap=     0.482 Goal=   None    Shift=    0.000
 RMSDP=4.65D-05 MaxDP=6.28D-04 DE=-1.39D-03 OVMax= 9.64D-04

 Cycle   6  Pass 0  IDiag  1:
 E= -132.479535447940     Delta-E=       -0.000009305507 Rises=F Damp=F
 DIIS: error= 6.88D-05 at cycle   6 NSaved=   6.
 NSaved= 6 IEnMin= 6 EnMin= -132.479535447940     IErMin= 6 ErrMin= 6.88D-05
 ErrMax= 6.88D-05  0.00D+00 EMaxC= 1.00D-01 BMatC= 2.85D-07 BMatP= 9.55D-06
 IDIUse=1 WtCom= 1.00D+00 WtEn= 0.00D+00
 Coeff-Com: -0.115D-04-0.154D-02-0.108D-01-0.236D-01 0.938D-01 0.942D+00
 Coeff:     -0.115D-04-0.154D-02-0.108D-01-0.236D-01 0.938D-01 0.942D+00
 Gap=     0.482 Goal=   None    Shift=    0.000
 RMSDP=2.16D-05 MaxDP=3.46D-04 DE=-9.31D-06 OVMax= 2.24D-04

 Cycle   7  Pass 0  IDiag  1:
 E= -132.479535765637     Delta-E=       -0.000000317698 Rises=F Damp=F
 DIIS: error= 1.42D-05 at cycle   7 NSaved=   7.
 NSaved= 7 IEnMin= 7 EnMin= -132.479535765637     IErMin= 7 ErrMin= 1.42D-05
 ErrMax= 1.42D-05  0.00D+00 EMaxC= 1.00D-01 BMatC= 7.18D-09 BMatP= 2.85D-07
 IDIUse=1 WtCom= 1.00D+00 WtEn= 0.00D+00
 Coeff-Com:  0.139D-03-0.239D-03-0.313D-02-0.956D-02-0.167D-01 0.872D-01
 Coeff-Com:  0.942D+00
 Coeff:      0.139D-03-0.239D-03-0.313D-02-0.956D-02-0.167D-01 0.872D-01
 Coeff:      0.942D+00
 Gap=     0.482 Goal=   None    Shift=    0.000
 RMSDP=2.16D-06 MaxDP=2.73D-05 DE=-3.18D-07 OVMax= 2.92D-05

 Initial convergence to 1.0D-05 achieved.  Increase integral accuracy.
 Cycle   8  Pass 1  IDiag  1:
 E= -132.479535686939     Delta-E=        0.000000078699 Rises=F Damp=F
 DIIS: error= 2.25D-06 at cycle   1 NSaved=   1.
 NSaved= 1 IEnMin= 1 EnMin= -132.479535686939     IErMin= 1 ErrMin= 2.25D-06
 ErrMax= 2.25D-06  0.00D+00 EMaxC= 1.00D-01 BMatC= 3.98D-10 BMatP= 3.98D-10
 IDIUse=1 WtCom= 1.00D+00 WtEn= 0.00D+00
 Coeff-Com:  0.100D+01
 Coeff:      0.100D+01
 Gap=     0.482 Goal=   None    Shift=    0.000
 RMSDP=2.16D-06 MaxDP=2.73D-05 DE= 7.87D-08 OVMax= 1.00D-05

 Cycle   9  Pass 1  IDiag  1:
 E= -132.479535687112     Delta-E=       -0.000000000174 Rises=F Damp=F
 DIIS: error= 1.97D-06 at cycle   2 NSaved=   2.
 NSaved= 2 IEnMin= 2 EnMin= -132.479535687112     IErMin= 2 ErrMin= 1.97D-06
 ErrMax= 1.97D-06  0.00D+00 EMaxC= 1.00D-01 BMatC= 3.15D-10 BMatP= 3.98D-10
 IDIUse=1 WtCom= 1.00D+00 WtEn= 0.00D+00
 Coeff-Com:  0.461D+00 0.539D+00
 Coeff:      0.461D+00 0.539D+00
 Gap=     0.482 Goal=   None    Shift=    0.000
 RMSDP=3.85D-07 MaxDP=6.56D-06 DE=-1.74D-10 OVMax= 8.62D-06

 Cycle  10  Pass 1  IDiag  1:
 E= -132.479535687340     Delta-E=       -0.000000000228 Rises=F Damp=F
 DIIS: error= 1.19D-06 at cycle   3 NSaved=   3.
 NSaved= 3 IEnMin= 3 EnMin= -132.479535687340     IErMin= 3 ErrMin= 1.19D-06
 ErrMax= 1.19D-06  0.00D+00 EMaxC= 1.00D-01 BMatC= 7.07D-11 BMatP= 3.15D-10
 IDIUse=1 WtCom= 1.00D+00 WtEn= 0.00D+00
 Coeff-Com: -0.545D-01 0.311D+00 0.744D+00
 Coeff:     -0.545D-01 0.311D+00 0.744D+00
 Gap=     0.482 Goal=   None    Shift=    0.000
 RMSDP=1.29D-07 MaxDP=1.58D-06 DE=-2.28D-10 OVMax= 2.23D-06

 Cycle  11  Pass 1  IDiag  1:
 E= -132.479535687398     Delta-E=       -0.000000000058 Rises=F Damp=F
 DIIS: error= 8.63D-08 at cycle   4 NSaved=   4.
 NSaved= 4 IEnMin= 4 EnMin= -132.479535687398     IErMin= 4 ErrMin= 8.63D-08
 ErrMax= 8.63D-08  0.00D+00 EMaxC= 1.00D-01 BMatC= 6.46D-13 BMatP= 7.07D-11
 IDIUse=1 WtCom= 1.00D+00 WtEn= 0.00D+00
 Coeff-Com: -0.280D-01 0.704D-01 0.155D+00 0.802D+00
 Coeff:     -0.280D-01 0.704D-01 0.155D+00 0.802D+00
 Gap=     0.482 Goal=   None    Shift=    0.000
 RMSDP=1.79D-08 MaxDP=2.25D-07 DE=-5.82D-11 OVMax= 2.50D-07

 Cycle  12  Pass 1  IDiag  1:
 E= -132.479535687398     Delta-E=        0.000000000000 Rises=F Damp=F
 DIIS: error= 5.60D-08 at cycle   5 NSaved=   5.
 NSaved= 5 IEnMin= 5 EnMin= -132.479535687398     IErMin= 5 ErrMin= 5.60D-08
 ErrMax= 5.60D-08  0.00D+00 EMaxC= 1.00D-01 BMatC= 8.56D-14 BMatP= 6.46D-13
 IDIUse=1 WtCom= 1.00D+00 WtEn= 0.00D+00
 Coeff-Com:  0.183D-02-0.120D-01-0.588D-01 0.929D-01 0.976D+00
 Coeff:      0.183D-02-0.120D-01-0.588D-01 0.929D-01 0.976D+00
 Gap=     0.482 Goal=   None    Shift=    0.000
 RMSDP=7.35D-09 MaxDP=1.09D-07 DE=-2.84D-13 OVMax= 1.32D-07

 SCF Done:  E(RB2PLYPD3) =  -132.479535687     A.U. after   12 cycles
            NFock= 12  Conv=0.74D-08     -V/T= 2.0073
 KE= 1.315182303437D+02 PE=-4.244650210336D+02 EE= 1.022606941532D+02
 Leave Link  502 at Wed Aug 19 17:57:53 2020, MaxMem=    65536000 cpu:         3.3
 (Enter /opt/cluster/programs/g09/g09_d.01/g09/l801.exe)
 DoSCS=T DFT=T ScalE2(SS,OS)=  0.270000  0.270000
 ExpMin= 1.61D-01 ExpMax= 4.17D+03 ExpMxC= 6.27D+02 IAcc=3 IRadAn=         5 AccDes= 0.00D+00
 HarFok:  IExCor=  205 AccDes= 0.00D+00 IRadAn=         5 IDoV=-2 UseB2=F ITyADJ=14
 ICtDFT= 12500011 ScaDFX=  1.000000  1.000000  1.000000  1.000000
 Largest valence mixing into a core orbital is  1.03D-04
 Largest core mixing into a valence orbital is  2.20D-05
 Range of M.O.s used for correlation:     4    60
 NBasis=    60 NAE=    11 NBE=    11 NFC=     3 NFV=     0
 NROrb=     57 NOA=     8 NOB=     8 NVA=    49 NVB=    49

 **** Warning!!: The largest alpha MO coefficient is  0.10206265D+02

 Leave Link  801 at Wed Aug 19 17:57:54 2020, MaxMem=    65536000 cpu:         0.3
 (Enter /opt/cluster/programs/g09/g09_d.01/g09/l906.exe)
 DoSCS=T DFT=T ScalE2(SS,OS)=  0.270000  0.270000
 Frozen-core derivative calculation, NFC=   3 NFV=   0.
 FulOut=F Deriv=T AODrv=T NAtomX=     6
   MMem=         567  MDisk=           8 MDiskD=           8
  W3Min=       39600 MinDsk=      120890 NBas6D=          60
 NBas2D=        1920    NTT=        1830    LW2=     2040000
    MDV=    65485095 MDiskM=       14695 NBas2p=        1919
 Fully direct method using O(ONN) memory.
 IMap=   1   2   3   4   5   6   7   8   9  10  11
 JobTyp=1 Pass  1:  I=   4 to  11 NPSUse=  8 ParTrn=T ParDer=T DoDerP=T.
 Spin components of T(2) and E(2):
     alpha-alpha T2 =       0.3163485641D-01 E2=     -0.1798895005D-01
     alpha-beta  T2 =       0.1864674695D+00 E2=     -0.1090063215D+00
     beta-beta   T2 =       0.3163485641D-01 E2=     -0.1798895005D-01
 The integrals were generated   1 times.
 E2(B2PLYPD3) =    -0.1449842216D+00 E(B2PLYPD3) =    -0.13262451990896D+03
 Leave Link  906 at Wed Aug 19 17:57:54 2020, MaxMem=    65536000 cpu:         1.7
 (Enter /opt/cluster/programs/g09/g09_d.01/g09/l1002.exe)
 Minotr:  Closed shell wavefunction.
          Computing MP2/KS-MP2 derivatives.
          Using Z-Vector for PSCF gradient.
          Skipping F1 and S1 gradient terms here.
          IDoAtm=111111
          Frozen-core window.
          Direct CPHF calculation.
          Differentiating once with respect to electric field.
                with respect to dipole field.
          Differentiating once with respect to nuclear coordinates.
          Requested convergence is 1.0D-10 RMS, and 1.0D-09 maximum.
          NewPWx=F KeepS1=T KeepF1=T KeepIn=T MapXYZ=F SortEE=F KeepMc=T.
          MDV=      65535879 using IRadAn=       0.
 Using stored XC quadrature information.
 Keep R1 ints in memory in canonical form, NReq=2557672.
 FoFCou: FMM=F IPFlag=           0 FMFlag=           0 FMFlg1=           0
         NFxFlg=           0 DoJE=F BraDBF=F KetDBF=F FulRan=T
         wScrn=  0.000000 ICntrl=     600 IOpCl=  0 I1Cent=           0 NGrid=           0
         NMat0=    1 NMatS0=   1830 NMatT0=    0 NMatD0=    1 NMtDS0=    0 NMtDT0=    0
 Symmetry not used in FoFCou.
          Solving linear equations separately, MaxMat=       0.
          There are     1 degrees of freedom in the 1st order CPHF.  IDoFFX=0 NUNeed=     1.
 LinEq1:  Iter=  0 NonCon=     1 RMS=3.04D-03 Max=2.39D-02 NDo=     1
 AX will form     1 AO Fock derivatives at one time.
 LinEq1:  Iter=  1 NonCon=     1 RMS=1.24D-03 Max=8.76D-03 NDo=     1
 LinEq1:  Iter=  2 NonCon=     1 RMS=7.58D-04 Max=6.83D-03 NDo=     1
 LinEq1:  Iter=  3 NonCon=     1 RMS=2.84D-04 Max=2.09D-03 NDo=     1
 LinEq1:  Iter=  4 NonCon=     1 RMS=4.78D-05 Max=2.76D-04 NDo=     1
 LinEq1:  Iter=  5 NonCon=     1 RMS=2.12D-05 Max=2.81D-04 NDo=     1
 LinEq1:  Iter=  6 NonCon=     1 RMS=3.52D-06 Max=4.06D-05 NDo=     1
 LinEq1:  Iter=  7 NonCon=     1 RMS=3.77D-07 Max=2.56D-06 NDo=     1
 LinEq1:  Iter=  8 NonCon=     1 RMS=5.49D-08 Max=4.36D-07 NDo=     1
 LinEq1:  Iter=  9 NonCon=     1 RMS=9.65D-09 Max=8.47D-08 NDo=     1
 LinEq1:  Iter= 10 NonCon=     1 RMS=1.84D-09 Max=1.97D-08 NDo=     1
 LinEq1:  Iter= 11 NonCon=     1 RMS=2.70D-10 Max=1.75D-09 NDo=     1
 LinEq1:  Iter= 12 NonCon=     0 RMS=3.22D-11 Max=2.45D-10 NDo=     1
 Linear equations converged to 1.000D-10 1.000D-09 after    12 iterations.
 End of Minotr F.D. properties file   721 does not exist.
 End of Minotr F.D. properties file   722 does not exist.
 End of Minotr F.D. properties file   788 does not exist.
 Leave Link 1002 at Wed Aug 19 17:57:56 2020, MaxMem=    65536000 cpu:         6.3
 (Enter /opt/cluster/programs/g09/g09_d.01/g09/l601.exe)
 Copying SCF densities to generalized density rwf, IOpCl= 0 IROHF=0.

 **********************************************************************

            Population analysis using the SCF density.

 **********************************************************************

 Orbital symmetries:
       Occupied  (A) (A) (A) (A) (A) (A) (A) (A) (A) (A) (A)
       Virtual   (A) (A) (A) (A) (A) (A) (A) (A) (A) (A) (A) (A)
                 (A) (A) (A) (A) (A) (A) (A) (A) (A) (A) (A) (A)
                 (A) (A) (A) (A) (A) (A) (A) (A) (A) (A) (A) (A)
                 (A) (A) (A) (A) (A) (A) (A) (A) (A) (A) (A) (A)
                 (A)
 The electronic state is 1-A.
 Alpha  occ. eigenvalues --  -14.85523 -10.67737 -10.67302  -1.02994  -0.88661
 Alpha  occ. eigenvalues --   -0.59215  -0.53287  -0.53270  -0.43828  -0.37888
 Alpha  occ. eigenvalues --   -0.37886
 Alpha virt. eigenvalues --    0.10357   0.10361   0.14083   0.22547   0.22552
 Alpha virt. eigenvalues --    0.25776   0.34487   0.61039   0.61051   0.66551
 Alpha virt. eigenvalues --    0.70459   0.70480   0.76245   0.87895   0.90476
 Alpha virt. eigenvalues --    0.90490   0.94002   0.94018   0.97525   1.15455
 Alpha virt. eigenvalues --    1.42145   1.42152   1.47286   1.63318   1.63320
 Alpha virt. eigenvalues --    1.68058   1.85666   1.85683   2.06829   2.06848
 Alpha virt. eigenvalues --    2.12110   2.18250   2.18283   2.20716   2.38670
 Alpha virt. eigenvalues --    2.38705   2.66834   2.79653   2.79699   2.91441
 Alpha virt. eigenvalues --    3.09099   3.09117   3.19779   3.42879   3.54182
 Alpha virt. eigenvalues --    3.54218   4.16122   4.36555   4.81393
          Condensed to atoms (all electrons):
               1          2          3          4          5          6
     1  C    4.984393   0.298049  -0.073232   0.389156   0.389178   0.389042
     2  C    0.298049   4.586190   0.890817  -0.030469  -0.030444  -0.030345
     3  N   -0.073232   0.890817   6.647044  -0.000343  -0.000336  -0.000318
     4  H    0.389156  -0.030469  -0.000343   0.516240  -0.024635  -0.024624
     5  H    0.389178  -0.030444  -0.000336  -0.024635   0.516073  -0.024556
     6  H    0.389042  -0.030345  -0.000318  -0.024624  -0.024556   0.516178
 Mulliken charges:
               1
     1  C   -0.376586
     2  C    0.316201
     3  N   -0.463632
     4  H    0.174675
     5  H    0.174720
     6  H    0.174623
 Sum of Mulliken charges =   0.00000
 Mulliken charges with hydrogens summed into heavy atoms:
               1
     1  C    0.147432
     2  C    0.316201
     3  N   -0.463632
 Electronic spatial extent (au):  <R**2>=            162.2034
 Charge=              0.0000 electrons
 Dipole moment (field-independent basis, Debye):
    X=             -3.9561    Y=              0.0000    Z=              0.0001  Tot=              3.9561
 Quadrupole moment (field-independent basis, Debye-Ang):
   XX=            -20.5371   YY=            -17.3899   ZZ=            -17.3927
   XY=              0.0008   XZ=             -0.0012   YZ=              0.0004
 Traceless Quadrupole moment (field-independent basis, Debye-Ang):
   XX=             -2.0972   YY=              1.0500   ZZ=              1.0472
   XY=              0.0008   XZ=             -0.0012   YZ=              0.0004
 Octapole moment (field-independent basis, Debye-Ang**2):
  XXX=            -11.6657  YYY=              0.4405  ZZZ=              0.6316  XYY=             -1.7081
  XXY=              0.0023  XXZ=              0.0003  XZZ=             -1.7026  YZZ=             -0.4449
  YYZ=             -0.6298  XYZ=              0.0000
 Hexadecapole moment (field-independent basis, Debye-Ang**3):
 XXXX=           -178.0989 YYYY=            -22.6098 ZZZZ=            -22.6070 XXXY=             -0.0012
 XXXZ=             -0.0024 YYYX=             -0.7469 YYYZ=              0.0024 ZZZX=             -1.0634
 ZZZY=             -0.0004 XXYY=            -29.9391 XXZZ=            -29.9499 YYZZ=             -7.5364
 XXYZ=             -0.0008 YYXZ=              1.0623 ZZXY=              0.7486
 N-N= 5.820656084937D+01 E-N=-4.244650197377D+02  KE= 1.315182303437D+02
 No NMR shielding tensors so no spin-rotation constants.
 Leave Link  601 at Wed Aug 19 17:57:56 2020, MaxMem=    65536000 cpu:         0.7
 (Enter /opt/cluster/programs/g09/g09_d.01/g09/l701.exe)
 Compute integral first derivatives.
 ... and contract with generalized density number  2.
 R6Disp: Adding Grimme-D3(BJ) dispersion energy 1st derivatives to the gradient.
 Leave Link  701 at Wed Aug 19 17:57:56 2020, MaxMem=    65536000 cpu:         0.8
 (Enter /opt/cluster/programs/g09/g09_d.01/g09/l702.exe)
 L702 exits ... SP integral derivatives will be done elsewhere.
 Leave Link  702 at Wed Aug 19 17:57:56 2020, MaxMem=    65536000 cpu:         0.1
 (Enter /opt/cluster/programs/g09/g09_d.01/g09/l703.exe)
 Compute integral first derivatives, UseDBF=F ICtDFT=           0.
 Integral derivatives from FoFJK, PRISM(SPDF).
 Calling FoFJK, ICntrl=  10002127 FMM=F ISym2X=0 I1Cent= 0 IOpClX= 0 NMat=1 NMatS=1 NMatT=0.
 FoFJK:  IHMeth= 1 ICntrl=10002127 DoSepK=F KAlg= 0 I1Cent=   0 FoldK=F
 IRaf=         0 NMat=   1 IRICut=       1 DoRegI=T DoRafI=F ISym2E= 0.
 FoFCou: FMM=F IPFlag=           0 FMFlag=      100000 FMFlg1=         800
         NFxFlg=           0 DoJE=F BraDBF=F KetDBF=F FulRan=T
         wScrn=  0.000000 ICntrl=10002127 IOpCl=  0 I1Cent=           0 NGrid=           0
         NMat0=    1 NMatS0=      1 NMatT0=    0 NMatD0=    1 NMtDS0=    0 NMtDT0=    0
 Symmetry not used in FoFCou.
 Leave Link  703 at Wed Aug 19 17:57:57 2020, MaxMem=    65536000 cpu:         2.1
 (Enter /opt/cluster/programs/g09/g09_d.01/g09/l716.exe)
 Dipole        =-1.48838000D+00-2.73039260D-07 5.26047077D-05
 ***** Axes restored to original set *****
 -------------------------------------------------------------------
 Center     Atomic                   Forces (Hartrees/Bohr)
 Number     Number              X              Y              Z
 -------------------------------------------------------------------
      1        6           0.000190533   -0.000128952    0.000192494
      2        6          -0.000112877    0.000050279    0.000026066
      3        7          -0.000015828   -0.000043236   -0.000019866
      4        1          -0.000048520   -0.000012936   -0.000008507
      5        1           0.000048052    0.000062679   -0.000151791
      6        1          -0.000061361    0.000072166   -0.000038396
 -------------------------------------------------------------------
 Cartesian Forces:  Max     0.000192494 RMS     0.000091520
 Leave Link  716 at Wed Aug 19 17:57:57 2020, MaxMem=    65536000 cpu:         0.2
 (Enter /opt/cluster/programs/g09/g09_d.01/g09/l103.exe)

 GradGradGradGradGradGradGradGradGradGradGradGradGradGradGradGradGradGrad
 Berny optimization.
 FormGI is forming the generalized inverse of G from B-inverse, IUseBI=4.
 Internal  Forces:  Max     0.000155304 RMS     0.000063910
 Search for a local minimum.
 Step number   1 out of a maximum of   27
 All quantities printed in internal units (Hartrees-Bohrs-Radians)
 RMS Force = .63910D-04 SwitMx=.10000D-02 MixMth= 2
 Mixed Optimization -- En-DIIS/RFO-DIIS
 Second derivative matrix not updated -- first step.
 The second derivative matrix:
                          R1        R2        R3        R4        R5
           R1           0.36828
           R2           0.00000   0.34811
           R3           0.00000   0.00000   0.34847
           R4           0.00000   0.00000   0.00000   0.34809
           R5           0.00000   0.00000   0.00000   0.00000   1.23307
           A1           0.00000   0.00000   0.00000   0.00000   0.00000
           A2           0.00000   0.00000   0.00000   0.00000   0.00000
           A3           0.00000   0.00000   0.00000   0.00000   0.00000
           A4           0.00000   0.00000   0.00000   0.00000   0.00000
           A5           0.00000   0.00000   0.00000   0.00000   0.00000
           A6           0.00000   0.00000   0.00000   0.00000   0.00000
           A7           0.00000   0.00000   0.00000   0.00000   0.00000
           A8           0.00000   0.00000   0.00000   0.00000   0.00000
           D1           0.00000   0.00000   0.00000   0.00000   0.00000
           D2           0.00000   0.00000   0.00000   0.00000   0.00000
           D3           0.00000   0.00000   0.00000   0.00000   0.00000
           D4           0.00000   0.00000   0.00000   0.00000   0.00000
                          A1        A2        A3        A4        A5
           A1           0.16000
           A2           0.00000   0.16000
           A3           0.00000   0.00000   0.16000
           A4           0.00000   0.00000   0.00000   0.16000
           A5           0.00000   0.00000   0.00000   0.00000   0.16000
           A6           0.00000   0.00000   0.00000   0.00000   0.00000
           A7           0.00000   0.00000   0.00000   0.00000   0.00000
           A8           0.00000   0.00000   0.00000   0.00000   0.00000
           D1           0.00000   0.00000   0.00000   0.00000   0.00000
           D2           0.00000   0.00000   0.00000   0.00000   0.00000
           D3           0.00000   0.00000   0.00000   0.00000   0.00000
           D4           0.00000   0.00000   0.00000   0.00000   0.00000
                          A6        A7        A8        D1        D2
           A6           0.16000
           A7           0.00000   0.04774
           A8           0.00000   0.00000   0.04774
           D1           0.00000   0.00000   0.00000   0.00239
           D2           0.00000   0.00000   0.00000   0.00000   0.00234
           D3           0.00000   0.00000   0.00000   0.00000   0.00000
           D4           0.00000   0.00000   0.00000   0.00000   0.00000
                          D3        D4
           D3           0.00234
           D4           0.00000   0.00234
 ITU=  0
     Eigenvalues ---    0.04774   0.04774   0.05090   0.05823   0.08535
     Eigenvalues ---    0.16000   0.16000   0.34809   0.34811   0.34847
     Eigenvalues ---    0.36828   1.23307
 RFO step:  Lambda=-4.09561605D-07 EMin= 4.77365368D-02
 Linear search not attempted -- first point.
 Iteration  1 RMS(Cart)=  0.00059954 RMS(Int)=  0.00000074
 Iteration  2 RMS(Cart)=  0.00000063 RMS(Int)=  0.00000010
 ITry= 1 IFail=0 DXMaxC= 1.12D-03 DCOld= 1.00D+10 DXMaxT= 3.00D-01 DXLimC= 3.00D+00 Rises=F
 Variable       Old X    -DE/DX   Delta X   Delta X   Delta X     New X
                                 (Linear)    (Quad)   (Total)
    R1        2.76106   0.00013   0.00000   0.00035   0.00035   2.76141
    R2        2.05982  -0.00003   0.00000  -0.00008  -0.00008   2.05975
    R3        2.05924   0.00016   0.00000   0.00045   0.00045   2.05968
    R4        2.05986  -0.00007   0.00000  -0.00021  -0.00021   2.05965
    R5        2.20535   0.00002   0.00000   0.00001   0.00001   2.20536
    A1        1.92189  -0.00001   0.00000  -0.00002  -0.00002   1.92188
    A2        1.92198   0.00003   0.00000   0.00000   0.00000   1.92198
    A3        1.92267  -0.00005   0.00000  -0.00051  -0.00051   1.92216
    A4        1.89849   0.00004   0.00000   0.00058   0.00058   1.89907
    A5        1.89858   0.00006   0.00000   0.00042   0.00042   1.89901
    A6        1.89976  -0.00007   0.00000  -0.00047  -0.00047   1.89929
    A7        3.14081   0.00006   0.00000   0.00130   0.00130   3.14211
    A8        3.13930   0.00004   0.00000   0.00086   0.00086   3.14017
    D1        2.10763   0.00003   0.00000   0.00035   0.00035   2.10798
    D2       -2.10811   0.00001   0.00000   0.00006   0.00006  -2.10805
    D3        2.10896  -0.00003   0.00000  -0.00061  -0.00061   2.10836
    D4       -2.06611  -0.00004   0.00000  -0.00067  -0.00067  -2.06678
         Item               Value     Threshold  Converged?
 Maximum Force            0.000155     0.000450     YES
 RMS     Force            0.000064     0.000300     YES
 Maximum Displacement     0.001119     0.001800     YES
 RMS     Displacement     0.000600     0.001200     YES
 Predicted change in Energy=-2.047578D-07
 Optimization completed.
    -- Stationary point found.
                           ----------------------------
                           !   Optimized Parameters   !
                           ! (Angstroms and Degrees)  !
 --------------------------                            --------------------------
 ! Name  Definition              Value          Derivative Info.                !
 --------------------------------------------------------------------------------
 ! R1    R(1,2)                  1.4611         -DE/DX =    0.0001              !
 ! R2    R(1,4)                  1.09           -DE/DX =    0.0                 !
 ! R3    R(1,5)                  1.0897         -DE/DX =    0.0002              !
 ! R4    R(1,6)                  1.09           -DE/DX =   -0.0001              !
 ! R5    R(2,3)                  1.167          -DE/DX =    0.0                 !
 ! A1    A(2,1,4)              110.1162         -DE/DX =    0.0                 !
 ! A2    A(2,1,5)              110.1215         -DE/DX =    0.0                 !
 ! A3    A(2,1,6)              110.1609         -DE/DX =    0.0                 !
 ! A4    A(4,1,5)              108.7755         -DE/DX =    0.0                 !
 ! A5    A(4,1,6)              108.7809         -DE/DX =    0.0001              !
 ! A6    A(5,1,6)              108.8482         -DE/DX =   -0.0001              !
 ! A7    L(1,2,3,4,-1)         179.9554         -DE/DX =    0.0001              !
 ! A8    L(1,2,3,4,-2)         179.8687         -DE/DX =    0.0                 !
 ! D1    D(2,1,5,4)            120.7583         -DE/DX =    0.0                 !
 ! D2    D(2,1,6,4)           -120.7859         -DE/DX =    0.0                 !
 ! D3    D(2,1,6,5)            120.8348         -DE/DX =    0.0                 !
 ! D4    D(4,1,6,5)           -118.3794         -DE/DX =    0.0                 !
 --------------------------------------------------------------------------------
 Lowest energy point so far.  Saving SCF results.
 GradGradGradGradGradGradGradGradGradGradGradGradGradGradGradGradGradGrad

 Largest change from initial coordinates is atom    4       0.000 Angstoms.
 Leave Link  103 at Wed Aug 19 17:57:58 2020, MaxMem=    65536000 cpu:         0.1
 (Enter /opt/cluster/programs/g09/g09_d.01/g09/l202.exe)
                          Input orientation:                          
 ---------------------------------------------------------------------
 Center     Atomic      Atomic             Coordinates (Angstroms)
 Number     Number       Type             X           Y           Z
 ---------------------------------------------------------------------
      1          6           0        1.183540    0.000110   -0.000070
      2          6           0       -0.277550   -0.000630   -0.000300
      3          7           0       -1.444570    0.000240    0.000140
      4          1           0        1.558160    0.208340    1.002140
      5          1           0        1.558130    0.764520   -0.680370
      6          1           0        1.559770   -0.971450   -0.320520
 ---------------------------------------------------------------------
                    Distance matrix (angstroms):
                    1          2          3          4          5
     1  C    0.000000
     2  C    1.461090   0.000000
     3  N    2.628110   1.167020   0.000000
     4  H    1.090011   2.101996   3.172333   0.000000
     5  H    1.089701   2.101826   3.172290   1.772054   0.000000
     6  H    1.090030   2.102564   3.173809   1.772382   1.772875
                    6
     6  H    0.000000
 Stoichiometry    C2H3N
 Framework group  C1[X(C2H3N)]
 Deg. of freedom    12
 Full point group                 C1      NOp   1
 RotChk:  IX=0 Diff= 4.67D-16
 Largest Abelian subgroup         C1      NOp   1
 Largest concise Abelian subgroup C1      NOp   1
                         Standard orientation:                         
 ---------------------------------------------------------------------
 Center     Atomic      Atomic             Coordinates (Angstroms)
 Number     Number       Type             X           Y           Z
 ---------------------------------------------------------------------
      1          6           0       -1.183540   -0.000111   -0.000070
      2          6           0        0.277550    0.000629   -0.000300
      3          7           0        1.444570   -0.000242    0.000140
      4          1           0       -1.558160   -0.208341    1.002140
      5          1           0       -1.558130   -0.764521   -0.680370
      6          1           0       -1.559769    0.971449   -0.320520
 ---------------------------------------------------------------------
 Rotational constants (GHZ):    159.6208213      9.1294372      9.1291555
 Leave Link  202 at Wed Aug 19 17:57:58 2020, MaxMem=    65536000 cpu:         0.0
 (Enter /opt/cluster/programs/g09/g09_d.01/g09/l9999.exe)
 1\1\GINC-NODE24\FOpt\RB2PLYPD3-FC\6-31G(d,p)\C2H3N1\BOITTIER\19-Aug-20
 20\0\\#p B2PLYPD3/6-31G** opt freq=NoRaman\\cyanomethane_opt\\0,1\C,1.
 18354,0.00011,-0.00007\C,-0.27755,-0.00063,-0.0003\N,-1.44457,0.00024,
 0.00014\H,1.55816,0.20834,1.00214\H,1.55813,0.76452,-0.68037\H,1.55977
 ,-0.97145,-0.32052\\Version=ES64L-G09RevD.01\State=1-A\HF=-132.4795357
 \MP2=-132.6245199\RMSD=7.352e-09\RMSF=9.152e-05\Dipole=1.48838,0.00000
 1,0.0000526\PG=C01 [X(C2H3N1)]\\@



 WE LOSE BECAUSE WE WIN

 GAMBLERS,

 RECOLLECTING WHICH,

 TOSS THEIR DICE AGAIN....


                          EMILY DICKINSON  BOLTS OF MELODY NO. 533
 Leave Link 9999 at Wed Aug 19 17:57:58 2020, MaxMem=    65536000 cpu:         0.1
 Job cpu time:       0 days  0 hours  0 minutes 19.2 seconds.
 File lengths (MBytes):  RWF=      5 Int=      0 D2E=      0 Chk=      2 Scr=      1
 Normal termination of Gaussian 09 at Wed Aug 19 17:57:58 2020.
 (Enter /opt/cluster/programs/g09/g09_d.01/g09/l1.exe)
 Link1:  Proceeding to internal job step number  2.
 ----------------------------------------------------------------------
 #P Geom=AllCheck Guess=TCheck SCRF=Check GenChk RB2PLYPD3(FC)/6-31G(d,
 p) Freq
 ----------------------------------------------------------------------
 1/10=4,29=7,30=1,38=1,40=1/1,3;
 2/12=2,40=1/2;
 3/5=1,6=6,7=101,11=1,14=-4,16=1,25=1,30=1,70=2,71=2,74=-60,116=1,140=1/1,2,3;
 4/5=101/1;
 5/5=2,98=1/2;
 8/6=3,8=1,10=2,19=11,30=-1/1;
 9/15=3,16=-3/6;
 11/6=1,8=1,15=11,17=12,24=-1,27=1,28=-2,29=300,32=6,42=3/1,2,10;
 10/6=2,21=1/2;
 8/6=4,8=1,10=2,19=11,30=-1/11,4;
 10/5=1,20=4/2;
 11/12=2,14=11,16=1,17=2,28=-2,42=3/2,10,12;
 6/7=2,8=2,9=2,10=2/1;
 7/8=1,10=1,12=2,25=1,44=2/1,2,3,16;
 1/10=4,30=1/3;
 99//99;
 Leave Link    1 at Wed Aug 19 17:57:58 2020, MaxMem=    65536000 cpu:         0.2
 (Enter /opt/cluster/programs/g09/g09_d.01/g09/l101.exe)
 Structure from the checkpoint file:  "cyanomethane_opt.chk"
 ----------------
 cyanomethane_opt
 ----------------
 Charge =  0 Multiplicity = 1
 Redundant internal coordinates found in file.
 C,0,1.18354,0.00011,-0.00007
 C,0,-0.27755,-0.00063,-0.0003
 N,0,-1.44457,0.00024,0.00014
 H,0,1.55816,0.20834,1.00214
 H,0,1.55813,0.76452,-0.68037
 H,0,1.55977,-0.97145,-0.32052
 Recover connectivity data from disk.
 NAtoms=      6 NQM=        6 NQMF=       0 NMMI=      0 NMMIF=      0
                NMic=       0 NMicF=      0.
                    Isotopes and Nuclear Properties:
 (Nuclear quadrupole moments (NQMom) in fm**2, nuclear magnetic moments (NMagM)
  in nuclear magnetons)

  Atom         1           2           3           4           5           6
 IAtWgt=          12          12          14           1           1           1
 AtmWgt=  12.0000000  12.0000000  14.0030740   1.0078250   1.0078250   1.0078250
 NucSpn=           0           0           2           1           1           1
 AtZEff=  -3.6000000  -3.6000000  -4.5500000  -1.0000000  -1.0000000  -1.0000000
 NQMom=    0.0000000   0.0000000   2.0440000   0.0000000   0.0000000   0.0000000
 NMagM=    0.0000000   0.0000000   0.4037610   2.7928460   2.7928460   2.7928460
 AtZNuc=   6.0000000   6.0000000   7.0000000   1.0000000   1.0000000   1.0000000
 Leave Link  101 at Wed Aug 19 17:57:58 2020, MaxMem=    65536000 cpu:         0.6
 (Enter /opt/cluster/programs/g09/g09_d.01/g09/l103.exe)

 GradGradGradGradGradGradGradGradGradGradGradGradGradGradGradGradGradGrad
 Berny optimization.
 Initialization pass.
                           ----------------------------
                           !    Initial Parameters    !
                           ! (Angstroms and Degrees)  !
 --------------------------                            --------------------------
 ! Name  Definition              Value          Derivative Info.                !
 --------------------------------------------------------------------------------
 ! R1    R(1,2)                  1.4611         calculate D2E/DX2 analytically  !
 ! R2    R(1,4)                  1.09           calculate D2E/DX2 analytically  !
 ! R3    R(1,5)                  1.0897         calculate D2E/DX2 analytically  !
 ! R4    R(1,6)                  1.09           calculate D2E/DX2 analytically  !
 ! R5    R(2,3)                  1.167          calculate D2E/DX2 analytically  !
 ! A1    A(2,1,4)              110.1162         calculate D2E/DX2 analytically  !
 ! A2    A(2,1,5)              110.1215         calculate D2E/DX2 analytically  !
 ! A3    A(2,1,6)              110.1609         calculate D2E/DX2 analytically  !
 ! A4    A(4,1,5)              108.7755         calculate D2E/DX2 analytically  !
 ! A5    A(4,1,6)              108.7809         calculate D2E/DX2 analytically  !
 ! A6    A(5,1,6)              108.8482         calculate D2E/DX2 analytically  !
 ! A7    L(1,2,3,4,-1)         179.9554         calculate D2E/DX2 analytically  !
 ! A8    L(1,2,3,4,-2)         179.8687         calculate D2E/DX2 analytically  !
 ! D1    D(2,1,5,4)            120.7583         calculate D2E/DX2 analytically  !
 ! D2    D(2,1,6,4)           -120.7859         calculate D2E/DX2 analytically  !
 ! D3    D(2,1,6,5)            120.8348         calculate D2E/DX2 analytically  !
 ! D4    D(4,1,6,5)           -118.3794         calculate D2E/DX2 analytically  !
 --------------------------------------------------------------------------------
 Trust Radius=3.00D-01 FncErr=1.00D-07 GrdErr=1.00D-07
 Number of steps in this run=      2 maximum allowed number of steps=      2.
 GradGradGradGradGradGradGradGradGradGradGradGradGradGradGradGradGradGrad

 Leave Link  103 at Wed Aug 19 17:57:58 2020, MaxMem=    65536000 cpu:         0.0
 (Enter /opt/cluster/programs/g09/g09_d.01/g09/l202.exe)
                          Input orientation:                          
 ---------------------------------------------------------------------
 Center     Atomic      Atomic             Coordinates (Angstroms)
 Number     Number       Type             X           Y           Z
 ---------------------------------------------------------------------
      1          6           0        1.183540    0.000110   -0.000070
      2          6           0       -0.277550   -0.000630   -0.000300
      3          7           0       -1.444570    0.000240    0.000140
      4          1           0        1.558160    0.208340    1.002140
      5          1           0        1.558130    0.764520   -0.680370
      6          1           0        1.559770   -0.971450   -0.320520
 ---------------------------------------------------------------------
                    Distance matrix (angstroms):
                    1          2          3          4          5
     1  C    0.000000
     2  C    1.461090   0.000000
     3  N    2.628110   1.167020   0.000000
     4  H    1.090011   2.101996   3.172333   0.000000
     5  H    1.089701   2.101826   3.172290   1.772054   0.000000
     6  H    1.090030   2.102564   3.173809   1.772382   1.772875
                    6
     6  H    0.000000
 Stoichiometry    C2H3N
 Framework group  C1[X(C2H3N)]
 Deg. of freedom    12
 Full point group                 C1      NOp   1
 RotChk:  IX=0 Diff= 7.84D-16
 Largest Abelian subgroup         C1      NOp   1
 Largest concise Abelian subgroup C1      NOp   1
                         Standard orientation:                         
 ---------------------------------------------------------------------
 Center     Atomic      Atomic             Coordinates (Angstroms)
 Number     Number       Type             X           Y           Z
 ---------------------------------------------------------------------
      1          6           0       -1.183540   -0.000111   -0.000070
      2          6           0        0.277550    0.000629   -0.000300
      3          7           0        1.444570   -0.000242    0.000140
      4          1           0       -1.558160   -0.208341    1.002140
      5          1           0       -1.558130   -0.764521   -0.680370
      6          1           0       -1.559769    0.971449   -0.320520
 ---------------------------------------------------------------------
 Rotational constants (GHZ):    159.6208213      9.1294372      9.1291555
 Leave Link  202 at Wed Aug 19 17:57:58 2020, MaxMem=    65536000 cpu:         0.0
 (Enter /opt/cluster/programs/g09/g09_d.01/g09/l301.exe)
 Standard basis: 6-31G(d,p) (6D, 7F)
 Ernie: Thresh=  0.10000D-02 Tol=  0.10000D-05 Strict=F.
 There are    60 symmetry adapted cartesian basis functions of A   symmetry.
 There are    60 symmetry adapted basis functions of A   symmetry.
    60 basis functions,   105 primitive gaussians,    60 cartesian basis functions
    11 alpha electrons       11 beta electrons
       nuclear repulsion energy        58.2086584226 Hartrees.
 IExCor=  419 DFT=T Ex+Corr=B2PLYPD3 ExCW=0 ScaHFX=  0.530000
 ScaDFX=  0.470000  0.470000  0.730000  0.730000 ScalE2=  0.270000  0.270000
 IRadAn=      0 IRanWt=     -1 IRanGd=            0 ICorTp=0 IEmpDi=141
 NAtoms=    6 NActive=    6 NUniq=    6 SFac= 1.00D+00 NAtFMM=   60 NAOKFM=F Big=F
 Integral buffers will be    131072 words long.
 Raffenetti 1 integral format.
 Two-electron integral symmetry is turned on.
 R6Disp:  Grimme-D3(BJ) Dispersion energy=       -0.0020975732 Hartrees.
 Nuclear repulsion after empirical dispersion term =       58.2065608494 Hartrees.
 Leave Link  301 at Wed Aug 19 17:57:58 2020, MaxMem=    65536000 cpu:         0.4
 (Enter /opt/cluster/programs/g09/g09_d.01/g09/l302.exe)
 NPDir=0 NMtPBC=     1 NCelOv=     1 NCel=       1 NClECP=     1 NCelD=      1
         NCelK=      1 NCelE2=     1 NClLst=     1 CellRange=     0.0.
 One-electron integrals computed using PRISM.
 NBasis=    60 RedAO= T EigKep=  1.56D-03  NBF=    60
 NBsUse=    60 1.00D-06 EigRej= -1.00D+00 NBFU=    60
 Precomputing XC quadrature grid using
 IXCGrd= 4 IRadAn=           0 IRanWt=          -1 IRanGd=           0 AccXCQ= 0.00D+00.
 Generated NRdTot=       0 NPtTot=           0 NUsed=           0 NTot=          32
 NSgBfM=    60    60    60    60    60 MxSgAt=     6 MxSgA2=     6.
 Leave Link  302 at Wed Aug 19 17:57:58 2020, MaxMem=    65536000 cpu:         0.9
 (Enter /opt/cluster/programs/g09/g09_d.01/g09/l303.exe)
 DipDrv:  MaxL=1.
 Leave Link  303 at Wed Aug 19 17:57:59 2020, MaxMem=    65536000 cpu:         0.1
 (Enter /opt/cluster/programs/g09/g09_d.01/g09/l401.exe)
 Initial guess from the checkpoint file:  "cyanomethane_opt.chk"
 B after Tr=     0.000000    0.000000    0.000000
         Rot=    1.000000    0.000000    0.000000    0.000000 Ang=   0.00 deg.
 Guess basis will be translated and rotated to current coordinates.
 JPrj=2 DoOrth=T DoCkMO=T.
 Leave Link  401 at Wed Aug 19 17:57:59 2020, MaxMem=    65536000 cpu:         0.6
 (Enter /opt/cluster/programs/g09/g09_d.01/g09/l502.exe)
 Closed shell SCF:
 Using DIIS extrapolation, IDIIS=  1040.
 Integral symmetry usage will be decided dynamically.
 Keep R1 ints in memory in canonical form, NReq=2587004.
 IVT=       30283 IEndB=       30283 NGot=    65536000 MDV=    63830353
 LenX=    63830353 LenY=    63826312
 Requested convergence on RMS density matrix=1.00D-08 within 128 cycles.
 Requested convergence on MAX density matrix=1.00D-06.
 Requested convergence on             energy=1.00D-06.
 No special actions if energy rises.
 FoFCou: FMM=F IPFlag=           0 FMFlag=           0 FMFlg1=           0
         NFxFlg=           0 DoJE=F BraDBF=F KetDBF=F FulRan=T
         wScrn=  0.000000 ICntrl=     600 IOpCl=  0 I1Cent=           0 NGrid=           0
         NMat0=    1 NMatS0=   1830 NMatT0=    0 NMatD0=    1 NMtDS0=    0 NMtDT0=    0
 Symmetry not used in FoFCou.

 Cycle   1  Pass 1  IDiag  1:
 E= -132.479535687399    
 DIIS: error= 4.90D-09 at cycle   1 NSaved=   1.
 NSaved= 1 IEnMin= 1 EnMin= -132.479535687399     IErMin= 1 ErrMin= 4.90D-09
 ErrMax= 4.90D-09  0.00D+00 EMaxC= 1.00D-01 BMatC= 2.58D-15 BMatP= 2.58D-15
 IDIUse=1 WtCom= 1.00D+00 WtEn= 0.00D+00
 Coeff-Com:  0.100D+01
 Coeff:      0.100D+01
 Gap=     0.482 Goal=   None    Shift=    0.000
 RMSDP=1.30D-09 MaxDP=1.62D-08              OVMax= 2.03D-08

 SCF Done:  E(RB2PLYPD3) =  -132.479535687     A.U. after    1 cycles
            NFock=  1  Conv=0.13D-08     -V/T= 2.0073
 KE= 1.315182305116D+02 PE=-4.244650199056D+02 EE= 1.022606928573D+02
 Leave Link  502 at Wed Aug 19 17:57:59 2020, MaxMem=    65536000 cpu:         1.1
 (Enter /opt/cluster/programs/g09/g09_d.01/g09/l801.exe)
 DoSCS=T DFT=T ScalE2(SS,OS)=  0.270000  0.270000
 ExpMin= 1.61D-01 ExpMax= 4.17D+03 ExpMxC= 6.27D+02 IAcc=3 IRadAn=         5 AccDes= 0.00D+00
 HarFok:  IExCor=  205 AccDes= 0.00D+00 IRadAn=         5 IDoV=-2 UseB2=F ITyADJ=14
 ICtDFT= 12500011 ScaDFX=  1.000000  1.000000  1.000000  1.000000
 Largest valence mixing into a core orbital is  1.03D-04
 Largest core mixing into a valence orbital is  2.20D-05
 Range of M.O.s used for correlation:     4    60
 NBasis=    60 NAE=    11 NBE=    11 NFC=     3 NFV=     0
 NROrb=     57 NOA=     8 NOB=     8 NVA=    49 NVB=    49

 **** Warning!!: The largest alpha MO coefficient is  0.10206265D+02

 Leave Link  801 at Wed Aug 19 17:57:59 2020, MaxMem=    65536000 cpu:         0.3
 (Enter /opt/cluster/programs/g09/g09_d.01/g09/l906.exe)
 DoSCS=T DFT=T ScalE2(SS,OS)=  0.270000  0.270000
 Frozen-core derivative calculation, NFC=   3 NFV=   0.
 FulOut=F Deriv=T AODrv=T NAtomX=     6
   MMem=           0  MDisk=           8 MDiskD=           8
  W3Min=       39600 MinDsk=      185690 NBas6D=          60
 NBas2D=        1920    NTT=        1830    LW2=     3300000
    MDV=    65484162 MDiskM=       14695 NBas2p=        1919
 Disk-based method using ON**2 memory for  8 occupieds at a time.
 Permanent disk used for amplitudes=      355201 words.
 Estimated scratch disk usage=     3799164 words.
 IMap=   1   2   3   4   5   6   7   8   9  10  11
 Actual    scratch disk usage=     3799164 words.
 GetIJB would need an additional    17482463 words of memory to use all   8 processors.
 JobTyp=1 Pass  1:  I=   4 to  11 NPSUse=  6 ParTrn=T ParDer=T DoDerP=T.
 (rs|ai) integrals will be sorted in core.
 Spin components of T(2) and E(2):
     alpha-alpha T2 =       0.3163485602D-01 E2=     -0.1798894998D-01
     alpha-beta  T2 =       0.1864674675D+00 E2=     -0.1090063211D+00
     beta-beta   T2 =       0.3163485602D-01 E2=     -0.1798894998D-01
 The integrals were generated   1 times.
 E2(B2PLYPD3) =    -0.1449842211D+00 E(B2PLYPD3) =    -0.13262451990846D+03
 Leave Link  906 at Wed Aug 19 17:58:00 2020, MaxMem=    65536000 cpu:         6.1
 (Enter /opt/cluster/programs/g09/g09_d.01/g09/l1101.exe)
 Using compressed Sx but separate Hx and Fx, NAtomX=     6.
 Will process      7 centers per pass.
 R6Disp: Adding Grimme-D3(BJ) dispersion energy 1st derivatives to the gradient.
 Leave Link 1101 at Wed Aug 19 17:58:00 2020, MaxMem=    65536000 cpu:         0.7
 (Enter /opt/cluster/programs/g09/g09_d.01/g09/l1102.exe)
 Leave Link 1102 at Wed Aug 19 17:58:01 2020, MaxMem=    65536000 cpu:         0.1
 (Enter /opt/cluster/programs/g09/g09_d.01/g09/l1110.exe)
 Forming Gx(P) for the SCF density, NAtomX=     6.
 Integral derivatives from FoFJK, PRISM(SPDF).
 Do as many integral derivatives as possible in FoFJK.
 G2DrvN: MDV=      65535848.
 G2DrvN: will do     7 centers at a time, making    1 passes.
 Calling FoFCou, ICntrl=  3107 FMM=F I1Cent=   0 AccDes= 0.00D+00.
 FoFJK:  IHMeth= 1 ICntrl=    3107 DoSepK=F KAlg= 0 I1Cent=   0 FoldK=F
 IRaf=         0 NMat=   1 IRICut=       1 DoRegI=T DoRafI=F ISym2E= 0.
 FoFCou: FMM=F IPFlag=           0 FMFlag=      100000 FMFlg1=           0
         NFxFlg=           0 DoJE=F BraDBF=F KetDBF=F FulRan=T
         wScrn=  0.000000 ICntrl=    3107 IOpCl=  0 I1Cent=           0 NGrid=           0
         NMat0=    1 NMatS0=      1 NMatT0=    0 NMatD0=    1 NMtDS0=    0 NMtDT0=    0
 Symmetry not used in FoFCou.
 End of G2Drv F.D. properties file   721 does not exist.
 End of G2Drv F.D. properties file   722 does not exist.
 End of G2Drv F.D. properties file   788 does not exist.
 Leave Link 1110 at Wed Aug 19 17:58:02 2020, MaxMem=    65536000 cpu:         5.6
 (Enter /opt/cluster/programs/g09/g09_d.01/g09/l1002.exe)
 Minotr:  Closed shell wavefunction.
          IDoAtm=111111
          Frozen-core window.
          Direct CPHF calculation.
          Differentiating once with respect to electric field.
                with respect to dipole field.
          Differentiating once with respect to nuclear coordinates.
          Requested convergence is 1.0D-08 RMS, and 1.0D-07 maximum.
          Secondary convergence is 1.0D-12 RMS, and 1.0D-12 maximum.
          NewPWx=T KeepS1=T KeepF1=T KeepIn=T MapXYZ=F SortEE=F KeepMc=T.
          MDV=      65535879 using IRadAn=       2.
 Generate precomputed XC quadrature information.
 Keep R1 ints in memory in canonical form, NReq=2557085.
 FoFCou: FMM=F IPFlag=           0 FMFlag=           0 FMFlg1=           0
         NFxFlg=           0 DoJE=F BraDBF=F KetDBF=F FulRan=T
         wScrn=  0.000000 ICntrl=     600 IOpCl=  0 I1Cent=           0 NGrid=           0
         NMat0=    1 NMatS0=   1830 NMatT0=    0 NMatD0=    1 NMtDS0=    0 NMtDT0=    0
 Symmetry not used in FoFCou.
          Solving linear equations simultaneously, MaxMat=       0.
          There are    21 degrees of freedom in the 1st order CPHF.  IDoFFX=6 NUNeed=    21.
     18 vectors produced by pass  0 Test12= 2.57D-15 4.76D-09 XBig12= 1.93D+01 2.37D+00.
 AX will form    18 AO Fock derivatives at one time.
     18 vectors produced by pass  1 Test12= 2.57D-15 4.76D-09 XBig12= 5.47D+00 8.05D-01.
     18 vectors produced by pass  2 Test12= 2.57D-15 4.76D-09 XBig12= 8.09D-02 7.54D-02.
     18 vectors produced by pass  3 Test12= 2.57D-15 4.76D-09 XBig12= 2.62D-04 3.79D-03.
     18 vectors produced by pass  4 Test12= 2.57D-15 4.76D-09 XBig12= 8.27D-07 2.65D-04.
     18 vectors produced by pass  5 Test12= 2.57D-15 4.76D-09 XBig12= 3.70D-09 2.22D-05.
      5 vectors produced by pass  6 Test12= 2.57D-15 4.76D-09 XBig12= 6.66D-12 8.92D-07.
      1 vectors produced by pass  7 Test12= 2.57D-15 4.76D-09 XBig12= 9.35D-15 2.53D-08.
 InvSVY:  IOpt=1 It=  1 EMax= 8.88D-16
 Solved reduced A of dimension   114 with    21 vectors.
 FullF1:  Do perturbations    1 to    21.
 Saving first derivative matrices.
 End of Minotr F.D. properties file   721 does not exist.
 End of Minotr F.D. properties file   722 does not exist.
 End of Minotr F.D. properties file   788 does not exist.
 Leave Link 1002 at Wed Aug 19 17:58:02 2020, MaxMem=    65536000 cpu:         5.7
 (Enter /opt/cluster/programs/g09/g09_d.01/g09/l811.exe)
 MDV=    65536000.
 DoSCS=T DFT=T ScalE2(SS,OS)=  0.270000  0.270000
 Form MO integral derivatives with frozen-active canonical formalism.
 MOERI=1 MOERIx=1 NAtoms=     6 NAtomX=     6.
 Discarding MO integrals.
 MO basis two electron integral derivatives will not be stored on disk.
 IAlg= 3 DoFC=T DoPWx=T Debug=F.
 Frozen-core window:  NFC=   3 NFV=   0.
 Reordered first order wavefunction length =       581042
 In DefCFB: NBatch=  1 ICI= 11 ICA= 49 LFMax= 25
            Large arrays: LIAPS=     7761600 LIARS=     3395700 words.
 In StABat: MaxSiz= 15 MinSiz= 15 NAtomB=  4
 DoIAMN: NPSUse=  8.
 Leave Link  811 at Wed Aug 19 17:58:04 2020, MaxMem=    65536000 cpu:        12.0
 (Enter /opt/cluster/programs/g09/g09_d.01/g09/l804.exe)
 Frozen-core window:  NFC=   3 NFV=   0.
 Closed-shell transformation, MDV=    65536000 ITran=4 ISComp=1.
 Semi-Direct transformation.
 ModeAB=           2 MOrb=            11 LenV=      65317211
 LASXX=      1020250 LTotXX=     1020250 LenRXX=     1020250
 LTotAB=     1071576 MaxLAS=     1207800 LenRXY=     1207800
 NonZer=     2040500 LenScr=     3824640 LnRSAI=           0
 LnScr1=           0 LExtra=           0 Total=      6052690
 MaxDsk=          -1 SrtSym=           F ITran=            4
 DoSDTr:  NPSUse=  8
 JobTyp=0 Pass  1:  I=   1 to  11.
 (rs|ai) integrals will be sorted in core.
 Complete sort for first half transformation.
 First half transformation complete.
 Begin second half transformation for I=  10.
 Begin second half transformation for I=  10.
 Complete sort for second half transformation.
 Second half transformation complete.
 SymMOI:  orbitals are not symmetric.
 DoSCS=T DFT=T ScalE2(SS,OS)=  0.270000  0.270000
 Spin components of T(2) and E(2):
     alpha-alpha T2 =       0.3163485602D-01 E2=     -0.1798894998D-01
     alpha-beta  T2 =       0.1864674675D+00 E2=     -0.1090063211D+00
     beta-beta   T2 =       0.3163485602D-01 E2=     -0.1798894998D-01
 E2(B2PLYPD3) =    -0.1449842211D+00 E(B2PLYPD3) =    -0.13262451990846D+03
 Leave Link  804 at Wed Aug 19 17:58:04 2020, MaxMem=    65536000 cpu:         1.7
 (Enter /opt/cluster/programs/g09/g09_d.01/g09/l1002.exe)
 Minotr:  Closed shell wavefunction.
          Computing MP2/KS-MP2 derivatives.
          Using Z-Vector for PSCF gradient.
          Skipping F1 and S1 gradient terms here.
          IDoAtm=111111
          Frozen-core window.
          Direct CPHF calculation.
          Differentiating once with respect to electric field.
                with respect to dipole field.
          Differentiating once with respect to nuclear coordinates.
          Requested convergence is 1.0D-10 RMS, and 1.0D-09 maximum.
          NewPWx=T KeepS1=F KeepF1=F KeepIn=T MapXYZ=F SortEE=F KeepMc=T.
          MDV=      65535879 using IRadAn=       0.
 Using stored XC quadrature information.
 Keep R1 ints in memory in canonical form, NReq=2557672.
 FoFCou: FMM=F IPFlag=           0 FMFlag=           0 FMFlg1=           0
         NFxFlg=           0 DoJE=F BraDBF=F KetDBF=F FulRan=T
         wScrn=  0.000000 ICntrl=     600 IOpCl=  0 I1Cent=           0 NGrid=           0
         NMat0=    1 NMatS0=   1830 NMatT0=    0 NMatD0=    1 NMtDS0=    0 NMtDT0=    0
 Symmetry not used in FoFCou.
          Solving linear equations separately, MaxMat=       0.
          There are     1 degrees of freedom in the 1st order CPHF.  IDoFFX=0 NUNeed=     1.
 LinEq1:  Iter=  0 NonCon=     1 RMS=3.04D-03 Max=2.39D-02 NDo=     1
 AX will form     1 AO Fock derivatives at one time.
 LinEq1:  Iter=  1 NonCon=     1 RMS=1.24D-03 Max=8.76D-03 NDo=     1
 LinEq1:  Iter=  2 NonCon=     1 RMS=7.58D-04 Max=6.83D-03 NDo=     1
 LinEq1:  Iter=  3 NonCon=     1 RMS=2.84D-04 Max=2.09D-03 NDo=     1
 LinEq1:  Iter=  4 NonCon=     1 RMS=4.78D-05 Max=2.76D-04 NDo=     1
 LinEq1:  Iter=  5 NonCon=     1 RMS=2.12D-05 Max=2.81D-04 NDo=     1
 LinEq1:  Iter=  6 NonCon=     1 RMS=3.52D-06 Max=4.06D-05 NDo=     1
 LinEq1:  Iter=  7 NonCon=     1 RMS=3.77D-07 Max=2.56D-06 NDo=     1
 LinEq1:  Iter=  8 NonCon=     1 RMS=5.49D-08 Max=4.36D-07 NDo=     1
 LinEq1:  Iter=  9 NonCon=     1 RMS=9.65D-09 Max=8.46D-08 NDo=     1
 LinEq1:  Iter= 10 NonCon=     1 RMS=1.84D-09 Max=1.97D-08 NDo=     1
 LinEq1:  Iter= 11 NonCon=     1 RMS=2.70D-10 Max=1.75D-09 NDo=     1
 LinEq1:  Iter= 12 NonCon=     0 RMS=3.22D-11 Max=2.45D-10 NDo=     1
 Linear equations converged to 1.000D-10 1.000D-09 after    12 iterations.
 End of Minotr F.D. properties file   721 does not exist.
 End of Minotr F.D. properties file   722 does not exist.
 End of Minotr F.D. properties file   788 does not exist.
 Leave Link 1002 at Wed Aug 19 17:58:05 2020, MaxMem=    65536000 cpu:         6.2
 (Enter /opt/cluster/programs/g09/g09_d.01/g09/l1102.exe)
 Use density number 2.
 Symmetrizing basis deriv contribution to polar:
 IMax=3 JMax=2 DiffMx= 0.00D+00
 Leave Link 1102 at Wed Aug 19 17:58:05 2020, MaxMem=    65536000 cpu:         0.2
 (Enter /opt/cluster/programs/g09/g09_d.01/g09/l1110.exe)
 Forming Gx(P) for generalized density number  2 NAtomX=     6.
 Integral derivatives from FoFJK, PRISM(SPDF).
 Do as many integral derivatives as possible in FoFJK.
 G2DrvN: MDV=      65535848.
 G2DrvN: will do     7 centers at a time, making    1 passes.
 Calling FoFCou, ICntrl=  3107 FMM=F I1Cent=   0 AccDes= 0.00D+00.
 FoFJK:  IHMeth= 1 ICntrl=    3107 DoSepK=F KAlg= 0 I1Cent=   0 FoldK=F
 IRaf=         0 NMat=   1 IRICut=       1 DoRegI=T DoRafI=F ISym2E= 0.
 FoFCou: FMM=F IPFlag=           0 FMFlag=      100000 FMFlg1=           0
         NFxFlg=           0 DoJE=F BraDBF=F KetDBF=F FulRan=T
         wScrn=  0.000000 ICntrl=    3107 IOpCl=  0 I1Cent=           0 NGrid=           0
         NMat0=    1 NMatS0=      1 NMatT0=    0 NMatD0=    1 NMtDS0=    0 NMtDT0=    0
 Symmetry not used in FoFCou.
 End of G2Drv F.D. properties file   721 does not exist.
 End of G2Drv F.D. properties file   722 does not exist.
 End of G2Drv F.D. properties file   788 does not exist.
 Leave Link 1110 at Wed Aug 19 17:58:06 2020, MaxMem=    65536000 cpu:         6.0
 (Enter /opt/cluster/programs/g09/g09_d.01/g09/l1112.exe)
 MP22nd: MDV=      65536000
 DoSCS=T DFT=T ScalE2(SS,OS)=  0.270000  0.270000
 Using stored XC quadrature information.
 This link is doing NAtomX=     6 total of    21 degrees of freedom.
 Using ON3 I/O method in MakUI.
 Frozen-core window:  NFC=   3 NFV=   0.
 Using Ix for Sx.
 Use MO integrals over full window.
 Using OV2 memory method for fx*t*t/D, MaxI=    11 DoOO2=F NP=   8.
 R2 and R3 integrals will be kept in memory, NReq=     4170730.
 FoFCou: FMM=F IPFlag=           0 FMFlag=           0 FMFlg1=           0
         NFxFlg=           0 DoJE=F BraDBF=F KetDBF=F FulRan=T
         wScrn=  0.000000 ICntrl=     600 IOpCl=  0 I1Cent=           0 NGrid=           0
         NMat0=    1 NMatS0=      1 NMatT0=    0 NMatD0=    1 NMtDS0=    0 NMtDT0=    0
 Symmetry not used in FoFCou.
 DD1Dir will call FoFMem   1 times, MxPair=       188
 NAB=    66 NAA=    55 NBB=     0.
 Symmetry is being used.
 FoFJK:  IHMeth= 1 ICntrl=       0 DoSepK=F KAlg= 0 I1Cent=   0 FoldK=F
 IRaf=         0 NMat=  21 IRICut=      52 DoRegI=T DoRafI=T ISym2E= 2.
 R6Disp: Adding Grimme-D3(BJ) dispersion energy 1st derivatives to the gradient.
 Discarding MO integrals.
 Leave Link 1112 at Wed Aug 19 17:58:09 2020, MaxMem=    65536000 cpu:        21.0
 (Enter /opt/cluster/programs/g09/g09_d.01/g09/l601.exe)
 Copying SCF densities to generalized density rwf, IOpCl= 0 IROHF=0.

 **********************************************************************

            Population analysis using the SCF density.

 **********************************************************************

 Orbital symmetries:
       Occupied  (A) (A) (A) (A) (A) (A) (A) (A) (A) (A) (A)
       Virtual   (A) (A) (A) (A) (A) (A) (A) (A) (A) (A) (A) (A)
                 (A) (A) (A) (A) (A) (A) (A) (A) (A) (A) (A) (A)
                 (A) (A) (A) (A) (A) (A) (A) (A) (A) (A) (A) (A)
                 (A) (A) (A) (A) (A) (A) (A) (A) (A) (A) (A) (A)
                 (A)
 The electronic state is 1-A.
 Alpha  occ. eigenvalues --  -14.85523 -10.67737 -10.67302  -1.02994  -0.88661
 Alpha  occ. eigenvalues --   -0.59215  -0.53287  -0.53270  -0.43828  -0.37888
 Alpha  occ. eigenvalues --   -0.37886
 Alpha virt. eigenvalues --    0.10357   0.10361   0.14083   0.22547   0.22552
 Alpha virt. eigenvalues --    0.25776   0.34487   0.61039   0.61051   0.66551
 Alpha virt. eigenvalues --    0.70459   0.70480   0.76245   0.87895   0.90476
 Alpha virt. eigenvalues --    0.90490   0.94002   0.94018   0.97525   1.15455
 Alpha virt. eigenvalues --    1.42145   1.42152   1.47286   1.63318   1.63320
 Alpha virt. eigenvalues --    1.68058   1.85666   1.85683   2.06829   2.06848
 Alpha virt. eigenvalues --    2.12110   2.18250   2.18283   2.20716   2.38670
 Alpha virt. eigenvalues --    2.38705   2.66834   2.79653   2.79699   2.91441
 Alpha virt. eigenvalues --    3.09099   3.09117   3.19779   3.42879   3.54182
 Alpha virt. eigenvalues --    3.54218   4.16122   4.36555   4.81393
          Condensed to atoms (all electrons):
               1          2          3          4          5          6
     1  C    4.984393   0.298049  -0.073232   0.389156   0.389178   0.389042
     2  C    0.298049   4.586190   0.890817  -0.030469  -0.030444  -0.030345
     3  N   -0.073232   0.890817   6.647044  -0.000343  -0.000336  -0.000318
     4  H    0.389156  -0.030469  -0.000343   0.516240  -0.024635  -0.024624
     5  H    0.389178  -0.030444  -0.000336  -0.024635   0.516073  -0.024556
     6  H    0.389042  -0.030345  -0.000318  -0.024624  -0.024556   0.516177
 Mulliken charges:
               1
     1  C   -0.376586
     2  C    0.316201
     3  N   -0.463633
     4  H    0.174675
     5  H    0.174720
     6  H    0.174623
 Sum of Mulliken charges =   0.00000
 Mulliken charges with hydrogens summed into heavy atoms:
               1
     1  C    0.147432
     2  C    0.316201
     3  N   -0.463633
 APT charges:
               1
     1  C    0.097727
     2  C    0.072098
     3  N   -0.271354
     4  H    0.033763
     5  H    0.033875
     6  H    0.033891
 Sum of APT charges =   0.00000
 APT charges with hydrogens summed into heavy atoms:
               1
     1  C    0.199256
     2  C    0.072098
     3  N   -0.271354
 Electronic spatial extent (au):  <R**2>=            162.2034
 Charge=              0.0000 electrons
 Dipole moment (field-independent basis, Debye):
    X=             -3.9561    Y=              0.0000    Z=              0.0001  Tot=              3.9561
 Quadrupole moment (field-independent basis, Debye-Ang):
   XX=            -20.5371   YY=            -17.3899   ZZ=            -17.3927
   XY=              0.0008   XZ=             -0.0012   YZ=              0.0004
 Traceless Quadrupole moment (field-independent basis, Debye-Ang):
   XX=             -2.0972   YY=              1.0500   ZZ=              1.0472
   XY=              0.0008   XZ=             -0.0012   YZ=              0.0004
 Octapole moment (field-independent basis, Debye-Ang**2):
  XXX=            -11.6657  YYY=              0.4405  ZZZ=              0.6316  XYY=             -1.7081
  XXY=              0.0023  XXZ=              0.0003  XZZ=             -1.7026  YZZ=             -0.4449
  YYZ=             -0.6298  XYZ=              0.0000
 Hexadecapole moment (field-independent basis, Debye-Ang**3):
 XXXX=           -178.0989 YYYY=            -22.6098 ZZZZ=            -22.6070 XXXY=             -0.0012
 XXXZ=             -0.0024 YYYX=             -0.7469 YYYZ=              0.0024 ZZZX=             -1.0634
 ZZZY=             -0.0004 XXYY=            -29.9391 XXZZ=            -29.9499 YYZZ=             -7.5364
 XXYZ=             -0.0008 YYXZ=              1.0623 ZZXY=              0.7486
 N-N= 5.820656084937D+01 E-N=-4.244650200867D+02  KE= 1.315182305116D+02
  Exact polarizability:  33.630  -0.009  17.492   0.000  -0.001  17.488
 Approx polarizability:  43.355  -0.019  19.281   0.005  -0.001  19.277
 No NMR shielding tensors so no spin-rotation constants.
 Leave Link  601 at Wed Aug 19 17:58:09 2020, MaxMem=    65536000 cpu:         0.7
 (Enter /opt/cluster/programs/g09/g09_d.01/g09/l701.exe)
 Compute integral second derivatives.
 ... and contract with generalized density number  2.
 R6Disp: Adding Grimme-D3(BJ) dispersion energy 2nd derivatives to the Hessian.
 Leave Link  701 at Wed Aug 19 17:58:09 2020, MaxMem=    65536000 cpu:         1.0
 (Enter /opt/cluster/programs/g09/g09_d.01/g09/l702.exe)
 L702 exits ... SP integral derivatives will be done elsewhere.
 Leave Link  702 at Wed Aug 19 17:58:09 2020, MaxMem=    65536000 cpu:         0.1
 (Enter /opt/cluster/programs/g09/g09_d.01/g09/l703.exe)
 Compute integral second derivatives, UseDBF=F ICtDFT=           0.
 Integral derivatives from FoFJK, PRISM(SPDF).
 Calling FoFJK, ICntrl=  10100127 FMM=F ISym2X=0 I1Cent= 0 IOpClX= 0 NMat=1 NMatS=1 NMatT=0.
 FoFJK:  IHMeth= 1 ICntrl=10100127 DoSepK=F KAlg= 0 I1Cent=   0 FoldK=F
 IRaf=         0 NMat=   1 IRICut=       1 DoRegI=T DoRafI=F ISym2E= 0.
 FoFCou: FMM=F IPFlag=           0 FMFlag=      100000 FMFlg1=         800
         NFxFlg=           0 DoJE=F BraDBF=F KetDBF=F FulRan=T
         wScrn=  0.000000 ICntrl=10100127 IOpCl=  0 I1Cent=           0 NGrid=           0
         NMat0=    1 NMatS0=      1 NMatT0=    0 NMatD0=    1 NMtDS0=    0 NMtDT0=    0
 Symmetry not used in FoFCou.
 Leave Link  703 at Wed Aug 19 17:58:11 2020, MaxMem=    65536000 cpu:        14.0
 (Enter /opt/cluster/programs/g09/g09_d.01/g09/l716.exe)
 Dipole        =-1.48838004D+00-2.55451390D-07 5.25807397D-05
 Polarizability= 3.36299440D+01-8.90797508D-03 1.74918777D+01
                 1.44950206D-04-1.04004587D-03 1.74882856D+01
 Full mass-weighted force constant matrix:
 Low frequencies ---  -23.9746  -12.0619   -7.6723   -0.0010   -0.0009   -0.0004
 Low frequencies ---  374.5025  374.8454  938.8905
 Diagonal vibrational polarizability:
        0.0989140       0.2807331       0.2815377
 Harmonic frequencies (cm**-1), IR intensities (KM/Mole), Raman scattering
 activities (A**4/AMU), depolarization ratios for plane and unpolarized
 incident light, reduced masses (AMU), force constants (mDyne/A),
 and normal coordinates:
                      1                      2                      3
                      A                      A                      A
 Frequencies --    374.5022               374.8451               938.8905
 Red. masses --      3.9146                 3.9191                 4.5290
 Frc consts  --      0.3235                 0.3244                 2.3522
 IR Inten    --      0.5712                 0.5705                 1.8988
  Atom  AN      X      Y      Z        X      Y      Z        X      Y      Z
     1   6     0.00  -0.05  -0.06     0.00  -0.06   0.05     0.42   0.00   0.00
     2   6     0.00   0.26   0.35     0.00   0.35  -0.26    -0.19   0.00   0.00
     3   7     0.00  -0.15  -0.19     0.00  -0.19   0.15    -0.30   0.00   0.00
     4   1    -0.37  -0.18  -0.23     0.43  -0.24   0.18     0.48   0.00   0.02
     5   1     0.56  -0.18  -0.23     0.11  -0.24   0.18     0.48  -0.01  -0.01
     6   1    -0.19  -0.18  -0.24    -0.53  -0.23   0.18     0.48   0.02  -0.01
                      4                      5                      6
                      A                      A                      A
 Frequencies --   1077.6448              1078.0803              1443.2872
 Red. masses --      1.4240                 1.4235                 1.2369
 Frc consts  --      0.9744                 0.9748                 1.5180
 IR Inten    --      2.3769                 2.3596                 1.7142
  Atom  AN      X      Y      Z        X      Y      Z        X      Y      Z
     1   6     0.00   0.05   0.15     0.00   0.15  -0.05     0.14   0.00   0.00
     2   6     0.00  -0.04  -0.11     0.00  -0.11   0.04     0.00   0.00   0.00
     3   7     0.00   0.01   0.02     0.00   0.02  -0.01    -0.01   0.00   0.00
     4   1    -0.62  -0.15  -0.14     0.35  -0.31   0.00    -0.52   0.05  -0.23
     5   1     0.61   0.04  -0.20     0.36  -0.25   0.18    -0.52   0.17   0.16
     6   1     0.00  -0.11  -0.33    -0.71  -0.12   0.04    -0.52  -0.22   0.07
                      7                      8                      9
                      A                      A                      A
 Frequencies --   1510.3449              1510.7016              2318.9772
 Red. masses --      1.0398                 1.0399                12.5029
 Frc consts  --      1.3975                 1.3983                39.6144
 IR Inten    --      9.5359                 9.5439                 1.9971
  Atom  AN      X      Y      Z        X      Y      Z        X      Y      Z
     1   6     0.00  -0.02   0.05     0.00  -0.05  -0.02    -0.11   0.00   0.00
     2   6     0.00  -0.01   0.02     0.00  -0.02  -0.01     0.80   0.00   0.00
     3   7     0.00   0.00   0.00     0.00   0.00   0.00    -0.58   0.00   0.00
     4   1     0.37   0.06   0.18    -0.05   0.69   0.12    -0.07   0.00   0.00
     5   1    -0.14   0.48  -0.44     0.34   0.06  -0.30    -0.07   0.00   0.00
     6   1    -0.23  -0.27  -0.50    -0.30   0.01   0.45    -0.07   0.00   0.00
                     10                     11                     12
                      A                      A                      A
 Frequencies --   3104.1433              3188.9528              3191.0711
 Red. masses --      1.0341                 1.1032                 1.1032
 Frc consts  --      5.8708                 6.6098                 6.6188
 IR Inten    --      3.1485                 1.6477                 1.6285
  Atom  AN      X      Y      Z        X      Y      Z        X      Y      Z
[...]
                                                                        X                                                            
                                                                        X                                                            
                                                                        X                                                            
                                                                        X                                                            
                                                                        X                                                            
                                                                        X                                                            
                                                                        X                                                            
                                                                        X                                                            
                                                                        X                                                            
                                                                        X                                                            
                                                                        X                                                            
                                                                        X                                                            
                                                                        X                                                            
 
 ***** Axes restored to original set *****
 -------------------------------------------------------------------
 Center     Atomic                   Forces (Hartrees/Bohr)
 Number     Number              X              Y              Z
 -------------------------------------------------------------------
      1        6           0.000190516   -0.000128956    0.000192491
      2        6          -0.000112893    0.000050280    0.000026065
      3        7          -0.000015806   -0.000043237   -0.000019865
      4        1          -0.000048516   -0.000012934   -0.000008499
      5        1           0.000048056    0.000062684   -0.000151795
      6        1          -0.000061357    0.000072162   -0.000038397
 -------------------------------------------------------------------
 Cartesian Forces:  Max     0.000192491 RMS     0.000091520
 Force constants in Cartesian coordinates: 
                1             2             3             4             5 
      1  0.527074D+00
      2  0.215338D-04  0.572826D+00
      3 -0.225568D-03 -0.391198D-03  0.572285D+00
      4 -0.289085D+00 -0.139204D-03 -0.185639D-04  0.154005D+01
      5 -0.369918D-04 -0.726584D-01 -0.431666D-05 -0.656018D-03  0.103048D+00
      6 -0.110614D-05  0.346038D-05 -0.726042D-01 -0.369388D-03  0.000000D+00
      7 -0.364390D-02  0.540871D-04  0.192079D-04 -0.119133D+01  0.751425D-03
      8 -0.441956D-04  0.183278D-01  0.212782D-05  0.849121D-03 -0.358932D-01
      9 -0.183684D-04  0.217645D-05  0.183141D-01  0.431819D-03  0.000000D+00
     10 -0.780087D-01 -0.180157D-01 -0.867597D-01 -0.198725D-01 -0.718382D-02
     11 -0.178304D-01 -0.577776D-01 -0.499264D-01 -0.554601D-03 -0.160394D-02
     12 -0.858478D-01 -0.499181D-01 -0.287660D+00 -0.259799D-02  0.148811D-02
     13 -0.780445D-01 -0.663786D-01  0.591068D-01 -0.198789D-01 -0.263915D-01
     14 -0.656846D-01 -0.187536D+00  0.124788D+00 -0.199186D-02  0.224031D-02
     15  0.584879D-01  0.124775D+00 -0.158369D+00  0.174320D-02 -0.372454D-02
     16 -0.782926D-01  0.844579D-01  0.278778D-01 -0.198830D-01  0.335169D-01
     17  0.835746D-01 -0.273182D+00 -0.744680D-01  0.249256D-02  0.486757D-02
     18  0.276050D-01 -0.744708D-01 -0.719657D-01  0.810930D-03  0.224104D-02
                6             7             8             9            10 
      6  0.103035D+00
      7  0.386533D-03  0.119364D+01
      8  0.000000D+00 -0.808564D-03  0.175716D-01
      9 -0.358965D-01 -0.413605D-03  0.000000D+00  0.175762D-01
     10 -0.346031D-01  0.451113D-03  0.822283D-03  0.396538D-02  0.884393D-01
     11  0.145493D-02  0.512192D-03  0.717844D-03 -0.308735D-03  0.196943D-01
     12  0.524310D-02  0.246338D-02 -0.313059D-03 -0.715624D-03  0.948313D-01
     13  0.235120D-01  0.446611D-03  0.302319D-02 -0.269571D-02  0.448972D-02
     14 -0.369515D-02  0.188065D-02 -0.902976D-04  0.774708D-03  0.372513D-02
     15  0.140106D-02 -0.166953D-02  0.778942D-03  0.907901D-04  0.109791D-01
     16  0.110750D-01  0.436373D-03 -0.384183D-02 -0.126952D-02  0.450107D-02
     17  0.223702D-02 -0.238979D-02 -0.633704D-03 -0.468001D-03  0.957752D-03
     18 -0.117844D-02 -0.785985D-03 -0.467895D-03  0.631074D-03  0.115869D-01
               11            12            13            14            15 
     11  0.572812D-01
     12  0.543042D-01  0.307391D+00
     13  0.952663D-02 -0.659509D-02  0.884804D-01
     14  0.551914D-02 -0.539788D-02  0.725447D-01  0.198366D+00
     15  0.220650D-01 -0.169532D-01 -0.645754D-01 -0.135718D+00  0.166729D+00
     16 -0.113481D-01 -0.225379D-02  0.450666D-02 -0.104740D-01 -0.496528D-02
     17 -0.413661D-02 -0.163214D-03  0.767567D-02 -0.184996D-01 -0.817631D-02
     18 -0.275889D-01 -0.730535D-02 -0.875260D-02  0.192482D-01  0.710126D-02
               16            17            18 
     16  0.887315D-01
     17 -0.923108D-01  0.291585D+00
     18 -0.304642D-01  0.810384D-01  0.727171D-01
 FormGI is forming the generalized inverse of G from B-inverse, IUseBI=4.
 Force constants in internal coordinates: 
                1             2             3             4             5 
      1  0.351029D+00
      2  0.680836D-02  0.353997D+00
      3  0.680505D-02  0.197201D-02  0.354626D+00
      4  0.680825D-02  0.196862D-02  0.195237D-02  0.353951D+00
      5  0.230976D-02 -0.251748D-02 -0.251493D-02 -0.251226D-02  0.119364D+01
      6  0.424092D-02  0.146507D-02 -0.919238D-03 -0.230054D-02  0.998232D-04
      7  0.661402D-02 -0.372822D-03  0.277939D-02 -0.512230D-02  0.159860D-03
      8  0.128246D-01 -0.412269D-02 -0.451437D-02  0.335105D-02  0.326996D-03
      9 -0.195395D-02  0.312378D-02  0.338066D-02 -0.568883D-02 -0.445972D-04
     10 -0.104820D-01  0.583983D-02 -0.565549D-02  0.414926D-02 -0.259278D-03
     11 -0.118152D-01 -0.585211D-02  0.499355D-02  0.570130D-02 -0.296967D-03
     12  0.506176D-04 -0.145689D-02  0.721696D-03  0.726157D-03  0.676125D-04
     13  0.489221D-04 -0.244744D-04 -0.613553D-03  0.607722D-03  0.461930D-04
     14  0.804292D-02  0.353579D-02  0.270096D-02 -0.954728D-02  0.192756D-03
     15 -0.649399D-02 -0.294704D-02  0.746778D-02 -0.184412D-02 -0.160392D-03
     16  0.859094D-02 -0.669637D-02  0.378983D-02 -0.638795D-03  0.210947D-03
     17  0.150849D-01 -0.374933D-02 -0.367795D-02  0.120532D-02  0.371339D-03
                6             7             8             9            10 
      6  0.232171D-01
      7 -0.985620D-02  0.443732D-01
      8 -0.154329D-01 -0.274887D-01  0.862686D-01
      9 -0.945358D-02 -0.242407D-02  0.254075D-01  0.366814D-01
     10 -0.140521D-01  0.267556D-01 -0.399294D-01 -0.221812D-01  0.755900D-01
     11  0.256358D-01 -0.315159D-01 -0.298928D-01 -0.283418D-01 -0.255190D-01
     12 -0.765301D-02  0.415818D-02  0.638474D-02  0.249979D-02  0.182508D-02
     13 -0.216063D-03 -0.470575D-02  0.636366D-02  0.142450D-02 -0.305755D-02
     14  0.165457D-01  0.135906D-01 -0.198646D-01  0.995291D-02 -0.147982D-01
     15 -0.102161D-01  0.121601D-01 -0.888425D-02  0.998514D-02 -0.579833D-02
     16 -0.546440D-02  0.177684D-01  0.494871D-03 -0.520840D-02 -0.780382D-02
     17  0.475166D-02  0.560825D-02  0.937912D-02 -0.151935D-01 -0.200549D-02
               11            12            13            14            15 
     11  0.904754D-01
     12 -0.728898D-02  0.855677D-01
     13  0.154534D-03  0.733502D-04  0.203120D-01
     14 -0.564677D-02 -0.528347D-02 -0.225767D-02  0.349337D-01
     15  0.291987D-02  0.433831D-02 -0.171906D-02  0.118223D-02  0.216770D-01
     16 -0.105832D-03  0.445402D-02 -0.177014D-02  0.912526D-03  0.113324D-01
     17 -0.302570D-02  0.115710D-03 -0.510852D-04 -0.269705D-03 -0.103446D-01
               16            17 
     16  0.221098D-01
     17  0.107774D-01  0.211220D-01
 Leave Link  716 at Wed Aug 19 17:58:11 2020, MaxMem=    65536000 cpu:         0.2
 (Enter /opt/cluster/programs/g09/g09_d.01/g09/l103.exe)

 GradGradGradGradGradGradGradGradGradGradGradGradGradGradGradGradGradGrad
 Berny optimization.
 Red2BG is reusing G-inverse.
 Internal  Forces:  Max     0.000155312 RMS     0.000063909
 Search for a local minimum.
 Step number   1 out of a maximum of    2
 All quantities printed in internal units (Hartrees-Bohrs-Radians)
 Second derivative matrix not updated -- analytic derivatives used.
 The second derivative matrix:
                          R1        R2        R3        R4        R5
           R1           0.35103
           R2           0.00681   0.35400
           R3           0.00681   0.00197   0.35463
           R4           0.00681   0.00197   0.00195   0.35395
           R5           0.00231  -0.00252  -0.00251  -0.00251   1.19364
           A1           0.00424   0.00147  -0.00092  -0.00230   0.00010
           A2           0.00661  -0.00037   0.00278  -0.00512   0.00016
           A3           0.01282  -0.00412  -0.00451   0.00335   0.00033
           A4          -0.00195   0.00312   0.00338  -0.00569  -0.00004
           A5          -0.01048   0.00584  -0.00566   0.00415  -0.00026
           A6          -0.01182  -0.00585   0.00499   0.00570  -0.00030
           A7           0.00005  -0.00146   0.00072   0.00073   0.00007
           A8           0.00005  -0.00002  -0.00061   0.00061   0.00005
           D1           0.00804   0.00354   0.00270  -0.00955   0.00019
           D2          -0.00649  -0.00295   0.00747  -0.00184  -0.00016
           D3           0.00859  -0.00670   0.00379  -0.00064   0.00021
           D4           0.01508  -0.00375  -0.00368   0.00121   0.00037
                          A1        A2        A3        A4        A5
           A1           0.02322
           A2          -0.00986   0.04437
           A3          -0.01543  -0.02749   0.08627
           A4          -0.00945  -0.00242   0.02541   0.03668
           A5          -0.01405   0.02676  -0.03993  -0.02218   0.07559
           A6           0.02564  -0.03152  -0.02989  -0.02834  -0.02552
           A7          -0.00765   0.00416   0.00638   0.00250   0.00183
           A8          -0.00022  -0.00471   0.00636   0.00142  -0.00306
           D1           0.01655   0.01359  -0.01986   0.00995  -0.01480
           D2          -0.01022   0.01216  -0.00888   0.00999  -0.00580
           D3          -0.00546   0.01777   0.00049  -0.00521  -0.00780
           D4           0.00475   0.00561   0.00938  -0.01519  -0.00201
                          A6        A7        A8        D1        D2
           A6           0.09048
           A7          -0.00729   0.08557
           A8           0.00015   0.00007   0.02031
           D1          -0.00565  -0.00528  -0.00226   0.03493
           D2           0.00292   0.00434  -0.00172   0.00118   0.02168
           D3          -0.00011   0.00445  -0.00177   0.00091   0.01133
           D4          -0.00303   0.00012  -0.00005  -0.00027  -0.01034
                          D3        D4
           D3           0.02211
           D4           0.01078   0.02112
 ITU=  0
     Eigenvalues ---    0.01946   0.04333   0.04779   0.07299   0.08481
     Eigenvalues ---    0.14073   0.14771   0.34520   0.35300   0.35342
     Eigenvalues ---    0.36747   1.19367
 Angle between quadratic step and forces=  52.90 degrees.
 Linear search not attempted -- first point.
 Iteration  1 RMS(Cart)=  0.00068458 RMS(Int)=  0.00000098
 Iteration  2 RMS(Cart)=  0.00000098 RMS(Int)=  0.00000018
 ITry= 1 IFail=0 DXMaxC= 1.45D-03 DCOld= 1.00D+10 DXMaxT= 3.00D-01 DXLimC= 3.00D+00 Rises=F
 Variable       Old X    -DE/DX   Delta X   Delta X   Delta X     New X
                                 (Linear)    (Quad)   (Total)
    R1        2.76106   0.00013   0.00000   0.00045   0.00045   2.76151
    R2        2.05982  -0.00003   0.00000  -0.00015  -0.00015   2.05968
    R3        2.05924   0.00016   0.00000   0.00043   0.00043   2.05967
    R4        2.05986  -0.00007   0.00000  -0.00019  -0.00019   2.05967
    R5        2.20535   0.00002   0.00000   0.00001   0.00001   2.20536
    A1        1.92189  -0.00001   0.00000   0.00002   0.00002   1.92191
    A2        1.92198   0.00003   0.00000  -0.00007  -0.00007   1.92191
    A3        1.92267  -0.00005   0.00000  -0.00073  -0.00073   1.92194
    A4        1.89849   0.00004   0.00000   0.00072   0.00072   1.89921
    A5        1.89858   0.00006   0.00000   0.00062   0.00062   1.89921
    A6        1.89976  -0.00007   0.00000  -0.00054  -0.00054   1.89922
    A7        3.14081   0.00006   0.00000   0.00077   0.00077   3.14158
    A8        3.13930   0.00004   0.00000   0.00228   0.00228   3.14158
    D1        2.10763   0.00003   0.00000   0.00044   0.00044   2.10807
    D2       -2.10811   0.00001   0.00000   0.00003   0.00003  -2.10808
    D3        2.10896  -0.00003   0.00000  -0.00088  -0.00088   2.10809
    D4       -2.06611  -0.00004   0.00000  -0.00091  -0.00091  -2.06702
         Item               Value     Threshold  Converged?
 Maximum Force            0.000155     0.000450     YES
 RMS     Force            0.000064     0.000300     YES
 Maximum Displacement     0.001449     0.001800     YES
 RMS     Displacement     0.000685     0.001200     YES
 Predicted change in Energy=-2.483496D-07
 Optimization completed.
    -- Stationary point found.
                           ----------------------------
                           !   Optimized Parameters   !
                           ! (Angstroms and Degrees)  !
 --------------------------                            --------------------------
 ! Name  Definition              Value          Derivative Info.                !
 --------------------------------------------------------------------------------
 ! R1    R(1,2)                  1.4611         -DE/DX =    0.0001              !
 ! R2    R(1,4)                  1.09           -DE/DX =    0.0                 !
 ! R3    R(1,5)                  1.0897         -DE/DX =    0.0002              !
 ! R4    R(1,6)                  1.09           -DE/DX =   -0.0001              !
 ! R5    R(2,3)                  1.167          -DE/DX =    0.0                 !
 ! A1    A(2,1,4)              110.1162         -DE/DX =    0.0                 !
 ! A2    A(2,1,5)              110.1215         -DE/DX =    0.0                 !
 ! A3    A(2,1,6)              110.1609         -DE/DX =    0.0                 !
 ! A4    A(4,1,5)              108.7755         -DE/DX =    0.0                 !
 ! A5    A(4,1,6)              108.7809         -DE/DX =    0.0001              !
 ! A6    A(5,1,6)              108.8482         -DE/DX =   -0.0001              !
 ! A7    L(1,2,3,4,-1)         179.9554         -DE/DX =    0.0001              !
 ! A8    L(1,2,3,4,-2)         179.8687         -DE/DX =    0.0                 !
 ! D1    D(2,1,5,4)            120.7583         -DE/DX =    0.0                 !
 ! D2    D(2,1,6,4)           -120.7859         -DE/DX =    0.0                 !
 ! D3    D(2,1,6,5)            120.8348         -DE/DX =    0.0                 !
 ! D4    D(4,1,6,5)           -118.3794         -DE/DX =    0.0                 !
 --------------------------------------------------------------------------------
 GradGradGradGradGradGradGradGradGradGradGradGradGradGradGradGradGradGrad

 Leave Link  103 at Wed Aug 19 17:58:11 2020, MaxMem=    65536000 cpu:         0.1
 (Enter /opt/cluster/programs/g09/g09_d.01/g09/l9999.exe)
 1\1\GINC-NODE24\Freq\RB2PLYPD3-FC\6-31G(d,p)\C2H3N1\BOITTIER\19-Aug-20
 20\0\\#P Geom=AllCheck Guess=TCheck SCRF=Check GenChk RB2PLYPD3(FC)/6-
 31G(d,p) Freq\\cyanomethane_opt\\0,1\C,1.18354,0.00011,-0.00007\C,-0.2
 7755,-0.00063,-0.0003\N,-1.44457,0.00024,0.00014\H,1.55816,0.20834,1.0
 0214\H,1.55813,0.76452,-0.68037\H,1.55977,-0.97145,-0.32052\\Version=E
 S64L-G09RevD.01\State=1-A\HF=-132.4795357\MP2=-132.6245199\RMSD=1.305e
 -09\RMSF=9.152e-05\ZeroPoint=0.0458172\Thermal=0.0494362\Dipole=1.4883
 8,0.0000009,0.0000526\DipoleDeriv=0.0550522,-0.0001546,-0.0000443,-0.0
 00606,0.1191656,0.0001391,-0.0003155,0.0001382,0.118963,0.077608,0.000
 4712,0.0002658,0.0007147,0.0692202,-0.0000317,0.0003784,-0.0000316,0.0
 694659,-0.1871508,-0.0004962,-0.0002532,-0.0003086,-0.3134267,0.000012
 8,-0.0001356,0.0000127,-0.3134856,0.0181119,-0.0024054,-0.0116276,-0.0
 081246,0.0991815,-0.0250275,-0.0390875,-0.0250228,-0.016003,0.0181708,
 -0.0087491,0.0078668,-0.0296898,0.0344852,0.0622553,0.0265271,0.062210
 7,0.0489679,0.018208,0.0113339,0.0037924,0.0380144,-0.0086259,-0.03734
 79,0.0126332,-0.0373071,0.0920917\Polar=33.629944,-0.0089006,17.491877
 7,-0.000145,0.00104,17.4882856\PG=C01 [X(C2H3N1)]\NImag=0\\0.52707423,
 0.00002153,0.57282648,-0.00022557,-0.00039120,0.57228497,-0.28908458,-
 0.00013920,-0.00001856,1.54005140,-0.00003699,-0.07265844,-0.00000432,
 -0.00065602,0.10304771,-0.00000111,0.00000346,-0.07260420,-0.00036939,
 -0.00000073,0.10303502,-0.00364390,0.00005409,0.00001921,-1.19133243,0
 .00075142,0.00038653,1.19364223,-0.00004420,0.01832776,0.00000213,0.00
 084912,-0.03589321,0.00000047,-0.00080856,0.01757160,-0.00001837,0.000
 00218,0.01831410,0.00043182,0.00000044,-0.03589654,-0.00041360,-0.0000
 0059,0.01757620,-0.07800867,-0.01801565,-0.08675967,-0.01987249,-0.007
 18382,-0.03460311,0.00045111,0.00082228,0.00396538,0.08843926,-0.01783
 038,-0.05777765,-0.04992641,-0.00055460,-0.00160394,0.00145493,0.00051
 219,0.00071784,-0.00030874,0.01969431,0.05728122,-0.08584785,-0.049918
 14,-0.28766026,-0.00259799,0.00148811,0.00524310,0.00246338,-0.0003130
 6,-0.00071562,0.09483135,0.05430418,0.30739131,-0.07804449,-0.06637861
 ,0.05910680,-0.01987892,-0.02639154,0.02351203,0.00044661,0.00302319,-
 0.00269571,0.00448972,0.00952663,-0.00659509,0.08848042,-0.06568455,-0
 .18753598,0.12478775,-0.00199186,0.00224031,-0.00369515,0.00188065,-0.
 00009030,0.00077471,0.00372513,0.00551914,-0.00539788,0.07254467,0.198
 36647,0.05848791,0.12477454,-0.15836892,0.00174320,-0.00372454,0.00140
 106,-0.00166953,0.00077894,0.00009079,0.01097913,0.02206496,-0.0169531
 8,-0.06457542,-0.13571760,0.16672898,-0.07829258,0.08445785,0.02787779
 ,-0.01988298,0.03351695,0.01107504,0.00043637,-0.00384183,-0.00126952,
 0.00450107,-0.01134815,-0.00225379,0.00450666,-0.01047404,-0.00496528,
 0.08873147,0.08357458,-0.27318217,-0.07446795,0.00249256,0.00486757,0.
 00223702,-0.00238979,-0.00063370,-0.00046800,0.00095775,-0.00413661,-0
 .00016321,0.00767567,-0.01849965,-0.00817631,-0.09231077,0.29158456,0.
 02760498,-0.07447084,-0.07196569,0.00081093,0.00224104,-0.00117844,-0.
 00078598,-0.00046790,0.00063107,0.01158692,-0.02758893,-0.00730535,-0.
 00875260,0.01924818,0.00710126,-0.03046424,0.08103845,0.07271714\\-0.0
 0019052,0.00012896,-0.00019249,0.00011289,-0.00005028,-0.00002606,0.00
 001581,0.00004324,0.00001986,0.00004852,0.00001293,0.00000850,-0.00004
 806,-0.00006268,0.00015180,0.00006136,-0.00007216,0.00003840\\\@


 THE TEST OF A FIRST RATE INTELLIGENCE IS THE ABILITY TO HOLD TWO OPPOSED
 IDEAS IN THE MIND AT THE SAME TIME, AND STILL RETAIN THE ABILITY TO FUNCTION.
 ONE SHOULD, FOR EXAMPLE, BE ABLE TO SEE THAT THINGS ARE HOPELESS AND YET BE
 DETERMINED TO MAKE THEM OTHERWISE.

                                                       -- F. SCOTT FITZGERALD
 Job cpu time:       0 days  0 hours  1 minutes 26.2 seconds.
 File lengths (MBytes):  RWF=    105 Int=      0 D2E=      0 Chk=      2 Scr=      1
 Normal termination of Gaussian 09 at Wed Aug 19 17:58:11 2020.
