 Entering Gaussian System, Link 0=/opt/cluster/programs/g09/g09_d.01/g09//g09
 Input=/home/boittier/MDCM/methanol/methanol_opt_freq.com
 Output=/scratch/boittier/methanol_opt_freq/methanol_opt_freq.out
 Initial command:
 /opt/cluster/programs/g09/g09_d.01/g09/l1.exe "/scratch/boittier/methanol_opt_freq/Gau-64063.inp" -scrdir="/scratch/boittier/methanol_opt_freq/"
 Entering Link 1 = /opt/cluster/programs/g09/g09_d.01/g09/l1.exe PID=     64064.
  
 Copyright (c) 1988,1990,1992,1993,1995,1998,2003,2009,2013,
            Gaussian, Inc.  All Rights Reserved.
  
 This is part of the Gaussian(R) 09 program.  It is based on
 the Gaussian(R) 03 system (copyright 2003, Gaussian, Inc.),
 the Gaussian(R) 98 system (copyright 1998, Gaussian, Inc.),
 the Gaussian(R) 94 system (copyright 1995, Gaussian, Inc.),
 the Gaussian 92(TM) system (copyright 1992, Gaussian, Inc.),
 the Gaussian 90(TM) system (copyright 1990, Gaussian, Inc.),
 the Gaussian 88(TM) system (copyright 1988, Gaussian, Inc.),
 the Gaussian 86(TM) system (copyright 1986, Carnegie Mellon
 University), and the Gaussian 82(TM) system (copyright 1983,
 Carnegie Mellon University). Gaussian is a federally registered
 trademark of Gaussian, Inc.
  
 This software contains proprietary and confidential information,
 including trade secrets, belonging to Gaussian, Inc.
  
 This software is provided under written license and may be
 used, copied, transmitted, or stored only in accord with that
 written license.
  
 The following legend is applicable only to US Government
 contracts under FAR:
  
                    RESTRICTED RIGHTS LEGEND
  
 Use, reproduction and disclosure by the US Government is
 subject to restrictions as set forth in subparagraphs (a)
 and (c) of the Commercial Computer Software - Restricted
 Rights clause in FAR 52.227-19.
  
 Gaussian, Inc.
 340 Quinnipiac St., Bldg. 40, Wallingford CT 06492
  
  
 ---------------------------------------------------------------
 Warning -- This program may not be used in any manner that
 competes with the business of Gaussian, Inc. or will provide
 assistance to any competitor of Gaussian, Inc.  The licensee
 of this program is prohibited from giving any competitor of
 Gaussian, Inc. access to this program.  By using this program,
 the user acknowledges that Gaussian, Inc. is engaged in the
 business of creating and licensing software in the field of
 computational chemistry and represents and warrants to the
 licensee that it is not a competitor of Gaussian, Inc. and that
 it will not use this program in any manner prohibited above.
 ---------------------------------------------------------------
  

 Cite this work as:
 Gaussian 09, Revision D.01,
 M. J. Frisch, G. W. Trucks, H. B. Schlegel, G. E. Scuseria, 
 M. A. Robb, J. R. Cheeseman, G. Scalmani, V. Barone, B. Mennucci, 
 G. A. Petersson, H. Nakatsuji, M. Caricato, X. Li, H. P. Hratchian, 
 A. F. Izmaylov, J. Bloino, G. Zheng, J. L. Sonnenberg, M. Hada, 
 M. Ehara, K. Toyota, R. Fukuda, J. Hasegawa, M. Ishida, T. Nakajima, 
 Y. Honda, O. Kitao, H. Nakai, T. Vreven, J. A. Montgomery, Jr., 
 J. E. Peralta, F. Ogliaro, M. Bearpark, J. J. Heyd, E. Brothers, 
 K. N. Kudin, V. N. Staroverov, T. Keith, R. Kobayashi, J. Normand, 
 K. Raghavachari, A. Rendell, J. C. Burant, S. S. Iyengar, J. Tomasi, 
 M. Cossi, N. Rega, J. M. Millam, M. Klene, J. E. Knox, J. B. Cross, 
 V. Bakken, C. Adamo, J. Jaramillo, R. Gomperts, R. E. Stratmann, 
 O. Yazyev, A. J. Austin, R. Cammi, C. Pomelli, J. W. Ochterski, 
 R. L. Martin, K. Morokuma, V. G. Zakrzewski, G. A. Voth, 
 P. Salvador, J. J. Dannenberg, S. Dapprich, A. D. Daniels, 
 O. Farkas, J. B. Foresman, J. V. Ortiz, J. Cioslowski, 
 and D. J. Fox, Gaussian, Inc., Wallingford CT, 2013.
 
 ******************************************
 Gaussian 09:  ES64L-G09RevD.01 24-Apr-2013
                19-Aug-2020 
 ******************************************
 %chk=methanol_opt.chk
 %nproc=8
 Will use up to    8 processors via shared memory.
 %mem=500MB
 ------------------------------------
 #p B2PLYPD3/6-31G** opt freq=NoRaman
 ------------------------------------
 1/18=20,19=15,38=1/1,3;
 2/9=110,12=2,17=6,18=5,40=1/2;
 3/5=1,6=6,7=101,11=9,16=1,25=1,30=1,71=1,74=-60/1,2,3;
 4//1;
 5/5=2,38=5/2;
 8/6=4,10=2/1;
 9/15=2,16=-3/6;
 10/5=1/2;
 6/7=2,8=2,9=2,10=2/1;
 7/12=2/1,2,3,16;
 1/18=20,19=15/3(2);
 2/9=110/2;
 99//99;
 2/9=110/2;
 3/5=1,6=6,7=101,11=9,16=1,25=1,30=1,71=1,74=-60/1,2,3;
 4/5=5,16=3,69=1/1;
 5/5=2,38=5/2;
 8/6=4,10=2/1;
 9/15=2,16=-3/6;
 10/5=1/2;
 7/12=2/1,2,3,16;
 1/18=20,19=15/3(-8);
 2/9=110/2;
 6/7=2,8=2,9=2,10=2/1;
 99//99;
 Leave Link    1 at Wed Aug 19 17:45:52 2020, MaxMem=    65536000 cpu:         0.8
 (Enter /opt/cluster/programs/g09/g09_d.01/g09/l101.exe)
 ------------
 methanol_opt
 ------------
 Symbolic Z-matrix:
 Charge =  0 Multiplicity = 1
 C                    -5.17997  -1.25368   0.93059 
 O                    -3.77194  -1.12275   0.86271 
 H                    -5.47479  -2.23269   0.54492 
 H                    -5.64927  -0.46176   0.34175 
 H                    -5.49525  -1.16517   1.97289 
 H                    -3.52205  -1.20551  -0.07333 
 
 NAtoms=      6 NQM=        6 NQMF=       0 NMMI=      0 NMMIF=      0
                NMic=       0 NMicF=      0.
                    Isotopes and Nuclear Properties:
 (Nuclear quadrupole moments (NQMom) in fm**2, nuclear magnetic moments (NMagM)
  in nuclear magnetons)

  Atom         1           2           3           4           5           6
 IAtWgt=          12          16           1           1           1           1
 AtmWgt=  12.0000000  15.9949146   1.0078250   1.0078250   1.0078250   1.0078250
 NucSpn=           0           0           1           1           1           1
 AtZEff=   0.0000000   0.0000000   0.0000000   0.0000000   0.0000000   0.0000000
 NQMom=    0.0000000   0.0000000   0.0000000   0.0000000   0.0000000   0.0000000
 NMagM=    0.0000000   0.0000000   2.7928460   2.7928460   2.7928460   2.7928460
 AtZNuc=   6.0000000   8.0000000   1.0000000   1.0000000   1.0000000   1.0000000
 Leave Link  101 at Wed Aug 19 17:45:52 2020, MaxMem=    65536000 cpu:         0.6
 (Enter /opt/cluster/programs/g09/g09_d.01/g09/l103.exe)

 GradGradGradGradGradGradGradGradGradGradGradGradGradGradGradGradGradGrad
 Berny optimization.
 Initialization pass.
                           ----------------------------
                           !    Initial Parameters    !
                           ! (Angstroms and Degrees)  !
 --------------------------                            --------------------------
 ! Name  Definition              Value          Derivative Info.                !
 --------------------------------------------------------------------------------
 ! R1    R(1,2)                  1.4157         estimate D2E/DX2                !
 ! R2    R(1,3)                  1.0928         estimate D2E/DX2                !
 ! R3    R(1,4)                  1.0928         estimate D2E/DX2                !
 ! R4    R(1,5)                  1.0925         estimate D2E/DX2                !
 ! R5    R(2,6)                  0.9724         estimate D2E/DX2                !
 ! A1    A(2,1,3)              109.5275         estimate D2E/DX2                !
 ! A2    A(2,1,4)              109.5282         estimate D2E/DX2                !
 ! A3    A(2,1,5)              108.9812         estimate D2E/DX2                !
 ! A4    A(3,1,4)              110.073          estimate D2E/DX2                !
 ! A5    A(3,1,5)              109.3556         estimate D2E/DX2                !
 ! A6    A(4,1,5)              109.3561         estimate D2E/DX2                !
 ! A7    A(1,2,6)              107.0905         estimate D2E/DX2                !
 ! D1    D(3,1,2,6)             60.4051         estimate D2E/DX2                !
 ! D2    D(4,1,2,6)            -60.4038         estimate D2E/DX2                !
 ! D3    D(5,1,2,6)           -179.9999         estimate D2E/DX2                !
 --------------------------------------------------------------------------------
 Trust Radius=3.00D-01 FncErr=1.00D-07 GrdErr=1.00D-07
 Number of steps in this run=     25 maximum allowed number of steps=    100.
 GradGradGradGradGradGradGradGradGradGradGradGradGradGradGradGradGradGrad

 Leave Link  103 at Wed Aug 19 17:45:55 2020, MaxMem=    65536000 cpu:         0.1
 (Enter /opt/cluster/programs/g09/g09_d.01/g09/l202.exe)
                          Input orientation:                          
 ---------------------------------------------------------------------
 Center     Atomic      Atomic             Coordinates (Angstroms)
 Number     Number       Type             X           Y           Z
 ---------------------------------------------------------------------
      1          6           0       -5.179970   -1.253680    0.930590
      2          8           0       -3.771940   -1.122750    0.862710
      3          1           0       -5.474790   -2.232690    0.544920
      4          1           0       -5.649270   -0.461760    0.341750
      5          1           0       -5.495250   -1.165170    1.972890
      6          1           0       -3.522050   -1.205510   -0.073330
 ---------------------------------------------------------------------
                    Distance matrix (angstroms):
                    1          2          3          4          5
     1  C    0.000000
     2  O    1.415733   0.000000
     3  H    1.092758   2.057342   0.000000
     4  H    1.092754   2.057347   1.791065   0.000000
     5  H    1.092531   2.050389   1.783008   1.783010   0.000000
     6  H    1.938782   0.972350   2.291402   2.291401   2.842914
                    6
     6  H    0.000000
 Stoichiometry    CH4O
 Framework group  C1[X(CH4O)]
 Deg. of freedom    12
 Full point group                 C1      NOp   1
 Largest Abelian subgroup         C1      NOp   1
 Largest concise Abelian subgroup C1      NOp   1
                         Standard orientation:                         
 ---------------------------------------------------------------------
 Center     Atomic      Atomic             Coordinates (Angstroms)
 Number     Number       Type             X           Y           Z
 ---------------------------------------------------------------------
      1          6           0       -0.665055   -0.019897   -0.000001
      2          8           0        0.742692    0.130262   -0.000001
      3          1           0       -0.974313   -0.564399    0.895542
      4          1           0       -0.974320   -0.564424   -0.895523
      5          1           0       -1.127983    0.969710   -0.000008
      6          1           0        1.125414   -0.763600    0.000003
 ---------------------------------------------------------------------
 Rotational constants (GHZ):    126.1834832     25.0917428     24.1653856
 Leave Link  202 at Wed Aug 19 17:45:55 2020, MaxMem=    65536000 cpu:         0.0
 (Enter /opt/cluster/programs/g09/g09_d.01/g09/l301.exe)
 Standard basis: 6-31G(d,p) (6D, 7F)
 Ernie: Thresh=  0.10000D-02 Tol=  0.10000D-05 Strict=F.
 There are    50 symmetry adapted cartesian basis functions of A   symmetry.
 There are    50 symmetry adapted basis functions of A   symmetry.
    50 basis functions,    84 primitive gaussians,    50 cartesian basis functions
     9 alpha electrons        9 beta electrons
       nuclear repulsion energy        40.3674791431 Hartrees.
 IExCor=  419 DFT=T Ex+Corr=B2PLYPD3 ExCW=0 ScaHFX=  0.530000
 ScaDFX=  0.470000  0.470000  0.730000  0.730000 ScalE2=  0.270000  0.270000
 IRadAn=      0 IRanWt=     -1 IRanGd=            0 ICorTp=0 IEmpDi=141
 NAtoms=    6 NActive=    6 NUniq=    6 SFac= 1.00D+00 NAtFMM=   60 NAOKFM=F Big=F
 Integral buffers will be    131072 words long.
 Regular integral format.
 Two-electron integral symmetry is turned on.
 R6Disp:  Grimme-D3(BJ) Dispersion energy=       -0.0013087345 Hartrees.
 Nuclear repulsion after empirical dispersion term =       40.3661704085 Hartrees.
 Leave Link  301 at Wed Aug 19 17:45:58 2020, MaxMem=    65536000 cpu:         0.4
 (Enter /opt/cluster/programs/g09/g09_d.01/g09/l302.exe)
 NPDir=0 NMtPBC=     1 NCelOv=     1 NCel=       1 NClECP=     1 NCelD=      1
         NCelK=      1 NCelE2=     1 NClLst=     1 CellRange=     0.0.
 One-electron integrals computed using PRISM.
 NBasis=    50 RedAO= T EigKep=  9.17D-03  NBF=    50
 NBsUse=    50 1.00D-06 EigRej= -1.00D+00 NBFU=    50
 Precomputing XC quadrature grid using
 IXCGrd= 4 IRadAn=           0 IRanWt=          -1 IRanGd=           0 AccXCQ= 0.00D+00.
 Generated NRdTot=       0 NPtTot=           0 NUsed=           0 NTot=          32
 NSgBfM=    50    50    50    50    50 MxSgAt=     6 MxSgA2=     6.
 Leave Link  302 at Wed Aug 19 17:45:59 2020, MaxMem=    65536000 cpu:         0.9
 (Enter /opt/cluster/programs/g09/g09_d.01/g09/l303.exe)
 DipDrv:  MaxL=1.
 Leave Link  303 at Wed Aug 19 17:46:01 2020, MaxMem=    65536000 cpu:         0.1
 (Enter /opt/cluster/programs/g09/g09_d.01/g09/l401.exe)
 ExpMin= 1.61D-01 ExpMax= 5.48D+03 ExpMxC= 8.25D+02 IAcc=1 IRadAn=         1 AccDes= 0.00D+00
 Harris functional with IExCor=  419 and IRadAn=       1 diagonalized for initial guess.
 HarFok:  IExCor=  419 AccDes= 0.00D+00 IRadAn=         1 IDoV= 1 UseB2=F ITyADJ=14
 ICtDFT=  3500011 ScaDFX=  1.000000  1.000000  1.000000  1.000000
 FoFCou: FMM=F IPFlag=           0 FMFlag=      100000 FMFlg1=           0
         NFxFlg=           0 DoJE=T BraDBF=F KetDBF=T FulRan=T
         wScrn=  0.000000 ICntrl=     500 IOpCl=  0 I1Cent=   200000004 NGrid=           0
         NMat0=    1 NMatS0=      1 NMatT0=    0 NMatD0=    1 NMtDS0=    0 NMtDT0=    0
 Petite list used in FoFCou.
 Harris En= -115.757291827699    
 JPrj=0 DoOrth=F DoCkMO=F.
 Leave Link  401 at Wed Aug 19 17:46:03 2020, MaxMem=    65536000 cpu:         0.8
 (Enter /opt/cluster/programs/g09/g09_d.01/g09/l502.exe)
 Closed shell SCF:
 Using DIIS extrapolation, IDIIS=  1040.
 Integral symmetry usage will be decided dynamically.
 Keep R1 ints in memory in canonical form, NReq=1709344.
 IVT=       26832 IEndB=       26832 NGot=    65536000 MDV=    64695719
 LenX=    64695719 LenY=    64692778
 Requested convergence on RMS density matrix=1.00D-08 within 128 cycles.
 Requested convergence on MAX density matrix=1.00D-06.
 Requested convergence on             energy=1.00D-06.
 No special actions if energy rises.
 FoFCou: FMM=F IPFlag=           0 FMFlag=           0 FMFlg1=           0
         NFxFlg=           0 DoJE=F BraDBF=F KetDBF=F FulRan=T
         wScrn=  0.000000 ICntrl=     600 IOpCl=  0 I1Cent=           0 NGrid=           0
         NMat0=    1 NMatS0=   1275 NMatT0=    0 NMatD0=    1 NMtDS0=    0 NMtDT0=    0
 Symmetry not used in FoFCou.
 Integral accuracy reduced to 1.0D-05 until final iterations.

 Cycle   1  Pass 0  IDiag  1:
 E= -115.406233281905    
 DIIS: error= 3.50D-02 at cycle   1 NSaved=   1.
 NSaved= 1 IEnMin= 1 EnMin= -115.406233281905     IErMin= 1 ErrMin= 3.50D-02
 ErrMax= 3.50D-02  0.00D+00 EMaxC= 1.00D-01 BMatC= 1.04D-01 BMatP= 1.04D-01
 IDIUse=3 WtCom= 6.50D-01 WtEn= 3.50D-01
 Coeff-Com:  0.100D+01
 Coeff-En:   0.100D+01
 Coeff:      0.100D+01
 Gap=     0.421 Goal=   None    Shift=    0.000
 GapD=    0.421 DampG=2.000 DampE=0.500 DampFc=1.0000 IDamp=-1.
 RMSDP=8.86D-03 MaxDP=1.19D-01              OVMax= 1.20D-01

 Cycle   2  Pass 0  IDiag  1:
 E= -115.436113364420     Delta-E=       -0.029880082515 Rises=F Damp=F
 DIIS: error= 2.86D-02 at cycle   2 NSaved=   2.
 NSaved= 2 IEnMin= 2 EnMin= -115.436113364420     IErMin= 2 ErrMin= 2.86D-02
 ErrMax= 2.86D-02  0.00D+00 EMaxC= 1.00D-01 BMatC= 7.47D-02 BMatP= 1.04D-01
 IDIUse=3 WtCom= 7.14D-01 WtEn= 2.86D-01
 Coeff-Com:  0.456D+00 0.544D+00
 Coeff-En:   0.377D+00 0.623D+00
 Coeff:      0.433D+00 0.567D+00
 Gap=     0.483 Goal=   None    Shift=    0.000
 RMSDP=4.44D-03 MaxDP=6.33D-02 DE=-2.99D-02 OVMax= 6.06D-02

 Cycle   3  Pass 0  IDiag  1:
 E= -115.492769114008     Delta-E=       -0.056655749588 Rises=F Damp=F
 DIIS: error= 4.22D-03 at cycle   3 NSaved=   3.
 NSaved= 3 IEnMin= 3 EnMin= -115.492769114008     IErMin= 3 ErrMin= 4.22D-03
 ErrMax= 4.22D-03  0.00D+00 EMaxC= 1.00D-01 BMatC= 1.39D-03 BMatP= 7.47D-02
 IDIUse=3 WtCom= 9.58D-01 WtEn= 4.22D-02
 Coeff-Com:  0.539D-01 0.141D+00 0.805D+00
 Coeff-En:   0.000D+00 0.000D+00 0.100D+01
 Coeff:      0.516D-01 0.135D+00 0.813D+00
 Gap=     0.471 Goal=   None    Shift=    0.000
 RMSDP=5.79D-04 MaxDP=9.75D-03 DE=-5.67D-02 OVMax= 9.52D-03

 Cycle   4  Pass 0  IDiag  1:
 E= -115.493583343497     Delta-E=       -0.000814229489 Rises=F Damp=F
 DIIS: error= 1.53D-03 at cycle   4 NSaved=   4.
 NSaved= 4 IEnMin= 4 EnMin= -115.493583343497     IErMin= 4 ErrMin= 1.53D-03
 ErrMax= 1.53D-03  0.00D+00 EMaxC= 1.00D-01 BMatC= 2.21D-04 BMatP= 1.39D-03
 IDIUse=3 WtCom= 9.85D-01 WtEn= 1.53D-02
 Coeff-Com: -0.242D-02 0.226D-01 0.346D+00 0.634D+00
 Coeff-En:   0.000D+00 0.000D+00 0.459D-01 0.954D+00
 Coeff:     -0.238D-02 0.222D-01 0.341D+00 0.639D+00
 Gap=     0.472 Goal=   None    Shift=    0.000
 RMSDP=2.08D-04 MaxDP=2.84D-03 DE=-8.14D-04 OVMax= 3.68D-03

 Cycle   5  Pass 0  IDiag  1:
 E= -115.493761500979     Delta-E=       -0.000178157483 Rises=F Damp=F
 DIIS: error= 1.98D-04 at cycle   5 NSaved=   5.
 NSaved= 5 IEnMin= 5 EnMin= -115.493761500979     IErMin= 5 ErrMin= 1.98D-04
 ErrMax= 1.98D-04  0.00D+00 EMaxC= 1.00D-01 BMatC= 2.03D-06 BMatP= 2.21D-04
 IDIUse=3 WtCom= 9.98D-01 WtEn= 1.98D-03
 Coeff-Com: -0.245D-02-0.133D-02 0.387D-01 0.134D+00 0.831D+00
 Coeff-En:   0.000D+00 0.000D+00 0.000D+00 0.000D+00 0.100D+01
 Coeff:     -0.245D-02-0.132D-02 0.386D-01 0.133D+00 0.832D+00
 Gap=     0.472 Goal=   None    Shift=    0.000
 RMSDP=1.89D-05 MaxDP=2.31D-04 DE=-1.78D-04 OVMax= 3.33D-04

 Cycle   6  Pass 0  IDiag  1:
 E= -115.493763212684     Delta-E=       -0.000001711704 Rises=F Damp=F
 DIIS: error= 1.56D-05 at cycle   6 NSaved=   6.
 NSaved= 6 IEnMin= 6 EnMin= -115.493763212684     IErMin= 6 ErrMin= 1.56D-05
 ErrMax= 1.56D-05  0.00D+00 EMaxC= 1.00D-01 BMatC= 1.49D-08 BMatP= 2.03D-06
 IDIUse=1 WtCom= 1.00D+00 WtEn= 0.00D+00
 Coeff-Com:  0.292D-03-0.618D-03-0.122D-01-0.269D-01-0.851D-01 0.112D+01
 Coeff:      0.292D-03-0.618D-03-0.122D-01-0.269D-01-0.851D-01 0.112D+01
 Gap=     0.472 Goal=   None    Shift=    0.000
 RMSDP=4.66D-06 MaxDP=5.91D-05 DE=-1.71D-06 OVMax= 5.67D-05

 Initial convergence to 1.0D-05 achieved.  Increase integral accuracy.
 Cycle   7  Pass 1  IDiag  1:
 E= -115.493769082237     Delta-E=       -0.000005869553 Rises=F Damp=F
 DIIS: error= 1.86D-06 at cycle   1 NSaved=   1.
 NSaved= 1 IEnMin= 1 EnMin= -115.493769082237     IErMin= 1 ErrMin= 1.86D-06
 ErrMax= 1.86D-06  0.00D+00 EMaxC= 1.00D-01 BMatC= 3.82D-10 BMatP= 3.82D-10
 IDIUse=1 WtCom= 1.00D+00 WtEn= 0.00D+00
 Coeff-Com:  0.100D+01
 Coeff:      0.100D+01
 Gap=     0.472 Goal=   None    Shift=    0.000
 RMSDP=4.66D-06 MaxDP=5.91D-05 DE=-5.87D-06 OVMax= 6.81D-06

 Cycle   8  Pass 1  IDiag  1:
 E= -115.493769082720     Delta-E=       -0.000000000484 Rises=F Damp=F
 DIIS: error= 4.23D-07 at cycle   2 NSaved=   2.
 NSaved= 2 IEnMin= 2 EnMin= -115.493769082720     IErMin= 2 ErrMin= 4.23D-07
 ErrMax= 4.23D-07  0.00D+00 EMaxC= 1.00D-01 BMatC= 1.10D-11 BMatP= 3.82D-10
 IDIUse=1 WtCom= 1.00D+00 WtEn= 0.00D+00
 Coeff-Com: -0.677D-01 0.107D+01
 Coeff:     -0.677D-01 0.107D+01
 Gap=     0.472 Goal=   None    Shift=    0.000
 RMSDP=1.42D-07 MaxDP=1.53D-06 DE=-4.84D-10 OVMax= 1.77D-06

 Cycle   9  Pass 1  IDiag  1:
 E= -115.493769082739     Delta-E=       -0.000000000019 Rises=F Damp=F
 DIIS: error= 2.04D-07 at cycle   3 NSaved=   3.
 NSaved= 3 IEnMin= 3 EnMin= -115.493769082739     IErMin= 3 ErrMin= 2.04D-07
 ErrMax= 2.04D-07  0.00D+00 EMaxC= 1.00D-01 BMatC= 1.92D-12 BMatP= 1.10D-11
 IDIUse=1 WtCom= 1.00D+00 WtEn= 0.00D+00
 Coeff-Com: -0.368D-01 0.248D+00 0.788D+00
 Coeff:     -0.368D-01 0.248D+00 0.788D+00
 Gap=     0.472 Goal=   None    Shift=    0.000
 RMSDP=3.24D-08 MaxDP=5.81D-07 DE=-1.90D-11 OVMax= 5.22D-07

 Cycle  10  Pass 1  IDiag  1:
 E= -115.493769082740     Delta-E=       -0.000000000001 Rises=F Damp=F
 DIIS: error= 8.05D-08 at cycle   4 NSaved=   4.
 NSaved= 4 IEnMin= 4 EnMin= -115.493769082740     IErMin= 4 ErrMin= 8.05D-08
 ErrMax= 8.05D-08  0.00D+00 EMaxC= 1.00D-01 BMatC= 4.14D-13 BMatP= 1.92D-12
 IDIUse=1 WtCom= 1.00D+00 WtEn= 0.00D+00
 Coeff-Com: -0.886D-02 0.235D-02 0.304D+00 0.703D+00
 Coeff:     -0.886D-02 0.235D-02 0.304D+00 0.703D+00
 Gap=     0.472 Goal=   None    Shift=    0.000
 RMSDP=1.21D-08 MaxDP=2.01D-07 DE=-1.02D-12 OVMax= 2.16D-07

 Cycle  11  Pass 1  IDiag  1:
 E= -115.493769082742     Delta-E=       -0.000000000001 Rises=F Damp=F
 DIIS: error= 2.23D-08 at cycle   5 NSaved=   5.
 NSaved= 5 IEnMin= 5 EnMin= -115.493769082742     IErMin= 5 ErrMin= 2.23D-08
 ErrMax= 2.23D-08  0.00D+00 EMaxC= 1.00D-01 BMatC= 2.51D-14 BMatP= 4.14D-13
 IDIUse=1 WtCom= 1.00D+00 WtEn= 0.00D+00
 Coeff-Com:  0.247D-02-0.281D-01-0.554D-01 0.144D+00 0.937D+00
 Coeff:      0.247D-02-0.281D-01-0.554D-01 0.144D+00 0.937D+00
 Gap=     0.472 Goal=   None    Shift=    0.000
 RMSDP=4.41D-09 MaxDP=7.06D-08 DE=-1.08D-12 OVMax= 7.54D-08

 SCF Done:  E(RB2PLYPD3) =  -115.493769083     A.U. after   11 cycles
            NFock= 11  Conv=0.44D-08     -V/T= 2.0063
 KE= 1.147671285632D+02 PE=-3.518845033041D+02 EE= 8.125743524967D+01
 Leave Link  502 at Wed Aug 19 17:46:05 2020, MaxMem=    65536000 cpu:         3.6
 (Enter /opt/cluster/programs/g09/g09_d.01/g09/l801.exe)
 DoSCS=T DFT=T ScalE2(SS,OS)=  0.270000  0.270000
 ExpMin= 1.61D-01 ExpMax= 5.48D+03 ExpMxC= 8.25D+02 IAcc=3 IRadAn=         5 AccDes= 0.00D+00
 HarFok:  IExCor=  205 AccDes= 0.00D+00 IRadAn=         5 IDoV=-2 UseB2=F ITyADJ=14
 ICtDFT= 12500011 ScaDFX=  1.000000  1.000000  1.000000  1.000000
 Largest valence mixing into a core orbital is  1.08D-04
 Largest core mixing into a valence orbital is  1.62D-05
 Range of M.O.s used for correlation:     3    50
 NBasis=    50 NAE=     9 NBE=     9 NFC=     2 NFV=     0
 NROrb=     48 NOA=     7 NOB=     7 NVA=    41 NVB=    41
 Leave Link  801 at Wed Aug 19 17:46:07 2020, MaxMem=    65536000 cpu:         0.3
 (Enter /opt/cluster/programs/g09/g09_d.01/g09/l906.exe)
 DoSCS=T DFT=T ScalE2(SS,OS)=  0.270000  0.270000
 Frozen-core derivative calculation, NFC=   2 NFV=   0.
 FulOut=F Deriv=T AODrv=T NAtomX=     6
   MMem=         975  MDisk=           7 MDiskD=           7
  W3Min=       22500 MinDsk=       94225 NBas6D=          50
 NBas2D=        1341    NTT=        1275    LW2=     2040000
    MDV=    65496692 MDiskM=       17637 NBas2p=        1341
 Fully direct method using O(ONN) memory.
 IMap=   1   2   3   4   5   6   7   8   9
 JobTyp=1 Pass  1:  I=   3 to   9 NPSUse=  8 ParTrn=T ParDer=T DoDerP=T.
 Spin components of T(2) and E(2):
     alpha-alpha T2 =       0.1653902719D-01 E2=     -0.1281441963D-01
     alpha-beta  T2 =       0.1083512635D+00 E2=     -0.8354008038D-01
     beta-beta   T2 =       0.1653902719D-01 E2=     -0.1281441963D-01
 The integrals were generated   1 times.
 E2(B2PLYPD3) =    -0.1091689196D+00 E(B2PLYPD3) =    -0.11560293800238D+03
 Leave Link  906 at Wed Aug 19 17:46:08 2020, MaxMem=    65536000 cpu:         1.3
 (Enter /opt/cluster/programs/g09/g09_d.01/g09/l1002.exe)
 Minotr:  Closed shell wavefunction.
          Computing MP2/KS-MP2 derivatives.
          Using Z-Vector for PSCF gradient.
          Skipping F1 and S1 gradient terms here.
          IDoAtm=111111
          Frozen-core window.
          Direct CPHF calculation.
          Differentiating once with respect to electric field.
                with respect to dipole field.
          Differentiating once with respect to nuclear coordinates.
          Requested convergence is 1.0D-10 RMS, and 1.0D-09 maximum.
          NewPWx=F KeepS1=T KeepF1=T KeepIn=T MapXYZ=F SortEE=F KeepMc=T.
          MDV=      65535888 using IRadAn=       0.
 Using stored XC quadrature information.
 Keep R1 ints in memory in canonical form, NReq=1683393.
 FoFCou: FMM=F IPFlag=           0 FMFlag=           0 FMFlg1=           0
         NFxFlg=           0 DoJE=F BraDBF=F KetDBF=F FulRan=T
         wScrn=  0.000000 ICntrl=     600 IOpCl=  0 I1Cent=           0 NGrid=           0
         NMat0=    1 NMatS0=   1275 NMatT0=    0 NMatD0=    1 NMtDS0=    0 NMtDT0=    0
 Symmetry not used in FoFCou.
          Solving linear equations separately, MaxMat=       0.
          There are     1 degrees of freedom in the 1st order CPHF.  IDoFFX=0 NUNeed=     1.
 LinEq1:  Iter=  0 NonCon=     1 RMS=2.11D-03 Max=1.48D-02 NDo=     1
 AX will form     1 AO Fock derivatives at one time.
 LinEq1:  Iter=  1 NonCon=     1 RMS=8.55D-04 Max=4.54D-03 NDo=     1
 LinEq1:  Iter=  2 NonCon=     1 RMS=1.95D-04 Max=1.52D-03 NDo=     1
 LinEq1:  Iter=  3 NonCon=     1 RMS=1.13D-04 Max=8.06D-04 NDo=     1
 LinEq1:  Iter=  4 NonCon=     1 RMS=1.50D-05 Max=1.11D-04 NDo=     1
 LinEq1:  Iter=  5 NonCon=     1 RMS=2.93D-06 Max=1.63D-05 NDo=     1
 LinEq1:  Iter=  6 NonCon=     1 RMS=5.27D-07 Max=4.12D-06 NDo=     1
 LinEq1:  Iter=  7 NonCon=     1 RMS=7.43D-08 Max=4.25D-07 NDo=     1
 LinEq1:  Iter=  8 NonCon=     1 RMS=1.23D-08 Max=6.17D-08 NDo=     1
 LinEq1:  Iter=  9 NonCon=     1 RMS=1.63D-09 Max=7.42D-09 NDo=     1
 LinEq1:  Iter= 10 NonCon=     1 RMS=2.52D-10 Max=1.78D-09 NDo=     1
 LinEq1:  Iter= 11 NonCon=     0 RMS=2.68D-11 Max=1.60D-10 NDo=     1
 Linear equations converged to 1.000D-10 1.000D-09 after    11 iterations.
 End of Minotr F.D. properties file   721 does not exist.
 End of Minotr F.D. properties file   722 does not exist.
 End of Minotr F.D. properties file   788 does not exist.
 Leave Link 1002 at Wed Aug 19 17:46:09 2020, MaxMem=    65536000 cpu:         5.1
 (Enter /opt/cluster/programs/g09/g09_d.01/g09/l601.exe)
 Copying SCF densities to generalized density rwf, IOpCl= 0 IROHF=0.

 **********************************************************************

            Population analysis using the SCF density.

 **********************************************************************

 Orbital symmetries:
       Occupied  (A) (A) (A) (A) (A) (A) (A) (A) (A)
       Virtual   (A) (A) (A) (A) (A) (A) (A) (A) (A) (A) (A) (A)
                 (A) (A) (A) (A) (A) (A) (A) (A) (A) (A) (A) (A)
                 (A) (A) (A) (A) (A) (A) (A) (A) (A) (A) (A) (A)
                 (A) (A) (A) (A) (A)
 The electronic state is 1-A.
 Alpha  occ. eigenvalues --  -19.73036 -10.66131  -1.14926  -0.77785  -0.57310
 Alpha  occ. eigenvalues --   -0.51284  -0.49164  -0.39735  -0.33713
 Alpha virt. eigenvalues --    0.13462   0.19326   0.23381   0.23700   0.27650
 Alpha virt. eigenvalues --    0.63324   0.64459   0.64894   0.86409   0.94297
 Alpha virt. eigenvalues --    0.95153   0.99367   1.03374   1.07227   1.11203
 Alpha virt. eigenvalues --    1.18594   1.46920   1.50048   1.64801   1.70859
 Alpha virt. eigenvalues --    1.93594   2.09227   2.12890   2.15593   2.17094
 Alpha virt. eigenvalues --    2.18209   2.45654   2.52830   2.67143   2.70250
 Alpha virt. eigenvalues --    2.80814   2.84769   2.92293   3.00292   3.10712
 Alpha virt. eigenvalues --    3.33041   3.50486   3.56640   3.67522   3.99894
 Alpha virt. eigenvalues --    4.57995
          Condensed to atoms (all electrons):
               1          2          3          4          5          6
     1  C    4.665102   0.235283   0.389903   0.389903   0.401501  -0.032207
     2  O    0.235283   8.166541  -0.040027  -0.040026  -0.033878   0.295728
     3  H    0.389903  -0.040027   0.643127  -0.045891  -0.036034  -0.005632
     4  H    0.389903  -0.040026  -0.045891   0.643125  -0.036033  -0.005632
     5  H    0.401501  -0.033878  -0.036034  -0.036033   0.573850   0.006181
     6  H   -0.032207   0.295728  -0.005632  -0.005632   0.006181   0.421976
 Mulliken charges:
               1
     1  C   -0.049485
     2  O   -0.583621
     3  H    0.094553
     4  H    0.094555
     5  H    0.124413
     6  H    0.319585
 Sum of Mulliken charges =   0.00000
 Mulliken charges with hydrogens summed into heavy atoms:
               1
     1  C    0.264036
     2  O   -0.264036
 Electronic spatial extent (au):  <R**2>=             83.3701
 Charge=              0.0000 electrons
 Dipole moment (field-independent basis, Debye):
    X=             -0.8656    Y=             -1.5793    Z=              0.0000  Tot=              1.8010
 Quadrupole moment (field-independent basis, Debye-Ang):
   XX=            -12.6735   YY=            -11.9515   ZZ=            -13.5095
   XY=             -2.3262   XZ=              0.0000   YZ=              0.0000
 Traceless Quadrupole moment (field-independent basis, Debye-Ang):
   XX=              0.0380   YY=              0.7600   ZZ=             -0.7980
   XY=             -2.3262   XZ=              0.0000   YZ=              0.0000
 Octapole moment (field-independent basis, Debye-Ang**2):
  XXX=              4.4544  YYY=             -0.6317  ZZZ=              0.0000  XYY=              1.8482
  XXY=             -2.0859  XXZ=              0.0000  XZZ=              0.5940  YZZ=             -0.5700
  YYZ=              0.0000  XYZ=              0.0000
 Hexadecapole moment (field-independent basis, Debye-Ang**3):
 XXXX=            -59.1185 YYYY=            -19.3970 ZZZZ=            -18.9435 XXXY=             -3.8562
 XXXZ=              0.0000 YYYX=             -2.8454 YYYZ=              0.0000 ZZZX=              0.0000
 ZZZY=              0.0000 XXYY=            -11.8908 XXZZ=            -13.6909 YYZZ=             -6.5184
 XXYZ=              0.0000 YYXZ=              0.0000 ZZXY=              0.0788
 N-N= 4.036617040852D+01 E-N=-3.518845040237D+02  KE= 1.147671285632D+02
 No NMR shielding tensors so no spin-rotation constants.
 Leave Link  601 at Wed Aug 19 17:46:10 2020, MaxMem=    65536000 cpu:         0.7
 (Enter /opt/cluster/programs/g09/g09_d.01/g09/l701.exe)
 Compute integral first derivatives.
 ... and contract with generalized density number  2.
 R6Disp: Adding Grimme-D3(BJ) dispersion energy 1st derivatives to the gradient.
 Leave Link  701 at Wed Aug 19 17:46:10 2020, MaxMem=    65536000 cpu:         0.8
 (Enter /opt/cluster/programs/g09/g09_d.01/g09/l702.exe)
 L702 exits ... SP integral derivatives will be done elsewhere.
 Leave Link  702 at Wed Aug 19 17:46:10 2020, MaxMem=    65536000 cpu:         0.1
 (Enter /opt/cluster/programs/g09/g09_d.01/g09/l703.exe)
 Compute integral first derivatives, UseDBF=F ICtDFT=           0.
 Integral derivatives from FoFJK, PRISM(SPDF).
 Calling FoFJK, ICntrl=  10002127 FMM=F ISym2X=0 I1Cent= 0 IOpClX= 0 NMat=1 NMatS=1 NMatT=0.
 FoFJK:  IHMeth= 1 ICntrl=10002127 DoSepK=F KAlg= 0 I1Cent=   0 FoldK=F
 IRaf=         0 NMat=   1 IRICut=       1 DoRegI=T DoRafI=F ISym2E= 0.
 FoFCou: FMM=F IPFlag=           0 FMFlag=      100000 FMFlg1=         800
         NFxFlg=           0 DoJE=F BraDBF=F KetDBF=F FulRan=T
         wScrn=  0.000000 ICntrl=10002127 IOpCl=  0 I1Cent=           0 NGrid=           0
         NMat0=    1 NMatS0=      1 NMatT0=    0 NMatD0=    1 NMtDS0=    0 NMtDT0=    0
 Symmetry not used in FoFCou.
 Leave Link  703 at Wed Aug 19 17:46:11 2020, MaxMem=    65536000 cpu:         1.8
 (Enter /opt/cluster/programs/g09/g09_d.01/g09/l716.exe)
 Dipole        =-3.16215869D-01-6.05085194D-01 1.31839777D-06
 ***** Axes restored to original set *****
 -------------------------------------------------------------------
 Center     Atomic                   Forces (Hartrees/Bohr)
 Number     Number              X              Y              Z
 -------------------------------------------------------------------
      1        6           0.004613044   -0.000289184   -0.006450905
      2        8           0.009657198    0.000633757   -0.002776690
      3        1          -0.007413035   -0.000458603    0.000870288
      4        1          -0.007380130   -0.000792539    0.000907970
      5        1           0.002976770    0.000039730   -0.002214686
      6        1          -0.002453846    0.000866839    0.009664024
 -------------------------------------------------------------------
 Cartesian Forces:  Max     0.009664024 RMS     0.004655489
 Leave Link  716 at Wed Aug 19 17:46:11 2020, MaxMem=    65536000 cpu:         0.2
 (Enter /opt/cluster/programs/g09/g09_d.01/g09/l103.exe)

 GradGradGradGradGradGradGradGradGradGradGradGradGradGradGradGradGradGrad
 Berny optimization.
 FormGI is forming the generalized inverse of G from B-inverse, IUseBI=4.
 Internal  Forces:  Max     0.010190653 RMS     0.005822559
 Search for a local minimum.
 Step number   1 out of a maximum of   25
 All quantities printed in internal units (Hartrees-Bohrs-Radians)
 RMS Force = .58226D-02 SwitMx=.10000D-02 MixMth= 1
 Mixed Optimization -- RFO/linear search
 Second derivative matrix not updated -- first step.
 The second derivative matrix:
                          R1        R2        R3        R4        R5
           R1           0.43110
           R2           0.00000   0.34496
           R3           0.00000   0.00000   0.34496
           R4           0.00000   0.00000   0.00000   0.34522
           R5           0.00000   0.00000   0.00000   0.00000   0.52900
           A1           0.00000   0.00000   0.00000   0.00000   0.00000
           A2           0.00000   0.00000   0.00000   0.00000   0.00000
           A3           0.00000   0.00000   0.00000   0.00000   0.00000
           A4           0.00000   0.00000   0.00000   0.00000   0.00000
           A5           0.00000   0.00000   0.00000   0.00000   0.00000
           A6           0.00000   0.00000   0.00000   0.00000   0.00000
           A7           0.00000   0.00000   0.00000   0.00000   0.00000
           D1           0.00000   0.00000   0.00000   0.00000   0.00000
           D2           0.00000   0.00000   0.00000   0.00000   0.00000
           D3           0.00000   0.00000   0.00000   0.00000   0.00000
                          A1        A2        A3        A4        A5
           A1           0.16000
           A2           0.00000   0.16000
           A3           0.00000   0.00000   0.16000
           A4           0.00000   0.00000   0.00000   0.16000
           A5           0.00000   0.00000   0.00000   0.00000   0.16000
           A6           0.00000   0.00000   0.00000   0.00000   0.00000
           A7           0.00000   0.00000   0.00000   0.00000   0.00000
           D1           0.00000   0.00000   0.00000   0.00000   0.00000
           D2           0.00000   0.00000   0.00000   0.00000   0.00000
           D3           0.00000   0.00000   0.00000   0.00000   0.00000
                          A6        A7        D1        D2        D3
           A6           0.16000
           A7           0.00000   0.16000
           D1           0.00000   0.00000   0.01484
           D2           0.00000   0.00000   0.00000   0.01484
           D3           0.00000   0.00000   0.00000   0.00000   0.01484
 ITU=  0
     Eigenvalues ---    0.01484   0.10393   0.10484   0.16000   0.16000
     Eigenvalues ---    0.16000   0.16000   0.34496   0.34496   0.34522
     Eigenvalues ---    0.43110   0.52900
 RFO step:  Lambda=-2.58322959D-03 EMin= 1.48366796D-02
 Linear search not attempted -- first point.
 Iteration  1 RMS(Cart)=  0.04798917 RMS(Int)=  0.00182734
 Iteration  2 RMS(Cart)=  0.00127717 RMS(Int)=  0.00122381
 Iteration  3 RMS(Cart)=  0.00000104 RMS(Int)=  0.00122381
 Iteration  4 RMS(Cart)=  0.00000000 RMS(Int)=  0.00122381
 ITry= 1 IFail=0 DXMaxC= 9.25D-02 DCOld= 1.00D+10 DXMaxT= 3.00D-01 DXLimC= 3.00D+00 Rises=F
 Variable       Old X    -DE/DX   Delta X   Delta X   Delta X     New X
                                 (Linear)    (Quad)   (Total)
    R1        2.67535   0.00697   0.00000   0.01608   0.01608   2.69142
    R2        2.06501   0.00210   0.00000   0.00605   0.00605   2.07107
    R3        2.06501   0.00211   0.00000   0.00606   0.00606   2.07106
    R4        2.06459  -0.00297   0.00000  -0.00853  -0.00853   2.05605
    R5        1.83748  -0.01001   0.00000  -0.01882  -0.01882   1.81865
    A1        1.91162   0.01019   0.00000   0.06563   0.06426   1.97588
    A2        1.91163   0.01019   0.00000   0.06562   0.06425   1.97587
    A3        1.90208  -0.00791   0.00000  -0.05450  -0.05401   1.84807
    A4        1.92114  -0.00586   0.00000  -0.02450  -0.02716   1.89398
    A5        1.90862  -0.00334   0.00000  -0.02644  -0.02597   1.88264
    A6        1.90862  -0.00334   0.00000  -0.02645  -0.02598   1.88264
    A7        1.86908   0.00022   0.00000   0.00136   0.00136   1.87045
    D1        1.05427   0.00276   0.00000   0.02589   0.02823   1.08250
    D2       -1.05425  -0.00276   0.00000  -0.02590  -0.02824  -1.08249
    D3       -3.14159   0.00000   0.00000   0.00000   0.00000  -3.14159
         Item               Value     Threshold  Converged?
 Maximum Force            0.010191     0.000450     NO 
 RMS     Force            0.005823     0.000300     NO 
 Maximum Displacement     0.092496     0.001800     NO 
 RMS     Displacement     0.047671     0.001200     NO 
 Predicted change in Energy=-1.329217D-03
 Lowest energy point so far.  Saving SCF results.
 GradGradGradGradGradGradGradGradGradGradGradGradGradGradGradGradGradGrad

 Leave Link  103 at Wed Aug 19 17:46:11 2020, MaxMem=    65536000 cpu:         1.0
 (Enter /opt/cluster/programs/g09/g09_d.01/g09/l202.exe)
                          Input orientation:                          
 ---------------------------------------------------------------------
 Center     Atomic      Atomic             Coordinates (Angstroms)
 Number     Number       Type             X           Y           Z
 ---------------------------------------------------------------------
      1          6           0       -5.173818   -1.255782    0.907023
      2          8           0       -3.756499   -1.120291    0.870865
      3          1           0       -5.523737   -2.230927    0.549563
      4          1           0       -5.697044   -0.471832    0.347750
      5          1           0       -5.455218   -1.163398    1.953950
      6          1           0       -3.486955   -1.199331   -0.049620
 ---------------------------------------------------------------------
                    Distance matrix (angstroms):
                    1          2          3          4          5
     1  C    0.000000
     2  O    1.424239   0.000000
     3  H    1.095961   2.111842   0.000000
     4  H    1.095960   2.111839   1.779096   0.000000
     5  H    1.088015   2.015088   1.765394   1.765395   0.000000
     6  H    1.940067   0.962390   2.360443   2.360435   2.808851
                    6
     6  H    0.000000
 Stoichiometry    CH4O
 Framework group  C1[X(CH4O)]
 Deg. of freedom    12
 Full point group                 C1      NOp   1
 RotChk:  IX=0 Diff= 4.31D-02
 Largest Abelian subgroup         C1      NOp   1
 Largest concise Abelian subgroup C1      NOp   1
                         Standard orientation:                         
 ---------------------------------------------------------------------
 Center     Atomic      Atomic             Coordinates (Angstroms)
 Number     Number       Type             X           Y           Z
 ---------------------------------------------------------------------
      1          6           0       -0.664621   -0.019993    0.000000
      2          8           0        0.752717    0.120041    0.000000
      3          1           0       -1.047980   -0.532696    0.889551
      4          1           0       -1.047974   -0.532711   -0.889544
      5          1           0       -1.063891    0.992114   -0.000009
      6          1           0        1.125832   -0.767078    0.000001
 ---------------------------------------------------------------------
 Rotational constants (GHZ):    128.5252398     24.6566428     23.7950190
 Leave Link  202 at Wed Aug 19 17:46:11 2020, MaxMem=    65536000 cpu:         0.0
 (Enter /opt/cluster/programs/g09/g09_d.01/g09/l301.exe)
 Standard basis: 6-31G(d,p) (6D, 7F)
 Ernie: Thresh=  0.10000D-02 Tol=  0.10000D-05 Strict=F.
 There are    50 symmetry adapted cartesian basis functions of A   symmetry.
 There are    50 symmetry adapted basis functions of A   symmetry.
    50 basis functions,    84 primitive gaussians,    50 cartesian basis functions
     9 alpha electrons        9 beta electrons
       nuclear repulsion energy        40.2259953107 Hartrees.
 IExCor=  419 DFT=T Ex+Corr=B2PLYPD3 ExCW=0 ScaHFX=  0.530000
 ScaDFX=  0.470000  0.470000  0.730000  0.730000 ScalE2=  0.270000  0.270000
 IRadAn=      0 IRanWt=     -1 IRanGd=            0 ICorTp=0 IEmpDi=141
 NAtoms=    6 NActive=    6 NUniq=    6 SFac= 1.00D+00 NAtFMM=   60 NAOKFM=F Big=F
 Integral buffers will be    131072 words long.
 Regular integral format.
 Two-electron integral symmetry is turned on.
 R6Disp:  Grimme-D3(BJ) Dispersion energy=       -0.0013069456 Hartrees.
 Nuclear repulsion after empirical dispersion term =       40.2246883651 Hartrees.
 Leave Link  301 at Wed Aug 19 17:46:11 2020, MaxMem=    65536000 cpu:         0.4
 (Enter /opt/cluster/programs/g09/g09_d.01/g09/l302.exe)
 NPDir=0 NMtPBC=     1 NCelOv=     1 NCel=       1 NClECP=     1 NCelD=      1
         NCelK=      1 NCelE2=     1 NClLst=     1 CellRange=     0.0.
 One-electron integrals computed using PRISM.
 NBasis=    50 RedAO= T EigKep=  9.49D-03  NBF=    50
 NBsUse=    50 1.00D-06 EigRej= -1.00D+00 NBFU=    50
 Precomputing XC quadrature grid using
 IXCGrd= 4 IRadAn=           0 IRanWt=          -1 IRanGd=           0 AccXCQ= 0.00D+00.
 Generated NRdTot=       0 NPtTot=           0 NUsed=           0 NTot=          32
 NSgBfM=    50    50    50    50    50 MxSgAt=     6 MxSgA2=     6.
 Leave Link  302 at Wed Aug 19 17:46:12 2020, MaxMem=    65536000 cpu:         0.8
 (Enter /opt/cluster/programs/g09/g09_d.01/g09/l303.exe)
 DipDrv:  MaxL=1.
 Leave Link  303 at Wed Aug 19 17:46:12 2020, MaxMem=    65536000 cpu:         0.1
 (Enter /opt/cluster/programs/g09/g09_d.01/g09/l401.exe)
 Initial guess from the checkpoint file:  "methanol_opt.chk"
 B after Tr=     0.000000    0.000000    0.000000
         Rot=    0.999939   -0.000002    0.000001    0.011022 Ang=  -1.26 deg.
 Guess basis will be translated and rotated to current coordinates.
 JPrj=2 DoOrth=T DoCkMO=T.
 Generating alternative initial guess.
 ExpMin= 1.61D-01 ExpMax= 5.48D+03 ExpMxC= 8.25D+02 IAcc=1 IRadAn=         1 AccDes= 0.00D+00
 Harris functional with IExCor=  419 and IRadAn=       1 diagonalized for initial guess.
 HarFok:  IExCor=  419 AccDes= 0.00D+00 IRadAn=         1 IDoV= 1 UseB2=F ITyADJ=14
 ICtDFT=  3500011 ScaDFX=  1.000000  1.000000  1.000000  1.000000
 FoFCou: FMM=F IPFlag=           0 FMFlag=      100000 FMFlg1=           0
         NFxFlg=           0 DoJE=T BraDBF=F KetDBF=T FulRan=T
         wScrn=  0.000000 ICntrl=     500 IOpCl=  0 I1Cent=   200000004 NGrid=           0
         NMat0=    1 NMatS0=      1 NMatT0=    0 NMatD0=    1 NMtDS0=    0 NMtDT0=    0
 Petite list used in FoFCou.
 Harris En= -115.757569318304    
 Leave Link  401 at Wed Aug 19 17:46:12 2020, MaxMem=    65536000 cpu:         1.2
 (Enter /opt/cluster/programs/g09/g09_d.01/g09/l502.exe)
 Closed shell SCF:
 Using DIIS extrapolation, IDIIS=  1040.
 Integral symmetry usage will be decided dynamically.
 Keep R1 ints in memory in canonical form, NReq=1709344.
 IVT=       26832 IEndB=       26832 NGot=    65536000 MDV=    64695719
 LenX=    64695719 LenY=    64692778
 Requested convergence on RMS density matrix=1.00D-08 within 128 cycles.
 Requested convergence on MAX density matrix=1.00D-06.
 Requested convergence on             energy=1.00D-06.
 No special actions if energy rises.
 FoFCou: FMM=F IPFlag=           0 FMFlag=           0 FMFlg1=           0
         NFxFlg=           0 DoJE=F BraDBF=F KetDBF=F FulRan=T
         wScrn=  0.000000 ICntrl=     600 IOpCl=  0 I1Cent=           0 NGrid=           0
         NMat0=    1 NMatS0=   1275 NMatT0=    0 NMatD0=    1 NMtDS0=    0 NMtDT0=    0
 Symmetry not used in FoFCou.
 Integral accuracy reduced to 1.0D-05 until final iterations.

 Cycle   1  Pass 0  IDiag  1:
 E= -115.493980544942    
 DIIS: error= 2.26D-03 at cycle   1 NSaved=   1.
 NSaved= 1 IEnMin= 1 EnMin= -115.493980544942     IErMin= 1 ErrMin= 2.26D-03
 ErrMax= 2.26D-03  0.00D+00 EMaxC= 1.00D-01 BMatC= 4.12D-04 BMatP= 4.12D-04
 IDIUse=3 WtCom= 9.77D-01 WtEn= 2.26D-02
 Coeff-Com:  0.100D+01
 Coeff-En:   0.100D+01
 Coeff:      0.100D+01
 Gap=     1.854 Goal=   None    Shift=    0.000
 GapD=    1.854 DampG=2.000 DampE=1.000 DampFc=2.0000 IDamp=-1.
 RMSDP=4.88D-04 MaxDP=4.37D-03              OVMax= 7.63D-03

 Cycle   2  Pass 0  IDiag  1:
 E= -115.494512605544     Delta-E=       -0.000532060602 Rises=F Damp=F
 DIIS: error= 5.53D-04 at cycle   2 NSaved=   2.
 NSaved= 2 IEnMin= 2 EnMin= -115.494512605544     IErMin= 2 ErrMin= 5.53D-04
 ErrMax= 5.53D-04  0.00D+00 EMaxC= 1.00D-01 BMatC= 1.91D-05 BMatP= 4.12D-04
 IDIUse=3 WtCom= 9.94D-01 WtEn= 5.53D-03
 Coeff-Com: -0.435D-01 0.104D+01
 Coeff-En:   0.000D+00 0.100D+01
 Coeff:     -0.433D-01 0.104D+01
 Gap=     0.479 Goal=   None    Shift=    0.000
 RMSDP=1.31D-04 MaxDP=1.68D-03 DE=-5.32D-04 OVMax= 2.68D-03

 Cycle   3  Pass 0  IDiag  1:
 E= -115.494532213010     Delta-E=       -0.000019607466 Rises=F Damp=F
 DIIS: error= 3.95D-04 at cycle   3 NSaved=   3.
 NSaved= 3 IEnMin= 3 EnMin= -115.494532213010     IErMin= 3 ErrMin= 3.95D-04
 ErrMax= 3.95D-04  0.00D+00 EMaxC= 1.00D-01 BMatC= 1.20D-05 BMatP= 1.91D-05
 IDIUse=3 WtCom= 9.96D-01 WtEn= 3.95D-03
 Coeff-Com: -0.649D-01 0.472D+00 0.593D+00
 Coeff-En:   0.000D+00 0.000D+00 0.100D+01
 Coeff:     -0.646D-01 0.470D+00 0.595D+00
 Gap=     0.480 Goal=   None    Shift=    0.000
 RMSDP=4.77D-05 MaxDP=7.37D-04 DE=-1.96D-05 OVMax= 8.11D-04

 Cycle   4  Pass 0  IDiag  1:
 E= -115.494541122112     Delta-E=       -0.000008909102 Rises=F Damp=F
 DIIS: error= 7.71D-05 at cycle   4 NSaved=   4.
 NSaved= 4 IEnMin= 4 EnMin= -115.494541122112     IErMin= 4 ErrMin= 7.71D-05
 ErrMax= 7.71D-05  0.00D+00 EMaxC= 1.00D-01 BMatC= 3.18D-07 BMatP= 1.20D-05
 IDIUse=1 WtCom= 1.00D+00 WtEn= 0.00D+00
 Coeff-Com: -0.691D-02-0.258D-01 0.102D+00 0.931D+00
 Coeff:     -0.691D-02-0.258D-01 0.102D+00 0.931D+00
 Gap=     0.479 Goal=   None    Shift=    0.000
 RMSDP=1.36D-05 MaxDP=1.60D-04 DE=-8.91D-06 OVMax= 3.23D-04

 Cycle   5  Pass 0  IDiag  1:
 E= -115.494541489238     Delta-E=       -0.000000367126 Rises=F Damp=F
 DIIS: error= 1.38D-05 at cycle   5 NSaved=   5.
 NSaved= 5 IEnMin= 5 EnMin= -115.494541489238     IErMin= 5 ErrMin= 1.38D-05
 ErrMax= 1.38D-05  0.00D+00 EMaxC= 1.00D-01 BMatC= 1.87D-08 BMatP= 3.18D-07
 IDIUse=1 WtCom= 1.00D+00 WtEn= 0.00D+00
 Coeff-Com:  0.234D-02-0.312D-01-0.150D-01 0.191D+00 0.853D+00
 Coeff:      0.234D-02-0.312D-01-0.150D-01 0.191D+00 0.853D+00
 Gap=     0.479 Goal=   None    Shift=    0.000
 RMSDP=3.70D-06 MaxDP=3.74D-05 DE=-3.67D-07 OVMax= 7.80D-05

 Initial convergence to 1.0D-05 achieved.  Increase integral accuracy.
 Cycle   6  Pass 1  IDiag  1:
 E= -115.494550704095     Delta-E=       -0.000009214857 Rises=F Damp=F
 DIIS: error= 6.91D-06 at cycle   1 NSaved=   1.
 NSaved= 1 IEnMin= 1 EnMin= -115.494550704095     IErMin= 1 ErrMin= 6.91D-06
 ErrMax= 6.91D-06  0.00D+00 EMaxC= 1.00D-01 BMatC= 2.72D-09 BMatP= 2.72D-09
 IDIUse=1 WtCom= 1.00D+00 WtEn= 0.00D+00
 Coeff-Com:  0.100D+01
 Coeff:      0.100D+01
 Gap=     0.479 Goal=   None    Shift=    0.000
 RMSDP=3.70D-06 MaxDP=3.74D-05 DE=-9.21D-06 OVMax= 2.37D-05

 Cycle   7  Pass 1  IDiag  1:
 E= -115.494550705924     Delta-E=       -0.000000001829 Rises=F Damp=F
 DIIS: error= 4.47D-06 at cycle   2 NSaved=   2.
 NSaved= 2 IEnMin= 2 EnMin= -115.494550705924     IErMin= 2 ErrMin= 4.47D-06
 ErrMax= 4.47D-06  0.00D+00 EMaxC= 1.00D-01 BMatC= 1.17D-09 BMatP= 2.72D-09
 IDIUse=1 WtCom= 1.00D+00 WtEn= 0.00D+00
 Coeff-Com:  0.387D+00 0.613D+00
 Coeff:      0.387D+00 0.613D+00
 Gap=     0.479 Goal=   None    Shift=    0.000
 RMSDP=5.95D-07 MaxDP=8.75D-06 DE=-1.83D-09 OVMax= 8.85D-06

 Cycle   8  Pass 1  IDiag  1:
 E= -115.494550707039     Delta-E=       -0.000000001114 Rises=F Damp=F
 DIIS: error= 5.64D-07 at cycle   3 NSaved=   3.
 NSaved= 3 IEnMin= 3 EnMin= -115.494550707039     IErMin= 3 ErrMin= 5.64D-07
 ErrMax= 5.64D-07  0.00D+00 EMaxC= 1.00D-01 BMatC= 1.70D-11 BMatP= 1.17D-09
 IDIUse=1 WtCom= 1.00D+00 WtEn= 0.00D+00
 Coeff-Com: -0.669D-01 0.324D-02 0.106D+01
 Coeff:     -0.669D-01 0.324D-02 0.106D+01
 Gap=     0.479 Goal=   None    Shift=    0.000
 RMSDP=1.52D-07 MaxDP=1.69D-06 DE=-1.11D-09 OVMax= 3.00D-06

 Cycle   9  Pass 1  IDiag  1:
 E= -115.494550707064     Delta-E=       -0.000000000025 Rises=F Damp=F
 DIIS: error= 1.40D-07 at cycle   4 NSaved=   4.
 NSaved= 4 IEnMin= 4 EnMin= -115.494550707064     IErMin= 4 ErrMin= 1.40D-07
 ErrMax= 1.40D-07  0.00D+00 EMaxC= 1.00D-01 BMatC= 1.82D-12 BMatP= 1.70D-11
 IDIUse=1 WtCom= 1.00D+00 WtEn= 0.00D+00
 Coeff-Com: -0.329D-01-0.174D-01 0.309D+00 0.741D+00
 Coeff:     -0.329D-01-0.174D-01 0.309D+00 0.741D+00
 Gap=     0.479 Goal=   None    Shift=    0.000
 RMSDP=2.89D-08 MaxDP=3.66D-07 DE=-2.55D-11 OVMax= 4.41D-07

 Cycle  10  Pass 1  IDiag  1:
 E= -115.494550707066     Delta-E=       -0.000000000002 Rises=F Damp=F
 DIIS: error= 7.12D-08 at cycle   5 NSaved=   5.
 NSaved= 5 IEnMin= 5 EnMin= -115.494550707066     IErMin= 5 ErrMin= 7.12D-08
 ErrMax= 7.12D-08  0.00D+00 EMaxC= 1.00D-01 BMatC= 3.31D-13 BMatP= 1.82D-12
 IDIUse=1 WtCom= 1.00D+00 WtEn= 0.00D+00
 Coeff-Com: -0.158D-02-0.607D-02-0.564D-01 0.278D+00 0.786D+00
 Coeff:     -0.158D-02-0.607D-02-0.564D-01 0.278D+00 0.786D+00
 Gap=     0.479 Goal=   None    Shift=    0.000
 RMSDP=1.24D-08 MaxDP=1.82D-07 DE=-1.76D-12 OVMax= 2.80D-07

 Cycle  11  Pass 1  IDiag  1:
 E= -115.494550707066     Delta-E=        0.000000000000 Rises=F Damp=F
 DIIS: error= 1.02D-08 at cycle   6 NSaved=   6.
 NSaved= 6 IEnMin= 6 EnMin= -115.494550707066     IErMin= 6 ErrMin= 1.02D-08
 ErrMax= 1.02D-08  0.00D+00 EMaxC= 1.00D-01 BMatC= 7.30D-15 BMatP= 3.31D-13
 IDIUse=1 WtCom= 1.00D+00 WtEn= 0.00D+00
 Coeff-Com:  0.162D-02 0.324D-04-0.259D-01-0.114D-01 0.126D+00 0.910D+00
 Coeff:      0.162D-02 0.324D-04-0.259D-01-0.114D-01 0.126D+00 0.910D+00
 Gap=     0.479 Goal=   None    Shift=    0.000
 RMSDP=2.19D-09 MaxDP=2.09D-08 DE=-1.14D-13 OVMax= 4.76D-08

 SCF Done:  E(RB2PLYPD3) =  -115.494550707     A.U. after   11 cycles
            NFock= 11  Conv=0.22D-08     -V/T= 2.0064
 KE= 1.147566131935D+02 PE=-3.515736054430D+02 EE= 8.109775317731D+01
 Leave Link  502 at Wed Aug 19 17:46:12 2020, MaxMem=    65536000 cpu:         2.9
 (Enter /opt/cluster/programs/g09/g09_d.01/g09/l801.exe)
 DoSCS=T DFT=T ScalE2(SS,OS)=  0.270000  0.270000
 ExpMin= 1.61D-01 ExpMax= 5.48D+03 ExpMxC= 8.25D+02 IAcc=3 IRadAn=         5 AccDes= 0.00D+00
 HarFok:  IExCor=  205 AccDes= 0.00D+00 IRadAn=         5 IDoV=-2 UseB2=F ITyADJ=14
 ICtDFT= 12500011 ScaDFX=  1.000000  1.000000  1.000000  1.000000
 Largest valence mixing into a core orbital is  1.09D-04
 Largest core mixing into a valence orbital is  1.63D-05
 Range of M.O.s used for correlation:     3    50
 NBasis=    50 NAE=     9 NBE=     9 NFC=     2 NFV=     0
 NROrb=     48 NOA=     7 NOB=     7 NVA=    41 NVB=    41
 Leave Link  801 at Wed Aug 19 17:46:12 2020, MaxMem=    65536000 cpu:         0.3
 (Enter /opt/cluster/programs/g09/g09_d.01/g09/l906.exe)
 DoSCS=T DFT=T ScalE2(SS,OS)=  0.270000  0.270000
 Frozen-core derivative calculation, NFC=   2 NFV=   0.
 FulOut=F Deriv=T AODrv=T NAtomX=     6
   MMem=         975  MDisk=           7 MDiskD=           7
  W3Min=       22500 MinDsk=       94225 NBas6D=          50
 NBas2D=        1341    NTT=        1275    LW2=     2040000
    MDV=    65496677 MDiskM=       17637 NBas2p=        1341
 Fully direct method using O(ONN) memory.
 IMap=   1   2   3   4   5   6   7   8   9
 JobTyp=1 Pass  1:  I=   3 to   9 NPSUse=  8 ParTrn=T ParDer=T DoDerP=T.
 Spin components of T(2) and E(2):
     alpha-alpha T2 =       0.1663924839D-01 E2=     -0.1284226746D-01
     alpha-beta  T2 =       0.1087724952D+00 E2=     -0.8364864860D-01
     beta-beta   T2 =       0.1663924839D-01 E2=     -0.1284226746D-01
 The integrals were generated   1 times.
 E2(B2PLYPD3) =    -0.1093331835D+00 E(B2PLYPD3) =    -0.11560388389059D+03
 Leave Link  906 at Wed Aug 19 17:46:12 2020, MaxMem=    65536000 cpu:         1.4
 (Enter /opt/cluster/programs/g09/g09_d.01/g09/l1002.exe)
 Minotr:  Closed shell wavefunction.
          Computing MP2/KS-MP2 derivatives.
          Using Z-Vector for PSCF gradient.
          Skipping F1 and S1 gradient terms here.
          IDoAtm=111111
          Frozen-core window.
          Direct CPHF calculation.
          Differentiating once with respect to electric field.
                with respect to dipole field.
          Differentiating once with respect to nuclear coordinates.
          Requested convergence is 1.0D-10 RMS, and 1.0D-09 maximum.
          NewPWx=F KeepS1=T KeepF1=T KeepIn=T MapXYZ=F SortEE=F KeepMc=T.
          MDV=      65535888 using IRadAn=       0.
 Using stored XC quadrature information.
 Keep R1 ints in memory in canonical form, NReq=1683393.
 FoFCou: FMM=F IPFlag=           0 FMFlag=           0 FMFlg1=           0
         NFxFlg=           0 DoJE=F BraDBF=F KetDBF=F FulRan=T
         wScrn=  0.000000 ICntrl=     600 IOpCl=  0 I1Cent=           0 NGrid=           0
         NMat0=    1 NMatS0=   1275 NMatT0=    0 NMatD0=    1 NMtDS0=    0 NMtDT0=    0
 Symmetry not used in FoFCou.
          Solving linear equations separately, MaxMat=       0.
          There are     1 degrees of freedom in the 1st order CPHF.  IDoFFX=0 NUNeed=     1.
 LinEq1:  Iter=  0 NonCon=     1 RMS=2.19D-03 Max=1.67D-02 NDo=     1
 AX will form     1 AO Fock derivatives at one time.
 LinEq1:  Iter=  1 NonCon=     1 RMS=8.86D-04 Max=4.64D-03 NDo=     1
 LinEq1:  Iter=  2 NonCon=     1 RMS=2.02D-04 Max=1.64D-03 NDo=     1
 LinEq1:  Iter=  3 NonCon=     1 RMS=1.16D-04 Max=8.69D-04 NDo=     1
 LinEq1:  Iter=  4 NonCon=     1 RMS=1.55D-05 Max=1.01D-04 NDo=     1
 LinEq1:  Iter=  5 NonCon=     1 RMS=2.96D-06 Max=1.91D-05 NDo=     1
 LinEq1:  Iter=  6 NonCon=     1 RMS=5.21D-07 Max=3.92D-06 NDo=     1
 LinEq1:  Iter=  7 NonCon=     1 RMS=8.04D-08 Max=4.24D-07 NDo=     1
 LinEq1:  Iter=  8 NonCon=     1 RMS=1.29D-08 Max=7.12D-08 NDo=     1
 LinEq1:  Iter=  9 NonCon=     1 RMS=1.61D-09 Max=8.95D-09 NDo=     1
 LinEq1:  Iter= 10 NonCon=     1 RMS=2.90D-10 Max=2.39D-09 NDo=     1
 LinEq1:  Iter= 11 NonCon=     0 RMS=3.40D-11 Max=1.97D-10 NDo=     1
 Linear equations converged to 1.000D-10 1.000D-09 after    11 iterations.
 End of Minotr F.D. properties file   721 does not exist.
 End of Minotr F.D. properties file   722 does not exist.
 End of Minotr F.D. properties file   788 does not exist.
 Leave Link 1002 at Wed Aug 19 17:46:13 2020, MaxMem=    65536000 cpu:         5.1
 (Enter /opt/cluster/programs/g09/g09_d.01/g09/l701.exe)
 Compute integral first derivatives.
 ... and contract with generalized density number  2.
 R6Disp: Adding Grimme-D3(BJ) dispersion energy 1st derivatives to the gradient.
 Leave Link  701 at Wed Aug 19 17:46:20 2020, MaxMem=    65536000 cpu:         0.8
 (Enter /opt/cluster/programs/g09/g09_d.01/g09/l702.exe)
 L702 exits ... SP integral derivatives will be done elsewhere.
 Leave Link  702 at Wed Aug 19 17:46:21 2020, MaxMem=    65536000 cpu:         0.1
 (Enter /opt/cluster/programs/g09/g09_d.01/g09/l703.exe)
 Compute integral first derivatives, UseDBF=F ICtDFT=           0.
 Integral derivatives from FoFJK, PRISM(SPDF).
 Calling FoFJK, ICntrl=  10002127 FMM=F ISym2X=0 I1Cent= 0 IOpClX= 0 NMat=1 NMatS=1 NMatT=0.
 FoFJK:  IHMeth= 1 ICntrl=10002127 DoSepK=F KAlg= 0 I1Cent=   0 FoldK=F
 IRaf=         0 NMat=   1 IRICut=       1 DoRegI=T DoRafI=F ISym2E= 0.
 FoFCou: FMM=F IPFlag=           0 FMFlag=      100000 FMFlg1=         800
         NFxFlg=           0 DoJE=F BraDBF=F KetDBF=F FulRan=T
         wScrn=  0.000000 ICntrl=10002127 IOpCl=  0 I1Cent=           0 NGrid=           0
         NMat0=    1 NMatS0=      1 NMatT0=    0 NMatD0=    1 NMtDS0=    0 NMtDT0=    0
 Symmetry not used in FoFCou.
 Leave Link  703 at Wed Aug 19 17:46:21 2020, MaxMem=    65536000 cpu:         1.9
 (Enter /opt/cluster/programs/g09/g09_d.01/g09/l716.exe)
 Dipole        =-3.17888298D-01-5.97867259D-01 3.92747461D-08
 ***** Axes restored to original set *****
 -------------------------------------------------------------------
 Center     Atomic                   Forces (Hartrees/Bohr)
 Number     Number              X              Y              Z
 -------------------------------------------------------------------
      1        6           0.002488339    0.000642180    0.003461065
      2        8          -0.004748200   -0.000675065   -0.001805039
      3        1           0.001285621   -0.000205598   -0.000837918
      4        1           0.001239639    0.000256248   -0.000890856
      5        1          -0.001238632   -0.000033048    0.000774970
      6        1           0.000973233    0.000015283   -0.000702222
 -------------------------------------------------------------------
 Cartesian Forces:  Max     0.004748200 RMS     0.001719368
 Leave Link  716 at Wed Aug 19 17:46:21 2020, MaxMem=    65536000 cpu:         0.2
 (Enter /opt/cluster/programs/g09/g09_d.01/g09/l103.exe)

 GradGradGradGradGradGradGradGradGradGradGradGradGradGradGradGradGradGrad
 Berny optimization.
 Using GEDIIS/GDIIS optimizer.
 FormGI is forming the generalized inverse of G from B-inverse, IUseBI=4.
 Internal  Forces:  Max     0.003756421 RMS     0.001620201
 Search for a local minimum.
 Step number   2 out of a maximum of   25
 All quantities printed in internal units (Hartrees-Bohrs-Radians)
 RMS Force = .16202D-02 SwitMx=.10000D-02 MixMth= 1
 Mixed Optimization -- RFO/linear search
 Update second derivatives using D2CorX and points    1    2
 DE= -9.46D-04 DEPred=-1.33D-03 R= 7.12D-01
 TightC=F SS=  1.41D+00  RLast= 1.25D-01 DXNew= 5.0454D-01 3.7491D-01
 Trust test= 7.12D-01 RLast= 1.25D-01 DXMaxT set to 3.75D-01
 The second derivative matrix:
                          R1        R2        R3        R4        R5
           R1           0.44767
           R2           0.00107   0.34453
           R3           0.00107  -0.00043   0.34453
           R4          -0.00528  -0.00012  -0.00012   0.34680
           R5          -0.00890   0.00132   0.00132   0.00198   0.52658
           A1           0.01280  -0.00067  -0.00067  -0.00340  -0.00118
           A2           0.01280  -0.00067  -0.00067  -0.00340  -0.00118
           A3          -0.01142   0.00044   0.00044   0.00311   0.00167
           A4          -0.01002  -0.00060  -0.00060   0.00317   0.00521
           A5          -0.00166   0.00094   0.00095   0.00005  -0.00311
           A6          -0.00166   0.00095   0.00095   0.00005  -0.00311
           A7          -0.00437  -0.00090  -0.00090   0.00167   0.00471
           D1           0.01224   0.00222   0.00222  -0.00454  -0.01201
           D2          -0.01224  -0.00222  -0.00222   0.00454   0.01201
           D3           0.00000   0.00000   0.00000   0.00000   0.00000
                          A1        A2        A3        A4        A5
           A1           0.16539
           A2           0.00538   0.16538
           A3          -0.00529  -0.00529   0.16511
           A4          -0.00760  -0.00760   0.00680   0.16606
           A5           0.00188   0.00188  -0.00133   0.00091   0.15795
           A6           0.00188   0.00188  -0.00134   0.00090  -0.00206
           A7          -0.00524  -0.00524   0.00448   0.00270   0.00175
           D1           0.01375   0.01375  -0.01181  -0.00754  -0.00424
           D2          -0.01375  -0.01375   0.01181   0.00754   0.00424
           D3           0.00000   0.00000   0.00000   0.00000   0.00000
                          A6        A7        D1        D2        D3
           A6           0.15794
           A7           0.00175   0.16038
           D1          -0.00424  -0.00144   0.01978
           D2           0.00424   0.00144  -0.00495   0.01979
           D3           0.00000   0.00000   0.00000   0.00000   0.01484
 ITU=  1  0
 Use linear search instead of GDIIS.
     Eigenvalues ---    0.01484   0.10485   0.10577   0.15665   0.16000
     Eigenvalues ---    0.16000   0.18968   0.34408   0.34496   0.34678
     Eigenvalues ---    0.44976   0.52813
 RFO step:  Lambda=-2.77409146D-05 EMin= 1.48366796D-02
 Quartic linear search produced a step of -0.20543.
 Iteration  1 RMS(Cart)=  0.00904310 RMS(Int)=  0.00019824
 Iteration  2 RMS(Cart)=  0.00005391 RMS(Int)=  0.00019245
 Iteration  3 RMS(Cart)=  0.00000000 RMS(Int)=  0.00019245
 ITry= 1 IFail=0 DXMaxC= 1.66D-02 DCOld= 1.00D+10 DXMaxT= 3.75D-01 DXLimC= 3.00D+00 Rises=F
 Variable       Old X    -DE/DX   Delta X   Delta X   Delta X     New X
                                 (Linear)    (Quad)   (Total)
    R1        2.69142  -0.00376  -0.00330  -0.00345  -0.00676   2.68467
    R2        2.07107   0.00005  -0.00124   0.00140   0.00016   2.07123
    R3        2.07106   0.00005  -0.00124   0.00141   0.00016   2.07123
    R4        2.05605   0.00106   0.00175   0.00061   0.00237   2.05842
    R5        1.81865   0.00094   0.00387  -0.00264   0.00122   1.81988
    A1        1.97588  -0.00220  -0.01320   0.00140  -0.01160   1.96428
    A2        1.97587  -0.00220  -0.01320   0.00140  -0.01159   1.96428
    A3        1.84807   0.00270   0.01110   0.00417   0.01519   1.86325
    A4        1.89398   0.00076   0.00558  -0.00623  -0.00023   1.89374
    A5        1.88264   0.00061   0.00534  -0.00027   0.00498   1.88763
    A6        1.88264   0.00061   0.00534  -0.00028   0.00498   1.88763
    A7        1.87045   0.00135  -0.00028   0.00697   0.00669   1.87714
    D1        1.08250  -0.00126  -0.00580  -0.00309  -0.00927   1.07324
    D2       -1.08249   0.00126   0.00580   0.00309   0.00926  -1.07322
    D3       -3.14159   0.00000   0.00000   0.00000   0.00000  -3.14159
         Item               Value     Threshold  Converged?
 Maximum Force            0.003756     0.000450     NO 
 RMS     Force            0.001620     0.000300     NO 
 Maximum Displacement     0.016560     0.001800     NO 
 RMS     Displacement     0.009061     0.001200     NO 
 Predicted change in Energy=-7.732250D-05
 Lowest energy point so far.  Saving SCF results.
 GradGradGradGradGradGradGradGradGradGradGradGradGradGradGradGradGradGrad

 Leave Link  103 at Wed Aug 19 17:46:22 2020, MaxMem=    65536000 cpu:         0.1
 (Enter /opt/cluster/programs/g09/g09_d.01/g09/l202.exe)
                          Input orientation:                          
 ---------------------------------------------------------------------
 Center     Atomic      Atomic             Coordinates (Angstroms)
 Number     Number       Type             X           Y           Z
 ---------------------------------------------------------------------
      1          6           0       -5.173781   -1.255068    0.913208
      2          8           0       -3.760199   -1.121082    0.867149
      3          1           0       -5.515583   -2.230302    0.547959
      4          1           0       -5.688893   -0.471218    0.346149
      5          1           0       -5.463981   -1.163668    1.959120
      6          1           0       -3.490832   -1.200223   -0.054056
 ---------------------------------------------------------------------
                    Distance matrix (angstroms):
                    1          2          3          4          5
     1  C    0.000000
     2  O    1.420665   0.000000
     3  H    1.096046   2.100863   0.000000
     4  H    1.096046   2.100863   1.779084   0.000000
     5  H    1.089267   2.024127   1.769674   1.769675   0.000000
     6  H    1.941887   0.963037   2.350128   2.350124   2.819137
                    6
     6  H    0.000000
 Stoichiometry    CH4O
 Framework group  C1[X(CH4O)]
 Deg. of freedom    12
 Full point group                 C1      NOp   1
 RotChk:  IX=0 Diff= 1.15D-02
 Largest Abelian subgroup         C1      NOp   1
 Largest concise Abelian subgroup C1      NOp   1
                         Standard orientation:                         
 ---------------------------------------------------------------------
 Center     Atomic      Atomic             Coordinates (Angstroms)
 Number     Number       Type             X           Y           Z
 ---------------------------------------------------------------------
      1          6           0       -0.663695   -0.019302    0.000000
      2          8           0        0.749937    0.121879    0.000000
      3          1           0       -1.033834   -0.541818    0.889545
      4          1           0       -1.033832   -0.541830   -0.889539
      5          1           0       -1.079835    0.987341   -0.000007
      6          1           0        1.130174   -0.762915    0.000001
 ---------------------------------------------------------------------
 Rotational constants (GHZ):    128.2331333     24.7701515     23.8905505
 Leave Link  202 at Wed Aug 19 17:46:22 2020, MaxMem=    65536000 cpu:         0.0
 (Enter /opt/cluster/programs/g09/g09_d.01/g09/l301.exe)
 Standard basis: 6-31G(d,p) (6D, 7F)
 Ernie: Thresh=  0.10000D-02 Tol=  0.10000D-05 Strict=F.
 There are    50 symmetry adapted cartesian basis functions of A   symmetry.
 There are    50 symmetry adapted basis functions of A   symmetry.
    50 basis functions,    84 primitive gaussians,    50 cartesian basis functions
     9 alpha electrons        9 beta electrons
       nuclear repulsion energy        40.2739769620 Hartrees.
 IExCor=  419 DFT=T Ex+Corr=B2PLYPD3 ExCW=0 ScaHFX=  0.530000
 ScaDFX=  0.470000  0.470000  0.730000  0.730000 ScalE2=  0.270000  0.270000
 IRadAn=      0 IRanWt=     -1 IRanGd=            0 ICorTp=0 IEmpDi=141
 NAtoms=    6 NActive=    6 NUniq=    6 SFac= 1.00D+00 NAtFMM=   60 NAOKFM=F Big=F
 Integral buffers will be    131072 words long.
 Regular integral format.
 Two-electron integral symmetry is turned on.
 R6Disp:  Grimme-D3(BJ) Dispersion energy=       -0.0013071258 Hartrees.
 Nuclear repulsion after empirical dispersion term =       40.2726698362 Hartrees.
 Leave Link  301 at Wed Aug 19 17:46:22 2020, MaxMem=    65536000 cpu:         0.4
 (Enter /opt/cluster/programs/g09/g09_d.01/g09/l302.exe)
 NPDir=0 NMtPBC=     1 NCelOv=     1 NCel=       1 NClECP=     1 NCelD=      1
         NCelK=      1 NCelE2=     1 NClLst=     1 CellRange=     0.0.
 One-electron integrals computed using PRISM.
 NBasis=    50 RedAO= T EigKep=  9.42D-03  NBF=    50
 NBsUse=    50 1.00D-06 EigRej= -1.00D+00 NBFU=    50
 Precomputing XC quadrature grid using
 IXCGrd= 4 IRadAn=           0 IRanWt=          -1 IRanGd=           0 AccXCQ= 0.00D+00.
 Generated NRdTot=       0 NPtTot=           0 NUsed=           0 NTot=          32
 NSgBfM=    50    50    50    50    50 MxSgAt=     6 MxSgA2=     6.
 Leave Link  302 at Wed Aug 19 17:46:22 2020, MaxMem=    65536000 cpu:         0.8
 (Enter /opt/cluster/programs/g09/g09_d.01/g09/l303.exe)
 DipDrv:  MaxL=1.
 Leave Link  303 at Wed Aug 19 17:46:22 2020, MaxMem=    65536000 cpu:         0.1
 (Enter /opt/cluster/programs/g09/g09_d.01/g09/l401.exe)
 Initial guess from the checkpoint file:  "methanol_opt.chk"
 B after Tr=     0.000000    0.000000    0.000000
         Rot=    0.999996   -0.000001    0.000000   -0.002648 Ang=  -0.30 deg.
 Guess basis will be translated and rotated to current coordinates.
 JPrj=2 DoOrth=T DoCkMO=T.
 Leave Link  401 at Wed Aug 19 17:46:22 2020, MaxMem=    65536000 cpu:         0.6
 (Enter /opt/cluster/programs/g09/g09_d.01/g09/l502.exe)
 Closed shell SCF:
 Using DIIS extrapolation, IDIIS=  1040.
 Integral symmetry usage will be decided dynamically.
 Keep R1 ints in memory in canonical form, NReq=1709344.
 IVT=       26832 IEndB=       26832 NGot=    65536000 MDV=    64695719
 LenX=    64695719 LenY=    64692778
 Requested convergence on RMS density matrix=1.00D-08 within 128 cycles.
 Requested convergence on MAX density matrix=1.00D-06.
 Requested convergence on             energy=1.00D-06.
 No special actions if energy rises.
 FoFCou: FMM=F IPFlag=           0 FMFlag=           0 FMFlg1=           0
         NFxFlg=           0 DoJE=F BraDBF=F KetDBF=F FulRan=T
         wScrn=  0.000000 ICntrl=     600 IOpCl=  0 I1Cent=           0 NGrid=           0
         NMat0=    1 NMatS0=   1275 NMatT0=    0 NMatD0=    1 NMtDS0=    0 NMtDT0=    0
 Symmetry not used in FoFCou.

 Cycle   1  Pass 1  IDiag  1:
 E= -115.494702952013    
 DIIS: error= 6.12D-04 at cycle   1 NSaved=   1.
 NSaved= 1 IEnMin= 1 EnMin= -115.494702952013     IErMin= 1 ErrMin= 6.12D-04
 ErrMax= 6.12D-04  0.00D+00 EMaxC= 1.00D-01 BMatC= 1.99D-05 BMatP= 1.99D-05
 IDIUse=3 WtCom= 9.94D-01 WtEn= 6.12D-03
 Coeff-Com:  0.100D+01
 Coeff-En:   0.100D+01
 Coeff:      0.100D+01
 Gap=     1.842 Goal=   None    Shift=    0.000
 RMSDP=1.13D-04 MaxDP=1.04D-03              OVMax= 1.69D-03

 Cycle   2  Pass 1  IDiag  1:
 E= -115.494728969392     Delta-E=       -0.000026017379 Rises=F Damp=F
 DIIS: error= 8.87D-05 at cycle   2 NSaved=   2.
 NSaved= 2 IEnMin= 2 EnMin= -115.494728969392     IErMin= 2 ErrMin= 8.87D-05
 ErrMax= 8.87D-05  0.00D+00 EMaxC= 1.00D-01 BMatC= 4.98D-07 BMatP= 1.99D-05
 IDIUse=1 WtCom= 1.00D+00 WtEn= 0.00D+00
 Coeff-Com: -0.106D+00 0.111D+01
 Coeff:     -0.106D+00 0.111D+01
 Gap=     0.478 Goal=   None    Shift=    0.000
 RMSDP=2.35D-05 MaxDP=1.71D-04 DE=-2.60D-05 OVMax= 4.98D-04

 Cycle   3  Pass 1  IDiag  1:
 E= -115.494729910028     Delta-E=       -0.000000940637 Rises=F Damp=F
 DIIS: error= 2.27D-05 at cycle   3 NSaved=   3.
 NSaved= 3 IEnMin= 3 EnMin= -115.494729910028     IErMin= 3 ErrMin= 2.27D-05
 ErrMax= 2.27D-05  0.00D+00 EMaxC= 1.00D-01 BMatC= 2.84D-08 BMatP= 4.98D-07
 IDIUse=1 WtCom= 1.00D+00 WtEn= 0.00D+00
 Coeff-Com: -0.261D-01 0.106D+00 0.920D+00
 Coeff:     -0.261D-01 0.106D+00 0.920D+00
 Gap=     0.478 Goal=   None    Shift=    0.000
 RMSDP=4.72D-06 MaxDP=3.88D-05 DE=-9.41D-07 OVMax= 1.11D-04

 Cycle   4  Pass 1  IDiag  1:
 E= -115.494729949913     Delta-E=       -0.000000039884 Rises=F Damp=F
 DIIS: error= 7.14D-06 at cycle   4 NSaved=   4.
 NSaved= 4 IEnMin= 4 EnMin= -115.494729949913     IErMin= 4 ErrMin= 7.14D-06
 ErrMax= 7.14D-06  0.00D+00 EMaxC= 1.00D-01 BMatC= 4.96D-09 BMatP= 2.84D-08
 IDIUse=1 WtCom= 1.00D+00 WtEn= 0.00D+00
 Coeff-Com:  0.756D-03-0.468D-01 0.228D+00 0.818D+00
 Coeff:      0.756D-03-0.468D-01 0.228D+00 0.818D+00
 Gap=     0.478 Goal=   None    Shift=    0.000
 RMSDP=1.76D-06 MaxDP=1.72D-05 DE=-3.99D-08 OVMax= 3.62D-05

 Cycle   5  Pass 1  IDiag  1:
 E= -115.494729955388     Delta-E=       -0.000000005476 Rises=F Damp=F
 DIIS: error= 2.65D-06 at cycle   5 NSaved=   5.
 NSaved= 5 IEnMin= 5 EnMin= -115.494729955388     IErMin= 5 ErrMin= 2.65D-06
 ErrMax= 2.65D-06  0.00D+00 EMaxC= 1.00D-01 BMatC= 5.63D-10 BMatP= 4.96D-09
 IDIUse=1 WtCom= 1.00D+00 WtEn= 0.00D+00
 Coeff-Com:  0.303D-02-0.256D-01-0.298D-01 0.252D+00 0.801D+00
 Coeff:      0.303D-02-0.256D-01-0.298D-01 0.252D+00 0.801D+00
 Gap=     0.478 Goal=   None    Shift=    0.000
 RMSDP=5.97D-07 MaxDP=8.68D-06 DE=-5.48D-09 OVMax= 1.29D-05

 Cycle   6  Pass 1  IDiag  1:
 E= -115.494729955976     Delta-E=       -0.000000000588 Rises=F Damp=F
 DIIS: error= 6.71D-07 at cycle   6 NSaved=   6.
 NSaved= 6 IEnMin= 6 EnMin= -115.494729955976     IErMin= 6 ErrMin= 6.71D-07
 ErrMax= 6.71D-07  0.00D+00 EMaxC= 1.00D-01 BMatC= 3.78D-11 BMatP= 5.63D-10
 IDIUse=1 WtCom= 1.00D+00 WtEn= 0.00D+00
 Coeff-Com:  0.990D-03-0.669D-02-0.217D-01 0.430D-01 0.267D+00 0.718D+00
 Coeff:      0.990D-03-0.669D-02-0.217D-01 0.430D-01 0.267D+00 0.718D+00
 Gap=     0.478 Goal=   None    Shift=    0.000
 RMSDP=1.26D-07 MaxDP=1.55D-06 DE=-5.88D-10 OVMax= 1.72D-06

 Cycle   7  Pass 1  IDiag  1:
 E= -115.494729956008     Delta-E=       -0.000000000032 Rises=F Damp=F
 DIIS: error= 2.03D-07 at cycle   7 NSaved=   7.
 NSaved= 7 IEnMin= 7 EnMin= -115.494729956008     IErMin= 7 ErrMin= 2.03D-07
 ErrMax= 2.03D-07  0.00D+00 EMaxC= 1.00D-01 BMatC= 3.79D-12 BMatP= 3.78D-11
 IDIUse=1 WtCom= 1.00D+00 WtEn= 0.00D+00
 Coeff-Com: -0.804D-04 0.128D-02-0.208D-02-0.179D-01-0.195D-01 0.234D+00
 Coeff-Com:  0.804D+00
 Coeff:     -0.804D-04 0.128D-02-0.208D-02-0.179D-01-0.195D-01 0.234D+00
 Coeff:      0.804D+00
 Gap=     0.478 Goal=   None    Shift=    0.000
 RMSDP=4.69D-08 MaxDP=5.43D-07 DE=-3.18D-11 OVMax= 9.25D-07

 Cycle   8  Pass 1  IDiag  1:
 E= -115.494729956012     Delta-E=       -0.000000000004 Rises=F Damp=F
 DIIS: error= 2.50D-08 at cycle   8 NSaved=   8.
 NSaved= 8 IEnMin= 8 EnMin= -115.494729956012     IErMin= 8 ErrMin= 2.50D-08
 ErrMax= 2.50D-08  0.00D+00 EMaxC= 1.00D-01 BMatC= 5.38D-14 BMatP= 3.79D-12
 IDIUse=1 WtCom= 1.00D+00 WtEn= 0.00D+00
 Coeff-Com: -0.490D-04 0.389D-03 0.703D-03-0.432D-02-0.151D-01-0.857D-02
 Coeff-Com:  0.855D-01 0.941D+00
 Coeff:     -0.490D-04 0.389D-03 0.703D-03-0.432D-02-0.151D-01-0.857D-02
 Coeff:      0.855D-01 0.941D+00
 Gap=     0.478 Goal=   None    Shift=    0.000
 RMSDP=9.16D-09 MaxDP=1.06D-07 DE=-3.89D-12 OVMax= 1.54D-07

 SCF Done:  E(RB2PLYPD3) =  -115.494729956     A.U. after    8 cycles
            NFock=  8  Conv=0.92D-08     -V/T= 2.0064
 KE= 1.147598609566D+02 PE=-3.516742658137D+02 EE= 8.114700506487D+01
 Leave Link  502 at Wed Aug 19 17:46:23 2020, MaxMem=    65536000 cpu:         4.5
 (Enter /opt/cluster/programs/g09/g09_d.01/g09/l801.exe)
 DoSCS=T DFT=T ScalE2(SS,OS)=  0.270000  0.270000
 ExpMin= 1.61D-01 ExpMax= 5.48D+03 ExpMxC= 8.25D+02 IAcc=3 IRadAn=         5 AccDes= 0.00D+00
 HarFok:  IExCor=  205 AccDes= 0.00D+00 IRadAn=         5 IDoV=-2 UseB2=F ITyADJ=14
 ICtDFT= 12500011 ScaDFX=  1.000000  1.000000  1.000000  1.000000
 Largest valence mixing into a core orbital is  1.09D-04
 Largest core mixing into a valence orbital is  1.63D-05
 Range of M.O.s used for correlation:     3    50
 NBasis=    50 NAE=     9 NBE=     9 NFC=     2 NFV=     0
 NROrb=     48 NOA=     7 NOB=     7 NVA=    41 NVB=    41
 Leave Link  801 at Wed Aug 19 17:46:23 2020, MaxMem=    65536000 cpu:         0.3
 (Enter /opt/cluster/programs/g09/g09_d.01/g09/l906.exe)
 DoSCS=T DFT=T ScalE2(SS,OS)=  0.270000  0.270000
 Frozen-core derivative calculation, NFC=   2 NFV=   0.
 FulOut=F Deriv=T AODrv=T NAtomX=     6
   MMem=         975  MDisk=           7 MDiskD=           7
  W3Min=       22500 MinDsk=       94225 NBas6D=          50
 NBas2D=        1341    NTT=        1275    LW2=     2040000
    MDV=    65496692 MDiskM=       17637 NBas2p=        1341
 Fully direct method using O(ONN) memory.
 IMap=   1   2   3   4   5   6   7   8   9
 JobTyp=1 Pass  1:  I=   3 to   9 NPSUse=  8 ParTrn=T ParDer=T DoDerP=T.
 Spin components of T(2) and E(2):
     alpha-alpha T2 =       0.1659692962D-01 E2=     -0.1282972220D-01
     alpha-beta  T2 =       0.1085299127D+00 E2=     -0.8357675719D-01
     beta-beta   T2 =       0.1659692962D-01 E2=     -0.1282972220D-01
 The integrals were generated   1 times.
 E2(B2PLYPD3) =    -0.1092362016D+00 E(B2PLYPD3) =    -0.11560396615760D+03
 Leave Link  906 at Wed Aug 19 17:46:23 2020, MaxMem=    65536000 cpu:         1.3
 (Enter /opt/cluster/programs/g09/g09_d.01/g09/l1002.exe)
 Minotr:  Closed shell wavefunction.
          Computing MP2/KS-MP2 derivatives.
          Using Z-Vector for PSCF gradient.
          Skipping F1 and S1 gradient terms here.
          IDoAtm=111111
          Frozen-core window.
          Direct CPHF calculation.
          Differentiating once with respect to electric field.
                with respect to dipole field.
          Differentiating once with respect to nuclear coordinates.
          Requested convergence is 1.0D-10 RMS, and 1.0D-09 maximum.
          NewPWx=F KeepS1=T KeepF1=T KeepIn=T MapXYZ=F SortEE=F KeepMc=T.
          MDV=      65535888 using IRadAn=       0.
 Using stored XC quadrature information.
 Keep R1 ints in memory in canonical form, NReq=1683393.
 FoFCou: FMM=F IPFlag=           0 FMFlag=           0 FMFlg1=           0
         NFxFlg=           0 DoJE=F BraDBF=F KetDBF=F FulRan=T
         wScrn=  0.000000 ICntrl=     600 IOpCl=  0 I1Cent=           0 NGrid=           0
         NMat0=    1 NMatS0=   1275 NMatT0=    0 NMatD0=    1 NMtDS0=    0 NMtDT0=    0
 Symmetry not used in FoFCou.
          Solving linear equations separately, MaxMat=       0.
          There are     1 degrees of freedom in the 1st order CPHF.  IDoFFX=0 NUNeed=     1.
 LinEq1:  Iter=  0 NonCon=     1 RMS=2.17D-03 Max=1.63D-02 NDo=     1
 AX will form     1 AO Fock derivatives at one time.
 LinEq1:  Iter=  1 NonCon=     1 RMS=8.77D-04 Max=4.62D-03 NDo=     1
 LinEq1:  Iter=  2 NonCon=     1 RMS=2.00D-04 Max=1.60D-03 NDo=     1
 LinEq1:  Iter=  3 NonCon=     1 RMS=1.15D-04 Max=8.54D-04 NDo=     1
 LinEq1:  Iter=  4 NonCon=     1 RMS=1.52D-05 Max=9.94D-05 NDo=     1
 LinEq1:  Iter=  5 NonCon=     1 RMS=2.92D-06 Max=1.81D-05 NDo=     1
 LinEq1:  Iter=  6 NonCon=     1 RMS=5.17D-07 Max=3.91D-06 NDo=     1
 LinEq1:  Iter=  7 NonCon=     1 RMS=7.82D-08 Max=4.20D-07 NDo=     1
 LinEq1:  Iter=  8 NonCon=     1 RMS=1.26D-08 Max=6.80D-08 NDo=     1
 LinEq1:  Iter=  9 NonCon=     1 RMS=1.60D-09 Max=8.65D-09 NDo=     1
 LinEq1:  Iter= 10 NonCon=     1 RMS=2.81D-10 Max=2.30D-09 NDo=     1
 LinEq1:  Iter= 11 NonCon=     0 RMS=3.24D-11 Max=1.95D-10 NDo=     1
 Linear equations converged to 1.000D-10 1.000D-09 after    11 iterations.
 End of Minotr F.D. properties file   721 does not exist.
 End of Minotr F.D. properties file   722 does not exist.
 End of Minotr F.D. properties file   788 does not exist.
 Leave Link 1002 at Wed Aug 19 17:46:24 2020, MaxMem=    65536000 cpu:         5.1
 (Enter /opt/cluster/programs/g09/g09_d.01/g09/l701.exe)
 Compute integral first derivatives.
 ... and contract with generalized density number  2.
 R6Disp: Adding Grimme-D3(BJ) dispersion energy 1st derivatives to the gradient.
 Leave Link  701 at Wed Aug 19 17:46:24 2020, MaxMem=    65536000 cpu:         0.8
 (Enter /opt/cluster/programs/g09/g09_d.01/g09/l702.exe)
 L702 exits ... SP integral derivatives will be done elsewhere.
 Leave Link  702 at Wed Aug 19 17:46:24 2020, MaxMem=    65536000 cpu:         0.1
 (Enter /opt/cluster/programs/g09/g09_d.01/g09/l703.exe)
 Compute integral first derivatives, UseDBF=F ICtDFT=           0.
 Integral derivatives from FoFJK, PRISM(SPDF).
 Calling FoFJK, ICntrl=  10002127 FMM=F ISym2X=0 I1Cent= 0 IOpClX= 0 NMat=1 NMatS=1 NMatT=0.
 FoFJK:  IHMeth= 1 ICntrl=10002127 DoSepK=F KAlg= 0 I1Cent=   0 FoldK=F
 IRaf=         0 NMat=   1 IRICut=       1 DoRegI=T DoRafI=F ISym2E= 0.
 FoFCou: FMM=F IPFlag=           0 FMFlag=      100000 FMFlg1=         800
         NFxFlg=           0 DoJE=F BraDBF=F KetDBF=F FulRan=T
         wScrn=  0.000000 ICntrl=10002127 IOpCl=  0 I1Cent=           0 NGrid=           0
         NMat0=    1 NMatS0=      1 NMatT0=    0 NMatD0=    1 NMtDS0=    0 NMtDT0=    0
 Symmetry not used in FoFCou.
 Leave Link  703 at Wed Aug 19 17:46:24 2020, MaxMem=    65536000 cpu:         1.9
 (Enter /opt/cluster/programs/g09/g09_d.01/g09/l716.exe)
 Dipole        =-3.12071011D-01-5.98490253D-01-4.50607041D-08
 ***** Axes restored to original set *****
 -------------------------------------------------------------------
 Center     Atomic                   Forces (Hartrees/Bohr)
 Number     Number              X              Y              Z
 -------------------------------------------------------------------
      1        6           0.001457190    0.000149362    0.000051497
      2        8          -0.001260676   -0.000117619    0.000057098
      3        1          -0.000103838   -0.000087106   -0.000079617
      4        1          -0.000116950    0.000045420   -0.000094783
      5        1           0.000088235    0.000005237   -0.000030437
      6        1          -0.000063960    0.000004706    0.000096243
 -------------------------------------------------------------------
 Cartesian Forces:  Max     0.001457190 RMS     0.000461056
 Leave Link  716 at Wed Aug 19 17:46:25 2020, MaxMem=    65536000 cpu:         0.1
 (Enter /opt/cluster/programs/g09/g09_d.01/g09/l103.exe)

[...]
                                                             IR Spectrum
 
     3                      3  3 3                                               111   1     1  11                                   
     8                      1  0 0                                               555   4     1  10                       3           
     7                      7  9 3                                               531   0     9  07                       4           
     1                      6  5 9                                               159   0     4  42                       1           
 
     X                      X  X X                                               XXX   X     X  XX                       X           
     X                      X  X X                                                     X         X                       X           
     X                      X  X X                                                     X         X                       X           
                            X  X X                                                     X         X                       X           
                            X  X X                                                               X                       X           
                               X X                                                               X                       X           
                               X X                                                               X                       X           
                               X X                                                               X                       X           
                               X X                                                               X                       X           
                               X                                                                 X                       X           
                               X                                                                 X                       X           
                               X                                                                 X                       X           
                                                                                                 X                       X           
                                                                                                 X                       X           
                                                                                                 X                       X           
                                                                                                 X                       X           
                                                                                                 X                       X           
                                                                                                 X                       X           
                                                                                                 X                       X           
                                                                                                                         X           
 
 ***** Axes restored to original set *****
 -------------------------------------------------------------------
 Center     Atomic                   Forces (Hartrees/Bohr)
 Number     Number              X              Y              Z
 -------------------------------------------------------------------
      1        6           0.000432711    0.000049370    0.000059025
      2        8          -0.000206171   -0.000027372   -0.000061879
      3        1          -0.000112975   -0.000019710    0.000000578
      4        1          -0.000114639   -0.000002781   -0.000001354
      5        1          -0.000093730   -0.000010283   -0.000009106
      6        1           0.000094803    0.000010776    0.000012736
 -------------------------------------------------------------------
 Cartesian Forces:  Max     0.000432711 RMS     0.000125784
 Force constants in Cartesian coordinates: 
                1             2             3             4             5 
      1  0.495815D+00
      2 -0.895371D-02  0.578472D+00
      3 -0.679247D-02  0.496612D-02  0.627907D+00
      4 -0.248851D+00 -0.204400D-01 -0.190661D-01  0.409879D+00
      5 -0.146606D-01 -0.656665D-01 -0.554310D-02  0.203270D-01  0.542880D-01
      6  0.313129D-01 -0.579651D-03 -0.955309D-01 -0.134563D+00  0.471509D-01
      7 -0.687005D-01 -0.559129D-01 -0.201654D-01 -0.296234D-01 -0.345087D-01
      8 -0.581749D-01 -0.262063D+00 -0.781928D-01 -0.842164D-02  0.593843D-02
      9 -0.227658D-01 -0.775055D-01 -0.869756D-01 -0.219354D-03  0.248603D-02
     10 -0.958524D-01  0.765587D-01 -0.535948D-01 -0.361669D-01  0.229409D-01
     11  0.781945D-01 -0.193573D+00  0.989994D-01  0.378675D-04  0.110876D-01
     12 -0.564539D-01  0.977742D-01 -0.128314D+00 -0.683026D-03 -0.324867D-02
     13 -0.621966D-01  0.524964D-02  0.524023D-01 -0.215830D-01  0.235098D-02
     14  0.667331D-02 -0.566317D-01 -0.246556D-01 -0.180752D-02  0.230286D-02
     15  0.648118D-01 -0.234329D-01 -0.314374D+00  0.450783D-02  0.515244D-03
     16 -0.202143D-01  0.349826D-02  0.472165D-01 -0.736548D-01  0.355043D-02
     17 -0.307851D-02 -0.537986D-03  0.442589D-02  0.103043D-01 -0.795042D-02
     18 -0.101126D-01 -0.122231D-02 -0.271228D-02  0.150024D+00 -0.413604D-01
                6             7             8             9            10 
      6  0.573451D+00
      7 -0.113492D-01  0.857111D-01
      8  0.175634D-02  0.717521D-01  0.278639D+00
      9  0.549311D-02  0.269358D-01  0.862532D-01  0.825454D-01
     10 -0.173076D-01  0.692382D-02 -0.496391D-02  0.427914D-02  0.118087D+00
     11 -0.525343D-02  0.117924D-01 -0.215123D-01  0.175926D-01 -0.887072D-01
     12  0.688740D-02  0.506416D-02 -0.988698D-02  0.728081D-02  0.654079D-01
     13  0.407561D-01  0.401854D-02  0.409794D-03 -0.819053D-02  0.550171D-02
     14  0.408653D-02  0.705581D-02 -0.132938D-02 -0.303524D-01 -0.585304D-02
     15  0.263184D-02  0.135087D-02  0.107042D-03 -0.889612D-02  0.305563D-02
     16  0.911510D-01  0.167040D-02 -0.601449D-03 -0.393178D-04  0.150693D-02
     17 -0.471607D-01 -0.178779D-03  0.327802D-03  0.152601D-02  0.245408D-04
     18 -0.492933D+00 -0.183625D-02 -0.368101D-04  0.552334D-03 -0.184027D-02
               11            12            13            14            15 
     11  0.200565D+00
     12 -0.108432D+00  0.128243D+00
     13 -0.219154D-02 -0.134177D-01  0.824127D-01
     14  0.330013D-02  0.252007D-01 -0.510616D-02  0.518492D-01
     15 -0.269568D-02 -0.150088D-01 -0.728222D-01  0.253594D-01  0.333028D+00
     16  0.873974D-03  0.825727D-04 -0.815331D-02 -0.962397D-03 -0.903999D-03
     17  0.132366D-03 -0.140681D-02 -0.712719D-03  0.508870D-03  0.146963D-03
     18 -0.210472D-03  0.911310D-03  0.127195D-02  0.361363D-03  0.261978D-02
               16            17            18 
     16  0.988450D-01
     17 -0.635882D-02  0.751936D-02
     18 -0.137507D+00  0.424686D-01  0.491562D+00
 FormGI is forming the generalized inverse of G from B-inverse, IUseBI=4.
 Force constants in internal coordinates: 
                1             2             3             4             5 
      1  0.365499D+00
      2  0.171017D-01  0.334664D+00
      3  0.171017D-01  0.398920D-02  0.334664D+00
      4  0.113154D-01  0.282036D-02  0.282035D-02  0.354834D+00
      5 -0.501977D-02 -0.331290D-03 -0.331275D-03 -0.180080D-02  0.538107D+00
      6  0.257978D-01 -0.200025D-02 -0.458685D-02 -0.459704D-02 -0.411459D-02
      7  0.257977D-01 -0.458685D-02 -0.200024D-02 -0.459704D-02 -0.411465D-02
      8  0.302108D-01 -0.452686D-02 -0.452686D-02  0.206360D-02  0.797310D-02
      9 -0.287745D-01  0.870417D-02  0.870417D-02 -0.476998D-02  0.141040D-02
     10 -0.282365D-01  0.813968D-02 -0.568702D-02  0.652215D-02 -0.429077D-03
     11 -0.282365D-01 -0.568703D-02  0.813967D-02  0.652214D-02 -0.429064D-03
     12  0.527640D-01  0.826768D-04  0.826578D-04  0.327958D-02  0.173199D-01
     13  0.655893D-03 -0.266587D-03  0.676838D-02 -0.667764D-02 -0.221187D-02
     14 -0.655952D-03 -0.676837D-02  0.266602D-03  0.667762D-02  0.221190D-02
     15  0.000000D+00  0.567020D-02 -0.567018D-02  0.000000D+00  0.000000D+00
                6             7             8             9            10 
      6  0.140445D+00
      7 -0.345574D-01  0.140445D+00
      8 -0.303285D-01 -0.303285D-01  0.141475D+00
      9 -0.419648D-01 -0.419648D-01 -0.109026D-02  0.768232D-01
     10 -0.366839D-01 -0.165522D-02 -0.399713D-01  0.465532D-02  0.744481D-01
     11 -0.165523D-02 -0.366839D-01 -0.399713D-01  0.465533D-02  0.388576D-02
     12 -0.600888D-02 -0.600898D-02  0.218269D-01  0.137835D-02 -0.555596D-02
     13  0.370226D-02  0.216446D-01 -0.239175D-01  0.188299D-01 -0.228954D-01
     14 -0.216446D-01 -0.370224D-02  0.239174D-01 -0.188299D-01  0.253991D-03
     15  0.192984D-01 -0.192984D-01  0.000000D+00  0.000000D+00  0.218744D-01
               11            12            13            14            15 
     11  0.744481D-01
     12 -0.555595D-02  0.187273D+00
     13 -0.253982D-03 -0.368189D-02  0.295993D-01
     14  0.228954D-01  0.368184D-02 -0.147493D-01  0.295992D-01
     15 -0.218744D-01  0.000000D+00 -0.115115D-01 -0.115115D-01  0.261935D-01
 Leave Link  716 at Wed Aug 19 17:46:38 2020, MaxMem=    65536000 cpu:         0.3
 (Enter /opt/cluster/programs/g09/g09_d.01/g09/l103.exe)

 GradGradGradGradGradGradGradGradGradGradGradGradGradGradGradGradGradGrad
 Berny optimization.
 Red2BG is reusing G-inverse.
 Internal  Forces:  Max     0.000170059 RMS     0.000084712
 Search for a local minimum.
 Step number   1 out of a maximum of    2
 All quantities printed in internal units (Hartrees-Bohrs-Radians)
 Second derivative matrix not updated -- analytic derivatives used.
 The second derivative matrix:
                          R1        R2        R3        R4        R5
           R1           0.36550
           R2           0.01710   0.33466
           R3           0.01710   0.00399   0.33466
           R4           0.01132   0.00282   0.00282   0.35483
           R5          -0.00502  -0.00033  -0.00033  -0.00180   0.53811
           A1           0.02580  -0.00200  -0.00459  -0.00460  -0.00411
           A2           0.02580  -0.00459  -0.00200  -0.00460  -0.00411
           A3           0.03021  -0.00453  -0.00453   0.00206   0.00797
           A4          -0.02877   0.00870   0.00870  -0.00477   0.00141
           A5          -0.02824   0.00814  -0.00569   0.00652  -0.00043
           A6          -0.02824  -0.00569   0.00814   0.00652  -0.00043
           A7           0.05276   0.00008   0.00008   0.00328   0.01732
           D1           0.00066  -0.00027   0.00677  -0.00668  -0.00221
           D2          -0.00066  -0.00677   0.00027   0.00668   0.00221
           D3           0.00000   0.00567  -0.00567   0.00000   0.00000
                          A1        A2        A3        A4        A5
           A1           0.14045
           A2          -0.03456   0.14045
           A3          -0.03033  -0.03033   0.14147
           A4          -0.04196  -0.04196  -0.00109   0.07682
           A5          -0.03668  -0.00166  -0.03997   0.00466   0.07445
           A6          -0.00166  -0.03668  -0.03997   0.00466   0.00389
           A7          -0.00601  -0.00601   0.02183   0.00138  -0.00556
           D1           0.00370   0.02164  -0.02392   0.01883  -0.02290
           D2          -0.02164  -0.00370   0.02392  -0.01883   0.00025
           D3           0.01930  -0.01930   0.00000   0.00000   0.02187
                          A6        A7        D1        D2        D3
           A6           0.07445
           A7          -0.00556   0.18727
           D1          -0.00025  -0.00368   0.02960
           D2           0.02290   0.00368  -0.01475   0.02960
           D3          -0.02187   0.00000  -0.01151  -0.01151   0.02619
 ITU=  0
     Eigenvalues ---    0.00327   0.09334   0.09336   0.13638   0.15986
     Eigenvalues ---    0.18866   0.20537   0.33199   0.33549   0.35396
     Eigenvalues ---    0.40745   0.53940
 Angle between quadratic step and forces=   7.01 degrees.
 Linear search not attempted -- first point.
 Iteration  1 RMS(Cart)=  0.00062433 RMS(Int)=  0.00000041
 Iteration  2 RMS(Cart)=  0.00000033 RMS(Int)=  0.00000017
 ITry= 1 IFail=0 DXMaxC= 1.56D-03 DCOld= 1.00D+10 DXMaxT= 3.00D-01 DXLimC= 3.00D+00 Rises=F
 Variable       Old X    -DE/DX   Delta X   Delta X   Delta X     New X
                                 (Linear)    (Quad)   (Total)
    R1        2.68126  -0.00011   0.00000  -0.00083  -0.00083   2.68043
    R2        2.07167   0.00005   0.00000   0.00025   0.00025   2.07191
    R3        2.07167   0.00005   0.00000   0.00025   0.00025   2.07191
    R4        2.05831   0.00002   0.00000   0.00009   0.00009   2.05841
    R5        1.81963   0.00002   0.00000  -0.00001  -0.00001   1.81963
    A1        1.96465   0.00010   0.00000   0.00081   0.00081   1.96547
    A2        1.96465   0.00010   0.00000   0.00081   0.00081   1.96547
    A3        1.86272   0.00009   0.00000   0.00058   0.00058   1.86330
    A4        1.89304  -0.00011   0.00000  -0.00086  -0.00086   1.89218
    A5        1.88788  -0.00010   0.00000  -0.00073  -0.00073   1.88716
    A6        1.88788  -0.00010   0.00000  -0.00073  -0.00073   1.88716
    A7        1.87696   0.00017   0.00000   0.00109   0.00109   1.87805
    D1        1.07305   0.00001   0.00000   0.00005   0.00005   1.07310
    D2       -1.07304  -0.00001   0.00000  -0.00006  -0.00006  -1.07310
    D3       -3.14159   0.00000   0.00000   0.00000   0.00000  -3.14159
         Item               Value     Threshold  Converged?
 Maximum Force            0.000170     0.000450     YES
 RMS     Force            0.000085     0.000300     YES
 Maximum Displacement     0.001565     0.001800     YES
 RMS     Displacement     0.000624     0.001200     YES
 Predicted change in Energy=-3.807586D-07
 Optimization completed.
    -- Stationary point found.
                           ----------------------------
                           !   Optimized Parameters   !
                           ! (Angstroms and Degrees)  !
 --------------------------                            --------------------------
 ! Name  Definition              Value          Derivative Info.                !
 --------------------------------------------------------------------------------
 ! R1    R(1,2)                  1.4189         -DE/DX =   -0.0001              !
 ! R2    R(1,3)                  1.0963         -DE/DX =    0.0001              !
 ! R3    R(1,4)                  1.0963         -DE/DX =    0.0001              !
 ! R4    R(1,5)                  1.0892         -DE/DX =    0.0                 !
 ! R5    R(2,6)                  0.9629         -DE/DX =    0.0                 !
 ! A1    A(2,1,3)              112.5664         -DE/DX =    0.0001              !
 ! A2    A(2,1,4)              112.5664         -DE/DX =    0.0001              !
 ! A3    A(2,1,5)              106.726          -DE/DX =    0.0001              !
 ! A4    A(3,1,4)              108.4629         -DE/DX =   -0.0001              !
 ! A5    A(3,1,5)              108.1676         -DE/DX =   -0.0001              !
 ! A6    A(4,1,5)              108.1676         -DE/DX =   -0.0001              !
 ! A7    A(1,2,6)              107.5416         -DE/DX =    0.0002              !
 ! D1    D(3,1,2,6)             61.4813         -DE/DX =    0.0                 !
 ! D2    D(4,1,2,6)            -61.4808         -DE/DX =    0.0                 !
 ! D3    D(5,1,2,6)           -179.9997         -DE/DX =    0.0                 !
 --------------------------------------------------------------------------------
 GradGradGradGradGradGradGradGradGradGradGradGradGradGradGradGradGradGrad

 Leave Link  103 at Wed Aug 19 17:46:38 2020, MaxMem=    65536000 cpu:         0.1
 (Enter /opt/cluster/programs/g09/g09_d.01/g09/l9999.exe)
 1\1\GINC-NODE32\Freq\RB2PLYPD3-FC\6-31G(d,p)\C1H4O1\BOITTIER\19-Aug-20
 20\0\\#P Geom=AllCheck Guess=TCheck SCRF=Check GenChk RB2PLYPD3(FC)/6-
 31G(d,p) Freq\\methanol_opt\\0,1\C,-5.1731305846,-1.2550130789,0.91312
 61028\O,-3.7613314042,-1.1211498773,0.8675271616\H,-5.5152713967,-2.23
 02764573,0.5475754161\H,-5.6885741218,-0.4712679336,0.3457746141\H,-5.
 4630559644,-1.1635839881,1.9590556069\H,-3.4919065302,-1.2002686448,-0
 .0535289038\\Version=ES64L-G09RevD.01\State=1-A\HF=-115.4947562\MP2=-1
 15.6039688\RMSD=1.538e-10\RMSF=1.258e-04\ZeroPoint=0.0521643\Thermal=0
 .0554579\Dipole=-0.3777558,-0.1001658,-0.5487165\DipoleDeriv=0.827658,
 0.037704,-0.0200566,0.0347033,0.4232089,-0.0159427,-0.0462088,-0.01851
 93,0.2998743,-0.9064169,-0.0309013,0.0241635,-0.0255711,-0.5627861,0.0
 381221,0.0706207,0.0426988,-0.2530898,-0.0806403,-0.0641346,-0.0030131
 ,-0.0930906,-0.1762629,-0.0671843,-0.038592,-0.076371,0.010275,-0.1123
 442,0.0687813,-0.0349361,0.0888081,-0.1054299,0.0939346,-0.0771894,0.0
 95453,-0.0288536,0.0057404,-0.0010466,0.0383551,0.0022664,0.059157,-0.
 018229,0.0672328,-0.0153838,-0.1308068,0.266003,-0.0104028,-0.0045127,
 -0.0071161,0.362113,-0.0307006,0.0241367,-0.0278777,0.102601\Polar=16.
 92544,0.1534238,14.1201617,-1.0985785,0.1395241,16.24874\PG=C01 [X(C1H
 4O1)]\NImag=0\\0.49581462,-0.00895371,0.57847237,-0.00679247,0.0049661
 2,0.62790720,-0.24885086,-0.02044004,-0.01906614,0.40987890,-0.0146606
 3,-0.06566650,-0.00554310,0.02032704,0.05428799,0.03131291,-0.00057965
 ,-0.09553089,-0.13456331,0.04715090,0.57345121,-0.06870047,-0.05591285
 ,-0.02016543,-0.02962337,-0.03450874,-0.01134916,0.08571108,-0.0581749
 4,-0.26206323,-0.07819276,-0.00842164,0.00593843,0.00175634,0.07175214
 ,0.27863865,-0.02276576,-0.07750547,-0.08697557,-0.00021935,0.00248603
 ,0.00549311,0.02693582,0.08625317,0.08254544,-0.09585237,0.07655869,-0
 .05359477,-0.03616689,0.02294093,-0.01730761,0.00692382,-0.00496391,0.
 00427914,0.11808679,0.07819448,-0.19357296,0.09899942,0.00003787,0.011
 08762,-0.00525343,0.01179242,-0.02151228,0.01759264,-0.08870720,0.2005
 6513,-0.05645390,0.09777424,-0.12831406,-0.00068303,-0.00324867,0.0068
 8740,0.00506416,-0.00988698,0.00728081,0.06540787,-0.10843248,0.128243
 31,-0.06219663,0.00524964,0.05240227,-0.02158303,0.00235098,0.04075614
 ,0.00401854,0.00040979,-0.00819053,0.00550171,-0.00219154,-0.01341768,
 0.08241273,0.00667331,-0.05663170,-0.02465558,-0.00180752,0.00230286,0
 .00408653,0.00705581,-0.00132938,-0.03035238,-0.00585304,0.00330013,0.
 02520069,-0.00510616,0.05184922,0.06481182,-0.02343294,-0.31437439,0.0
 0450783,0.00051524,0.00263184,0.00135087,0.00010704,-0.00889612,0.0030
 5563,-0.00269568,-0.01500877,-0.07282215,0.02535937,0.33302767,-0.0202
 1430,0.00349826,0.04721654,-0.07365476,0.00355043,0.09115104,0.0016704
 0,-0.00060145,-0.00003932,0.00150693,0.00087397,0.00008257,-0.00815331
 ,-0.00096240,-0.00090400,0.09884504,-0.00307851,-0.00053799,0.00442589
 ,0.01030429,-0.00795042,-0.04716069,-0.00017878,0.00032780,0.00152601,
 0.00002454,0.00013237,-0.00140681,-0.00071272,0.00050887,0.00014696,-0
 .00635882,0.00751936,-0.01011259,-0.00122231,-0.00271228,0.15002400,-0
 .04136040,-0.49293268,-0.00183625,-0.00003681,0.00055233,-0.00184027,-
 0.00021047,0.00091131,0.00127195,0.00036136,0.00261978,-0.13750683,0.0
 4246863,0.49156153\\-0.00043271,-0.00004937,-0.00005903,0.00020617,0.0
 0002737,0.00006188,0.00011297,0.00001971,-0.00000058,0.00011464,0.0000
 0278,0.00000135,0.00009373,0.00001028,0.00000911,-0.00009480,-0.000010
 78,-0.00001274\\\@


 We find comfort among those who agree with us -- growth among those who don't.
 -- Frank A. Clark
 Job cpu time:       0 days  0 hours  1 minutes  3.3 seconds.
 File lengths (MBytes):  RWF=     57 Int=      0 D2E=      0 Chk=      2 Scr=      1
 Normal termination of Gaussian 09 at Wed Aug 19 17:46:38 2020.
