 Entering Gaussian System, Link 0=/opt/cluster/programs/g09/g09_d.01/g09//g09
 Input=/home/boittier/MDCM/butadiene/butadiene_opt_freq.com
 Output=/scratch/boittier/butadiene_opt_freq/butadiene_opt_freq.out
 Initial command:
 /opt/cluster/programs/g09/g09_d.01/g09/l1.exe "/scratch/boittier/butadiene_opt_freq/Gau-208003.inp" -scrdir="/scratch/boittier/butadiene_opt_freq/"
 Entering Link 1 = /opt/cluster/programs/g09/g09_d.01/g09/l1.exe PID=    208004.
  
 Copyright (c) 1988,1990,1992,1993,1995,1998,2003,2009,2013,
            Gaussian, Inc.  All Rights Reserved.
  
 This is part of the Gaussian(R) 09 program.  It is based on
 the Gaussian(R) 03 system (copyright 2003, Gaussian, Inc.),
 the Gaussian(R) 98 system (copyright 1998, Gaussian, Inc.),
 the Gaussian(R) 94 system (copyright 1995, Gaussian, Inc.),
 the Gaussian 92(TM) system (copyright 1992, Gaussian, Inc.),
 the Gaussian 90(TM) system (copyright 1990, Gaussian, Inc.),
 the Gaussian 88(TM) system (copyright 1988, Gaussian, Inc.),
 the Gaussian 86(TM) system (copyright 1986, Carnegie Mellon
 University), and the Gaussian 82(TM) system (copyright 1983,
 Carnegie Mellon University). Gaussian is a federally registered
 trademark of Gaussian, Inc.
  
 This software contains proprietary and confidential information,
 including trade secrets, belonging to Gaussian, Inc.
  
 This software is provided under written license and may be
 used, copied, transmitted, or stored only in accord with that
 written license.
  
 The following legend is applicable only to US Government
 contracts under FAR:
  
                    RESTRICTED RIGHTS LEGEND
  
 Use, reproduction and disclosure by the US Government is
 subject to restrictions as set forth in subparagraphs (a)
 and (c) of the Commercial Computer Software - Restricted
 Rights clause in FAR 52.227-19.
  
 Gaussian, Inc.
 340 Quinnipiac St., Bldg. 40, Wallingford CT 06492
  
  
 ---------------------------------------------------------------
 Warning -- This program may not be used in any manner that
 competes with the business of Gaussian, Inc. or will provide
 assistance to any competitor of Gaussian, Inc.  The licensee
 of this program is prohibited from giving any competitor of
 Gaussian, Inc. access to this program.  By using this program,
 the user acknowledges that Gaussian, Inc. is engaged in the
 business of creating and licensing software in the field of
 computational chemistry and represents and warrants to the
 licensee that it is not a competitor of Gaussian, Inc. and that
 it will not use this program in any manner prohibited above.
 ---------------------------------------------------------------
  

 Cite this work as:
 Gaussian 09, Revision D.01,
 M. J. Frisch, G. W. Trucks, H. B. Schlegel, G. E. Scuseria, 
 M. A. Robb, J. R. Cheeseman, G. Scalmani, V. Barone, B. Mennucci, 
 G. A. Petersson, H. Nakatsuji, M. Caricato, X. Li, H. P. Hratchian, 
 A. F. Izmaylov, J. Bloino, G. Zheng, J. L. Sonnenberg, M. Hada, 
 M. Ehara, K. Toyota, R. Fukuda, J. Hasegawa, M. Ishida, T. Nakajima, 
 Y. Honda, O. Kitao, H. Nakai, T. Vreven, J. A. Montgomery, Jr., 
 J. E. Peralta, F. Ogliaro, M. Bearpark, J. J. Heyd, E. Brothers, 
 K. N. Kudin, V. N. Staroverov, T. Keith, R. Kobayashi, J. Normand, 
 K. Raghavachari, A. Rendell, J. C. Burant, S. S. Iyengar, J. Tomasi, 
 M. Cossi, N. Rega, J. M. Millam, M. Klene, J. E. Knox, J. B. Cross, 
 V. Bakken, C. Adamo, J. Jaramillo, R. Gomperts, R. E. Stratmann, 
 O. Yazyev, A. J. Austin, R. Cammi, C. Pomelli, J. W. Ochterski, 
 R. L. Martin, K. Morokuma, V. G. Zakrzewski, G. A. Voth, 
 P. Salvador, J. J. Dannenberg, S. Dapprich, A. D. Daniels, 
 O. Farkas, J. B. Foresman, J. V. Ortiz, J. Cioslowski, 
 and D. J. Fox, Gaussian, Inc., Wallingford CT, 2013.
 
 ******************************************
 Gaussian 09:  ES64L-G09RevD.01 24-Apr-2013
                19-Aug-2020 
 ******************************************
 %chk=butadiene_opt.chk
 %nproc=8
 Will use up to    8 processors via shared memory.
 %mem=500MB
 ------------------------------------
 #p B2PLYPD3/6-31G** opt freq=NoRaman
 ------------------------------------
 1/18=20,19=15,38=1/1,3;
 2/9=110,12=2,17=6,18=5,40=1/2;
 3/5=1,6=6,7=101,11=9,16=1,25=1,30=1,71=1,74=-60/1,2,3;
 4//1;
 5/5=2,38=5/2;
 8/6=4,10=2/1;
 9/15=2,16=-3/6;
 10/5=1/2;
 6/7=2,8=2,9=2,10=2/1;
 7/12=2/1,2,3,16;
 1/18=20,19=15/3(2);
 2/9=110/2;
 99//99;
 2/9=110/2;
 3/5=1,6=6,7=101,11=9,16=1,25=1,30=1,71=1,74=-60/1,2,3;
 4/5=5,16=3,69=1/1;
 5/5=2,38=5/2;
 8/6=4,10=2/1;
 9/15=2,16=-3/6;
 10/5=1/2;
 7/12=2/1,2,3,16;
 1/18=20,19=15/3(-8);
 2/9=110/2;
 6/7=2,8=2,9=2,10=2/1;
 99//99;
 Leave Link    1 at Wed Aug 19 17:45:48 2020, MaxMem=    65536000 cpu:         0.6
 (Enter /opt/cluster/programs/g09/g09_d.01/g09/l101.exe)
 -------------
 butadiene_opt
 -------------
 Symbolic Z-matrix:
 Charge =  0 Multiplicity = 1
 C                    -3.82991   0.22932   0.01807 
 C                    -2.71215  -0.50542   0.03556 
 C                    -1.3925    0.07484   0.01401 
 C                    -0.27408  -0.65924   0.03149 
 H                    -4.80373  -0.24993   0.03546 
 H                    -3.80895   1.31395  -0.01363 
 H                    -2.79198  -1.59006   0.06747 
 H                    -1.31291   1.15953  -0.01789 
 H                    -0.29448  -1.74388   0.06318 
 H                     0.69942  -0.17937   0.01408 
 
 NAtoms=     10 NQM=       10 NQMF=       0 NMMI=      0 NMMIF=      0
                NMic=       0 NMicF=      0.
                    Isotopes and Nuclear Properties:
 (Nuclear quadrupole moments (NQMom) in fm**2, nuclear magnetic moments (NMagM)
  in nuclear magnetons)

  Atom         1           2           3           4           5           6           7           8           9          10
 IAtWgt=          12          12          12          12           1           1           1           1           1           1
 AtmWgt=  12.0000000  12.0000000  12.0000000  12.0000000   1.0078250   1.0078250   1.0078250   1.0078250   1.0078250   1.0078250
 NucSpn=           0           0           0           0           1           1           1           1           1           1
 AtZEff=   0.0000000   0.0000000   0.0000000   0.0000000   0.0000000   0.0000000   0.0000000   0.0000000   0.0000000   0.0000000
 NQMom=    0.0000000   0.0000000   0.0000000   0.0000000   0.0000000   0.0000000   0.0000000   0.0000000   0.0000000   0.0000000
 NMagM=    0.0000000   0.0000000   0.0000000   0.0000000   2.7928460   2.7928460   2.7928460   2.7928460   2.7928460   2.7928460
 AtZNuc=   6.0000000   6.0000000   6.0000000   6.0000000   1.0000000   1.0000000   1.0000000   1.0000000   1.0000000   1.0000000
 Leave Link  101 at Wed Aug 19 17:45:48 2020, MaxMem=    65536000 cpu:         0.6
 (Enter /opt/cluster/programs/g09/g09_d.01/g09/l103.exe)

 GradGradGradGradGradGradGradGradGradGradGradGradGradGradGradGradGradGrad
 Berny optimization.
 Initialization pass.
                           ----------------------------
                           !    Initial Parameters    !
                           ! (Angstroms and Degrees)  !
 --------------------------                            --------------------------
 ! Name  Definition              Value          Derivative Info.                !
 --------------------------------------------------------------------------------
 ! R1    R(1,2)                  1.3377         estimate D2E/DX2                !
 ! R2    R(1,5)                  1.0855         estimate D2E/DX2                !
 ! R3    R(1,6)                  1.0853         estimate D2E/DX2                !
 ! R4    R(2,3)                  1.4417         estimate D2E/DX2                !
 ! R5    R(2,7)                  1.088          estimate D2E/DX2                !
 ! R6    R(3,4)                  1.3379         estimate D2E/DX2                !
 ! R7    R(3,8)                  1.0881         estimate D2E/DX2                !
 ! R8    R(4,9)                  1.0853         estimate D2E/DX2                !
 ! R9    R(4,10)                 1.0855         estimate D2E/DX2                !
 ! A1    A(2,1,5)              120.4573         estimate D2E/DX2                !
 ! A2    A(2,1,6)              122.2185         estimate D2E/DX2                !
 ! A3    A(5,1,6)              117.3242         estimate D2E/DX2                !
 ! A4    A(1,2,3)              122.9257         estimate D2E/DX2                !
 ! A5    A(1,2,7)              119.1175         estimate D2E/DX2                !
 ! A6    A(3,2,7)              117.9568         estimate D2E/DX2                !
 ! A7    A(2,3,4)              122.9648         estimate D2E/DX2                !
 ! A8    A(2,3,8)              117.944          estimate D2E/DX2                !
 ! A9    A(4,3,8)              119.0912         estimate D2E/DX2                !
 ! A10   A(3,4,9)              122.2089         estimate D2E/DX2                !
 ! A11   A(3,4,10)             120.4596         estimate D2E/DX2                !
 ! A12   A(9,4,10)             117.3315         estimate D2E/DX2                !
 ! D1    D(5,1,2,3)            180.0            estimate D2E/DX2                !
 ! D2    D(5,1,2,7)             -0.0009         estimate D2E/DX2                !
 ! D3    D(6,1,2,3)              0.0007         estimate D2E/DX2                !
 ! D4    D(6,1,2,7)            179.9998         estimate D2E/DX2                !
 ! D5    D(1,2,3,4)            179.9994         estimate D2E/DX2                !
 ! D6    D(1,2,3,8)             -0.0002         estimate D2E/DX2                !
 ! D7    D(7,2,3,4)              0.0002         estimate D2E/DX2                !
 ! D8    D(7,2,3,8)           -179.9994         estimate D2E/DX2                !
 ! D9    D(2,3,4,9)              0.0005         estimate D2E/DX2                !
 ! D10   D(2,3,4,10)           179.9999         estimate D2E/DX2                !
 ! D11   D(8,3,4,9)           -179.9999         estimate D2E/DX2                !
 ! D12   D(8,3,4,10)            -0.0005         estimate D2E/DX2                !
 --------------------------------------------------------------------------------
 Trust Radius=3.00D-01 FncErr=1.00D-07 GrdErr=1.00D-07
 Number of steps in this run=     43 maximum allowed number of steps=    100.
 GradGradGradGradGradGradGradGradGradGradGradGradGradGradGradGradGradGrad

 Leave Link  103 at Wed Aug 19 17:45:49 2020, MaxMem=    65536000 cpu:         0.1
 (Enter /opt/cluster/programs/g09/g09_d.01/g09/l202.exe)
                          Input orientation:                          
 ---------------------------------------------------------------------
 Center     Atomic      Atomic             Coordinates (Angstroms)
 Number     Number       Type             X           Y           Z
 ---------------------------------------------------------------------
      1          6           0       -3.829910    0.229320    0.018070
      2          6           0       -2.712150   -0.505420    0.035560
      3          6           0       -1.392500    0.074840    0.014010
      4          6           0       -0.274080   -0.659240    0.031490
      5          1           0       -4.803730   -0.249930    0.035460
      6          1           0       -3.808950    1.313950   -0.013630
      7          1           0       -2.791980   -1.590060    0.067470
      8          1           0       -1.312910    1.159530   -0.017890
      9          1           0       -0.294480   -1.743880    0.063180
     10          1           0        0.699420   -0.179370    0.014080
 ---------------------------------------------------------------------
                    Distance matrix (angstroms):
                    1          2          3          4          5
     1  C    0.000000
     2  C    1.337735   0.000000
     3  C    2.442304   1.441750   0.000000
     4  C    3.665194   2.442921   1.337925   0.000000
     5  H    1.085499   2.107126   3.426722   4.548107   0.000000
     6  H    1.085296   2.124970   2.715767   4.048558   1.854108
     7  H    2.095205   1.088042   2.175614   2.684686   2.417460
     8  H    2.683631   2.175497   1.088074   2.095121   3.765003
     9  H    4.049052   2.716556   2.125043   1.085295   4.750367
    10  H    4.547733   3.427182   2.107309   1.085486   5.503644
                    6          7          8          9         10
     6  H    0.000000
     7  H    3.077999   0.000000
     8  H    2.500816   3.123328   0.000000
     9  H    4.659155   2.502236   3.077915   0.000000
    10  H    4.749334   3.766002   2.417260   1.854168   0.000000
 Stoichiometry    C4H6
 Framework group  C1[X(C4H6)]
 Deg. of freedom    24
 Full point group                 C1      NOp   1
 Largest Abelian subgroup         C1      NOp   1
 Largest concise Abelian subgroup C1      NOp   1
                         Standard orientation:                         
 ---------------------------------------------------------------------
 Center     Atomic      Atomic             Coordinates (Angstroms)
 Number     Number       Type             X           Y           Z
 ---------------------------------------------------------------------
      1          6           0        1.829017   -0.112602    0.000003
      2          6           0        0.595921    0.406061   -0.000004
      3          6           0       -0.595647   -0.405608   -0.000002
      4          6           0       -1.829271    0.112286    0.000003
      5          1           0        2.699002    0.536578    0.000001
      6          1           0        2.006385   -1.183306   -0.000001
      7          1           0        0.476432    1.487522    0.000003
      8          1           0       -0.475913   -1.487073    0.000001
      9          1           0       -2.007192    1.182898   -0.000002
     10          1           0       -2.698829   -0.537445    0.000001
 ---------------------------------------------------------------------
 Rotational constants (GHZ):     41.7123569      4.5092514      4.0693414
 Leave Link  202 at Wed Aug 19 17:45:49 2020, MaxMem=    65536000 cpu:         0.0
 (Enter /opt/cluster/programs/g09/g09_d.01/g09/l301.exe)
 Standard basis: 6-31G(d,p) (6D, 7F)
 Ernie: Thresh=  0.10000D-02 Tol=  0.10000D-05 Strict=F.
 There are    90 symmetry adapted cartesian basis functions of A   symmetry.
 There are    90 symmetry adapted basis functions of A   symmetry.
    90 basis functions,   154 primitive gaussians,    90 cartesian basis functions
    15 alpha electrons       15 beta electrons
       nuclear repulsion energy       104.1576067279 Hartrees.
 IExCor=  419 DFT=T Ex+Corr=B2PLYPD3 ExCW=0 ScaHFX=  0.530000
 ScaDFX=  0.470000  0.470000  0.730000  0.730000 ScalE2=  0.270000  0.270000
 IRadAn=      0 IRanWt=     -1 IRanGd=            0 ICorTp=0 IEmpDi=141
 NAtoms=   10 NActive=   10 NUniq=   10 SFac= 1.00D+00 NAtFMM=   60 NAOKFM=F Big=F
 Integral buffers will be    131072 words long.
 Regular integral format.
 Two-electron integral symmetry is turned on.
 R6Disp:  Grimme-D3(BJ) Dispersion energy=       -0.0048448412 Hartrees.
 Nuclear repulsion after empirical dispersion term =      104.1527618867 Hartrees.
 Leave Link  301 at Wed Aug 19 17:45:50 2020, MaxMem=    65536000 cpu:         0.4
 (Enter /opt/cluster/programs/g09/g09_d.01/g09/l302.exe)
 NPDir=0 NMtPBC=     1 NCelOv=     1 NCel=       1 NClECP=     1 NCelD=      1
         NCelK=      1 NCelE2=     1 NClLst=     1 CellRange=     0.0.
 One-electron integrals computed using PRISM.
 NBasis=    90 RedAO= T EigKep=  3.29D-03  NBF=    90
 NBsUse=    90 1.00D-06 EigRej= -1.00D+00 NBFU=    90
 Precomputing XC quadrature grid using
 IXCGrd= 4 IRadAn=           0 IRanWt=          -1 IRanGd=           0 AccXCQ= 0.00D+00.
 Generated NRdTot=       0 NPtTot=           0 NUsed=           0 NTot=          32
 NSgBfM=    90    90    90    90    90 MxSgAt=    10 MxSgA2=    10.
 Leave Link  302 at Wed Aug 19 17:45:51 2020, MaxMem=    65536000 cpu:         0.9
 (Enter /opt/cluster/programs/g09/g09_d.01/g09/l303.exe)
 DipDrv:  MaxL=1.
 Leave Link  303 at Wed Aug 19 17:45:52 2020, MaxMem=    65536000 cpu:         0.1
 (Enter /opt/cluster/programs/g09/g09_d.01/g09/l401.exe)
 ExpMin= 1.61D-01 ExpMax= 3.05D+03 ExpMxC= 4.57D+02 IAcc=1 IRadAn=         1 AccDes= 0.00D+00
 Harris functional with IExCor=  419 and IRadAn=       1 diagonalized for initial guess.
 HarFok:  IExCor=  419 AccDes= 0.00D+00 IRadAn=         1 IDoV= 1 UseB2=F ITyADJ=14
 ICtDFT=  3500011 ScaDFX=  1.000000  1.000000  1.000000  1.000000
 FoFCou: FMM=F IPFlag=           0 FMFlag=      100000 FMFlg1=           0
         NFxFlg=           0 DoJE=T BraDBF=F KetDBF=T FulRan=T
         wScrn=  0.000000 ICntrl=     500 IOpCl=  0 I1Cent=   200000004 NGrid=           0
         NMat0=    1 NMatS0=      1 NMatT0=    0 NMatD0=    1 NMtDS0=    0 NMtDT0=    0
 Petite list used in FoFCou.
 Harris En= -156.056890615011    
 JPrj=0 DoOrth=F DoCkMO=F.
 Leave Link  401 at Wed Aug 19 17:45:53 2020, MaxMem=    65536000 cpu:         1.0
 (Enter /opt/cluster/programs/g09/g09_d.01/g09/l502.exe)
 Closed shell SCF:
 Using DIIS extrapolation, IDIIS=  1040.
 Integral symmetry usage will be decided dynamically.
 Keep R1 ints in memory in canonical form, NReq=9341552.
 IVT=       44254 IEndB=       44254 NGot=    65536000 MDV=    57105187
 LenX=    57105187 LenY=    57096646
 Requested convergence on RMS density matrix=1.00D-08 within 128 cycles.
 Requested convergence on MAX density matrix=1.00D-06.
 Requested convergence on             energy=1.00D-06.
 No special actions if energy rises.
 FoFCou: FMM=F IPFlag=           0 FMFlag=           0 FMFlg1=           0
         NFxFlg=           0 DoJE=F BraDBF=F KetDBF=F FulRan=T
         wScrn=  0.000000 ICntrl=     600 IOpCl=  0 I1Cent=           0 NGrid=           0
         NMat0=    1 NMatS0=   4095 NMatT0=    0 NMatD0=    1 NMtDS0=    0 NMtDT0=    0
 Symmetry not used in FoFCou.
 Integral accuracy reduced to 1.0D-05 until final iterations.

 Cycle   1  Pass 0  IDiag  1:
 E= -155.474460596081    
 DIIS: error= 6.15D-02 at cycle   1 NSaved=   1.
 NSaved= 1 IEnMin= 1 EnMin= -155.474460596081     IErMin= 1 ErrMin= 6.15D-02
 ErrMax= 6.15D-02  0.00D+00 EMaxC= 1.00D-01 BMatC= 1.52D-01 BMatP= 1.52D-01
 IDIUse=3 WtCom= 3.85D-01 WtEn= 6.15D-01
 Coeff-Com:  0.100D+01
 Coeff-En:   0.100D+01
 Coeff:      0.100D+01
 Gap=     0.303 Goal=   None    Shift=    0.000
 GapD=    0.303 DampG=1.000 DampE=0.500 DampFc=0.5000 IDamp=-1.
 Damping current iteration by 5.00D-01
 RMSDP=6.69D-03 MaxDP=1.03D-01              OVMax= 1.41D-01

 Cycle   2  Pass 0  IDiag  1:
 E= -155.563017344811     Delta-E=       -0.088556748731 Rises=F Damp=T
 DIIS: error= 1.48D-02 at cycle   2 NSaved=   2.
 NSaved= 2 IEnMin= 2 EnMin= -155.563017344811     IErMin= 2 ErrMin= 1.48D-02
 ErrMax= 1.48D-02  0.00D+00 EMaxC= 1.00D-01 BMatC= 1.36D-02 BMatP= 1.52D-01
 IDIUse=3 WtCom= 8.52D-01 WtEn= 1.48D-01
 Coeff-Com: -0.255D+00 0.126D+01
 Coeff-En:   0.000D+00 0.100D+01
 Coeff:     -0.218D+00 0.122D+01
 Gap=     0.303 Goal=   None    Shift=    0.000
 RMSDP=1.75D-03 MaxDP=1.88D-02 DE=-8.86D-02 OVMax= 5.54D-02

 Cycle   3  Pass 0  IDiag  1:
 E= -155.637446488956     Delta-E=       -0.074429144145 Rises=F Damp=F
 DIIS: error= 3.21D-03 at cycle   3 NSaved=   3.
 NSaved= 3 IEnMin= 3 EnMin= -155.637446488956     IErMin= 3 ErrMin= 3.21D-03
 ErrMax= 3.21D-03  0.00D+00 EMaxC= 1.00D-01 BMatC= 3.43D-04 BMatP= 1.36D-02
 IDIUse=3 WtCom= 9.68D-01 WtEn= 3.21D-02
 Coeff-Com: -0.310D-01 0.771D-01 0.954D+00
 Coeff-En:   0.000D+00 0.000D+00 0.100D+01
 Coeff:     -0.300D-01 0.746D-01 0.955D+00
 Gap=     0.303 Goal=   None    Shift=    0.000
 RMSDP=3.23D-04 MaxDP=6.26D-03 DE=-7.44D-02 OVMax= 1.58D-02

 Cycle   4  Pass 0  IDiag  1:
 E= -155.637503429840     Delta-E=       -0.000056940884 Rises=F Damp=F
 DIIS: error= 2.53D-03 at cycle   4 NSaved=   4.
 NSaved= 4 IEnMin= 4 EnMin= -155.637503429840     IErMin= 4 ErrMin= 2.53D-03
 ErrMax= 2.53D-03  0.00D+00 EMaxC= 1.00D-01 BMatC= 3.22D-04 BMatP= 3.43D-04
 IDIUse=3 WtCom= 9.75D-01 WtEn= 2.53D-02
 Coeff-Com: -0.749D-02-0.162D-02 0.509D+00 0.500D+00
 Coeff-En:   0.000D+00 0.000D+00 0.457D+00 0.543D+00
 Coeff:     -0.730D-02-0.158D-02 0.508D+00 0.501D+00
 Gap=     0.303 Goal=   None    Shift=    0.000
 RMSDP=1.70D-04 MaxDP=2.86D-03 DE=-5.69D-05 OVMax= 6.41D-03

 Cycle   5  Pass 0  IDiag  1:
 E= -155.637821641380     Delta-E=       -0.000318211540 Rises=F Damp=F
 DIIS: error= 1.88D-04 at cycle   5 NSaved=   5.
 NSaved= 5 IEnMin= 5 EnMin= -155.637821641380     IErMin= 5 ErrMin= 1.88D-04
 ErrMax= 1.88D-04  0.00D+00 EMaxC= 1.00D-01 BMatC= 1.00D-06 BMatP= 3.22D-04
 IDIUse=3 WtCom= 9.98D-01 WtEn= 1.88D-03
 Coeff-Com:  0.792D-03-0.403D-02 0.171D-01 0.509D-01 0.935D+00
 Coeff-En:   0.000D+00 0.000D+00 0.000D+00 0.000D+00 0.100D+01
 Coeff:      0.791D-03-0.402D-02 0.171D-01 0.508D-01 0.935D+00
 Gap=     0.303 Goal=   None    Shift=    0.000
 RMSDP=1.69D-05 MaxDP=2.12D-04 DE=-3.18D-04 OVMax= 7.82D-04

 Cycle   6  Pass 0  IDiag  1:
 E= -155.637823203188     Delta-E=       -0.000001561808 Rises=F Damp=F
 DIIS: error= 3.11D-05 at cycle   6 NSaved=   6.
 NSaved= 6 IEnMin= 6 EnMin= -155.637823203188     IErMin= 6 ErrMin= 3.11D-05
 ErrMax= 3.11D-05  0.00D+00 EMaxC= 1.00D-01 BMatC= 2.99D-08 BMatP= 1.00D-06
 IDIUse=1 WtCom= 1.00D+00 WtEn= 0.00D+00
 Coeff-Com:  0.305D-03-0.462D-04-0.188D-01-0.207D-01-0.112D-01 0.105D+01
 Coeff:      0.305D-03-0.462D-04-0.188D-01-0.207D-01-0.112D-01 0.105D+01
 Gap=     0.303 Goal=   None    Shift=    0.000
 RMSDP=4.50D-06 MaxDP=7.11D-05 DE=-1.56D-06 OVMax= 2.05D-04

 Initial convergence to 1.0D-05 achieved.  Increase integral accuracy.
 Cycle   7  Pass 1  IDiag  1:
 E= -155.637846688116     Delta-E=       -0.000023484927 Rises=F Damp=F
 DIIS: error= 5.84D-06 at cycle   1 NSaved=   1.
 NSaved= 1 IEnMin= 1 EnMin= -155.637846688116     IErMin= 1 ErrMin= 5.84D-06
 ErrMax= 5.84D-06  0.00D+00 EMaxC= 1.00D-01 BMatC= 2.17D-09 BMatP= 2.17D-09
 IDIUse=1 WtCom= 1.00D+00 WtEn= 0.00D+00
 Coeff-Com:  0.100D+01
 Coeff:      0.100D+01
 Gap=     0.303 Goal=   None    Shift=    0.000
 RMSDP=4.50D-06 MaxDP=7.11D-05 DE=-2.35D-05 OVMax= 3.70D-05

 Cycle   8  Pass 1  IDiag  1:
 E= -155.637846692594     Delta-E=       -0.000000004479 Rises=F Damp=F
 DIIS: error= 1.96D-06 at cycle   2 NSaved=   2.
 NSaved= 2 IEnMin= 2 EnMin= -155.637846692594     IErMin= 2 ErrMin= 1.96D-06
 ErrMax= 1.96D-06  0.00D+00 EMaxC= 1.00D-01 BMatC= 1.12D-10 BMatP= 2.17D-09
 IDIUse=1 WtCom= 1.00D+00 WtEn= 0.00D+00
 Coeff-Com: -0.227D-01 0.102D+01
 Coeff:     -0.227D-01 0.102D+01
 Gap=     0.303 Goal=   None    Shift=    0.000
 RMSDP=2.87D-07 MaxDP=4.36D-06 DE=-4.48D-09 OVMax= 1.21D-05

 Cycle   9  Pass 1  IDiag  1:
 E= -155.637846692891     Delta-E=       -0.000000000297 Rises=F Damp=F
 DIIS: error= 9.52D-07 at cycle   3 NSaved=   3.
 NSaved= 3 IEnMin= 3 EnMin= -155.637846692891     IErMin= 3 ErrMin= 9.52D-07
 ErrMax= 9.52D-07  0.00D+00 EMaxC= 1.00D-01 BMatC= 2.92D-11 BMatP= 1.12D-10
 IDIUse=1 WtCom= 1.00D+00 WtEn= 0.00D+00
 Coeff-Com: -0.568D-01 0.290D+00 0.767D+00
 Coeff:     -0.568D-01 0.290D+00 0.767D+00
 Gap=     0.303 Goal=   None    Shift=    0.000
 RMSDP=8.54D-08 MaxDP=1.73D-06 DE=-2.97D-10 OVMax= 4.69D-06

 Cycle  10  Pass 1  IDiag  1:
 E= -155.637846692929     Delta-E=       -0.000000000038 Rises=F Damp=F
 DIIS: error= 3.12D-07 at cycle   4 NSaved=   4.
 NSaved= 4 IEnMin= 4 EnMin= -155.637846692929     IErMin= 4 ErrMin= 3.12D-07
 ErrMax= 3.12D-07  0.00D+00 EMaxC= 1.00D-01 BMatC= 6.92D-12 BMatP= 2.92D-11
 IDIUse=1 WtCom= 1.00D+00 WtEn= 0.00D+00
 Coeff-Com: -0.252D-01 0.268D-01 0.351D+00 0.648D+00
 Coeff:     -0.252D-01 0.268D-01 0.351D+00 0.648D+00
 Gap=     0.303 Goal=   None    Shift=    0.000
 RMSDP=3.61D-08 MaxDP=6.02D-07 DE=-3.83D-11 OVMax= 1.74D-06

 Cycle  11  Pass 1  IDiag  1:
 E= -155.637846692938     Delta-E=       -0.000000000009 Rises=F Damp=F
 DIIS: error= 1.14D-07 at cycle   5 NSaved=   5.
 NSaved= 5 IEnMin= 5 EnMin= -155.637846692938     IErMin= 5 ErrMin= 1.14D-07
 ErrMax= 1.14D-07  0.00D+00 EMaxC= 1.00D-01 BMatC= 2.49D-13 BMatP= 6.92D-12
 IDIUse=1 WtCom= 1.00D+00 WtEn= 0.00D+00
 Coeff-Com:  0.757D-03-0.254D-01-0.361D-02 0.142D+00 0.886D+00
 Coeff:      0.757D-03-0.254D-01-0.361D-02 0.142D+00 0.886D+00
 Gap=     0.303 Goal=   None    Shift=    0.000
 RMSDP=8.49D-09 MaxDP=1.89D-07 DE=-9.21D-12 OVMax= 5.40D-07

 SCF Done:  E(RB2PLYPD3) =  -155.637846693     A.U. after   11 cycles
            NFock= 11  Conv=0.85D-08     -V/T= 2.0067
 KE= 1.546032596746D+02 PE=-5.687682455377D+02 EE= 1.543743772835D+02
 Leave Link  502 at Wed Aug 19 17:45:56 2020, MaxMem=    65536000 cpu:         7.3
 (Enter /opt/cluster/programs/g09/g09_d.01/g09/l801.exe)
 DoSCS=T DFT=T ScalE2(SS,OS)=  0.270000  0.270000
 ExpMin= 1.61D-01 ExpMax= 3.05D+03 ExpMxC= 4.57D+02 IAcc=3 IRadAn=         5 AccDes= 0.00D+00
 HarFok:  IExCor=  205 AccDes= 0.00D+00 IRadAn=         5 IDoV=-2 UseB2=F ITyADJ=14
 ICtDFT= 12500011 ScaDFX=  1.000000  1.000000  1.000000  1.000000
 Largest valence mixing into a core orbital is  1.05D-04
 Largest core mixing into a valence orbital is  2.15D-05
 Range of M.O.s used for correlation:     5    90
 NBasis=    90 NAE=    15 NBE=    15 NFC=     4 NFV=     0
 NROrb=     86 NOA=    11 NOB=    11 NVA=    75 NVB=    75
 Leave Link  801 at Wed Aug 19 17:45:57 2020, MaxMem=    65536000 cpu:         0.4
 (Enter /opt/cluster/programs/g09/g09_d.01/g09/l906.exe)
 DoSCS=T DFT=T ScalE2(SS,OS)=  0.270000  0.270000
 Frozen-core derivative calculation, NFC=   4 NFV=   0.
 FulOut=F Deriv=T AODrv=T NAtomX=    10
   MMem=         173  MDisk=          11 MDiskD=          11
  W3Min=      121500 MinDsk=      241745 NBas6D=          90
 NBas2D=        4221    NTT=        4095    LW2=     2040000
    MDV=    65428311 MDiskM=        9788 NBas2p=        4155
 Fully direct method using O(ONN) memory.
 IMap=   1   2   3   4   5   6   7   8   9  10  11  12  13  14  15
 JobTyp=1 Pass  1:  I=   5 to   8 NPSUse=  8 ParTrn=T ParDer=T DoDerP=T.
 JobTyp=1 Pass  2:  I=   9 to  12 NPSUse=  8 ParTrn=T ParDer=T DoDerP=T.
 JobTyp=1 Pass  3:  I=  13 to  15 NPSUse=  8 ParTrn=T ParDer=T DoDerP=T.
 Spin components of T(2) and E(2):
     alpha-alpha T2 =       0.3449937758D-01 E2=     -0.2087399441D-01
     alpha-beta  T2 =       0.2354488245D+00 E2=     -0.1381140459D+00
     beta-beta   T2 =       0.3449937758D-01 E2=     -0.2087399441D-01
 The integrals were generated   3 times.
 E2(B2PLYPD3) =    -0.1798620347D+00 E(B2PLYPD3) =    -0.15581770872765D+03
 Leave Link  906 at Wed Aug 19 17:45:59 2020, MaxMem=    65536000 cpu:         9.1
 (Enter /opt/cluster/programs/g09/g09_d.01/g09/l1002.exe)
 Minotr:  Closed shell wavefunction.
          Computing MP2/KS-MP2 derivatives.
          Using Z-Vector for PSCF gradient.
          Skipping F1 and S1 gradient terms here.
          IDoAtm=1111111111
          Frozen-core window.
          Direct CPHF calculation.
          Differentiating once with respect to electric field.
                with respect to dipole field.
          Differentiating once with respect to nuclear coordinates.
          Requested convergence is 1.0D-10 RMS, and 1.0D-09 maximum.
          NewPWx=F KeepS1=T KeepF1=T KeepIn=T MapXYZ=F SortEE=F KeepMc=T.
          MDV=      65535810 using IRadAn=       0.
 Using stored XC quadrature information.
 Keep R1 ints in memory in canonical form, NReq=9298635.
 FoFCou: FMM=F IPFlag=           0 FMFlag=           0 FMFlg1=           0
         NFxFlg=           0 DoJE=F BraDBF=F KetDBF=F FulRan=T
         wScrn=  0.000000 ICntrl=     600 IOpCl=  0 I1Cent=           0 NGrid=           0
         NMat0=    1 NMatS0=   4095 NMatT0=    0 NMatD0=    1 NMtDS0=    0 NMtDT0=    0
 Symmetry not used in FoFCou.
          Solving linear equations separately, MaxMat=       0.
          There are     1 degrees of freedom in the 1st order CPHF.  IDoFFX=0 NUNeed=     1.
 LinEq1:  Iter=  0 NonCon=     1 RMS=2.10D-03 Max=3.88D-02 NDo=     1
 AX will form     1 AO Fock derivatives at one time.
 LinEq1:  Iter=  1 NonCon=     1 RMS=7.11D-04 Max=8.86D-03 NDo=     1
 LinEq1:  Iter=  2 NonCon=     1 RMS=2.03D-04 Max=5.14D-03 NDo=     1
 LinEq1:  Iter=  3 NonCon=     1 RMS=1.08D-04 Max=2.10D-03 NDo=     1
 LinEq1:  Iter=  4 NonCon=     1 RMS=2.53D-05 Max=3.55D-04 NDo=     1
 LinEq1:  Iter=  5 NonCon=     1 RMS=3.51D-06 Max=3.98D-05 NDo=     1
 LinEq1:  Iter=  6 NonCon=     1 RMS=3.71D-07 Max=3.07D-06 NDo=     1
 LinEq1:  Iter=  7 NonCon=     1 RMS=9.50D-08 Max=1.48D-06 NDo=     1
 LinEq1:  Iter=  8 NonCon=     1 RMS=5.36D-08 Max=1.13D-06 NDo=     1
 LinEq1:  Iter=  9 NonCon=     1 RMS=1.61D-08 Max=1.60D-07 NDo=     1
 LinEq1:  Iter= 10 NonCon=     1 RMS=2.85D-09 Max=2.15D-08 NDo=     1
 LinEq1:  Iter= 11 NonCon=     1 RMS=6.53D-10 Max=9.41D-09 NDo=     1
 LinEq1:  Iter= 12 NonCon=     1 RMS=2.49D-10 Max=2.02D-09 NDo=     1
 LinEq1:  Iter= 13 NonCon=     0 RMS=1.89D-11 Max=2.60D-10 NDo=     1
 Linear equations converged to 1.000D-10 1.000D-09 after    13 iterations.
 End of Minotr F.D. properties file   721 does not exist.
 End of Minotr F.D. properties file   722 does not exist.
 End of Minotr F.D. properties file   788 does not exist.
 Leave Link 1002 at Wed Aug 19 17:46:02 2020, MaxMem=    65536000 cpu:        15.1
 (Enter /opt/cluster/programs/g09/g09_d.01/g09/l601.exe)
 Copying SCF densities to generalized density rwf, IOpCl= 0 IROHF=0.

 **********************************************************************

            Population analysis using the SCF density.

 **********************************************************************

 Orbital symmetries:
       Occupied  (A) (A) (A) (A) (A) (A) (A) (A) (A) (A) (A) (A)
                 (A) (A) (A)
       Virtual   (A) (A) (A) (A) (A) (A) (A) (A) (A) (A) (A) (A)
                 (A) (A) (A) (A) (A) (A) (A) (A) (A) (A) (A) (A)
                 (A) (A) (A) (A) (A) (A) (A) (A) (A) (A) (A) (A)
                 (A) (A) (A) (A) (A) (A) (A) (A) (A) (A) (A) (A)
                 (A) (A) (A) (A) (A) (A) (A) (A) (A) (A) (A) (A)
                 (A) (A) (A) (A) (A) (A) (A) (A) (A) (A) (A) (A)
                 (A) (A) (A)
 The electronic state is 1-A.
 Alpha  occ. eigenvalues --  -10.62702 -10.62643 -10.61877 -10.61877  -0.92313
 Alpha  occ. eigenvalues --   -0.83955  -0.69303  -0.63373  -0.53468  -0.53249
 Alpha  occ. eigenvalues --   -0.45305  -0.44865  -0.40654  -0.37229  -0.26421
 Alpha virt. eigenvalues --    0.03882   0.15716   0.17482   0.18471   0.18954
 Alpha virt. eigenvalues --    0.23953   0.26011   0.27464   0.39411   0.39678
 Alpha virt. eigenvalues --    0.47228   0.56704   0.58871   0.62108   0.67518
 Alpha virt. eigenvalues --    0.68385   0.71773   0.75742   0.76659   0.77217
 Alpha virt. eigenvalues --    0.80165   0.92824   0.94435   0.94482   0.97529
 Alpha virt. eigenvalues --    1.03165   1.03442   1.05452   1.15560   1.20222
 Alpha virt. eigenvalues --    1.22898   1.41399   1.42004   1.45033   1.46444
 Alpha virt. eigenvalues --    1.53099   1.57124   1.63603   1.91238   1.96451
 Alpha virt. eigenvalues --    1.98760   2.07903   2.08057   2.10051   2.11703
 Alpha virt. eigenvalues --    2.19128   2.22204   2.28183   2.34598   2.39041
 Alpha virt. eigenvalues --    2.45231   2.53700   2.55002   2.58708   2.64825
 Alpha virt. eigenvalues --    2.68511   2.69198   2.80963   2.82596   2.83300
 Alpha virt. eigenvalues --    2.83927   2.87872   3.00910   3.11495   3.16537
 Alpha virt. eigenvalues --    3.39253   3.45439   3.54973   3.61071   3.85264
 Alpha virt. eigenvalues --    3.88721   4.31626   4.38360   4.54599   4.82484
          Condensed to atoms (all electrons):
               1          2          3          4          5          6
     1  C    4.943880   0.638333  -0.046364   0.002935   0.385146   0.395187
     2  C    0.638333   4.740864   0.448718  -0.046356  -0.026766  -0.040156
     3  C   -0.046364   0.448718   4.740984   0.638291   0.003550  -0.007923
     4  C    0.002935  -0.046356   0.638291   4.943963  -0.000208   0.000293
     5  H    0.385146  -0.026766   0.003550  -0.000208   0.569417  -0.037096
     6  H    0.395187  -0.040156  -0.007923   0.000293  -0.037096   0.570243
     7  H   -0.042733   0.392983  -0.045815  -0.004340  -0.006201   0.004633
     8  H   -0.004350  -0.045844   0.392994  -0.042748   0.000029   0.003931
     9  H    0.000292  -0.007911  -0.040155   0.395167  -0.000004   0.000009
    10  H   -0.000208   0.003548  -0.026751   0.385159   0.000003  -0.000004
               7          8          9         10
     1  C   -0.042733  -0.004350   0.000292  -0.000208
     2  C    0.392983  -0.045844  -0.007911   0.003548
     3  C   -0.045815   0.392994  -0.040155  -0.026751
     4  C   -0.004340  -0.042748   0.395167   0.385159
     5  H   -0.006201   0.000029  -0.000004   0.000003
     6  H    0.004633   0.003931   0.000009  -0.000004
     7  H    0.586725   0.004173   0.003926   0.000029
     8  H    0.004173   0.586809   0.004635  -0.006206
     9  H    0.003926   0.004635   0.570277  -0.037093
    10  H    0.000029  -0.006206  -0.037093   0.569369
 Mulliken charges:
               1
     1  C   -0.272119
     2  C   -0.057413
     3  C   -0.057530
     4  C   -0.272157
     5  H    0.112129
     6  H    0.110884
     7  H    0.106621
     8  H    0.106576
     9  H    0.110855
    10  H    0.112153
 Sum of Mulliken charges =   0.00000
 Mulliken charges with hydrogens summed into heavy atoms:
               1
     1  C   -0.049105
     2  C    0.049208
     3  C    0.049046
     4  C   -0.049149
 Electronic spatial extent (au):  <R**2>=            331.2999
 Charge=              0.0000 electrons
 Dipole moment (field-independent basis, Debye):
    X=              0.0007    Y=              0.0001    Z=              0.0000  Tot=              0.0007
 Quadrupole moment (field-independent basis, Debye-Ang):
   XX=            -23.1198   YY=            -22.4698   ZZ=            -28.1879
   XY=             -0.0698   XZ=              0.0000   YZ=              0.0000
 Traceless Quadrupole moment (field-independent basis, Debye-Ang):
   XX=              1.4727   YY=              2.1227   ZZ=             -3.5954
   XY=             -0.0698   XZ=              0.0000   YZ=              0.0000
 Octapole moment (field-independent basis, Debye-Ang**2):
  XXX=              0.0014  YYY=              0.0013  ZZZ=              0.0000  XYY=              0.0004
  XXY=             -0.0019  XXZ=              0.0000  XZZ=              0.0014  YZZ=              0.0002
  YYZ=              0.0000  XYZ=              0.0000
 Hexadecapole moment (field-independent basis, Debye-Ang**3):
 XXXX=           -334.5085 YYYY=            -63.0285 ZZZZ=            -29.6312 XXXY=              5.2286
 XXXZ=              0.0000 YYYX=             -1.6296 YYYZ=              0.0000 ZZZX=              0.0000
 ZZZY=              0.0000 XXYY=            -65.3108 XXZZ=            -72.0366 YYZZ=            -17.4395
 XXYZ=              0.0000 YYXZ=              0.0000 ZZXY=             -0.2263
 N-N= 1.041527618867D+02 E-N=-5.687682488761D+02  KE= 1.546032596746D+02
 No NMR shielding tensors so no spin-rotation constants.
 Leave Link  601 at Wed Aug 19 17:46:04 2020, MaxMem=    65536000 cpu:         0.8
 (Enter /opt/cluster/programs/g09/g09_d.01/g09/l701.exe)
 Compute integral first derivatives.
 ... and contract with generalized density number  2.
 R6Disp: Adding Grimme-D3(BJ) dispersion energy 1st derivatives to the gradient.
 Leave Link  701 at Wed Aug 19 17:46:05 2020, MaxMem=    65536000 cpu:         0.9
 (Enter /opt/cluster/programs/g09/g09_d.01/g09/l702.exe)
 L702 exits ... SP integral derivatives will be done elsewhere.
 Leave Link  702 at Wed Aug 19 17:46:05 2020, MaxMem=    65536000 cpu:         0.1
 (Enter /opt/cluster/programs/g09/g09_d.01/g09/l703.exe)
 Compute integral first derivatives, UseDBF=F ICtDFT=           0.
 Integral derivatives from FoFJK, PRISM(SPDF).
 Calling FoFJK, ICntrl=  10002127 FMM=F ISym2X=0 I1Cent= 0 IOpClX= 0 NMat=1 NMatS=1 NMatT=0.
 FoFJK:  IHMeth= 1 ICntrl=10002127 DoSepK=F KAlg= 0 I1Cent=   0 FoldK=F
 IRaf=         0 NMat=   1 IRICut=       1 DoRegI=T DoRafI=F ISym2E= 0.
 FoFCou: FMM=F IPFlag=           0 FMFlag=      100000 FMFlg1=         800
         NFxFlg=           0 DoJE=F BraDBF=F KetDBF=F FulRan=T
         wScrn=  0.000000 ICntrl=10002127 IOpCl=  0 I1Cent=           0 NGrid=           0
         NMat0=    1 NMatS0=      1 NMatT0=    0 NMatD0=    1 NMtDS0=    0 NMtDT0=    0
 Symmetry not used in FoFCou.
 Leave Link  703 at Wed Aug 19 17:46:07 2020, MaxMem=    65536000 cpu:         3.5
 (Enter /opt/cluster/programs/g09/g09_d.01/g09/l716.exe)
 Dipole        = 2.45782540D-04 3.61131303D-05-1.35603720D-06
 ***** Axes restored to original set *****
 -------------------------------------------------------------------
 Center     Atomic                   Forces (Hartrees/Bohr)
 Number     Number              X              Y              Z
 -------------------------------------------------------------------
      1        6          -0.008477013   -0.002013920    0.000087582
      2        6          -0.007596854    0.001088500   -0.000004058
      3        6           0.007856051   -0.001130159    0.000005755
      4        6           0.008220010    0.002068374   -0.000089870
      5        1           0.000874738    0.002833841   -0.000085402
      6        1           0.000496505   -0.001273381    0.000035532
      7        1           0.001974497    0.001119823   -0.000040014
      8        1          -0.001990765   -0.001132418    0.000039795
      9        1          -0.000481091    0.001267762   -0.000035097
     10        1          -0.000876077   -0.002828421    0.000085777
 -------------------------------------------------------------------
 Cartesian Forces:  Max     0.008477013 RMS     0.003169429
 Leave Link  716 at Wed Aug 19 17:46:08 2020, MaxMem=    65536000 cpu:         0.2
 (Enter /opt/cluster/programs/g09/g09_d.01/g09/l103.exe)

 GradGradGradGradGradGradGradGradGradGradGradGradGradGradGradGradGradGrad
 Berny optimization.
 FormGI is forming the generalized inverse of G from B-inverse, IUseBI=4.
 Internal  Forces:  Max     0.010946676 RMS     0.003088744
 Search for a local minimum.
 Step number   1 out of a maximum of   43
 All quantities printed in internal units (Hartrees-Bohrs-Radians)
 RMS Force = .30887D-02 SwitMx=.10000D-02 MixMth= 1
 Mixed Optimization -- RFO/linear search
 Second derivative matrix not updated -- first step.
 ITU=  0
     Eigenvalues ---    0.01536   0.02231   0.02232   0.02910   0.02910
     Eigenvalues ---    0.02912   0.02912   0.16000   0.16000   0.16000
     Eigenvalues ---    0.16000   0.16000   0.16000   0.22000   0.22000
     Eigenvalues ---    0.35036   0.35040   0.35338   0.35340   0.35362
     Eigenvalues ---    0.35362   0.39346   0.57673   0.57715
 RFO step:  Lambda=-1.06962087D-03 EMin= 1.53648726D-02
 Linear search not attempted -- first point.
 Iteration  1 RMS(Cart)=  0.01870574 RMS(Int)=  0.00008161
 Iteration  2 RMS(Cart)=  0.00010256 RMS(Int)=  0.00000002
 Iteration  3 RMS(Cart)=  0.00000001 RMS(Int)=  0.00000002
 ITry= 1 IFail=0 DXMaxC= 4.53D-02 DCOld= 1.00D+10 DXMaxT= 3.00D-01 DXLimC= 3.00D+00 Rises=F
 Variable       Old X    -DE/DX   Delta X   Delta X   Delta X     New X
                                 (Linear)    (Quad)   (Total)
    R1        2.52795   0.00569   0.00000   0.00983   0.00983   2.53779
    R2        2.05130  -0.00204   0.00000  -0.00574  -0.00574   2.04555
    R3        2.05091  -0.00127   0.00000  -0.00357  -0.00357   2.04734
    R4        2.72451   0.01095   0.00000   0.02775   0.02775   2.75226
    R5        2.05610  -0.00126   0.00000  -0.00359  -0.00359   2.05251
    R6        2.52831   0.00546   0.00000   0.00944   0.00944   2.53775
    R7        2.05616  -0.00128   0.00000  -0.00363  -0.00363   2.05253
    R8        2.05091  -0.00126   0.00000  -0.00355  -0.00355   2.04736
    R9        2.05127  -0.00204   0.00000  -0.00575  -0.00575   2.04553
    A1        2.10238   0.00330   0.00000   0.02050   0.02050   2.12288
    A2        2.13312  -0.00218   0.00000  -0.01356  -0.01356   2.11956
    A3        2.04769  -0.00112   0.00000  -0.00694  -0.00694   2.04075
    A4        2.14546   0.00486   0.00000   0.02201   0.02201   2.16746
    A5        2.07899  -0.00049   0.00000   0.00105   0.00105   2.08004
    A6        2.05873  -0.00437   0.00000  -0.02305  -0.02305   2.03568
    A7        2.14614   0.00475   0.00000   0.02150   0.02150   2.16764
    A8        2.05851  -0.00433   0.00000  -0.02290  -0.02290   2.03561
    A9        2.07853  -0.00042   0.00000   0.00140   0.00140   2.07993
   A10        2.13295  -0.00216   0.00000  -0.01339  -0.01339   2.11955
   A11        2.10242   0.00328   0.00000   0.02038   0.02038   2.12279
   A12        2.04782  -0.00112   0.00000  -0.00698  -0.00698   2.04084
    D1        3.14159   0.00000   0.00000   0.00000   0.00000  -3.14159
    D2       -0.00002   0.00000   0.00000   0.00002   0.00002   0.00000
    D3        0.00001   0.00000   0.00000  -0.00001  -0.00001   0.00000
    D4        3.14159   0.00000   0.00000   0.00000   0.00000   3.14159
    D5        3.14158   0.00000   0.00000   0.00001   0.00001   3.14159
    D6        0.00000   0.00000   0.00000   0.00000   0.00000   0.00000
    D7        0.00000   0.00000   0.00000   0.00000   0.00000   0.00000
    D8       -3.14158   0.00000   0.00000  -0.00001  -0.00001  -3.14159
    D9        0.00001   0.00000   0.00000  -0.00001  -0.00001   0.00000
   D10        3.14159   0.00000   0.00000   0.00000   0.00000  -3.14159
   D11       -3.14159   0.00000   0.00000   0.00000   0.00000   3.14159
   D12       -0.00001   0.00000   0.00000   0.00001   0.00001   0.00000
         Item               Value     Threshold  Converged?
 Maximum Force            0.010947     0.000450     NO 
 RMS     Force            0.003089     0.000300     NO 
 Maximum Displacement     0.045280     0.001800     NO 
 RMS     Displacement     0.018681     0.001200     NO 
 Predicted change in Energy=-5.371498D-04
 Lowest energy point so far.  Saving SCF results.
 GradGradGradGradGradGradGradGradGradGradGradGradGradGradGradGradGradGrad

 Leave Link  103 at Wed Aug 19 17:46:08 2020, MaxMem=    65536000 cpu:         2.9
 (Enter /opt/cluster/programs/g09/g09_d.01/g09/l202.exe)
                          Input orientation:                          
 ---------------------------------------------------------------------
 Center     Atomic      Atomic             Coordinates (Angstroms)
 Number     Number       Type             X           Y           Z
 ---------------------------------------------------------------------
      1          6           0       -3.851198    0.227828    0.018186
      2          6           0       -2.722440   -0.499560    0.035429
      3          6           0       -1.381879    0.069331    0.014135
      4          6           0       -0.253006   -0.657848    0.031373
      5          1           0       -4.827691   -0.238957    0.035224
      6          1           0       -3.825418    1.310466   -0.013469
      7          1           0       -2.791159   -1.583059    0.067260
      8          1           0       -1.313235    1.152846   -0.017696
      9          1           0       -0.278595   -1.740497    0.063028
     10          1           0        0.723352   -0.190810    0.014329
 ---------------------------------------------------------------------
                    Distance matrix (angstroms):
                    1          2          3          4          5
     1  C    0.000000
     2  C    1.342939   0.000000
     3  C    2.474404   1.456432   0.000000
     4  C    3.705615   2.474505   1.342922   0.000000
     5  H    1.082459   2.121319   3.459640   4.593825   0.000000
     6  H    1.083407   2.120176   2.740814   4.079019   1.845978
     7  H    2.098905   1.086142   2.172392   2.701763   2.440307
     8  H    2.701518   2.172355   1.086154   2.098834   3.780386
     9  H    4.079192   2.740997   2.120165   1.083414   4.790581
    10  H    4.593667   3.459661   2.121243   1.082446   5.551291
                    6          7          8          9         10
     6  H    0.000000
     7  H    3.073873   0.000000
     8  H    2.517126   3.110732   0.000000
     9  H    4.679121   2.517495   3.073829   0.000000
    10  H    4.790189   3.780601   2.440108   1.846022   0.000000
 Stoichiometry    C4H6
 Framework group  C1[X(C4H6)]
 Deg. of freedom    24
 Full point group                 C1      NOp   1
 RotChk:  IX=0 Diff= 2.25D-03
 Largest Abelian subgroup         C1      NOp   1
 Largest concise Abelian subgroup C1      NOp   1
                         Standard orientation:                         
 ---------------------------------------------------------------------
 Center     Atomic      Atomic             Coordinates (Angstroms)
 Number     Number       Type             X           Y           Z
 ---------------------------------------------------------------------
      1          6           0        1.849513   -0.110145    0.000000
      2          6           0        0.607758    0.401255    0.000000
      3          6           0       -0.607723   -0.401117    0.000000
      4          6           0       -1.849553    0.110055    0.000000
      5          1           0        2.725414    0.525871    0.000001
      6          1           0        2.020078   -1.180042    0.000000
      7          1           0        0.479268    1.479770    0.000000
      8          1           0       -0.479155   -1.479635    0.000000
      9          1           0       -2.020308    1.179928    0.000000
     10          1           0       -2.725275   -0.526184    0.000001
 ---------------------------------------------------------------------
 Rotational constants (GHZ):     42.3653351      4.4089581      3.9933685
 Leave Link  202 at Wed Aug 19 17:46:08 2020, MaxMem=    65536000 cpu:         0.0
 (Enter /opt/cluster/programs/g09/g09_d.01/g09/l301.exe)
 Standard basis: 6-31G(d,p) (6D, 7F)
 Ernie: Thresh=  0.10000D-02 Tol=  0.10000D-05 Strict=F.
 There are    90 symmetry adapted cartesian basis functions of A   symmetry.
 There are    90 symmetry adapted basis functions of A   symmetry.
    90 basis functions,   154 primitive gaussians,    90 cartesian basis functions
    15 alpha electrons       15 beta electrons
       nuclear repulsion energy       103.5945366144 Hartrees.
 IExCor=  419 DFT=T Ex+Corr=B2PLYPD3 ExCW=0 ScaHFX=  0.530000
 ScaDFX=  0.470000  0.470000  0.730000  0.730000 ScalE2=  0.270000  0.270000
 IRadAn=      0 IRanWt=     -1 IRanGd=            0 ICorTp=0 IEmpDi=141
 NAtoms=   10 NActive=   10 NUniq=   10 SFac= 1.00D+00 NAtFMM=   60 NAOKFM=F Big=F
 Integral buffers will be    131072 words long.
 Regular integral format.
 Two-electron integral symmetry is turned on.
 R6Disp:  Grimme-D3(BJ) Dispersion energy=       -0.0048209876 Hartrees.
 Nuclear repulsion after empirical dispersion term =      103.5897156268 Hartrees.
 Leave Link  301 at Wed Aug 19 17:46:08 2020, MaxMem=    65536000 cpu:         0.4
 (Enter /opt/cluster/programs/g09/g09_d.01/g09/l302.exe)
 NPDir=0 NMtPBC=     1 NCelOv=     1 NCel=       1 NClECP=     1 NCelD=      1
         NCelK=      1 NCelE2=     1 NClLst=     1 CellRange=     0.0.
 One-electron integrals computed using PRISM.
 NBasis=    90 RedAO= T EigKep=  3.43D-03  NBF=    90
 NBsUse=    90 1.00D-06 EigRej= -1.00D+00 NBFU=    90
 Precomputing XC quadrature grid using
 IXCGrd= 4 IRadAn=           0 IRanWt=          -1 IRanGd=           0 AccXCQ= 0.00D+00.
 Generated NRdTot=       0 NPtTot=           0 NUsed=           0 NTot=          32
 NSgBfM=    90    90    90    90    90 MxSgAt=    10 MxSgA2=    10.
 Leave Link  302 at Wed Aug 19 17:46:09 2020, MaxMem=    65536000 cpu:         1.0
 (Enter /opt/cluster/programs/g09/g09_d.01/g09/l303.exe)
 DipDrv:  MaxL=1.
 Leave Link  303 at Wed Aug 19 17:46:09 2020, MaxMem=    65536000 cpu:         0.1
 (Enter /opt/cluster/programs/g09/g09_d.01/g09/l401.exe)
 Initial guess from the checkpoint file:  "butadiene_opt.chk"
 B after Tr=     0.000000    0.000000    0.000000
         Rot=    1.000000    0.000000    0.000000    0.000462 Ang=   0.05 deg.
 Guess basis will be translated and rotated to current coordinates.
 JPrj=2 DoOrth=T DoCkMO=T.
 Generating alternative initial guess.
 ExpMin= 1.61D-01 ExpMax= 3.05D+03 ExpMxC= 4.57D+02 IAcc=1 IRadAn=         1 AccDes= 0.00D+00
 Harris functional with IExCor=  419 and IRadAn=       1 diagonalized for initial guess.
 HarFok:  IExCor=  419 AccDes= 0.00D+00 IRadAn=         1 IDoV= 1 UseB2=F ITyADJ=14
 ICtDFT=  3500011 ScaDFX=  1.000000  1.000000  1.000000  1.000000
 FoFCou: FMM=F IPFlag=           0 FMFlag=      100000 FMFlg1=           0
         NFxFlg=           0 DoJE=T BraDBF=F KetDBF=T FulRan=T
         wScrn=  0.000000 ICntrl=     500 IOpCl=  0 I1Cent=   200000004 NGrid=           0
         NMat0=    1 NMatS0=      1 NMatT0=    0 NMatD0=    1 NMtDS0=    0 NMtDT0=    0
 Petite list used in FoFCou.
 Harris En= -156.055301011092    
 Leave Link  401 at Wed Aug 19 17:46:09 2020, MaxMem=    65536000 cpu:         1.5
 (Enter /opt/cluster/programs/g09/g09_d.01/g09/l502.exe)
 Closed shell SCF:
 Using DIIS extrapolation, IDIIS=  1040.
 Integral symmetry usage will be decided dynamically.
 Keep R1 ints in memory in canonical form, NReq=9341552.
 IVT=       44254 IEndB=       44254 NGot=    65536000 MDV=    57105187
 LenX=    57105187 LenY=    57096646
 Requested convergence on RMS density matrix=1.00D-08 within 128 cycles.
 Requested convergence on MAX density matrix=1.00D-06.
 Requested convergence on             energy=1.00D-06.
 No special actions if energy rises.
 FoFCou: FMM=F IPFlag=           0 FMFlag=           0 FMFlg1=           0
         NFxFlg=           0 DoJE=F BraDBF=F KetDBF=F FulRan=T
         wScrn=  0.000000 ICntrl=     600 IOpCl=  0 I1Cent=           0 NGrid=           0
         NMat0=    1 NMatS0=   4095 NMatT0=    0 NMatD0=    1 NMtDS0=    0 NMtDT0=    0
 Symmetry not used in FoFCou.
 Integral accuracy reduced to 1.0D-05 until final iterations.

 Cycle   1  Pass 0  IDiag  1:
 E= -155.638027659293    
 DIIS: error= 8.63D-04 at cycle   1 NSaved=   1.
 NSaved= 1 IEnMin= 1 EnMin= -155.638027659293     IErMin= 1 ErrMin= 8.63D-04
 ErrMax= 8.63D-04  0.00D+00 EMaxC= 1.00D-01 BMatC= 9.68D-05 BMatP= 9.68D-05
 IDIUse=3 WtCom= 9.91D-01 WtEn= 8.63D-03
 Coeff-Com:  0.100D+01
 Coeff-En:   0.100D+01
 Coeff:      0.100D+01
 Gap=     2.647 Goal=   None    Shift=    0.000
 RMSDP=1.74D-04 MaxDP=1.50D-03              OVMax= 3.59D-03

 Cycle   2  Pass 0  IDiag  1:
 E= -155.638146916378     Delta-E=       -0.000119257085 Rises=F Damp=F
 DIIS: error= 3.31D-04 at cycle   2 NSaved=   2.
 NSaved= 2 IEnMin= 2 EnMin= -155.638146916378     IErMin= 2 ErrMin= 3.31D-04
 ErrMax= 3.31D-04  0.00D+00 EMaxC= 1.00D-01 BMatC= 1.05D-05 BMatP= 9.68D-05
 IDIUse=3 WtCom= 9.97D-01 WtEn= 3.31D-03
 Coeff-Com:  0.111D+00 0.889D+00
 Coeff-En:   0.000D+00 0.100D+01
 Coeff:      0.110D+00 0.890D+00
 Gap=     0.302 Goal=   None    Shift=    0.000
 RMSDP=5.54D-05 MaxDP=9.65D-04 DE=-1.19D-04 OVMax= 2.12D-03

 Cycle   3  Pass 0  IDiag  1:
 E= -155.638151012911     Delta-E=       -0.000004096533 Rises=F Damp=F
 DIIS: error= 4.24D-04 at cycle   3 NSaved=   3.
 NSaved= 3 IEnMin= 3 EnMin= -155.638151012911     IErMin= 2 ErrMin= 3.31D-04
 ErrMax= 4.24D-04  0.00D+00 EMaxC= 1.00D-01 BMatC= 6.79D-06 BMatP= 1.05D-05
 IDIUse=3 WtCom= 9.96D-01 WtEn= 4.24D-03
 Coeff-Com: -0.440D-01 0.446D+00 0.598D+00
 Coeff-En:   0.000D+00 0.371D+00 0.629D+00
 Coeff:     -0.438D-01 0.446D+00 0.598D+00
 Gap=     0.302 Goal=   None    Shift=    0.000
 RMSDP=2.90D-05 MaxDP=5.18D-04 DE=-4.10D-06 OVMax= 1.25D-03

 Cycle   4  Pass 0  IDiag  1:
 E= -155.638158082231     Delta-E=       -0.000007069319 Rises=F Damp=F
 DIIS: error= 4.10D-05 at cycle   4 NSaved=   4.
 NSaved= 4 IEnMin= 4 EnMin= -155.638158082231     IErMin= 4 ErrMin= 4.10D-05
 ErrMax= 4.10D-05  0.00D+00 EMaxC= 1.00D-01 BMatC= 1.50D-07 BMatP= 6.79D-06
 IDIUse=1 WtCom= 1.00D+00 WtEn= 0.00D+00
 Coeff-Com: -0.163D-01 0.656D-01 0.182D+00 0.769D+00
 Coeff:     -0.163D-01 0.656D-01 0.182D+00 0.769D+00
 Gap=     0.302 Goal=   None    Shift=    0.000
 RMSDP=4.16D-06 MaxDP=7.13D-05 DE=-7.07D-06 OVMax= 1.62D-04

 Initial convergence to 1.0D-05 achieved.  Increase integral accuracy.
 Cycle   5  Pass 1  IDiag  1:
 E= -155.638183042695     Delta-E=       -0.000024960465 Rises=F Damp=F
 DIIS: error= 7.73D-06 at cycle   1 NSaved=   1.
 NSaved= 1 IEnMin= 1 EnMin= -155.638183042695     IErMin= 1 ErrMin= 7.73D-06
 ErrMax= 7.73D-06  0.00D+00 EMaxC= 1.00D-01 BMatC= 7.47D-09 BMatP= 7.47D-09
 IDIUse=1 WtCom= 1.00D+00 WtEn= 0.00D+00
 Coeff-Com:  0.100D+01
 Coeff:      0.100D+01
 Gap=     0.302 Goal=   None    Shift=    0.000
 RMSDP=4.16D-06 MaxDP=7.13D-05 DE=-2.50D-05 OVMax= 4.20D-05

 Cycle   6  Pass 1  IDiag  1:
 E= -155.638183050574     Delta-E=       -0.000000007878 Rises=F Damp=F
 DIIS: error= 6.97D-06 at cycle   2 NSaved=   2.
 NSaved= 2 IEnMin= 2 EnMin= -155.638183050574     IErMin= 2 ErrMin= 6.97D-06
 ErrMax= 6.97D-06  0.00D+00 EMaxC= 1.00D-01 BMatC= 2.51D-09 BMatP= 7.47D-09
 IDIUse=1 WtCom= 1.00D+00 WtEn= 0.00D+00
 Coeff-Com:  0.350D+00 0.650D+00
 Coeff:      0.350D+00 0.650D+00
 Gap=     0.302 Goal=   None    Shift=    0.000
 RMSDP=6.34D-07 MaxDP=8.86D-06 DE=-7.88D-09 OVMax= 1.85D-05

 Cycle   7  Pass 1  IDiag  1:
 E= -155.638183053383     Delta-E=       -0.000000002809 Rises=F Damp=F
 DIIS: error= 1.03D-06 at cycle   3 NSaved=   3.
 NSaved= 3 IEnMin= 3 EnMin= -155.638183053383     IErMin= 3 ErrMin= 1.03D-06
 ErrMax= 1.03D-06  0.00D+00 EMaxC= 1.00D-01 BMatC= 9.95D-11 BMatP= 2.51D-09
 IDIUse=1 WtCom= 1.00D+00 WtEn= 0.00D+00
 Coeff-Com: -0.219D-01 0.808D-01 0.941D+00
 Coeff:     -0.219D-01 0.808D-01 0.941D+00
 Gap=     0.302 Goal=   None    Shift=    0.000
 RMSDP=2.00D-07 MaxDP=2.21D-06 DE=-2.81D-09 OVMax= 8.39D-06

 Cycle   8  Pass 1  IDiag  1:
 E= -155.638183053494     Delta-E=       -0.000000000111 Rises=F Damp=F
 DIIS: error= 1.33D-06 at cycle   4 NSaved=   4.
 NSaved= 4 IEnMin= 4 EnMin= -155.638183053494     IErMin= 3 ErrMin= 1.03D-06
 ErrMax= 1.33D-06  0.00D+00 EMaxC= 1.00D-01 BMatC= 4.20D-11 BMatP= 9.95D-11
 IDIUse=1 WtCom= 1.00D+00 WtEn= 0.00D+00
 Coeff-Com: -0.474D-01-0.253D-01 0.472D+00 0.600D+00
 Coeff:     -0.474D-01-0.253D-01 0.472D+00 0.600D+00
 Gap=     0.302 Goal=   None    Shift=    0.000
 RMSDP=6.20D-08 MaxDP=1.29D-06 DE=-1.11D-10 OVMax= 4.54D-06

 Cycle   9  Pass 1  IDiag  1:
 E= -155.638183053544     Delta-E=       -0.000000000050 Rises=F Damp=F
 DIIS: error= 1.04D-07 at cycle   5 NSaved=   5.
 NSaved= 5 IEnMin= 5 EnMin= -155.638183053544     IErMin= 5 ErrMin= 1.04D-07
 ErrMax= 1.04D-07  0.00D+00 EMaxC= 1.00D-01 BMatC= 8.92D-13 BMatP= 4.20D-11
 IDIUse=1 WtCom= 1.00D+00 WtEn= 0.00D+00
 Coeff-Com:  0.462D-02-0.394D-02-0.106D+00 0.227D-01 0.108D+01
 Coeff:      0.462D-02-0.394D-02-0.106D+00 0.227D-01 0.108D+01
 Gap=     0.302 Goal=   None    Shift=    0.000
 RMSDP=1.78D-08 MaxDP=2.41D-07 DE=-4.95D-11 OVMax= 6.61D-07

 Cycle  10  Pass 1  IDiag  1:
 E= -155.638183053546     Delta-E=       -0.000000000002 Rises=F Damp=F
 DIIS: error= 1.07D-08 at cycle   6 NSaved=   6.
 NSaved= 6 IEnMin= 6 EnMin= -155.638183053546     IErMin= 6 ErrMin= 1.07D-08
 ErrMax= 1.07D-08  0.00D+00 EMaxC= 1.00D-01 BMatC= 6.03D-15 BMatP= 8.92D-13
 IDIUse=1 WtCom= 1.00D+00 WtEn= 0.00D+00
 Coeff-Com:  0.109D-02 0.144D-03-0.143D-01-0.669D-02 0.545D-01 0.965D+00
 Coeff:      0.109D-02 0.144D-03-0.143D-01-0.669D-02 0.545D-01 0.965D+00
 Gap=     0.302 Goal=   None    Shift=    0.000
 RMSDP=1.69D-09 MaxDP=2.53D-08 DE=-2.22D-12 OVMax= 7.98D-08

 SCF Done:  E(RB2PLYPD3) =  -155.638183054     A.U. after   10 cycles
            NFock= 10  Conv=0.17D-08     -V/T= 2.0070
 KE= 1.545528018178D+02 PE=-5.675872970549D+02 EE= 1.538065965567D+02
 Leave Link  502 at Wed Aug 19 17:46:10 2020, MaxMem=    65536000 cpu:         7.1
 (Enter /opt/cluster/programs/g09/g09_d.01/g09/l801.exe)
 DoSCS=T DFT=T ScalE2(SS,OS)=  0.270000  0.270000
 ExpMin= 1.61D-01 ExpMax= 3.05D+03 ExpMxC= 4.57D+02 IAcc=3 IRadAn=         5 AccDes= 0.00D+00
 HarFok:  IExCor=  205 AccDes= 0.00D+00 IRadAn=         5 IDoV=-2 UseB2=F ITyADJ=14
 ICtDFT= 12500011 ScaDFX=  1.000000  1.000000  1.000000  1.000000
 Largest valence mixing into a core orbital is  1.06D-04
 Largest core mixing into a valence orbital is  2.16D-05
 Range of M.O.s used for correlation:     5    90
 NBasis=    90 NAE=    15 NBE=    15 NFC=     4 NFV=     0
 NROrb=     86 NOA=    11 NOB=    11 NVA=    75 NVB=    75
 Leave Link  801 at Wed Aug 19 17:46:10 2020, MaxMem=    65536000 cpu:         0.5
 (Enter /opt/cluster/programs/g09/g09_d.01/g09/l906.exe)
 DoSCS=T DFT=T ScalE2(SS,OS)=  0.270000  0.270000
 Frozen-core derivative calculation, NFC=   4 NFV=   0.
 FulOut=F Deriv=T AODrv=T NAtomX=    10
   MMem=         175  MDisk=          11 MDiskD=          11
  W3Min=      121500 MinDsk=      241745 NBas6D=          90
 NBas2D=        4221    NTT=        4095    LW2=     2040000
    MDV=    65428591 MDiskM=        9788 NBas2p=        4119
 Fully direct method using O(ONN) memory.
 IMap=   1   2   3   4   5   6   7   8   9  10  11  12  13  14  15
 JobTyp=1 Pass  1:  I=   5 to   8 NPSUse=  8 ParTrn=T ParDer=T DoDerP=T.
 JobTyp=1 Pass  2:  I=   9 to  12 NPSUse=  8 ParTrn=T ParDer=T DoDerP=T.
 JobTyp=1 Pass  3:  I=  13 to  15 NPSUse=  8 ParTrn=T ParDer=T DoDerP=T.
 Spin components of T(2) and E(2):
     alpha-alpha T2 =       0.3461822878D-01 E2=     -0.2086715385D-01
     alpha-beta  T2 =       0.2366089559D+00 E2=     -0.1382787872D+00
     beta-beta   T2 =       0.3461822878D-01 E2=     -0.2086715385D-01
 The integrals were generated   3 times.
 E2(B2PLYPD3) =    -0.1800130949D+00 E(B2PLYPD3) =    -0.15581819614847D+03
 Leave Link  906 at Wed Aug 19 17:46:11 2020, MaxMem=    65536000 cpu:         9.1
 (Enter /opt/cluster/programs/g09/g09_d.01/g09/l1002.exe)
 Minotr:  Closed shell wavefunction.
          Computing MP2/KS-MP2 derivatives.
          Using Z-Vector for PSCF gradient.
          Skipping F1 and S1 gradient terms here.
          IDoAtm=1111111111
          Frozen-core window.
          Direct CPHF calculation.
          Differentiating once with respect to electric field.
                with respect to dipole field.
          Differentiating once with respect to nuclear coordinates.
          Requested convergence is 1.0D-10 RMS, and 1.0D-09 maximum.
          NewPWx=F KeepS1=T KeepF1=T KeepIn=T MapXYZ=F SortEE=F KeepMc=T.
          MDV=      65535810 using IRadAn=       0.
 Using stored XC quadrature information.
 Keep R1 ints in memory in canonical form, NReq=9298635.
 FoFCou: FMM=F IPFlag=           0 FMFlag=           0 FMFlg1=           0
         NFxFlg=           0 DoJE=F BraDBF=F KetDBF=F FulRan=T
         wScrn=  0.000000 ICntrl=     600 IOpCl=  0 I1Cent=           0 NGrid=           0
         NMat0=    1 NMatS0=   4095 NMatT0=    0 NMatD0=    1 NMtDS0=    0 NMtDT0=    0
 Symmetry not used in FoFCou.
          Solving linear equations separately, MaxMat=       0.
          There are     1 degrees of freedom in the 1st order CPHF.  IDoFFX=0 NUNeed=     1.
 LinEq1:  Iter=  0 NonCon=     1 RMS=2.11D-03 Max=3.89D-02 NDo=     1
 AX will form     1 AO Fock derivatives at one time.
 LinEq1:  Iter=  1 NonCon=     1 RMS=7.14D-04 Max=8.84D-03 NDo=     1
 LinEq1:  Iter=  2 NonCon=     1 RMS=2.06D-04 Max=5.24D-03 NDo=     1
 LinEq1:  Iter=  3 NonCon=     1 RMS=1.09D-04 Max=2.09D-03 NDo=     1
 LinEq1:  Iter=  4 NonCon=     1 RMS=2.57D-05 Max=3.62D-04 NDo=     1
 LinEq1:  Iter=  5 NonCon=     1 RMS=3.59D-06 Max=3.99D-05 NDo=     1
 LinEq1:  Iter=  6 NonCon=     1 RMS=3.82D-07 Max=3.15D-06 NDo=     1
 LinEq1:  Iter=  7 NonCon=     1 RMS=8.27D-08 Max=1.04D-06 NDo=     1
 LinEq1:  Iter=  8 NonCon=     1 RMS=1.55D-08 Max=1.63D-07 NDo=     1
 LinEq1:  Iter=  9 NonCon=     1 RMS=7.21D-09 Max=1.68D-07 NDo=     1
 LinEq1:  Iter= 10 NonCon=     1 RMS=2.65D-09 Max=2.15D-08 NDo=     1
 LinEq1:  Iter= 11 NonCon=     1 RMS=3.51D-10 Max=2.95D-09 NDo=     1
 LinEq1:  Iter= 12 NonCon=     1 RMS=1.18D-10 Max=1.77D-09 NDo=     1
 LinEq1:  Iter= 13 NonCon=     0 RMS=1.87D-11 Max=2.42D-10 NDo=     1
 Linear equations converged to 1.000D-10 1.000D-09 after    13 iterations.
 End of Minotr F.D. properties file   721 does not exist.
 End of Minotr F.D. properties file   722 does not exist.
 End of Minotr F.D. properties file   788 does not exist.
 Leave Link 1002 at Wed Aug 19 17:46:13 2020, MaxMem=    65536000 cpu:        14.8
 (Enter /opt/cluster/programs/g09/g09_d.01/g09/l701.exe)
 Compute integral first derivatives.
 ... and contract with generalized density number  2.
 R6Disp: Adding Grimme-D3(BJ) dispersion energy 1st derivatives to the gradient.
 Leave Link  701 at Wed Aug 19 17:46:20 2020, MaxMem=    65536000 cpu:         0.9
 (Enter /opt/cluster/programs/g09/g09_d.01/g09/l702.exe)
 L702 exits ... SP integral derivatives will be done elsewhere.
 Leave Link  702 at Wed Aug 19 17:46:21 2020, MaxMem=    65536000 cpu:         0.1
 (Enter /opt/cluster/programs/g09/g09_d.01/g09/l703.exe)
 Compute integral first derivatives, UseDBF=F ICtDFT=           0.
 Integral derivatives from FoFJK, PRISM(SPDF).
 Calling FoFJK, ICntrl=  10002127 FMM=F ISym2X=0 I1Cent= 0 IOpClX= 0 NMat=1 NMatS=1 NMatT=0.
 FoFJK:  IHMeth= 1 ICntrl=10002127 DoSepK=F KAlg= 0 I1Cent=   0 FoldK=F
 IRaf=         0 NMat=   1 IRICut=       1 DoRegI=T DoRafI=F ISym2E= 0.
 FoFCou: FMM=F IPFlag=           0 FMFlag=      100000 FMFlg1=         800
         NFxFlg=           0 DoJE=F BraDBF=F KetDBF=F FulRan=T
         wScrn=  0.000000 ICntrl=10002127 IOpCl=  0 I1Cent=           0 NGrid=           0
         NMat0=    1 NMatS0=      1 NMatT0=    0 NMatD0=    1 NMtDS0=    0 NMtDT0=    0
 Symmetry not used in FoFCou.
 Leave Link  703 at Wed Aug 19 17:46:21 2020, MaxMem=    65536000 cpu:         3.5
 (Enter /opt/cluster/programs/g09/g09_d.01/g09/l716.exe)
 Dipole        = 5.25899407D-05 2.47471539D-06 5.71916993D-07
 ***** Axes restored to original set *****
 -------------------------------------------------------------------
 Center     Atomic                   Forces (Hartrees/Bohr)
 Number     Number              X              Y              Z
 -------------------------------------------------------------------
      1        6           0.001905024   -0.001520105    0.000037639
      2        6          -0.002181683    0.001339934   -0.000031425
      3        6           0.002175906   -0.001311033    0.000030612
      4        6          -0.001912147    0.001496852   -0.000036853
      5        1           0.000334934    0.000124423   -0.000004810
      6        1           0.000176110    0.000493434   -0.000015009
      7        1           0.000472607   -0.000611014    0.000016151
      8        1          -0.000477111    0.000605689   -0.000015994
      9        1          -0.000169818   -0.000488947    0.000014831
     10        1          -0.000323824   -0.000129233    0.000004857
 -------------------------------------------------------------------
 Cartesian Forces:  Max     0.002181683 RMS     0.000945758
 Leave Link  716 at Wed Aug 19 17:46:22 2020, MaxMem=    65536000 cpu:         0.2
 (Enter /opt/cluster/programs/g09/g09_d.01/g09/l103.exe)

 GradGradGradGradGradGradGradGradGradGradGradGradGradGradGradGradGradGrad
 Berny optimization.
 Using GEDIIS/GDIIS optimizer.
 FormGI is forming the generalized inverse of G from B-inverse, IUseBI=4.
 Internal  Forces:  Max     0.002521447 RMS     0.000724091
 Search for a local minimum.
 Step number   2 out of a maximum of   43
 All quantities printed in internal units (Hartrees-Bohrs-Radians)
 RMS Force = .72409D-03 SwitMx=.10000D-02 MixMth= 2
 Mixed Optimization -- En-DIIS/RFO-DIIS
 Update second derivatives using D2CorX and points    1    2
 DE= -4.87D-04 DEPred=-5.37D-04 R= 9.07D-01
 TightC=F SS=  1.41D+00  RLast= 6.61D-02 DXNew= 5.0454D-01 1.9842D-01
 Trust test= 9.07D-01 RLast= 6.61D-02 DXMaxT set to 3.00D-01
 ITU=  1  0
 Use linear search instead of GDIIS.
     Eigenvalues ---    0.01536   0.02239   0.02241   0.02910   0.02910
     Eigenvalues ---    0.02912   0.02912   0.14603   0.16000   0.16000
     Eigenvalues ---    0.16000   0.16000   0.16139   0.22000   0.23246
     Eigenvalues ---    0.34954   0.35038   0.35167   0.35339   0.35362
     Eigenvalues ---    0.35587   0.39513   0.57693   0.64138
 RFO step:  Lambda=-3.00407873D-05 EMin= 1.53648726D-02
 Quartic linear search produced a step of -0.07587.
 Iteration  1 RMS(Cart)=  0.00407428 RMS(Int)=  0.00000422
 Iteration  2 RMS(Cart)=  0.00000503 RMS(Int)=  0.00000000
 Iteration  3 RMS(Cart)=  0.00000000 RMS(Int)=  0.00000000
 ITry= 1 IFail=0 DXMaxC= 1.06D-02 DCOld= 1.00D+10 DXMaxT= 3.00D-01 DXLimC= 3.00D+00 Rises=F
 Variable       Old X    -DE/DX   Delta X   Delta X   Delta X     New X
                                 (Linear)    (Quad)   (Total)
    R1        2.53779  -0.00252  -0.00075  -0.00302  -0.00377   2.53402
    R2        2.04555  -0.00035   0.00044  -0.00152  -0.00108   2.04447
    R3        2.04734   0.00050   0.00027   0.00093   0.00120   2.04854
    R4        2.75226  -0.00058  -0.00211   0.00150  -0.00061   2.75165
    R5        2.05251   0.00058   0.00027   0.00116   0.00143   2.05395
    R6        2.53775  -0.00250  -0.00072  -0.00303  -0.00375   2.53401
    R7        2.05253   0.00058   0.00028   0.00114   0.00142   2.05395
    R8        2.04736   0.00049   0.00027   0.00092   0.00119   2.04854
    R9        2.04553  -0.00035   0.00044  -0.00150  -0.00106   2.04446
    A1        2.12288   0.00006  -0.00156   0.00245   0.00090   2.12378
    A2        2.11956  -0.00020   0.00103  -0.00253  -0.00150   2.11806
    A3        2.04075   0.00013   0.00053   0.00007   0.00060   2.04135
    A4        2.16746  -0.00075  -0.00167  -0.00088  -0.00255   2.16491
    A5        2.08004   0.00090  -0.00008   0.00470   0.00462   2.08466
    A6        2.03568  -0.00015   0.00175  -0.00382  -0.00207   2.03361
    A7        2.16764  -0.00077  -0.00163  -0.00104  -0.00267   2.16497
    A8        2.03561  -0.00014   0.00174  -0.00378  -0.00204   2.03357
    A9        2.07993   0.00091  -0.00011   0.00481   0.00470   2.08464
   A10        2.11955  -0.00020   0.00102  -0.00250  -0.00148   2.11807
   A11        2.12279   0.00007  -0.00155   0.00249   0.00094   2.12373
   A12        2.04084   0.00012   0.00053   0.00001   0.00054   2.04138
    D1       -3.14159   0.00000   0.00000   0.00000   0.00000  -3.14159
    D2        0.00000   0.00000   0.00000   0.00000   0.00000   0.00000
    D3        0.00000   0.00000   0.00000   0.00000   0.00000   0.00000
    D4        3.14159   0.00000   0.00000   0.00000   0.00000  -3.14159
    D5        3.14159   0.00000   0.00000   0.00000   0.00000   3.14159
    D6        0.00000   0.00000   0.00000   0.00000   0.00000   0.00000
    D7        0.00000   0.00000   0.00000   0.00000   0.00000   0.00000
    D8       -3.14159   0.00000   0.00000   0.00000   0.00000   3.14159
    D9        0.00000   0.00000   0.00000   0.00000   0.00000   0.00000
   D10       -3.14159   0.00000   0.00000   0.00000   0.00000   3.14159
   D11        3.14159   0.00000   0.00000   0.00000   0.00000  -3.14159
   D12        0.00000   0.00000   0.00000   0.00000   0.00000   0.00000
         Item               Value     Threshold  Converged?
 Maximum Force            0.002521     0.000450     NO 
 RMS     Force            0.000724     0.000300     NO 
 Maximum Displacement     0.010610     0.001800     NO 
 RMS     Displacement     0.004076     0.001200     NO 
 Predicted change in Energy=-1.833124D-05
 Lowest energy point so far.  Saving SCF results.
 GradGradGradGradGradGradGradGradGradGradGradGradGradGradGradGradGradGrad

 Leave Link  103 at Wed Aug 19 17:46:22 2020, MaxMem=    65536000 cpu:         0.1
 (Enter /opt/cluster/programs/g09/g09_d.01/g09/l202.exe)
                          Input orientation:                          
 ---------------------------------------------------------------------
 Center     Atomic      Atomic             Coordinates (Angstroms)
 Number     Number       Type             X           Y           Z
 ---------------------------------------------------------------------
      1          6           0       -3.848259    0.226649    0.018210
      2          6           0       -2.721779   -0.500593    0.035457
      3          6           0       -1.382496    0.070477    0.014105
      4          6           0       -0.255977   -0.656692    0.031350
      5          1           0       -4.825040   -0.238204    0.035193
      6          1           0       -3.819943    1.309858   -0.013471
      7          1           0       -2.786435   -1.585102    0.067303
      8          1           0       -1.317883    1.154992   -0.017742
      9          1           0       -0.284210   -1.739904    0.063030
     10          1           0        0.720753   -0.191739    0.014364
 ---------------------------------------------------------------------
                    Distance matrix (angstroms):
                    1          2          3          4          5
     1  C    0.000000
     2  C    1.340946   0.000000
     3  C    2.470707   1.456110   0.000000
     4  C    3.699318   2.470741   1.340939   0.000000
     5  H    1.081886   2.119564   3.456419   4.588189   0.000000
     6  H    1.084042   2.118040   2.734588   4.070771   1.846370
     7  H    2.100553   1.086901   2.171363   2.695636   2.443578
     8  H    2.695536   2.171340   1.086905   2.100536   3.774115
     9  H    4.070846   2.734666   2.118043   1.084042   4.782783
    10  H    4.588130   3.456424   2.119532   1.081884   5.546027
                    6          7          8          9         10
     6  H    0.000000
     7  H    3.074973   0.000000
     8  H    2.506852   3.109983   0.000000
     9  H    4.669937   2.507013   3.074968   0.000000
    10  H    4.782624   3.774207   2.443512   1.846384   0.000000
 Stoichiometry    C4H6
 Framework group  C1[X(C4H6)]
 Deg. of freedom    24
 Full point group                 C1      NOp   1
 RotChk:  IX=2 Diff= 2.14D-04
 Largest Abelian subgroup         C1      NOp   1
 Largest concise Abelian subgroup C1      NOp   1
                         Standard orientation:                         
 ---------------------------------------------------------------------
 Center     Atomic      Atomic             Coordinates (Angstroms)
 Number     Number       Type             X           Y           Z
 ---------------------------------------------------------------------
      1          6           0        1.846392   -0.109781    0.000000
      2          6           0        0.606981    0.402075    0.000000
      3          6           0       -0.606970   -0.402026    0.000000
      4          6           0       -1.846406    0.109750    0.000000
      5          1           0        2.723022    0.524253    0.000000
      6          1           0        2.014405   -1.180724    0.000000
      7          1           0        0.474475    1.480869    0.000000
      8          1           0       -0.474421   -1.480818    0.000000
      9          1           0       -2.014501    1.180681    0.000000
     10          1           0       -2.722968   -0.524373    0.000000
 ---------------------------------------------------------------------
 Rotational constants (GHZ):     42.2896331      4.4236927      4.0047746
 Leave Link  202 at Wed Aug 19 17:46:22 2020, MaxMem=    65536000 cpu:         0.0
 (Enter /opt/cluster/programs/g09/g09_d.01/g09/l301.exe)
 Standard basis: 6-31G(d,p) (6D, 7F)
 Ernie: Thresh=  0.10000D-02 Tol=  0.10000D-05 Strict=F.
 There are    90 symmetry adapted cartesian basis functions of A   symmetry.
 There are    90 symmetry adapted basis functions of A   symmetry.
    90 basis functions,   154 primitive gaussians,    90 cartesian basis functions
    15 alpha electrons       15 beta electrons
       nuclear repulsion energy       103.6907699409 Hartrees.
 IExCor=  419 DFT=T Ex+Corr=B2PLYPD3 ExCW=0 ScaHFX=  0.530000
 ScaDFX=  0.470000  0.470000  0.730000  0.730000 ScalE2=  0.270000  0.270000
 IRadAn=      0 IRanWt=     -1 IRanGd=            0 ICorTp=0 IEmpDi=141
 NAtoms=   10 NActive=   10 NUniq=   10 SFac= 1.00D+00 NAtFMM=   60 NAOKFM=F Big=F
 Integral buffers will be    131072 words long.
 Regular integral format.
 Two-electron integral symmetry is turned on.
 R6Disp:  Grimme-D3(BJ) Dispersion energy=       -0.0048255851 Hartrees.
 Nuclear repulsion after empirical dispersion term =      103.6859443558 Hartrees.
 Leave Link  301 at Wed Aug 19 17:46:22 2020, MaxMem=    65536000 cpu:         0.4
 (Enter /opt/cluster/programs/g09/g09_d.01/g09/l302.exe)
 NPDir=0 NMtPBC=     1 NCelOv=     1 NCel=       1 NClECP=     1 NCelD=      1
         NCelK=      1 NCelE2=     1 NClLst=     1 CellRange=     0.0.
 One-electron integrals computed using PRISM.
 NBasis=    90 RedAO= T EigKep=  3.41D-03  NBF=    90
 NBsUse=    90 1.00D-06 EigRej= -1.00D+00 NBFU=    90
 Precomputing XC quadrature grid using
 IXCGrd= 4 IRadAn=           0 IRanWt=          -1 IRanGd=           0 AccXCQ= 0.00D+00.
 Generated NRdTot=       0 NPtTot=           0 NUsed=           0 NTot=          32
 NSgBfM=    90    90    90    90    90 MxSgAt=    10 MxSgA2=    10.
 Leave Link  302 at Wed Aug 19 17:46:22 2020, MaxMem=    65536000 cpu:         0.9
 (Enter /opt/cluster/programs/g09/g09_d.01/g09/l303.exe)
 DipDrv:  MaxL=1.
 Leave Link  303 at Wed Aug 19 17:46:23 2020, MaxMem=    65536000 cpu:         0.1
 (Enter /opt/cluster/programs/g09/g09_d.01/g09/l401.exe)
 Initial guess from the checkpoint file:  "butadiene_opt.chk"
 B after Tr=     0.000000    0.000000    0.000000
         Rot=    1.000000    0.000000    0.000000   -0.000033 Ang=   0.00 deg.
 Guess basis will be translated and rotated to current coordinates.
 JPrj=2 DoOrth=T DoCkMO=T.
 Leave Link  401 at Wed Aug 19 17:46:23 2020, MaxMem=    65536000 cpu:         0.6
 (Enter /opt/cluster/programs/g09/g09_d.01/g09/l502.exe)
 Closed shell SCF:
 Using DIIS extrapolation, IDIIS=  1040.
 Integral symmetry usage will be decided dynamically.
 Keep R1 ints in memory in canonical form, NReq=9341552.
 IVT=       44254 IEndB=       44254 NGot=    65536000 MDV=    57105187
 LenX=    57105187 LenY=    57096646
 Requested convergence on RMS density matrix=1.00D-08 within 128 cycles.
 Requested convergence on MAX density matrix=1.00D-06.
 Requested convergence on             energy=1.00D-06.
 No special actions if energy rises.
 FoFCou: FMM=F IPFlag=           0 FMFlag=           0 FMFlg1=           0
         NFxFlg=           0 DoJE=F BraDBF=F KetDBF=F FulRan=T
         wScrn=  0.000000 ICntrl=     600 IOpCl=  0 I1Cent=           0 NGrid=           0
         NMat0=    1 NMatS0=   4095 NMatT0=    0 NMatD0=    1 NMtDS0=    0 NMtDT0=    0
 Symmetry not used in FoFCou.

 Cycle   1  Pass 1  IDiag  1:
 E= -155.638281054694    
 DIIS: error= 2.75D-04 at cycle   1 NSaved=   1.
 NSaved= 1 IEnMin= 1 EnMin= -155.638281054694     IErMin= 1 ErrMin= 2.75D-04
 ErrMax= 2.75D-04  0.00D+00 EMaxC= 1.00D-01 BMatC= 4.32D-06 BMatP= 4.32D-06
 IDIUse=3 WtCom= 9.97D-01 WtEn= 2.75D-03
 Coeff-Com:  0.100D+01
 Coeff-En:   0.100D+01
 Coeff:      0.100D+01
 Gap=     2.669 Goal=   None    Shift=    0.000
 RMSDP=3.09D-05 MaxDP=3.07D-04              OVMax= 6.11D-04

 Cycle   2  Pass 1  IDiag  1:
 E= -155.638287400153     Delta-E=       -0.000006345459 Rises=F Damp=F
 DIIS: error= 5.82D-05 at cycle   2 NSaved=   2.
 NSaved= 2 IEnMin= 2 EnMin= -155.638287400153     IErMin= 2 ErrMin= 5.82D-05
 ErrMax= 5.82D-05  0.00D+00 EMaxC= 1.00D-01 BMatC= 2.65D-07 BMatP= 4.32D-06
 IDIUse=1 WtCom= 1.00D+00 WtEn= 0.00D+00
 Coeff-Com: -0.569D-02 0.101D+01
 Coeff:     -0.569D-02 0.101D+01
 Gap=     0.303 Goal=   None    Shift=    0.000
 RMSDP=8.96D-06 MaxDP=1.33D-04 DE=-6.35D-06 OVMax= 2.06D-04

 Cycle   3  Pass 1  IDiag  1:
 E= -155.638287703110     Delta-E=       -0.000000302957 Rises=F Damp=F
 DIIS: error= 3.88D-05 at cycle   3 NSaved=   3.
 NSaved= 3 IEnMin= 3 EnMin= -155.638287703110     IErMin= 3 ErrMin= 3.88D-05
 ErrMax= 3.88D-05  0.00D+00 EMaxC= 1.00D-01 BMatC= 6.68D-08 BMatP= 2.65D-07
 IDIUse=1 WtCom= 1.00D+00 WtEn= 0.00D+00
 Coeff-Com: -0.635D-01 0.317D+00 0.747D+00
 Coeff:     -0.635D-01 0.317D+00 0.747D+00
 Gap=     0.303 Goal=   None    Shift=    0.000
 RMSDP=3.01D-06 MaxDP=5.00D-05 DE=-3.03D-07 OVMax= 6.82D-05

 Cycle   4  Pass 1  IDiag  1:
 E= -155.638287777253     Delta-E=       -0.000000074142 Rises=F Damp=F
 DIIS: error= 3.68D-06 at cycle   4 NSaved=   4.
 NSaved= 4 IEnMin= 4 EnMin= -155.638287777253     IErMin= 4 ErrMin= 3.68D-06
 ErrMax= 3.68D-06  0.00D+00 EMaxC= 1.00D-01 BMatC= 1.31D-09 BMatP= 6.68D-08
 IDIUse=1 WtCom= 1.00D+00 WtEn= 0.00D+00
 Coeff-Com: -0.891D-02 0.744D-02 0.118D+00 0.883D+00
 Coeff:     -0.891D-02 0.744D-02 0.118D+00 0.883D+00
 Gap=     0.303 Goal=   None    Shift=    0.000
 RMSDP=6.08D-07 MaxDP=7.37D-06 DE=-7.41D-08 OVMax= 1.82D-05

 Cycle   5  Pass 1  IDiag  1:
 E= -155.638287778394     Delta-E=       -0.000000001141 Rises=F Damp=F
 DIIS: error= 3.23D-06 at cycle   5 NSaved=   5.
 NSaved= 5 IEnMin= 5 EnMin= -155.638287778394     IErMin= 5 ErrMin= 3.23D-06
 ErrMax= 3.23D-06  0.00D+00 EMaxC= 1.00D-01 BMatC= 3.89D-10 BMatP= 1.31D-09
 IDIUse=1 WtCom= 1.00D+00 WtEn= 0.00D+00
 Coeff-Com: -0.368D-03-0.147D-01 0.121D-01 0.409D+00 0.594D+00
 Coeff:     -0.368D-03-0.147D-01 0.121D-01 0.409D+00 0.594D+00
 Gap=     0.303 Goal=   None    Shift=    0.000
 RMSDP=2.25D-07 MaxDP=4.21D-06 DE=-1.14D-09 OVMax= 9.95D-06

 Cycle   6  Pass 1  IDiag  1:
 E= -155.638287778799     Delta-E=       -0.000000000405 Rises=F Damp=F
 DIIS: error= 4.16D-07 at cycle   6 NSaved=   6.
 NSaved= 6 IEnMin= 6 EnMin= -155.638287778799     IErMin= 6 ErrMin= 4.16D-07
 ErrMax= 4.16D-07  0.00D+00 EMaxC= 1.00D-01 BMatC= 1.71D-11 BMatP= 3.89D-10
 IDIUse=1 WtCom= 1.00D+00 WtEn= 0.00D+00
 Coeff-Com:  0.741D-03-0.321D-02-0.105D-01-0.296D-01 0.155D+00 0.887D+00
 Coeff:      0.741D-03-0.321D-02-0.105D-01-0.296D-01 0.155D+00 0.887D+00
 Gap=     0.303 Goal=   None    Shift=    0.000
 RMSDP=6.77D-08 MaxDP=7.75D-07 DE=-4.05D-10 OVMax= 1.65D-06

 Cycle   7  Pass 1  IDiag  1:
 E= -155.638287778818     Delta-E=       -0.000000000019 Rises=F Damp=F
 DIIS: error= 3.55D-08 at cycle   7 NSaved=   7.
 NSaved= 7 IEnMin= 7 EnMin= -155.638287778818     IErMin= 7 ErrMin= 3.55D-08
 ErrMax= 3.55D-08  0.00D+00 EMaxC= 1.00D-01 BMatC= 1.02D-13 BMatP= 1.71D-11
 IDIUse=1 WtCom= 1.00D+00 WtEn= 0.00D+00
 Coeff-Com:  0.247D-04 0.220D-03-0.513D-03-0.893D-02 0.335D-02 0.160D-01
 Coeff-Com:  0.990D+00
 Coeff:      0.247D-04 0.220D-03-0.513D-03-0.893D-02 0.335D-02 0.160D-01
 Coeff:      0.990D+00
 Gap=     0.303 Goal=   None    Shift=    0.000
 RMSDP=6.18D-09 MaxDP=7.57D-08 DE=-1.92D-11 OVMax= 1.77D-07

 SCF Done:  E(RB2PLYPD3) =  -155.638287779     A.U. after    7 cycles
            NFock=  7  Conv=0.62D-08     -V/T= 2.0070
 KE= 1.545639198413D+02 PE=-5.677904090804D+02 EE= 1.539022571044D+02
 Leave Link  502 at Wed Aug 19 17:46:24 2020, MaxMem=    65536000 cpu:         7.8
 (Enter /opt/cluster/programs/g09/g09_d.01/g09/l801.exe)
 DoSCS=T DFT=T ScalE2(SS,OS)=  0.270000  0.270000
 ExpMin= 1.61D-01 ExpMax= 3.05D+03 ExpMxC= 4.57D+02 IAcc=3 IRadAn=         5 AccDes= 0.00D+00
 HarFok:  IExCor=  205 AccDes= 0.00D+00 IRadAn=         5 IDoV=-2 UseB2=F ITyADJ=14
 ICtDFT= 12500011 ScaDFX=  1.000000  1.000000  1.000000  1.000000
 Largest valence mixing into a core orbital is  1.06D-04
 Largest core mixing into a valence orbital is  2.16D-05
 Range of M.O.s used for correlation:     5    90
 NBasis=    90 NAE=    15 NBE=    15 NFC=     4 NFV=     0
 NROrb=     86 NOA=    11 NOB=    11 NVA=    75 NVB=    75
 Leave Link  801 at Wed Aug 19 17:46:24 2020, MaxMem=    65536000 cpu:         0.5
 (Enter /opt/cluster/programs/g09/g09_d.01/g09/l906.exe)
 DoSCS=T DFT=T ScalE2(SS,OS)=  0.270000  0.270000
 Frozen-core derivative calculation, NFC=   4 NFV=   0.
 FulOut=F Deriv=T AODrv=T NAtomX=    10
   MMem=         175  MDisk=          11 MDiskD=          11
  W3Min=      121500 MinDsk=      241745 NBas6D=          90
[...]
     18  0.106161D-03  0.115346D-02 -0.250380D-02  0.334993D-02 -0.846136D-03
     19  0.238479D-03  0.304853D-03 -0.358138D-03  0.106163D-03  0.251974D-03
     20 -0.543322D-03 -0.372321D-03  0.199840D-02 -0.125960D-02 -0.738797D-03
     21  0.304844D-03  0.674674D-04 -0.164026D-02  0.115344D-02  0.486822D-03
     22  0.000000D+00  0.000000D+00  0.000000D+00  0.000000D+00  0.000000D+00
     23  0.000000D+00  0.000000D+00  0.000000D+00  0.000000D+00  0.000000D+00
     24  0.000000D+00  0.000000D+00  0.000000D+00  0.000000D+00  0.000000D+00
     25  0.000000D+00  0.000000D+00  0.000000D+00  0.000000D+00  0.000000D+00
     26  0.000000D+00  0.000000D+00  0.000000D+00  0.000000D+00  0.000000D+00
     27  0.000000D+00  0.000000D+00  0.000000D+00  0.000000D+00  0.000000D+00
     28  0.000000D+00  0.000000D+00  0.000000D+00  0.000000D+00  0.000000D+00
     29  0.000000D+00  0.000000D+00  0.000000D+00  0.000000D+00  0.000000D+00
     30  0.000000D+00  0.000000D+00  0.000000D+00  0.000000D+00  0.000000D+00
     31  0.000000D+00  0.000000D+00  0.000000D+00  0.000000D+00  0.000000D+00
     32  0.000000D+00  0.000000D+00  0.000000D+00  0.000000D+00  0.000000D+00
     33  0.000000D+00  0.000000D+00  0.000000D+00  0.000000D+00  0.000000D+00
               16            17            18            19            20 
     16  0.113706D+00
     17 -0.564265D-01  0.920522D-01
     18 -0.572792D-01 -0.356257D-01  0.929049D-01
     19 -0.936436D-02 -0.165450D-02  0.110189D-01  0.827154D-01
     20  0.112284D-01 -0.166076D-02 -0.956766D-02 -0.451705D-01  0.820722D-01
     21 -0.186407D-02  0.331526D-02 -0.145120D-02 -0.375449D-01 -0.369016D-01
     22  0.000000D+00  0.000000D+00  0.000000D+00  0.000000D+00  0.000000D+00
     23  0.000000D+00  0.000000D+00  0.000000D+00  0.000000D+00  0.000000D+00
     24  0.000000D+00  0.000000D+00  0.000000D+00  0.000000D+00  0.000000D+00
     25  0.000000D+00  0.000000D+00  0.000000D+00  0.000000D+00  0.000000D+00
     26  0.000000D+00  0.000000D+00  0.000000D+00  0.000000D+00  0.000000D+00
     27  0.000000D+00  0.000000D+00  0.000000D+00  0.000000D+00  0.000000D+00
     28  0.000000D+00  0.000000D+00  0.000000D+00  0.000000D+00  0.000000D+00
     29  0.000000D+00  0.000000D+00  0.000000D+00  0.000000D+00  0.000000D+00
     30  0.000000D+00  0.000000D+00  0.000000D+00  0.000000D+00  0.000000D+00
     31  0.000000D+00  0.000000D+00  0.000000D+00  0.000000D+00  0.000000D+00
     32  0.000000D+00  0.000000D+00  0.000000D+00  0.000000D+00  0.000000D+00
     33  0.000000D+00  0.000000D+00  0.000000D+00  0.000000D+00  0.000000D+00
               21            22            23            24            25 
     21  0.744465D-01
     22  0.000000D+00  0.220011D-01
     23  0.000000D+00  0.137340D-01  0.184613D-01
     24  0.000000D+00  0.174580D-02 -0.311931D-02  0.190681D-01
     25  0.000000D+00 -0.652138D-02  0.160798D-02  0.142030D-01  0.223324D-01
     26  0.000000D+00 -0.284114D-02  0.300806D-02 -0.153508D-02  0.431411D-02
     27  0.000000D+00 -0.422963D-02  0.206198D-02 -0.223869D-02  0.405292D-02
     28  0.000000D+00  0.519266D-02 -0.158577D-02  0.319268D-02 -0.358575D-02
     29  0.000000D+00  0.380416D-02 -0.253186D-02  0.248908D-02 -0.384694D-02
     30  0.000000D+00 -0.117034D-02 -0.446307D-03 -0.344546D-03  0.379488D-03
     31  0.000000D+00 -0.242545D-02 -0.996590D-03 -0.117036D-02  0.258493D-03
     32  0.000000D+00  0.258503D-03  0.527269D-03  0.379500D-03  0.648267D-03
     33  0.000000D+00 -0.996602D-03 -0.230135D-04 -0.446317D-03  0.527271D-03
               26            27            28            29            30 
     26  0.731663D-02
     27  0.163266D-02  0.821966D-02
     28  0.163256D-02 -0.448134D-02  0.821963D-02
     29 -0.405142D-02  0.210567D-02  0.210574D-02  0.826282D-02
     30 -0.153505D-02  0.319266D-02 -0.223864D-02  0.248906D-02  0.190679D-01
     31 -0.284108D-02  0.519265D-02 -0.422959D-02  0.380413D-02  0.174579D-02
     32  0.431409D-02 -0.358575D-02  0.405291D-02 -0.384693D-02  0.142029D-01
     33  0.300806D-02 -0.158576D-02  0.206196D-02 -0.253187D-02 -0.311930D-02
               31            32            33 
     31  0.220012D-01
     32 -0.652138D-02  0.223323D-01
     33  0.137340D-01  0.160801D-02  0.184613D-01
 Leave Link  716 at Wed Aug 19 17:47:15 2020, MaxMem=    65536000 cpu:         0.2
 (Enter /opt/cluster/programs/g09/g09_d.01/g09/l103.exe)

 GradGradGradGradGradGradGradGradGradGradGradGradGradGradGradGradGradGrad
 Berny optimization.
 Red2BG is reusing G-inverse.
 Internal  Forces:  Max     0.000066424 RMS     0.000019883
 Search for a local minimum.
 Step number   1 out of a maximum of    2
 All quantities printed in internal units (Hartrees-Bohrs-Radians)
 Second derivative matrix not updated -- analytic derivatives used.
 ITU=  0
     Eigenvalues ---    0.00722   0.02308   0.02338   0.02991   0.03260
     Eigenvalues ---    0.03882   0.04073   0.10740   0.10952   0.11238
     Eigenvalues ---    0.11402   0.11939   0.13851   0.15802   0.19168
     Eigenvalues ---    0.35579   0.36028   0.36390   0.36934   0.36999
     Eigenvalues ---    0.37403   0.37446   0.61653   0.62477
 Angle between quadratic step and forces=  30.11 degrees.
 Linear search not attempted -- first point.
 Iteration  1 RMS(Cart)=  0.00015949 RMS(Int)=  0.00000002
 Iteration  2 RMS(Cart)=  0.00000002 RMS(Int)=  0.00000000
 ITry= 1 IFail=0 DXMaxC= 3.07D-04 DCOld= 1.00D+10 DXMaxT= 3.00D-01 DXLimC= 3.00D+00 Rises=F
 Variable       Old X    -DE/DX   Delta X   Delta X   Delta X     New X
                                 (Linear)    (Quad)   (Total)
    R1        2.53341   0.00004   0.00000   0.00005   0.00005   2.53346
    R2        2.04462   0.00001   0.00000   0.00002   0.00002   2.04464
    R3        2.04874  -0.00001   0.00000  -0.00003  -0.00003   2.04872
    R4        2.75233   0.00007   0.00000   0.00022   0.00022   2.75255
    R5        2.05415  -0.00003   0.00000  -0.00009  -0.00009   2.05406
    R6        2.53341   0.00004   0.00000   0.00005   0.00005   2.53346
    R7        2.05415  -0.00003   0.00000  -0.00009  -0.00009   2.05406
    R8        2.04874  -0.00001   0.00000  -0.00002  -0.00002   2.04872
    R9        2.04462   0.00001   0.00000   0.00002   0.00002   2.04464
    A1        2.12468   0.00002   0.00000   0.00016   0.00016   2.12485
    A2        2.11727  -0.00001   0.00000  -0.00007  -0.00007   2.11720
    A3        2.04124  -0.00001   0.00000  -0.00010  -0.00010   2.04114
    A4        2.16400  -0.00003   0.00000  -0.00022  -0.00022   2.16378
    A5        2.08651   0.00002   0.00000   0.00020   0.00020   2.08670
    A6        2.03268   0.00001   0.00000   0.00002   0.00002   2.03270
    A7        2.16401  -0.00003   0.00000  -0.00023  -0.00023   2.16378
    A8        2.03267   0.00001   0.00000   0.00003   0.00003   2.03270
    A9        2.08651   0.00002   0.00000   0.00020   0.00020   2.08670
   A10        2.11727  -0.00001   0.00000  -0.00007  -0.00007   2.11720
   A11        2.12467   0.00002   0.00000   0.00017   0.00017   2.12485
   A12        2.04124  -0.00001   0.00000  -0.00010  -0.00010   2.04114
    D1        3.14159   0.00000   0.00000   0.00000   0.00000   3.14159
    D2        0.00000   0.00000   0.00000   0.00000   0.00000   0.00000
    D3        0.00000   0.00000   0.00000   0.00000   0.00000   0.00000
    D4        3.14159   0.00000   0.00000   0.00000   0.00000   3.14159
    D5        3.14159   0.00000   0.00000   0.00000   0.00000   3.14159
    D6        0.00000   0.00000   0.00000   0.00000   0.00000   0.00000
    D7        0.00000   0.00000   0.00000   0.00000   0.00000   0.00000
    D8        3.14159   0.00000   0.00000   0.00000   0.00000   3.14159
    D9        0.00000   0.00000   0.00000   0.00000   0.00000   0.00000
   D10       -3.14159   0.00000   0.00000   0.00000   0.00000   3.14159
   D11        3.14159   0.00000   0.00000   0.00000   0.00000   3.14159
   D12        0.00000   0.00000   0.00000   0.00000   0.00000   0.00000
         Item               Value     Threshold  Converged?
 Maximum Force            0.000066     0.000450     YES
 RMS     Force            0.000020     0.000300     YES
 Maximum Displacement     0.000307     0.001800     YES
 RMS     Displacement     0.000159     0.001200     YES
 Predicted change in Energy=-2.870161D-08
 Optimization completed.
    -- Stationary point found.
                           ----------------------------
                           !   Optimized Parameters   !
                           ! (Angstroms and Degrees)  !
 --------------------------                            --------------------------
 ! Name  Definition              Value          Derivative Info.                !
 --------------------------------------------------------------------------------
 ! R1    R(1,2)                  1.3406         -DE/DX =    0.0                 !
 ! R2    R(1,5)                  1.082          -DE/DX =    0.0                 !
 ! R3    R(1,6)                  1.0841         -DE/DX =    0.0                 !
 ! R4    R(2,3)                  1.4565         -DE/DX =    0.0001              !
 ! R5    R(2,7)                  1.087          -DE/DX =    0.0                 !
 ! R6    R(3,4)                  1.3406         -DE/DX =    0.0                 !
 ! R7    R(3,8)                  1.087          -DE/DX =    0.0                 !
 ! R8    R(4,9)                  1.0841         -DE/DX =    0.0                 !
 ! R9    R(4,10)                 1.082          -DE/DX =    0.0                 !
 ! A1    A(2,1,5)              121.7352         -DE/DX =    0.0                 !
 ! A2    A(2,1,6)              121.3104         -DE/DX =    0.0                 !
 ! A3    A(5,1,6)              116.9544         -DE/DX =    0.0                 !
 ! A4    A(1,2,3)              123.9881         -DE/DX =    0.0                 !
 ! A5    A(1,2,7)              119.548          -DE/DX =    0.0                 !
 ! A6    A(3,2,7)              116.4639         -DE/DX =    0.0                 !
 ! A7    A(2,3,4)              123.9886         -DE/DX =    0.0                 !
 ! A8    A(2,3,8)              116.4632         -DE/DX =    0.0                 !
 ! A9    A(4,3,8)              119.5481         -DE/DX =    0.0                 !
 ! A10   A(3,4,9)              121.3108         -DE/DX =    0.0                 !
 ! A11   A(3,4,10)             121.7348         -DE/DX =    0.0                 !
 ! A12   A(9,4,10)             116.9544         -DE/DX =    0.0                 !
 ! D1    D(5,1,2,3)            180.0            -DE/DX =    0.0                 !
 ! D2    D(5,1,2,7)              0.0            -DE/DX =    0.0                 !
 ! D3    D(6,1,2,3)              0.0            -DE/DX =    0.0                 !
 ! D4    D(6,1,2,7)            180.0            -DE/DX =    0.0                 !
 ! D5    D(1,2,3,4)            180.0            -DE/DX =    0.0                 !
 ! D6    D(1,2,3,8)              0.0            -DE/DX =    0.0                 !
 ! D7    D(7,2,3,4)              0.0            -DE/DX =    0.0                 !
 ! D8    D(7,2,3,8)            180.0            -DE/DX =    0.0                 !
 ! D9    D(2,3,4,9)              0.0            -DE/DX =    0.0                 !
 ! D10   D(2,3,4,10)           180.0            -DE/DX =    0.0                 !
 ! D11   D(8,3,4,9)            180.0            -DE/DX =    0.0                 !
 ! D12   D(8,3,4,10)             0.0            -DE/DX =    0.0                 !
 --------------------------------------------------------------------------------
 GradGradGradGradGradGradGradGradGradGradGradGradGradGradGradGradGradGrad

 Leave Link  103 at Wed Aug 19 17:47:15 2020, MaxMem=    65536000 cpu:         0.1
 (Enter /opt/cluster/programs/g09/g09_d.01/g09/l9999.exe)
 1\1\GINC-NODE39\Freq\RB2PLYPD3-FC\6-31G(d,p)\C4H6\BOITTIER\19-Aug-2020
 \0\\#P Geom=AllCheck Guess=TCheck SCRF=Check GenChk RB2PLYPD3(FC)/6-31
 G(d,p) Freq\\butadiene_opt\\0,1\C,-3.8477808712,0.2262319143,0.0182203
 083\C,-2.7217414277,-0.5010936787,0.0354716108\C,-1.3825165721,0.07103
 14227,0.0140885747\C,-0.2564697929,-0.6562832876,0.031339651\H,-4.8251
 613125,-0.2375466951,0.03517382\H,-3.8183538162,1.3095175573,-0.013466
 3841\H,-2.7846506373,-1.5858124622,0.0673176558\H,-1.3196197217,1.1557
 510208,-0.0177574954\H,-0.2858789265,-1.7395685817,0.0630265043\H,0.72
 09030782,-0.1924872098,0.0143857553\\Version=ES64L-G09RevD.01\State=1-
 A\HF=-155.6383\MP2=-155.8182188\RMSD=5.294e-10\RMSF=3.181e-05\ZeroPoin
 t=0.0861069\Thermal=0.0907594\Dipole=-0.0000031,-0.0000006,0.\DipoleDe
 riv=-0.1140947,0.0797941,-0.002977,0.0160651,0.1083125,-0.0119429,-0.0
 01119,-0.0121667,-0.2990276,0.1336737,-0.0191919,-0.0001981,0.0875817,
 0.0862728,-0.0052166,-0.0033111,-0.0048416,-0.0819505,0.1336822,-0.019
 1941,-0.0001981,0.0875809,0.0862717,-0.0052166,-0.0033113,-0.0048416,-
 0.0819505,-0.1140964,0.079794,-0.002977,0.0160652,0.1083139,-0.011943,
 -0.0011188,-0.0121669,-0.2990281,-0.0694341,-0.0356955,0.0017445,-0.06
 16345,0.0132588,0.0036489,0.0025007,0.0035578,0.1308761,0.0376298,-0.0
 423354,0.0015826,-0.0030874,-0.0966383,0.0068174,0.0004383,0.0069553,0
 .1366188,0.0122213,0.0174272,-0.0001518,-0.0389252,-0.1112051,0.006693
 2,0.0014911,0.0064953,0.1134838,0.0122214,0.01743,-0.0001519,-0.038924
 ,-0.1112058,0.0066932,0.0014911,0.0064953,0.1134828,0.0376307,-0.04233
 24,0.0015825,-0.0030859,-0.0966367,0.0068175,0.0004382,0.0069553,0.136
 6196,-0.0694339,-0.0356959,0.0017445,-0.061636,0.0132562,0.0036489,0.0
 025007,0.0035579,0.1308756\Polar=71.9761473,-11.8124048,42.2318767,0.1
 473191,-0.7276312,15.8727519\PG=C01 [X(C4H6)]\NImag=0\\0.80561960,-0.0
 8127551,0.71238831,-0.00009955,-0.01749771,0.10295189,-0.40780774,0.19
 106565,-0.00430208,0.75265581,0.20106977,-0.25098946,0.00525398,-0.115
 99920,0.73305200,-0.00459375,0.00528911,-0.04670326,0.00119117,-0.0172
 1127,0.12924536,-0.04890221,-0.00076037,0.00021196,-0.22219925,-0.0748
 2174,0.00274235,0.75265980,0.01916576,0.01541492,-0.00036661,-0.074822
 28,-0.14530444,0.00267799,-0.11600053,0.73304715,-0.00036899,-0.000296
 64,0.00515885,0.00274237,0.00267799,-0.06255068,0.00119123,-0.01721116
 ,0.12924556,0.00315067,-0.00736262,0.00021025,-0.04890147,0.01916551,-
 0.00036898,-0.40781115,0.20106799,-0.00459372,0.80561653,-0.00736254,-
 0.00069654,0.00010138,-0.00076080,0.01541506,-0.00029664,0.19106333,-0
 .25098553,0.00528903,-0.08127544,0.71239020,0.00021024,0.00010138,0.00
 189012,0.00021198,-0.00036661,0.00515880,-0.00430204,0.00525391,-0.046
 70323,-0.00009947,-0.01749786,0.10295177,-0.29614871,-0.11496097,0.004
 27700,-0.01881707,-0.01529952,0.00052624,-0.00172156,0.00450038,-0.000
 08015,-0.00078434,-0.00112861,0.00003541,0.31381998,-0.11978606,-0.117
 71836,0.00290116,0.01930974,0.01143705,-0.00028410,0.00191314,-0.00236
 700,0.00043601,0.00074082,0.00096634,-0.00003281,0.12385595,0.11435149
 ,0.00441767,0.00288422,-0.03273723,-0.00048279,-0.00016257,0.00402468,
 -0.00000472,0.00042693,0.01280583,-0.00001909,-0.00002625,-0.00006908,
 -0.00463412,-0.00311399,0.02256820,-0.06118513,-0.01424487,0.00051111,
 0.00532474,0.02869766,-0.00084087,0.00175294,0.00185200,-0.00008716,-0
 .00010126,-0.00015864,0.00000512,0.00267425,-0.02638700,0.00076717,0.0
 5559622,-0.01025475,-0.34629660,0.00914387,-0.00324271,-0.01541116,0.0
 0058121,-0.00192987,0.00116925,-0.00025161,0.00010887,0.00047215,-0.00
 001296,0.00262656,-0.00809390,0.00028686,0.00885852,0.36769701,0.00039
 478,0.00915788,-0.03417216,0.00009036,0.00046905,0.00411928,0.00002310
 ,-0.00026489,-0.00768547,-0.00000268,-0.00001202,0.00004097,-0.0000787
 3,0.00038873,0.00205034,-0.00037350,-0.01008724,0.02307471,0.00434894,
 0.02993681,-0.00087124,-0.06009435,-0.01906271,0.00062378,-0.00019190,
 -0.03010180,0.00088736,0.00181032,-0.00111069,0.00002201,0.00110060,-0
 .00023287,-0.00002255,-0.00392690,0.00286437,-0.00002849,0.06181046,-0
 .00356810,-0.01454896,0.00057655,-0.01695626,-0.33553320,0.00865465,0.
 00142254,-0.01146768,0.00040463,0.00116163,0.00100825,-0.00006685,0.00
 011327,0.00124038,-0.00024803,0.00256405,-0.00008310,0.00033573,0.0179
 7365,0.35832322,0.00010560,0.00045890,0.00478268,0.00056237,0.00866204
 ,-0.04098193,-0.00003173,0.00051533,0.00256723,-0.00004424,-0.00005887
 ,-0.00114276,-0.00003264,-0.00024682,-0.00724605,-0.00001974,0.0003346
 8,0.01173146,-0.00064642,-0.00972424,0.02723955,0.00181021,-0.00111088
 ,0.00002201,-0.00019217,-0.03010199,0.00088737,-0.06009371,-0.01905948
 ,0.00062369,0.00434857,0.02993693,-0.00087125,0.00020982,0.00043041,-0
 .00001401,-0.00021101,0.00112997,-0.00003146,-0.00485595,-0.00182707,0
 .00008101,0.06181057,0.00116177,0.00100828,-0.00006685,0.00142241,-0.0
 1146827,0.00040465,-0.01695344,-0.33553321,0.00865465,-0.00356786,-0.0
 1454860,0.00057653,-0.00004720,0.00036970,-0.00001659,-0.00083649,0.00
 050775,-0.00000566,-0.00182712,0.00018373,0.00008981,0.01797066,0.3583
 2323,-0.00004425,-0.00005887,-0.00114278,-0.00003173,0.00051535,0.0025
 6735,0.00056229,0.00866204,-0.04098195,0.00010559,0.00045889,0.0047825
 8,-0.00000008,-0.00001827,-0.00020453,0.00002588,-0.00001257,0.0002130
 7,0.00008101,0.00008981,0.00304129,-0.00064633,-0.00972425,0.02723959,
 -0.00010127,-0.00015863,0.00000512,0.00175306,0.00185183,-0.00008716,0
 .00532457,0.02869788,-0.00084088,-0.06118457,-0.01424014,0.00051097,0.
 00002442,-0.00010422,0.00000392,0.00005173,-0.00024102,0.00000809,-0.0
 0021101,-0.00083649,0.00002588,-0.00392694,0.00256400,-0.00001974,0.05
 559538,0.00010886,0.00047211,-0.00001296,-0.00192973,0.00116928,-0.000
 25161,-0.00324253,-0.01541051,0.00058119,-0.01025023,-0.34629908,0.009
 14400,0.00008007,-0.00000759,0.00000793,-0.00024101,0.00004617,0.00000
 983,0.00112996,0.00050770,-0.00001257,0.00286427,-0.00008300,0.0003346
 8,0.00885360,0.36769915,-0.00000268,-0.00001202,0.00004097,0.00002309,
 -0.00026489,-0.00768541,0.00009036,0.00046903,0.00411918,0.00039464,0.
 00915802,-0.03417181,-0.00000146,0.00000858,0.00027383,0.00000809,0.00
 000983,0.00035396,-0.00003146,-0.00000566,0.00021306,-0.00002849,0.000
 33573,0.01173148,-0.00037336,-0.01008736,0.02307442,-0.00078437,-0.001
 12862,0.00003541,-0.00172156,0.00450039,-0.00008016,-0.01881753,-0.015
 29992,0.00052626,-0.29614331,-0.11496340,0.00427702,-0.00035738,0.0002
 6010,-0.00001148,0.00002442,0.00008007,-0.00000146,0.00020980,-0.00004
 722,-0.00000008,0.00110061,0.00011327,-0.00003264,0.00267464,0.0026267
 3,-0.00007874,0.31381467,0.00074080,0.00096630,-0.00003281,0.00191318,
 -0.00236687,0.00043601,0.01930946,0.01143704,-0.00028410,-0.11978867,-
 0.11772224,0.00290127,0.00026009,-0.00017812,-0.00003850,-0.00010422,-
 0.00000759,0.00000858,0.00043041,0.00036967,-0.00001827,-0.00023282,0.
 00124037,-0.00024682,-0.02638682,-0.00809425,0.00038874,0.12385859,0.1
 1435569,-0.00001909,-0.00002625,-0.00006908,-0.00000472,0.00042692,0.0
 1280583,-0.00048279,-0.00016257,0.00402468,0.00441770,0.00288433,-0.03
 273735,-0.00001148,-0.00003850,-0.00146599,0.00000392,0.00000793,0.000
 27384,-0.00001401,-0.00001659,-0.00020453,-0.00002255,-0.00024804,-0.0
 0724610,0.00076716,0.00028687,0.00205032,-0.00463415,-0.00311411,0.022
 56837\\0.00000868,-0.00003166,0.00000089,0.00003351,0.00010962,-0.0000
 0331,-0.00003317,-0.00010915,0.00000329,-0.00000882,0.00003014,-0.0000
 0086,0.00001194,-0.00001244,0.00000032,0.00000124,0.00000815,-0.000000
 24,-0.00000697,-0.00002547,0.00000077,0.00000624,0.00002551,-0.0000007
 6,-0.00000087,-0.00000772,0.00000023,-0.00001177,0.00001301,-0.0000003
 3\\\@


 THEORY:  SUPPOSITION WHICH HAS SCIENTIFIC BASIS,
          BUT NOT EXPERIMENTALLY PROVEN.
 FACT:    A THEORY WHICH HAS BEEN PROVEN BY ENOUGH 
          MONEY TO PAY FOR THE EXPERIMENTS.

                          --  THE WIZARD OF ID
 Job cpu time:       0 days  0 hours  4 minutes 56.6 seconds.
 File lengths (MBytes):  RWF=    419 Int=      0 D2E=      0 Chk=      3 Scr=      1
 Normal termination of Gaussian 09 at Wed Aug 19 17:47:15 2020.
